<event>
 4    1  0.1724904E-005  0.7034787E+03  0.7818608E-02  0.9711302E-01
         -2   -1    0    0    0  501 -0.00000000000E+00  0.00000000000E+00  0.38687319051E+02  0.38687319135E+02  0.25500000000E-02 0. -1.
          2   -1    0    0  501    0  0.00000000000E+00 -0.00000000000E+00 -0.31979621678E+04  0.31979621678E+04  0.25500000000E-02 0.  1.
    5000001    1    1    2    0    0  0.24917502271E+03 -0.12626168367E+03 -0.12206070704E+04  0.12678772910E+04  0.19900000000E+03 0.  0.
   -5000001    1    1    2    0    0 -0.24917502271E+03  0.12626168367E+03 -0.19386677784E+04  0.19687721959E+04  0.19900000000E+03 0.  0.
<mgrwt>
<rscale>  0 0.70347874E+03</rscale>
<asrwt>0</asrwt>
<pdfrwt beam="1">  1        2 0.45685157E+00 0.70347874E+03</pdfrwt>
<pdfrwt beam="2">  1       -2 0.55267619E-02 0.70347874E+03</pdfrwt>
<totfact> 0.34040937E+02</totfact>
</mgrwt>
</event>
<event>
 4    1  0.1724904E-005  0.4552071E+03  0.7818608E-02  0.1026181E+00
          2   -1    0    0  501    0  0.00000000000E+00  0.00000000000E+00  0.28440775284E+04  0.28440775284E+04  0.25500000000E-02 0.  1.
         -2   -1    0    0    0  501 -0.00000000000E+00 -0.00000000000E+00 -0.18214474931E+02  0.18214475110E+02  0.25500000000E-02 0. -1.
    5000001    1    1    2    0    0 -0.52587965263E+02  0.86006056915E+02  0.16969216837E+04  0.17115217604E+04  0.19900000000E+03 0.  0.
   -5000001    1    1    2    0    0  0.52587965263E+02 -0.86006056915E+02  0.11289413698E+04  0.11507702430E+04  0.19900000000E+03 0.  0.
<mgrwt>
<rscale>  0 0.45520711E+03</rscale>
<asrwt>0</asrwt>
<pdfrwt beam="1">  1        2 0.40629674E+00 0.45520711E+03</pdfrwt>
<pdfrwt beam="2">  1       -2 0.26020682E-02 0.45520711E+03</pdfrwt>
<totfact> 0.17232939E+03</totfact>
</mgrwt>
</event>
<event>
 4    1  0.1724904E-005  0.6743349E+03  0.7818608E-02  0.9762158E-01
         -2   -1    0    0    0  501 -0.00000000000E+00  0.00000000000E+00  0.18076259555E+03  0.18076259557E+03  0.25500000000E-02 0. -1.
          2   -1    0    0  501    0  0.00000000000E+00 -0.00000000000E+00 -0.62890162696E+03  0.62890162696E+03  0.25500000000E-02 0.  1.
    5000001    1    1    2    0    0  0.27046146042E+03  0.17338478773E+02 -0.19391183906E+03  0.38814021403E+03  0.19900000000E+03 0.  0.
   -5000001    1    1    2    0    0 -0.27046146042E+03 -0.17338478773E+02 -0.25422719234E+03  0.42152400850E+03  0.19900000000E+03 0.  0.
<mgrwt>
<rscale>  0 0.67433490E+03</rscale>
<asrwt>0</asrwt>
<pdfrwt beam="1">  1        2 0.89843089E-01 0.67433490E+03</pdfrwt>
<pdfrwt beam="2">  1       -2 0.25823228E-01 0.67433490E+03</pdfrwt>
<totfact> 0.69569314E+02</totfact>
</mgrwt>
</event>
<event>
 4    1  0.1724904E-005  0.5260708E+03  0.7818608E-02  0.1007190E+00
          2   -1    0    0  501    0  0.00000000000E+00  0.00000000000E+00  0.22108878661E+04  0.22108878661E+04  0.25500000000E-02 0.  1.
         -2   -1    0    0    0  501 -0.00000000000E+00 -0.00000000000E+00 -0.31294039885E+02  0.31294039989E+02  0.25500000000E-02 0. -1.
    5000001    1    1    2    0    0  0.98423939979E+02  0.89652611643E+02  0.15539925617E+04  0.15723290828E+04  0.19900000000E+03 0.  0.
   -5000001    1    1    2    0    0 -0.98423939979E+02 -0.89652611643E+02  0.62560126453E+03  0.66985282333E+03  0.19900000000E+03 0.  0.
<mgrwt>
<rscale>  0 0.52607077E+03</rscale>
<asrwt>0</asrwt>
<pdfrwt beam="1">  1        2 0.31584109E+00 0.52607077E+03</pdfrwt>
<pdfrwt beam="2">  1       -2 0.44705777E-02 0.52607077E+03</pdfrwt>
<totfact> 0.15897161E+03</totfact>
</mgrwt>
</event>
<event>
 4    1  0.1724904E-005  0.7050562E+03  0.7818608E-02  0.9708624E-01
         -2   -1    0    0    0  501 -0.00000000000E+00  0.00000000000E+00  0.18416350776E+03  0.18416350778E+03  0.25500000000E-02 0. -1.
          2   -1    0    0  501    0  0.00000000000E+00 -0.00000000000E+00 -0.67481378611E+03  0.67481378611E+03  0.25500000000E-02 0.  1.
    5000001    1    1    2    0    0 -0.27587503067E+03  0.78042741235E+02 -0.18468592948E+03  0.39485135755E+03  0.19900000000E+03 0.  0.
   -5000001    1    1    2    0    0  0.27587503067E+03 -0.78042741235E+02 -0.30596434887E+03  0.46412593634E+03  0.19900000000E+03 0.  0.
<mgrwt>
<rscale>  0 0.70505624E+03</rscale>
<asrwt>0</asrwt>
<pdfrwt beam="1">  1        2 0.96401968E-01 0.70505624E+03</pdfrwt>
<pdfrwt beam="2">  1       -2 0.26309073E-01 0.70505624E+03</pdfrwt>
<totfact> 0.61735966E+02</totfact>
</mgrwt>
</event>
<event>
 4    1  0.1724904E-005  0.6774826E+03  0.7818608E-02  0.9756534E-01
         -2   -1    0    0    0  501 -0.00000000000E+00  0.00000000000E+00  0.16398871789E+03  0.16398871791E+03  0.25500000000E-02 0. -1.
          2   -1    0    0  501    0  0.00000000000E+00 -0.00000000000E+00 -0.69971680516E+03  0.69971680517E+03  0.25500000000E-02 0.  1.
    5000001    1    1    2    0    0 -0.99275493215E+02 -0.20487971505E+03 -0.46252095034E+03  0.55259202917E+03  0.19900000000E+03 0.  0.
   -5000001    1    1    2    0    0  0.99275493215E+02  0.20487971505E+03 -0.73207136927E+02  0.31111349391E+03  0.19900000000E+03 0.  0.
<mgrwt>
<rscale>  0 0.67748258E+03</rscale>
<asrwt>0</asrwt>
<pdfrwt beam="1">  1        2 0.99959542E-01 0.67748258E+03</pdfrwt>
<pdfrwt beam="2">  1       -2 0.23426960E-01 0.67748258E+03</pdfrwt>
<totfact> 0.72814718E+02</totfact>
</mgrwt>
</event>
<event>
 4    1  0.1724904E-005  0.9567175E+03  0.7818608E-02  0.9357333E-01
         -2   -1    0    0    0  501 -0.00000000000E+00  0.00000000000E+00  0.45066556252E+03  0.45066556252E+03  0.25500000000E-02 0. -1.
          2   -1    0    0  501    0  0.00000000000E+00 -0.00000000000E+00 -0.50775363195E+03  0.50775363195E+03  0.25500000000E-02 0.  1.
    5000001    1    1    2    0    0 -0.38067011348E+03 -0.17616973013E+03  0.86902289867E+02  0.47233305738E+03  0.19900000000E+03 0.  0.
   -5000001    1    1    2    0    0  0.38067011348E+03  0.17616973013E+03 -0.14399035930E+03  0.48608613710E+03  0.19900000000E+03 0.  0.
<mgrwt>
<rscale>  0 0.95671746E+03</rscale>
<asrwt>0</asrwt>
<pdfrwt beam="1">  1        2 0.72536233E-01 0.95671746E+03</pdfrwt>
<pdfrwt beam="2">  1       -2 0.64380795E-01 0.95671746E+03</pdfrwt>
<totfact> 0.14718742E+02</totfact>
</mgrwt>
</event>
<event>
 4    1  0.1724904E-005  0.4931399E+03  0.7818608E-02  0.1015585E+00
         -2   -1    0    0    0  501 -0.00000000000E+00  0.00000000000E+00  0.29877102937E+03  0.29877102938E+03  0.25500000000E-02 0. -1.
          2   -1    0    0  501    0  0.00000000000E+00 -0.00000000000E+00 -0.20348941686E+03  0.20348941688E+03  0.25500000000E-02 0.  1.
    5000001    1    1    2    0    0  0.68838845883E+02 -0.12824538518E+03  0.44407662882E+02  0.25051687777E+03  0.19900000000E+03 0.  0.
   -5000001    1    1    2    0    0 -0.68838845883E+02  0.12824538518E+03  0.50873949625E+02  0.25174356849E+03  0.19900000000E+03 0.  0.
<mgrwt>
<rscale>  0 0.49313991E+03</rscale>
<asrwt>0</asrwt>
<pdfrwt beam="1">  1        2 0.29069917E-01 0.49313991E+03</pdfrwt>
<pdfrwt beam="2">  1       -2 0.42681576E-01 0.49313991E+03</pdfrwt>
<totfact> 0.96173112E+02</totfact>
</mgrwt>
</event>
<event>
 4    1  0.1724904E-005  0.6513630E+03  0.7818608E-02  0.9804225E-01
         -2   -1    0    0    0  501 -0.00000000000E+00  0.00000000000E+00  0.11748448473E+04  0.11748448473E+04  0.25500000000E-02 0. -1.
          2   -1    0    0  501    0  0.00000000000E+00 -0.00000000000E+00 -0.90282942922E+02  0.90282942958E+02  0.25500000000E-02 0.  1.
    5000001    1    1    2    0    0  0.16281703451E+03 -0.13586418494E+03  0.82706803381E+03  0.87670462302E+03  0.19900000000E+03 0.  0.
   -5000001    1    1    2    0    0 -0.16281703451E+03  0.13586418494E+03  0.25749387060E+03  0.38842316727E+03  0.19900000000E+03 0.  0.
<mgrwt>
<rscale>  0 0.65136303E+03</rscale>
<asrwt>0</asrwt>
<pdfrwt beam="1">  1        2 0.12897563E-01 0.65136303E+03</pdfrwt>
<pdfrwt beam="2">  1       -2 0.16783498E+00 0.65136303E+03</pdfrwt>
<totfact> 0.10846873E+02</totfact>
</mgrwt>
</event>
<event>
 4    1  0.1724904E-005  0.4965271E+03  0.7818608E-02  0.1014689E+00
          2   -1    0    0  501    0  0.00000000000E+00  0.00000000000E+00  0.18192157124E+04  0.18192157124E+04  0.25500000000E-02 0.  1.
         -2   -1    0    0    0  501 -0.00000000000E+00 -0.00000000000E+00 -0.33879865508E+02  0.33879865604E+02  0.25500000000E-02 0. -1.
    5000001    1    1    2    0    0  0.11521232302E+03  0.36249281611E+02  0.12147105124E+04  0.12368146663E+04  0.19900000000E+03 0.  0.
   -5000001    1    1    2    0    0 -0.11521232302E+03 -0.36249281611E+02  0.57062533448E+03  0.61628091172E+03  0.19900000000E+03 0.  0.
<mgrwt>
<rscale>  0 0.49652707E+03</rscale>
<asrwt>0</asrwt>
<pdfrwt beam="1">  1        2 0.25988797E+00 0.49652707E+03</pdfrwt>
<pdfrwt beam="2">  1       -2 0.48399805E-02 0.49652707E+03</pdfrwt>
<totfact> 0.22110430E+03</totfact>
</mgrwt>
</event>
<event>
 4    1  0.1724904E-005  0.1287758E+04  0.7818608E-02  0.9039330E-01
          2   -1    0    0  501    0  0.00000000000E+00  0.00000000000E+00  0.11114128799E+04  0.11114128799E+04  0.25500000000E-02 0.  1.
         -2   -1    0    0    0  501 -0.00000000000E+00 -0.00000000000E+00 -0.37302080598E+03  0.37302080599E+03  0.25500000000E-02 0. -1.
    5000001    1    1    2    0    0 -0.20311404770E+03 -0.55880291166E+03  0.53807399502E+03  0.82622069362E+03  0.19900000000E+03 0.  0.
   -5000001    1    1    2    0    0  0.20311404770E+03  0.55880291166E+03  0.20031807890E+03  0.65821299226E+03  0.19900000000E+03 0.  0.
<mgrwt>
<rscale>  0 0.12877579E+04</rscale>
<asrwt>0</asrwt>
<pdfrwt beam="1">  1        2 0.15877327E+00 0.12877579E+04</pdfrwt>
<pdfrwt beam="2">  1       -2 0.53288687E-01 0.12877579E+04</pdfrwt>
<totfact> 0.78382060E+01</totfact>
</mgrwt>
</event>
<event>
 4    1  0.1724904E-005  0.1215734E+04  0.7818608E-02  0.9099195E-01
         -2   -1    0    0    0  501 -0.00000000000E+00  0.00000000000E+00  0.12201352682E+03  0.12201352684E+03  0.25500000000E-02 0. -1.
          2   -1    0    0  501    0  0.00000000000E+00 -0.00000000000E+00 -0.30283730615E+04  0.30283730615E+04  0.25500000000E-02 0.  1.
    5000001    1    1    2    0    0  0.45460427508E+03  0.25339279586E+03 -0.20827673168E+04  0.21560133700E+04  0.19900000000E+03 0.  0.
   -5000001    1    1    2    0    0 -0.45460427508E+03 -0.25339279586E+03 -0.82359221793E+03  0.99437321834E+03  0.19900000000E+03 0.  0.
<mgrwt>
<rscale>  0 0.12157343E+04</rscale>
<asrwt>0</asrwt>
<pdfrwt beam="1">  1        2 0.43262468E+00 0.12157343E+04</pdfrwt>
<pdfrwt beam="2">  1       -2 0.17430506E-01 0.12157343E+04</pdfrwt>
<totfact> 0.61591735E+01</totfact>
</mgrwt>
</event>
<event>
 4    1  0.1724904E-005  0.6895491E+03  0.7818608E-02  0.9735273E-01
          2   -1    0    0  501    0  0.00000000000E+00  0.00000000000E+00  0.16432558412E+04  0.16432558412E+04  0.25500000000E-02 0.  1.
         -2   -1    0    0    0  501 -0.00000000000E+00 -0.00000000000E+00 -0.72337785153E+02  0.72337785198E+02  0.25500000000E-02 0. -1.
    5000001    1    1    2    0    0  0.11380661675E+03  0.25320910685E+03  0.90220108461E+03  0.96469404210E+03  0.19900000000E+03 0.  0.
   -5000001    1    1    2    0    0 -0.11380661675E+03 -0.25320910685E+03  0.66871697147E+03  0.75089958432E+03  0.19900000000E+03 0.  0.
<mgrwt>
<rscale>  0 0.68954909E+03</rscale>
<asrwt>0</asrwt>
<pdfrwt beam="1">  1        2 0.23475079E+00 0.68954909E+03</pdfrwt>
<pdfrwt beam="2">  1       -2 0.10333971E-01 0.68954909E+03</pdfrwt>
<totfact> 0.81104363E+02</totfact>
</mgrwt>
</event>
<event>
 4    1  0.1724904E-005  0.7793179E+03  0.7818608E-02  0.9590446E-01
          2   -1    0    0  501    0  0.00000000000E+00  0.00000000000E+00  0.27644511643E+04  0.27644511643E+04  0.25500000000E-02 0.  1.
         -2   -1    0    0    0  501 -0.00000000000E+00 -0.00000000000E+00 -0.54923775635E+02  0.54923775694E+02  0.25500000000E-02 0. -1.
    5000001    1    1    2    0    0 -0.15795863076E+03  0.29526941247E+03  0.13189241424E+04  0.13752442868E+04  0.19900000000E+03 0.  0.
   -5000001    1    1    2    0    0  0.15795863076E+03 -0.29526941247E+03  0.13906032463E+04  0.14441306532E+04  0.19900000000E+03 0.  0.
<mgrwt>
<rscale>  0 0.77931790E+03</rscale>
<asrwt>0</asrwt>
<pdfrwt beam="1">  1        2 0.39492143E+00 0.77931790E+03</pdfrwt>
<pdfrwt beam="2">  1       -2 0.78462570E-02 0.77931790E+03</pdfrwt>
<totfact> 0.33505715E+02</totfact>
</mgrwt>
</event>
<event>
 4    1  0.1724904E-005  0.6310920E+03  0.7818608E-02  0.9842920E-01
          2   -1    0    0  501    0  0.00000000000E+00  0.00000000000E+00  0.76033302906E+03  0.76033302906E+03  0.25500000000E-02 0.  1.
         -2   -1    0    0    0  501 -0.00000000000E+00 -0.00000000000E+00 -0.13095481058E+03  0.13095481061E+03  0.25500000000E-02 0. -1.
    5000001    1    1    2    0    0  0.19332087290E+03 -0.13707024065E+03  0.22754861458E+03  0.38411011802E+03  0.19900000000E+03 0.  0.
   -5000001    1    1    2    0    0 -0.19332087290E+03  0.13707024065E+03  0.40182960389E+03  0.50717772165E+03  0.19900000000E+03 0.  0.
<mgrwt>
<rscale>  0 0.63109197E+03</rscale>
<asrwt>0</asrwt>
<pdfrwt beam="1">  1        2 0.10861900E+00 0.63109197E+03</pdfrwt>
<pdfrwt beam="2">  1       -2 0.18707830E-01 0.63109197E+03</pdfrwt>
<totfact> 0.97567586E+02</totfact>
</mgrwt>
</event>
<event>
 4    1  0.1724904E-005  0.7338128E+03  0.7818608E-02  0.9661093E-01
          2   -1    0    0  501    0  0.00000000000E+00  0.00000000000E+00  0.50928813380E+03  0.50928813381E+03  0.25500000000E-02 0.  1.
         -2   -1    0    0    0  501 -0.00000000000E+00 -0.00000000000E+00 -0.26433031922E+03  0.26433031923E+03  0.25500000000E-02 0. -1.
    5000001    1    1    2    0    0  0.64547991637E+02  0.27700350488E+03  0.24776079143E+03  0.42647836371E+03  0.19900000000E+03 0.  0.
   -5000001    1    1    2    0    0 -0.64547991637E+02 -0.27700350488E+03 -0.28029768432E+01  0.34714008933E+03  0.19900000000E+03 0.  0.
<mgrwt>
<rscale>  0 0.73381277E+03</rscale>
<asrwt>0</asrwt>
<pdfrwt beam="1">  1        2 0.72755448E-01 0.73381277E+03</pdfrwt>
<pdfrwt beam="2">  1       -2 0.37761474E-01 0.73381277E+03</pdfrwt>
<totfact> 0.43748995E+02</totfact>
</mgrwt>
</event>
<event>
 4    1  0.1724904E-005  0.9072260E+03  0.7818608E-02  0.9416593E-01
         -2   -1    0    0    0  501 -0.00000000000E+00  0.00000000000E+00  0.20845169703E+03  0.20845169704E+03  0.25500000000E-02 0. -1.
          2   -1    0    0  501    0  0.00000000000E+00 -0.00000000000E+00 -0.98711002433E+03  0.98711002433E+03  0.25500000000E-02 0.  1.
    5000001    1    1    2    0    0 -0.34681577066E+03 -0.32739843866E+02 -0.11036572238E+03  0.41609454314E+03  0.19900000000E+03 0.  0.
   -5000001    1    1    2    0    0  0.34681577066E+03  0.32739843866E+02 -0.66829260492E+03  0.77946717824E+03  0.19900000000E+03 0.  0.
<mgrwt>
<rscale>  0 0.90722601E+03</rscale>
<asrwt>0</asrwt>
<pdfrwt beam="1">  1        2 0.14101572E+00 0.90722601E+03</pdfrwt>
<pdfrwt beam="2">  1       -2 0.29778814E-01 0.90722601E+03</pdfrwt>
<totfact> 0.29721051E+02</totfact>
</mgrwt>
</event>
<event>
 4    1  0.1724904E-005  0.5242912E+03  0.7818608E-02  0.1007626E+00
         -2   -1    0    0    0  501 -0.00000000000E+00  0.00000000000E+00  0.84749903200E+02  0.84749903238E+02  0.25500000000E-02 0. -1.
          2   -1    0    0  501    0  0.00000000000E+00 -0.00000000000E+00 -0.81086003094E+03  0.81086003094E+03  0.25500000000E-02 0.  1.
    5000001    1    1    2    0    0  0.15402965555E+03  0.57192718528E+02 -0.44176661364E+03  0.51161986159E+03  0.19900000000E+03 0.  0.
   -5000001    1    1    2    0    0 -0.15402965555E+03 -0.57192718528E+02 -0.28434351410E+03  0.38399007259E+03  0.19900000000E+03 0.  0.
<mgrwt>
<rscale>  0 0.52429118E+03</rscale>
<asrwt>0</asrwt>
<pdfrwt beam="1">  1        2 0.11583714E+00 0.52429118E+03</pdfrwt>
<pdfrwt beam="2">  1       -2 0.12107130E-01 0.52429118E+03</pdfrwt>
<totfact> 0.18731856E+03</totfact>
</mgrwt>
</event>
<event>
 4    1  0.1724904E-005  0.1136988E+04  0.7818608E-02  0.9169873E-01
          2   -1    0    0  501    0  0.00000000000E+00  0.00000000000E+00  0.19555004681E+04  0.19555004681E+04  0.25500000000E-02 0.  1.
         -2   -1    0    0    0  501 -0.00000000000E+00 -0.00000000000E+00 -0.16526980096E+03  0.16526980098E+03  0.25500000000E-02 0. -1.
    5000001    1    1    2    0    0 -0.40504581869E+03  0.33750719231E+03  0.10348345799E+04  0.11783279797E+04  0.19900000000E+03 0.  0.
   -5000001    1    1    2    0    0  0.40504581869E+03 -0.33750719231E+03  0.75539608727E+03  0.94244228936E+03  0.19900000000E+03 0.  0.
<mgrwt>
<rscale>  0 0.11369876E+04</rscale>
<asrwt>0</asrwt>
<pdfrwt beam="1">  1        2 0.27935719E+00 0.11369876E+04</pdfrwt>
<pdfrwt beam="2">  1       -2 0.23609973E-01 0.11369876E+04</pdfrwt>
<totfact> 0.13335293E+02</totfact>
</mgrwt>
</event>
<event>
 4    1  0.1724904E-005  0.5061397E+03  0.7818608E-02  0.1012189E+00
         -2   -1    0    0    0  501 -0.00000000000E+00  0.00000000000E+00  0.87694168436E+02  0.87694168473E+02  0.25500000000E-02 0. -1.
          2   -1    0    0  501    0  0.00000000000E+00 -0.00000000000E+00 -0.73031484146E+03  0.73031484146E+03  0.25500000000E-02 0.  1.
    5000001    1    1    2    0    0  0.15155453431E+03 -0.13294547911E+02 -0.37953362346E+03  0.45474420635E+03  0.19900000000E+03 0.  0.
   -5000001    1    1    2    0    0 -0.15155453431E+03  0.13294547911E+02 -0.26308704956E+03  0.36326480358E+03  0.19900000000E+03 0.  0.
<mgrwt>
<rscale>  0 0.50613971E+03</rscale>
<asrwt>0</asrwt>
<pdfrwt beam="1">  1        2 0.10433069E+00 0.50613971E+03</pdfrwt>
<pdfrwt beam="2">  1       -2 0.12527739E-01 0.50613971E+03</pdfrwt>
<totfact> 0.20191498E+03</totfact>
</mgrwt>
</event>
<event>
 4    1  0.1724904E-005  0.7708287E+03  0.7818608E-02  0.9603228E-01
          2   -1    0    0  501    0  0.00000000000E+00  0.00000000000E+00  0.12061951588E+04  0.12061951588E+04  0.25500000000E-02 0. -1.
         -2   -1    0    0    0  501 -0.00000000000E+00 -0.00000000000E+00 -0.12315105461E+03  0.12315105464E+03  0.25500000000E-02 0.  1.
    5000001    1    1    2    0    0  0.23588871493E+03  0.22975063259E+03  0.58063465770E+03  0.69653890396E+03  0.19900000000E+03 0.  0.
   -5000001    1    1    2    0    0 -0.23588871493E+03 -0.22975063259E+03  0.50240944645E+03  0.63280730944E+03  0.19900000000E+03 0.  0.
<mgrwt>
<rscale>  0 0.77082866E+03</rscale>
<asrwt>0</asrwt>
<pdfrwt beam="1">  1        2 0.17231360E+00 0.77082866E+03</pdfrwt>
<pdfrwt beam="2">  1       -2 0.17593007E-01 0.77082866E+03</pdfrwt>
<totfact> 0.56811748E+02</totfact>
</mgrwt>
</event>
<event>
 4    1  0.1724904E-005  0.8099519E+03  0.7818608E-02  0.9545723E-01
         -2   -1    0    0    0  501 -0.00000000000E+00  0.00000000000E+00  0.60799591960E+03  0.60799591960E+03  0.25500000000E-02 0. -1.
          2   -1    0    0  501    0  0.00000000000E+00 -0.00000000000E+00 -0.26974771576E+03  0.26974771577E+03  0.25500000000E-02 0.  1.
    5000001    1    1    2    0    0 -0.24329695855E+03 -0.18393509639E+03 -0.22843477950E+02  0.36489499066E+03  0.19900000000E+03 0.  0.
   -5000001    1    1    2    0    0  0.24329695855E+03  0.18393509639E+03  0.36109168179E+03  0.51284864471E+03  0.19900000000E+03 0.  0.
<mgrwt>
<rscale>  0 0.80995188E+03</rscale>
<asrwt>0</asrwt>
<pdfrwt beam="1">  1        2 0.38535388E-01 0.80995188E+03</pdfrwt>
<pdfrwt beam="2">  1       -2 0.86856560E-01 0.80995188E+03</pdfrwt>
<totfact> 0.15507716E+02</totfact>
</mgrwt>
</event>
<event>
 4    1  0.1724904E-005  0.8018727E+03  0.7818608E-02  0.9557310E-01
         -2   -1    0    0    0  501 -0.00000000000E+00  0.00000000000E+00  0.47574664851E+02  0.47574664919E+02  0.25500000000E-02 0. -1.
          2   -1    0    0  501    0  0.00000000000E+00 -0.00000000000E+00 -0.33788985751E+04  0.33788985751E+04  0.25500000000E-02 0.  1.
    5000001    1    1    2    0    0  0.15415335392E+03 -0.30818730725E+03 -0.18752740281E+04  0.19170280001E+04  0.19900000000E+03 0.  0.
   -5000001    1    1    2    0    0 -0.15415335392E+03  0.30818730725E+03 -0.14560498822E+04  0.15094452399E+04  0.19900000000E+03 0.  0.
<mgrwt>
<rscale>  0 0.80187273E+03</rscale>
<asrwt>0</asrwt>
<pdfrwt beam="1">  1        2 0.48269964E+00 0.80187273E+03</pdfrwt>
<pdfrwt beam="2">  1       -2 0.67963828E-02 0.80187273E+03</pdfrwt>
<totfact> 0.19150519E+02</totfact>
</mgrwt>
</event>
<event>
 4    1  0.1724904E-005  0.6493732E+03  0.7818608E-02  0.9807956E-01
          2   -1    0    0  501    0  0.00000000000E+00  0.00000000000E+00  0.15923659290E+04  0.15923659290E+04  0.25500000000E-02 0.  1.
         -2   -1    0    0    0  501 -0.00000000000E+00 -0.00000000000E+00 -0.66204254283E+02  0.66204254332E+02  0.25500000000E-02 0. -1.
    5000001    1    1    2    0    0  0.10529100225E+03  0.92984581682E+02  0.13114003962E+04  0.13338306965E+04  0.19900000000E+03 0.  0.
   -5000001    1    1    2    0    0 -0.10529100225E+03 -0.92984581682E+02  0.21476127843E+03  0.32473948682E+03  0.19900000000E+03 0.  0.
<mgrwt>
<rscale>  0 0.64937323E+03</rscale>
<asrwt>0</asrwt>
<pdfrwt beam="1">  1        2 0.22748081E+00 0.64937323E+03</pdfrwt>
<pdfrwt beam="2">  1       -2 0.94577520E-02 0.64937323E+03</pdfrwt>
<totfact> 0.99658079E+02</totfact>
</mgrwt>
</event>
<event>
 4    1  0.1724904E-005  0.9274483E+03  0.7818608E-02  0.9391905E-01
          2   -1    0    0  501    0  0.00000000000E+00  0.00000000000E+00  0.17700013857E+04  0.17700013857E+04  0.25500000000E-02 0. -1.
         -2   -1    0    0    0  501 -0.00000000000E+00 -0.00000000000E+00 -0.12149148822E+03  0.12149148825E+03  0.25500000000E-02 0.  1.
    5000001    1    1    2    0    0 -0.19640124482E+03  0.24305207177E+03  0.25542739935E+03  0.44999101646E+03  0.19900000000E+03 0.  0.
   -5000001    1    1    2    0    0  0.19640124482E+03 -0.24305207177E+03  0.13930824981E+04  0.14415018575E+04  0.19900000000E+03 0.  0.
<mgrwt>
<rscale>  0 0.92744833E+03</rscale>
<asrwt>0</asrwt>
<pdfrwt beam="1">  1        2 0.25285733E+00 0.92744833E+03</pdfrwt>
<pdfrwt beam="2">  1       -2 0.17355927E-01 0.92744833E+03</pdfrwt>
<totfact> 0.28918589E+02</totfact>
</mgrwt>
</event>
<event>
 4    1  0.1724904E-005  0.4777804E+03  0.7818608E-02  0.1019747E+00
         -2   -1    0    0    0  501 -0.00000000000E+00  0.00000000000E+00  0.26634599746E+03  0.26634599747E+03  0.25500000000E-02 0. -1.
          2   -1    0    0  501    0  0.00000000000E+00 -0.00000000000E+00 -0.21426464427E+03  0.21426464429E+03  0.25500000000E-02 0.  1.
    5000001    1    1    2    0    0  0.12115778444E+03  0.28794716685E+02  0.70565568448E+02  0.24513025903E+03  0.19900000000E+03 0.  0.
   -5000001    1    1    2    0    0 -0.12115778444E+03 -0.28794716685E+02 -0.18484215261E+02  0.23548038274E+03  0.19900000000E+03 0.  0.
<mgrwt>
<rscale>  0 0.47778041E+03</rscale>
<asrwt>0</asrwt>
<pdfrwt beam="1">  1        2 0.30609235E-01 0.47778041E+03</pdfrwt>
<pdfrwt beam="2">  1       -2 0.38049428E-01 0.47778041E+03</pdfrwt>
<totfact> 0.11338319E+03</totfact>
</mgrwt>
</event>
<event>
 4    1  0.1724904E-005  0.7534155E+03  0.7818608E-02  0.9630007E-01
          2   -1    0    0  501    0  0.00000000000E+00  0.00000000000E+00  0.26304377271E+04  0.26304377271E+04  0.25500000000E-02 0.  1.
         -2   -1    0    0    0  501 -0.00000000000E+00 -0.00000000000E+00 -0.53948710528E+02  0.53948710588E+02  0.25500000000E-02 0. -1.
    5000001    1    1    2    0    0  0.11840398841E+03  0.22874313345E+03  0.19639373315E+04  0.19907269445E+04  0.19900000000E+03 0.  0.
   -5000001    1    1    2    0    0 -0.11840398841E+03 -0.22874313345E+03  0.61255168501E+03  0.69365949311E+03  0.19900000000E+03 0.  0.
<mgrwt>
<rscale>  0 0.75341549E+03</rscale>
<asrwt>0</asrwt>
<pdfrwt beam="1">  1        2 0.37577683E+00 0.75341549E+03</pdfrwt>
<pdfrwt beam="2">  1       -2 0.77069585E-02 0.75341549E+03</pdfrwt>
<totfact> 0.40658393E+02</totfact>
</mgrwt>
</event>
<event>
 4    1  0.1724904E-005  0.5136538E+03  0.7818608E-02  0.1010275E+00
          2   -1    0    0  501    0  0.00000000000E+00  0.00000000000E+00  0.25383544722E+04  0.25383544722E+04  0.25500000000E-02 0.  1.
         -2   -1    0    0    0  501 -0.00000000000E+00 -0.00000000000E+00 -0.25985355962E+02  0.25985356087E+02  0.25500000000E-02 0. -1.
    5000001    1    1    2    0    0  0.89528177468E+02 -0.11234371045E+03  0.87852249926E+03  0.91216181982E+03  0.19900000000E+03 0.  0.
   -5000001    1    1    2    0    0 -0.89528177468E+02  0.11234371045E+03  0.16338466170E+04  0.16521780084E+04  0.19900000000E+03 0.  0.
<mgrwt>
<rscale>  0 0.51365375E+03</rscale>
<asrwt>0</asrwt>
<pdfrwt beam="1">  1        2 0.36262173E+00 0.51365375E+03</pdfrwt>
<pdfrwt beam="2">  1       -2 0.37121972E-02 0.51365375E+03</pdfrwt>
<totfact> 0.14440445E+03</totfact>
</mgrwt>
</event>
<event>
 4    1  0.1724904E-005  0.5665250E+03  0.7818608E-02  0.9977398E-01
         -2   -1    0    0    0  501 -0.00000000000E+00  0.00000000000E+00  0.14420092871E+03  0.14420092874E+03  0.25500000000E-02 0. -1.
          2   -1    0    0  501    0  0.00000000000E+00 -0.00000000000E+00 -0.55642939012E+03  0.55642939013E+03  0.25500000000E-02 0.  1.
    5000001    1    1    2    0    0  0.14930754210E+03 -0.12850187735E+03 -0.25903584028E+03  0.38145254116E+03  0.19900000000E+03 0.  0.
   -5000001    1    1    2    0    0 -0.14930754210E+03  0.12850187735E+03 -0.15319262113E+03  0.31917777770E+03  0.19900000000E+03 0.  0.
<mgrwt>
<rscale>  0 0.56652497E+03</rscale>
<asrwt>0</asrwt>
<pdfrwt beam="1">  1        2 0.79489912E-01 0.56652497E+03</pdfrwt>
<pdfrwt beam="2">  1       -2 0.20600133E-01 0.56652497E+03</pdfrwt>
<totfact> 0.12021238E+03</totfact>
</mgrwt>
</event>
<event>
 4    1  0.1724904E-005  0.8084655E+03  0.7818608E-02  0.9547844E-01
          2   -1    0    0  501    0  0.00000000000E+00  0.00000000000E+00  0.21190609081E+03  0.21190609083E+03  0.25500000000E-02 0. -1.
         -2   -1    0    0    0  501 -0.00000000000E+00 -0.00000000000E+00 -0.77111570094E+03  0.77111570095E+03  0.25500000000E-02 0.  1.
    5000001    1    1    2    0    0 -0.24937116279E+03  0.21673252849E+03 -0.42674580800E+03  0.57521469938E+03  0.19900000000E+03 0.  0.
   -5000001    1    1    2    0    0  0.24937116279E+03 -0.21673252849E+03 -0.13246380213E+03  0.40780709240E+03  0.19900000000E+03 0.  0.
<mgrwt>
<rscale>  0 0.80846549E+03</rscale>
<asrwt>0</asrwt>
<pdfrwt beam="1">  1        2 0.30272299E-01 0.80846549E+03</pdfrwt>
<pdfrwt beam="2">  1       -2 0.11015938E+00 0.80846549E+03</pdfrwt>
<totfact> 0.11613899E+02</totfact>
</mgrwt>
</event>
<event>
 4    1  0.1724904E-005  0.6430387E+03  0.7818608E-02  0.9819930E-01
          2   -1    0    0  501    0  0.00000000000E+00  0.00000000000E+00  0.13315316067E+04  0.13315316067E+04  0.25500000000E-02 0.  1.
         -2   -1    0    0    0  501 -0.00000000000E+00 -0.00000000000E+00 -0.77635918018E+02  0.77635918060E+02  0.25500000000E-02 0. -1.
    5000001    1    1    2    0    0  0.12941249046E+03  0.20197445341E+03  0.45394493028E+03  0.55064350740E+03  0.19900000000E+03 0.  0.
   -5000001    1    1    2    0    0 -0.12941249046E+03 -0.20197445341E+03  0.79995075837E+03  0.85852401733E+03  0.19900000000E+03 0.  0.
<mgrwt>
<rscale>  0 0.64303866E+03</rscale>
<asrwt>0</asrwt>
<pdfrwt beam="1">  1        2 0.19021881E+00 0.64303866E+03</pdfrwt>
<pdfrwt beam="2">  1       -2 0.11090845E-01 0.64303866E+03</pdfrwt>
<totfact> 0.10556277E+03</totfact>
</mgrwt>
</event>
<event>
 4    1  0.1724904E-005  0.4457854E+03  0.7818608E-02  0.1028986E+00
         -2   -1    0    0    0  501 -0.00000000000E+00  0.00000000000E+00  0.12305968301E+03  0.12305968304E+03  0.25500000000E-02 0. -1.
          2   -1    0    0  501    0  0.00000000000E+00 -0.00000000000E+00 -0.40371588523E+03  0.40371588524E+03  0.25500000000E-02 0.  1.
    5000001    1    1    2    0    0 -0.39687584429E+02 -0.63728162251E+02 -0.61555461776E+02  0.22141919044E+03  0.19900000000E+03 0.  0.
   -5000001    1    1    2    0    0  0.39687584429E+02  0.63728162251E+02 -0.21910074044E+03  0.30535637783E+03  0.19900000000E+03 0.  0.
<mgrwt>
<rscale>  0 0.44578537E+03</rscale>
<asrwt>0</asrwt>
<pdfrwt beam="1">  1        2 0.57673697E-01 0.44578537E+03</pdfrwt>
<pdfrwt beam="2">  1       -2 0.17579955E-01 0.44578537E+03</pdfrwt>
<totfact> 0.22648228E+03</totfact>
</mgrwt>
</event>
<event>
 4    1  0.1724904E-005  0.5378830E+03  0.7818608E-02  0.1004338E+00
          2   -1    0    0  501    0  0.00000000000E+00  0.00000000000E+00  0.20492154731E+04  0.20492154731E+04  0.25500000000E-02 0.  1.
         -2   -1    0    0    0  501 -0.00000000000E+00 -0.00000000000E+00 -0.35296200435E+02  0.35296200527E+02  0.25500000000E-02 0. -1.
    5000001    1    1    2    0    0 -0.14939696259E+03  0.48004681819E+02  0.13558450606E+04  0.13793261871E+04  0.19900000000E+03 0.  0.
   -5000001    1    1    2    0    0  0.14939696259E+03 -0.48004681819E+02  0.65807421205E+03  0.70518548658E+03  0.19900000000E+03 0.  0.
<mgrwt>
<rscale>  0 0.53788296E+03</rscale>
<asrwt>0</asrwt>
<pdfrwt beam="1">  1        2 0.29274508E+00 0.53788296E+03</pdfrwt>
<pdfrwt beam="2">  1       -2 0.50423141E-02 0.53788296E+03</pdfrwt>
<totfact> 0.15897847E+03</totfact>
</mgrwt>
</event>
<event>
 4    1  0.1724904E-005  0.5569234E+03  0.7818608E-02  0.9999040E-01
         -2   -1    0    0    0  501 -0.00000000000E+00  0.00000000000E+00  0.14051953086E+03  0.14051953089E+03  0.25500000000E-02 0. -1.
          2   -1    0    0  501    0  0.00000000000E+00 -0.00000000000E+00 -0.55181591396E+03  0.55181591396E+03  0.25500000000E-02 0.  1.
    5000001    1    1    2    0    0  0.42596930195E+02 -0.14508014745E+03 -0.53003759031E+02  0.25548609770E+03  0.19900000000E+03 0.  0.
   -5000001    1    1    2    0    0 -0.42596930195E+02  0.14508014745E+03 -0.35829262406E+03  0.43684934715E+03  0.19900000000E+03 0.  0.
<mgrwt>
<rscale>  0 0.55692338E+03</rscale>
<asrwt>0</asrwt>
<pdfrwt beam="1">  1        2 0.78830844E-01 0.55692338E+03</pdfrwt>
<pdfrwt beam="2">  1       -2 0.20074219E-01 0.55692338E+03</pdfrwt>
<totfact> 0.12697775E+03</totfact>
</mgrwt>
</event>
<event>
 4    1  0.1724904E-005  0.4559034E+03  0.7818608E-02  0.1025976E+00
          2   -1    0    0  501    0  0.00000000000E+00  0.00000000000E+00  0.56655086663E+03  0.56655086663E+03  0.25500000000E-02 0. -1.
         -2   -1    0    0    0  501 -0.00000000000E+00 -0.00000000000E+00 -0.91716352517E+02  0.91716352552E+02  0.25500000000E-02 0.  1.
    5000001    1    1    2    0    0  0.63534275835E+02 -0.21327526100E+02  0.10933078123E+03  0.23673970368E+03  0.19900000000E+03 0.  0.
   -5000001    1    1    2    0    0 -0.63534275835E+02  0.21327526100E+02  0.36550373288E+03  0.42152751550E+03  0.19900000000E+03 0.  0.
<mgrwt>
<rscale>  0 0.45590341E+03</rscale>
<asrwt>0</asrwt>
<pdfrwt beam="1">  1        2 0.80935837E-01 0.45590341E+03</pdfrwt>
<pdfrwt beam="2">  1       -2 0.13102336E-01 0.45590341E+03</pdfrwt>
<totfact> 0.25342025E+03</totfact>
</mgrwt>
</event>
<event>
 4    1  0.1724904E-005  0.1316487E+04  0.7818608E-02  0.9016592E-01
         -2   -1    0    0    0  501 -0.00000000000E+00  0.00000000000E+00  0.40449902300E+03  0.40449902300E+03  0.25500000000E-02 0. -1.
          2   -1    0    0  501    0  0.00000000000E+00 -0.00000000000E+00 -0.10711637685E+04  0.10711637685E+04  0.25500000000E-02 0.  1.
    5000001    1    1    2    0    0  0.88523540136E+02  0.59888359384E+03 -0.14851581004E+03  0.65433624533E+03  0.19900000000E+03 0.  0.
   -5000001    1    1    2    0    0 -0.88523540136E+02 -0.59888359384E+03 -0.51814893546E+03  0.82132654617E+03  0.19900000000E+03 0.  0.
<mgrwt>
<rscale>  0 0.13164873E+04</rscale>
<asrwt>0</asrwt>
<pdfrwt beam="1">  1        2 0.15302340E+00 0.13164873E+04</pdfrwt>
<pdfrwt beam="2">  1       -2 0.57785575E-01 0.13164873E+04</pdfrwt>
<totfact> 0.69832713E+01</totfact>
</mgrwt>
</event>
<event>
 4    1  0.1724904E-005  0.5045232E+03  0.7818608E-02  0.1012605E+00
          2   -1    0    0  501    0  0.00000000000E+00  0.00000000000E+00  0.22672603976E+04  0.22672603976E+04  0.25500000000E-02 0.  1.
         -2   -1    0    0    0  501 -0.00000000000E+00 -0.00000000000E+00 -0.28067318386E+02  0.28067318502E+02  0.25500000000E-02 0. -1.
    5000001    1    1    2    0    0  0.72806384504E+02 -0.13333397927E+03  0.97891474647E+03  0.10104225851E+04  0.19900000000E+03 0.  0.
   -5000001    1    1    2    0    0 -0.72806384504E+02  0.13333397927E+03  0.12602783327E+04  0.12849051309E+04  0.19900000000E+03 0.  0.
<mgrwt>
<rscale>  0 0.50452322E+03</rscale>
<asrwt>0</asrwt>
<pdfrwt beam="1">  1        2 0.32389427E+00 0.50452322E+03</pdfrwt>
<pdfrwt beam="2">  1       -2 0.40096178E-02 0.50452322E+03</pdfrwt>
<totfact> 0.17621815E+03</totfact>
</mgrwt>
</event>
<event>
 4    1  0.1724904E-005  0.8287601E+03  0.7818608E-02  0.9519296E-01
         -2   -1    0    0    0  501 -0.00000000000E+00  0.00000000000E+00  0.20969832747E+03  0.20969832749E+03  0.25500000000E-02 0. -1.
          2   -1    0    0  501    0  0.00000000000E+00 -0.00000000000E+00 -0.81884690874E+03  0.81884690874E+03  0.25500000000E-02 0.  1.
    5000001    1    1    2    0    0  0.10267732777E+03 -0.14548618696E+03 -0.69781955408E+03  0.74716932103E+03  0.19900000000E+03 0.  0.
   -5000001    1    1    2    0    0 -0.10267732777E+03  0.14548618696E+03  0.88670972810E+02  0.28137591520E+03  0.19900000000E+03 0.  0.
<mgrwt>
<rscale>  0 0.82876010E+03</rscale>
<asrwt>0</asrwt>
<pdfrwt beam="1">  1        2 0.11697813E+00 0.82876010E+03</pdfrwt>
<pdfrwt beam="2">  1       -2 0.29956904E-01 0.82876010E+03</pdfrwt>
<totfact> 0.37985048E+02</totfact>
</mgrwt>
</event>
<event>
 4    1  0.1724904E-005  0.1090780E+04  0.7818608E-02  0.9214225E-01
          2   -1    0    0  501    0  0.00000000000E+00  0.00000000000E+00  0.88292106377E+03  0.88292106378E+03  0.25500000000E-02 0.  1.
         -2   -1    0    0    0  501 -0.00000000000E+00 -0.00000000000E+00 -0.33689363697E+03  0.33689363698E+03  0.25500000000E-02 0. -1.
    5000001    1    1    2    0    0 -0.43735114918E+03  0.23628203745E+03  0.38893008204E+03  0.66179516289E+03  0.19900000000E+03 0.  0.
   -5000001    1    1    2    0    0  0.43735114918E+03 -0.23628203745E+03  0.15709734476E+03  0.55801953787E+03  0.19900000000E+03 0.  0.
<mgrwt>
<rscale>  0 0.10907804E+04</rscale>
<asrwt>0</asrwt>
<pdfrwt beam="1">  1        2 0.12613158E+00 0.10907804E+04</pdfrwt>
<pdfrwt beam="2">  1       -2 0.48127662E-01 0.10907804E+04</pdfrwt>
<totfact> 0.13553973E+02</totfact>
</mgrwt>
</event>
<event>
 4    1  0.1724904E-005  0.5219460E+03  0.7818608E-02  0.1008204E+00
          2   -1    0    0  501    0  0.00000000000E+00  0.00000000000E+00  0.41288266931E+03  0.41288266932E+03  0.25500000000E-02 0.  1.
         -2   -1    0    0    0  501 -0.00000000000E+00 -0.00000000000E+00 -0.16495461533E+03  0.16495461535E+03  0.25500000000E-02 0. -1.
    5000001    1    1    2    0    0  0.15456109316E+03  0.84189628706E+00  0.19918099104E+03  0.32119138765E+03  0.19900000000E+03 0.  0.
   -5000001    1    1    2    0    0 -0.15456109316E+03 -0.84189628706E+00  0.48747062940E+02  0.25664589702E+03  0.19900000000E+03 0.  0.
<mgrwt>
<rscale>  0 0.52194598E+03</rscale>
<asrwt>0</asrwt>
<pdfrwt beam="1">  1        2 0.58983240E-01 0.52194598E+03</pdfrwt>
<pdfrwt beam="2">  1       -2 0.23564945E-01 0.52194598E+03</pdfrwt>
<totfact> 0.13290494E+03</totfact>
</mgrwt>
</event>
<event>
 4    1  0.1724904E-005  0.1227537E+04  0.7818608E-02  0.9089089E-01
          2   -1    0    0  501    0  0.00000000000E+00  0.00000000000E+00  0.11688722574E+04  0.11688722574E+04  0.25500000000E-02 0.  1.
         -2   -1    0    0    0  501 -0.00000000000E+00 -0.00000000000E+00 -0.32228673247E+03  0.32228673248E+03  0.25500000000E-02 0. -1.
    5000001    1    1    2    0    0 -0.49297225771E+03  0.79512599361E+02  0.78317063180E+03  0.94989533047E+03  0.19900000000E+03 0.  0.
   -5000001    1    1    2    0    0  0.49297225771E+03 -0.79512599361E+02  0.63414893141E+02  0.54126365942E+03  0.19900000000E+03 0.  0.
<mgrwt>
<rscale>  0 0.12275374E+04</rscale>
<asrwt>0</asrwt>
<pdfrwt beam="1">  1        2 0.16698175E+00 0.12275374E+04</pdfrwt>
<pdfrwt beam="2">  1       -2 0.46040961E-01 0.12275374E+04</pdfrwt>
<totfact> 0.98097390E+01</totfact>
</mgrwt>
</event>
<event>
 4    1  0.1724904E-005  0.7804278E+03  0.7818608E-02  0.9588787E-01
          2   -1    0    0  501    0  0.00000000000E+00  0.00000000000E+00  0.17058022952E+04  0.17058022952E+04  0.25500000000E-02 0.  1.
         -2   -1    0    0    0  501 -0.00000000000E+00 -0.00000000000E+00 -0.89264097375E+02  0.89264097411E+02  0.25500000000E-02 0. -1.
    5000001    1    1    2    0    0  0.19577750359E+03  0.25770669175E+03  0.10130215477E+04  0.10819220055E+04  0.19900000000E+03 0.  0.
   -5000001    1    1    2    0    0 -0.19577750359E+03 -0.25770669175E+03  0.60351665013E+03  0.71314438711E+03  0.19900000000E+03 0.  0.
<mgrwt>
<rscale>  0 0.78042784E+03</rscale>
<asrwt>0</asrwt>
<pdfrwt beam="1">  1        2 0.24368603E+00 0.78042784E+03</pdfrwt>
<pdfrwt beam="2">  1       -2 0.12752015E-01 0.78042784E+03</pdfrwt>
<totfact> 0.53031196E+02</totfact>
</mgrwt>
</event>
<event>
 4    1  0.1724904E-005  0.4713242E+03  0.7818608E-02  0.1021547E+00
          2   -1    0    0  501    0  0.00000000000E+00  0.00000000000E+00  0.12912650151E+03  0.12912650153E+03  0.25500000000E-02 0. -1.
         -2   -1    0    0    0  501 -0.00000000000E+00 -0.00000000000E+00 -0.43009466955E+03  0.43009466955E+03  0.25500000000E-02 0.  1.
    5000001    1    1    2    0    0  0.54195364652E+00  0.11268853258E+03 -0.21798502152E+03  0.31593902686E+03  0.19900000000E+03 0.  0.
   -5000001    1    1    2    0    0 -0.54195364652E+00 -0.11268853258E+03 -0.82983146524E+02  0.24328214422E+03  0.19900000000E+03 0.  0.
<mgrwt>
<rscale>  0 0.47132418E+03</rscale>
<asrwt>0</asrwt>
<pdfrwt beam="1">  1        2 0.18446643E-01 0.47132418E+03</pdfrwt>
<pdfrwt beam="2">  1       -2 0.61442095E-01 0.47132418E+03</pdfrwt>
<totfact> 0.77353846E+02</totfact>
</mgrwt>
</event>
<event>
 4    1  0.1724904E-005  0.4873640E+03  0.7818608E-02  0.1017131E+00
         -2   -1    0    0    0  501 -0.00000000000E+00  0.00000000000E+00  0.93969228818E+02  0.93969228853E+02  0.25500000000E-02 0. -1.
          2   -1    0    0  501    0  0.00000000000E+00 -0.00000000000E+00 -0.63191872531E+03  0.63191872532E+03  0.25500000000E-02 0.  1.
    5000001    1    1    2    0    0 -0.61012459936E+02  0.12597083748E+03 -0.24851257569E+03  0.34777963201E+03  0.19900000000E+03 0.  0.
   -5000001    1    1    2    0    0  0.61012459936E+02 -0.12597083748E+03 -0.28943692080E+03  0.37810832216E+03  0.19900000000E+03 0.  0.
<mgrwt>
<rscale>  0 0.48736399E+03</rscale>
<asrwt>0</asrwt>
<pdfrwt beam="1">  1        2 0.90274101E-01 0.48736399E+03</pdfrwt>
<pdfrwt beam="2">  1       -2 0.13424176E-01 0.48736399E+03</pdfrwt>
<totfact> 0.21445361E+03</totfact>
</mgrwt>
</event>
<event>
 4    1  0.1724904E-005  0.5455589E+03  0.7818608E-02  0.1002527E+00
          2   -1    0    0  501    0  0.00000000000E+00  0.00000000000E+00  0.12812199821E+04  0.12812199821E+04  0.25500000000E-02 0. -1.
         -2   -1    0    0    0  501 -0.00000000000E+00 -0.00000000000E+00 -0.58076384594E+02  0.58076384650E+02  0.25500000000E-02 0.  1.
    5000001    1    1    2    0    0  0.18389723774E+03  0.72873574260E+01  0.53645305257E+03  0.60104423900E+03  0.19900000000E+03 0.  0.
   -5000001    1    1    2    0    0 -0.18389723774E+03 -0.72873574260E+01  0.68669054497E+03  0.73825212778E+03  0.19900000000E+03 0.  0.
<mgrwt>
<rscale>  0 0.54555889E+03</rscale>
<asrwt>0</asrwt>
<pdfrwt beam="1">  1        2 0.18303142E+00 0.54555889E+03</pdfrwt>
<pdfrwt beam="2">  1       -2 0.82966266E-02 0.54555889E+03</pdfrwt>
<totfact> 0.18016098E+03</totfact>
</mgrwt>
</event>
<event>
 4    1  0.1724904E-005  0.8769753E+03  0.7818608E-02  0.9454830E-01
         -2   -1    0    0    0  501 -0.00000000000E+00  0.00000000000E+00  0.99976294516E+02  0.99976294549E+02  0.25500000000E-02 0. -1.
          2   -1    0    0  501    0  0.00000000000E+00 -0.00000000000E+00 -0.19231701970E+04  0.19231701970E+04  0.25500000000E-02 0.  1.
    5000001    1    1    2    0    0 -0.40855091574E+02  0.31168077111E+03 -0.37622135664E+03  0.52911014995E+03  0.19900000000E+03 0.  0.
   -5000001    1    1    2    0    0  0.40855091574E+02 -0.31168077111E+03 -0.14469725458E+04  0.14940363416E+04  0.19900000000E+03 0.  0.
<mgrwt>
<rscale>  0 0.87697532E+03</rscale>
<asrwt>0</asrwt>
<pdfrwt beam="1">  1        2 0.27473858E+00 0.87697532E+03</pdfrwt>
<pdfrwt beam="2">  1       -2 0.14282329E-01 0.87697532E+03</pdfrwt>
<totfact> 0.33775711E+02</totfact>
</mgrwt>
</event>
<event>
 4    1  0.1724904E-005  0.5268106E+03  0.7818608E-02  0.1007009E+00
          2   -1    0    0  501    0  0.00000000000E+00  0.00000000000E+00  0.56492382650E+03  0.56492382650E+03  0.25500000000E-02 0.  1.
         -2   -1    0    0    0  501 -0.00000000000E+00 -0.00000000000E+00 -0.12281718074E+03  0.12281718077E+03  0.25500000000E-02 0. -1.
    5000001    1    1    2    0    0 -0.10326434617E+03  0.12449700865E+03  0.29958122307E+03  0.39435128955E+03  0.19900000000E+03 0.  0.
   -5000001    1    1    2    0    0  0.10326434617E+03 -0.12449700865E+03  0.14252542268E+03  0.29338971772E+03  0.19900000000E+03 0.  0.
<mgrwt>
<rscale>  0 0.52681060E+03</rscale>
<asrwt>0</asrwt>
<pdfrwt beam="1">  1        2 0.80703405E-01 0.52681060E+03</pdfrwt>
<pdfrwt beam="2">  1       -2 0.17545311E-01 0.52681060E+03</pdfrwt>
<totfact> 0.15587540E+03</totfact>
</mgrwt>
</event>
<event>
 4    1  0.1724904E-005  0.5712821E+03  0.7818608E-02  0.9966846E-01
          2   -1    0    0  501    0  0.00000000000E+00  0.00000000000E+00  0.27547530114E+03  0.27547530115E+03  0.25500000000E-02 0.  1.
         -2   -1    0    0    0  501 -0.00000000000E+00 -0.00000000000E+00 -0.29618190289E+03  0.29618190290E+03  0.25500000000E-02 0. -1.
    5000001    1    1    2    0    0 -0.10219584473E+03  0.17319402875E+03  0.29037973246E+02  0.28440176892E+03  0.19900000000E+03 0.  0.
   -5000001    1    1    2    0    0  0.10219584473E+03 -0.17319402875E+03 -0.49744575001E+02  0.28725543514E+03  0.19900000000E+03 0.  0.
<mgrwt>
<rscale>  0 0.57128206E+03</rscale>
<asrwt>0</asrwt>
<pdfrwt beam="1">  1        2 0.39353615E-01 0.57128206E+03</pdfrwt>
<pdfrwt beam="2">  1       -2 0.42311700E-01 0.57128206E+03</pdfrwt>
<totfact> 0.69830043E+02</totfact>
</mgrwt>
</event>
<event>
 4    1  0.1724904E-005  0.9497018E+03  0.7818608E-02  0.9365499E-01
         -2   -1    0    0    0  501 -0.00000000000E+00  0.00000000000E+00  0.15814889961E+03  0.15814889963E+03  0.25500000000E-02 0. -1.
          2   -1    0    0  501    0  0.00000000000E+00 -0.00000000000E+00 -0.14257663101E+04  0.14257663101E+04  0.25500000000E-02 0.  1.
    5000001    1    1    2    0    0 -0.20304054377E+03  0.38025239968E+03 -0.64725735875E+03  0.80272064776E+03  0.19900000000E+03 0.  0.
   -5000001    1    1    2    0    0  0.20304054377E+03 -0.38025239968E+03 -0.62036005175E+03  0.78119456199E+03  0.19900000000E+03 0.  0.
<mgrwt>
<rscale>  0 0.94970179E+03</rscale>
<asrwt>0</asrwt>
<pdfrwt beam="1">  1        2 0.20368089E+00 0.94970179E+03</pdfrwt>
<pdfrwt beam="2">  1       -2 0.22592701E-01 0.94970179E+03</pdfrwt>
<totfact> 0.27529574E+02</totfact>
</mgrwt>
</event>
<event>
 4    1  0.1724904E-005  0.6726864E+03  0.7818608E-02  0.9765117E-01
         -2   -1    0    0    0  501 -0.00000000000E+00  0.00000000000E+00  0.40230711068E+03  0.40230711069E+03  0.25500000000E-02 0. -1.
          2   -1    0    0  501    0  0.00000000000E+00 -0.00000000000E+00 -0.28119498462E+03  0.28119498463E+03  0.25500000000E-02 0.  1.
    5000001    1    1    2    0    0 -0.24300847901E+03  0.11996635727E+03  0.69683482176E+02  0.34336836697E+03  0.19900000000E+03 0.  0.
   -5000001    1    1    2    0    0  0.24300847901E+03 -0.11996635727E+03  0.51428643884E+02  0.34013372835E+03  0.19900000000E+03 0.  0.
<mgrwt>
<rscale>  0 0.67268638E+03</rscale>
<asrwt>0</asrwt>
<pdfrwt beam="1">  1        2 0.40170712E-01 0.67268638E+03</pdfrwt>
<pdfrwt beam="2">  1       -2 0.57472444E-01 0.67268638E+03</pdfrwt>
<totfact> 0.36674823E+02</totfact>
</mgrwt>
</event>
<event>
 4    1  0.1724904E-005  0.5751750E+03  0.7818608E-02  0.9958292E-01
         -2   -1    0    0    0  501 -0.00000000000E+00  0.00000000000E+00  0.23018192574E+03  0.23018192576E+03  0.25500000000E-02 0. -1.
          2   -1    0    0  501    0  0.00000000000E+00 -0.00000000000E+00 -0.35930959472E+03  0.35930959473E+03  0.25500000000E-02 0.  1.
    5000001    1    1    2    0    0  0.99791148409E+02 -0.14897748863E+03 -0.17182543499E+03  0.31824133221E+03  0.19900000000E+03 0.  0.
   -5000001    1    1    2    0    0 -0.99791148409E+02  0.14897748863E+03  0.42697766009E+02  0.27125018828E+03  0.19900000000E+03 0.  0.
<mgrwt>
<rscale>  0 0.57517501E+03</rscale>
<asrwt>0</asrwt>
<pdfrwt beam="1">  1        2 0.51329942E-01 0.57517501E+03</pdfrwt>
<pdfrwt beam="2">  1       -2 0.32883133E-01 0.57517501E+03</pdfrwt>
<totfact> 0.84430067E+02</totfact>
</mgrwt>
</event>
<event>
 4    1  0.1724904E-005  0.7511778E+03  0.7818608E-02  0.9633504E-01
          2   -1    0    0  501    0  0.00000000000E+00  0.00000000000E+00  0.93156151602E+03  0.93156151602E+03  0.25500000000E-02 0.  1.
         -2   -1    0    0    0  501 -0.00000000000E+00 -0.00000000000E+00 -0.15143070408E+03  0.15143070410E+03  0.25500000000E-02 0. -1.
    5000001    1    1    2    0    0 -0.24967190921E+03  0.14140890950E+03  0.19064044307E+03  0.39784082303E+03  0.19900000000E+03 0.  0.
   -5000001    1    1    2    0    0  0.24967190921E+03 -0.14140890950E+03  0.58949036887E+03  0.68515139709E+03  0.19900000000E+03 0.  0.
<mgrwt>
<rscale>  0 0.75117779E+03</rscale>
<asrwt>0</asrwt>
<pdfrwt beam="1">  1        2 0.13308022E+00 0.75117779E+03</pdfrwt>
<pdfrwt beam="2">  1       -2 0.21632957E-01 0.75117779E+03</pdfrwt>
<totfact> 0.57817040E+02</totfact>
</mgrwt>
</event>
<event>
 4    1  0.1724904E-005  0.6495874E+03  0.7818608E-02  0.9807554E-01
         -2   -1    0    0    0  501 -0.00000000000E+00  0.00000000000E+00  0.11592593526E+03  0.11592593529E+03  0.25500000000E-02 0. -1.
          2   -1    0    0  501    0  0.00000000000E+00 -0.00000000000E+00 -0.90998575606E+03  0.90998575606E+03  0.25500000000E-02 0.  1.
    5000001    1    1    2    0    0  0.47494150350E+02 -0.25129979453E+03 -0.36233250490E+03  0.48609991273E+03  0.19900000000E+03 0.  0.
   -5000001    1    1    2    0    0 -0.47494150350E+02  0.25129979453E+03 -0.43172731589E+03  0.53981177862E+03  0.19900000000E+03 0.  0.
<mgrwt>
<rscale>  0 0.64958741E+03</rscale>
<asrwt>0</asrwt>
<pdfrwt beam="1">  1        2 0.12999796E+00 0.64958741E+03</pdfrwt>
<pdfrwt beam="2">  1       -2 0.16560848E-01 0.64958741E+03</pdfrwt>
<totfact> 0.95171842E+02</totfact>
</mgrwt>
</event>
<event>
 4    1  0.1724904E-005  0.6781592E+03  0.7818608E-02  0.9755330E-01
          2   -1    0    0  501    0  0.00000000000E+00  0.00000000000E+00  0.20131473695E+04  0.20131473695E+04  0.25500000000E-02 0.  1.
         -2   -1    0    0    0  501 -0.00000000000E+00 -0.00000000000E+00 -0.57112048438E+02  0.57112048495E+02  0.25500000000E-02 0. -1.
    5000001    1    1    2    0    0 -0.11367475779E+03  0.20322408192E+03  0.14220031315E+04  0.14546188106E+04  0.19900000000E+03 0.  0.
   -5000001    1    1    2    0    0  0.11367475779E+03 -0.20322408192E+03  0.53403218951E+03  0.61564060739E+03  0.19900000000E+03 0.  0.
<mgrwt>
<rscale>  0 0.67815919E+03</rscale>
<asrwt>0</asrwt>
<pdfrwt beam="1">  1        2 0.28759256E+00 0.67815919E+03</pdfrwt>
<pdfrwt beam="2">  1       -2 0.81588617E-02 0.67815919E+03</pdfrwt>
<totfact> 0.77150345E+02</totfact>
</mgrwt>
</event>
<event>
 4    1  0.1724904E-005  0.5928900E+03  0.7818608E-02  0.9920268E-01
         -2   -1    0    0    0  501 -0.00000000000E+00  0.00000000000E+00  0.17509182464E+03  0.17509182466E+03  0.25500000000E-02 0. -1.
          2   -1    0    0  501    0  0.00000000000E+00 -0.00000000000E+00 -0.50190594270E+03  0.50190594271E+03  0.25500000000E-02 0.  1.
    5000001    1    1    2    0    0  0.18665684487E+03 -0.11591488807E+03 -0.16484612062E+03  0.33919357673E+03  0.19900000000E+03 0.  0.
   -5000001    1    1    2    0    0 -0.18665684487E+03  0.11591488807E+03 -0.16196799745E+03  0.33780419063E+03  0.19900000000E+03 0.  0.
<mgrwt>
<rscale>  0 0.59288996E+03</rscale>
<asrwt>0</asrwt>
<pdfrwt beam="1">  1        2 0.71700848E-01 0.59288996E+03</pdfrwt>
<pdfrwt beam="2">  1       -2 0.25013118E-01 0.59288996E+03</pdfrwt>
<totfact> 0.95941219E+02</totfact>
</mgrwt>
</event>
<event>
 4    1  0.1724904E-005  0.5132773E+03  0.7818608E-02  0.1010370E+00
          2   -1    0    0  501    0  0.00000000000E+00  0.00000000000E+00  0.47802390395E+03  0.47802390396E+03  0.25500000000E-02 0.  1.
         -2   -1    0    0    0  501 -0.00000000000E+00 -0.00000000000E+00 -0.13778266656E+03  0.13778266659E+03  0.25500000000E-02 0. -1.
    5000001    1    1    2    0    0  0.12393907541E+03  0.29727049866E+02  0.50038386074E+02  0.24155627085E+03  0.19900000000E+03 0.  0.
   -5000001    1    1    2    0    0 -0.12393907541E+03 -0.29727049866E+02  0.29020285132E+03  0.37425029969E+03  0.19900000000E+03 0.  0.
<mgrwt>
<rscale>  0 0.51327734E+03</rscale>
<asrwt>0</asrwt>
<pdfrwt beam="1">  1        2 0.68289128E-01 0.51327734E+03</pdfrwt>
<pdfrwt beam="2">  1       -2 0.19683238E-01 0.51327734E+03</pdfrwt>
<totfact> 0.15473059E+03</totfact>
</mgrwt>
</event>
<event>
 4    1  0.1724904E-005  0.6860939E+03  0.7818608E-02  0.9741314E-01
          2   -1    0    0  501    0  0.00000000000E+00  0.00000000000E+00  0.21092661464E+04  0.21092661464E+04  0.25500000000E-02 0.  1.
         -2   -1    0    0    0  501 -0.00000000000E+00 -0.00000000000E+00 -0.55792482328E+02  0.55792482386E+02  0.25500000000E-02 0. -1.
    5000001    1    1    2    0    0 -0.19305634460E+03 -0.19770419088E+03  0.11577048076E+04  0.12067473310E+04  0.19900000000E+03 0.  0.
   -5000001    1    1    2    0    0  0.19305634460E+03  0.19770419088E+03  0.89576885644E+03  0.95831129778E+03  0.19900000000E+03 0.  0.
<mgrwt>
<rscale>  0 0.68609385E+03</rscale>
<asrwt>0</asrwt>
<pdfrwt beam="1">  1        2 0.30132369E+00 0.68609385E+03</pdfrwt>
<pdfrwt beam="2">  1       -2 0.79703559E-02 0.68609385E+03</pdfrwt>
<totfact> 0.71593225E+02</totfact>
</mgrwt>
</event>
<event>
 4    1  0.1724904E-005  0.4820367E+03  0.7818608E-02  0.1018577E+00
          2   -1    0    0  501    0  0.00000000000E+00  0.00000000000E+00  0.19529482917E+03  0.19529482918E+03  0.25500000000E-02 0.  1.
         -2   -1    0    0    0  501 -0.00000000000E+00 -0.00000000000E+00 -0.29744690934E+03  0.29744690935E+03  0.25500000000E-02 0. -1.
    5000001    1    1    2    0    0  0.45455449967E+02 -0.54601800138E+02 -0.16958732588E+03  0.27093987453E+03  0.19900000000E+03 0.  0.
   -5000001    1    1    2    0    0 -0.45455449967E+02  0.54601800138E+02  0.67435245715E+02  0.22180186400E+03  0.19900000000E+03 0.  0.
<mgrwt>
<rscale>  0 0.48203669E+03</rscale>
<asrwt>0</asrwt>
<pdfrwt beam="1">  1        2 0.27899261E-01 0.48203669E+03</pdfrwt>
<pdfrwt beam="2">  1       -2 0.42492416E-01 0.48203669E+03</pdfrwt>
<totfact> 0.10158642E+03</totfact>
</mgrwt>
</event>
<event>
 4    1  0.1724904E-005  0.1352448E+04  0.7818608E-02  0.8988977E-01
         -2   -1    0    0    0  501 -0.00000000000E+00  0.00000000000E+00  0.58871427998E+03  0.58871427998E+03  0.25500000000E-02 0. -1.
          2   -1    0    0  501    0  0.00000000000E+00 -0.00000000000E+00 -0.77674108695E+03  0.77674108695E+03  0.25500000000E-02 0.  1.
    5000001    1    1    2    0    0  0.55905067389E+03  0.26640670602E+03 -0.28063544347E+03  0.70842603080E+03  0.19900000000E+03 0.  0.
   -5000001    1    1    2    0    0 -0.55905067389E+03 -0.26640670602E+03  0.92608636495E+02  0.65702933613E+03  0.19900000000E+03 0.  0.
<mgrwt>
<rscale>  0 0.13524475E+04</rscale>
<asrwt>0</asrwt>
<pdfrwt beam="1">  1        2 0.11096301E+00 0.13524475E+04</pdfrwt>
<pdfrwt beam="2">  1       -2 0.84102040E-01 0.13524475E+04</pdfrwt>
<totfact> 0.47680209E+01</totfact>
</mgrwt>
</event>
<event>
 4    1  0.1724904E-005  0.5461779E+03  0.7818608E-02  0.1002382E+00
          2   -1    0    0  501    0  0.00000000000E+00  0.00000000000E+00  0.40517079411E+02  0.40517079491E+02  0.25500000000E-02 0.  1.
         -2   -1    0    0    0  501 -0.00000000000E+00 -0.00000000000E+00 -0.18406454095E+04  0.18406454095E+04  0.25500000000E-02 0. -1.
    5000001    1    1    2    0    0 -0.42336010239E+02  0.18215146961E+03 -0.89230076019E+03  0.93315226104E+03  0.19900000000E+03 0.  0.
   -5000001    1    1    2    0    0  0.42336010239E+02 -0.18215146961E+03 -0.90782756993E+03  0.94801022799E+03  0.19900000000E+03 0.  0.
<mgrwt>
<rscale>  0 0.54617791E+03</rscale>
<asrwt>0</asrwt>
<pdfrwt beam="1">  1        2 0.57881554E-02 0.54617791E+03</pdfrwt>
<pdfrwt beam="2">  1       -2 0.26294929E+00 0.54617791E+03</pdfrwt>
<totfact> 0.76154284E+01</totfact>
</mgrwt>
</event>
<event>
 4    1  0.1724904E-005  0.4708830E+03  0.7818608E-02  0.1021671E+00
          2   -1    0    0  501    0  0.00000000000E+00  0.00000000000E+00  0.10268852436E+04  0.10268852436E+04  0.25500000000E-02 0.  1.
         -2   -1    0    0    0  501 -0.00000000000E+00 -0.00000000000E+00 -0.53981391982E+02  0.53981392042E+02  0.25500000000E-02 0. -1.
    5000001    1    1    2    0    0 -0.82301245849E+02  0.88124241302E+02  0.40393485523E+03  0.46615849691E+03  0.19900000000E+03 0.  0.
   -5000001    1    1    2    0    0  0.82301245849E+02 -0.88124241302E+02  0.56896899638E+03  0.61470813873E+03  0.19900000000E+03 0.  0.
<mgrwt>
<rscale>  0 0.47088298E+03</rscale>
<asrwt>0</asrwt>
<pdfrwt beam="1">  1        2 0.14669788E+00 0.47088298E+03</pdfrwt>
<pdfrwt beam="2">  1       -2 0.77116280E-02 0.47088298E+03</pdfrwt>
<totfact> 0.28227560E+03</totfact>
</mgrwt>
</event>
<event>
 4    1  0.1724904E-005  0.6034053E+03  0.7818608E-02  0.9898366E-01
          2   -1    0    0  501    0  0.00000000000E+00  0.00000000000E+00  0.20975237155E+04  0.20975237155E+04  0.25500000000E-02 0.  1.
         -2   -1    0    0    0  501 -0.00000000000E+00 -0.00000000000E+00 -0.43396168985E+02  0.43396169060E+02  0.25500000000E-02 0. -1.
    5000001    1    1    2    0    0  0.83099324769E+02 -0.19500309425E+03  0.13129370022E+04  0.13447439445E+04  0.19900000000E+03 0.  0.
   -5000001    1    1    2    0    0 -0.83099324769E+02  0.19500309425E+03  0.74119054436E+03  0.79617594010E+03  0.19900000000E+03 0.  0.
<mgrwt>
<rscale>  0 0.60340532E+03</rscale>
<asrwt>0</asrwt>
<pdfrwt beam="1">  1        2 0.29964627E+00 0.60340532E+03</pdfrwt>
<pdfrwt beam="2">  1       -2 0.61994523E-02 0.60340532E+03</pdfrwt>
<totfact> 0.10857995E+03</totfact>
</mgrwt>
</event>
<event>
 4    1  0.1724904E-005  0.2690760E+04  0.7818608E-02  0.8338009E-01
         -2   -1    0    0    0  501 -0.00000000000E+00  0.00000000000E+00  0.46898645927E+03  0.46898645928E+03  0.25500000000E-02 0. -1.
          2   -1    0    0  501    0  0.00000000000E+00 -0.00000000000E+00 -0.38594874221E+04  0.38594874221E+04  0.25500000000E-02 0.  1.
    5000001    1    1    2    0    0  0.12253512538E+04 -0.42404987804E+03 -0.12149623334E+04  0.17880264164E+04  0.19900000000E+03 0.  0.
   -5000001    1    1    2    0    0 -0.12253512538E+04  0.42404987804E+03 -0.21755386294E+04  0.25404474649E+04  0.19900000000E+03 0.  0.
<mgrwt>
<rscale>  0 0.26907600E+04</rscale>
<asrwt>0</asrwt>
<pdfrwt beam="1">  1        2 0.55135533E+00 0.26907600E+04</pdfrwt>
<pdfrwt beam="2">  1       -2 0.66998067E-01 0.26907600E+04</pdfrwt>
<totfact> 0.12801928E+00</totfact>
</mgrwt>
</event>
<event>
 4    1  0.1724904E-005  0.4446365E+03  0.7818608E-02  0.1029334E+00
          2   -1    0    0  501    0  0.00000000000E+00  0.00000000000E+00  0.48193643755E+03  0.48193643756E+03  0.25500000000E-02 0.  1.
         -2   -1    0    0    0  501 -0.00000000000E+00 -0.00000000000E+00 -0.10255583842E+03  0.10255583845E+03  0.25500000000E-02 0. -1.
    5000001    1    1    2    0    0 -0.31047168749E+02  0.92084459830E+02  0.16403416877E+03  0.27559332894E+03  0.19900000000E+03 0.  0.
   -5000001    1    1    2    0    0  0.31047168749E+02 -0.92084459830E+02  0.21534643036E+03  0.30889894707E+03  0.19900000000E+03 0.  0.
<mgrwt>
<rscale>  0 0.44463646E+03</rscale>
<asrwt>0</asrwt>
<pdfrwt beam="1">  1        2 0.68848062E-01 0.44463646E+03</pdfrwt>
<pdfrwt beam="2">  1       -2 0.14650834E-01 0.44463646E+03</pdfrwt>
<totfact> 0.25293209E+03</totfact>
</mgrwt>
</event>
<event>
 4    1  0.1724904E-005  0.6043427E+03  0.7818608E-02  0.9896437E-01
          2   -1    0    0  501    0  0.00000000000E+00  0.00000000000E+00  0.83893007237E+03  0.83893007237E+03  0.25500000000E-02 0.  1.
         -2   -1    0    0    0  501 -0.00000000000E+00 -0.00000000000E+00 -0.10883806933E+03  0.10883806936E+03  0.25500000000E-02 0. -1.
    5000001    1    1    2    0    0  0.58150246141E+02  0.20950413140E+03  0.46946329726E+03  0.55431960066E+03  0.19900000000E+03 0.  0.
   -5000001    1    1    2    0    0 -0.58150246141E+02 -0.20950413140E+03  0.26062870578E+03  0.39344854108E+03  0.19900000000E+03 0.  0.
<mgrwt>
<rscale>  0 0.60434272E+03</rscale>
<asrwt>0</asrwt>
<pdfrwt beam="1">  1        2 0.11984715E+00 0.60434272E+03</pdfrwt>
<pdfrwt beam="2">  1       -2 0.15548296E-01 0.60434272E+03</pdfrwt>
<totfact> 0.11808186E+03</totfact>
</mgrwt>
</event>
<event>
 4    1  0.1724904E-005  0.5350546E+03  0.7818608E-02  0.1005014E+00
          2   -1    0    0  501    0  0.00000000000E+00  0.00000000000E+00  0.85035086843E+02  0.85035086881E+02  0.25500000000E-02 0.  1.
         -2   -1    0    0    0  501 -0.00000000000E+00 -0.00000000000E+00 -0.84166278971E+03  0.84166278971E+03  0.25500000000E-02 0. -1.
    5000001    1    1    2    0    0 -0.35658936464E+02  0.68918335036E+02 -0.99318634191E+02  0.23555569989E+03  0.19900000000E+03 0.  0.
   -5000001    1    1    2    0    0  0.35658936464E+02 -0.68918335036E+02 -0.65730906868E+03  0.69114217670E+03  0.19900000000E+03 0.  0.
<mgrwt>
<rscale>  0 0.53505465E+03</rscale>
<asrwt>0</asrwt>
<pdfrwt beam="1">  1        2 0.12147870E-01 0.53505465E+03</pdfrwt>
<pdfrwt beam="2">  1       -2 0.12023754E+00 0.53505465E+03</pdfrwt>
<totfact> 0.27840457E+02</totfact>
</mgrwt>
</event>
<event>
 4    1  0.1724904E-005  0.6021453E+03  0.7818608E-02  0.9900965E-01
          2   -1    0    0  501    0  0.00000000000E+00  0.00000000000E+00  0.11927572990E+04  0.11927572991E+04  0.25500000000E-02 0. -1.
         -2   -1    0    0    0  501 -0.00000000000E+00 -0.00000000000E+00 -0.75995961439E+02  0.75995961482E+02  0.25500000000E-02 0.  1.
    5000001    1    1    2    0    0 -0.85990601348E+02 -0.17430858420E+03  0.31569519973E+03  0.42076397800E+03  0.19900000000E+03 0.  0.
   -5000001    1    1    2    0    0  0.85990601348E+02  0.17430858420E+03  0.80106613788E+03  0.84798928254E+03  0.19900000000E+03 0.  0.
<mgrwt>
<rscale>  0 0.60214529E+03</rscale>
<asrwt>0</asrwt>
<pdfrwt beam="1">  1        2 0.17039389E+00 0.60214529E+03</pdfrwt>
<pdfrwt beam="2">  1       -2 0.10856566E-01 0.60214529E+03</pdfrwt>
<totfact> 0.13051073E+03</totfact>
</mgrwt>
</event>
<event>
 4    1  0.1724904E-005  0.4195521E+03  0.7818608E-02  0.1037212E+00
         -2   -1    0    0    0  501 -0.00000000000E+00  0.00000000000E+00  0.18453146500E+03  0.18453146502E+03  0.25500000000E-02 0.  1.
          2   -1    0    0  501    0  0.00000000000E+00 -0.00000000000E+00 -0.23847423827E+03  0.23847423828E+03  0.25500000000E-02 0. -1.
    5000001    1    1    2    0    0 -0.42182450475E+02 -0.51144602010E+02 -0.23803691191E+02  0.21109889900E+03  0.19900000000E+03 0.  0.
   -5000001    1    1    2    0    0  0.42182450475E+02  0.51144602010E+02 -0.30139082079E+02  0.21190680431E+03  0.19900000000E+03 0.  0.
<mgrwt>
<rscale>  0 0.41955214E+03</rscale>
<asrwt>0</asrwt>
<pdfrwt beam="1">  1        2 0.34067748E-01 0.41955214E+03</pdfrwt>
<pdfrwt beam="2">  1       -2 0.26361638E-01 0.41955214E+03</pdfrwt>
<totfact> 0.19859003E+03</totfact>
</mgrwt>
</event>
<event>
 4    1  0.1724904E-005  0.5159853E+03  0.7818608E-02  0.1009689E+00
         -2   -1    0    0    0  501 -0.00000000000E+00  0.00000000000E+00  0.83860251823E+03  0.83860251823E+03  0.25500000000E-02 0. -1.
          2   -1    0    0  501    0  0.00000000000E+00 -0.00000000000E+00 -0.79370386231E+02  0.79370386272E+02  0.25500000000E-02 0.  1.
    5000001    1    1    2    0    0  0.13220342233E+03 -0.11293832188E+02  0.55167971880E+03  0.60129594016E+03  0.19900000000E+03 0.  0.
   -5000001    1    1    2    0    0 -0.13220342233E+03  0.11293832188E+02  0.20755241320E+03  0.31667696434E+03  0.19900000000E+03 0.  0.
<mgrwt>
<rscale>  0 0.51598529E+03</rscale>
<asrwt>0</asrwt>
<pdfrwt beam="1">  1        2 0.11338626E-01 0.51598529E+03</pdfrwt>
<pdfrwt beam="2">  1       -2 0.11980036E+00 0.51598529E+03</pdfrwt>
<totfact> 0.30617919E+02</totfact>
</mgrwt>
</event>
<event>
 4    1  0.1724904E-005  0.1071370E+04  0.7818608E-02  0.9233555E-01
          2   -1    0    0  501    0  0.00000000000E+00  0.00000000000E+00  0.17736060805E+03  0.17736060807E+03  0.25500000000E-02 0.  1.
         -2   -1    0    0    0  501 -0.00000000000E+00 -0.00000000000E+00 -0.16179373725E+04  0.16179373725E+04  0.25500000000E-02 0. -1.
    5000001    1    1    2    0    0 -0.29376407691E+03 -0.40109787743E+03 -0.74280250364E+03  0.91571469333E+03  0.19900000000E+03 0.  0.
   -5000001    1    1    2    0    0  0.29376407691E+03  0.40109787743E+03 -0.69777426084E+03  0.87958328728E+03  0.19900000000E+03 0.  0.
<mgrwt>
<rscale>  0 0.10713699E+04</rscale>
<asrwt>0</asrwt>
<pdfrwt beam="1">  1        2 0.25337231E-01 0.10713699E+04</pdfrwt>
<pdfrwt beam="2">  1       -2 0.23113390E+00 0.10713699E+04</pdfrwt>
<totfact> 0.18138392E+01</totfact>
</mgrwt>
</event>
<event>
 4    1  0.1724904E-005  0.7875467E+03  0.7818608E-02  0.9578220E-01
         -2   -1    0    0    0  501 -0.00000000000E+00  0.00000000000E+00  0.18815802702E+03  0.18815802704E+03  0.25500000000E-02 0. -1.
          2   -1    0    0  501    0  0.00000000000E+00 -0.00000000000E+00 -0.82408106819E+03  0.82408106820E+03  0.25500000000E-02 0.  1.
    5000001    1    1    2    0    0 -0.27903478201E+03 -0.10387987758E+03 -0.52839503633E+03  0.63832104223E+03  0.19900000000E+03 0.  0.
   -5000001    1    1    2    0    0  0.27903478201E+03  0.10387987758E+03 -0.10752800484E+03  0.37391805300E+03  0.19900000000E+03 0.  0.
<mgrwt>
<rscale>  0 0.78754674E+03</rscale>
<asrwt>0</asrwt>
<pdfrwt beam="1">  1        2 0.11772587E+00 0.78754674E+03</pdfrwt>
<pdfrwt beam="2">  1       -2 0.26879719E-01 0.78754674E+03</pdfrwt>
<totfact> 0.46057958E+02</totfact>
</mgrwt>
</event>
<event>
 4    1  0.1724904E-005  0.6026663E+03  0.7818608E-02  0.9899890E-01
         -2   -1    0    0    0  501 -0.00000000000E+00  0.00000000000E+00  0.15767573763E+03  0.15767573765E+03  0.25500000000E-02 0. -1.
          2   -1    0    0  501    0  0.00000000000E+00 -0.00000000000E+00 -0.57587597069E+03  0.57587597070E+03  0.25500000000E-02 0.  1.
    5000001    1    1    2    0    0  0.22082942984E+03  0.22979905469E+02 -0.15594756917E+03  0.33647341272E+03  0.19900000000E+03 0.  0.
   -5000001    1    1    2    0    0 -0.22082942984E+03 -0.22979905469E+02 -0.26225266389E+03  0.39707829562E+03  0.19900000000E+03 0.  0.
<mgrwt>
<rscale>  0 0.60266630E+03</rscale>
<asrwt>0</asrwt>
<pdfrwt beam="1">  1        2 0.82267995E-01 0.60266630E+03</pdfrwt>
<pdfrwt beam="2">  1       -2 0.22525106E-01 0.60266630E+03</pdfrwt>
<totfact> 0.98689085E+02</totfact>
</mgrwt>
</event>
<event>
 4    1  0.1724904E-005  0.7171770E+03  0.7818608E-02  0.9688300E-01
         -2   -1    0    0    0  501 -0.00000000000E+00  0.00000000000E+00  0.30516198517E+03  0.30516198518E+03  0.25500000000E-02 0. -1.
          2   -1    0    0  501    0  0.00000000000E+00 -0.00000000000E+00 -0.42136876255E+03  0.42136876256E+03  0.25500000000E-02 0.  1.
    5000001    1    1    2    0    0 -0.11807957843E+03  0.27390518801E+03 -0.53818660477E+02  0.36258004230E+03  0.19900000000E+03 0.  0.
   -5000001    1    1    2    0    0  0.11807957843E+03 -0.27390518801E+03 -0.62388116901E+02  0.36395070544E+03  0.19900000000E+03 0.  0.
<mgrwt>
<rscale>  0 0.71717704E+03</rscale>
<asrwt>0</asrwt>
<pdfrwt beam="1">  1        2 0.60195537E-01 0.71717704E+03</pdfrwt>
<pdfrwt beam="2">  1       -2 0.43594569E-01 0.71717704E+03</pdfrwt>
<totfact> 0.40985241E+02</totfact>
</mgrwt>
</event>
<event>
 4    1  0.1724904E-005  0.5962141E+03  0.7818608E-02  0.9913292E-01
          2   -1    0    0  501    0  0.00000000000E+00  0.00000000000E+00  0.63340823370E+02  0.63340823421E+02  0.25500000000E-02 0.  1.
         -2   -1    0    0    0  501 -0.00000000000E+00 -0.00000000000E+00 -0.14030102283E+04  0.14030102283E+04  0.25500000000E-02 0. -1.
    5000001    1    1    2    0    0  0.12980920091E+03  0.11406683074E+03 -0.32722929022E+03  0.42016863150E+03  0.19900000000E+03 0.  0.
   -5000001    1    1    2    0    0 -0.12980920091E+03 -0.11406683074E+03 -0.10124401147E+04  0.10461824202E+04  0.19900000000E+03 0.  0.
<mgrwt>
<rscale>  0 0.59621413E+03</rscale>
<asrwt>0</asrwt>
<pdfrwt beam="1">  1        2 0.90486899E-02 0.59621413E+03</pdfrwt>
<pdfrwt beam="2">  1       -2 0.20043001E+00 0.59621413E+03</pdfrwt>
<totfact> 0.10239257E+02</totfact>
</mgrwt>
</event>
<event>
 4    1  0.1724904E-005  0.5370362E+03  0.7818608E-02  0.1004540E+00
         -2   -1    0    0    0  501 -0.00000000000E+00  0.00000000000E+00  0.22566112201E+02  0.22566112346E+02  0.25500000000E-02 0. -1.
          2   -1    0    0  501    0  0.00000000000E+00 -0.00000000000E+00 -0.31951430497E+04  0.31951430497E+04  0.25500000000E-02 0.  1.
    5000001    1    1    2    0    0 -0.13360246466E+03  0.11517907719E+03 -0.18092791510E+04  0.18287175519E+04  0.19900000000E+03 0.  0.
   -5000001    1    1    2    0    0  0.13360246466E+03 -0.11517907719E+03 -0.13632977866E+04  0.13889916102E+04  0.19900000000E+03 0.  0.
<mgrwt>
<rscale>  0 0.53703615E+03</rscale>
<asrwt>0</asrwt>
<pdfrwt beam="1">  1        2 0.45644872E+00 0.53703615E+03</pdfrwt>
<pdfrwt beam="2">  1       -2 0.32237324E-02 0.53703615E+03</pdfrwt>
<totfact> 0.79780907E+02</totfact>
</mgrwt>
</event>
<event>
 4    1  0.1724904E-005  0.8996628E+03  0.7818608E-02  0.9426003E-01
          2   -1    0    0  501    0  0.00000000000E+00  0.00000000000E+00  0.13386691299E+04  0.13386691299E+04  0.25500000000E-02 0.  1.
         -2   -1    0    0    0  501 -0.00000000000E+00 -0.00000000000E+00 -0.15115632392E+03  0.15115632394E+03  0.25500000000E-02 0. -1.
    5000001    1    1    2    0    0  0.22734139770E+03 -0.31234196130E+03  0.78620468650E+03  0.89830975780E+03  0.19900000000E+03 0.  0.
   -5000001    1    1    2    0    0 -0.22734139770E+03  0.31234196130E+03  0.40130811949E+03  0.59151569604E+03  0.19900000000E+03 0.  0.
<mgrwt>
<rscale>  0 0.89966284E+03</rscale>
<asrwt>0</asrwt>
<pdfrwt beam="1">  1        2 0.19123845E+00 0.89966284E+03</pdfrwt>
<pdfrwt beam="2">  1       -2 0.21593760E-01 0.89966284E+03</pdfrwt>
<totfact> 0.33339938E+02</totfact>
</mgrwt>
</event>
<event>
 4    1  0.1724904E-005  0.9262384E+03  0.7818608E-02  0.9393364E-01
          2   -1    0    0  501    0  0.00000000000E+00  0.00000000000E+00  0.30725298603E+03  0.30725298604E+03  0.25500000000E-02 0.  1.
         -2   -1    0    0    0  501 -0.00000000000E+00 -0.00000000000E+00 -0.69805473623E+03  0.69805473623E+03  0.25500000000E-02 0. -1.
    5000001    1    1    2    0    0 -0.23577287936E+03  0.20498015719E+03  0.10630879770E+03  0.38536771524E+03  0.19900000000E+03 0.  0.
   -5000001    1    1    2    0    0  0.23577287936E+03 -0.20498015719E+03 -0.49711054790E+03  0.61994000703E+03  0.19900000000E+03 0.  0.
<mgrwt>
<rscale>  0 0.92623842E+03</rscale>
<asrwt>0</asrwt>
<pdfrwt beam="1">  1        2 0.43893284E-01 0.92623842E+03</pdfrwt>
<pdfrwt beam="2">  1       -2 0.99722105E-01 0.92623842E+03</pdfrwt>
<totfact> 0.96792421E+01</totfact>
</mgrwt>
</event>
<event>
 4    1  0.1724904E-005  0.4868983E+03  0.7818608E-02  0.1017256E+00
         -2   -1    0    0    0  501 -0.00000000000E+00  0.00000000000E+00  0.16403911092E+03  0.16403911094E+03  0.25500000000E-02 0. -1.
          2   -1    0    0  501    0  0.00000000000E+00 -0.00000000000E+00 -0.36130102142E+03  0.36130102143E+03  0.25500000000E-02 0.  1.
    5000001    1    1    2    0    0 -0.11671913232E+03  0.68158453210E+02 -0.13896657362E+03  0.27781583680E+03  0.19900000000E+03 0.  0.
   -5000001    1    1    2    0    0  0.11671913232E+03 -0.68158453210E+02 -0.58295336881E+02  0.24752429557E+03  0.19900000000E+03 0.  0.
<mgrwt>
<rscale>  0 0.48689834E+03</rscale>
<asrwt>0</asrwt>
<pdfrwt beam="1">  1        2 0.51614431E-01 0.48689834E+03</pdfrwt>
<pdfrwt beam="2">  1       -2 0.23434159E-01 0.48689834E+03</pdfrwt>
<totfact> 0.15550198E+03</totfact>
</mgrwt>
</event>
<event>
 4    1  0.1724904E-005  0.1212368E+04  0.7818608E-02  0.9102099E-01
         -2   -1    0    0    0  501 -0.00000000000E+00  0.00000000000E+00  0.18280319943E+03  0.18280319945E+03  0.25500000000E-02 0. -1.
          2   -1    0    0  501    0  0.00000000000E+00 -0.00000000000E+00 -0.20101353449E+04  0.20101353449E+04  0.25500000000E-02 0.  1.
    5000001    1    1    2    0    0 -0.44920180307E+03  0.30095915933E+03 -0.12544687661E+04  0.13804533895E+04  0.19900000000E+03 0.  0.
   -5000001    1    1    2    0    0  0.44920180307E+03 -0.30095915933E+03 -0.57286337944E+03  0.81248515492E+03  0.19900000000E+03 0.  0.
<mgrwt>
<rscale>  0 0.12123682E+04</rscale>
<asrwt>0</asrwt>
<pdfrwt beam="1">  1        2 0.28716218E+00 0.12123682E+04</pdfrwt>
<pdfrwt beam="2">  1       -2 0.26114744E-01 0.12123682E+04</pdfrwt>
<totfact> 0.10361814E+02</totfact>
</mgrwt>
</event>
<event>
 4    1  0.1724904E-005  0.4840032E+03  0.7818608E-02  0.1018041E+00
         -2   -1    0    0    0  501 -0.00000000000E+00  0.00000000000E+00  0.11126164335E+04  0.11126164335E+04  0.25500000000E-02 0. -1.
          2   -1    0    0  501    0  0.00000000000E+00 -0.00000000000E+00 -0.52636986325E+02  0.52636986387E+02  0.25500000000E-02 0.  1.
    5000001    1    1    2    0    0  0.75466549850E+02 -0.11287860923E+03  0.47472148974E+03  0.53235164449E+03  0.19900000000E+03 0.  0.
   -5000001    1    1    2    0    0 -0.75466549850E+02  0.11287860923E+03  0.58525795746E+03  0.63290177543E+03  0.19900000000E+03 0.  0.
<mgrwt>
<rscale>  0 0.48400321E+03</rscale>
<asrwt>0</asrwt>
<pdfrwt beam="1">  1        2 0.75195702E-02 0.48400321E+03</pdfrwt>
<pdfrwt beam="2">  1       -2 0.15894519E+00 0.48400321E+03</pdfrwt>
<totfact> 0.25089571E+02</totfact>
</mgrwt>
</event>
<event>
 4    1  0.1724904E-005  0.7153494E+03  0.7818608E-02  0.9691337E-01
          2   -1    0    0  501    0  0.00000000000E+00  0.00000000000E+00  0.29800269875E+04  0.29800269875E+04  0.25500000000E-02 0.  1.
         -2   -1    0    0    0  501 -0.00000000000E+00 -0.00000000000E+00 -0.42929540219E+02  0.42929540295E+02  0.25500000000E-02 0. -1.
    5000001    1    1    2    0    0 -0.14462580568E+03  0.18909322259E+03  0.22204325595E+04  0.22420068291E+04  0.19900000000E+03 0.  0.
   -5000001    1    1    2    0    0  0.14462580568E+03 -0.18909322259E+03  0.71666488781E+03  0.78094969871E+03  0.19900000000E+03 0.  0.
<mgrwt>
<rscale>  0 0.71534939E+03</rscale>
<asrwt>0</asrwt>
<pdfrwt beam="1">  1        2 0.42571816E+00 0.71534939E+03</pdfrwt>
<pdfrwt beam="2">  1       -2 0.61327912E-02 0.71534939E+03</pdfrwt>
<totfact> 0.38141751E+02</totfact>
</mgrwt>
</event>
<event>
 4    1  0.1724904E-005  0.7283580E+03  0.7818608E-02  0.9669929E-01
         -2   -1    0    0    0  501 -0.00000000000E+00  0.00000000000E+00  0.50722003109E+03  0.50722003109E+03  0.25500000000E-02 0. -1.
          2   -1    0    0  501    0  0.00000000000E+00 -0.00000000000E+00 -0.26147697220E+03  0.26147697221E+03  0.25500000000E-02 0.  1.
    5000001    1    1    2    0    0  0.19306644945E+03 -0.15785174479E+03  0.30819136227E+03  0.44359299252E+03  0.19900000000E+03 0.  0.
   -5000001    1    1    2    0    0 -0.19306644945E+03  0.15785174479E+03 -0.62448303381E+02  0.32510401079E+03  0.19900000000E+03 0.  0.
<mgrwt>
<rscale>  0 0.72835804E+03</rscale>
<asrwt>0</asrwt>
<pdfrwt beam="1">  1        2 0.37353853E-01 0.72835804E+03</pdfrwt>
<pdfrwt beam="2">  1       -2 0.72460004E-01 0.72835804E+03</pdfrwt>
<totfact> 0.24173901E+02</totfact>
</mgrwt>
</event>
<event>
 4    1  0.1724904E-005  0.4991949E+03  0.7818608E-02  0.1013989E+00
         -2   -1    0    0    0  501 -0.00000000000E+00  0.00000000000E+00  0.17872211760E+03  0.17872211762E+03  0.25500000000E-02 0. -1.
          2   -1    0    0  501    0  0.00000000000E+00 -0.00000000000E+00 -0.34857956655E+03  0.34857956656E+03  0.25500000000E-02 0.  1.
    5000001    1    1    2    0    0  0.43016450647E+02 -0.82404322403E+02 -0.21016646720E+03  0.30399314353E+03  0.19900000000E+03 0.  0.
   -5000001    1    1    2    0    0 -0.43016450647E+02  0.82404322403E+02  0.40309018244E+02  0.22330854065E+03  0.19900000000E+03 0.  0.
<mgrwt>
<rscale>  0 0.49919486E+03</rscale>
<asrwt>0</asrwt>
<pdfrwt beam="1">  1        2 0.49797081E-01 0.49919486E+03</pdfrwt>
<pdfrwt beam="2">  1       -2 0.25531731E-01 0.49919486E+03</pdfrwt>
<totfact> 0.13884504E+03</totfact>
</mgrwt>
</event>
<event>
 4    1  0.1724904E-005  0.4823201E+03  0.7818608E-02  0.1018499E+00
         -2   -1    0    0    0  501 -0.00000000000E+00  0.00000000000E+00  0.97423404888E+02  0.97423404922E+02  0.25500000000E-02 0. -1.
          2   -1    0    0  501    0  0.00000000000E+00 -0.00000000000E+00 -0.59696313515E+03  0.59696313515E+03  0.25500000000E-02 0.  1.
    5000001    1    1    2    0    0 -0.91104508544E+02 -0.62759741913E+02 -0.13533239984E+03  0.26486727833E+03  0.19900000000E+03 0.  0.
   -5000001    1    1    2    0    0  0.91104508544E+02  0.62759741913E+02 -0.36420733042E+03  0.42951926175E+03  0.19900000000E+03 0.  0.
<mgrwt>
<rscale>  0 0.48232015E+03</rscale>
<asrwt>0</asrwt>
<pdfrwt beam="1">  1        2 0.85280446E-01 0.48232015E+03</pdfrwt>
<pdfrwt beam="2">  1       -2 0.13917630E-01 0.48232015E+03</pdfrwt>
<totfact> 0.21592517E+03</totfact>
</mgrwt>
</event>
<event>
 4    1  0.1724904E-005  0.5566048E+03  0.7818608E-02  0.9999766E-01
         -2   -1    0    0    0  501 -0.00000000000E+00  0.00000000000E+00  0.64918377572E+02  0.64918377622E+02  0.25500000000E-02 0. -1.
          2   -1    0    0  501    0  0.00000000000E+00 -0.00000000000E+00 -0.11930707472E+04  0.11930707472E+04  0.25500000000E-02 0.  1.
    5000001    1    1    2    0    0  0.26788174056E+01  0.17149835730E+03 -0.77161741927E+03  0.81511551595E+03  0.19900000000E+03 0.  0.
   -5000001    1    1    2    0    0 -0.26788174056E+01 -0.17149835730E+03 -0.35653495040E+03  0.44287360892E+03  0.19900000000E+03 0.  0.
<mgrwt>
<rscale>  0 0.55660477E+03</rscale>
<asrwt>0</asrwt>
<pdfrwt beam="1">  1        2 0.17043866E+00 0.55660477E+03</pdfrwt>
<pdfrwt beam="2">  1       -2 0.92740547E-02 0.55660477E+03</pdfrwt>
<totfact> 0.16856989E+03</totfact>
</mgrwt>
</event>
<event>
 4    1  0.1724904E-005  0.8917507E+03  0.7818608E-02  0.9435953E-01
          2   -1    0    0  501    0  0.00000000000E+00  0.00000000000E+00  0.24675113334E+04  0.24675113334E+04  0.25500000000E-02 0.  1.
         -2   -1    0    0    0  501 -0.00000000000E+00 -0.00000000000E+00 -0.80568969648E+02  0.80568969688E+02  0.25500000000E-02 0. -1.
    5000001    1    1    2    0    0  0.33963721819E+03 -0.16012032584E+03  0.15790801326E+04  0.16352635946E+04  0.19900000000E+03 0.  0.
   -5000001    1    1    2    0    0 -0.33963721819E+03  0.16012032584E+03  0.80786223111E+03  0.91281670842E+03  0.19900000000E+03 0.  0.
<mgrwt>
<rscale>  0 0.89175074E+03</rscale>
<asrwt>0</asrwt>
<pdfrwt beam="1">  1        2 0.35250170E+00 0.89175074E+03</pdfrwt>
<pdfrwt beam="2">  1       -2 0.11509850E-01 0.89175074E+03</pdfrwt>
<totfact> 0.25487147E+02</totfact>
</mgrwt>
</event>
<event>
 4    1  0.1724904E-005  0.6312345E+03  0.7818608E-02  0.9842643E-01
          2   -1    0    0  501    0  0.00000000000E+00  0.00000000000E+00  0.15110362357E+04  0.15110362357E+04  0.25500000000E-02 0.  1.
         -2   -1    0    0    0  501 -0.00000000000E+00 -0.00000000000E+00 -0.65924463989E+02  0.65924464039E+02  0.25500000000E-02 0. -1.
    5000001    1    1    2    0    0 -0.21001140259E+03 -0.12611981896E+03  0.71880357051E+03  0.78504176381E+03  0.19900000000E+03 0.  0.
   -5000001    1    1    2    0    0  0.21001140259E+03  0.12611981896E+03  0.72630820119E+03  0.79191893592E+03  0.19900000000E+03 0.  0.
<mgrwt>
<rscale>  0 0.63123452E+03</rscale>
<asrwt>0</asrwt>
<pdfrwt beam="1">  1        2 0.21586231E+00 0.63123452E+03</pdfrwt>
<pdfrwt beam="2">  1       -2 0.94177810E-02 0.63123452E+03</pdfrwt>
<totfact> 0.11065758E+03</totfact>
</mgrwt>
</event>
<event>
 4    1  0.1724904E-005  0.1705930E+04  0.7818608E-02  0.8757989E-01
          2   -1    0    0  501    0  0.00000000000E+00  0.00000000000E+00  0.99735721236E+03  0.99735721236E+03  0.25500000000E-02 0.  1.
         -2   -1    0    0    0  501 -0.00000000000E+00 -0.00000000000E+00 -0.72947736365E+03  0.72947736366E+03  0.25500000000E-02 0. -1.
    5000001    1    1    2    0    0 -0.68811224686E+03  0.31960095910E+03 -0.20528639250E+03  0.81079389507E+03  0.19900000000E+03 0.  0.
   -5000001    1    1    2    0    0  0.68811224686E+03 -0.31960095910E+03  0.47316624120E+03  0.91604068095E+03  0.19900000000E+03 0.  0.
<mgrwt>
<rscale>  0 0.17059303E+04</rscale>
<asrwt>0</asrwt>
<pdfrwt beam="1">  1        2 0.14247960E+00 0.17059303E+04</pdfrwt>
<pdfrwt beam="2">  1       -2 0.10421105E+00 0.17059303E+04</pdfrwt>
<totfact> 0.20128546E+01</totfact>
</mgrwt>
</event>
<event>
 4    1  0.1724904E-005  0.5322780E+03  0.7818608E-02  0.1005681E+00
         -2   -1    0    0    0  501 -0.00000000000E+00  0.00000000000E+00  0.43669899826E+02  0.43669899900E+02  0.25500000000E-02 0.  1.
          2   -1    0    0  501    0  0.00000000000E+00 -0.00000000000E+00 -0.16219402284E+04  0.16219402284E+04  0.25500000000E-02 0. -1.
    5000001    1    1    2    0    0 -0.12761503472E+03  0.11886832394E+03 -0.69987353362E+03  0.74822405640E+03  0.19900000000E+03 0.  0.
   -5000001    1    1    2    0    0  0.12761503472E+03 -0.11886832394E+03 -0.87839679496E+03  0.91738607190E+03  0.19900000000E+03 0.  0.
<mgrwt>
<rscale>  0 0.53227800E+03</rscale>
<asrwt>0</asrwt>
<pdfrwt beam="1">  1        2 0.23170571E+00 0.53227800E+03</pdfrwt>
<pdfrwt beam="2">  1       -2 0.62385581E-02 0.53227800E+03</pdfrwt>
<totfact> 0.18729552E+03</totfact>
</mgrwt>
</event>
<event>
 4    1  0.1724904E-005  0.8089852E+03  0.7818608E-02  0.9547102E-01
          2   -1    0    0  501    0  0.00000000000E+00  0.00000000000E+00  0.35096146546E+03  0.35096146547E+03  0.25500000000E-02 0.  1.
         -2   -1    0    0    0  501 -0.00000000000E+00 -0.00000000000E+00 -0.46618870343E+03  0.46618870344E+03  0.25500000000E-02 0. -1.
    5000001    1    1    2    0    0  0.22833921617E+03  0.16998364866E+02 -0.32786872423E+03  0.44668405207E+03  0.19900000000E+03 0.  0.
   -5000001    1    1    2    0    0 -0.22833921617E+03 -0.16998364866E+02  0.21264148626E+03  0.37046611684E+03  0.19900000000E+03 0.  0.
<mgrwt>
<rscale>  0 0.80898522E+03</rscale>
<asrwt>0</asrwt>
<pdfrwt beam="1">  1        2 0.50137352E-01 0.80898522E+03</pdfrwt>
<pdfrwt beam="2">  1       -2 0.66598386E-01 0.80898522E+03</pdfrwt>
<totfact> 0.20886103E+02</totfact>
</mgrwt>
</event>
<event>
 4    1  0.1724904E-005  0.4685181E+03  0.7818608E-02  0.1022339E+00
          2   -1    0    0  501    0  0.00000000000E+00  0.00000000000E+00  0.13459713655E+04  0.13459713655E+04  0.25500000000E-02 0.  1.
         -2   -1    0    0    0  501 -0.00000000000E+00 -0.00000000000E+00 -0.40771524056E+02  0.40771524136E+02  0.25500000000E-02 0. -1.
    5000001    1    1    2    0    0  0.41253718943E+02 -0.92529550873E+02  0.44304099882E+03  0.49613497533E+03  0.19900000000E+03 0.  0.
   -5000001    1    1    2    0    0 -0.41253718943E+02  0.92529550873E+02  0.86215884263E+03  0.89060791432E+03  0.19900000000E+03 0.  0.
<mgrwt>
<rscale>  0 0.46851811E+03</rscale>
<asrwt>0</asrwt>
<pdfrwt beam="1">  1        2 0.19228160E+00 0.46851811E+03</pdfrwt>
<pdfrwt beam="2">  1       -2 0.58245042E-02 0.46851811E+03</pdfrwt>
<totfact> 0.29043641E+03</totfact>
</mgrwt>
</event>
<event>
 4    1  0.1724904E-005  0.7509468E+03  0.7818608E-02  0.9633866E-01
          2   -1    0    0  501    0  0.00000000000E+00  0.00000000000E+00  0.19580990839E+04  0.19580990839E+04  0.25500000000E-02 0.  1.
         -2   -1    0    0    0  501 -0.00000000000E+00 -0.00000000000E+00 -0.71998536276E+02  0.71998536321E+02  0.25500000000E-02 0. -1.
    5000001    1    1    2    0    0  0.24342418329E+03 -0.19523347337E+03  0.77190607565E+03  0.85604405948E+03  0.19900000000E+03 0.  0.
   -5000001    1    1    2    0    0 -0.24342418329E+03  0.19523347337E+03  0.11141944720E+04  0.11740535607E+04  0.19900000000E+03 0.  0.
<mgrwt>
<rscale>  0 0.75094678E+03</rscale>
<asrwt>0</asrwt>
<pdfrwt beam="1">  1        2 0.27972843E+00 0.75094678E+03</pdfrwt>
<pdfrwt beam="2">  1       -2 0.10285505E-01 0.75094678E+03</pdfrwt>
<totfact> 0.56324567E+02</totfact>
</mgrwt>
</event>
<event>
 4    1  0.1724904E-005  0.6887346E+03  0.7818608E-02  0.9736694E-01
         -2   -1    0    0    0  501 -0.00000000000E+00  0.00000000000E+00  0.39798459319E+02  0.39798459401E+02  0.25500000000E-02 0. -1.
          2   -1    0    0  501    0  0.00000000000E+00 -0.00000000000E+00 -0.29797344728E+04  0.29797344728E+04  0.25500000000E-02 0.  1.
    5000001    1    1    2    0    0  0.55585709930E+02 -0.24787513050E+03 -0.19970907799E+04  0.20229939284E+04  0.19900000000E+03 0.  0.
   -5000001    1    1    2    0    0 -0.55585709930E+02  0.24787513050E+03 -0.94284523358E+03  0.99653900373E+03  0.19900000000E+03 0.  0.
<mgrwt>
<rscale>  0 0.68873461E+03</rscale>
<asrwt>0</asrwt>
<pdfrwt beam="1">  1        2 0.42567621E+00 0.68873461E+03</pdfrwt>
<pdfrwt beam="2">  1       -2 0.56854961E-02 0.68873461E+03</pdfrwt>
<totfact> 0.43082510E+02</totfact>
</mgrwt>
</event>
<event>
 4    1  0.1724904E-005  0.5297916E+03  0.7818608E-02  0.1006283E+00
          2   -1    0    0  501    0  0.00000000000E+00  0.00000000000E+00  0.10833282738E+04  0.10833282738E+04  0.25500000000E-02 0.  1.
         -2   -1    0    0    0  501 -0.00000000000E+00 -0.00000000000E+00 -0.64772410837E+02  0.64772410887E+02  0.25500000000E-02 0. -1.
    5000001    1    1    2    0    0  0.16006038769E+03 -0.31769403645E+01  0.35697425054E+03  0.43893169880E+03  0.19900000000E+03 0.  0.
   -5000001    1    1    2    0    0 -0.16006038769E+03  0.31769403645E+01  0.66158161239E+03  0.70916898586E+03  0.19900000000E+03 0.  0.
<mgrwt>
<rscale>  0 0.52979160E+03</rscale>
<asrwt>0</asrwt>
<pdfrwt beam="1">  1        2 0.15476118E+00 0.52979160E+03</pdfrwt>
<pdfrwt beam="2">  1       -2 0.92532019E-02 0.52979160E+03</pdfrwt>
<totfact> 0.19552814E+03</totfact>
</mgrwt>
</event>
<event>
 4    1  0.1724904E-005  0.7832018E+03  0.7818608E-02  0.9584655E-01
         -2   -1    0    0    0  501 -0.00000000000E+00  0.00000000000E+00  0.30168406291E+02  0.30168406399E+02  0.25500000000E-02 0. -1.
          2   -1    0    0  501    0  0.00000000000E+00 -0.00000000000E+00 -0.50831740294E+04  0.50831740294E+04  0.25500000000E-02 0.  1.
    5000001    1    1    2    0    0 -0.23064048204E+03  0.11237056112E+03 -0.39558121969E+04  0.39691149281E+04  0.19900000000E+03 0.  0.
   -5000001    1    1    2    0    0  0.23064048204E+03 -0.11237056112E+03 -0.10971934262E+04  0.11442275078E+04  0.19900000000E+03 0.  0.
<mgrwt>
<rscale>  0 0.78320179E+03</rscale>
<asrwt>0</asrwt>
<pdfrwt beam="1">  1        2 0.72616717E+00 0.78320179E+03</pdfrwt>
<pdfrwt beam="2">  1       -2 0.43097756E-02 0.78320179E+03</pdfrwt>
<totfact> 0.21663850E+01</totfact>
</mgrwt>
</event>
<event>
 4    1  0.1724904E-005  0.8261406E+03  0.7818608E-02  0.9522932E-01
         -2   -1    0    0    0  501 -0.00000000000E+00  0.00000000000E+00  0.93293090762E+02  0.93293090797E+02  0.25500000000E-02 0. -1.
          2   -1    0    0  501    0  0.00000000000E+00 -0.00000000000E+00 -0.18289356599E+04  0.18289356599E+04  0.25500000000E-02 0.  1.
    5000001    1    1    2    0    0  0.33544684142E+03 -0.10356286662E+03 -0.66264124801E+03  0.77585067786E+03  0.19900000000E+03 0.  0.
   -5000001    1    1    2    0    0 -0.33544684142E+03  0.10356286662E+03 -0.10730013211E+04  0.11463780729E+04  0.19900000000E+03 0.  0.
<mgrwt>
<rscale>  0 0.82614057E+03</rscale>
<asrwt>0</asrwt>
<pdfrwt beam="1">  1        2 0.26127650E+00 0.82614057E+03</pdfrwt>
<pdfrwt beam="2">  1       -2 0.13327586E-01 0.82614057E+03</pdfrwt>
<totfact> 0.42505632E+02</totfact>
</mgrwt>
</event>
<event>
 4    1  0.1724904E-005  0.7324596E+03  0.7818608E-02  0.9663277E-01
         -2   -1    0    0    0  501 -0.00000000000E+00  0.00000000000E+00  0.10777348117E+03  0.10777348120E+03  0.25500000000E-02 0. -1.
          2   -1    0    0  501    0  0.00000000000E+00 -0.00000000000E+00 -0.12445017188E+04  0.12445017188E+04  0.25500000000E-02 0.  1.
    5000001    1    1    2    0    0  0.44145792132E+02  0.28523210647E+03 -0.76389764544E+03  0.84050390733E+03  0.19900000000E+03 0.  0.
   -5000001    1    1    2    0    0 -0.44145792132E+02 -0.28523210647E+03 -0.37283059216E+03  0.51177129264E+03  0.19900000000E+03 0.  0.
<mgrwt>
<rscale>  0 0.73245964E+03</rscale>
<asrwt>0</asrwt>
<pdfrwt beam="1">  1        2 0.17778595E+00 0.73245964E+03</pdfrwt>
<pdfrwt beam="2">  1       -2 0.15396212E-01 0.73245964E+03</pdfrwt>
<totfact> 0.68014926E+02</totfact>
</mgrwt>
</event>
<event>
 4    1  0.1724904E-005  0.6032482E+03  0.7818608E-02  0.9898690E-01
         -2   -1    0    0    0  501 -0.00000000000E+00  0.00000000000E+00  0.61566142112E+02  0.61566142165E+02  0.25500000000E-02 0. -1.
          2   -1    0    0  501    0  0.00000000000E+00 -0.00000000000E+00 -0.14777132121E+04  0.14777132121E+04  0.25500000000E-02 0.  1.
    5000001    1    1    2    0    0  0.67273710543E+02 -0.13192120269E+03 -0.11459413294E+04  0.11724809108E+04  0.19900000000E+03 0.  0.
   -5000001    1    1    2    0    0 -0.67273710543E+02  0.13192120269E+03 -0.27020574055E+03  0.36679844339E+03  0.19900000000E+03 0.  0.
<mgrwt>
<rscale>  0 0.60324821E+03</rscale>
<asrwt>0</asrwt>
<pdfrwt beam="1">  1        2 0.21110187E+00 0.60324821E+03</pdfrwt>
<pdfrwt beam="2">  1       -2 0.87951641E-02 0.60324821E+03</pdfrwt>
<totfact> 0.12872713E+03</totfact>
</mgrwt>
</event>
<event>
 4    1  0.1724904E-005  0.5146697E+03  0.7818608E-02  0.1010019E+00
          2   -1    0    0  501    0  0.00000000000E+00  0.00000000000E+00  0.34042659129E+04  0.34042659129E+04  0.25500000000E-02 0. -1.
         -2   -1    0    0    0  501 -0.00000000000E+00 -0.00000000000E+00 -0.19452422807E+02  0.19452422974E+02  0.25500000000E-02 0.  1.
    5000001    1    1    2    0    0 -0.72096652280E+02 -0.13960208374E+03  0.19849211600E+04  0.20010496447E+04  0.19900000000E+03 0.  0.
   -5000001    1    1    2    0    0  0.72096652280E+02  0.13960208374E+03  0.13998923300E+04  0.14226686911E+04  0.19900000000E+03 0.  0.
<mgrwt>
<rscale>  0 0.51466968E+03</rscale>
<asrwt>0</asrwt>
<pdfrwt beam="1">  1        2 0.48632334E+00 0.51466968E+03</pdfrwt>
<pdfrwt beam="2">  1       -2 0.27789196E-02 0.51466968E+03</pdfrwt>
<totfact> 0.76139939E+02</totfact>
</mgrwt>
</event>
<event>
 4    1  0.1724904E-005  0.6581498E+03  0.7818608E-02  0.9791606E-01
         -2   -1    0    0    0  501 -0.00000000000E+00  0.00000000000E+00  0.19635601485E+03  0.19635601487E+03  0.25500000000E-02 0. -1.
          2   -1    0    0  501    0  0.00000000000E+00 -0.00000000000E+00 -0.55149974187E+03  0.55149974187E+03  0.25500000000E-02 0.  1.
    5000001    1    1    2    0    0  0.22584315045E+03 -0.92569597400E+02 -0.69086238386E+02  0.32240993673E+03  0.19900000000E+03 0.  0.
   -5000001    1    1    2    0    0 -0.22584315045E+03  0.92569597400E+02 -0.28605748863E+03  0.42544582001E+03  0.19900000000E+03 0.  0.
<mgrwt>
<rscale>  0 0.65814981E+03</rscale>
<asrwt>0</asrwt>
<pdfrwt beam="1">  1        2 0.78785677E-01 0.65814981E+03</pdfrwt>
<pdfrwt beam="2">  1       -2 0.28050859E-01 0.65814981E+03</pdfrwt>
<totfact> 0.69869205E+02</totfact>
</mgrwt>
</event>
<event>
 4    1  0.1724904E-005  0.5467909E+03  0.7818608E-02  0.1002239E+00
          2   -1    0    0  501    0  0.00000000000E+00  0.00000000000E+00  0.91817071087E+03  0.91817071087E+03  0.25500000000E-02 0.  1.
         -2   -1    0    0    0  501 -0.00000000000E+00 -0.00000000000E+00 -0.81406519366E+02  0.81406519405E+02  0.25500000000E-02 0. -1.
    5000001    1    1    2    0    0  0.61856455880E+02 -0.17510816011E+03  0.46516781884E+03  0.53895379074E+03  0.19900000000E+03 0.  0.
   -5000001    1    1    2    0    0 -0.61856455880E+02  0.17510816011E+03  0.37159637266E+03  0.46062343954E+03  0.19900000000E+03 0.  0.
<mgrwt>
<rscale>  0 0.54679094E+03</rscale>
<asrwt>0</asrwt>
<pdfrwt beam="1">  1        2 0.13116725E+00 0.54679094E+03</pdfrwt>
<pdfrwt beam="2">  1       -2 0.11629502E-01 0.54679094E+03</pdfrwt>
<totfact> 0.17001311E+03</totfact>
</mgrwt>
</event>
<event>
 4    1  0.1724904E-005  0.4576918E+03  0.7818608E-02  0.1025453E+00
         -2   -1    0    0    0  501 -0.00000000000E+00  0.00000000000E+00  0.58300623594E+02  0.58300623649E+02  0.25500000000E-02 0. -1.
          2   -1    0    0  501    0  0.00000000000E+00 -0.00000000000E+00 -0.89828260929E+03  0.89828260929E+03  0.25500000000E-02 0.  1.
    5000001    1    1    2    0    0  0.35859869257E+02  0.10614681347E+03 -0.45073342619E+03  0.50528674801E+03  0.19900000000E+03 0.  0.
   -5000001    1    1    2    0    0 -0.35859869257E+02 -0.10614681347E+03 -0.38924855950E+03  0.45129648493E+03  0.19900000000E+03 0.  0.
<mgrwt>
<rscale>  0 0.45769176E+03</rscale>
<asrwt>0</asrwt>
<pdfrwt beam="1">  1        2 0.12832608E+00 0.45769176E+03</pdfrwt>
<pdfrwt beam="2">  1       -2 0.83286611E-02 0.45769176E+03</pdfrwt>
<totfact> 0.29986270E+03</totfact>
</mgrwt>
</event>
<event>
 4    1  0.1724904E-005  0.1061937E+04  0.7818608E-02  0.9243106E-01
          2   -1    0    0  501    0  0.00000000000E+00  0.00000000000E+00  0.68745144694E+03  0.68745144695E+03  0.25500000000E-02 0.  1.
         -2   -1    0    0    0  501 -0.00000000000E+00 -0.00000000000E+00 -0.41010556086E+03  0.41010556087E+03  0.25500000000E-02 0. -1.
    5000001    1    1    2    0    0 -0.12196813108E+03  0.47267837056E+03  0.20424868988E+03  0.56534909066E+03  0.19900000000E+03 0.  0.
   -5000001    1    1    2    0    0  0.12196813108E+03 -0.47267837056E+03  0.73097196207E+02  0.53220791716E+03  0.19900000000E+03 0.  0.
<mgrwt>
<rscale>  0 0.10619372E+04</rscale>
<asrwt>0</asrwt>
<pdfrwt beam="1">  1        2 0.98207350E-01 0.10619372E+04</pdfrwt>
<pdfrwt beam="2">  1       -2 0.58586509E-01 0.10619372E+04</pdfrwt>
<totfact> 0.12480232E+02</totfact>
</mgrwt>
</event>
<event>
 4    1  0.1724904E-005  0.8213124E+03  0.7818608E-02  0.9529671E-01
         -2   -1    0    0    0  501 -0.00000000000E+00  0.00000000000E+00  0.31831466660E+03  0.31831466661E+03  0.25500000000E-02 0. -1.
          2   -1    0    0  501    0  0.00000000000E+00 -0.00000000000E+00 -0.52978555943E+03  0.52978555944E+03  0.25500000000E-02 0.  1.
    5000001    1    1    2    0    0 -0.22498957854E+03  0.75845704574E+02 -0.38409128853E+03  0.49345719092E+03  0.19900000000E+03 0.  0.
   -5000001    1    1    2    0    0  0.22498957854E+03 -0.75845704574E+02  0.17262039570E+03  0.35464303512E+03  0.19900000000E+03 0.  0.
<mgrwt>
<rscale>  0 0.82131240E+03</rscale>
<asrwt>0</asrwt>
<pdfrwt beam="1">  1        2 0.75683651E-01 0.82131240E+03</pdfrwt>
<pdfrwt beam="2">  1       -2 0.45473524E-01 0.82131240E+03</pdfrwt>
<totfact> 0.28946501E+02</totfact>
</mgrwt>
</event>
<event>
 4    1  0.1724904E-005  0.5389997E+03  0.7818608E-02  0.1004073E+00
         -2   -1    0    0    0  501 -0.00000000000E+00  0.00000000000E+00  0.97400340200E+02  0.97400340233E+02  0.25500000000E-02 0. -1.
          2   -1    0    0  501    0  0.00000000000E+00 -0.00000000000E+00 -0.74568715204E+03  0.74568715204E+03  0.25500000000E-02 0.  1.
    5000001    1    1    2    0    0 -0.14542078981E+03 -0.29045294821E+02 -0.48848069011E+03  0.54790986473E+03  0.19900000000E+03 0.  0.
   -5000001    1    1    2    0    0  0.14542078981E+03  0.29045294821E+02 -0.15980612173E+03  0.29517762754E+03  0.19900000000E+03 0.  0.
<mgrwt>
<rscale>  0 0.53899975E+03</rscale>
<asrwt>0</asrwt>
<pdfrwt beam="1">  1        2 0.10652673E+00 0.53899975E+03</pdfrwt>
<pdfrwt beam="2">  1       -2 0.13914335E-01 0.53899975E+03</pdfrwt>
<totfact> 0.16536336E+03</totfact>
</mgrwt>
</event>
<event>
 4    1  0.1724904E-005  0.8151979E+03  0.7818608E-02  0.9538276E-01
         -2   -1    0    0    0  501 -0.00000000000E+00  0.00000000000E+00  0.25244320997E+03  0.25244320998E+03  0.25500000000E-02 0. -1.
          2   -1    0    0  501    0  0.00000000000E+00 -0.00000000000E+00 -0.65811587912E+03  0.65811587913E+03  0.25500000000E-02 0.  1.
    5000001    1    1    2    0    0 -0.69393597851E+02  0.22074530819E+03  0.98938143714E+02  0.32083285180E+03  0.19900000000E+03 0.  0.
   -5000001    1    1    2    0    0  0.69393597851E+02 -0.22074530819E+03 -0.50461081287E+03  0.58972623731E+03  0.19900000000E+03 0.  0.
<mgrwt>
<rscale>  0 0.81519785E+03</rscale>
<asrwt>0</asrwt>
<pdfrwt beam="1">  1        2 0.94016554E-01 0.81519785E+03</pdfrwt>
<pdfrwt beam="2">  1       -2 0.36063316E-01 0.81519785E+03</pdfrwt>
<totfact> 0.35240522E+02</totfact>
</mgrwt>
</event>
<event>
 4    1  0.1724904E-005  0.7265081E+03  0.7818608E-02  0.9672944E-01
         -2   -1    0    0    0  501 -0.00000000000E+00  0.00000000000E+00  0.36298582580E+03  0.36298582581E+03  0.25500000000E-02 0. -1.
          2   -1    0    0  501    0  0.00000000000E+00 -0.00000000000E+00 -0.36352251845E+03  0.36352251846E+03  0.25500000000E-02 0.  1.
    5000001    1    1    2    0    0 -0.27862965394E+03  0.12048733470E+03 -0.14440142080E+02  0.36326464125E+03  0.19900000000E+03 0.  0.
   -5000001    1    1    2    0    0  0.27862965394E+03 -0.12048733470E+03  0.13903449427E+02  0.36324370302E+03  0.19900000000E+03 0.  0.
<mgrwt>
<rscale>  0 0.72650815E+03</rscale>
<asrwt>0</asrwt>
<pdfrwt beam="1">  1        2 0.51931788E-01 0.72650815E+03</pdfrwt>
<pdfrwt beam="2">  1       -2 0.51855118E-01 0.72650815E+03</pdfrwt>
<totfact> 0.34076784E+02</totfact>
</mgrwt>
</event>
<event>
 4    1  0.1724904E-005  0.7821524E+03  0.7818608E-02  0.9586216E-01
          2   -1    0    0  501    0  0.00000000000E+00  0.00000000000E+00  0.76241900659E+03  0.76241900659E+03  0.25500000000E-02 0.  1.
         -2   -1    0    0    0  501 -0.00000000000E+00 -0.00000000000E+00 -0.20059914496E+03  0.20059914498E+03  0.25500000000E-02 0. -1.
    5000001    1    1    2    0    0 -0.12165623211E+03 -0.29857944303E+03  0.40021762056E+03  0.55111257146E+03  0.19900000000E+03 0.  0.
   -5000001    1    1    2    0    0  0.12165623211E+03  0.29857944303E+03  0.16160224106E+03  0.41190558011E+03  0.19900000000E+03 0.  0.
<mgrwt>
<rscale>  0 0.78215242E+03</rscale>
<asrwt>0</asrwt>
<pdfrwt beam="1">  1        2 0.10891700E+00 0.78215242E+03</pdfrwt>
<pdfrwt beam="2">  1       -2 0.28657020E-01 0.78215242E+03</pdfrwt>
<totfact> 0.45269221E+02</totfact>
</mgrwt>
</event>
<event>
 4    1  0.1724904E-005  0.5947645E+03  0.7818608E-02  0.9916328E-01
         -2   -1    0    0    0  501 -0.00000000000E+00  0.00000000000E+00  0.13713998183E+03  0.13713998186E+03  0.25500000000E-02 0.  1.
          2   -1    0    0  501    0  0.00000000000E+00 -0.00000000000E+00 -0.64486072962E+03  0.64486072963E+03  0.25500000000E-02 0. -1.
    5000001    1    1    2    0    0  0.65660145593E+02  0.20822952332E+03 -0.20899480514E+03  0.36187099591E+03  0.19900000000E+03 0.  0.
   -5000001    1    1    2    0    0 -0.65660145593E+02 -0.20822952332E+03 -0.29872594265E+03  0.42012971558E+03  0.19900000000E+03 0.  0.
<mgrwt>
<rscale>  0 0.59476445E+03</rscale>
<asrwt>0</asrwt>
<pdfrwt beam="1">  1        2 0.92122960E-01 0.59476445E+03</pdfrwt>
<pdfrwt beam="2">  1       -2 0.19591426E-01 0.59476445E+03</pdfrwt>
<totfact> 0.11028510E+03</totfact>
</mgrwt>
</event>
<event>
 4    1  0.1724904E-005  0.6078253E+03  0.7818608E-02  0.9889303E-01
         -2   -1    0    0    0  501 -0.00000000000E+00  0.00000000000E+00  0.15707943995E+03  0.15707943997E+03  0.25500000000E-02 0. -1.
          2   -1    0    0  501    0  0.00000000000E+00 -0.00000000000E+00 -0.58800111277E+03  0.58800111278E+03  0.25500000000E-02 0.  1.
    5000001    1    1    2    0    0  0.15854906558E+03  0.16098698412E+03 -0.16481128288E+03  0.34324681239E+03  0.19900000000E+03 0.  0.
   -5000001    1    1    2    0    0 -0.15854906558E+03 -0.16098698412E+03 -0.26611038995E+03  0.40183374035E+03  0.19900000000E+03 0.  0.
<mgrwt>
<rscale>  0 0.60782526E+03</rscale>
<asrwt>0</asrwt>
<pdfrwt beam="1">  1        2 0.84000158E-01 0.60782526E+03</pdfrwt>
<pdfrwt beam="2">  1       -2 0.22439920E-01 0.60782526E+03</pdfrwt>
<totfact> 0.96954085E+02</totfact>
</mgrwt>
</event>
<event>
 4    1  0.1724904E-005  0.1062168E+04  0.7818608E-02  0.9242871E-01
         -2   -1    0    0    0  501 -0.00000000000E+00  0.00000000000E+00  0.11087131817E+03  0.11087131820E+03  0.25500000000E-02 0. -1.
          2   -1    0    0  501    0  0.00000000000E+00 -0.00000000000E+00 -0.25439423552E+04  0.25439423552E+04  0.25500000000E-02 0.  1.
    5000001    1    1    2    0    0  0.17985783841E+03 -0.44525667338E+03 -0.94448905626E+03  0.10780829860E+04  0.19900000000E+03 0.  0.
   -5000001    1    1    2    0    0 -0.17985783841E+03  0.44525667338E+03 -0.14885819807E+04  0.15767306874E+04  0.19900000000E+03 0.  0.
<mgrwt>
<rscale>  0 0.10621681E+04</rscale>
<asrwt>0</asrwt>
<pdfrwt beam="1">  1        2 0.36342030E+00 0.10621681E+04</pdfrwt>
<pdfrwt beam="2">  1       -2 0.15838761E-01 0.10621681E+04</pdfrwt>
<totfact> 0.13419799E+02</totfact>
</mgrwt>
</event>
<event>
 4    1  0.1724904E-005  0.4118340E+03  0.7818608E-02  0.1039757E+00
         -2   -1    0    0    0  501 -0.00000000000E+00  0.00000000000E+00  0.30114659856E+02  0.30114659964E+02  0.25500000000E-02 0. -1.
          2   -1    0    0  501    0  0.00000000000E+00 -0.00000000000E+00 -0.14080120246E+04  0.14080120246E+04  0.25500000000E-02 0.  1.
    5000001    1    1    2    0    0  0.51583363391E+02 -0.16691913987E+01 -0.72984746744E+03  0.75824926990E+03  0.19900000000E+03 0.  0.
   -5000001    1    1    2    0    0 -0.51583363391E+02  0.16691913987E+01 -0.64804989735E+03  0.67987741471E+03  0.19900000000E+03 0.  0.
<mgrwt>
<rscale>  0 0.41183396E+03</rscale>
<asrwt>0</asrwt>
<pdfrwt beam="1">  1        2 0.20114453E+00 0.41183396E+03</pdfrwt>
<pdfrwt beam="2">  1       -2 0.43020952E-02 0.41183396E+03</pdfrwt>
<totfact> 0.42947715E+03</totfact>
</mgrwt>
</event>
<event>
 4    1  0.1724904E-005  0.1318880E+04  0.7818608E-02  0.9014726E-01
         -2   -1    0    0    0  501 -0.00000000000E+00  0.00000000000E+00  0.14964291173E+03  0.14964291175E+03  0.25500000000E-02 0. -1.
          2   -1    0    0  501    0  0.00000000000E+00 -0.00000000000E+00 -0.29059909444E+04  0.29059909444E+04  0.25500000000E-02 0.  1.
    5000001    1    1    2    0    0  0.23722723882E+03 -0.57630654292E+03 -0.11863660465E+04  0.13547957006E+04  0.19900000000E+03 0.  0.
   -5000001    1    1    2    0    0 -0.23722723882E+03  0.57630654292E+03 -0.15699819862E+04  0.17008381555E+04  0.19900000000E+03 0.  0.
<mgrwt>
<rscale>  0 0.13188797E+04</rscale>
<asrwt>0</asrwt>
<pdfrwt beam="1">  1        2 0.41514153E+00 0.13188797E+04</pdfrwt>
<pdfrwt beam="2">  1       -2 0.21377561E-01 0.13188797E+04</pdfrwt>
<totfact> 0.49878062E+01</totfact>
</mgrwt>
</event>
<event>
 4    1  0.1724904E-005  0.5626068E+03  0.7818608E-02  0.9986173E-01
          2   -1    0    0  501    0  0.00000000000E+00  0.00000000000E+00  0.28069382877E+03  0.28069382879E+03  0.25500000000E-02 0.  1.
         -2   -1    0    0    0  501 -0.00000000000E+00 -0.00000000000E+00 -0.28191434386E+03  0.28191434387E+03  0.25500000000E-02 0. -1.
    5000001    1    1    2    0    0 -0.19404330761E+03  0.22441896950E+02  0.36459663839E+02  0.28122366731E+03  0.19900000000E+03 0.  0.
   -5000001    1    1    2    0    0  0.19404330761E+03 -0.22441896950E+02 -0.37680178922E+02  0.28138450535E+03  0.19900000000E+03 0.  0.
<mgrwt>
<rscale>  0 0.56260685E+03</rscale>
<asrwt>0</asrwt>
<pdfrwt beam="1">  1        2 0.40099118E-01 0.56260685E+03</pdfrwt>
<pdfrwt beam="2">  1       -2 0.40273478E-01 0.56260685E+03</pdfrwt>
<totfact> 0.75318515E+02</totfact>
</mgrwt>
</event>
<event>
 4    1  0.1724904E-005  0.4957100E+03  0.7818608E-02  0.1014905E+00
          2   -1    0    0  501    0  0.00000000000E+00  0.00000000000E+00  0.41111297113E+03  0.41111297113E+03  0.25500000000E-02 0.  1.
         -2   -1    0    0    0  501 -0.00000000000E+00 -0.00000000000E+00 -0.14942873273E+03  0.14942873275E+03  0.25500000000E-02 0. -1.
    5000001    1    1    2    0    0 -0.89825488508E+02  0.10601481870E+03  0.18764460258E+03  0.30678861948E+03  0.19900000000E+03 0.  0.
   -5000001    1    1    2    0    0  0.89825488508E+02 -0.10601481870E+03  0.74039635822E+02  0.25375308440E+03  0.19900000000E+03 0.  0.
<mgrwt>
<rscale>  0 0.49570996E+03</rscale>
<asrwt>0</asrwt>
<pdfrwt beam="1">  1        2 0.58730425E-01 0.49570996E+03</pdfrwt>
<pdfrwt beam="2">  1       -2 0.21346962E-01 0.49570996E+03</pdfrwt>
<totfact> 0.15893265E+03</totfact>
</mgrwt>
</event>
<event>
 4    1  0.1724904E-005  0.4458315E+03  0.7818608E-02  0.1028972E+00
         -2   -1    0    0    0  501 -0.00000000000E+00  0.00000000000E+00  0.43348101121E+02  0.43348101196E+02  0.25500000000E-02 0. -1.
          2   -1    0    0  501    0  0.00000000000E+00 -0.00000000000E+00 -0.11463346049E+04  0.11463346049E+04  0.25500000000E-02 0.  1.
    5000001    1    1    2    0    0  0.47156635338E+02 -0.81208148019E+02 -0.45632550793E+03  0.50660880446E+03  0.19900000000E+03 0.  0.
   -5000001    1    1    2    0    0 -0.47156635338E+02  0.81208148019E+02 -0.64666099587E+03  0.68307390167E+03  0.19900000000E+03 0.  0.
<mgrwt>
<rscale>  0 0.44583149E+03</rscale>
<asrwt>0</asrwt>
<pdfrwt beam="1">  1        2 0.16376207E+00 0.44583149E+03</pdfrwt>
<pdfrwt beam="2">  1       -2 0.61925866E-02 0.44583149E+03</pdfrwt>
<totfact> 0.33953184E+03</totfact>
</mgrwt>
</event>
<event>
 4    1  0.1724904E-005  0.5512555E+03  0.7818608E-02  0.1001204E+00
         -2   -1    0    0    0  501 -0.00000000000E+00  0.00000000000E+00  0.25503422451E+02  0.25503422579E+02  0.25500000000E-02 0. -1.
          2   -1    0    0  501    0  0.00000000000E+00 -0.00000000000E+00 -0.29788415143E+04  0.29788415143E+04  0.25500000000E-02 0.  1.
    5000001    1    1    2    0    0 -0.78254162014E+02  0.52470365672E+02 -0.23803317476E+04  0.23904930625E+04  0.19900000000E+03 0.  0.
   -5000001    1    1    2    0    0  0.78254162014E+02 -0.52470365672E+02 -0.57300634419E+03  0.61385187434E+03  0.19900000000E+03 0.  0.
<mgrwt>
<rscale>  0 0.55125549E+03</rscale>
<asrwt>0</asrwt>
<pdfrwt beam="1">  1        2 0.42554857E+00 0.55125549E+03</pdfrwt>
<pdfrwt beam="2">  1       -2 0.36433479E-02 0.55125549E+03</pdfrwt>
<totfact> 0.86942003E+02</totfact>
</mgrwt>
</event>
<event>
 4    1  0.1724904E-005  0.5471936E+03  0.7818608E-02  0.1002146E+00
         -2   -1    0    0    0  501 -0.00000000000E+00  0.00000000000E+00  0.60603776783E+03  0.60603776784E+03  0.25500000000E-02 0. -1.
          2   -1    0    0  501    0  0.00000000000E+00 -0.00000000000E+00 -0.12351573453E+03  0.12351573456E+03  0.25500000000E-02 0.  1.
    5000001    1    1    2    0    0 -0.48128307776E+02  0.17359039987E+03  0.31186410282E+03  0.41147318208E+03  0.19900000000E+03 0.  0.
   -5000001    1    1    2    0    0  0.48128307776E+02 -0.17359039987E+03  0.17065793048E+03  0.31808032032E+03  0.19900000000E+03 0.  0.
<mgrwt>
<rscale>  0 0.54719357E+03</rscale>
<asrwt>0</asrwt>
<pdfrwt beam="1">  1        2 0.17645105E-01 0.54719357E+03</pdfrwt>
<pdfrwt beam="2">  1       -2 0.86576825E-01 0.54719357E+03</pdfrwt>
<totfact> 0.38480702E+02</totfact>
</mgrwt>
</event>
<event>
 4    1  0.1724904E-005  0.6026040E+03  0.7818608E-02  0.9900018E-01
          2   -1    0    0  501    0  0.00000000000E+00  0.00000000000E+00  0.32822676754E+04  0.32822676754E+04  0.25500000000E-02 0. -1.
         -2   -1    0    0    0  501 -0.00000000000E+00 -0.00000000000E+00 -0.27658586243E+02  0.27658586360E+02  0.25500000000E-02 0.  1.
    5000001    1    1    2    0    0 -0.10100727265E+03 -0.13767952687E+03  0.81216475362E+03  0.85344637106E+03  0.19900000000E+03 0.  0.
   -5000001    1    1    2    0    0  0.10100727265E+03  0.13767952687E+03  0.24424443355E+04  0.24564798907E+04  0.19900000000E+03 0.  0.
<mgrwt>
<rscale>  0 0.60260396E+03</rscale>
<asrwt>0</asrwt>
<pdfrwt beam="1">  1        2 0.46889520E+00 0.60260396E+03</pdfrwt>
<pdfrwt beam="2">  1       -2 0.39512281E-02 0.60260396E+03</pdfrwt>
<totfact> 0.51839946E+02</totfact>
</mgrwt>
</event>
<event>
 4    1  0.1724904E-005  0.6560226E+03  0.7818608E-02  0.9795543E-01
         -2   -1    0    0    0  501 -0.00000000000E+00  0.00000000000E+00  0.19384091405E+03  0.19384091406E+03  0.25500000000E-02 0. -1.
          2   -1    0    0  501    0  0.00000000000E+00 -0.00000000000E+00 -0.55505001369E+03  0.55505001369E+03  0.25500000000E-02 0.  1.
    5000001    1    1    2    0    0  0.14880151884E+03 -0.20108436226E+03 -0.26459742362E+03  0.41495735847E+03  0.19900000000E+03 0.  0.
   -5000001    1    1    2    0    0 -0.14880151884E+03  0.20108436226E+03 -0.96611676018E+02  0.33393356929E+03  0.19900000000E+03 0.  0.
<mgrwt>
<rscale>  0 0.65602257E+03</rscale>
<asrwt>0</asrwt>
<pdfrwt beam="1">  1        2 0.79292859E-01 0.65602257E+03</pdfrwt>
<pdfrwt beam="2">  1       -2 0.27691559E-01 0.65602257E+03</pdfrwt>
<totfact> 0.71008416E+02</totfact>
</mgrwt>
</event>
<event>
 4    1  0.1724904E-005  0.4776963E+03  0.7818608E-02  0.1019770E+00
         -2   -1    0    0    0  501 -0.00000000000E+00  0.00000000000E+00  0.17370813568E+03  0.17370813570E+03  0.25500000000E-02 0. -1.
          2   -1    0    0  501    0  0.00000000000E+00 -0.00000000000E+00 -0.32841548635E+03  0.32841548636E+03  0.25500000000E-02 0.  1.
    5000001    1    1    2    0    0  0.12460038421E+03 -0.17182904454E+01 -0.31304412422E+02  0.23687375225E+03  0.19900000000E+03 0.  0.
   -5000001    1    1    2    0    0 -0.12460038421E+03  0.17182904454E+01 -0.12340293825E+03  0.26524986981E+03  0.19900000000E+03 0.  0.
<mgrwt>
<rscale>  0 0.47769631E+03</rscale>
<asrwt>0</asrwt>
<pdfrwt beam="1">  1        2 0.46916498E-01 0.47769631E+03</pdfrwt>
<pdfrwt beam="2">  1       -2 0.24815448E-01 0.47769631E+03</pdfrwt>
<totfact> 0.15593857E+03</totfact>
</mgrwt>
</event>
<event>
 4    1  0.1724904E-005  0.6686497E+03  0.7818608E-02  0.9772400E-01
          2   -1    0    0  501    0  0.00000000000E+00  0.00000000000E+00  0.11410852197E+04  0.11410852197E+04  0.25500000000E-02 0.  1.
         -2   -1    0    0    0  501 -0.00000000000E+00 -0.00000000000E+00 -0.97953350416E+02  0.97953350449E+02  0.25500000000E-02 0. -1.
    5000001    1    1    2    0    0  0.18515523203E+03 -0.10906304597E+03  0.22280051981E+03  0.36799222760E+03  0.19900000000E+03 0.  0.
   -5000001    1    1    2    0    0 -0.18515523203E+03  0.10906304597E+03  0.82033134950E+03  0.87104634258E+03  0.19900000000E+03 0.  0.
<mgrwt>
<rscale>  0 0.66864975E+03</rscale>
<asrwt>0</asrwt>
<pdfrwt beam="1">  1        2 0.16301217E+00 0.66864975E+03</pdfrwt>
<pdfrwt beam="2">  1       -2 0.13993336E-01 0.66864975E+03</pdfrwt>
<totfact> 0.91614577E+02</totfact>
</mgrwt>
</event>
<event>
 4    1  0.1724904E-005  0.1101347E+04  0.7818608E-02  0.9203880E-01
          2   -1    0    0  501    0  0.00000000000E+00  0.00000000000E+00  0.61986202563E+03  0.61986202564E+03  0.25500000000E-02 0.  1.
         -2   -1    0    0    0  501 -0.00000000000E+00 -0.00000000000E+00 -0.48920802197E+03  0.48920802197E+03  0.25500000000E-02 0. -1.
    5000001    1    1    2    0    0 -0.17937834247E+03 -0.40217969871E+03 -0.20056113837E+03  0.52321206984E+03  0.19900000000E+03 0.  0.
   -5000001    1    1    2    0    0  0.17937834247E+03  0.40217969871E+03  0.33121514204E+03  0.58585797777E+03  0.19900000000E+03 0.  0.
<mgrwt>
<rscale>  0 0.11013473E+04</rscale>
<asrwt>0</asrwt>
<pdfrwt beam="1">  1        2 0.88551718E-01 0.11013473E+04</pdfrwt>
<pdfrwt beam="2">  1       -2 0.69886860E-01 0.11013473E+04</pdfrwt>
<totfact> 0.96762234E+01</totfact>
</mgrwt>
</event>
<event>
 4    1  0.1724904E-005  0.5054627E+03  0.7818608E-02  0.1012363E+00
          2   -1    0    0  501    0  0.00000000000E+00  0.00000000000E+00  0.22782734382E+04  0.22782734382E+04  0.25500000000E-02 0.  1.
         -2   -1    0    0    0  501 -0.00000000000E+00 -0.00000000000E+00 -0.28035766052E+02  0.28035766168E+02  0.25500000000E-02 0. -1.
    5000001    1    1    2    0    0  0.72938134020E+02 -0.10114157082E+03  0.15512567694E+04  0.15689321698E+04  0.19900000000E+03 0.  0.
   -5000001    1    1    2    0    0 -0.72938134020E+02  0.10114157082E+03  0.69898090275E+03  0.73737703460E+03  0.19900000000E+03 0.  0.
<mgrwt>
<rscale>  0 0.50546272E+03</rscale>
<asrwt>0</asrwt>
<pdfrwt beam="1">  1        2 0.32546768E+00 0.50546272E+03</pdfrwt>
<pdfrwt beam="2">  1       -2 0.40051089E-02 0.50546272E+03</pdfrwt>
<totfact> 0.17427818E+03</totfact>
</mgrwt>
</event>
<event>
 4    1  0.1724904E-005  0.5320186E+03  0.7818608E-02  0.1005744E+00
          2   -1    0    0  501    0  0.00000000000E+00  0.00000000000E+00  0.42780387769E+03  0.42780387769E+03  0.25500000000E-02 0.  1.
         -2   -1    0    0    0  501 -0.00000000000E+00 -0.00000000000E+00 -0.16540511207E+03  0.16540511209E+03  0.25500000000E-02 0. -1.
    5000001    1    1    2    0    0  0.14312345950E+03  0.67524296326E+02  0.21839967682E+03  0.33517648201E+03  0.19900000000E+03 0.  0.
   -5000001    1    1    2    0    0 -0.14312345950E+03 -0.67524296326E+02  0.43999088798E+02  0.25803250777E+03  0.19900000000E+03 0.  0.
<mgrwt>
<rscale>  0 0.53201860E+03</rscale>
<asrwt>0</asrwt>
<pdfrwt beam="1">  1        2 0.61114840E-01 0.53201860E+03</pdfrwt>
<pdfrwt beam="2">  1       -2 0.23629302E-01 0.53201860E+03</pdfrwt>
<totfact> 0.12714953E+03</totfact>
</mgrwt>
</event>
<event>
 4    1  0.1724904E-005  0.5127136E+03  0.7818608E-02  0.1010513E+00
         -2   -1    0    0    0  501 -0.00000000000E+00  0.00000000000E+00  0.93116144015E+02  0.93116144050E+02  0.25500000000E-02 0.  1.
          2   -1    0    0  501    0  0.00000000000E+00 -0.00000000000E+00 -0.70577237709E+03  0.70577237709E+03  0.25500000000E-02 0. -1.
    5000001    1    1    2    0    0  0.14908887945E+03 -0.60959689654E+02 -0.28576134697E+03  0.38367189780E+03  0.19900000000E+03 0.  0.
   -5000001    1    1    2    0    0 -0.14908887945E+03  0.60959689654E+02 -0.32689488610E+03  0.41521662334E+03  0.19900000000E+03 0.  0.
<mgrwt>
<rscale>  0 0.51271357E+03</rscale>
<asrwt>0</asrwt>
<pdfrwt beam="1">  1        2 0.10082462E+00 0.51271357E+03</pdfrwt>
<pdfrwt beam="2">  1       -2 0.13302307E-01 0.51271357E+03</pdfrwt>
<totfact> 0.19069447E+03</totfact>
</mgrwt>
</event>
<event>
 4    1  0.1724904E-005  0.7041602E+03  0.7818608E-02  0.9710144E-01
         -2   -1    0    0    0  501 -0.00000000000E+00  0.00000000000E+00  0.40906128866E+02  0.40906128945E+02  0.25500000000E-02 0. -1.
          2   -1    0    0  501    0  0.00000000000E+00 -0.00000000000E+00 -0.30303623216E+04  0.30303623216E+04  0.25500000000E-02 0.  1.
    5000001    1    1    2    0    0 -0.10896771650E+03 -0.26373311441E+03 -0.12586257268E+04  0.13058211359E+04  0.19900000000E+03 0.  0.
   -5000001    1    1    2    0    0  0.10896771650E+03  0.26373311441E+03 -0.17308304660E+04  0.17654473147E+04  0.19900000000E+03 0.  0.
<mgrwt>
<rscale>  0 0.70416019E+03</rscale>
<asrwt>0</asrwt>
<pdfrwt beam="1">  1        2 0.43290876E+00 0.70416019E+03</pdfrwt>
<pdfrwt beam="2">  1       -2 0.58437346E-02 0.70416019E+03</pdfrwt>
<totfact> 0.38661168E+02</totfact>
</mgrwt>
</event>
<event>
 4    1  0.1724904E-005  0.5363131E+03  0.7818608E-02  0.1004712E+00
         -2   -1    0    0    0  501 -0.00000000000E+00  0.00000000000E+00  0.22124120423E+03  0.22124120424E+03  0.25500000000E-02 0. -1.
          2   -1    0    0  501    0  0.00000000000E+00 -0.00000000000E+00 -0.32502055195E+03  0.32502055196E+03  0.25500000000E-02 0.  1.
    5000001    1    1    2    0    0  0.98268204318E+02  0.13058820132E+03  0.24311350987E+02  0.25865413217E+03  0.19900000000E+03 0.  0.
   -5000001    1    1    2    0    0 -0.98268204318E+02 -0.13058820132E+03 -0.12809069872E+03  0.28760762403E+03  0.19900000000E+03 0.  0.
<mgrwt>
<rscale>  0 0.53631311E+03</rscale>
<asrwt>0</asrwt>
<pdfrwt beam="1">  1        2 0.46431508E-01 0.53631311E+03</pdfrwt>
<pdfrwt beam="2">  1       -2 0.31605886E-01 0.53631311E+03</pdfrwt>
<totfact> 0.10155882E+03</totfact>
</mgrwt>
</event>
<event>
 4    1  0.1724904E-005  0.9158846E+03  0.7818608E-02  0.9405940E-01
         -2   -1    0    0    0  501 -0.00000000000E+00  0.00000000000E+00  0.19798899449E+03  0.19798899450E+03  0.25500000000E-02 0. -1.
          2   -1    0    0  501    0  0.00000000000E+00 -0.00000000000E+00 -0.10592060780E+04  0.10592060780E+04  0.25500000000E-02 0.  1.
    5000001    1    1    2    0    0 -0.17584388983E+02  0.40569514871E+03 -0.52970999713E+03  0.69648506480E+03  0.19900000000E+03 0.  0.
   -5000001    1    1    2    0    0  0.17584388983E+02 -0.40569514871E+03 -0.33150708639E+03  0.56071000772E+03  0.19900000000E+03 0.  0.
<mgrwt>
<rscale>  0 0.91588459E+03</rscale>
<asrwt>0</asrwt>
<pdfrwt beam="1">  1        2 0.15131515E+00 0.91588459E+03</pdfrwt>
<pdfrwt beam="2">  1       -2 0.28284143E-01 0.91588459E+03</pdfrwt>
<totfact> 0.29528413E+02</totfact>
</mgrwt>
</event>
<event>
 4    1  0.1724904E-005  0.6583917E+03  0.7818608E-02  0.9791159E-01
          2   -1    0    0  501    0  0.00000000000E+00  0.00000000000E+00  0.29522948482E+04  0.29522948482E+04  0.25500000000E-02 0.  1.
         -2   -1    0    0    0  501 -0.00000000000E+00 -0.00000000000E+00 -0.36707004413E+02  0.36707004501E+02  0.25500000000E-02 0. -1.
    5000001    1    1    2    0    0 -0.16992997284E+03 -0.67761094088E+02  0.23107687375E+04  0.23265255038E+04  0.19900000000E+03 0.  0.
   -5000001    1    1    2    0    0  0.16992997284E+03  0.67761094088E+02  0.60481910624E+03  0.66247634888E+03  0.19900000000E+03 0.  0.
<mgrwt>
<rscale>  0 0.65839168E+03</rscale>
<asrwt>0</asrwt>
<pdfrwt beam="1">  1        2 0.42175656E+00 0.65839168E+03</pdfrwt>
<pdfrwt beam="2">  1       -2 0.52438559E-02 0.65839168E+03</pdfrwt>
<totfact> 0.50735490E+02</totfact>
</mgrwt>
</event>
<event>
 4    1  0.1724904E-005  0.7369453E+03  0.7818608E-02  0.9656057E-01
         -2   -1    0    0    0  501 -0.00000000000E+00  0.00000000000E+00  0.49869968156E+03  0.49869968157E+03  0.25500000000E-02 0. -1.
          2   -1    0    0  501    0  0.00000000000E+00 -0.00000000000E+00 -0.27225224178E+03  0.27225224179E+03  0.25500000000E-02 0.  1.
    5000001    1    1    2    0    0  0.25944392531E+02 -0.25398838726E+03 -0.70933204484E+02  0.33138456794E+03  0.19900000000E+03 0.  0.
   -5000001    1    1    2    0    0 -0.25944392531E+02  0.25398838726E+03  0.29738064427E+03  0.43956735542E+03  0.19900000000E+03 0.  0.
<mgrwt>
<rscale>  0 0.73694533E+03</rscale>
<asrwt>0</asrwt>
<pdfrwt beam="1">  1        2 0.38893177E-01 0.73694533E+03</pdfrwt>
<pdfrwt beam="2">  1       -2 0.71242812E-01 0.73694533E+03</pdfrwt>
<totfact> 0.23978561E+02</totfact>
</mgrwt>
</event>
<event>
 4    1  0.1724904E-005  0.7231611E+03  0.7818608E-02  0.9678423E-01
         -2   -1    0    0    0  501 -0.00000000000E+00  0.00000000000E+00  0.20826625285E+03  0.20826625286E+03  0.25500000000E-02 0. -1.
          2   -1    0    0  501    0  0.00000000000E+00 -0.00000000000E+00 -0.62775658067E+03  0.62775658068E+03  0.25500000000E-02 0.  1.
    5000001    1    1    2    0    0 -0.20709502318E+02 -0.17663095521E+03  0.72278670317E+02  0.27650060399E+03  0.19900000000E+03 0.  0.
   -5000001    1    1    2    0    0  0.20709502318E+02  0.17663095521E+03 -0.49176899814E+03  0.55952222955E+03  0.19900000000E+03 0.  0.
<mgrwt>
<rscale>  0 0.72316115E+03</rscale>
<asrwt>0</asrwt>
<pdfrwt beam="1">  1        2 0.89679511E-01 0.72316115E+03</pdfrwt>
<pdfrwt beam="2">  1       -2 0.29752322E-01 0.72316115E+03</pdfrwt>
<totfact> 0.53741155E+02</totfact>
</mgrwt>
</event>
<event>
 4    1  0.1724904E-005  0.4857712E+03  0.7818608E-02  0.1017561E+00
         -2   -1    0    0    0  501 -0.00000000000E+00  0.00000000000E+00  0.42712506156E+02  0.42712506232E+02  0.25500000000E-02 0. -1.
          2   -1    0    0  501    0  0.00000000000E+00 -0.00000000000E+00 -0.13811743536E+04  0.13811743536E+04  0.25500000000E-02 0.  1.
    5000001    1    1    2    0    0 -0.12296269442E+03 -0.52403367762E+02 -0.55470879745E+03  0.60429197177E+03  0.19900000000E+03 0.  0.
   -5000001    1    1    2    0    0  0.12296269442E+03  0.52403367762E+02 -0.78375304998E+03  0.81959488806E+03  0.19900000000E+03 0.  0.
<mgrwt>
<rscale>  0 0.48577121E+03</rscale>
<asrwt>0</asrwt>
<pdfrwt beam="1">  1        2 0.19731060E+00 0.48577121E+03</pdfrwt>
<pdfrwt beam="2">  1       -2 0.61017874E-02 0.48577121E+03</pdfrwt>
<totfact> 0.25873630E+03</totfact>
</mgrwt>
</event>
<event>
 4    1  0.1724904E-005  0.6297577E+03  0.7818608E-02  0.9845522E-01
         -2   -1    0    0    0  501 -0.00000000000E+00  0.00000000000E+00  0.28827945730E+02  0.28827945843E+02  0.25500000000E-02 0. -1.
          2   -1    0    0  501    0  0.00000000000E+00 -0.00000000000E+00 -0.34393257000E+04  0.34393257000E+04  0.25500000000E-02 0.  1.
    5000001    1    1    2    0    0 -0.22705979364E+03 -0.89360456888E+02 -0.17190207407E+04  0.17476197378E+04  0.19900000000E+03 0.  0.
   -5000001    1    1    2    0    0  0.22705979364E+03  0.89360456888E+02 -0.16914770136E+04  0.17205339080E+04  0.19900000000E+03 0.  0.
<mgrwt>
<rscale>  0 0.62975771E+03</rscale>
<asrwt>0</asrwt>
<pdfrwt beam="1">  1        2 0.49133198E+00 0.62975771E+03</pdfrwt>
<pdfrwt beam="2">  1       -2 0.41182801E-02 0.62975771E+03</pdfrwt>
<totfact> 0.39343882E+02</totfact>
</mgrwt>
</event>
<event>
 4    1  0.1724904E-005  0.6721274E+03  0.7818608E-02  0.9766122E-01
          2   -1    0    0  501    0  0.00000000000E+00  0.00000000000E+00  0.20190480471E+04  0.20190480471E+04  0.25500000000E-02 0.  1.
         -2   -1    0    0    0  501 -0.00000000000E+00 -0.00000000000E+00 -0.55936659239E+02  0.55936659297E+02  0.25500000000E-02 0. -1.
    5000001    1    1    2    0    0  0.23025259932E+03 -0.13774939994E+03  0.86826609621E+03  0.93031079243E+03  0.19900000000E+03 0.  0.
   -5000001    1    1    2    0    0 -0.23025259932E+03  0.13774939994E+03  0.10948452917E+04  0.11446739140E+04  0.19900000000E+03 0.  0.
<mgrwt>
<rscale>  0 0.67212738E+03</rscale>
<asrwt>0</asrwt>
<pdfrwt beam="1">  1        2 0.28843547E+00 0.67212738E+03</pdfrwt>
<pdfrwt beam="2">  1       -2 0.79909503E-02 0.67212738E+03</pdfrwt>
<totfact> 0.79242872E+02</totfact>
</mgrwt>
</event>
<event>
 4    1  0.1724904E-005  0.5130608E+03  0.7818608E-02  0.1010425E+00
         -2   -1    0    0    0  501 -0.00000000000E+00  0.00000000000E+00  0.44942234243E+02  0.44942234315E+02  0.25500000000E-02 0. -1.
          2   -1    0    0  501    0  0.00000000000E+00 -0.00000000000E+00 -0.14642760180E+04  0.14642760180E+04  0.25500000000E-02 0.  1.
    5000001    1    1    2    0    0 -0.81560086414E+02  0.99419359310E+02 -0.42039283208E+03  0.48256335332E+03  0.19900000000E+03 0.  0.
   -5000001    1    1    2    0    0  0.81560086414E+02 -0.99419359310E+02 -0.99894095167E+03  0.10266548990E+04  0.19900000000E+03 0.  0.
<mgrwt>
<rscale>  0 0.51306076E+03</rscale>
<asrwt>0</asrwt>
<pdfrwt beam="1">  1        2 0.20918226E+00 0.51306076E+03</pdfrwt>
<pdfrwt beam="2">  1       -2 0.64203201E-02 0.51306076E+03</pdfrwt>
<totfact> 0.21601197E+03</totfact>
</mgrwt>
</event>
<event>
 4    1  0.1724904E-005  0.4776126E+03  0.7818608E-02  0.1019793E+00
         -2   -1    0    0    0  501 -0.00000000000E+00  0.00000000000E+00  0.19478994607E+03  0.19478994608E+03  0.25500000000E-02 0. -1.
          2   -1    0    0  501    0  0.00000000000E+00 -0.00000000000E+00 -0.29276899839E+03  0.29276899840E+03  0.25500000000E-02 0.  1.
    5000001    1    1    2    0    0  0.86303052696E+02 -0.42827611880E+02  0.43139786045E+02  0.22526531554E+03  0.19900000000E+03 0.  0.
   -5000001    1    1    2    0    0 -0.86303052696E+02  0.42827611880E+02 -0.14111883837E+03  0.26229362895E+03  0.19900000000E+03 0.  0.
<mgrwt>
<rscale>  0 0.47761264E+03</rscale>
<asrwt>0</asrwt>
<pdfrwt beam="1">  1        2 0.41824143E-01 0.47761264E+03</pdfrwt>
<pdfrwt beam="2">  1       -2 0.27827135E-01 0.47761264E+03</pdfrwt>
<totfact> 0.14390723E+03</totfact>
</mgrwt>
</event>
<event>
 4    1  0.1724904E-005  0.9976200E+03  0.7818608E-02  0.9311159E-01
          2   -1    0    0  501    0  0.00000000000E+00  0.00000000000E+00  0.83978431973E+03  0.83978431973E+03  0.25500000000E-02 0.  1.
         -2   -1    0    0    0  501 -0.00000000000E+00 -0.00000000000E+00 -0.29628015802E+03  0.29628015803E+03  0.25500000000E-02 0. -1.
    5000001    1    1    2    0    0 -0.45673643225E+03  0.24494903004E+02  0.27003931627E+03  0.56721283585E+03  0.19900000000E+03 0.  0.
   -5000001    1    1    2    0    0  0.45673643225E+03 -0.24494903004E+02  0.27346484544E+03  0.56885164192E+03  0.19900000000E+03 0.  0.
<mgrwt>
<rscale>  0 0.99762003E+03</rscale>
<asrwt>0</asrwt>
<pdfrwt beam="1">  1        2 0.11996919E+00 0.99762003E+03</pdfrwt>
<pdfrwt beam="2">  1       -2 0.42325737E-01 0.99762003E+03</pdfrwt>
<totfact> 0.18824476E+02</totfact>
</mgrwt>
</event>
<event>
 4    1  0.1724904E-005  0.5145679E+03  0.7818608E-02  0.1010045E+00
          2   -1    0    0  501    0  0.00000000000E+00  0.00000000000E+00  0.33230819376E+03  0.33230819377E+03  0.25500000000E-02 0.  1.
         -2   -1    0    0    0  501 -0.00000000000E+00 -0.00000000000E+00 -0.19919767195E+03  0.19919767197E+03  0.25500000000E-02 0. -1.
    5000001    1    1    2    0    0  0.14819596766E+03 -0.57143123571E+02  0.28370328487E+02  0.25618988454E+03  0.19900000000E+03 0.  0.
   -5000001    1    1    2    0    0 -0.14819596766E+03  0.57143123571E+02  0.10474019333E+03  0.27531598119E+03  0.19900000000E+03 0.  0.
<mgrwt>
<rscale>  0 0.51456785E+03</rscale>
<asrwt>0</asrwt>
<pdfrwt beam="1">  1        2 0.47472599E-01 0.51456785E+03</pdfrwt>
<pdfrwt beam="2">  1       -2 0.28456810E-01 0.51456785E+03</pdfrwt>
<totfact> 0.12025767E+03</totfact>
</mgrwt>
</event>
<event>
 4    1  0.1724904E-005  0.5675134E+03  0.7818608E-02  0.9975196E-01
         -2   -1    0    0    0  501 -0.00000000000E+00  0.00000000000E+00  0.50275320337E+02  0.50275320402E+02  0.25500000000E-02 0. -1.
          2   -1    0    0  501    0  0.00000000000E+00 -0.00000000000E+00 -0.16015386180E+04  0.16015386180E+04  0.25500000000E-02 0.  1.
    5000001    1    1    2    0    0 -0.61725061272E+02  0.18867654414E+03 -0.66260203645E+03  0.71975779274E+03  0.19900000000E+03 0.  0.
   -5000001    1    1    2    0    0  0.61725061272E+02 -0.18867654414E+03 -0.88866126124E+03  0.93205614569E+03  0.19900000000E+03 0.  0.
<mgrwt>
<rscale>  0 0.56751341E+03</rscale>
<asrwt>0</asrwt>
<pdfrwt beam="1">  1        2 0.22879120E+00 0.56751341E+03</pdfrwt>
<pdfrwt beam="2">  1       -2 0.71821896E-02 0.56751341E+03</pdfrwt>
<totfact> 0.15354190E+03</totfact>
</mgrwt>
</event>
<event>
 4    1  0.1724904E-005  0.8562888E+03  0.7818608E-02  0.9481935E-01
          2   -1    0    0  501    0  0.00000000000E+00  0.00000000000E+00  0.13334216644E+03  0.13334216646E+03  0.25500000000E-02 0.  1.
         -2   -1    0    0    0  501 -0.00000000000E+00 -0.00000000000E+00 -0.13747161205E+04  0.13747161205E+04  0.25500000000E-02 0. -1.
    5000001    1    1    2    0    0  0.15370527576E+03 -0.25676301958E+03 -0.21084786722E+03  0.41666579309E+03  0.19900000000E+03 0.  0.
   -5000001    1    1    2    0    0 -0.15370527576E+03  0.25676301958E+03 -0.10305260869E+04  0.10913924939E+04  0.19900000000E+03 0.  0.
<mgrwt>
<rscale>  0 0.85628880E+03</rscale>
<asrwt>0</asrwt>
<pdfrwt beam="1">  1        2 0.19048882E-01 0.85628880E+03</pdfrwt>
<pdfrwt beam="2">  1       -2 0.19638801E+00 0.85628880E+03</pdfrwt>
<totfact> 0.42725709E+01</totfact>
</mgrwt>
</event>
<event>
 4    1  0.1724904E-005  0.9229038E+03  0.7818608E-02  0.9397395E-01
         -2   -1    0    0    0  501 -0.00000000000E+00  0.00000000000E+00  0.87995100082E+02  0.87995100119E+02  0.25500000000E-02 0. -1.
          2   -1    0    0  501    0  0.00000000000E+00 -0.00000000000E+00 -0.24198831408E+04  0.24198831408E+04  0.25500000000E-02 0.  1.
    5000001    1    1    2    0    0 -0.24500361636E+03 -0.33404634465E+03 -0.12787438982E+04  0.13588232738E+04  0.19900000000E+03 0.  0.
   -5000001    1    1    2    0    0  0.24500361636E+03  0.33404634465E+03 -0.10531441426E+04  0.11490549671E+04  0.19900000000E+03 0.  0.
<mgrwt>
<rscale>  0 0.92290381E+03</rscale>
<asrwt>0</asrwt>
<pdfrwt beam="1">  1        2 0.34569755E+00 0.92290381E+03</pdfrwt>
<pdfrwt beam="2">  1       -2 0.12570730E-01 0.92290381E+03</pdfrwt>
<totfact> 0.23248663E+02</totfact>
</mgrwt>
</event>
<event>
 4    1  0.1724904E-005  0.5972467E+03  0.7818608E-02  0.9911135E-01
          2   -1    0    0  501    0  0.00000000000E+00  0.00000000000E+00  0.20675753320E+04  0.20675753320E+04  0.25500000000E-02 0.  1.
         -2   -1    0    0    0  501 -0.00000000000E+00 -0.00000000000E+00 -0.43130667581E+02  0.43130667656E+02  0.25500000000E-02 0. -1.
    5000001    1    1    2    0    0  0.16609980339E+03  0.14722959931E+03  0.95007863040E+03  0.99574901634E+03  0.19900000000E+03 0.  0.
   -5000001    1    1    2    0    0 -0.16609980339E+03 -0.14722959931E+03  0.10743660341E+04  0.11149569834E+04  0.19900000000E+03 0.  0.
<mgrwt>
<rscale>  0 0.59724670E+03</rscale>
<asrwt>0</asrwt>
<pdfrwt beam="1">  1        2 0.29536791E+00 0.59724670E+03</pdfrwt>
<pdfrwt beam="2">  1       -2 0.61615237E-02 0.59724670E+03</pdfrwt>
<totfact> 0.11353440E+03</totfact>
</mgrwt>
</event>
<event>
 4    1  0.1724904E-005  0.5010069E+03  0.7818608E-02  0.1013516E+00
          2   -1    0    0  501    0  0.00000000000E+00  0.00000000000E+00  0.89272009555E+03  0.89272009555E+03  0.25500000000E-02 0.  1.
         -2   -1    0    0    0  501 -0.00000000000E+00 -0.00000000000E+00 -0.70293009412E+02  0.70293009459E+02  0.25500000000E-02 0. -1.
    5000001    1    1    2    0    0  0.12355286720E+03  0.23683252428E+01  0.24058436501E+03  0.33578677259E+03  0.19900000000E+03 0.  0.
   -5000001    1    1    2    0    0 -0.12355286720E+03 -0.23683252428E+01  0.58184272113E+03  0.62722633242E+03  0.19900000000E+03 0.  0.
<mgrwt>
<rscale>  0 0.50100691E+03</rscale>
<asrwt>0</asrwt>
<pdfrwt beam="1">  1        2 0.12753144E+00 0.50100691E+03</pdfrwt>
<pdfrwt beam="2">  1       -2 0.10041858E-01 0.50100691E+03</pdfrwt>
<totfact> 0.22415437E+03</totfact>
</mgrwt>
</event>
<event>
 4    1  0.1724904E-005  0.5789800E+03  0.7818608E-02  0.9950002E-01
         -2   -1    0    0    0  501 -0.00000000000E+00  0.00000000000E+00  0.25412314025E+02  0.25412314153E+02  0.25500000000E-02 0. -1.
          2   -1    0    0  501    0  0.00000000000E+00 -0.00000000000E+00 -0.32977894523E+04  0.32977894523E+04  0.25500000000E-02 0.  1.
    5000001    1    1    2    0    0  0.62399019700E+02 -0.16560868727E+03 -0.22876842368E+04  0.23031326585E+04  0.19900000000E+03 0.  0.
   -5000001    1    1    2    0    0 -0.62399019700E+02  0.16560868727E+03 -0.98469290144E+03  0.10200691080E+04  0.19900000000E+03 0.  0.
<mgrwt>
<rscale>  0 0.57898000E+03</rscale>
<asrwt>0</asrwt>
<pdfrwt beam="1">  1        2 0.47111250E+00 0.57898000E+03</pdfrwt>
<pdfrwt beam="2">  1       -2 0.36303327E-02 0.57898000E+03</pdfrwt>
<totfact> 0.57984267E+02</totfact>
</mgrwt>
</event>
<event>
 4    1  0.1724904E-005  0.6392427E+03  0.7818608E-02  0.9827177E-01
         -2   -1    0    0    0  501 -0.00000000000E+00  0.00000000000E+00  0.66276100450E+02  0.66276100499E+02  0.25500000000E-02 0. -1.
          2   -1    0    0  501    0  0.00000000000E+00 -0.00000000000E+00 -0.15413973860E+04  0.15413973860E+04  0.25500000000E-02 0.  1.
    5000001    1    1    2    0    0  0.22857618424E+03  0.89323729468E+02 -0.85898446382E+03  0.91524920635E+03  0.19900000000E+03 0.  0.
   -5000001    1    1    2    0    0 -0.22857618424E+03 -0.89323729468E+02 -0.61613682176E+03  0.69242428018E+03  0.19900000000E+03 0.  0.
<mgrwt>
<rscale>  0 0.63924270E+03</rscale>
<asrwt>0</asrwt>
<pdfrwt beam="1">  1        2 0.22019960E+00 0.63924270E+03</pdfrwt>
<pdfrwt beam="2">  1       -2 0.94680153E-02 0.63924270E+03</pdfrwt>
<totfact> 0.10575811E+03</totfact>
</mgrwt>
</event>
<event>
 4    1  0.1724904E-005  0.4508456E+03  0.7818608E-02  0.1027470E+00
         -2   -1    0    0    0  501 -0.00000000000E+00  0.00000000000E+00  0.32462572724E+02  0.32462572825E+02  0.25500000000E-02 0. -1.
          2   -1    0    0  501    0  0.00000000000E+00 -0.00000000000E+00 -0.15653546653E+04  0.15653546653E+04  0.25500000000E-02 0.  1.
    5000001    1    1    2    0    0 -0.26732645238E+02 -0.82307051040E+02 -0.98275927573E+03  0.10064322526E+04  0.19900000000E+03 0.  0.
   -5000001    1    1    2    0    0  0.26732645238E+02  0.82307051040E+02 -0.55013281680E+03  0.59138498552E+03  0.19900000000E+03 0.  0.
<mgrwt>
<rscale>  0 0.45084560E+03</rscale>
<asrwt>0</asrwt>
<pdfrwt beam="1">  1        2 0.22362205E+00 0.45084560E+03</pdfrwt>
<pdfrwt beam="2">  1       -2 0.46375114E-02 0.45084560E+03</pdfrwt>
<totfact> 0.31753827E+03</totfact>
</mgrwt>
</event>
<event>
 4    1  0.1724904E-005  0.7568211E+03  0.7818608E-02  0.9624709E-01
         -2   -1    0    0    0  501 -0.00000000000E+00  0.00000000000E+00  0.87857706509E+02  0.87857706546E+02  0.25500000000E-02 0. -1.
          2   -1    0    0  501    0  0.00000000000E+00 -0.00000000000E+00 -0.16298461502E+04  0.16298461502E+04  0.25500000000E-02 0.  1.
    5000001    1    1    2    0    0  0.31988935802E+03 -0.11874253308E+02 -0.69492451699E+03  0.79056390227E+03  0.19900000000E+03 0.  0.
   -5000001    1    1    2    0    0 -0.31988935802E+03  0.11874253308E+02 -0.84706392669E+03  0.92713995446E+03  0.19900000000E+03 0.  0.
<mgrwt>
<rscale>  0 0.75682110E+03</rscale>
<asrwt>0</asrwt>
<pdfrwt beam="1">  1        2 0.23283515E+00 0.75682110E+03</pdfrwt>
<pdfrwt beam="2">  1       -2 0.12551102E-01 0.75682110E+03</pdfrwt>
<totfact> 0.59652459E+02</totfact>
</mgrwt>
</event>
<event>
 4    1  0.1724904E-005  0.6977573E+03  0.7818608E-02  0.9721075E-01
         -2   -1    0    0    0  501 -0.00000000000E+00  0.00000000000E+00  0.20305436816E+03  0.20305436817E+03  0.25500000000E-02 0. -1.
          2   -1    0    0  501    0  0.00000000000E+00 -0.00000000000E+00 -0.59942714097E+03  0.59942714098E+03  0.25500000000E-02 0.  1.
    5000001    1    1    2    0    0  0.20578286825E+03  0.12562269753E+03 -0.37631123396E+03  0.48922264441E+03  0.19900000000E+03 0.  0.
   -5000001    1    1    2    0    0 -0.20578286825E+03 -0.12562269753E+03 -0.20061538853E+02  0.31325886474E+03  0.19900000000E+03 0.  0.
<mgrwt>
<rscale>  0 0.69775726E+03</rscale>
<asrwt>0</asrwt>
<pdfrwt beam="1">  1        2 0.85632448E-01 0.69775726E+03</pdfrwt>
<pdfrwt beam="2">  1       -2 0.29007767E-01 0.69775726E+03</pdfrwt>
<totfact> 0.59533974E+02</totfact>
</mgrwt>
</event>
<event>
 4    1  0.1724904E-005  0.5119508E+03  0.7818608E-02  0.1010706E+00
         -2   -1    0    0    0  501 -0.00000000000E+00  0.00000000000E+00  0.14917875708E+03  0.14917875711E+03  0.25500000000E-02 0. -1.
          2   -1    0    0  501    0  0.00000000000E+00 -0.00000000000E+00 -0.43922748061E+03  0.43922748061E+03  0.25500000000E-02 0.  1.
    5000001    1    1    2    0    0  0.13996287766E+02 -0.14830120354E+03 -0.74799073514E+02  0.25958629479E+03  0.19900000000E+03 0.  0.
   -5000001    1    1    2    0    0 -0.13996287766E+02  0.14830120354E+03 -0.21524965001E+03  0.32881994293E+03  0.19900000000E+03 0.  0.
<mgrwt>
<rscale>  0 0.51195082E+03</rscale>
<asrwt>0</asrwt>
<pdfrwt beam="1">  1        2 0.62746782E-01 0.51195082E+03</pdfrwt>
<pdfrwt beam="2">  1       -2 0.21311251E-01 0.51195082E+03</pdfrwt>
<totfact> 0.14812518E+03</totfact>
</mgrwt>
</event>
<event>
 4    1  0.1724904E-005  0.1271690E+04  0.7818608E-02  0.9052321E-01
          2   -1    0    0  501    0  0.00000000000E+00  0.00000000000E+00  0.12319819004E+04  0.12319819004E+04  0.25500000000E-02 0.  1.
         -2   -1    0    0    0  501 -0.00000000000E+00 -0.00000000000E+00 -0.32816954806E+03  0.32816954807E+03  0.25500000000E-02 0. -1.
    5000001    1    1    2    0    0  0.21537210417E+03  0.37454445913E+03 -0.65737769487E+02  0.48019907274E+03  0.19900000000E+03 0.  0.
   -5000001    1    1    2    0    0 -0.21537210417E+03 -0.37454445913E+03  0.96955012180E+03  0.10799523757E+04  0.19900000000E+03 0.  0.
<mgrwt>
<rscale>  0 0.12716901E+04</rscale>
<asrwt>0</asrwt>
<pdfrwt beam="1">  1        2 0.17599741E+00 0.12716901E+04</pdfrwt>
<pdfrwt beam="2">  1       -2 0.46881364E-01 0.12716901E+04</pdfrwt>
<totfact> 0.86815194E+01</totfact>
</mgrwt>
</event>
<event>
 4    1  0.1724904E-005  0.5309292E+03  0.7818608E-02  0.1006007E+00
         -2   -1    0    0    0  501 -0.00000000000E+00  0.00000000000E+00  0.18472306621E+03  0.18472306623E+03  0.25500000000E-02 0. -1.
          2   -1    0    0  501    0  0.00000000000E+00 -0.00000000000E+00 -0.38149785641E+03  0.38149785642E+03  0.25500000000E-02 0.  1.
    5000001    1    1    2    0    0 -0.12382072396E+03 -0.54005861229E+02  0.21429393383E+02  0.24147137228E+03  0.19900000000E+03 0.  0.
   -5000001    1    1    2    0    0  0.12382072396E+03  0.54005861229E+02 -0.21820418359E+03  0.32474955037E+03  0.19900000000E+03 0.  0.
<mgrwt>
<rscale>  0 0.53092920E+03</rscale>
<asrwt>0</asrwt>
<pdfrwt beam="1">  1        2 0.54499694E-01 0.53092920E+03</pdfrwt>
<pdfrwt beam="2">  1       -2 0.26389009E-01 0.53092920E+03</pdfrwt>
<totfact> 0.11845636E+03</totfact>
</mgrwt>
</event>
<event>
 4    1  0.1724904E-005  0.8632567E+03  0.7818608E-02  0.9472715E-01
         -2   -1    0    0    0  501 -0.00000000000E+00  0.00000000000E+00  0.48607717020E+02  0.48607717087E+02  0.25500000000E-02 0. -1.
          2   -1    0    0  501    0  0.00000000000E+00 -0.00000000000E+00 -0.38327872193E+04  0.38327872193E+04  0.25500000000E-02 0.  1.
    5000001    1    1    2    0    0  0.37731222427E+03 -0.48556623688E+02 -0.16920317414E+04  0.17456502153E+04  0.19900000000E+03 0.  0.
   -5000001    1    1    2    0    0 -0.37731222427E+03  0.48556623688E+02 -0.20921477609E+04  0.21357447211E+04  0.19900000000E+03 0.  0.
<mgrwt>
<rscale>  0 0.86325671E+03</rscale>
<asrwt>0</asrwt>
<pdfrwt beam="1">  1        2 0.54754084E+00 0.86325671E+03</pdfrwt>
<pdfrwt beam="2">  1       -2 0.69439620E-02 0.86325671E+03</pdfrwt>
<totfact> 0.96798521E+01</totfact>
</mgrwt>
</event>
<event>
 4    1  0.1724904E-005  0.4763833E+03  0.7818608E-02  0.1020134E+00
         -2   -1    0    0    0  501 -0.00000000000E+00  0.00000000000E+00  0.11694029485E+03  0.11694029488E+03  0.25500000000E-02 0. -1.
          2   -1    0    0  501    0  0.00000000000E+00 -0.00000000000E+00 -0.48516439643E+03  0.48516439644E+03  0.25500000000E-02 0.  1.
    5000001    1    1    2    0    0  0.11766053951E+03 -0.36844967649E+02 -0.12854732335E+03  0.26707109267E+03  0.19900000000E+03 0.  0.
   -5000001    1    1    2    0    0 -0.11766053951E+03  0.36844967649E+02 -0.23967677823E+03  0.33503359865E+03  0.19900000000E+03 0.  0.
<mgrwt>
<rscale>  0 0.47638332E+03</rscale>
<asrwt>0</asrwt>
<pdfrwt beam="1">  1        2 0.69309199E-01 0.47638332E+03</pdfrwt>
<pdfrwt beam="2">  1       -2 0.16705757E-01 0.47638332E+03</pdfrwt>
<totfact> 0.20146524E+03</totfact>
</mgrwt>
</event>
<event>
 4    1  0.1724904E-005  0.5040082E+03  0.7818608E-02  0.1012738E+00
          2   -1    0    0  501    0  0.00000000000E+00  0.00000000000E+00  0.15285927928E+04  0.15285927928E+04  0.25500000000E-02 0.  1.
         -2   -1    0    0    0  501 -0.00000000000E+00 -0.00000000000E+00 -0.41545446818E+02  0.41545446896E+02  0.25500000000E-02 0. -1.
    5000001    1    1    2    0    0 -0.55806244174E+01  0.15085586438E+03  0.84761560852E+03  0.88365256464E+03  0.19900000000E+03 0.  0.
   -5000001    1    1    2    0    0  0.55806244174E+01 -0.15085586438E+03  0.63943173747E+03  0.68648567507E+03  0.19900000000E+03 0.  0.
<mgrwt>
<rscale>  0 0.50400822E+03</rscale>
<asrwt>0</asrwt>
<pdfrwt beam="1">  1        2 0.21837038E+00 0.50400822E+03</pdfrwt>
<pdfrwt beam="2">  1       -2 0.59350644E-02 0.50400822E+03</pdfrwt>
<totfact> 0.22623267E+03</totfact>
</mgrwt>
</event>
<event>
 4    1  0.1724904E-005  0.4330958E+03  0.7818608E-02  0.1032886E+00
          2   -1    0    0  501    0  0.00000000000E+00  0.00000000000E+00  0.10071384533E+03  0.10071384536E+03  0.25500000000E-02 0.  1.
         -2   -1    0    0    0  501 -0.00000000000E+00 -0.00000000000E+00 -0.46560631696E+03  0.46560631697E+03  0.25500000000E-02 0. -1.
    5000001    1    1    2    0    0  0.23802817935E+01  0.83422548816E+02 -0.20609246983E+03  0.29839586712E+03  0.19900000000E+03 0.  0.
   -5000001    1    1    2    0    0 -0.23802817935E+01 -0.83422548816E+02 -0.15880000180E+03  0.26792429521E+03  0.19900000000E+03 0.  0.
<mgrwt>
<rscale>  0 0.43309584E+03</rscale>
<asrwt>0</asrwt>
<pdfrwt beam="1">  1        2 0.14387692E-01 0.43309584E+03</pdfrwt>
<pdfrwt beam="2">  1       -2 0.66515187E-01 0.43309584E+03</pdfrwt>
<totfact> 0.87881102E+02</totfact>
</mgrwt>
</event>
<event>
 4    1  0.1724904E-005  0.4711123E+03  0.7818608E-02  0.1021607E+00
         -2   -1    0    0    0  501 -0.00000000000E+00  0.00000000000E+00  0.43960200175E+02  0.43960200249E+02  0.25500000000E-02 0. -1.
          2   -1    0    0  501    0  0.00000000000E+00 -0.00000000000E+00 -0.12622033046E+04  0.12622033046E+04  0.25500000000E-02 0.  1.
    5000001    1    1    2    0    0 -0.12557806616E+03 -0.94518617149E+01 -0.59484337256E+03  0.63976466475E+03  0.19900000000E+03 0.  0.
   -5000001    1    1    2    0    0  0.12557806616E+03  0.94518617149E+01 -0.62339973187E+03  0.66639884010E+03  0.19900000000E+03 0.  0.
<mgrwt>
<rscale>  0 0.47111234E+03</rscale>
<asrwt>0</asrwt>
<pdfrwt beam="1">  1        2 0.18031473E+00 0.47111234E+03</pdfrwt>
<pdfrwt beam="2">  1       -2 0.62800294E-02 0.47111234E+03</pdfrwt>
<totfact> 0.28655251E+03</totfact>
</mgrwt>
</event>
<event>
 4    1  0.1724904E-005  0.4670446E+03  0.7818608E-02  0.1022758E+00
         -2   -1    0    0    0  501 -0.00000000000E+00  0.00000000000E+00  0.17630981278E+03  0.17630981280E+03  0.25500000000E-02 0. -1.
          2   -1    0    0  501    0  0.00000000000E+00 -0.00000000000E+00 -0.30930020939E+03  0.30930020940E+03  0.25500000000E-02 0.  1.
    5000001    1    1    2    0    0 -0.98493888818E+02  0.14058329372E+02 -0.14025875799E+03  0.26300608729E+03  0.19900000000E+03 0.  0.
   -5000001    1    1    2    0    0  0.98493888818E+02 -0.14058329372E+02  0.72683613796E+01  0.22260393491E+03  0.19900000000E+03 0.  0.
<mgrwt>
<rscale>  0 0.46704459E+03</rscale>
<asrwt>0</asrwt>
<pdfrwt beam="1">  1        2 0.44185744E-01 0.46704459E+03</pdfrwt>
<pdfrwt beam="2">  1       -2 0.25187116E-01 0.46704459E+03</pdfrwt>
<totfact> 0.16213812E+03</totfact>
</mgrwt>
</event>
<event>
 4    1  0.1724904E-005  0.5022905E+03  0.7818608E-02  0.1013183E+00
          2   -1    0    0  501    0  0.00000000000E+00  0.00000000000E+00  0.32038755394E+03  0.32038755395E+03  0.25500000000E-02 0.  1.
         -2   -1    0    0    0  501 -0.00000000000E+00 -0.00000000000E+00 -0.19686763502E+03  0.19686763503E+03  0.25500000000E-02 0. -1.
    5000001    1    1    2    0    0 -0.11362256508E+03 -0.10255201597E+03  0.68739552180E+02  0.26029431286E+03  0.19900000000E+03 0.  0.
   -5000001    1    1    2    0    0  0.11362256508E+03  0.10255201597E+03  0.54780366746E+02  0.25696087612E+03  0.19900000000E+03 0.  0.
<mgrwt>
<rscale>  0 0.50229051E+03</rscale>
<asrwt>0</asrwt>
<pdfrwt beam="1">  1        2 0.45769651E-01 0.50229051E+03</pdfrwt>
<pdfrwt beam="2">  1       -2 0.28123948E-01 0.50229051E+03</pdfrwt>
<totfact> 0.12789247E+03</totfact>
</mgrwt>
</event>
<event>
 4    1  0.1724904E-005  0.1084594E+04  0.7818608E-02  0.9220339E-01
         -2   -1    0    0    0  501 -0.00000000000E+00  0.00000000000E+00  0.30204950502E+03  0.30204950503E+03  0.25500000000E-02 0.  1.
          2   -1    0    0  501    0  0.00000000000E+00 -0.00000000000E+00 -0.97363560849E+03  0.97363560849E+03  0.25500000000E-02 0. -1.
    5000001    1    1    2    0    0  0.40993002866E+03 -0.22314067395E+03 -0.56096678302E+03  0.75638556333E+03  0.19900000000E+03 0.  0.
   -5000001    1    1    2    0    0 -0.40993002866E+03  0.22314067395E+03 -0.11061932045E+03  0.51929955019E+03  0.19900000000E+03 0.  0.
<mgrwt>
<rscale>  0 0.10845942E+04</rscale>
<asrwt>0</asrwt>
<pdfrwt beam="1">  1        2 0.13909080E+00 0.10845942E+04</pdfrwt>
<pdfrwt beam="2">  1       -2 0.43149930E-01 0.10845942E+04</pdfrwt>
<totfact> 0.14747502E+02</totfact>
</mgrwt>
</event>
<event>
 4    1  0.1724904E-005  0.5034973E+03  0.7818608E-02  0.1012870E+00
          2   -1    0    0  501    0  0.00000000000E+00  0.00000000000E+00  0.17516548473E+04  0.17516548473E+04  0.25500000000E-02 0.  1.
         -2   -1    0    0    0  501 -0.00000000000E+00 -0.00000000000E+00 -0.36181435629E+02  0.36181435719E+02  0.25500000000E-02 0. -1.
    5000001    1    1    2    0    0  0.87585766896E+02 -0.11424685506E+03  0.66154614576E+03  0.70566841606E+03  0.19900000000E+03 0.  0.
   -5000001    1    1    2    0    0 -0.87585766896E+02  0.11424685506E+03  0.10539272659E+04  0.10821678669E+04  0.19900000000E+03 0.  0.
<mgrwt>
<rscale>  0 0.50349732E+03</rscale>
<asrwt>0</asrwt>
<pdfrwt beam="1">  1        2 0.25023644E+00 0.50349732E+03</pdfrwt>
<pdfrwt beam="2">  1       -2 0.51687758E-02 0.50349732E+03</pdfrwt>
<totfact> 0.21593836E+03</totfact>
</mgrwt>
</event>
<event>
 4    1  0.1724904E-005  0.5074588E+03  0.7818608E-02  0.1011850E+00
          2   -1    0    0  501    0  0.00000000000E+00  0.00000000000E+00  0.87840926463E+03  0.87840926463E+03  0.25500000000E-02 0.  1.
         -2   -1    0    0    0  501 -0.00000000000E+00 -0.00000000000E+00 -0.73289983978E+02  0.73289984023E+02  0.25500000000E-02 0. -1.
    5000001    1    1    2    0    0 -0.65510492580E+02  0.13213368092E+03  0.50573625199E+03  0.56313505560E+03  0.19900000000E+03 0.  0.
   -5000001    1    1    2    0    0  0.65510492580E+02 -0.13213368092E+03  0.29938302867E+03  0.38856419306E+03  0.19900000000E+03 0.  0.
<mgrwt>
<rscale>  0 0.50745877E+03</rscale>
<asrwt>0</asrwt>
<pdfrwt beam="1">  1        2 0.12548704E+00 0.50745877E+03</pdfrwt>
<pdfrwt beam="2">  1       -2 0.10469998E-01 0.50745877E+03</pdfrwt>
<totfact> 0.21403160E+03</totfact>
</mgrwt>
</event>
<event>
 4    1  0.1724904E-005  0.5894817E+03  0.7818608E-02  0.9927472E-01
          2   -1    0    0  501    0  0.00000000000E+00  0.00000000000E+00  0.14965203310E+04  0.14965203310E+04  0.25500000000E-02 0.  1.
         -2   -1    0    0    0  501 -0.00000000000E+00 -0.00000000000E+00 -0.58049448914E+02  0.58049448970E+02  0.25500000000E-02 0. -1.
    5000001    1    1    2    0    0 -0.18682929437E+02 -0.17810693130E+03  0.10443694270E+04  0.10781371113E+04  0.19900000000E+03 0.  0.
   -5000001    1    1    2    0    0  0.18682929437E+02  0.17810693130E+03  0.39410145510E+03  0.47643266863E+03  0.19900000000E+03 0.  0.
<mgrwt>
<rscale>  0 0.58948174E+03</rscale>
<asrwt>0</asrwt>
<pdfrwt beam="1">  1        2 0.21378860E+00 0.58948174E+03</pdfrwt>
<pdfrwt beam="2">  1       -2 0.82927792E-02 0.58948174E+03</pdfrwt>
<totfact> 0.13834124E+03</totfact>
</mgrwt>
</event>
<event>
 4    1  0.1724904E-005  0.7615901E+03  0.7818608E-02  0.9617341E-01
          2   -1    0    0  501    0  0.00000000000E+00  0.00000000000E+00  0.26860367930E+03  0.26860367932E+03  0.25500000000E-02 0.  1.
         -2   -1    0    0    0  501 -0.00000000000E+00 -0.00000000000E+00 -0.53984694135E+03  0.53984694135E+03  0.25500000000E-02 0. -1.
    5000001    1    1    2    0    0  0.32397411610E+03  0.19469782325E+02 -0.12702557317E+03  0.40134124702E+03  0.19900000000E+03 0.  0.
   -5000001    1    1    2    0    0 -0.32397411610E+03 -0.19469782325E+02 -0.14421768888E+03  0.40710937365E+03  0.19900000000E+03 0.  0.
<mgrwt>
<rscale>  0 0.76159011E+03</rscale>
<asrwt>0</asrwt>
<pdfrwt beam="1">  1        2 0.38371954E-01 0.76159011E+03</pdfrwt>
<pdfrwt beam="2">  1       -2 0.77120991E-01 0.76159011E+03</pdfrwt>
<totfact> 0.20415379E+02</totfact>
</mgrwt>
</event>
<event>
 4    1  0.1724904E-005  0.4861840E+03  0.7818608E-02  0.1017449E+00
         -2   -1    0    0    0  501 -0.00000000000E+00  0.00000000000E+00  0.53886252887E+02  0.53886252948E+02  0.25500000000E-02 0. -1.
          2   -1    0    0  501    0  0.00000000000E+00 -0.00000000000E+00 -0.10966381178E+04  0.10966381178E+04  0.25500000000E-02 0.  1.
    5000001    1    1    2    0    0  0.92977166314E+02  0.10059941110E+03 -0.58521382155E+03  0.63312021916E+03  0.19900000000E+03 0.  0.
   -5000001    1    1    2    0    0 -0.92977166314E+02 -0.10059941110E+03 -0.45753804341E+03  0.51740415164E+03  0.19900000000E+03 0.  0.
<mgrwt>
<rscale>  0 0.48618399E+03</rscale>
<asrwt>0</asrwt>
<pdfrwt beam="1">  1        2 0.15666257E+00 0.48618399E+03</pdfrwt>
<pdfrwt beam="2">  1       -2 0.76980368E-02 0.48618399E+03</pdfrwt>
<totfact> 0.25762355E+03</totfact>
</mgrwt>
</event>
<event>
 4    1  0.1724904E-005  0.6610522E+03  0.7818608E-02  0.9786259E-01
         -2   -1    0    0    0  501 -0.00000000000E+00  0.00000000000E+00  0.60675082225E+03  0.60675082225E+03  0.25500000000E-02 0. -1.
          2   -1    0    0  501    0  0.00000000000E+00 -0.00000000000E+00 -0.18005332319E+03  0.18005332321E+03  0.25500000000E-02 0.  1.
    5000001    1    1    2    0    0 -0.23007239680E+03 -0.90493783860E+02  0.32323778717E+03  0.45299679882E+03  0.19900000000E+03 0.  0.
   -5000001    1    1    2    0    0  0.23007239680E+03  0.90493783860E+02  0.10345971189E+03  0.33380734664E+03  0.19900000000E+03 0.  0.
<mgrwt>
<rscale>  0 0.66105220E+03</rscale>
<asrwt>0</asrwt>
<pdfrwt beam="1">  1        2 0.25721903E-01 0.66105220E+03</pdfrwt>
<pdfrwt beam="2">  1       -2 0.86678689E-01 0.66105220E+03</pdfrwt>
<totfact> 0.24689617E+02</totfact>
</mgrwt>
</event>
<event>
 4    1  0.1724904E-005  0.6899323E+03  0.7818608E-02  0.9734606E-01
         -2   -1    0    0    0  501 -0.00000000000E+00  0.00000000000E+00  0.13643245119E+03  0.13643245121E+03  0.25500000000E-02 0. -1.
          2   -1    0    0  501    0  0.00000000000E+00 -0.00000000000E+00 -0.87223866881E+03  0.87223866882E+03  0.25500000000E-02 0.  1.
    5000001    1    1    2    0    0  0.16535043891E+03  0.16076511250E+03 -0.60461148558E+03  0.67700977655E+03  0.19900000000E+03 0.  0.
   -5000001    1    1    2    0    0 -0.16535043891E+03 -0.16076511250E+03 -0.13119473204E+03  0.33166134348E+03  0.19900000000E+03 0.  0.
<mgrwt>
<rscale>  0 0.68993234E+03</rscale>
<asrwt>0</asrwt>
<pdfrwt beam="1">  1        2 0.12460552E+00 0.68993234E+03</pdfrwt>
<pdfrwt beam="2">  1       -2 0.19490351E-01 0.68993234E+03</pdfrwt>
<totfact> 0.76004552E+02</totfact>
</mgrwt>
</event>
<event>
 4    1  0.1724904E-005  0.5291264E+03  0.7818608E-02  0.1006444E+00
         -2   -1    0    0    0  501 -0.00000000000E+00  0.00000000000E+00  0.43567457588E+02  0.43567457663E+02  0.25500000000E-02 0. -1.
          2   -1    0    0  501    0  0.00000000000E+00 -0.00000000000E+00 -0.16065585979E+04  0.16065585979E+04  0.25500000000E-02 0.  1.
    5000001    1    1    2    0    0 -0.14737836362E+02 -0.12884229937E+03 -0.41814172693E+03  0.48089608620E+03  0.19900000000E+03 0.  0.
   -5000001    1    1    2    0    0  0.14737836362E+02  0.12884229937E+03 -0.11448494134E+04  0.11692299694E+04  0.19900000000E+03 0.  0.
<mgrwt>
<rscale>  0 0.52912635E+03</rscale>
<asrwt>0</asrwt>
<pdfrwt beam="1">  1        2 0.22950833E+00 0.52912635E+03</pdfrwt>
<pdfrwt beam="2">  1       -2 0.62239235E-02 0.52912635E+03</pdfrwt>
<totfact> 0.19143503E+03</totfact>
</mgrwt>
</event>
<event>
 4    1  0.1724904E-005  0.8896081E+03  0.7818608E-02  0.9438666E-01
         -2   -1    0    0    0  501 -0.00000000000E+00  0.00000000000E+00  0.91433365261E+02  0.91433365297E+02  0.25500000000E-02 0. -1.
          2   -1    0    0  501    0  0.00000000000E+00 -0.00000000000E+00 -0.21638778007E+04  0.21638778007E+04  0.25500000000E-02 0.  1.
    5000001    1    1    2    0    0  0.26030395750E+03  0.26315227350E+03 -0.14057177053E+04  0.14671913768E+04  0.19900000000E+03 0.  0.
   -5000001    1    1    2    0    0 -0.26030395750E+03 -0.26315227350E+03 -0.66672673012E+03  0.78811978912E+03  0.19900000000E+03 0.  0.
<mgrwt>
<rscale>  0 0.88960807E+03</rscale>
<asrwt>0</asrwt>
<pdfrwt beam="1">  1        2 0.30912537E+00 0.88960807E+03</pdfrwt>
<pdfrwt beam="2">  1       -2 0.13061911E-01 0.88960807E+03</pdfrwt>
<totfact> 0.29574805E+02</totfact>
</mgrwt>
</event>
<event>
 4    1  0.1724904E-005  0.4448886E+03  0.7818608E-02  0.1029257E+00
          2   -1    0    0  501    0  0.00000000000E+00  0.00000000000E+00  0.11547979903E+04  0.11547979903E+04  0.25500000000E-02 0.  1.
         -2   -1    0    0    0  501 -0.00000000000E+00 -0.00000000000E+00 -0.42848593106E+02  0.42848593182E+02  0.25500000000E-02 0. -1.
    5000001    1    1    2    0    0 -0.91241001146E+02 -0.52203657824E+00  0.44980974176E+03  0.50025493161E+03  0.19900000000E+03 0.  0.
   -5000001    1    1    2    0    0  0.91241001146E+02  0.52203657824E+00  0.66213965540E+03  0.69739165185E+03  0.19900000000E+03 0.  0.
<mgrwt>
<rscale>  0 0.44488861E+03</rscale>
<asrwt>0</asrwt>
<pdfrwt beam="1">  1        2 0.16497115E+00 0.44488861E+03</pdfrwt>
<pdfrwt beam="2">  1       -2 0.61212274E-02 0.44488861E+03</pdfrwt>
<totfact> 0.34193508E+03</totfact>
</mgrwt>
</event>
<event>
 4    1  0.1724904E-005  0.6861358E+03  0.7818608E-02  0.9741240E-01
          2   -1    0    0  501    0  0.00000000000E+00  0.00000000000E+00  0.40586715652E+04  0.40586715652E+04  0.25500000000E-02 0.  1.
         -2   -1    0    0    0  501 -0.00000000000E+00 -0.00000000000E+00 -0.28998549193E+02  0.28998549305E+02  0.25500000000E-02 0. -1.
    5000001    1    1    2    0    0 -0.14760472127E+03 -0.16454372132E+03  0.30334301048E+04  0.30479765403E+04  0.19900000000E+03 0.  0.
   -5000001    1    1    2    0    0  0.14760472127E+03  0.16454372132E+03  0.99624291127E+03  0.10396935742E+04  0.19900000000E+03 0.  0.
<mgrwt>
<rscale>  0 0.68613581E+03</rscale>
<asrwt>0</asrwt>
<pdfrwt beam="1">  1        2 0.57980963E+00 0.68613581E+03</pdfrwt>
<pdfrwt beam="2">  1       -2 0.41426541E-02 0.68613581E+03</pdfrwt>
<totfact> 0.15757848E+02</totfact>
</mgrwt>
</event>
<event>
 4    1  0.1724904E-005  0.4632921E+03  0.7818608E-02  0.1023831E+00
         -2   -1    0    0    0  501 -0.00000000000E+00  0.00000000000E+00  0.25021307655E+02  0.25021307785E+02  0.25500000000E-02 0. -1.
          2   -1    0    0  501    0  0.00000000000E+00 -0.00000000000E+00 -0.21445681978E+04  0.21445681978E+04  0.25500000000E-02 0.  1.
    5000001    1    1    2    0    0 -0.92030643883E+02  0.75668268953E+01 -0.14080818115E+04  0.14250692209E+04  0.19900000000E+03 0.  0.
   -5000001    1    1    2    0    0  0.92030643883E+02 -0.75668268953E+01 -0.71146507866E+03  0.74452028477E+03  0.19900000000E+03 0.  0.
<mgrwt>
<rscale>  0 0.46329214E+03</rscale>
<asrwt>0</asrwt>
<pdfrwt beam="1">  1        2 0.30636677E+00 0.46329214E+03</pdfrwt>
<pdfrwt beam="2">  1       -2 0.35744739E-02 0.46329214E+03</pdfrwt>
<totfact> 0.24231731E+03</totfact>
</mgrwt>
</event>
<event>
 4    1  0.1724904E-005  0.7804117E+03  0.7818608E-02  0.9588811E-01
         -2   -1    0    0    0  501 -0.00000000000E+00  0.00000000000E+00  0.41169233420E+03  0.41169233421E+03  0.25500000000E-02 0. -1.
          2   -1    0    0  501    0  0.00000000000E+00 -0.00000000000E+00 -0.36984071561E+03  0.36984071561E+03  0.25500000000E-02 0.  1.
    5000001    1    1    2    0    0  0.26416766479E+03  0.27276177064E+02 -0.18462760982E+03  0.37975900156E+03  0.19900000000E+03 0.  0.
   -5000001    1    1    2    0    0 -0.26416766479E+03 -0.27276177064E+02  0.22647922842E+03  0.40177404827E+03  0.19900000000E+03 0.  0.
<mgrwt>
<rscale>  0 0.78041165E+03</rscale>
<asrwt>0</asrwt>
<pdfrwt beam="1">  1        2 0.52834388E-01 0.78041165E+03</pdfrwt>
<pdfrwt beam="2">  1       -2 0.58813190E-01 0.78041165E+03</pdfrwt>
<totfact> 0.25700236E+02</totfact>
</mgrwt>
</event>
<event>
 4    1  0.1724904E-005  0.8922166E+03  0.7818608E-02  0.9435364E-01
          2   -1    0    0  501    0  0.00000000000E+00  0.00000000000E+00  0.15516341979E+04  0.15516341979E+04  0.25500000000E-02 0.  1.
         -2   -1    0    0    0  501 -0.00000000000E+00 -0.00000000000E+00 -0.12826000459E+03  0.12826000461E+03  0.25500000000E-02 0. -1.
    5000001    1    1    2    0    0  0.36401482975E+03  0.12858890559E+03  0.90341921457E+03  0.10024017060E+04  0.19900000000E+03 0.  0.
   -5000001    1    1    2    0    0 -0.36401482975E+03 -0.12858890559E+03  0.51995497873E+03  0.67749249650E+03  0.19900000000E+03 0.  0.
<mgrwt>
<rscale>  0 0.89221659E+03</rscale>
<asrwt>0</asrwt>
<pdfrwt beam="1">  1        2 0.22166201E+00 0.89221659E+03</pdfrwt>
<pdfrwt beam="2">  1       -2 0.18322859E-01 0.89221659E+03</pdfrwt>
<totfact> 0.34234310E+02</totfact>
</mgrwt>
</event>
<event>
 4    1  0.1724904E-005  0.6430264E+03  0.7818608E-02  0.9819953E-01
          2   -1    0    0  501    0  0.00000000000E+00  0.00000000000E+00  0.13996226452E+03  0.13996226454E+03  0.25500000000E-02 0.  1.
         -2   -1    0    0    0  501 -0.00000000000E+00 -0.00000000000E+00 -0.73856149413E+03  0.73856149414E+03  0.25500000000E-02 0. -1.
    5000001    1    1    2    0    0 -0.22244246651E+03  0.71168970237E+02 -0.43051534603E+03  0.52866826687E+03  0.19900000000E+03 0.  0.
   -5000001    1    1    2    0    0  0.22244246651E+03 -0.71168970237E+02 -0.16808388358E+03  0.34985549181E+03  0.19900000000E+03 0.  0.
<mgrwt>
<rscale>  0 0.64302640E+03</rscale>
<asrwt>0</asrwt>
<pdfrwt beam="1">  1        2 0.19994610E-01 0.64302640E+03</pdfrwt>
<pdfrwt beam="2">  1       -2 0.10550878E+00 0.64302640E+03</pdfrwt>
<totfact> 0.20889996E+02</totfact>
</mgrwt>
</event>
<event>
 4    1  0.1724904E-005  0.5410604E+03  0.7818608E-02  0.1003585E+00
         -2   -1    0    0    0  501 -0.00000000000E+00  0.00000000000E+00  0.12801522549E+04  0.12801522549E+04  0.25500000000E-02 0. -1.
          2   -1    0    0  501    0  0.00000000000E+00 -0.00000000000E+00 -0.57170228252E+02  0.57170228309E+02  0.25500000000E-02 0.  1.
    5000001    1    1    2    0    0  0.11988924109E+03  0.35548125592E+02  0.94262550587E+03  0.97148388750E+03  0.19900000000E+03 0.  0.
   -5000001    1    1    2    0    0 -0.11988924109E+03 -0.35548125592E+02  0.28035652075E+03  0.36583859568E+03  0.19900000000E+03 0.  0.
<mgrwt>
<rscale>  0 0.54106043E+03</rscale>
<asrwt>0</asrwt>
<pdfrwt beam="1">  1        2 0.81671746E-02 0.54106043E+03</pdfrwt>
<pdfrwt beam="2">  1       -2 0.18287891E+00 0.54106043E+03</pdfrwt>
<totfact> 0.15290714E+02</totfact>
</mgrwt>
</event>
<event>
 4    1  0.1724904E-005  0.1158237E+04  0.7818608E-02  0.9150218E-01
          2   -1    0    0  501    0  0.00000000000E+00  0.00000000000E+00  0.30946751532E+03  0.30946751533E+03  0.25500000000E-02 0.  1.
         -2   -1    0    0    0  501 -0.00000000000E+00 -0.00000000000E+00 -0.10837263228E+04  0.10837263228E+04  0.25500000000E-02 0. -1.
    5000001    1    1    2    0    0  0.14456012863E+03 -0.32836241665E+03  0.10451070224E+03  0.42337098902E+03  0.19900000000E+03 0.  0.
   -5000001    1    1    2    0    0 -0.14456012863E+03  0.32836241665E+03 -0.87876950976E+03  0.96982284916E+03  0.19900000000E+03 0.  0.
<mgrwt>
<rscale>  0 0.11582368E+04</rscale>
<asrwt>0</asrwt>
<pdfrwt beam="1">  1        2 0.44209646E-01 0.11582368E+04</pdfrwt>
<pdfrwt beam="2">  1       -2 0.15481804E+00 0.11582368E+04</pdfrwt>
<totfact> 0.31385341E+01</totfact>
</mgrwt>
</event>
<event>
 4    1  0.1724904E-005  0.8416925E+03  0.7818608E-02  0.9501555E-01
         -2   -1    0    0    0  501 -0.00000000000E+00  0.00000000000E+00  0.51261939790E+02  0.51261939854E+02  0.25500000000E-02 0. -1.
          2   -1    0    0  501    0  0.00000000000E+00 -0.00000000000E+00 -0.34550305119E+04  0.34550305119E+04  0.25500000000E-02 0.  1.
    5000001    1    1    2    0    0  0.33038238564E+03  0.15912686388E+03 -0.19314434680E+04  0.19759931046E+04  0.19900000000E+03 0.  0.
   -5000001    1    1    2    0    0 -0.33038238564E+03 -0.15912686388E+03 -0.14723251041E+04  0.15302993471E+04  0.19900000000E+03 0.  0.
<mgrwt>
<rscale>  0 0.84169250E+03</rscale>
<asrwt>0</asrwt>
<pdfrwt beam="1">  1        2 0.49357564E+00 0.84169250E+03</pdfrwt>
<pdfrwt beam="2">  1       -2 0.73231364E-02 0.84169250E+03</pdfrwt>
<totfact> 0.15270722E+02</totfact>
</mgrwt>
</event>
<event>
 4    1  0.1724904E-005  0.4790541E+03  0.7818608E-02  0.1019395E+00
          2   -1    0    0  501    0  0.00000000000E+00  0.00000000000E+00  0.29668182857E+03  0.29668182858E+03  0.25500000000E-02 0.  1.
         -2   -1    0    0    0  501 -0.00000000000E+00 -0.00000000000E+00 -0.19338295536E+03  0.19338295538E+03  0.25500000000E-02 0. -1.
    5000001    1    1    2    0    0  0.11552579516E+03 -0.47656267976E+02  0.41618133554E+01  0.23502265830E+03  0.19900000000E+03 0.  0.
   -5000001    1    1    2    0    0 -0.11552579516E+03  0.47656267976E+02  0.99137059853E+02  0.25504212566E+03  0.19900000000E+03 0.  0.
<mgrwt>
<rscale>  0 0.47905410E+03</rscale>
<asrwt>0</asrwt>
<pdfrwt beam="1">  1        2 0.42383118E-01 0.47905410E+03</pdfrwt>
<pdfrwt beam="2">  1       -2 0.27626137E-01 0.47905410E+03</pdfrwt>
<totfact> 0.14370935E+03</totfact>
</mgrwt>
</event>
<event>
 4    1  0.1724904E-005  0.8730402E+03  0.7818608E-02  0.9459924E-01
         -2   -1    0    0    0  501 -0.00000000000E+00  0.00000000000E+00  0.12147832002E+03  0.12147832005E+03  0.25500000000E-02 0. -1.
          2   -1    0    0  501    0  0.00000000000E+00 -0.00000000000E+00 -0.15685911360E+04  0.15685911360E+04  0.25500000000E-02 0.  1.
    5000001    1    1    2    0    0  0.29102414497E+03  0.25410164511E+03 -0.64406610607E+03  0.77697158764E+03  0.19900000000E+03 0.  0.
   -5000001    1    1    2    0    0 -0.29102414497E+03 -0.25410164511E+03 -0.80304670990E+03  0.91309786841E+03  0.19900000000E+03 0.  0.
<mgrwt>
<rscale>  0 0.87304024E+03</rscale>
<asrwt>0</asrwt>
<pdfrwt beam="1">  1        2 0.22408443E+00 0.87304024E+03</pdfrwt>
<pdfrwt beam="2">  1       -2 0.17354047E-01 0.87304024E+03</pdfrwt>
<totfact> 0.36882219E+02</totfact>
</mgrwt>
</event>
<event>
 4    1  0.1724904E-005  0.4951563E+03  0.7818608E-02  0.1015051E+00
          2   -1    0    0  501    0  0.00000000000E+00  0.00000000000E+00  0.17568452683E+03  0.17568452685E+03  0.25500000000E-02 0.  1.
         -2   -1    0    0    0  501 -0.00000000000E+00 -0.00000000000E+00 -0.34889206598E+03  0.34889206599E+03  0.25500000000E-02 0. -1.
    5000001    1    1    2    0    0  0.61166266814E+02  0.75588394837E+02 -0.20380709374E+03  0.30098712446E+03  0.19900000000E+03 0.  0.
   -5000001    1    1    2    0    0 -0.61166266814E+02 -0.75588394837E+02  0.30599554590E+02  0.22358946838E+03  0.19900000000E+03 0.  0.
<mgrwt>
<rscale>  0 0.49515629E+03</rscale>
<asrwt>0</asrwt>
<pdfrwt beam="1">  1        2 0.25097790E-01 0.49515629E+03</pdfrwt>
<pdfrwt beam="2">  1       -2 0.49841723E-01 0.49515629E+03</pdfrwt>
<totfact> 0.83414638E+02</totfact>
</mgrwt>
</event>
<event>
 4    1  0.1724904E-005  0.8402961E+03  0.7818608E-02  0.9503455E-01
          2   -1    0    0  501    0  0.00000000000E+00  0.00000000000E+00  0.21435309920E+04  0.21435309920E+04  0.25500000000E-02 0.  1.
         -2   -1    0    0    0  501 -0.00000000000E+00 -0.00000000000E+00 -0.82352141924E+02  0.82352141963E+02  0.25500000000E-02 0. -1.
    5000001    1    1    2    0    0  0.62161041478E+02 -0.36349165581E+03  0.11115092573E+04  0.11878737341E+04  0.19900000000E+03 0.  0.
   -5000001    1    1    2    0    0 -0.62161041478E+02  0.36349165581E+03  0.94966959271E+03  0.10380093999E+04  0.19900000000E+03 0.  0.
<mgrwt>
<rscale>  0 0.84029606E+03</rscale>
<asrwt>0</asrwt>
<pdfrwt beam="1">  1        2 0.30621870E+00 0.84029606E+03</pdfrwt>
<pdfrwt beam="2">  1       -2 0.11764592E-01 0.84029606E+03</pdfrwt>
<totfact> 0.36165554E+02</totfact>
</mgrwt>
</event>
<event>
 4    1  0.1724904E-005  0.1094181E+04  0.7818608E-02  0.9210883E-01
         -2   -1    0    0    0  501 -0.00000000000E+00  0.00000000000E+00  0.11408595077E+03  0.11408595080E+03  0.25500000000E-02 0. -1.
          2   -1    0    0  501    0  0.00000000000E+00 -0.00000000000E+00 -0.26235284896E+04  0.26235284896E+04  0.25500000000E-02 0.  1.
    5000001    1    1    2    0    0  0.14139839100E+03  0.45544294720E+03 -0.80516564890E+03  0.95672070392E+03  0.19900000000E+03 0.  0.
   -5000001    1    1    2    0    0 -0.14139839100E+03 -0.45544294720E+03 -0.17042768900E+04  0.17808937365E+04  0.19900000000E+03 0.  0.
<mgrwt>
<rscale>  0 0.10941805E+04</rscale>
<asrwt>0</asrwt>
<pdfrwt beam="1">  1        2 0.37478975E+00 0.10941805E+04</pdfrwt>
<pdfrwt beam="2">  1       -2 0.16297995E-01 0.10941805E+04</pdfrwt>
<totfact> 0.11574991E+02</totfact>
</mgrwt>
</event>
<event>
 4    1  0.1724904E-005  0.4728264E+03  0.7818608E-02  0.1021125E+00
         -2   -1    0    0    0  501 -0.00000000000E+00  0.00000000000E+00  0.25602661555E+02  0.25602661682E+02  0.25500000000E-02 0. -1.
          2   -1    0    0  501    0  0.00000000000E+00 -0.00000000000E+00 -0.21830232734E+04  0.21830232734E+04  0.25500000000E-02 0.  1.
    5000001    1    1    2    0    0  0.42327145322E+02  0.76235195695E+02 -0.15140724761E+04  0.15295815948E+04  0.19900000000E+03 0.  0.
   -5000001    1    1    2    0    0 -0.42327145322E+02 -0.76235195695E+02 -0.64334813576E+03  0.67904434029E+03  0.19900000000E+03 0.  0.
<mgrwt>
<rscale>  0 0.47282642E+03</rscale>
<asrwt>0</asrwt>
<pdfrwt beam="1">  1        2 0.31186035E+00 0.47282642E+03</pdfrwt>
<pdfrwt beam="2">  1       -2 0.36575245E-02 0.47282642E+03</pdfrwt>
<totfact> 0.22379235E+03</totfact>
</mgrwt>
</event>
<event>
 4    1  0.1724904E-005  0.5742962E+03  0.7818608E-02  0.9960217E-01
          2   -1    0    0  501    0  0.00000000000E+00  0.00000000000E+00  0.20907440287E+04  0.20907440287E+04  0.25500000000E-02 0.  1.
         -2   -1    0    0    0  501 -0.00000000000E+00 -0.00000000000E+00 -0.39437651652E+02  0.39437651735E+02  0.25500000000E-02 0. -1.
    5000001    1    1    2    0    0 -0.14593370130E+03  0.35998809381E+02  0.49768773182E+03  0.55667462476E+03  0.19900000000E+03 0.  0.
   -5000001    1    1    2    0    0  0.14593370130E+03 -0.35998809381E+02  0.15536186452E+04  0.15735070557E+04  0.19900000000E+03 0.  0.
<mgrwt>
<rscale>  0 0.57429621E+03</rscale>
<asrwt>0</asrwt>
<pdfrwt beam="1">  1        2 0.29867772E+00 0.57429621E+03</pdfrwt>
<pdfrwt beam="2">  1       -2 0.56339503E-02 0.57429621E+03</pdfrwt>
<totfact> 0.12730460E+03</totfact>
</mgrwt>
</event>
<event>
 4    1  0.1724904E-005  0.3173643E+04  0.7818608E-02  0.8195813E-01
         -2   -1    0    0    0  501 -0.00000000000E+00  0.00000000000E+00  0.17296053401E+04  0.17296053401E+04  0.25500000000E-02 0. -1.
          2   -1    0    0  501    0  0.00000000000E+00 -0.00000000000E+00 -0.14558251910E+04  0.14558251910E+04  0.25500000000E-02 0.  1.
    5000001    1    1    2    0    0  0.12994674169E+04  0.42905049101E+03  0.91804930795E+03  0.16598540367E+04  0.19900000000E+03 0.  0.
   -5000001    1    1    2    0    0 -0.12994674169E+04 -0.42905049101E+03 -0.64426915886E+03  0.15255764945E+04  0.19900000000E+03 0.  0.
<mgrwt>
<rscale>  0 0.31736433E+04</rscale>
<asrwt>0</asrwt>
<pdfrwt beam="1">  1        2 0.20797503E+00 0.31736433E+04</pdfrwt>
<pdfrwt beam="2">  1       -2 0.24708648E+00 0.31736433E+04</pdfrwt>
<totfact> 0.87942086E-01</totfact>
</mgrwt>
</event>
<event>
 4    1  0.1724904E-005  0.5482080E+03  0.7818608E-02  0.1001910E+00
         -2   -1    0    0    0  501 -0.00000000000E+00  0.00000000000E+00  0.58062855878E+02  0.58062855934E+02  0.25500000000E-02 0. -1.
          2   -1    0    0  501    0  0.00000000000E+00 -0.00000000000E+00 -0.12939941854E+04  0.12939941854E+04  0.25500000000E-02 0.  1.
    5000001    1    1    2    0    0 -0.16172565565E+03  0.86612285705E+02 -0.72476399142E+03  0.77365413396E+03  0.19900000000E+03 0.  0.
   -5000001    1    1    2    0    0  0.16172565565E+03 -0.86612285705E+02 -0.51116733814E+03  0.57840290742E+03  0.19900000000E+03 0.  0.
<mgrwt>
<rscale>  0 0.54820798E+03</rscale>
<asrwt>0</asrwt>
<pdfrwt beam="1">  1        2 0.18485629E+00 0.54820798E+03</pdfrwt>
<pdfrwt beam="2">  1       -2 0.82946945E-02 0.54820798E+03</pdfrwt>
<totfact> 0.17735804E+03</totfact>
</mgrwt>
</event>
<event>
 4    1  0.1724904E-005  0.5935032E+03  0.7818608E-02  0.9918977E-01
          2   -1    0    0  501    0  0.00000000000E+00  0.00000000000E+00  0.15252637354E+04  0.15252637354E+04  0.25500000000E-02 0.  1.
         -2   -1    0    0    0  501 -0.00000000000E+00 -0.00000000000E+00 -0.57735275468E+02  0.57735275524E+02  0.25500000000E-02 0. -1.
    5000001    1    1    2    0    0 -0.15580675778E+03  0.66359293633E+02  0.11088962146E+04  0.11392677983E+04  0.19900000000E+03 0.  0.
   -5000001    1    1    2    0    0  0.15580675778E+03 -0.66359293633E+02  0.35863224537E+03  0.44373121260E+03  0.19900000000E+03 0.  0.
<mgrwt>
<rscale>  0 0.59350323E+03</rscale>
<asrwt>0</asrwt>
<pdfrwt beam="1">  1        2 0.21789485E+00 0.59350323E+03</pdfrwt>
<pdfrwt beam="2">  1       -2 0.82478955E-02 0.59350323E+03</pdfrwt>
<totfact> 0.13480460E+03</totfact>
</mgrwt>
</event>
<event>
 4    1  0.1724904E-005  0.5211429E+03  0.7818608E-02  0.1008403E+00
         -2   -1    0    0    0  501 -0.00000000000E+00  0.00000000000E+00  0.34769448629E+02  0.34769448723E+02  0.25500000000E-02 0. -1.
          2   -1    0    0  501    0  0.00000000000E+00 -0.00000000000E+00 -0.19527910737E+04  0.19527910737E+04  0.25500000000E-02 0.  1.
    5000001    1    1    2    0    0 -0.13820278225E+03  0.62560818540E+02 -0.68181440304E+03  0.72628213887E+03  0.19900000000E+03 0.  0.
   -5000001    1    1    2    0    0  0.13820278225E+03 -0.62560818540E+02 -0.12362072220E+04  0.12612783835E+04  0.19900000000E+03 0.  0.
<mgrwt>
<rscale>  0 0.52114286E+03</rscale>
<asrwt>0</asrwt>
<pdfrwt beam="1">  1        2 0.27897008E+00 0.52114286E+03</pdfrwt>
<pdfrwt beam="2">  1       -2 0.49670653E-02 0.52114286E+03</pdfrwt>
<totfact> 0.18196396E+03</totfact>
</mgrwt>
</event>
<event>
 4    1  0.1724904E-005  0.8193205E+03  0.7818608E-02  0.9532465E-01
         -2   -1    0    0    0  501 -0.00000000000E+00  0.00000000000E+00  0.34990506545E+03  0.34990506546E+03  0.25500000000E-02 0. -1.
          2   -1    0    0  501    0  0.00000000000E+00 -0.00000000000E+00 -0.47962019323E+03  0.47962019324E+03  0.25500000000E-02 0.  1.
    5000001    1    1    2    0    0 -0.16833931766E+03  0.42438464304E+02 -0.38193772589E+03  0.46434531933E+03  0.19900000000E+03 0.  0.
   -5000001    1    1    2    0    0  0.16833931766E+03 -0.42438464304E+02  0.25222259810E+03  0.36517993937E+03  0.19900000000E+03 0.  0.
<mgrwt>
<rscale>  0 0.81932054E+03</rscale>
<asrwt>0</asrwt>
<pdfrwt beam="1">  1        2 0.68517171E-01 0.81932054E+03</pdfrwt>
<pdfrwt beam="2">  1       -2 0.49986438E-01 0.81932054E+03</pdfrwt>
<totfact> 0.26816759E+02</totfact>
</mgrwt>
</event>
<event>
 4    1  0.1724904E-005  0.8727912E+03  0.7818608E-02  0.9460248E-01
         -2   -1    0    0    0  501 -0.00000000000E+00  0.00000000000E+00  0.77419624198E+02  0.77419624240E+02  0.25500000000E-02 0. -1.
          2   -1    0    0  501    0  0.00000000000E+00 -0.00000000000E+00 -0.24598560650E+04  0.24598560650E+04  0.25500000000E-02 0.  1.
    5000001    1    1    2    0    0  0.16378921519E+02  0.38322488234E+03 -0.13683011042E+04  0.14349141058E+04  0.19900000000E+03 0.  0.
   -5000001    1    1    2    0    0 -0.16378921519E+02 -0.38322488234E+03 -0.10141353366E+04  0.11023615834E+04  0.19900000000E+03 0.  0.
<mgrwt>
<rscale>  0 0.87279123E+03</rscale>
<asrwt>0</asrwt>
<pdfrwt beam="1">  1        2 0.35140796E+00 0.87279123E+03</pdfrwt>
<pdfrwt beam="2">  1       -2 0.11059948E-01 0.87279123E+03</pdfrwt>
<totfact> 0.27509002E+02</totfact>
</mgrwt>
</event>
<event>
 4    1  0.1724904E-005  0.1027773E+04  0.7818608E-02  0.9278598E-01
         -2   -1    0    0    0  501 -0.00000000000E+00  0.00000000000E+00  0.10423827830E+03  0.10423827833E+03  0.25500000000E-02 0. -1.
          2   -1    0    0  501    0  0.00000000000E+00 -0.00000000000E+00 -0.25334189620E+04  0.25334189620E+04  0.25500000000E-02 0.  1.
    5000001    1    1    2    0    0 -0.12529566361E+03 -0.33653564917E+03 -0.20077765996E+04  0.20493226003E+04  0.19900000000E+03 0.  0.
   -5000001    1    1    2    0    0  0.12529566361E+03  0.33653564917E+03 -0.42140408410E+03  0.58833463997E+03  0.19900000000E+03 0.  0.
<mgrwt>
<rscale>  0 0.10277728E+04</rscale>
<asrwt>0</asrwt>
<pdfrwt beam="1">  1        2 0.36191696E+00 0.10277728E+04</pdfrwt>
<pdfrwt beam="2">  1       -2 0.14891184E-01 0.10277728E+04</pdfrwt>
<totfact> 0.15138436E+02</totfact>
</mgrwt>
</event>
<event>
 4    1  0.1724904E-005  0.4849780E+03  0.7818608E-02  0.1017776E+00
          2   -1    0    0  501    0  0.00000000000E+00  0.00000000000E+00  0.95562760643E+03  0.95562760643E+03  0.25500000000E-02 0.  1.
         -2   -1    0    0    0  501 -0.00000000000E+00 -0.00000000000E+00 -0.61531199657E+02  0.61531199710E+02  0.25500000000E-02 0. -1.
    5000001    1    1    2    0    0 -0.58153073496E+02 -0.11646269222E+03  0.34746203514E+03  0.42104180850E+03  0.19900000000E+03 0.  0.
   -5000001    1    1    2    0    0  0.58153073496E+02  0.11646269222E+03  0.54663437163E+03  0.59611699765E+03  0.19900000000E+03 0.  0.
<mgrwt>
<rscale>  0 0.48497799E+03</rscale>
<asrwt>0</asrwt>
<pdfrwt beam="1">  1        2 0.13651823E+00 0.48497799E+03</pdfrwt>
<pdfrwt beam="2">  1       -2 0.87901712E-02 0.48497799E+03</pdfrwt>
<totfact> 0.25330927E+03</totfact>
</mgrwt>
</event>
<event>
 4    1  0.1724904E-005  0.1357828E+04  0.7818608E-02  0.8984923E-01
         -2   -1    0    0    0  501 -0.00000000000E+00  0.00000000000E+00  0.47116703555E+03  0.47116703556E+03  0.25500000000E-02 0. -1.
          2   -1    0    0  501    0  0.00000000000E+00 -0.00000000000E+00 -0.97826080462E+03  0.97826080463E+03  0.25500000000E-02 0.  1.
    5000001    1    1    2    0    0 -0.12855250168E+03  0.55968791732E+03  0.69431699865E+02  0.61171731333E+03  0.19900000000E+03 0.  0.
   -5000001    1    1    2    0    0  0.12855250168E+03 -0.55968791732E+03 -0.57652546893E+03  0.83771052686E+03  0.19900000000E+03 0.  0.
<mgrwt>
<rscale>  0 0.13578280E+04</rscale>
<asrwt>0</asrwt>
<pdfrwt beam="1">  1        2 0.13975154E+00 0.13578280E+04</pdfrwt>
<pdfrwt beam="2">  1       -2 0.67309577E-01 0.13578280E+04</pdfrwt>
<totfact> 0.57345540E+01</totfact>
</mgrwt>
</event>
<event>
 4    1  0.1724904E-005  0.4588778E+03  0.7818608E-02  0.1025107E+00
          2   -1    0    0  501    0  0.00000000000E+00  0.00000000000E+00  0.21678404594E+03  0.21678404595E+03  0.25500000000E-02 0.  1.
         -2   -1    0    0    0  501 -0.00000000000E+00 -0.00000000000E+00 -0.24283252437E+03  0.24283252438E+03  0.25500000000E-02 0. -1.
    5000001    1    1    2    0    0  0.23755034796E+02 -0.17972753552E+02  0.97397948263E+02  0.22355017753E+03  0.19900000000E+03 0.  0.
   -5000001    1    1    2    0    0 -0.23755034796E+02  0.17972753552E+02 -0.12344642669E+03  0.23606639280E+03  0.19900000000E+03 0.  0.
<mgrwt>
<rscale>  0 0.45887784E+03</rscale>
<asrwt>0</asrwt>
<pdfrwt beam="1">  1        2 0.30969150E-01 0.45887784E+03</pdfrwt>
<pdfrwt beam="2">  1       -2 0.34690360E-01 0.45887784E+03</pdfrwt>
<totfact> 0.13335259E+03</totfact>
</mgrwt>
</event>
<event>
 4    1  0.1724904E-005  0.4859858E+03  0.7818608E-02  0.1017503E+00
         -2   -1    0    0    0  501 -0.00000000000E+00  0.00000000000E+00  0.11333693340E+03  0.11333693343E+03  0.25500000000E-02 0. -1.
          2   -1    0    0  501    0  0.00000000000E+00 -0.00000000000E+00 -0.52097366360E+03  0.52097366361E+03  0.25500000000E-02 0.  1.
    5000001    1    1    2    0    0  0.12363267179E+03 -0.62352508053E+02 -0.18230487389E+03  0.30332975429E+03  0.19900000000E+03 0.  0.
   -5000001    1    1    2    0    0 -0.12363267179E+03  0.62352508053E+02 -0.22533185631E+03  0.33098084275E+03  0.19900000000E+03 0.  0.
<mgrwt>
<rscale>  0 0.48598583E+03</rscale>
<asrwt>0</asrwt>
<pdfrwt beam="1">  1        2 0.74424808E-01 0.48598583E+03</pdfrwt>
<pdfrwt beam="2">  1       -2 0.16190991E-01 0.48598583E+03</pdfrwt>
<totfact> 0.19601545E+03</totfact>
</mgrwt>
</event>
<event>
 4    1  0.1724904E-005  0.9074342E+03  0.7818608E-02  0.9416336E-01
         -2   -1    0    0    0  501 -0.00000000000E+00  0.00000000000E+00  0.19177524490E+03  0.19177524491E+03  0.25500000000E-02 0. -1.
          2   -1    0    0  501    0  0.00000000000E+00 -0.00000000000E+00 -0.10734398799E+04  0.10734398799E+04  0.25500000000E-02 0.  1.
    5000001    1    1    2    0    0 -0.40568734778E+03 -0.30340259316E+02 -0.40251021390E+03  0.60590282041E+03  0.19900000000E+03 0.  0.
   -5000001    1    1    2    0    0  0.40568734778E+03  0.30340259316E+02 -0.47915442113E+03  0.65931230443E+03  0.19900000000E+03 0.  0.
<mgrwt>
<rscale>  0 0.90743418E+03</rscale>
<asrwt>0</asrwt>
<pdfrwt beam="1">  1        2 0.15334855E+00 0.90743418E+03</pdfrwt>
<pdfrwt beam="2">  1       -2 0.27396464E-01 0.90743418E+03</pdfrwt>
<totfact> 0.30714898E+02</totfact>
</mgrwt>
</event>
<event>
 4    1  0.1724904E-005  0.5432955E+03  0.7818608E-02  0.1003058E+00
         -2   -1    0    0    0  501 -0.00000000000E+00  0.00000000000E+00  0.19931582474E+03  0.19931582476E+03  0.25500000000E-02 0. -1.
          2   -1    0    0  501    0  0.00000000000E+00 -0.00000000000E+00 -0.37022897347E+03  0.37022897348E+03  0.25500000000E-02 0.  1.
    5000001    1    1    2    0    0 -0.38577312762E+02  0.13476583280E+03 -0.21187073509E+03  0.32270768063E+03  0.19900000000E+03 0.  0.
   -5000001    1    1    2    0    0  0.38577312762E+02 -0.13476583280E+03  0.40957586366E+02  0.24683711761E+03  0.19900000000E+03 0.  0.
<mgrwt>
<rscale>  0 0.54329547E+03</rscale>
<asrwt>0</asrwt>
<pdfrwt beam="1">  1        2 0.52889853E-01 0.54329547E+03</pdfrwt>
<pdfrwt beam="2">  1       -2 0.28473689E-01 0.54329547E+03</pdfrwt>
<totfact> 0.10664532E+03</totfact>
</mgrwt>
</event>
<event>
 4    1  0.1724904E-005  0.4345970E+03  0.7818608E-02  0.1032418E+00
          2   -1    0    0  501    0  0.00000000000E+00  0.00000000000E+00  0.87901574490E+03  0.87901574491E+03  0.25500000000E-02 0.  1.
         -2   -1    0    0    0  501 -0.00000000000E+00 -0.00000000000E+00 -0.53717620810E+02  0.53717620871E+02  0.25500000000E-02 0. -1.
    5000001    1    1    2    0    0 -0.21583989457E+01 -0.25434678175E+02  0.59177735661E+03  0.62486240192E+03  0.19900000000E+03 0.  0.
   -5000001    1    1    2    0    0  0.21583989457E+01  0.25434678175E+02  0.23352076749E+03  0.30787096386E+03  0.19900000000E+03 0.  0.
<mgrwt>
<rscale>  0 0.43459698E+03</rscale>
<asrwt>0</asrwt>
<pdfrwt beam="1">  1        2 0.12557368E+00 0.43459698E+03</pdfrwt>
<pdfrwt beam="2">  1       -2 0.76739456E-02 0.43459698E+03</pdfrwt>
<totfact> 0.35108459E+03</totfact>
</mgrwt>
</event>
<event>
 4    1  0.1724904E-005  0.6870837E+03  0.7818608E-02  0.9739579E-01
         -2   -1    0    0    0  501 -0.00000000000E+00  0.00000000000E+00  0.22050953457E+03  0.22050953459E+03  0.25500000000E-02 0. -1.
          2   -1    0    0  501    0  0.00000000000E+00 -0.00000000000E+00 -0.53521944199E+03  0.53521944200E+03  0.25500000000E-02 0.  1.
    5000001    1    1    2    0    0  0.18902383273E+03 -0.14902786330E+03  0.53699394263E-01  0.31231445094E+03  0.19900000000E+03 0.  0.
   -5000001    1    1    2    0    0 -0.18902383273E+03  0.14902786330E+03 -0.31476360681E+03  0.44341452565E+03  0.19900000000E+03 0.  0.
<mgrwt>
<rscale>  0 0.68708366E+03</rscale>
<asrwt>0</asrwt>
<pdfrwt beam="1">  1        2 0.76459920E-01 0.68708366E+03</pdfrwt>
<pdfrwt beam="2">  1       -2 0.31501362E-01 0.68708366E+03</pdfrwt>
<totfact> 0.58336634E+02</totfact>
</mgrwt>
</event>
<event>
 4    1  0.1724904E-005  0.1033838E+04  0.7818608E-02  0.9272191E-01
          2   -1    0    0  501    0  0.00000000000E+00  0.00000000000E+00  0.15223109113E+04  0.15223109113E+04  0.25500000000E-02 0.  1.
         -2   -1    0    0    0  501 -0.00000000000E+00 -0.00000000000E+00 -0.17552604110E+03  0.17552604112E+03  0.25500000000E-02 0. -1.
    5000001    1    1    2    0    0 -0.85974210968E+02 -0.45795067657E+03  0.50515976331E+03  0.71547031636E+03  0.19900000000E+03 0.  0.
   -5000001    1    1    2    0    0  0.85974210968E+02  0.45795067657E+03  0.84162510689E+03  0.98236663608E+03  0.19900000000E+03 0.  0.
<mgrwt>
<rscale>  0 0.10338379E+04</rscale>
<asrwt>0</asrwt>
<pdfrwt beam="1">  1        2 0.21747299E+00 0.10338379E+04</pdfrwt>
<pdfrwt beam="2">  1       -2 0.25075148E-01 0.10338379E+04</pdfrwt>
<totfact> 0.20182181E+02</totfact>
</mgrwt>
</event>
<event>
 4    1  0.1724904E-005  0.8620888E+03  0.7818608E-02  0.9474254E-01
          2   -1    0    0  501    0  0.00000000000E+00  0.00000000000E+00  0.39997003145E+04  0.39997003145E+04  0.25500000000E-02 0.  1.
         -2   -1    0    0    0  501 -0.00000000000E+00 -0.00000000000E+00 -0.46453296726E+02  0.46453296796E+02  0.25500000000E-02 0. -1.
    5000001    1    1    2    0    0 -0.34736368283E+03 -0.22075217984E+02  0.12337938571E+04  0.12973037906E+04  0.19900000000E+03 0.  0.
   -5000001    1    1    2    0    0  0.34736368283E+03  0.22075217984E+02  0.27194531607E+04  0.27488498207E+04  0.19900000000E+03 0.  0.
<mgrwt>
<rscale>  0 0.86208878E+03</rscale>
<asrwt>0</asrwt>
<pdfrwt beam="1">  1        2 0.57138590E+00 0.86208878E+03</pdfrwt>
<pdfrwt beam="2">  1       -2 0.66361836E-02 0.86208878E+03</pdfrwt>
<totfact> 0.80758812E+01</totfact>
</mgrwt>
</event>
<event>
 4    1  0.1724904E-005  0.8952885E+03  0.7818608E-02  0.9431490E-01
          2   -1    0    0  501    0  0.00000000000E+00  0.00000000000E+00  0.37666992048E+03  0.37666992049E+03  0.25500000000E-02 0.  1.
         -2   -1    0    0    0  501 -0.00000000000E+00 -0.00000000000E+00 -0.53199197380E+03  0.53199197381E+03  0.25500000000E-02 0. -1.
    5000001    1    1    2    0    0  0.38189252933E+03  0.10915927990E+03 -0.21823575446E+02  0.44478637658E+03  0.19900000000E+03 0.  0.
   -5000001    1    1    2    0    0 -0.38189252933E+03 -0.10915927990E+03 -0.13349847788E+03  0.46387551772E+03  0.19900000000E+03 0.  0.
<mgrwt>
<rscale>  0 0.89528850E+03</rscale>
<asrwt>0</asrwt>
<pdfrwt beam="1">  1        2 0.53809989E-01 0.89528850E+03</pdfrwt>
<pdfrwt beam="2">  1       -2 0.75998853E-01 0.89528850E+03</pdfrwt>
<totfact> 0.14402835E+02</totfact>
</mgrwt>
</event>
<event>
 4    1  0.1724904E-005  0.5426212E+03  0.7818608E-02  0.1003216E+00
         -2   -1    0    0    0  501 -0.00000000000E+00  0.00000000000E+00  0.30590329504E+02  0.30590329611E+02  0.25500000000E-02 0. -1.
          2   -1    0    0  501    0  0.00000000000E+00 -0.00000000000E+00 -0.24062978328E+04  0.24062978328E+04  0.25500000000E-02 0.  1.
    5000001    1    1    2    0    0 -0.32917720171E+02 -0.16457273170E+03 -0.15310722348E+04  0.15530457007E+04  0.19900000000E+03 0.  0.
   -5000001    1    1    2    0    0  0.32917720171E+02  0.16457273170E+03 -0.84463526848E+03  0.88384246168E+03  0.19900000000E+03 0.  0.
<mgrwt>
<rscale>  0 0.54262121E+03</rscale>
<asrwt>0</asrwt>
<pdfrwt beam="1">  1        2 0.34375671E+00 0.54262121E+03</pdfrwt>
<pdfrwt beam="2">  1       -2 0.43700486E-02 0.54262121E+03</pdfrwt>
<totfact> 0.13107200E+03</totfact>
</mgrwt>
</event>
<event>
 4    1  0.1724904E-005  0.1445544E+04  0.7818608E-02  0.8921495E-01
         -2   -1    0    0    0  501 -0.00000000000E+00  0.00000000000E+00  0.20309066186E+03  0.20309066187E+03  0.25500000000E-02 0.  1.
          2   -1    0    0  501    0  0.00000000000E+00 -0.00000000000E+00 -0.25722480567E+04  0.25722480567E+04  0.25500000000E-02 0. -1.
    5000001    1    1    2    0    0 -0.46406686483E+03  0.32035171790E+03 -0.40513753612E+03  0.72230236146E+03  0.19900000000E+03 0.  0.
   -5000001    1    1    2    0    0  0.46406686483E+03 -0.32035171790E+03 -0.19640198587E+04  0.20530363571E+04  0.19900000000E+03 0.  0.
<mgrwt>
<rscale>  0 0.14455443E+04</rscale>
<asrwt>0</asrwt>
<pdfrwt beam="1">  1        2 0.36746399E+00 0.14455443E+04</pdfrwt>
<pdfrwt beam="2">  1       -2 0.29012953E-01 0.14455443E+04</pdfrwt>
<totfact> 0.42883345E+01</totfact>
</mgrwt>
</event>
<event>
 4    1  0.1724904E-005  0.9336560E+03  0.7818608E-02  0.9384461E-01
          2   -1    0    0  501    0  0.00000000000E+00  0.00000000000E+00  0.36256297813E+03  0.36256297814E+03  0.25500000000E-02 0.  1.
         -2   -1    0    0    0  501 -0.00000000000E+00 -0.00000000000E+00 -0.60107735172E+03  0.60107735172E+03  0.25500000000E-02 0. -1.
    5000001    1    1    2    0    0  0.41051001041E+03 -0.86247477067E+02 -0.69007933883E+02  0.46938277651E+03  0.19900000000E+03 0.  0.
   -5000001    1    1    2    0    0 -0.41051001041E+03  0.86247477067E+02 -0.16950643971E+03  0.49425755335E+03  0.19900000000E+03 0.  0.
<mgrwt>
<rscale>  0 0.93365603E+03</rscale>
<asrwt>0</asrwt>
<pdfrwt beam="1">  1        2 0.51794712E-01 0.93365603E+03</pdfrwt>
<pdfrwt beam="2">  1       -2 0.85868192E-01 0.93365603E+03</pdfrwt>
<totfact> 0.11393603E+02</totfact>
</mgrwt>
</event>
<event>
 4    1  0.1724904E-005  0.6620317E+03  0.7818608E-02  0.9784461E-01
         -2   -1    0    0    0  501 -0.00000000000E+00  0.00000000000E+00  0.45360455433E+03  0.45360455434E+03  0.25500000000E-02 0. -1.
          2   -1    0    0  501    0  0.00000000000E+00 -0.00000000000E+00 -0.24155728487E+03  0.24155728488E+03  0.25500000000E-02 0.  1.
    5000001    1    1    2    0    0 -0.12788589353E+03 -0.23146774573E+03  0.11252758883E+03  0.34956483994E+03  0.19900000000E+03 0.  0.
   -5000001    1    1    2    0    0  0.12788589353E+03  0.23146774573E+03  0.99519680632E+02  0.34559699928E+03  0.19900000000E+03 0.  0.
<mgrwt>
<rscale>  0 0.66203167E+03</rscale>
<asrwt>0</asrwt>
<pdfrwt beam="1">  1        2 0.34508183E-01 0.66203167E+03</pdfrwt>
<pdfrwt beam="2">  1       -2 0.64800651E-01 0.66203167E+03</pdfrwt>
<totfact> 0.33708019E+02</totfact>
</mgrwt>
</event>
<event>
 4    1  0.1724904E-005  0.6264017E+03  0.7818608E-02  0.9852096E-01
         -2   -1    0    0    0  501 -0.00000000000E+00  0.00000000000E+00  0.30308216835E+03  0.30308216836E+03  0.25500000000E-02 0.  1.
          2   -1    0    0  501    0  0.00000000000E+00 -0.00000000000E+00 -0.32365738439E+03  0.32365738440E+03  0.25500000000E-02 0. -1.
    5000001    1    1    2    0    0 -0.20165602734E+03 -0.11237981765E+03  0.61858180151E+02  0.31100130422E+03  0.19900000000E+03 0.  0.
   -5000001    1    1    2    0    0  0.20165602734E+03  0.11237981765E+03 -0.82433396187E+02  0.31573824853E+03  0.19900000000E+03 0.  0.
<mgrwt>
<rscale>  0 0.62640173E+03</rscale>
<asrwt>0</asrwt>
<pdfrwt beam="1">  1        2 0.46236769E-01 0.62640173E+03</pdfrwt>
<pdfrwt beam="2">  1       -2 0.43297453E-01 0.62640173E+03</pdfrwt>
<totfact> 0.55815221E+02</totfact>
</mgrwt>
</event>
<event>
 4    1  0.1724904E-005  0.1255017E+04  0.7818608E-02  0.9066018E-01
         -2   -1    0    0    0  501 -0.00000000000E+00  0.00000000000E+00  0.61107204269E+03  0.61107204269E+03  0.25500000000E-02 0. -1.
          2   -1    0    0  501    0  0.00000000000E+00 -0.00000000000E+00 -0.64438700271E+03  0.64438700271E+03  0.25500000000E-02 0.  1.
    5000001    1    1    2    0    0  0.48892691848E+03 -0.33453574912E+03  0.39950288236E+02  0.62622737451E+03  0.19900000000E+03 0.  0.
   -5000001    1    1    2    0    0 -0.48892691848E+03  0.33453574912E+03 -0.73265248254E+02  0.62923167090E+03  0.19900000000E+03 0.  0.
<mgrwt>
<rscale>  0 0.12550169E+04</rscale>
<asrwt>0</asrwt>
<pdfrwt beam="1">  1        2 0.92055286E-01 0.12550169E+04</pdfrwt>
<pdfrwt beam="2">  1       -2 0.87296006E-01 0.12550169E+04</pdfrwt>
<totfact> 0.55600901E+01</totfact>
</mgrwt>
</event>
<event>
 4    1  0.1724904E-005  0.5488486E+03  0.7818608E-02  0.1001761E+00
         -2   -1    0    0    0  501 -0.00000000000E+00  0.00000000000E+00  0.27775729050E+03  0.27775729051E+03  0.25500000000E-02 0.  1.
          2   -1    0    0  501    0  0.00000000000E+00 -0.00000000000E+00 -0.27113128591E+03  0.27113128592E+03  0.25500000000E-02 0. -1.
    5000001    1    1    2    0    0  0.47366142002E+02  0.18278621239E+03  0.10616992681E+02  0.27453245961E+03  0.19900000000E+03 0.  0.
   -5000001    1    1    2    0    0 -0.47366142002E+02 -0.18278621239E+03 -0.39909880874E+01  0.27435611682E+03  0.19900000000E+03 0.  0.
<mgrwt>
<rscale>  0 0.54884858E+03</rscale>
<asrwt>0</asrwt>
<pdfrwt beam="1">  1        2 0.38733041E-01 0.54884858E+03</pdfrwt>
<pdfrwt beam="2">  1       -2 0.39679613E-01 0.54884858E+03</pdfrwt>
<totfact> 0.80551113E+02</totfact>
</mgrwt>
</event>
<event>
 4    1  0.1724904E-005  0.4308202E+03  0.7818608E-02  0.1033601E+00
          2   -1    0    0  501    0  0.00000000000E+00  0.00000000000E+00  0.15614037960E+03  0.15614037962E+03  0.25500000000E-02 0.  1.
         -2   -1    0    0    0  501 -0.00000000000E+00 -0.00000000000E+00 -0.29717819107E+03  0.29717819108E+03  0.25500000000E-02 0. -1.
    5000001    1    1    2    0    0 -0.78860795117E+02  0.18235547114E+02 -0.53916608184E+02  0.22149392954E+03  0.19900000000E+03 0.  0.
   -5000001    1    1    2    0    0  0.78860795117E+02 -0.18235547114E+02 -0.87121203288E+02  0.23182464116E+03  0.19900000000E+03 0.  0.
<mgrwt>
<rscale>  0 0.43082022E+03</rscale>
<asrwt>0</asrwt>
<pdfrwt beam="1">  1        2 0.22305769E-01 0.43082022E+03</pdfrwt>
<pdfrwt beam="2">  1       -2 0.42454027E-01 0.43082022E+03</pdfrwt>
<totfact> 0.13111880E+03</totfact>
</mgrwt>
</event>
<event>
 4    1  0.1724904E-005  0.7144586E+03  0.7818608E-02  0.9692821E-01
         -2   -1    0    0    0  501 -0.00000000000E+00  0.00000000000E+00  0.44346328226E+02  0.44346328300E+02  0.25500000000E-02 0. -1.
          2   -1    0    0  501    0  0.00000000000E+00 -0.00000000000E+00 -0.28776397662E+04  0.28776397662E+04  0.25500000000E-02 0.  1.
    5000001    1    1    2    0    0 -0.15041185800E+03 -0.18514524549E+03 -0.69529677304E+03  0.76153863432E+03  0.19900000000E+03 0.  0.
   -5000001    1    1    2    0    0  0.15041185800E+03  0.18514524549E+03 -0.21379966649E+04  0.21604474602E+04  0.19900000000E+03 0.  0.
<mgrwt>
<rscale>  0 0.71445856E+03</rscale>
<asrwt>0</asrwt>
<pdfrwt beam="1">  1        2 0.41109128E+00 0.71445856E+03</pdfrwt>
<pdfrwt beam="2">  1       -2 0.63351916E-02 0.71445856E+03</pdfrwt>
<totfact> 0.41177217E+02</totfact>
</mgrwt>
</event>
<event>
 4    1  0.1724904E-005  0.7057291E+03  0.7818608E-02  0.9707485E-01
         -2   -1    0    0    0  501 -0.00000000000E+00  0.00000000000E+00  0.52439425619E+02  0.52439425681E+02  0.25500000000E-02 0. -1.
          2   -1    0    0  501    0  0.00000000000E+00 -0.00000000000E+00 -0.23744230271E+04  0.23744230271E+04  0.25500000000E-02 0.  1.
    5000001    1    1    2    0    0 -0.73508918236E+02 -0.26272125896E+03 -0.15131351683E+04  0.15503564295E+04  0.19900000000E+03 0.  0.
   -5000001    1    1    2    0    0  0.73508918236E+02  0.26272125896E+03 -0.80884843313E+03  0.87650602323E+03  0.19900000000E+03 0.  0.
<mgrwt>
<rscale>  0 0.70572907E+03</rscale>
<asrwt>0</asrwt>
<pdfrwt beam="1">  1        2 0.33920322E+00 0.70572907E+03</pdfrwt>
<pdfrwt beam="2">  1       -2 0.74913480E-02 0.70572907E+03</pdfrwt>
<totfact> 0.57900792E+02</totfact>
</mgrwt>
</event>
<event>
 4    1  0.1724904E-005  0.8546530E+03  0.7818608E-02  0.9484113E-01
         -2   -1    0    0    0  501 -0.00000000000E+00  0.00000000000E+00  0.71693118525E+02  0.71693118571E+02  0.25500000000E-02 0. -1.
          2   -1    0    0  501    0  0.00000000000E+00 -0.00000000000E+00 -0.25470777211E+04  0.25470777211E+04  0.25500000000E-02 0.  1.
    5000001    1    1    2    0    0  0.30906387616E+02  0.36149241583E+03 -0.91089168777E+03  0.10004782048E+04  0.19900000000E+03 0.  0.
   -5000001    1    1    2    0    0 -0.30906387616E+02 -0.36149241583E+03 -0.15644929148E+04  0.16182926349E+04  0.19900000000E+03 0.  0.
<mgrwt>
<rscale>  0 0.85465302E+03</rscale>
<asrwt>0</asrwt>
<pdfrwt beam="1">  1        2 0.36386819E+00 0.85465302E+03</pdfrwt>
<pdfrwt beam="2">  1       -2 0.10241876E-01 0.85465302E+03</pdfrwt>
<totfact> 0.28155757E+02</totfact>
</mgrwt>
</event>
<event>
 4    1  0.1724904E-005  0.7984590E+03  0.7818608E-02  0.9562250E-01
         -2   -1    0    0    0  501 -0.00000000000E+00  0.00000000000E+00  0.15119243345E+03  0.15119243347E+03  0.25500000000E-02 0. -1.
          2   -1    0    0  501    0  0.00000000000E+00 -0.00000000000E+00 -0.10541811116E+04  0.10541811116E+04  0.25500000000E-02 0.  1.
    5000001    1    1    2    0    0 -0.32109763889E+03  0.11323241333E+03 -0.35772811264E+03  0.53244311969E+03  0.19900000000E+03 0.  0.
   -5000001    1    1    2    0    0  0.32109763889E+03 -0.11323241333E+03 -0.54526056551E+03  0.67293042540E+03  0.19900000000E+03 0.  0.
<mgrwt>
<rscale>  0 0.79845903E+03</rscale>
<asrwt>0</asrwt>
<pdfrwt beam="1">  1        2 0.15059730E+00 0.79845903E+03</pdfrwt>
<pdfrwt beam="2">  1       -2 0.21598920E-01 0.79845903E+03</pdfrwt>
<totfact> 0.48614660E+02</totfact>
</mgrwt>
</event>
<event>
 4    1  0.1724904E-005  0.8740099E+03  0.7818608E-02  0.9458666E-01
         -2   -1    0    0    0  501 -0.00000000000E+00  0.00000000000E+00  0.12647098845E+04  0.12647098846E+04  0.25500000000E-02 0. -1.
          2   -1    0    0  501    0  0.00000000000E+00 -0.00000000000E+00 -0.15100167956E+03  0.15100167958E+03  0.25500000000E-02 0.  1.
    5000001    1    1    2    0    0 -0.37865564441E+03  0.63531282575E+02  0.65873349598E+03  0.78800199216E+03  0.19900000000E+03 0.  0.
   -5000001    1    1    2    0    0  0.37865564441E+03 -0.63531282575E+02  0.45497470901E+03  0.62770957197E+03  0.19900000000E+03 0.  0.
<mgrwt>
<rscale>  0 0.87400988E+03</rscale>
<asrwt>0</asrwt>
<pdfrwt beam="1">  1        2 0.21571668E-01 0.87400988E+03</pdfrwt>
<pdfrwt beam="2">  1       -2 0.18067284E+00 0.87400988E+03</pdfrwt>
<totfact> 0.46992229E+01</totfact>
</mgrwt>
</event>
<event>
 4    1  0.1724904E-005  0.4572471E+03  0.7818608E-02  0.1025583E+00
          2   -1    0    0  501    0  0.00000000000E+00  0.00000000000E+00  0.17674975686E+03  0.17674975688E+03  0.25500000000E-02 0.  1.
         -2   -1    0    0    0  501 -0.00000000000E+00 -0.00000000000E+00 -0.29572167966E+03  0.29572167967E+03  0.25500000000E-02 0. -1.
    5000001    1    1    2    0    0 -0.10742098547E+03  0.28733558891E+02 -0.77467960407E+02  0.24076372321E+03  0.19900000000E+03 0.  0.
   -5000001    1    1    2    0    0  0.10742098547E+03 -0.28733558891E+02 -0.41503962386E+02  0.23170771334E+03  0.19900000000E+03 0.  0.
<mgrwt>
<rscale>  0 0.45724713E+03</rscale>
<asrwt>0</asrwt>
<pdfrwt beam="1">  1        2 0.25249965E-01 0.45724713E+03</pdfrwt>
<pdfrwt beam="2">  1       -2 0.42245954E-01 0.45724713E+03</pdfrwt>
<totfact> 0.11497439E+03</totfact>
</mgrwt>
</event>
<event>
 4    1  0.1724904E-005  0.4488353E+03  0.7818608E-02  0.1028070E+00
         -2   -1    0    0    0  501 -0.00000000000E+00  0.00000000000E+00  0.25565022804E+02  0.25565022931E+02  0.25500000000E-02 0. -1.
          2   -1    0    0  501    0  0.00000000000E+00 -0.00000000000E+00 -0.19700075367E+04  0.19700075367E+04  0.25500000000E-02 0.  1.
    5000001    1    1    2    0    0 -0.97452661082E+02 -0.32895616837E+02 -0.10323909764E+04  0.10564143462E+04  0.19900000000E+03 0.  0.
   -5000001    1    1    2    0    0  0.97452661082E+02  0.32895616837E+02 -0.91205153747E+03  0.93915821338E+03  0.19900000000E+03 0.  0.
<mgrwt>
<rscale>  0 0.44883533E+03</rscale>
<asrwt>0</asrwt>
<pdfrwt beam="1">  1        2 0.28142955E+00 0.44883533E+03</pdfrwt>
<pdfrwt beam="2">  1       -2 0.36521474E-02 0.44883533E+03</pdfrwt>
<totfact> 0.28658160E+03</totfact>
</mgrwt>
</event>
<event>
 4    1  0.1724904E-005  0.5085117E+03  0.7818608E-02  0.1011581E+00
          2   -1    0    0  501    0  0.00000000000E+00  0.00000000000E+00  0.10457060426E+04  0.10457060426E+04  0.25500000000E-02 0.  1.
         -2   -1    0    0    0  501 -0.00000000000E+00 -0.00000000000E+00 -0.61820475289E+02  0.61820475342E+02  0.25500000000E-02 0. -1.
    5000001    1    1    2    0    0 -0.38175970935E+02 -0.12128448519E+03  0.28673032597E+03  0.37146010679E+03  0.19900000000E+03 0.  0.
   -5000001    1    1    2    0    0  0.38175970935E+02  0.12128448519E+03  0.69715524135E+03  0.73606641117E+03  0.19900000000E+03 0.  0.
<mgrwt>
<rscale>  0 0.50851173E+03</rscale>
<asrwt>0</asrwt>
<pdfrwt beam="1">  1        2 0.14938658E+00 0.50851173E+03</pdfrwt>
<pdfrwt beam="2">  1       -2 0.88314961E-02 0.50851173E+03</pdfrwt>
<totfact> 0.22175330E+03</totfact>
</mgrwt>
</event>
<event>
 4    1  0.1724904E-005  0.6453046E+03  0.7818608E-02  0.9815630E-01
          2   -1    0    0  501    0  0.00000000000E+00  0.00000000000E+00  0.12433583379E+04  0.12433583379E+04  0.25500000000E-02 0.  1.
         -2   -1    0    0    0  501 -0.00000000000E+00 -0.00000000000E+00 -0.83728474098E+02  0.83728474137E+02  0.25500000000E-02 0. -1.
    5000001    1    1    2    0    0 -0.15489230285E+03 -0.14552478332E+03  0.86577147453E+03  0.91341684577E+03  0.19900000000E+03 0.  0.
   -5000001    1    1    2    0    0  0.15489230285E+03  0.14552478332E+03  0.29385838928E+03  0.41366996627E+03  0.19900000000E+03 0.  0.
<mgrwt>
<rscale>  0 0.64530457E+03</rscale>
<asrwt>0</asrwt>
<pdfrwt beam="1">  1        2 0.17762261E+00 0.64530457E+03</pdfrwt>
<pdfrwt beam="2">  1       -2 0.11961212E-01 0.64530457E+03</pdfrwt>
<totfact> 0.10419227E+03</totfact>
</mgrwt>
</event>
<event>
 4    1  0.1724904E-005  0.7761423E+03  0.7818608E-02  0.9595207E-01
          2   -1    0    0  501    0  0.00000000000E+00  0.00000000000E+00  0.47613488994E+03  0.47613488994E+03  0.25500000000E-02 0.  1.
         -2   -1    0    0    0  501 -0.00000000000E+00 -0.00000000000E+00 -0.31629527807E+03  0.31629527808E+03  0.25500000000E-02 0. -1.
    5000001    1    1    2    0    0  0.26287114437E+03 -0.20429245748E+03  0.92897601874E+02  0.39883281104E+03  0.19900000000E+03 0.  0.
   -5000001    1    1    2    0    0 -0.26287114437E+03  0.20429245748E+03  0.66942009992E+02  0.39359735699E+03  0.19900000000E+03 0.  0.
<mgrwt>
<rscale>  0 0.77614230E+03</rscale>
<asrwt>0</asrwt>
<pdfrwt beam="1">  1        2 0.68019270E-01 0.77614230E+03</pdfrwt>
<pdfrwt beam="2">  1       -2 0.45185040E-01 0.77614230E+03</pdfrwt>
<totfact> 0.33190772E+02</totfact>
</mgrwt>
</event>
<event>
 4    1  0.1724904E-005  0.1089049E+04  0.7818608E-02  0.9215932E-01
          2   -1    0    0  501    0  0.00000000000E+00  0.00000000000E+00  0.10993079807E+04  0.10993079807E+04  0.25500000000E-02 0.  1.
         -2   -1    0    0    0  501 -0.00000000000E+00 -0.00000000000E+00 -0.26972144149E+03  0.26972144150E+03  0.25500000000E-02 0. -1.
    5000001    1    1    2    0    0 -0.99378083555E+02  0.47741338484E+03  0.24103132217E+03  0.57922071940E+03  0.19900000000E+03 0.  0.
   -5000001    1    1    2    0    0  0.99378083555E+02 -0.47741338484E+03  0.58855521705E+03  0.78980870281E+03  0.19900000000E+03 0.  0.
<mgrwt>
<rscale>  0 0.10890490E+04</rscale>
<asrwt>0</asrwt>
<pdfrwt beam="1">  1        2 0.15704400E+00 0.10890490E+04</pdfrwt>
<pdfrwt beam="2">  1       -2 0.38531635E-01 0.10890490E+04</pdfrwt>
<totfact> 0.15436665E+02</totfact>
</mgrwt>
</event>
<event>
 4    1  0.1724904E-005  0.1152902E+04  0.7818608E-02  0.9155111E-01
          2   -1    0    0  501    0  0.00000000000E+00  0.00000000000E+00  0.79852858029E+03  0.79852858030E+03  0.25500000000E-02 0.  1.
         -2   -1    0    0    0  501 -0.00000000000E+00 -0.00000000000E+00 -0.41613477012E+03  0.41613477013E+03  0.25500000000E-02 0. -1.
    5000001    1    1    2    0    0 -0.39399703896E+03  0.20813664579E+03  0.51445599195E+03  0.70909836954E+03  0.19900000000E+03 0.  0.
   -5000001    1    1    2    0    0  0.39399703896E+03 -0.20813664579E+03 -0.13206218177E+03  0.50556498088E+03  0.19900000000E+03 0.  0.
<mgrwt>
<rscale>  0 0.11529016E+04</rscale>
<asrwt>0</asrwt>
<pdfrwt beam="1">  1        2 0.11407551E+00 0.11529016E+04</pdfrwt>
<pdfrwt beam="2">  1       -2 0.59447824E-01 0.11529016E+04</pdfrwt>
<totfact> 0.99656384E+01</totfact>
</mgrwt>
</event>
<event>
 4    1  0.1724904E-005  0.5375959E+03  0.7818608E-02  0.1004406E+00
         -2   -1    0    0    0  501 -0.00000000000E+00  0.00000000000E+00  0.13282336326E+03  0.13282336329E+03  0.25500000000E-02 0. -1.
          2   -1    0    0  501    0  0.00000000000E+00 -0.00000000000E+00 -0.54397311668E+03  0.54397311668E+03  0.25500000000E-02 0.  1.
    5000001    1    1    2    0    0  0.15890908544E+03  0.62709575483E+02 -0.27969966056E+03  0.38342859623E+03  0.19900000000E+03 0.  0.
   -5000001    1    1    2    0    0 -0.15890908544E+03 -0.62709575483E+02 -0.13145009286E+03  0.29336788373E+03  0.19900000000E+03 0.  0.
<mgrwt>
<rscale>  0 0.53759590E+03</rscale>
<asrwt>0</asrwt>
<pdfrwt beam="1">  1        2 0.77710444E-01 0.53759590E+03</pdfrwt>
<pdfrwt beam="2">  1       -2 0.18974766E-01 0.53759590E+03</pdfrwt>
<totfact> 0.14233385E+03</totfact>
</mgrwt>
</event>
<event>
 4    1  0.1724904E-005  0.1294056E+04  0.7818608E-02  0.9034292E-01
         -2   -1    0    0    0  501 -0.00000000000E+00  0.00000000000E+00  0.25399993973E+03  0.25399993974E+03  0.25500000000E-02 0. -1.
          2   -1    0    0  501    0  0.00000000000E+00 -0.00000000000E+00 -0.16482105117E+04  0.16482105117E+04  0.25500000000E-02 0.  1.
    5000001    1    1    2    0    0 -0.25827663518E+02  0.56326497021E+03 -0.33372520135E+03  0.68476857762E+03  0.19900000000E+03 0.  0.
   -5000001    1    1    2    0    0  0.25827663518E+02 -0.56326497021E+03 -0.10604853707E+04  0.12174418739E+04  0.19900000000E+03 0.  0.
<mgrwt>
<rscale>  0 0.12940562E+04</rscale>
<asrwt>0</asrwt>
<pdfrwt beam="1">  1        2 0.23545864E+00 0.12940562E+04</pdfrwt>
<pdfrwt beam="2">  1       -2 0.36285707E-01 0.12940562E+04</pdfrwt>
<totfact> 0.85552438E+01</totfact>
</mgrwt>
</event>
<event>
 4    1  0.1724904E-005  0.6604228E+03  0.7818608E-02  0.9787416E-01
          2   -1    0    0  501    0  0.00000000000E+00  0.00000000000E+00  0.20242398397E+04  0.20242398397E+04  0.25500000000E-02 0.  1.
         -2   -1    0    0    0  501 -0.00000000000E+00 -0.00000000000E+00 -0.53866914592E+02  0.53866914652E+02  0.25500000000E-02 0. -1.
    5000001    1    1    2    0    0  0.45330395541E+02  0.21123569534E+03  0.51043928241E+03  0.58891818173E+03  0.19900000000E+03 0.  0.
   -5000001    1    1    2    0    0 -0.45330395541E+02 -0.21123569534E+03  0.14599336427E+04  0.14891885726E+04  0.19900000000E+03 0.  0.
<mgrwt>
<rscale>  0 0.66042276E+03</rscale>
<asrwt>0</asrwt>
<pdfrwt beam="1">  1        2 0.28917708E+00 0.66042276E+03</pdfrwt>
<pdfrwt beam="2">  1       -2 0.76952746E-02 0.66042276E+03</pdfrwt>
<totfact> 0.83708524E+02</totfact>
</mgrwt>
</event>
<event>
 4    1  0.1724904E-005  0.5259541E+03  0.7818608E-02  0.1007218E+00
          2   -1    0    0  501    0  0.00000000000E+00  0.00000000000E+00  0.28496761535E+04  0.28496761535E+04  0.25500000000E-02 0.  1.
         -2   -1    0    0    0  501 -0.00000000000E+00 -0.00000000000E+00 -0.24268345685E+02  0.24268345819E+02  0.25500000000E-02 0. -1.
    5000001    1    1    2    0    0  0.14435500077E+03 -0.46529670156E+02  0.97038479395E+03  0.10021232583E+04  0.19900000000E+03 0.  0.
   -5000001    1    1    2    0    0 -0.14435500077E+03  0.46529670156E+02  0.18550230138E+04  0.18718212410E+04  0.19900000000E+03 0.  0.
<mgrwt>
<rscale>  0 0.52595409E+03</rscale>
<asrwt>0</asrwt>
<pdfrwt beam="1">  1        2 0.40709628E+00 0.52595409E+03</pdfrwt>
<pdfrwt beam="2">  1       -2 0.34669092E-02 0.52595409E+03</pdfrwt>
<totfact> 0.11022676E+03</totfact>
</mgrwt>
</event>
<event>
 4    1  0.1724904E-005  0.5717275E+03  0.7818608E-02  0.9965863E-01
         -2   -1    0    0    0  501 -0.00000000000E+00  0.00000000000E+00  0.85403142654E+02  0.85403142692E+02  0.25500000000E-02 0. -1.
          2   -1    0    0  501    0  0.00000000000E+00 -0.00000000000E+00 -0.95685113391E+03  0.95685113392E+03  0.25500000000E-02 0.  1.
    5000001    1    1    2    0    0 -0.80239374766E+02 -0.16525075533E+03 -0.60251448726E+03  0.66058373940E+03  0.19900000000E+03 0.  0.
   -5000001    1    1    2    0    0  0.80239374766E+02  0.16525075533E+03 -0.26893350400E+03  0.38167053721E+03  0.19900000000E+03 0.  0.
<mgrwt>
<rscale>  0 0.57172754E+03</rscale>
<asrwt>0</asrwt>
<pdfrwt beam="1">  1        2 0.13669301E+00 0.57172754E+03</pdfrwt>
<pdfrwt beam="2">  1       -2 0.12200450E-01 0.57172754E+03</pdfrwt>
<totfact> 0.14853248E+03</totfact>
</mgrwt>
</event>
<event>
 4    1  0.1724904E-005  0.7961800E+03  0.7818608E-02  0.9565563E-01
          2   -1    0    0  501    0  0.00000000000E+00  0.00000000000E+00  0.16281382656E+04  0.16281382656E+04  0.25500000000E-02 0.  1.
         -2   -1    0    0    0  501 -0.00000000000E+00 -0.00000000000E+00 -0.97335497877E+02  0.97335497910E+02  0.25500000000E-02 0. -1.
    5000001    1    1    2    0    0  0.14362938625E+03 -0.31332057937E+03  0.78422760657E+03  0.87943909679E+03  0.19900000000E+03 0.  0.
   -5000001    1    1    2    0    0 -0.14362938625E+03  0.31332057937E+03  0.74657516115E+03  0.84603466672E+03  0.19900000000E+03 0.  0.
<mgrwt>
<rscale>  0 0.79618000E+03</rscale>
<asrwt>0</asrwt>
<pdfrwt beam="1">  1        2 0.23259119E+00 0.79618000E+03</pdfrwt>
<pdfrwt beam="2">  1       -2 0.13905070E-01 0.79618000E+03</pdfrwt>
<totfact> 0.50269522E+02</totfact>
</mgrwt>
</event>
<event>
 4    1  0.1724904E-005  0.8218976E+03  0.7818608E-02  0.9528851E-01
          2   -1    0    0  501    0  0.00000000000E+00  0.00000000000E+00  0.71224317803E+03  0.71224317804E+03  0.25500000000E-02 0.  1.
         -2   -1    0    0    0  501 -0.00000000000E+00 -0.00000000000E+00 -0.23710851957E+03  0.23710851959E+03  0.25500000000E-02 0. -1.
    5000001    1    1    2    0    0  0.94976416283E+02 -0.33062068575E+03  0.35842223007E+03  0.53516170687E+03  0.19900000000E+03 0.  0.
   -5000001    1    1    2    0    0 -0.94976416283E+02  0.33062068575E+03  0.11671242839E+03  0.41418999075E+03  0.19900000000E+03 0.  0.
<mgrwt>
<rscale>  0 0.82189762E+03</rscale>
<asrwt>0</asrwt>
<pdfrwt beam="1">  1        2 0.10174903E+00 0.82189762E+03</pdfrwt>
<pdfrwt beam="2">  1       -2 0.33872646E-01 0.82189762E+03</pdfrwt>
<totfact> 0.36026917E+02</totfact>
</mgrwt>
</event>
<event>
 4    1  0.1724904E-005  0.5655774E+03  0.7818608E-02  0.9979513E-01
          2   -1    0    0  501    0  0.00000000000E+00  0.00000000000E+00  0.10352055353E+04  0.10352055353E+04  0.25500000000E-02 0.  1.
         -2   -1    0    0    0  501 -0.00000000000E+00 -0.00000000000E+00 -0.77249817403E+02  0.77249817445E+02  0.25500000000E-02 0. -1.
    5000001    1    1    2    0    0 -0.18367173635E+03  0.65821192527E+02  0.38463244350E+03  0.47498510788E+03  0.19900000000E+03 0.  0.
   -5000001    1    1    2    0    0  0.18367173635E+03 -0.65821192527E+02  0.57332327435E+03  0.63747024482E+03  0.19900000000E+03 0.  0.
<mgrwt>
<rscale>  0 0.56557736E+03</rscale>
<asrwt>0</asrwt>
<pdfrwt beam="1">  1        2 0.14788651E+00 0.56557736E+03</pdfrwt>
<pdfrwt beam="2">  1       -2 0.11035688E-01 0.56557736E+03</pdfrwt>
<totfact> 0.15686560E+03</totfact>
</mgrwt>
</event>
<event>
 4    1  0.1724904E-005  0.5951307E+03  0.7818608E-02  0.9915560E-01
          2   -1    0    0  501    0  0.00000000000E+00  0.00000000000E+00  0.28529583215E+04  0.28529583215E+04  0.25500000000E-02 0. -1.
         -2   -1    0    0    0  501 -0.00000000000E+00 -0.00000000000E+00 -0.31036257618E+02  0.31036257723E+02  0.25500000000E-02 0.  1.
    5000001    1    1    2    0    0 -0.18930698682E+03 -0.75617622984E+02  0.99440389602E+03  0.10344057563E+04  0.19900000000E+03 0.  0.
   -5000001    1    1    2    0    0  0.18930698682E+03  0.75617622984E+02  0.18275181679E+04  0.18495888230E+04  0.19900000000E+03 0.  0.
<mgrwt>
<rscale>  0 0.59513074E+03</rscale>
<asrwt>0</asrwt>
<pdfrwt beam="1">  1        2 0.40756563E+00 0.59513074E+03</pdfrwt>
<pdfrwt beam="2">  1       -2 0.44337494E-02 0.59513074E+03</pdfrwt>
<totfact> 0.74844911E+02</totfact>
</mgrwt>
</event>
<event>
 4    1  0.1724904E-005  0.5636936E+03  0.7818608E-02  0.9983732E-01
         -2   -1    0    0    0  501 -0.00000000000E+00  0.00000000000E+00  0.22020058464E+03  0.22020058466E+03  0.25500000000E-02 0. -1.
          2   -1    0    0  501    0  0.00000000000E+00 -0.00000000000E+00 -0.36075111699E+03  0.36075111700E+03  0.25500000000E-02 0.  1.
    5000001    1    1    2    0    0  0.19432019031E+03 -0.11873736749E+02 -0.24936530022E+02  0.27950698116E+03  0.19900000000E+03 0.  0.
   -5000001    1    1    2    0    0 -0.19432019031E+03  0.11873736749E+02 -0.11561400233E+03  0.30144472050E+03  0.19900000000E+03 0.  0.
<mgrwt>
<rscale>  0 0.56369356E+03</rscale>
<asrwt>0</asrwt>
<pdfrwt beam="1">  1        2 0.51535874E-01 0.56369356E+03</pdfrwt>
<pdfrwt beam="2">  1       -2 0.31457226E-01 0.56369356E+03</pdfrwt>
<totfact> 0.91316498E+02</totfact>
</mgrwt>
</event>
<event>
 4    1  0.1724904E-005  0.4747197E+03  0.7818608E-02  0.1020597E+00
          2   -1    0    0  501    0  0.00000000000E+00  0.00000000000E+00  0.81603337586E+03  0.81603337586E+03  0.25500000000E-02 0.  1.
         -2   -1    0    0    0  501 -0.00000000000E+00 -0.00000000000E+00 -0.69040923791E+02  0.69040923838E+02  0.25500000000E-02 0. -1.
    5000001    1    1    2    0    0 -0.25128824729E+02  0.96872886460E+02  0.52636553101E+03  0.57155707169E+03  0.19900000000E+03 0.  0.
   -5000001    1    1    2    0    0  0.25128824729E+02 -0.96872886460E+02  0.22062692106E+03  0.31351722801E+03  0.19900000000E+03 0.  0.
<mgrwt>
<rscale>  0 0.47471970E+03</rscale>
<asrwt>0</asrwt>
<pdfrwt beam="1">  1        2 0.11657620E+00 0.47471970E+03</pdfrwt>
<pdfrwt beam="2">  1       -2 0.98629888E-02 0.47471970E+03</pdfrwt>
<totfact> 0.25927217E+03</totfact>
</mgrwt>
</event>
<event>
 4    1  0.1724904E-005  0.6626567E+03  0.7818608E-02  0.9783315E-01
         -2   -1    0    0    0  501 -0.00000000000E+00  0.00000000000E+00  0.25241229025E+03  0.25241229026E+03  0.25500000000E-02 0. -1.
          2   -1    0    0  501    0  0.00000000000E+00 -0.00000000000E+00 -0.43491729324E+03  0.43491729325E+03  0.25500000000E-02 0.  1.
    5000001    1    1    2    0    0 -0.35752065341E+02 -0.24848649969E+03 -0.17898134485E+03  0.36695922459E+03  0.19900000000E+03 0.  0.
   -5000001    1    1    2    0    0  0.35752065341E+02  0.24848649969E+03 -0.35236581413E+01  0.32037035892E+03  0.19900000000E+03 0.  0.
<mgrwt>
<rscale>  0 0.66265668E+03</rscale>
<asrwt>0</asrwt>
<pdfrwt beam="1">  1        2 0.62131042E-01 0.66265668E+03</pdfrwt>
<pdfrwt beam="2">  1       -2 0.36058899E-01 0.66265668E+03</pdfrwt>
<totfact> 0.57267820E+02</totfact>
</mgrwt>
</event>
<event>
 4    1  0.1724904E-005  0.5449950E+03  0.7818608E-02  0.1002659E+00
          2   -1    0    0  501    0  0.00000000000E+00  0.00000000000E+00  0.22428267370E+04  0.22428267370E+04  0.25500000000E-02 0.  1.
         -2   -1    0    0    0  501 -0.00000000000E+00 -0.00000000000E+00 -0.33107719866E+02  0.33107719964E+02  0.25500000000E-02 0. -1.
    5000001    1    1    2    0    0 -0.24323024899E+02 -0.92548363015E+02  0.17716853139E+04  0.17853925788E+04  0.19900000000E+03 0.  0.
   -5000001    1    1    2    0    0  0.24323024899E+02  0.92548363015E+02  0.43803370320E+03  0.49054187811E+03  0.19900000000E+03 0.  0.
<mgrwt>
<rscale>  0 0.54499497E+03</rscale>
<asrwt>0</asrwt>
<pdfrwt beam="1">  1        2 0.32040387E+00 0.54499497E+03</pdfrwt>
<pdfrwt beam="2">  1       -2 0.47296735E-02 0.54499497E+03</pdfrwt>
<totfact> 0.14031035E+03</totfact>
</mgrwt>
</event>
<event>
 4    1  0.1724904E-005  0.1486336E+04  0.7818608E-02  0.8893591E-01
         -2   -1    0    0    0  501 -0.00000000000E+00  0.00000000000E+00  0.66612867267E+03  0.66612867267E+03  0.25500000000E-02 0. -1.
          2   -1    0    0  501    0  0.00000000000E+00 -0.00000000000E+00 -0.82911657387E+03  0.82911657388E+03  0.25500000000E-02 0.  1.
    5000001    1    1    2    0    0  0.32629829460E+03  0.60278971715E+03  0.12680108181E+03  0.72491760532E+03  0.19900000000E+03 0.  0.
   -5000001    1    1    2    0    0 -0.32629829460E+03 -0.60278971715E+03 -0.28978898302E+03  0.77032764123E+03  0.19900000000E+03 0.  0.
<mgrwt>
<rscale>  0 0.14863355E+04</rscale>
<asrwt>0</asrwt>
<pdfrwt beam="1">  1        2 0.11844523E+00 0.14863355E+04</pdfrwt>
<pdfrwt beam="2">  1       -2 0.95161239E-01 0.14863355E+04</pdfrwt>
<totfact> 0.32644496E+01</totfact>
</mgrwt>
</event>
<event>
 4    1  0.1724904E-005  0.6789799E+03  0.7818608E-02  0.9753870E-01
         -2   -1    0    0    0  501 -0.00000000000E+00  0.00000000000E+00  0.24833734112E+03  0.24833734113E+03  0.25500000000E-02 0. -1.
          2   -1    0    0  501    0  0.00000000000E+00 -0.00000000000E+00 -0.46410021805E+03  0.46410021805E+03  0.25500000000E-02 0.  1.
    5000001    1    1    2    0    0  0.16879920199E+03 -0.74328217793E+02  0.10621867595E+03  0.29137821070E+03  0.19900000000E+03 0.  0.
   -5000001    1    1    2    0    0 -0.16879920199E+03  0.74328217793E+02 -0.32198155287E+03  0.42105934848E+03  0.19900000000E+03 0.  0.
<mgrwt>
<rscale>  0 0.67897986E+03</rscale>
<asrwt>0</asrwt>
<pdfrwt beam="1">  1        2 0.66300031E-01 0.67897986E+03</pdfrwt>
<pdfrwt beam="2">  1       -2 0.35476763E-01 0.67897986E+03</pdfrwt>
<totfact> 0.54886283E+02</totfact>
</mgrwt>
</event>
<event>
 4    1  0.1724904E-005  0.4600769E+03  0.7818608E-02  0.1024759E+00
         -2   -1    0    0    0  501 -0.00000000000E+00  0.00000000000E+00  0.49448285506E+03  0.49448285506E+03  0.25500000000E-02 0. -1.
          2   -1    0    0  501    0  0.00000000000E+00 -0.00000000000E+00 -0.10701620178E+03  0.10701620181E+03  0.25500000000E-02 0.  1.
    5000001    1    1    2    0    0  0.11358197584E+03  0.20386421525E+02  0.19314054047E+03  0.30036767435E+03  0.19900000000E+03 0.  0.
   -5000001    1    1    2    0    0 -0.11358197584E+03 -0.20386421525E+02  0.19432611281E+03  0.30113138252E+03  0.19900000000E+03 0.  0.
<mgrwt>
<rscale>  0 0.46007685E+03</rscale>
<asrwt>0</asrwt>
<pdfrwt beam="1">  1        2 0.15288029E-01 0.46007685E+03</pdfrwt>
<pdfrwt beam="2">  1       -2 0.70640409E-01 0.46007685E+03</pdfrwt>
<totfact> 0.71779271E+02</totfact>
</mgrwt>
</event>
<event>
 4    1  0.1724904E-005  0.5739322E+03  0.7818608E-02  0.9961015E-01
          2   -1    0    0  501    0  0.00000000000E+00  0.00000000000E+00  0.11731019277E+04  0.11731019277E+04  0.25500000000E-02 0.  1.
         -2   -1    0    0    0  501 -0.00000000000E+00 -0.00000000000E+00 -0.70198113816E+02  0.70198113862E+02  0.25500000000E-02 0. -1.
    5000001    1    1    2    0    0  0.17437356622E+03  0.10948277907E+02  0.79094668145E+03  0.83410050850E+03  0.19900000000E+03 0.  0.
   -5000001    1    1    2    0    0 -0.17437356622E+03 -0.10948277907E+02  0.31195713245E+03  0.40919953308E+03  0.19900000000E+03 0.  0.
<mgrwt>
<rscale>  0 0.57393220E+03</rscale>
<asrwt>0</asrwt>
<pdfrwt beam="1">  1        2 0.16758598E+00 0.57393220E+03</pdfrwt>
<pdfrwt beam="2">  1       -2 0.10028303E-01 0.57393220E+03</pdfrwt>
<totfact> 0.15242061E+03</totfact>
</mgrwt>
</event>
<event>
 4    1  0.1724904E-005  0.5442657E+03  0.7818608E-02  0.1002830E+00
          2   -1    0    0  501    0  0.00000000000E+00  0.00000000000E+00  0.29501049249E+03  0.29501049250E+03  0.25500000000E-02 0.  1.
         -2   -1    0    0    0  501 -0.00000000000E+00 -0.00000000000E+00 -0.25102935872E+03  0.25102935874E+03  0.25500000000E-02 0. -1.
    5000001    1    1    2    0    0  0.17617928406E+03 -0.49780423515E+02  0.52718234924E+02  0.27549490556E+03  0.19900000000E+03 0.  0.
   -5000001    1    1    2    0    0 -0.17617928406E+03  0.49780423515E+02 -0.87371011532E+01  0.27054494568E+03  0.19900000000E+03 0.  0.
<mgrwt>
<rscale>  0 0.54426572E+03</rscale>
<asrwt>0</asrwt>
<pdfrwt beam="1">  1        2 0.42144356E-01 0.54426572E+03</pdfrwt>
<pdfrwt beam="2">  1       -2 0.35861337E-01 0.54426572E+03</pdfrwt>
<totfact> 0.89107216E+02</totfact>
</mgrwt>
</event>
<event>
 4    1  0.1724904E-005  0.5817342E+03  0.7818608E-02  0.9944044E-01
          2   -1    0    0  501    0  0.00000000000E+00  0.00000000000E+00  0.93575421851E+03  0.93575421851E+03  0.25500000000E-02 0.  1.
         -2   -1    0    0    0  501 -0.00000000000E+00 -0.00000000000E+00 -0.90412269556E+02  0.90412269592E+02  0.25500000000E-02 0. -1.
    5000001    1    1    2    0    0 -0.20788762841E+03  0.37510855927E+02  0.38836024423E+03  0.48481853271E+03  0.19900000000E+03 0.  0.
   -5000001    1    1    2    0    0  0.20788762841E+03 -0.37510855927E+02  0.45698170473E+03  0.54134795540E+03  0.19900000000E+03 0.  0.
<mgrwt>
<rscale>  0 0.58173418E+03</rscale>
<asrwt>0</asrwt>
<pdfrwt beam="1">  1        2 0.13367917E+00 0.58173418E+03</pdfrwt>
<pdfrwt beam="2">  1       -2 0.12916039E-01 0.58173418E+03</pdfrwt>
<totfact> 0.13934547E+03</totfact>
</mgrwt>
</event>
<event>
 4    1  0.1724904E-005  0.9234073E+03  0.7818608E-02  0.9396785E-01
          2   -1    0    0  501    0  0.00000000000E+00  0.00000000000E+00  0.17715268557E+04  0.17715268557E+04  0.25500000000E-02 0.  1.
         -2   -1    0    0    0  501 -0.00000000000E+00 -0.00000000000E+00 -0.12033136724E+03  0.12033136727E+03  0.25500000000E-02 0. -1.
    5000001    1    1    2    0    0  0.39137248229E+03  0.96632407655E+02  0.10410511450E+04  0.11339747478E+04  0.19900000000E+03 0.  0.
   -5000001    1    1    2    0    0 -0.39137248229E+03 -0.96632407655E+02  0.61014434346E+03  0.75788347518E+03  0.19900000000E+03 0.  0.
<mgrwt>
<rscale>  0 0.92340727E+03</rscale>
<asrwt>0</asrwt>
<pdfrwt beam="1">  1        2 0.25307528E+00 0.92340727E+03</pdfrwt>
<pdfrwt beam="2">  1       -2 0.17190195E-01 0.92340727E+03</pdfrwt>
<totfact> 0.29354903E+02</totfact>
</mgrwt>
</event>
<event>
 4    1  0.1724904E-005  0.5564624E+03  0.7818608E-02  0.1000009E+00
          2   -1    0    0  501    0  0.00000000000E+00  0.00000000000E+00  0.26775436984E+03  0.26775436985E+03  0.25500000000E-02 0.  1.
         -2   -1    0    0    0  501 -0.00000000000E+00 -0.00000000000E+00 -0.28911797198E+03  0.28911797199E+03  0.25500000000E-02 0. -1.
    5000001    1    1    2    0    0  0.16446122269E+03  0.36644106212E+02  0.86453169397E+02  0.27470972824E+03  0.19900000000E+03 0.  0.
   -5000001    1    1    2    0    0 -0.16446122269E+03 -0.36644106212E+02 -0.10781677154E+03  0.28216261360E+03  0.19900000000E+03 0.  0.
<mgrwt>
<rscale>  0 0.55646240E+03</rscale>
<asrwt>0</asrwt>
<pdfrwt beam="1">  1        2 0.38250624E-01 0.55646240E+03</pdfrwt>
<pdfrwt beam="2">  1       -2 0.41302568E-01 0.55646240E+03</pdfrwt>
<totfact> 0.75552207E+02</totfact>
</mgrwt>
</event>
<event>
 4    1  0.1724904E-005  0.5173527E+03  0.7818608E-02  0.1009346E+00
          2   -1    0    0  501    0  0.00000000000E+00  0.00000000000E+00  0.64627173444E+03  0.64627173444E+03  0.25500000000E-02 0.  1.
         -2   -1    0    0    0  501 -0.00000000000E+00 -0.00000000000E+00 -0.10353763585E+03  0.10353763589E+03  0.25500000000E-02 0. -1.
    5000001    1    1    2    0    0 -0.38349789573E+02 -0.15324154933E+03  0.20097771720E+03  0.32395481415E+03  0.19900000000E+03 0.  0.
   -5000001    1    1    2    0    0  0.38349789573E+02  0.15324154933E+03  0.34175638138E+03  0.42585455618E+03  0.19900000000E+03 0.  0.
<mgrwt>
<rscale>  0 0.51735267E+03</rscale>
<asrwt>0</asrwt>
<pdfrwt beam="1">  1        2 0.92324534E-01 0.51735267E+03</pdfrwt>
<pdfrwt beam="2">  1       -2 0.14791091E-01 0.51735267E+03</pdfrwt>
<totfact> 0.17769321E+03</totfact>
</mgrwt>
</event>
<event>
 4    1  0.1724904E-005  0.5439214E+03  0.7818608E-02  0.1002911E+00
         -2   -1    0    0    0  501 -0.00000000000E+00  0.00000000000E+00  0.76509923181E+02  0.76509923224E+02  0.25500000000E-02 0.  1.
          2   -1    0    0  501    0  0.00000000000E+00 -0.00000000000E+00 -0.96670641967E+03  0.96670641967E+03  0.25500000000E-02 0. -1.
    5000001    1    1    2    0    0 -0.76607859325E+02  0.12385975697E+03 -0.66505029120E+03  0.70929746463E+03  0.19900000000E+03 0.  0.
   -5000001    1    1    2    0    0  0.76607859325E+02 -0.12385975697E+03 -0.22514620529E+03  0.33391887827E+03  0.19900000000E+03 0.  0.
<mgrwt>
<rscale>  0 0.54392144E+03</rscale>
<asrwt>0</asrwt>
<pdfrwt beam="1">  1        2 0.13810091E+00 0.54392144E+03</pdfrwt>
<pdfrwt beam="2">  1       -2 0.10929990E-01 0.54392144E+03</pdfrwt>
<totfact> 0.17542135E+03</totfact>
</mgrwt>
</event>
<event>
 4    1  0.1724904E-005  0.8043539E+03  0.7818608E-02  0.9553736E-01
          2   -1    0    0  501    0  0.00000000000E+00  0.00000000000E+00  0.19111413582E+04  0.19111413582E+04  0.25500000000E-02 0.  1.
         -2   -1    0    0    0  501 -0.00000000000E+00 -0.00000000000E+00 -0.84633357530E+02  0.84633357568E+02  0.25500000000E-02 0. -1.
    5000001    1    1    2    0    0 -0.87491728574E+02  0.24085029919E+03  0.32357185006E+03  0.45821764626E+03  0.19900000000E+03 0.  0.
   -5000001    1    1    2    0    0  0.87491728574E+02 -0.24085029919E+03  0.15029361506E+04  0.15375570695E+04  0.19900000000E+03 0.  0.
<mgrwt>
<rscale>  0 0.80435393E+03</rscale>
<asrwt>0</asrwt>
<pdfrwt beam="1">  1        2 0.27302020E+00 0.80435393E+03</pdfrwt>
<pdfrwt beam="2">  1       -2 0.12090479E-01 0.80435393E+03</pdfrwt>
<totfact> 0.45461112E+02</totfact>
</mgrwt>
</event>
<event>
 4    1  0.1724904E-005  0.6552814E+03  0.7818608E-02  0.9796919E-01
          2   -1    0    0  501    0  0.00000000000E+00  0.00000000000E+00  0.70227752780E+03  0.70227752781E+03  0.25500000000E-02 0.  1.
         -2   -1    0    0    0  501 -0.00000000000E+00 -0.00000000000E+00 -0.15285754119E+03  0.15285754121E+03  0.25500000000E-02 0. -1.
    5000001    1    1    2    0    0  0.24222095327E+03 -0.31581731366E+02  0.15741317079E+03  0.35220491521E+03  0.19900000000E+03 0.  0.
   -5000001    1    1    2    0    0 -0.24222095327E+03  0.31581731366E+02  0.39200681582E+03  0.50293015381E+03  0.19900000000E+03 0.  0.
<mgrwt>
<rscale>  0 0.65528136E+03</rscale>
<asrwt>0</asrwt>
<pdfrwt beam="1">  1        2 0.10032536E+00 0.65528136E+03</pdfrwt>
<pdfrwt beam="2">  1       -2 0.21836792E-01 0.65528136E+03</pdfrwt>
<totfact> 0.82156895E+02</totfact>
</mgrwt>
</event>
<event>
 4    1  0.1724904E-005  0.9375330E+03  0.7818608E-02  0.9379842E-01
         -2   -1    0    0    0  501 -0.00000000000E+00  0.00000000000E+00  0.15358198491E+03  0.15358198493E+03  0.25500000000E-02 0. -1.
          2   -1    0    0  501    0  0.00000000000E+00 -0.00000000000E+00 -0.14307800532E+04  0.14307800532E+04  0.25500000000E-02 0.  1.
    5000001    1    1    2    0    0 -0.27382806448E+03  0.23605545850E+03 -0.10143448379E+04  0.10950801060E+04  0.19900000000E+03 0.  0.
   -5000001    1    1    2    0    0  0.27382806448E+03 -0.23605545850E+03 -0.26285323040E+03  0.48928193214E+03  0.19900000000E+03 0.  0.
<mgrwt>
<rscale>  0 0.93753302E+03</rscale>
<asrwt>0</asrwt>
<pdfrwt beam="1">  1        2 0.20439714E+00 0.93753302E+03</pdfrwt>
<pdfrwt beam="2">  1       -2 0.21940284E-01 0.93753302E+03</pdfrwt>
<totfact> 0.28843656E+02</totfact>
</mgrwt>
</event>
<event>
 4    1  0.1724904E-005  0.4224762E+03  0.7818608E-02  0.1036263E+00
          2   -1    0    0  501    0  0.00000000000E+00  0.00000000000E+00  0.17139099798E+04  0.17139099798E+04  0.25500000000E-02 0.  1.
         -2   -1    0    0    0  501 -0.00000000000E+00 -0.00000000000E+00 -0.26034936657E+02  0.26034936781E+02  0.25500000000E-02 0. -1.
    5000001    1    1    2    0    0 -0.53885775900E+02  0.12593523006E+02  0.66168695824E+03  0.69317595484E+03  0.19900000000E+03 0.  0.
   -5000001    1    1    2    0    0  0.53885775900E+02 -0.12593523006E+02  0.10261880849E+04  0.10467689617E+04  0.19900000000E+03 0.  0.
<mgrwt>
<rscale>  0 0.42247621E+03</rscale>
<asrwt>0</asrwt>
<pdfrwt beam="1">  1        2 0.24484440E+00 0.42247621E+03</pdfrwt>
<pdfrwt beam="2">  1       -2 0.37192748E-02 0.42247621E+03</pdfrwt>
<totfact> 0.37420180E+03</totfact>
</mgrwt>
</event>
<event>
 4    1  0.1724904E-005  0.5663700E+03  0.7818608E-02  0.9977744E-01
          2   -1    0    0  501    0  0.00000000000E+00  0.00000000000E+00  0.59975188482E+03  0.59975188482E+03  0.25500000000E-02 0.  1.
         -2   -1    0    0    0  501 -0.00000000000E+00 -0.00000000000E+00 -0.13371151962E+03  0.13371151964E+03  0.25500000000E-02 0. -1.
    5000001    1    1    2    0    0 -0.16871617621E+03 -0.64039811167E+02  0.11699798792E+03  0.29301156071E+03  0.19900000000E+03 0.  0.
   -5000001    1    1    2    0    0  0.16871617621E+03  0.64039811167E+02  0.34904237728E+03  0.44045184375E+03  0.19900000000E+03 0.  0.
<mgrwt>
<rscale>  0 0.56636997E+03</rscale>
<asrwt>0</asrwt>
<pdfrwt beam="1">  1        2 0.85678841E-01 0.56636997E+03</pdfrwt>
<pdfrwt beam="2">  1       -2 0.19101646E-01 0.56636997E+03</pdfrwt>
<totfact> 0.12560603E+03</totfact>
</mgrwt>
</event>
<event>
 4    1  0.1724904E-005  0.4585096E+03  0.7818608E-02  0.1025214E+00
          2   -1    0    0  501    0  0.00000000000E+00  0.00000000000E+00  0.15658386288E+03  0.15658386290E+03  0.25500000000E-02 0.  1.
         -2   -1    0    0    0  501 -0.00000000000E+00 -0.00000000000E+00 -0.33565241956E+03  0.33565241957E+03  0.25500000000E-02 0. -1.
    5000001    1    1    2    0    0 -0.94193155581E+01 -0.51585175973E+02  0.18926885611E+02  0.20666151283E+03  0.19900000000E+03 0.  0.
   -5000001    1    1    2    0    0  0.94193155581E+01  0.51585175973E+02 -0.19799544229E+03  0.28557476964E+03  0.19900000000E+03 0.  0.
<mgrwt>
<rscale>  0 0.45850955E+03</rscale>
<asrwt>0</asrwt>
<pdfrwt beam="1">  1        2 0.22369123E-01 0.45850955E+03</pdfrwt>
<pdfrwt beam="2">  1       -2 0.47950345E-01 0.45850955E+03</pdfrwt>
<totfact> 0.10280607E+03</totfact>
</mgrwt>
</event>
<event>
 4    1  0.1724904E-005  0.4341518E+03  0.7818608E-02  0.1032556E+00
         -2   -1    0    0    0  501 -0.00000000000E+00  0.00000000000E+00  0.53885014483E+02  0.53885014543E+02  0.25500000000E-02 0. -1.
          2   -1    0    0  501    0  0.00000000000E+00 -0.00000000000E+00 -0.87449077241E+03  0.87449077241E+03  0.25500000000E-02 0.  1.
    5000001    1    1    2    0    0 -0.63373295444E+02  0.54358988341E+02 -0.36015948841E+03  0.41986537281E+03  0.19900000000E+03 0.  0.
   -5000001    1    1    2    0    0  0.63373295444E+02 -0.54358988341E+02 -0.46044626951E+03  0.50851041415E+03  0.19900000000E+03 0.  0.
<mgrwt>
<rscale>  0 0.43415181E+03</rscale>
<asrwt>0</asrwt>
<pdfrwt beam="1">  1        2 0.12492724E+00 0.43415181E+03</pdfrwt>
<pdfrwt beam="2">  1       -2 0.76978597E-02 0.43415181E+03</pdfrwt>
<totfact> 0.35172743E+03</totfact>
</mgrwt>
</event>
<event>
 4    1  0.1724904E-005  0.5347102E+03  0.7818608E-02  0.1005096E+00
         -2   -1    0    0    0  501 -0.00000000000E+00  0.00000000000E+00  0.45419051317E+02  0.45419051389E+02  0.25500000000E-02 0. -1.
          2   -1    0    0  501    0  0.00000000000E+00 -0.00000000000E+00 -0.15737612759E+04  0.15737612759E+04  0.25500000000E-02 0.  1.
    5000001    1    1    2    0    0  0.89542973189E+02 -0.15410447038E+03 -0.79616248981E+03  0.83978678366E+03  0.19900000000E+03 0.  0.
   -5000001    1    1    2    0    0 -0.89542973189E+02  0.15410447038E+03 -0.73217973481E+03  0.77939354366E+03  0.19900000000E+03 0.  0.
<mgrwt>
<rscale>  0 0.53471018E+03</rscale>
<asrwt>0</asrwt>
<pdfrwt beam="1">  1        2 0.22482301E+00 0.53471018E+03</pdfrwt>
<pdfrwt beam="2">  1       -2 0.64884369E-02 0.53471018E+03</pdfrwt>
<totfact> 0.18639140E+03</totfact>
</mgrwt>
</event>
<event>
 4    1  0.1724904E-005  0.4403819E+03  0.7818608E-02  0.1030630E+00
         -2   -1    0    0    0  501 -0.00000000000E+00  0.00000000000E+00  0.57475567718E+02  0.57475567775E+02  0.25500000000E-02 0. -1.
          2   -1    0    0  501    0  0.00000000000E+00 -0.00000000000E+00 -0.84355921509E+03  0.84355921510E+03  0.25500000000E-02 0.  1.
    5000001    1    1    2    0    0 -0.59395553309E+02  0.17294696361E+02 -0.53852750335E+03  0.57744247344E+03  0.19900000000E+03 0.  0.
   -5000001    1    1    2    0    0  0.59395553309E+02 -0.17294696361E+02 -0.24755614403E+03  0.32359230943E+03  0.19900000000E+03 0.  0.
<mgrwt>
<rscale>  0 0.44038186E+03</rscale>
<asrwt>0</asrwt>
<pdfrwt beam="1">  1        2 0.12050845E+00 0.44038186E+03</pdfrwt>
<pdfrwt beam="2">  1       -2 0.82107959E-02 0.44038186E+03</pdfrwt>
<totfact> 0.33284948E+03</totfact>
</mgrwt>
</event>
<event>
 4    1  0.1724904E-005  0.1148418E+04  0.7818608E-02  0.9159244E-01
         -2   -1    0    0    0  501 -0.00000000000E+00  0.00000000000E+00  0.61836777668E+03  0.61836777668E+03  0.25500000000E-02 0. -1.
          2   -1    0    0  501    0  0.00000000000E+00 -0.00000000000E+00 -0.53320346456E+03  0.53320346456E+03  0.25500000000E-02 0.  1.
    5000001    1    1    2    0    0  0.33683501436E+03  0.41969734332E+03  0.65252953363E+02  0.57746223670E+03  0.19900000000E+03 0.  0.
   -5000001    1    1    2    0    0 -0.33683501436E+03 -0.41969734332E+03  0.19911358756E+02  0.57410900454E+03  0.19900000000E+03 0.  0.
<mgrwt>
<rscale>  0 0.11484178E+04</rscale>
<asrwt>0</asrwt>
<pdfrwt beam="1">  1        2 0.76171924E-01 0.11484178E+04</pdfrwt>
<pdfrwt beam="2">  1       -2 0.88338254E-01 0.11484178E+04</pdfrwt>
<totfact> 0.68161921E+01</totfact>
</mgrwt>
</event>
<event>
 4    1  0.1724904E-005  0.9139153E+03  0.7818608E-02  0.9408352E-01
         -2   -1    0    0    0  501 -0.00000000000E+00  0.00000000000E+00  0.12618854443E+03  0.12618854445E+03  0.25500000000E-02 0. -1.
          2   -1    0    0  501    0  0.00000000000E+00 -0.00000000000E+00 -0.16547483154E+04  0.16547483154E+04  0.25500000000E-02 0.  1.
    5000001    1    1    2    0    0 -0.20328133712E+03  0.32223513085E+03 -0.10664869694E+04  0.11498496587E+04  0.19900000000E+03 0.  0.
   -5000001    1    1    2    0    0  0.20328133712E+03 -0.32223513085E+03 -0.46207280154E+03  0.63108720118E+03  0.19900000000E+03 0.  0.
<mgrwt>
<rscale>  0 0.91391527E+03</rscale>
<asrwt>0</asrwt>
<pdfrwt beam="1">  1        2 0.23639260E+00 0.91391527E+03</pdfrwt>
<pdfrwt beam="2">  1       -2 0.18026936E-01 0.91391527E+03</pdfrwt>
<totfact> 0.31079304E+02</totfact>
</mgrwt>
</event>
<event>
 4    1  0.1724904E-005  0.4192599E+03  0.7818608E-02  0.1037307E+00
          2   -1    0    0  501    0  0.00000000000E+00  0.00000000000E+00  0.40207349498E+02  0.40207349579E+02  0.25500000000E-02 0.  1.
         -2   -1    0    0    0  501 -0.00000000000E+00 -0.00000000000E+00 -0.10929521830E+04  0.10929521830E+04  0.25500000000E-02 0. -1.
    5000001    1    1    2    0    0 -0.50671279970E+02 -0.37295627640E+02 -0.47332883324E+03  0.51730042222E+03  0.19900000000E+03 0.  0.
   -5000001    1    1    2    0    0  0.50671279970E+02  0.37295627640E+02 -0.57941600028E+03  0.61585911038E+03  0.19900000000E+03 0.  0.
<mgrwt>
<rscale>  0 0.41925987E+03</rscale>
<asrwt>0</asrwt>
<pdfrwt beam="1">  1        2 0.57439077E-02 0.41925987E+03</pdfrwt>
<pdfrwt beam="2">  1       -2 0.15613601E+00 0.41925987E+03</pdfrwt>
<totfact> 0.37513248E+02</totfact>
</mgrwt>
</event>
<event>
 4    1  0.1724904E-005  0.4950409E+03  0.7818608E-02  0.1015081E+00
         -2   -1    0    0    0  501 -0.00000000000E+00  0.00000000000E+00  0.11200872491E+03  0.11200872494E+03  0.25500000000E-02 0. -1.
          2   -1    0    0  501    0  0.00000000000E+00 -0.00000000000E+00 -0.54697855478E+03  0.54697855478E+03  0.25500000000E-02 0.  1.
    5000001    1    1    2    0    0 -0.13213977439E+03 -0.49491639077E+02 -0.27325200783E+03  0.36630315600E+03  0.19900000000E+03 0.  0.
   -5000001    1    1    2    0    0  0.13213977439E+03  0.49491639077E+02 -0.16171782204E+03  0.29268412372E+03  0.19900000000E+03 0.  0.
<mgrwt>
<rscale>  0 0.49504089E+03</rscale>
<asrwt>0</asrwt>
<pdfrwt beam="1">  1        2 0.78139792E-01 0.49504089E+03</pdfrwt>
<pdfrwt beam="2">  1       -2 0.16001247E-01 0.49504089E+03</pdfrwt>
<totfact> 0.18915363E+03</totfact>
</mgrwt>
</event>
<event>
 4    1  0.1724904E-005  0.4479390E+03  0.7818608E-02  0.1028338E+00
          2   -1    0    0  501    0  0.00000000000E+00  0.00000000000E+00  0.26637439028E+04  0.26637439028E+04  0.25500000000E-02 0.  1.
         -2   -1    0    0    0  501 -0.00000000000E+00 -0.00000000000E+00 -0.18831515277E+02  0.18831515450E+02  0.25500000000E-02 0. -1.
    5000001    1    1    2    0    0  0.13087223780E+02  0.86185540287E+02  0.16483932762E+04  0.16626486748E+04  0.19900000000E+03 0.  0.
   -5000001    1    1    2    0    0 -0.13087223780E+02 -0.86185540287E+02  0.99651911127E+03  0.10199267434E+04  0.19900000000E+03 0.  0.
<mgrwt>
<rscale>  0 0.44793899E+03</rscale>
<asrwt>0</asrwt>
<pdfrwt beam="1">  1        2 0.38053502E+00 0.44793899E+03</pdfrwt>
<pdfrwt beam="2">  1       -2 0.26902153E-02 0.44793899E+03</pdfrwt>
<totfact> 0.20367099E+03</totfact>
</mgrwt>
</event>
<event>
 4    1  0.1724904E-005  0.7643212E+03  0.7818608E-02  0.9613147E-01
          2   -1    0    0  501    0  0.00000000000E+00  0.00000000000E+00  0.19756265308E+03  0.19756265309E+03  0.25500000000E-02 0.  1.
         -2   -1    0    0    0  501 -0.00000000000E+00 -0.00000000000E+00 -0.73924258896E+03  0.73924258896E+03  0.25500000000E-02 0. -1.
    5000001    1    1    2    0    0  0.16451803082E+02 -0.29007076308E+03 -0.88903294642E+02  0.36320311840E+03  0.19900000000E+03 0.  0.
   -5000001    1    1    2    0    0 -0.16451803082E+02  0.29007076308E+03 -0.45277664124E+03  0.57360212366E+03  0.19900000000E+03 0.  0.
<mgrwt>
<rscale>  0 0.76432121E+03</rscale>
<asrwt>0</asrwt>
<pdfrwt beam="1">  1        2 0.28223236E-01 0.76432121E+03</pdfrwt>
<pdfrwt beam="2">  1       -2 0.10560608E+00 0.76432121E+03</pdfrwt>
<totfact> 0.13945567E+02</totfact>
</mgrwt>
</event>
<event>
 4    1  0.1724904E-005  0.4646737E+03  0.7818608E-02  0.1023434E+00
          2   -1    0    0  501    0  0.00000000000E+00  0.00000000000E+00  0.77801033870E+03  0.77801033870E+03  0.25500000000E-02 0.  1.
         -2   -1    0    0    0  501 -0.00000000000E+00 -0.00000000000E+00 -0.69382653395E+02  0.69382653442E+02  0.25500000000E-02 0. -1.
    5000001    1    1    2    0    0  0.19999963723E+01 -0.99910423549E+02  0.47518803858E+03  0.52477687137E+03  0.19900000000E+03 0.  0.
   -5000001    1    1    2    0    0 -0.19999963723E+01  0.99910423549E+02  0.23343964672E+03  0.32261612077E+03  0.19900000000E+03 0.  0.
<mgrwt>
<rscale>  0 0.46467374E+03</rscale>
<asrwt>0</asrwt>
<pdfrwt beam="1">  1        2 0.11114433E+00 0.46467374E+03</pdfrwt>
<pdfrwt beam="2">  1       -2 0.99118078E-02 0.46467374E+03</pdfrwt>
<totfact> 0.27317845E+03</totfact>
</mgrwt>
</event>
<event>
 4    1  0.1724904E-005  0.8985350E+03  0.7818608E-02  0.9427415E-01
         -2   -1    0    0    0  501 -0.00000000000E+00  0.00000000000E+00  0.60219656956E+02  0.60219657010E+02  0.25500000000E-02 0. -1.
          2   -1    0    0  501    0  0.00000000000E+00 -0.00000000000E+00 -0.33517506159E+04  0.33517506159E+04  0.25500000000E-02 0.  1.
    5000001    1    1    2    0    0 -0.72521842164E+02 -0.28055101069E+03 -0.27081296858E+04  0.27308488941E+04  0.19900000000E+03 0.  0.
   -5000001    1    1    2    0    0  0.72521842164E+02  0.28055101069E+03 -0.58340127312E+03  0.68112137881E+03  0.19900000000E+03 0.  0.
<mgrwt>
<rscale>  0 0.89853497E+03</rscale>
<asrwt>0</asrwt>
<pdfrwt beam="1">  1        2 0.47882140E+00 0.89853497E+03</pdfrwt>
<pdfrwt beam="2">  1       -2 0.86028103E-02 0.89853497E+03</pdfrwt>
<totfact> 0.13483957E+02</totfact>
</mgrwt>
</event>
<event>
 4    1  0.1724904E-005  0.1053222E+04  0.7818608E-02  0.9252024E-01
         -2   -1    0    0    0  501 -0.00000000000E+00  0.00000000000E+00  0.12815037840E+03  0.12815037843E+03  0.25500000000E-02 0. -1.
          2   -1    0    0  501    0  0.00000000000E+00 -0.00000000000E+00 -0.21640138578E+04  0.21640138578E+04  0.25500000000E-02 0.  1.
    5000001    1    1    2    0    0  0.38103081249E+03  0.23774147157E+03 -0.14309351686E+04  0.15129051339E+04  0.19900000000E+03 0.  0.
   -5000001    1    1    2    0    0 -0.38103081249E+03 -0.23774147157E+03 -0.60492831072E+03  0.77925910227E+03  0.19900000000E+03 0.  0.
<mgrwt>
<rscale>  0 0.10532221E+04</rscale>
<asrwt>0</asrwt>
<pdfrwt beam="1">  1        2 0.30914481E+00 0.10532221E+04</pdfrwt>
<pdfrwt beam="2">  1       -2 0.18307198E-01 0.10532221E+04</pdfrwt>
<totfact> 0.16445509E+02</totfact>
</mgrwt>
</event>
<event>
 4    1  0.1724904E-005  0.4174796E+03  0.7818608E-02  0.1037890E+00
         -2   -1    0    0    0  501 -0.00000000000E+00  0.00000000000E+00  0.21899111419E+02  0.21899111567E+02  0.25500000000E-02 0. -1.
          2   -1    0    0  501    0  0.00000000000E+00 -0.00000000000E+00 -0.19896836275E+04  0.19896836275E+04  0.25500000000E-02 0.  1.
    5000001    1    1    2    0    0 -0.35945334969E+02  0.51442788641E+02 -0.10115197873E+04  0.10328173641E+04  0.19900000000E+03 0.  0.
   -5000001    1    1    2    0    0  0.35945334969E+02 -0.51442788641E+02 -0.95626472878E+03  0.97876537490E+03  0.19900000000E+03 0.  0.
<mgrwt>
<rscale>  0 0.41747960E+03</rscale>
<asrwt>0</asrwt>
<pdfrwt beam="1">  1        2 0.28424040E+00 0.41747960E+03</pdfrwt>
<pdfrwt beam="2">  1       -2 0.31284458E-02 0.41747960E+03</pdfrwt>
<totfact> 0.35451119E+03</totfact>
</mgrwt>
</event>
<event>
 4    1  0.1724904E-005  0.7428550E+03  0.7818608E-02  0.9646627E-01
         -2   -1    0    0    0  501 -0.00000000000E+00  0.00000000000E+00  0.11237853346E+03  0.11237853349E+03  0.25500000000E-02 0. -1.
          2   -1    0    0  501    0  0.00000000000E+00 -0.00000000000E+00 -0.12276222208E+04  0.12276222208E+04  0.25500000000E-02 0.  1.
    5000001    1    1    2    0    0 -0.99279543565E+02 -0.28668996930E+03 -0.41433397182E+03  0.55074604535E+03  0.19900000000E+03 0.  0.
   -5000001    1    1    2    0    0  0.99279543565E+02  0.28668996930E+03 -0.70090971549E+03  0.78925470891E+03  0.19900000000E+03 0.  0.
<mgrwt>
<rscale>  0 0.74285499E+03</rscale>
<asrwt>0</asrwt>
<pdfrwt beam="1">  1        2 0.17537459E+00 0.74285499E+03</pdfrwt>
<pdfrwt beam="2">  1       -2 0.16054077E-01 0.74285499E+03</pdfrwt>
<totfact> 0.64709798E+02</totfact>
</mgrwt>
</event>
<event>
 4    1  0.1724904E-005  0.1262776E+04  0.7818608E-02  0.9059616E-01
          2   -1    0    0  501    0  0.00000000000E+00  0.00000000000E+00  0.31292867433E+04  0.31292867433E+04  0.25500000000E-02 0.  1.
         -2   -1    0    0    0  501 -0.00000000000E+00 -0.00000000000E+00 -0.12739358088E+03  0.12739358090E+03  0.25500000000E-02 0. -1.
    5000001    1    1    2    0    0 -0.15909248002E+03  0.57287742577E+03  0.16930952993E+04  0.18054560794E+04  0.19900000000E+03 0.  0.
   -5000001    1    1    2    0    0  0.15909248002E+03 -0.57287742577E+03  0.13087978631E+04  0.14512242448E+04  0.19900000000E+03 0.  0.
<mgrwt>
<rscale>  0 0.12627764E+04</rscale>
<asrwt>0</asrwt>
<pdfrwt beam="1">  1        2 0.44704098E+00 0.12627764E+04</pdfrwt>
<pdfrwt beam="2">  1       -2 0.18199082E-01 0.12627764E+04</pdfrwt>
<totfact> 0.49947372E+01</totfact>
</mgrwt>
</event>
<event>
 4    1  0.1724904E-005  0.6011296E+03  0.7818608E-02  0.9903065E-01
         -2   -1    0    0    0  501 -0.00000000000E+00  0.00000000000E+00  0.12309969136E+03  0.12309969139E+03  0.25500000000E-02 0. -1.
          2   -1    0    0  501    0  0.00000000000E+00 -0.00000000000E+00 -0.73387034155E+03  0.73387034155E+03  0.25500000000E-02 0.  1.
    5000001    1    1    2    0    0  0.43996078948E+01 -0.21333500543E+03 -0.20251441298E+03  0.35516794416E+03  0.19900000000E+03 0.  0.
   -5000001    1    1    2    0    0 -0.43996078948E+01  0.21333500543E+03 -0.40825623721E+03  0.50180208879E+03  0.19900000000E+03 0.  0.
<mgrwt>
<rscale>  0 0.60112965E+03</rscale>
<asrwt>0</asrwt>
<pdfrwt beam="1">  1        2 0.10483862E+00 0.60112965E+03</pdfrwt>
<pdfrwt beam="2">  1       -2 0.17585671E-01 0.60112965E+03</pdfrwt>
<totfact> 0.11349855E+03</totfact>
</mgrwt>
</event>
<event>
 4    1  0.1724904E-005  0.5725955E+03  0.7818608E-02  0.9963952E-01
         -2   -1    0    0    0  501 -0.00000000000E+00  0.00000000000E+00  0.73703074003E+02  0.73703074047E+02  0.25500000000E-02 0. -1.
          2   -1    0    0  501    0  0.00000000000E+00 -0.00000000000E+00 -0.11121164590E+04  0.11121164590E+04  0.25500000000E-02 0.  1.
    5000001    1    1    2    0    0 -0.12728101289E+03 -0.15434929583E+03 -0.61941267910E+03  0.68065940704E+03  0.19900000000E+03 0.  0.
   -5000001    1    1    2    0    0  0.12728101289E+03  0.15434929583E+03 -0.41900070588E+03  0.50516012599E+03  0.19900000000E+03 0.  0.
<mgrwt>
<rscale>  0 0.57259550E+03</rscale>
<asrwt>0</asrwt>
<pdfrwt beam="1">  1        2 0.15887377E+00 0.57259550E+03</pdfrwt>
<pdfrwt beam="2">  1       -2 0.10529011E-01 0.57259550E+03</pdfrwt>
<totfact> 0.15259756E+03</totfact>
</mgrwt>
</event>
<event>
 4    1  0.1724904E-005  0.9192038E+03  0.7818608E-02  0.9401889E-01
          2   -1    0    0  501    0  0.00000000000E+00  0.00000000000E+00  0.56858340966E+03  0.56858340966E+03  0.25500000000E-02 0.  1.
         -2   -1    0    0    0  501 -0.00000000000E+00 -0.00000000000E+00 -0.37150910518E+03  0.37150910519E+03  0.25500000000E-02 0. -1.
    5000001    1    1    2    0    0 -0.20675603550E+03 -0.35560707387E+03  0.14893647033E+03  0.48061161180E+03  0.19900000000E+03 0.  0.
   -5000001    1    1    2    0    0  0.20675603550E+03  0.35560707387E+03  0.48137834146E+02  0.45948090306E+03  0.19900000000E+03 0.  0.
<mgrwt>
<rscale>  0 0.91920382E+03</rscale>
<asrwt>0</asrwt>
<pdfrwt beam="1">  1        2 0.81226200E-01 0.91920382E+03</pdfrwt>
<pdfrwt beam="2">  1       -2 0.53072730E-01 0.91920382E+03</pdfrwt>
<totfact> 0.19402027E+02</totfact>
</mgrwt>
</event>
<event>
 4    1  0.1724904E-005  0.6945715E+03  0.7818608E-02  0.9726561E-01
         -2   -1    0    0    0  501 -0.00000000000E+00  0.00000000000E+00  0.57556543442E+03  0.57556543442E+03  0.25500000000E-02 0. -1.
          2   -1    0    0  501    0  0.00000000000E+00 -0.00000000000E+00 -0.20954592461E+03  0.20954592463E+03  0.25500000000E-02 0.  1.
    5000001    1    1    2    0    0  0.26054300208E+03 -0.78853107724E+02  0.89075248615E+02  0.34876334160E+03  0.19900000000E+03 0.  0.
   -5000001    1    1    2    0    0 -0.26054300208E+03  0.78853107724E+02  0.27694426119E+03  0.43634801745E+03  0.19900000000E+03 0.  0.
<mgrwt>
<rscale>  0 0.69457150E+03</rscale>
<asrwt>0</asrwt>
<pdfrwt beam="1">  1        2 0.29935132E-01 0.69457150E+03</pdfrwt>
<pdfrwt beam="2">  1       -2 0.82223634E-01 0.69457150E+03</pdfrwt>
<totfact> 0.23404098E+02</totfact>
</mgrwt>
</event>
<event>
 4    1  0.1724904E-005  0.4889217E+03  0.7818608E-02  0.1016712E+00
         -2   -1    0    0    0  501 -0.00000000000E+00  0.00000000000E+00  0.17167661067E+03  0.17167661069E+03  0.25500000000E-02 0. -1.
          2   -1    0    0  501    0  0.00000000000E+00 -0.00000000000E+00 -0.34810285688E+03  0.34810285688E+03  0.25500000000E-02 0.  1.
    5000001    1    1    2    0    0  0.62320736485E+02 -0.97818592202E+02 -0.17528316722E+03  0.28944350033E+03  0.19900000000E+03 0.  0.
   -5000001    1    1    2    0    0 -0.62320736485E+02  0.97818592202E+02 -0.11430789844E+01  0.23033596724E+03  0.19900000000E+03 0.  0.
<mgrwt>
<rscale>  0 0.48892175E+03</rscale>
<asrwt>0</asrwt>
<pdfrwt beam="1">  1        2 0.49728980E-01 0.48892175E+03</pdfrwt>
<pdfrwt beam="2">  1       -2 0.24525230E-01 0.48892175E+03</pdfrwt>
<totfact> 0.14941233E+03</totfact>
</mgrwt>
</event>
<event>
 4    1  0.1724904E-005  0.7980886E+03  0.7818608E-02  0.9562788E-01
          2   -1    0    0  501    0  0.00000000000E+00  0.00000000000E+00  0.12028060298E+04  0.12028060298E+04  0.25500000000E-02 0.  1.
         -2   -1    0    0    0  501 -0.00000000000E+00 -0.00000000000E+00 -0.13238739739E+03  0.13238739741E+03  0.25500000000E-02 0. -1.
    5000001    1    1    2    0    0  0.22251332121E+03 -0.26456979175E+03  0.55398909562E+03  0.68265237925E+03  0.19900000000E+03 0.  0.
   -5000001    1    1    2    0    0 -0.22251332121E+03  0.26456979175E+03  0.51642953684E+03  0.65254104801E+03  0.19900000000E+03 0.  0.
<mgrwt>
<rscale>  0 0.79808862E+03</rscale>
<asrwt>0</asrwt>
<pdfrwt beam="1">  1        2 0.17182944E+00 0.79808862E+03</pdfrwt>
<pdfrwt beam="2">  1       -2 0.18912484E-01 0.79808862E+03</pdfrwt>
<totfact> 0.50294092E+02</totfact>
</mgrwt>
</event>
<event>
 4    1  0.1724904E-005  0.4248419E+03  0.7818608E-02  0.1035502E+00
          2   -1    0    0  501    0  0.00000000000E+00  0.00000000000E+00  0.76275271063E+02  0.76275271105E+02  0.25500000000E-02 0.  1.
         -2   -1    0    0    0  501 -0.00000000000E+00 -0.00000000000E+00 -0.59157666027E+03  0.59157666028E+03  0.25500000000E-02 0. -1.
    5000001    1    1    2    0    0  0.73328432065E+02 -0.40645612407E+01 -0.23985924649E+03  0.32019843493E+03  0.19900000000E+03 0.  0.
   -5000001    1    1    2    0    0 -0.73328432065E+02  0.40645612407E+01 -0.27544214272E+03  0.34765349645E+03  0.19900000000E+03 0.  0.
<mgrwt>
<rscale>  0 0.42484195E+03</rscale>
<asrwt>0</asrwt>
<pdfrwt beam="1">  1        2 0.10896468E-01 0.42484195E+03</pdfrwt>
<pdfrwt beam="2">  1       -2 0.84510949E-01 0.42484195E+03</pdfrwt>
<totfact> 0.73094724E+02</totfact>
</mgrwt>
</event>
<event>
 4    1  0.1724904E-005  0.6528563E+03  0.7818608E-02  0.9801434E-01
          2   -1    0    0  501    0  0.00000000000E+00  0.00000000000E+00  0.82209485098E+03  0.82209485098E+03  0.25500000000E-02 0.  1.
         -2   -1    0    0    0  501 -0.00000000000E+00 -0.00000000000E+00 -0.12961440009E+03  0.12961440011E+03  0.25500000000E-02 0. -1.
    5000001    1    1    2    0    0 -0.98994910564E+02  0.20109859140E+03  0.15777859566E+03  0.33872661695E+03  0.19900000000E+03 0.  0.
   -5000001    1    1    2    0    0  0.98994910564E+02 -0.20109859140E+03  0.53470185523E+03  0.61298263415E+03  0.19900000000E+03 0.  0.
<mgrwt>
<rscale>  0 0.65285628E+03</rscale>
<asrwt>0</asrwt>
<pdfrwt beam="1">  1        2 0.11744212E+00 0.65285628E+03</pdfrwt>
<pdfrwt beam="2">  1       -2 0.18516342E-01 0.65285628E+03</pdfrwt>
<totfact> 0.89858404E+02</totfact>
</mgrwt>
</event>
<event>
 4    1  0.1724904E-005  0.5669989E+03  0.7818608E-02  0.9976342E-01
          2   -1    0    0  501    0  0.00000000000E+00  0.00000000000E+00  0.22504551548E+04  0.22504551548E+04  0.25500000000E-02 0.  1.
         -2   -1    0    0    0  501 -0.00000000000E+00 -0.00000000000E+00 -0.35713633026E+02  0.35713633117E+02  0.25500000000E-02 0. -1.
    5000001    1    1    2    0    0  0.19540636466E+03 -0.50798127192E+02  0.10968313070E+04  0.11328742265E+04  0.19900000000E+03 0.  0.
   -5000001    1    1    2    0    0 -0.19540636466E+03  0.50798127192E+02  0.11179102148E+04  0.11532945614E+04  0.19900000000E+03 0.  0.
<mgrwt>
<rscale>  0 0.56699887E+03</rscale>
<asrwt>0</asrwt>
<pdfrwt beam="1">  1        2 0.32149358E+00 0.56699887E+03</pdfrwt>
<pdfrwt beam="2">  1       -2 0.51019478E-02 0.56699887E+03</pdfrwt>
<totfact> 0.12352430E+03</totfact>
</mgrwt>
</event>
<event>
 4    1  0.1724904E-005  0.5846520E+03  0.7818608E-02  0.9937770E-01
          2   -1    0    0  501    0  0.00000000000E+00  0.00000000000E+00  0.10759261659E+03  0.10759261662E+03  0.25500000000E-02 0.  1.
         -2   -1    0    0    0  501 -0.00000000000E+00 -0.00000000000E+00 -0.79424131887E+03  0.79424131887E+03  0.25500000000E-02 0. -1.
    5000001    1    1    2    0    0 -0.11165093308E+03 -0.13945878011E+03 -0.16121086749E+03  0.31225730736E+03  0.19900000000E+03 0.  0.
   -5000001    1    1    2    0    0  0.11165093308E+03  0.13945878011E+03 -0.52543783479E+03  0.58957662813E+03  0.19900000000E+03 0.  0.
<mgrwt>
<rscale>  0 0.58465204E+03</rscale>
<asrwt>0</asrwt>
<pdfrwt beam="1">  1        2 0.15370374E-01 0.58465204E+03</pdfrwt>
<pdfrwt beam="2">  1       -2 0.11346304E+00 0.58465204E+03</pdfrwt>
<totfact> 0.24022041E+02</totfact>
</mgrwt>
</event>
<event>
 4    1  0.1724904E-005  0.6932558E+03  0.7818608E-02  0.9728836E-01
         -2   -1    0    0    0  501 -0.00000000000E+00  0.00000000000E+00  0.12381305114E+03  0.12381305117E+03  0.25500000000E-02 0. -1.
          2   -1    0    0  501    0  0.00000000000E+00 -0.00000000000E+00 -0.97042193797E+03  0.97042193798E+03  0.25500000000E-02 0.  1.
    5000001    1    1    2    0    0 -0.26343518154E+03 -0.92580407118E+01 -0.58934503814E+03  0.67558299281E+03  0.19900000000E+03 0.  0.
   -5000001    1    1    2    0    0  0.26343518154E+03  0.92580407118E+01 -0.25726384869E+03  0.41865199634E+03  0.19900000000E+03 0.  0.
<mgrwt>
<rscale>  0 0.69325580E+03</rscale>
<asrwt>0</asrwt>
<pdfrwt beam="1">  1        2 0.13863170E+00 0.69325580E+03</pdfrwt>
<pdfrwt beam="2">  1       -2 0.17687579E-01 0.69325580E+03</pdfrwt>
<totfact> 0.77771810E+02</totfact>
</mgrwt>
</event>
<event>
 4    1  0.1724904E-005  0.7181691E+03  0.7818608E-02  0.9686655E-01
          2   -1    0    0  501    0  0.00000000000E+00  0.00000000000E+00  0.49007712852E+03  0.49007712853E+03  0.25500000000E-02 0.  1.
         -2   -1    0    0    0  501 -0.00000000000E+00 -0.00000000000E+00 -0.26310495122E+03  0.26310495123E+03  0.25500000000E-02 0. -1.
    5000001    1    1    2    0    0 -0.16157447972E+03 -0.23720379771E+03  0.20103508268E+03  0.40297401729E+03  0.19900000000E+03 0.  0.
   -5000001    1    1    2    0    0  0.16157447972E+03  0.23720379771E+03  0.25937094625E+02  0.35020806247E+03  0.19900000000E+03 0.  0.
<mgrwt>
<rscale>  0 0.71816911E+03</rscale>
<asrwt>0</asrwt>
<pdfrwt beam="1">  1        2 0.70011019E-01 0.71816911E+03</pdfrwt>
<pdfrwt beam="2">  1       -2 0.37586421E-01 0.71816911E+03</pdfrwt>
<totfact> 0.46148394E+02</totfact>
</mgrwt>
</event>
<event>
 4    1  0.1724904E-005  0.7444143E+03  0.7818608E-02  0.9644154E-01
         -2   -1    0    0    0  501 -0.00000000000E+00  0.00000000000E+00  0.34151710850E+03  0.34151710851E+03  0.25500000000E-02 0. -1.
          2   -1    0    0  501    0  0.00000000000E+00 -0.00000000000E+00 -0.40565512340E+03  0.40565512341E+03  0.25500000000E-02 0.  1.
    5000001    1    1    2    0    0 -0.19628000305E+03 -0.14943431294E+03  0.16379675998E+03  0.35677280174E+03  0.19900000000E+03 0.  0.
   -5000001    1    1    2    0    0  0.19628000305E+03  0.14943431294E+03 -0.22793477489E+03  0.39039943018E+03  0.19900000000E+03 0.  0.
<mgrwt>
<rscale>  0 0.74441431E+03</rscale>
<asrwt>0</asrwt>
<pdfrwt beam="1">  1        2 0.57950732E-01 0.74441431E+03</pdfrwt>
<pdfrwt beam="2">  1       -2 0.48788158E-01 0.74441431E+03</pdfrwt>
<totfact> 0.34116960E+02</totfact>
</mgrwt>
</event>
<event>
 4    1  0.1724904E-005  0.8183129E+03  0.7818608E-02  0.9533882E-01
          2   -1    0    0  501    0  0.00000000000E+00  0.00000000000E+00  0.22244075491E+03  0.22244075493E+03  0.25500000000E-02 0. -1.
         -2   -1    0    0    0  501 -0.00000000000E+00 -0.00000000000E+00 -0.75260038007E+03  0.75260038007E+03  0.25500000000E-02 0.  1.
    5000001    1    1    2    0    0 -0.21868965520E+03  0.28158878980E+03 -0.29639190385E+03  0.50454590723E+03  0.19900000000E+03 0.  0.
   -5000001    1    1    2    0    0  0.21868965520E+03 -0.28158878980E+03 -0.23376772131E+03  0.47049522777E+03  0.19900000000E+03 0.  0.
<mgrwt>
<rscale>  0 0.81831289E+03</rscale>
<asrwt>0</asrwt>
<pdfrwt beam="1">  1        2 0.31777251E-01 0.81831289E+03</pdfrwt>
<pdfrwt beam="2">  1       -2 0.10751434E+00 0.81831289E+03</pdfrwt>
<totfact> 0.11655507E+02</totfact>
</mgrwt>
</event>
<event>
 4    1  0.1724904E-005  0.5421317E+03  0.7818608E-02  0.1003332E+00
         -2   -1    0    0    0  501 -0.00000000000E+00  0.00000000000E+00  0.65286136739E+02  0.65286136789E+02  0.25500000000E-02 0. -1.
          2   -1    0    0  501    0  0.00000000000E+00 -0.00000000000E+00 -0.11254564308E+04  0.11254564308E+04  0.25500000000E-02 0.  1.
    5000001    1    1    2    0    0 -0.12830538006E+03  0.23694771783E+02 -0.24495794816E+03  0.34151004250E+03  0.19900000000E+03 0.  0.
   -5000001    1    1    2    0    0  0.12830538006E+03 -0.23694771783E+02 -0.81521234588E+03  0.84923252507E+03  0.19900000000E+03 0.  0.
<mgrwt>
<rscale>  0 0.54213173E+03</rscale>
<asrwt>0</asrwt>
<pdfrwt beam="1">  1        2 0.16077948E+00 0.54213173E+03</pdfrwt>
<pdfrwt beam="2">  1       -2 0.93265916E-02 0.54213173E+03</pdfrwt>
<totfact> 0.18249877E+03</totfact>
</mgrwt>
</event>
<event>
 4    1  0.1724904E-005  0.4941594E+03  0.7818608E-02  0.1015315E+00
         -2   -1    0    0    0  501 -0.00000000000E+00  0.00000000000E+00  0.20763419761E+02  0.20763419918E+02  0.25500000000E-02 0. -1.
          2   -1    0    0  501    0  0.00000000000E+00 -0.00000000000E+00 -0.29401887233E+04  0.29401887233E+04  0.25500000000E-02 0.  1.
    5000001    1    1    2    0    0  0.13463591905E+03 -0.36046487885E+02 -0.17290944369E+04  0.17460798240E+04  0.19900000000E+03 0.  0.
   -5000001    1    1    2    0    0 -0.13463591905E+03  0.36046487885E+02 -0.11903308667E+04  0.12148723193E+04  0.19900000000E+03 0.  0.
<mgrwt>
<rscale>  0 0.49415938E+03</rscale>
<asrwt>0</asrwt>
<pdfrwt beam="1">  1        2 0.42002670E+00 0.49415938E+03</pdfrwt>
<pdfrwt beam="2">  1       -2 0.29662047E-02 0.49415938E+03</pdfrwt>
<totfact> 0.12531907E+03</totfact>
</mgrwt>
</event>
<event>
 4    1  0.1724904E-005  0.5947677E+03  0.7818608E-02  0.9916321E-01
         -2   -1    0    0    0  501 -0.00000000000E+00  0.00000000000E+00  0.31305444855E+02  0.31305444959E+02  0.25500000000E-02 0. -1.
          2   -1    0    0  501    0  0.00000000000E+00 -0.00000000000E+00 -0.28249769102E+04  0.28249769102E+04  0.25500000000E-02 0.  1.
    5000001    1    1    2    0    0 -0.93489176426E+02 -0.18530223393E+03 -0.10323942074E+04  0.10716883612E+04  0.19900000000E+03 0.  0.
   -5000001    1    1    2    0    0  0.93489176426E+02  0.18530223393E+03 -0.17612772579E+04  0.17845939940E+04  0.19900000000E+03 0.  0.
<mgrwt>
<rscale>  0 0.59476772E+03</rscale>
<asrwt>0</asrwt>
<pdfrwt beam="1">  1        2 0.40356797E+00 0.59476772E+03</pdfrwt>
<pdfrwt beam="2">  1       -2 0.44722082E-02 0.59476772E+03</pdfrwt>
<totfact> 0.76432073E+02</totfact>
</mgrwt>
</event>
<event>
 4    1  0.1724904E-005  0.5902953E+03  0.7818608E-02  0.9925747E-01
         -2   -1    0    0    0  501 -0.00000000000E+00  0.00000000000E+00  0.44132840848E+02  0.44132840921E+02  0.25500000000E-02 0. -1.
          2   -1    0    0  501    0  0.00000000000E+00 -0.00000000000E+00 -0.19738616621E+04  0.19738616621E+04  0.25500000000E-02 0.  1.
    5000001    1    1    2    0    0  0.21324480919E+03  0.45141376415E+02 -0.96545805804E+03  0.10095649332E+04  0.19900000000E+03 0.  0.
   -5000001    1    1    2    0    0 -0.21324480919E+03 -0.45141376415E+02 -0.96427076324E+03  0.10084295698E+04  0.19900000000E+03 0.  0.
<mgrwt>
<rscale>  0 0.59029526E+03</rscale>
<asrwt>0</asrwt>
<pdfrwt beam="1">  1        2 0.28198018E+00 0.59029526E+03</pdfrwt>
<pdfrwt beam="2">  1       -2 0.63046928E-02 0.59029526E+03</pdfrwt>
<totfact> 0.12209045E+03</totfact>
</mgrwt>
</event>
<event>
 4    1  0.1724904E-005  0.5011253E+03  0.7818608E-02  0.1013486E+00
          2   -1    0    0  501    0  0.00000000000E+00  0.00000000000E+00  0.32253812290E+04  0.32253812290E+04  0.25500000000E-02 0.  1.
         -2   -1    0    0    0  501 -0.00000000000E+00 -0.00000000000E+00 -0.19464876162E+02  0.19464876329E+02  0.25500000000E-02 0. -1.
    5000001    1    1    2    0    0  0.11546398098E+03  0.98908108354E+02  0.16555230912E+04  0.16743573246E+04  0.19900000000E+03 0.  0.
   -5000001    1    1    2    0    0 -0.11546398098E+03 -0.98908108354E+02  0.15503932616E+04  0.15704887808E+04  0.19900000000E+03 0.  0.
<mgrwt>
<rscale>  0 0.50112532E+03</rscale>
<asrwt>0</asrwt>
<pdfrwt beam="1">  1        2 0.46076826E+00 0.50112532E+03</pdfrwt>
<pdfrwt beam="2">  1       -2 0.27806996E-02 0.50112532E+03</pdfrwt>
<totfact> 0.96346173E+02</totfact>
</mgrwt>
</event>
<event>
 4    1  0.1724904E-005  0.1608244E+04  0.7818608E-02  0.8815499E-01
         -2   -1    0    0    0  501 -0.00000000000E+00  0.00000000000E+00  0.43265229771E+03  0.43265229771E+03  0.25500000000E-02 0. -1.
          2   -1    0    0  501    0  0.00000000000E+00 -0.00000000000E+00 -0.14945313503E+04  0.14945313503E+04  0.25500000000E-02 0.  1.
    5000001    1    1    2    0    0 -0.10493189160E+03  0.70406717160E+03 -0.91042940755E+03  0.11726909184E+04  0.19900000000E+03 0.  0.
   -5000001    1    1    2    0    0  0.10493189160E+03 -0.70406717160E+03 -0.15144964501E+03  0.75449272957E+03  0.19900000000E+03 0.  0.
<mgrwt>
<rscale>  0 0.16082443E+04</rscale>
<asrwt>0</asrwt>
<pdfrwt beam="1">  1        2 0.21350448E+00 0.16082443E+04</pdfrwt>
<pdfrwt beam="2">  1       -2 0.61807472E-01 0.16082443E+04</pdfrwt>
<totfact> 0.34365730E+01</totfact>
</mgrwt>
</event>
<event>
 4    1  0.1724904E-005  0.4473702E+03  0.7818608E-02  0.1028509E+00
         -2   -1    0    0    0  501 -0.00000000000E+00  0.00000000000E+00  0.89884898538E+02  0.89884898574E+02  0.25500000000E-02 0.  1.
          2   -1    0    0  501    0  0.00000000000E+00 -0.00000000000E+00 -0.55665658919E+03  0.55665658919E+03  0.25500000000E-02 0. -1.
    5000001    1    1    2    0    0 -0.67565275598E+02 -0.39514254305E+02 -0.32823772660E+03  0.39174921560E+03  0.19900000000E+03 0.  0.
   -5000001    1    1    2    0    0  0.67565275598E+02  0.39514254305E+02 -0.13853396404E+03  0.25479227216E+03  0.19900000000E+03 0.  0.
<mgrwt>
<rscale>  0 0.44737019E+03</rscale>
<asrwt>0</asrwt>
<pdfrwt beam="1">  1        2 0.79522368E-01 0.44737019E+03</pdfrwt>
<pdfrwt beam="2">  1       -2 0.12840700E-01 0.44737019E+03</pdfrwt>
<totfact> 0.26729383E+03</totfact>
</mgrwt>
</event>
<event>
 4    1  0.1724904E-005  0.7110601E+03  0.7818608E-02  0.9698503E-01
          2   -1    0    0  501    0  0.00000000000E+00  0.00000000000E+00  0.37879847560E+03  0.37879847561E+03  0.25500000000E-02 0.  1.
         -2   -1    0    0    0  501 -0.00000000000E+00 -0.00000000000E+00 -0.33369090018E+03  0.33369090019E+03  0.25500000000E-02 0. -1.
    5000001    1    1    2    0    0  0.23278226239E+03 -0.90692259323E+02 -0.13392649927E+03  0.34633794882E+03  0.19900000000E+03 0.  0.
   -5000001    1    1    2    0    0 -0.23278226239E+03  0.90692259323E+02  0.17903407468E+03  0.36615142698E+03  0.19900000000E+03 0.  0.
<mgrwt>
<rscale>  0 0.71106007E+03</rscale>
<asrwt>0</asrwt>
<pdfrwt beam="1">  1        2 0.54114068E-01 0.71106007E+03</pdfrwt>
<pdfrwt beam="2">  1       -2 0.47670128E-01 0.71106007E+03</pdfrwt>
<totfact> 0.38630076E+02</totfact>
</mgrwt>
</event>
<event>
 4    1  0.1724904E-005  0.6391113E+03  0.7818608E-02  0.9827428E-01
          2   -1    0    0  501    0  0.00000000000E+00  0.00000000000E+00  0.36819202008E+03  0.36819202009E+03  0.25500000000E-02 0. -1.
         -2   -1    0    0    0  501 -0.00000000000E+00 -0.00000000000E+00 -0.27734391084E+03  0.27734391086E+03  0.25500000000E-02 0.  1.
    5000001    1    1    2    0    0  0.20026305267E+03  0.14703197367E+03  0.73833712025E+02  0.32676613744E+03  0.19900000000E+03 0.  0.
   -5000001    1    1    2    0    0 -0.20026305267E+03 -0.14703197367E+03  0.17014397215E+02  0.31876979351E+03  0.19900000000E+03 0.  0.
<mgrwt>
<rscale>  0 0.63911130E+03</rscale>
<asrwt>0</asrwt>
<pdfrwt beam="1">  1        2 0.52598860E-01 0.63911130E+03</pdfrwt>
<pdfrwt beam="2">  1       -2 0.39620559E-01 0.63911130E+03</pdfrwt>
<totfact> 0.57551107E+02</totfact>
</mgrwt>
</event>
<event>
 4    1  0.1724904E-005  0.7902839E+03  0.7818608E-02  0.9574188E-01
          2   -1    0    0  501    0  0.00000000000E+00  0.00000000000E+00  0.47430956830E+03  0.47430956830E+03  0.25500000000E-02 0. -1.
         -2   -1    0    0    0  501 -0.00000000000E+00 -0.00000000000E+00 -0.32918833667E+03  0.32918833668E+03  0.25500000000E-02 0.  1.
    5000001    1    1    2    0    0 -0.14915969563E+03 -0.29841486576E+03 -0.10104148457E+01  0.38846115358E+03  0.19900000000E+03 0.  0.
   -5000001    1    1    2    0    0  0.14915969563E+03  0.29841486576E+03  0.14613164648E+03  0.41503675140E+03  0.19900000000E+03 0.  0.
<mgrwt>
<rscale>  0 0.79028394E+03</rscale>
<asrwt>0</asrwt>
<pdfrwt beam="1">  1        2 0.67758509E-01 0.79028394E+03</pdfrwt>
<pdfrwt beam="2">  1       -2 0.47026906E-01 0.79028394E+03</pdfrwt>
<totfact> 0.30758853E+02</totfact>
</mgrwt>
</event>
<event>
 4    1  0.1724904E-005  0.5127953E+03  0.7818608E-02  0.1010492E+00
         -2   -1    0    0    0  501 -0.00000000000E+00  0.00000000000E+00  0.18848197333E+03  0.18848197334E+03  0.25500000000E-02 0. -1.
          2   -1    0    0  501    0  0.00000000000E+00 -0.00000000000E+00 -0.34878538781E+03  0.34878538782E+03  0.25500000000E-02 0.  1.
    5000001    1    1    2    0    0  0.78834218030E+02  0.14111659822E+03 -0.83469854434E+02  0.26962370969E+03  0.19900000000E+03 0.  0.
   -5000001    1    1    2    0    0 -0.78834218030E+02 -0.14111659822E+03 -0.76833560050E+02  0.26764365148E+03  0.19900000000E+03 0.  0.
<mgrwt>
<rscale>  0 0.51279531E+03</rscale>
<asrwt>0</asrwt>
<pdfrwt beam="1">  1        2 0.49826484E-01 0.51279531E+03</pdfrwt>
<pdfrwt beam="2">  1       -2 0.26925996E-01 0.51279531E+03</pdfrwt>
<totfact> 0.12608517E+03</totfact>
</mgrwt>
</event>
<event>
 4    1  0.1724904E-005  0.7219413E+03  0.7818608E-02  0.9680428E-01
          2   -1    0    0  501    0  0.00000000000E+00  0.00000000000E+00  0.20849293912E+03  0.20849293913E+03  0.25500000000E-02 0.  1.
         -2   -1    0    0    0  501 -0.00000000000E+00 -0.00000000000E+00 -0.62496036932E+03  0.62496036933E+03  0.25500000000E-02 0. -1.
    5000001    1    1    2    0    0  0.25703777030E+03  0.33923614903E+02 -0.38513243316E+03  0.50512099350E+03  0.19900000000E+03 0.  0.
   -5000001    1    1    2    0    0 -0.25703777030E+03 -0.33923614903E+02 -0.31334997049E+02  0.32833231496E+03  0.19900000000E+03 0.  0.
<mgrwt>
<rscale>  0 0.72194134E+03</rscale>
<asrwt>0</asrwt>
<pdfrwt beam="1">  1        2 0.29784706E-01 0.72194134E+03</pdfrwt>
<pdfrwt beam="2">  1       -2 0.89280052E-01 0.72194134E+03</pdfrwt>
<totfact> 0.19496580E+02</totfact>
</mgrwt>
</event>
<event>
 4    1  0.1724904E-005  0.5743561E+03  0.7818608E-02  0.9960085E-01
          2   -1    0    0  501    0  0.00000000000E+00  0.00000000000E+00  0.20019299336E+03  0.20019299338E+03  0.25500000000E-02 0.  1.
         -2   -1    0    0    0  501 -0.00000000000E+00 -0.00000000000E+00 -0.41195870210E+03  0.41195870211E+03  0.25500000000E-02 0. -1.
    5000001    1    1    2    0    0  0.16314899225E+02  0.19715677085E+03 -0.40761575633E+02  0.28354801053E+03  0.19900000000E+03 0.  0.
   -5000001    1    1    2    0    0 -0.16314899225E+02 -0.19715677085E+03 -0.17100413310E+03  0.32860368495E+03  0.19900000000E+03 0.  0.
<mgrwt>
<rscale>  0 0.57435615E+03</rscale>
<asrwt>0</asrwt>
<pdfrwt beam="1">  1        2 0.28598999E-01 0.57435615E+03</pdfrwt>
<pdfrwt beam="2">  1       -2 0.58851243E-01 0.57435615E+03</pdfrwt>
<totfact> 0.51105233E+02</totfact>
</mgrwt>
</event>
<event>
 4    1  0.1724904E-005  0.5557596E+03  0.7818608E-02  0.1000170E+00
          2   -1    0    0  501    0  0.00000000000E+00  0.00000000000E+00  0.14555802454E+04  0.14555802454E+04  0.25500000000E-02 0.  1.
         -2   -1    0    0    0  501 -0.00000000000E+00 -0.00000000000E+00 -0.53049074403E+02  0.53049074465E+02  0.25500000000E-02 0. -1.
    5000001    1    1    2    0    0  0.36965211810E+02 -0.17852363717E+03  0.88089872242E+03  0.92131464499E+03  0.19900000000E+03 0.  0.
   -5000001    1    1    2    0    0 -0.36965211810E+02  0.17852363717E+03  0.52163244855E+03  0.58731467485E+03  0.19900000000E+03 0.  0.
<mgrwt>
<rscale>  0 0.55575961E+03</rscale>
<asrwt>0</asrwt>
<pdfrwt beam="1">  1        2 0.20794002E+00 0.55575961E+03</pdfrwt>
<pdfrwt beam="2">  1       -2 0.75784396E-02 0.55575961E+03</pdfrwt>
<totfact> 0.16790219E+03</totfact>
</mgrwt>
</event>
<event>
 4    1  0.1724904E-005  0.5153283E+03  0.7818608E-02  0.1009854E+00
         -2   -1    0    0    0  501 -0.00000000000E+00  0.00000000000E+00  0.13883972381E+03  0.13883972384E+03  0.25500000000E-02 0. -1.
          2   -1    0    0  501    0  0.00000000000E+00 -0.00000000000E+00 -0.47818309284E+03  0.47818309285E+03  0.25500000000E-02 0.  1.
    5000001    1    1    2    0    0 -0.11346657601E+03 -0.11784058817E+03 -0.17609063611E+03  0.31204163218E+03  0.19900000000E+03 0.  0.
   -5000001    1    1    2    0    0  0.11346657601E+03  0.11784058817E+03 -0.16325273292E+03  0.30498118450E+03  0.19900000000E+03 0.  0.
<mgrwt>
<rscale>  0 0.51532828E+03</rscale>
<asrwt>0</asrwt>
<pdfrwt beam="1">  1        2 0.68311870E-01 0.51532828E+03</pdfrwt>
<pdfrwt beam="2">  1       -2 0.19834246E-01 0.51532828E+03</pdfrwt>
<totfact> 0.15263819E+03</totfact>
</mgrwt>
</event>
<event>
 4    1  0.1724904E-005  0.5331814E+03  0.7818608E-02  0.1005463E+00
          2   -1    0    0  501    0  0.00000000000E+00  0.00000000000E+00  0.62342495612E+03  0.62342495612E+03  0.25500000000E-02 0.  1.
         -2   -1    0    0    0  501 -0.00000000000E+00 -0.00000000000E+00 -0.11400026167E+03  0.11400026170E+03  0.25500000000E-02 0. -1.
    5000001    1    1    2    0    0 -0.49054344327E+02  0.16817877275E+03  0.21610572308E+03  0.34204255853E+03  0.19900000000E+03 0.  0.
   -5000001    1    1    2    0    0  0.49054344327E+02 -0.16817877275E+03  0.29331897137E+03  0.39538265929E+03  0.19900000000E+03 0.  0.
<mgrwt>
<rscale>  0 0.53318143E+03</rscale>
<asrwt>0</asrwt>
<pdfrwt beam="1">  1        2 0.89060709E-01 0.53318143E+03</pdfrwt>
<pdfrwt beam="2">  1       -2 0.16285751E-01 0.53318143E+03</pdfrwt>
<totfact> 0.15768299E+03</totfact>
</mgrwt>
</event>
<event>
 4    1  0.1724904E-005  0.4832137E+03  0.7818608E-02  0.1018256E+00
          2   -1    0    0  501    0  0.00000000000E+00  0.00000000000E+00  0.51625565000E+03  0.51625565001E+03  0.25500000000E-02 0.  1.
         -2   -1    0    0    0  501 -0.00000000000E+00 -0.00000000000E+00 -0.11307163013E+03  0.11307163016E+03  0.25500000000E-02 0. -1.
    5000001    1    1    2    0    0  0.89443328377E+02  0.66572715364E+02  0.97884437799E+02  0.24822247800E+03  0.19900000000E+03 0.  0.
   -5000001    1    1    2    0    0 -0.89443328377E+02 -0.66572715364E+02  0.30529958207E+03  0.38110480217E+03  0.19900000000E+03 0.  0.
<mgrwt>
<rscale>  0 0.48321369E+03</rscale>
<asrwt>0</asrwt>
<pdfrwt beam="1">  1        2 0.73750807E-01 0.48321369E+03</pdfrwt>
<pdfrwt beam="2">  1       -2 0.16153090E-01 0.48321369E+03</pdfrwt>
<totfact> 0.19883056E+03</totfact>
</mgrwt>
</event>
<event>
 4    1  0.1724904E-005  0.7179430E+03  0.7818608E-02  0.9687030E-01
         -2   -1    0    0    0  501 -0.00000000000E+00  0.00000000000E+00  0.10435741812E+03  0.10435741816E+03  0.25500000000E-02 0. -1.
          2   -1    0    0  501    0  0.00000000000E+00 -0.00000000000E+00 -0.12348001260E+04  0.12348001260E+04  0.25500000000E-02 0.  1.
    5000001    1    1    2    0    0 -0.44212784015E+02 -0.18805370754E+03 -0.14011744039E+03  0.31072956778E+03  0.19900000000E+03 0.  0.
   -5000001    1    1    2    0    0  0.44212784015E+02  0.18805370754E+03 -0.99032526749E+03  0.10284279764E+04  0.19900000000E+03 0.  0.
<mgrwt>
<rscale>  0 0.71794304E+03</rscale>
<asrwt>0</asrwt>
<pdfrwt beam="1">  1        2 0.17640001E+00 0.71794304E+03</pdfrwt>
<pdfrwt beam="2">  1       -2 0.14908203E-01 0.71794304E+03</pdfrwt>
<totfact> 0.72764955E+02</totfact>
</mgrwt>
</event>
<event>
 4    1  0.1724904E-005  0.6373883E+03  0.7818608E-02  0.9830736E-01
          2   -1    0    0  501    0  0.00000000000E+00  0.00000000000E+00  0.16339595100E+04  0.16339595100E+04  0.25500000000E-02 0.  1.
         -2   -1    0    0    0  501 -0.00000000000E+00 -0.00000000000E+00 -0.62159415316E+02  0.62159415368E+02  0.25500000000E-02 0. -1.
    5000001    1    1    2    0    0 -0.24180792571E+03 -0.46030256715E+02  0.88457819240E+03  0.93950488873E+03  0.19900000000E+03 0.  0.
   -5000001    1    1    2    0    0  0.24180792571E+03  0.46030256715E+02  0.68722190230E+03  0.75661403666E+03  0.19900000000E+03 0.  0.
<mgrwt>
<rscale>  0 0.63738832E+03</rscale>
<asrwt>0</asrwt>
<pdfrwt beam="1">  1        2 0.23342280E+00 0.63738832E+03</pdfrwt>
<pdfrwt beam="2">  1       -2 0.88799161E-02 0.63738832E+03</pdfrwt>
<totfact> 0.10507306E+03</totfact>
</mgrwt>
</event>
<event>
 4    1  0.1724904E-005  0.6702607E+03  0.7818608E-02  0.9769487E-01
          2   -1    0    0  501    0  0.00000000000E+00  0.00000000000E+00  0.55497420232E+03  0.55497420233E+03  0.25500000000E-02 0.  1.
         -2   -1    0    0    0  501 -0.00000000000E+00 -0.00000000000E+00 -0.20237402995E+03  0.20237402996E+03  0.25500000000E-02 0. -1.
    5000001    1    1    2    0    0 -0.23376168710E+03  0.36246195971E+02  0.32255107492E+03  0.44676448942E+03  0.19900000000E+03 0.  0.
   -5000001    1    1    2    0    0  0.23376168710E+03 -0.36246195971E+02  0.30049097457E+02  0.31058374287E+03  0.19900000000E+03 0.  0.
<mgrwt>
<rscale>  0 0.67026074E+03</rscale>
<asrwt>0</asrwt>
<pdfrwt beam="1">  1        2 0.79282030E-01 0.67026074E+03</pdfrwt>
<pdfrwt beam="2">  1       -2 0.28910575E-01 0.67026074E+03</pdfrwt>
<totfact> 0.65605733E+02</totfact>
</mgrwt>
</event>
<event>
 4    1  0.1724904E-005  0.5460478E+03  0.7818608E-02  0.1002413E+00
          2   -1    0    0  501    0  0.00000000000E+00  0.00000000000E+00  0.84012045275E+03  0.84012045276E+03  0.25500000000E-02 0.  1.
         -2   -1    0    0    0  501 -0.00000000000E+00 -0.00000000000E+00 -0.88727812010E+02  0.88727812047E+02  0.25500000000E-02 0. -1.
    5000001    1    1    2    0    0 -0.95498371967E+02 -0.12903907780E+03  0.21280444629E+03  0.33265260409E+03  0.19900000000E+03 0.  0.
   -5000001    1    1    2    0    0  0.95498371967E+02  0.12903907780E+03  0.53858819446E+03  0.59619566072E+03  0.19900000000E+03 0.  0.
<mgrwt>
<rscale>  0 0.54604780E+03</rscale>
<asrwt>0</asrwt>
<pdfrwt beam="1">  1        2 0.12001721E+00 0.54604780E+03</pdfrwt>
<pdfrwt beam="2">  1       -2 0.12675401E-01 0.54604780E+03</pdfrwt>
<totfact> 0.16592455E+03</totfact>
</mgrwt>
</event>
<event>
 4    1  0.1724904E-005  0.4752634E+03  0.7818608E-02  0.1020445E+00
          2   -1    0    0  501    0  0.00000000000E+00  0.00000000000E+00  0.38769771187E+03  0.38769771188E+03  0.25500000000E-02 0.  1.
         -2   -1    0    0    0  501 -0.00000000000E+00 -0.00000000000E+00 -0.14565165693E+03  0.14565165695E+03  0.25500000000E-02 0. -1.
    5000001    1    1    2    0    0 -0.34220769362E+02 -0.12413951155E+03  0.14000593601E+03  0.27528955937E+03  0.19900000000E+03 0.  0.
   -5000001    1    1    2    0    0  0.34220769362E+02  0.12413951155E+03  0.10204011894E+03  0.25805980945E+03  0.19900000000E+03 0.  0.
<mgrwt>
<rscale>  0 0.47526335E+03</rscale>
<asrwt>0</asrwt>
<pdfrwt beam="1">  1        2 0.55385387E-01 0.47526335E+03</pdfrwt>
<pdfrwt beam="2">  1       -2 0.20807380E-01 0.47526335E+03</pdfrwt>
<totfact> 0.17727091E+03</totfact>
</mgrwt>
</event>
<event>
 4    1  0.1724904E-005  0.4499304E+03  0.7818608E-02  0.1027743E+00
          2   -1    0    0  501    0  0.00000000000E+00  0.00000000000E+00  0.13793622602E+04  0.13793622602E+04  0.25500000000E-02 0.  1.
         -2   -1    0    0    0  501 -0.00000000000E+00 -0.00000000000E+00 -0.36690387588E+02  0.36690387676E+02  0.25500000000E-02 0. -1.
    5000001    1    1    2    0    0  0.20816555693E+02 -0.82846790068E+02  0.47959982001E+03  0.52622609872E+03  0.19900000000E+03 0.  0.
   -5000001    1    1    2    0    0 -0.20816555693E+02  0.82846790068E+02  0.86307205265E+03  0.88982654921E+03  0.19900000000E+03 0.  0.
<mgrwt>
<rscale>  0 0.44993038E+03</rscale>
<asrwt>0</asrwt>
<pdfrwt beam="1">  1        2 0.19705173E+00 0.44993038E+03</pdfrwt>
<pdfrwt beam="2">  1       -2 0.52414846E-02 0.44993038E+03</pdfrwt>
<totfact> 0.32835567E+03</totfact>
</mgrwt>
</event>
<event>
 4    1  0.1724904E-005  0.8534736E+03  0.7818608E-02  0.9485687E-01
         -2   -1    0    0    0  501 -0.00000000000E+00  0.00000000000E+00  0.17989266352E+03  0.17989266354E+03  0.25500000000E-02 0. -1.
          2   -1    0    0  501    0  0.00000000000E+00 -0.00000000000E+00 -0.10122941744E+04  0.10122941744E+04  0.25500000000E-02 0.  1.
    5000001    1    1    2    0    0 -0.23538288822E+03  0.22267547285E+03 -0.14564928004E+03  0.40719059794E+03  0.19900000000E+03 0.  0.
   -5000001    1    1    2    0    0  0.23538288822E+03 -0.22267547285E+03 -0.68675223088E+03  0.78499624005E+03  0.19900000000E+03 0.  0.
<mgrwt>
<rscale>  0 0.85347360E+03</rscale>
<asrwt>0</asrwt>
<pdfrwt beam="1">  1        2 0.14461345E+00 0.85347360E+03</pdfrwt>
<pdfrwt beam="2">  1       -2 0.25698953E-01 0.85347360E+03</pdfrwt>
<totfact> 0.37669722E+02</totfact>
</mgrwt>
</event>
<event>
 4    1  0.1724904E-005  0.6569497E+03  0.7818608E-02  0.9793825E-01
         -2   -1    0    0    0  501 -0.00000000000E+00  0.00000000000E+00  0.27739566613E+03  0.27739566614E+03  0.25500000000E-02 0.  1.
          2   -1    0    0  501    0  0.00000000000E+00 -0.00000000000E+00 -0.38895972041E+03  0.38895972042E+03  0.25500000000E-02 0. -1.
    5000001    1    1    2    0    0  0.87198251743E+02  0.24503360701E+03 -0.81636910995E+02  0.33750642795E+03  0.19900000000E+03 0.  0.
   -5000001    1    1    2    0    0 -0.87198251743E+02 -0.24503360701E+03 -0.29927143282E+02  0.32884895861E+03  0.19900000000E+03 0.  0.
<mgrwt>
<rscale>  0 0.65694974E+03</rscale>
<asrwt>0</asrwt>
<pdfrwt beam="1">  1        2 0.55565673E-01 0.65694974E+03</pdfrwt>
<pdfrwt beam="2">  1       -2 0.39627953E-01 0.65694974E+03</pdfrwt>
<totfact> 0.54107283E+02</totfact>
</mgrwt>
</event>
<event>
 4    1  0.1724904E-005  0.5252630E+03  0.7818608E-02  0.1007387E+00
          2   -1    0    0  501    0  0.00000000000E+00  0.00000000000E+00  0.13385479939E+04  0.13385479939E+04  0.25500000000E-02 0.  1.
         -2   -1    0    0    0  501 -0.00000000000E+00 -0.00000000000E+00 -0.51529943856E+02  0.51529943919E+02  0.25500000000E-02 0. -1.
    5000001    1    1    2    0    0 -0.41384146912E+02 -0.12042055384E+03  0.94710729601E+03  0.97612857122E+03  0.19900000000E+03 0.  0.
   -5000001    1    1    2    0    0  0.41384146912E+02  0.12042055384E+03  0.33991075405E+03  0.41394936661E+03  0.19900000000E+03 0.  0.
<mgrwt>
<rscale>  0 0.52526299E+03</rscale>
<asrwt>0</asrwt>
<pdfrwt beam="1">  1        2 0.19122111E+00 0.52526299E+03</pdfrwt>
<pdfrwt beam="2">  1       -2 0.73614217E-02 0.52526299E+03</pdfrwt>
<totfact> 0.20291532E+03</totfact>
</mgrwt>
</event>
<event>
 4    1  0.1724904E-005  0.6701474E+03  0.7818608E-02  0.9769692E-01
          2   -1    0    0  501    0  0.00000000000E+00  0.00000000000E+00  0.19561171816E+04  0.19561171816E+04  0.25500000000E-02 0.  1.
         -2   -1    0    0    0  501 -0.00000000000E+00 -0.00000000000E+00 -0.57396555568E+02  0.57396555625E+02  0.25500000000E-02 0. -1.
    5000001    1    1    2    0    0 -0.23939482515E+03  0.99740225173E+02  0.11704656733E+04  0.12152567166E+04  0.19900000000E+03 0.  0.
   -5000001    1    1    2    0    0  0.23939482515E+03 -0.99740225173E+02  0.72825495269E+03  0.79825702060E+03  0.19900000000E+03 0.  0.
<mgrwt>
<rscale>  0 0.67014741E+03</rscale>
<asrwt>0</asrwt>
<pdfrwt beam="1">  1        2 0.27944530E+00 0.67014741E+03</pdfrwt>
<pdfrwt beam="2">  1       -2 0.81995084E-02 0.67014741E+03</pdfrwt>
<totfact> 0.81817209E+02</totfact>
</mgrwt>
</event>
<event>
 4    1  0.1724904E-005  0.6400277E+03  0.7818608E-02  0.9825673E-01
          2   -1    0    0  501    0  0.00000000000E+00  0.00000000000E+00  0.33344057221E+03  0.33344057222E+03  0.25500000000E-02 0.  1.
         -2   -1    0    0    0  501 -0.00000000000E+00 -0.00000000000E+00 -0.30712781347E+03  0.30712781348E+03  0.25500000000E-02 0. -1.
    5000001    1    1    2    0    0 -0.15377047614E+01  0.24426287843E+03 -0.42936977680E+02  0.31798003454E+03  0.19900000000E+03 0.  0.
   -5000001    1    1    2    0    0  0.15377047614E+01 -0.24426287843E+03  0.69249736418E+02  0.32258835116E+03  0.19900000000E+03 0.  0.
<mgrwt>
<rscale>  0 0.64002773E+03</rscale>
<asrwt>0</asrwt>
<pdfrwt beam="1">  1        2 0.47634368E-01 0.64002773E+03</pdfrwt>
<pdfrwt beam="2">  1       -2 0.43875402E-01 0.64002773E+03</pdfrwt>
<totfact> 0.52598297E+02</totfact>
</mgrwt>
</event>
<event>
 4    1  0.1724904E-005  0.5365593E+03  0.7818608E-02  0.1004654E+00
          2   -1    0    0  501    0  0.00000000000E+00  0.00000000000E+00  0.12000150676E+04  0.12000150676E+04  0.25500000000E-02 0.  1.
         -2   -1    0    0    0  501 -0.00000000000E+00 -0.00000000000E+00 -0.59977545443E+02  0.59977545498E+02  0.25500000000E-02 0. -1.
    5000001    1    1    2    0    0  0.14367027596E+03 -0.36940545510E+02  0.33091787945E+03  0.41365854885E+03  0.19900000000E+03 0.  0.
   -5000001    1    1    2    0    0 -0.14367027596E+03  0.36940545510E+02  0.80911964269E+03  0.84633406424E+03  0.19900000000E+03 0.  0.
<mgrwt>
<rscale>  0 0.53655925E+03</rscale>
<asrwt>0</asrwt>
<pdfrwt beam="1">  1        2 0.17143073E+00 0.53655925E+03</pdfrwt>
<pdfrwt beam="2">  1       -2 0.85682206E-02 0.53655925E+03</pdfrwt>
<totfact> 0.18974263E+03</totfact>
</mgrwt>
</event>
<event>
 4    1  0.1724904E-005  0.6035799E+03  0.7818608E-02  0.9898007E-01
          2   -1    0    0  501    0  0.00000000000E+00  0.00000000000E+00  0.81034327227E+03  0.81034327227E+03  0.25500000000E-02 0.  1.
         -2   -1    0    0    0  501 -0.00000000000E+00 -0.00000000000E+00 -0.11239333706E+03  0.11239333709E+03  0.25500000000E-02 0. -1.
    5000001    1    1    2    0    0 -0.68477977886E+02  0.18556973033E+03  0.51887402287E+03  0.58987847044E+03  0.19900000000E+03 0.  0.
   -5000001    1    1    2    0    0  0.68477977886E+02 -0.18556973033E+03  0.17907591233E+03  0.33285813892E+03  0.19900000000E+03 0.  0.
<mgrwt>
<rscale>  0 0.60357994E+03</rscale>
<asrwt>0</asrwt>
<pdfrwt beam="1">  1        2 0.11576332E+00 0.60357994E+03</pdfrwt>
<pdfrwt beam="2">  1       -2 0.16056191E-01 0.60357994E+03</pdfrwt>
<totfact> 0.11695258E+03</totfact>
</mgrwt>
</event>
<event>
 4    1  0.1724904E-005  0.5794808E+03  0.7818608E-02  0.9948916E-01
         -2   -1    0    0    0  501 -0.00000000000E+00  0.00000000000E+00  0.21667680182E+03  0.21667680183E+03  0.25500000000E-02 0. -1.
          2   -1    0    0  501    0  0.00000000000E+00 -0.00000000000E+00 -0.38744115839E+03  0.38744115840E+03  0.25500000000E-02 0.  1.
    5000001    1    1    2    0    0  0.18043437017E+03 -0.37759602707E+02  0.20760893694E+02  0.27205581089E+03  0.19900000000E+03 0.  0.
   -5000001    1    1    2    0    0 -0.18043437017E+03  0.37759602707E+02 -0.19152525027E+03  0.33206214934E+03  0.19900000000E+03 0.  0.
<mgrwt>
<rscale>  0 0.57948084E+03</rscale>
<asrwt>0</asrwt>
<pdfrwt beam="1">  1        2 0.55348737E-01 0.57948084E+03</pdfrwt>
<pdfrwt beam="2">  1       -2 0.30953829E-01 0.57948084E+03</pdfrwt>
<totfact> 0.86936230E+02</totfact>
</mgrwt>
</event>
<event>
 4    1  0.1724904E-005  0.7108332E+03  0.7818608E-02  0.9698883E-01
         -2   -1    0    0    0  501 -0.00000000000E+00  0.00000000000E+00  0.13295374195E+03  0.13295374197E+03  0.25500000000E-02 0. -1.
          2   -1    0    0  501    0  0.00000000000E+00 -0.00000000000E+00 -0.95011206011E+03  0.95011206012E+03  0.25500000000E-02 0.  1.
    5000001    1    1    2    0    0 -0.68423018491E+02  0.28443264601E+03 -0.45994049928E+03  0.58028432898E+03  0.19900000000E+03 0.  0.
   -5000001    1    1    2    0    0  0.68423018491E+02 -0.28443264601E+03 -0.35721781888E+03  0.50278147311E+03  0.19900000000E+03 0.  0.
<mgrwt>
<rscale>  0 0.71083318E+03</rscale>
<asrwt>0</asrwt>
<pdfrwt beam="1">  1        2 0.13573029E+00 0.71083318E+03</pdfrwt>
<pdfrwt beam="2">  1       -2 0.18993392E-01 0.71083318E+03</pdfrwt>
<totfact> 0.70772226E+02</totfact>
</mgrwt>
</event>
<event>
 4    1  0.1724904E-005  0.4483680E+03  0.7818608E-02  0.1028210E+00
          2   -1    0    0  501    0  0.00000000000E+00  0.00000000000E+00  0.21138377101E+04  0.21138377101E+04  0.25500000000E-02 0. -1.
         -2   -1    0    0    0  501 -0.00000000000E+00 -0.00000000000E+00 -0.23775928721E+02  0.23775928857E+02  0.25500000000E-02 0.  1.
    5000001    1    1    2    0    0  0.18718282251E+02  0.96241713103E+02  0.89094160070E+03  0.91814529203E+03  0.19900000000E+03 0.  0.
   -5000001    1    1    2    0    0 -0.18718282251E+02 -0.96241713103E+02  0.11991201807E+04  0.12194683469E+04  0.19900000000E+03 0.  0.
<mgrwt>
<rscale>  0 0.44836795E+03</rscale>
<asrwt>0</asrwt>
<pdfrwt beam="1">  1        2 0.30197651E+00 0.44836795E+03</pdfrwt>
<pdfrwt beam="2">  1       -2 0.33965646E-02 0.44836795E+03</pdfrwt>
<totfact> 0.27139382E+03</totfact>
</mgrwt>
</event>
<event>
 4    1  0.1724904E-005  0.4923076E+03  0.7818608E-02  0.1015806E+00
         -2   -1    0    0    0  501 -0.00000000000E+00  0.00000000000E+00  0.72341927722E+02  0.72341927767E+02  0.25500000000E-02 0. -1.
          2   -1    0    0  501    0  0.00000000000E+00 -0.00000000000E+00 -0.83757362689E+03  0.83757362690E+03  0.25500000000E-02 0.  1.
    5000001    1    1    2    0    0  0.14449135522E+03 -0.96726799539E+01 -0.37447962847E+03  0.44811528049E+03  0.19900000000E+03 0.  0.
   -5000001    1    1    2    0    0 -0.14449135522E+03  0.96726799539E+01 -0.39075207070E+03  0.46180027418E+03  0.19900000000E+03 0.  0.
<mgrwt>
<rscale>  0 0.49230759E+03</rscale>
<asrwt>0</asrwt>
<pdfrwt beam="1">  1        2 0.11965337E+00 0.49230759E+03</pdfrwt>
<pdfrwt beam="2">  1       -2 0.10334562E-01 0.49230759E+03</pdfrwt>
<totfact> 0.23257638E+03</totfact>
</mgrwt>
</event>
<event>
 4    1  0.1724904E-005  0.4597452E+03  0.7818608E-02  0.1024855E+00
         -2   -1    0    0    0  501 -0.00000000000E+00  0.00000000000E+00  0.14011698881E+03  0.14011698883E+03  0.25500000000E-02 0. -1.
          2   -1    0    0  501    0  0.00000000000E+00 -0.00000000000E+00 -0.37712356575E+03  0.37712356576E+03  0.25500000000E-02 0.  1.
    5000001    1    1    2    0    0  0.95371781858E+02 -0.59967751824E+02 -0.92154067565E+02  0.24654670998E+03  0.19900000000E+03 0.  0.
   -5000001    1    1    2    0    0 -0.95371781858E+02  0.59967751824E+02 -0.14485250938E+03  0.27069384460E+03  0.19900000000E+03 0.  0.
<mgrwt>
<rscale>  0 0.45974523E+03</rscale>
<asrwt>0</asrwt>
<pdfrwt beam="1">  1        2 0.53874795E-01 0.45974523E+03</pdfrwt>
<pdfrwt beam="2">  1       -2 0.20016713E-01 0.45974523E+03</pdfrwt>
<totfact> 0.19541726E+03</totfact>
</mgrwt>
</event>
<event>
 4    1  0.1724904E-005  0.5805754E+03  0.7818608E-02  0.9946546E-01
          2   -1    0    0  501    0  0.00000000000E+00  0.00000000000E+00  0.15280877669E+04  0.15280877669E+04  0.25500000000E-02 0.  1.
         -2   -1    0    0    0  501 -0.00000000000E+00 -0.00000000000E+00 -0.55145360140E+02  0.55145360199E+02  0.25500000000E-02 0. -1.
    5000001    1    1    2    0    0 -0.13553941443E+03  0.13827709996E+03  0.50548774728E+03  0.57672380902E+03  0.19900000000E+03 0.  0.
   -5000001    1    1    2    0    0  0.13553941443E+03 -0.13827709996E+03  0.96745465952E+03  0.10065093181E+04  0.19900000000E+03 0.  0.
<mgrwt>
<rscale>  0 0.58057541E+03</rscale>
<asrwt>0</asrwt>
<pdfrwt beam="1">  1        2 0.21829824E+00 0.58057541E+03</pdfrwt>
<pdfrwt beam="2">  1       -2 0.78779091E-02 0.58057541E+03</pdfrwt>
<totfact> 0.14461371E+03</totfact>
</mgrwt>
</event>
<event>
 4    1  0.1724904E-005  0.5718151E+03  0.7818608E-02  0.9965670E-01
          2   -1    0    0  501    0  0.00000000000E+00  0.00000000000E+00  0.52623064964E+03  0.52623064964E+03  0.25500000000E-02 0.  1.
         -2   -1    0    0    0  501 -0.00000000000E+00 -0.00000000000E+00 -0.15533708538E+03  0.15533708540E+03  0.25500000000E-02 0. -1.
    5000001    1    1    2    0    0  0.15432415370E+03 -0.42704430066E+01  0.24169464755E+02  0.25302044211E+03  0.19900000000E+03 0.  0.
   -5000001    1    1    2    0    0 -0.15432415370E+03  0.42704430066E+01  0.34672409950E+03  0.42854729293E+03  0.19900000000E+03 0.  0.
<mgrwt>
<rscale>  0 0.57181513E+03</rscale>
<asrwt>0</asrwt>
<pdfrwt beam="1">  1        2 0.75175806E-01 0.57181513E+03</pdfrwt>
<pdfrwt beam="2">  1       -2 0.22191013E-01 0.57181513E+03</pdfrwt>
<totfact> 0.11249305E+03</totfact>
</mgrwt>
</event>
<event>
 4    1  0.1724904E-005  0.7291851E+03  0.7818608E-02  0.9668584E-01
          2   -1    0    0  501    0  0.00000000000E+00  0.00000000000E+00  0.20625854993E+04  0.20625854993E+04  0.25500000000E-02 0.  1.
         -2   -1    0    0    0  501 -0.00000000000E+00 -0.00000000000E+00 -0.64447130509E+02  0.64447130559E+02  0.25500000000E-02 0. -1.
    5000001    1    1    2    0    0 -0.55152855687E+02  0.12078083413E+03  0.19651318883E+03  0.30959373503E+03  0.19900000000E+03 0.  0.
   -5000001    1    1    2    0    0  0.55152855687E+02 -0.12078083413E+03  0.18016251800E+04  0.18174388948E+04  0.19900000000E+03 0.  0.
<mgrwt>
<rscale>  0 0.72918507E+03</rscale>
<asrwt>0</asrwt>
<pdfrwt beam="1">  1        2 0.29465505E+00 0.72918507E+03</pdfrwt>
<pdfrwt beam="2">  1       -2 0.92067336E-02 0.72918507E+03</pdfrwt>
<totfact> 0.59786765E+02</totfact>
</mgrwt>
</event>
<event>
 4    1  0.1724904E-005  0.5754985E+03  0.7818608E-02  0.9957585E-01
          2   -1    0    0  501    0  0.00000000000E+00  0.00000000000E+00  0.50654061710E+03  0.50654061711E+03  0.25500000000E-02 0.  1.
         -2   -1    0    0    0  501 -0.00000000000E+00 -0.00000000000E+00 -0.16346099236E+03  0.16346099238E+03  0.25500000000E-02 0. -1.
    5000001    1    1    2    0    0 -0.19196589730E+03  0.69202430905E+01  0.26394498547E+03  0.38231760468E+03  0.19900000000E+03 0.  0.
   -5000001    1    1    2    0    0  0.19196589730E+03 -0.69202430905E+01  0.79134639279E+02  0.28768400481E+03  0.19900000000E+03 0.  0.
<mgrwt>
<rscale>  0 0.57549850E+03</rscale>
<asrwt>0</asrwt>
<pdfrwt beam="1">  1        2 0.72362946E-01 0.57549850E+03</pdfrwt>
<pdfrwt beam="2">  1       -2 0.23351570E-01 0.57549850E+03</pdfrwt>
<totfact> 0.10735888E+03</totfact>
</mgrwt>
</event>
<event>
 4    1  0.1724904E-005  0.6743619E+03  0.7818608E-02  0.9762110E-01
         -2   -1    0    0    0  501 -0.00000000000E+00  0.00000000000E+00  0.55179428735E+02  0.55179428794E+02  0.25500000000E-02 0. -1.
          2   -1    0    0  501    0  0.00000000000E+00 -0.00000000000E+00 -0.20603873092E+04  0.20603873092E+04  0.25500000000E-02 0.  1.
    5000001    1    1    2    0    0 -0.61969100030E+02  0.17996614467E+03 -0.16130334869E+04  0.16363697665E+04  0.19900000000E+03 0.  0.
   -5000001    1    1    2    0    0  0.61969100030E+02 -0.17996614467E+03 -0.39217439347E+03  0.47919697149E+03  0.19900000000E+03 0.  0.
<mgrwt>
<rscale>  0 0.67436191E+03</rscale>
<asrwt>0</asrwt>
<pdfrwt beam="1">  1        2 0.29434100E+00 0.67436191E+03</pdfrwt>
<pdfrwt beam="2">  1       -2 0.78827768E-02 0.67436191E+03</pdfrwt>
<totfact> 0.77181745E+02</totfact>
</mgrwt>
</event>
<event>
 4    1  0.1724904E-005  0.1205085E+04  0.7818608E-02  0.9108417E-01
         -2   -1    0    0    0  501 -0.00000000000E+00  0.00000000000E+00  0.42522715907E+03  0.42522715908E+03  0.25500000000E-02 0. -1.
          2   -1    0    0  501    0  0.00000000000E+00 -0.00000000000E+00 -0.85379668348E+03  0.85379668348E+03  0.25500000000E-02 0.  1.
    5000001    1    1    2    0    0  0.20551424883E+03  0.40717966108E+03  0.14630313769E+03  0.51868775865E+03  0.19900000000E+03 0.  0.
   -5000001    1    1    2    0    0 -0.20551424883E+03 -0.40717966108E+03 -0.57487266209E+03  0.76033608391E+03  0.19900000000E+03 0.  0.
<mgrwt>
<rscale>  0 0.12050851E+04</rscale>
<asrwt>0</asrwt>
<pdfrwt beam="1">  1        2 0.12197095E+00 0.12050851E+04</pdfrwt>
<pdfrwt beam="2">  1       -2 0.60746737E-01 0.12050851E+04</pdfrwt>
<totfact> 0.86928571E+01</totfact>
</mgrwt>
</event>
<event>
 4    1  0.1724904E-005  0.6789516E+03  0.7818608E-02  0.9753920E-01
          2   -1    0    0  501    0  0.00000000000E+00  0.00000000000E+00  0.17580688776E+04  0.17580688776E+04  0.25500000000E-02 0. -1.
         -2   -1    0    0    0  501 -0.00000000000E+00 -0.00000000000E+00 -0.65551376240E+02  0.65551376289E+02  0.25500000000E-02 0.  1.
    5000001    1    1    2    0    0 -0.85174316677E+02 -0.23035745230E+03  0.51377060223E+03  0.60322504239E+03  0.19900000000E+03 0.  0.
   -5000001    1    1    2    0    0  0.85174316677E+02  0.23035745230E+03  0.11787468992E+04  0.12203952115E+04  0.19900000000E+03 0.  0.
<mgrwt>
<rscale>  0 0.67895165E+03</rscale>
<asrwt>0</asrwt>
<pdfrwt beam="1">  1        2 0.25115267E+00 0.67895165E+03</pdfrwt>
<pdfrwt beam="2">  1       -2 0.93644832E-02 0.67895165E+03</pdfrwt>
<totfact> 0.83185480E+02</totfact>
</mgrwt>
</event>
<event>
 4    1  0.1724904E-005  0.4764874E+03  0.7818608E-02  0.1020105E+00
          2   -1    0    0  501    0  0.00000000000E+00  0.00000000000E+00  0.21712068326E+04  0.21712068326E+04  0.25500000000E-02 0.  1.
         -2   -1    0    0    0  501 -0.00000000000E+00 -0.00000000000E+00 -0.26142166651E+02  0.26142166776E+02  0.25500000000E-02 0. -1.
    5000001    1    1    2    0    0 -0.54215597810E+02 -0.10721996535E+03  0.13132008252E+04  0.13336164588E+04  0.19900000000E+03 0.  0.
   -5000001    1    1    2    0    0  0.54215597810E+02  0.10721996535E+03  0.83186384078E+03  0.86373254056E+03  0.19900000000E+03 0.  0.
<mgrwt>
<rscale>  0 0.47648736E+03</rscale>
<asrwt>0</asrwt>
<pdfrwt beam="1">  1        2 0.31017246E+00 0.47648736E+03</pdfrwt>
<pdfrwt beam="2">  1       -2 0.37345946E-02 0.47648736E+03</pdfrwt>
<totfact> 0.21972472E+03</totfact>
</mgrwt>
</event>
<event>
 4    1  0.1724904E-005  0.5847312E+03  0.7818608E-02  0.9937600E-01
         -2   -1    0    0    0  501 -0.00000000000E+00  0.00000000000E+00  0.26978629672E+03  0.26978629673E+03  0.25500000000E-02 0. -1.
          2   -1    0    0  501    0  0.00000000000E+00 -0.00000000000E+00 -0.31683462082E+03  0.31683462083E+03  0.25500000000E-02 0.  1.
    5000001    1    1    2    0    0  0.16803966870E+03  0.12695473909E+03 -0.62660528992E+02  0.29644928390E+03  0.19900000000E+03 0.  0.
   -5000001    1    1    2    0    0 -0.16803966870E+03 -0.12695473909E+03  0.15612204893E+02  0.29017163365E+03  0.19900000000E+03 0.  0.
<mgrwt>
<rscale>  0 0.58473118E+03</rscale>
<asrwt>0</asrwt>
<pdfrwt beam="1">  1        2 0.45262089E-01 0.58473118E+03</pdfrwt>
<pdfrwt beam="2">  1       -2 0.38540899E-01 0.58473118E+03</pdfrwt>
<totfact> 0.71738273E+02</totfact>
</mgrwt>
</event>
<event>
 4    1  0.1724904E-005  0.5890382E+03  0.7818608E-02  0.9928413E-01
         -2   -1    0    0    0  501 -0.00000000000E+00  0.00000000000E+00  0.64826390936E+02  0.64826390986E+02  0.25500000000E-02 0. -1.
          2   -1    0    0  501    0  0.00000000000E+00 -0.00000000000E+00 -0.13380583239E+04  0.13380583239E+04  0.25500000000E-02 0.  1.
    5000001    1    1    2    0    0 -0.13167412072E+03 -0.16666947431E+03 -0.52947586068E+03  0.60420400096E+03  0.19900000000E+03 0.  0.
   -5000001    1    1    2    0    0  0.13167412072E+03  0.16666947431E+03 -0.74375607224E+03  0.79868071388E+03  0.19900000000E+03 0.  0.
<mgrwt>
<rscale>  0 0.58903817E+03</rscale>
<asrwt>0</asrwt>
<pdfrwt beam="1">  1        2 0.19115117E+00 0.58903817E+03</pdfrwt>
<pdfrwt beam="2">  1       -2 0.92609138E-02 0.58903817E+03</pdfrwt>
<totfact> 0.14057264E+03</totfact>
</mgrwt>
</event>
<event>
 4    1  0.1724904E-005  0.9836474E+03  0.7818608E-02  0.9326664E-01
         -2   -1    0    0    0  501 -0.00000000000E+00  0.00000000000E+00  0.31327219528E+03  0.31327219529E+03  0.25500000000E-02 0. -1.
          2   -1    0    0  501    0  0.00000000000E+00 -0.00000000000E+00 -0.77214172297E+03  0.77214172298E+03  0.25500000000E-02 0.  1.
    5000001    1    1    2    0    0  0.40268367864E+03  0.83648115477E+01 -0.45030682886E+03  0.63608282105E+03  0.19900000000E+03 0.  0.
   -5000001    1    1    2    0    0 -0.40268367864E+03 -0.83648115477E+01 -0.85626988359E+01  0.44933109722E+03  0.19900000000E+03 0.  0.
<mgrwt>
<rscale>  0 0.98364736E+03</rscale>
<asrwt>0</asrwt>
<pdfrwt beam="1">  1        2 0.11030596E+00 0.98364736E+03</pdfrwt>
<pdfrwt beam="2">  1       -2 0.44753171E-01 0.98364736E+03</pdfrwt>
<totfact> 0.18806110E+02</totfact>
</mgrwt>
</event>
<event>
 4    1  0.1724904E-005  0.5109950E+03  0.7818608E-02  0.1010948E+00
         -2   -1    0    0    0  501 -0.00000000000E+00  0.00000000000E+00  0.31788265226E+03  0.31788265227E+03  0.25500000000E-02 0. -1.
          2   -1    0    0  501    0  0.00000000000E+00 -0.00000000000E+00 -0.20535554693E+03  0.20535554695E+03  0.25500000000E-02 0.  1.
    5000001    1    1    2    0    0  0.17531168694E+02  0.15663796591E+03  0.26671799624E+02  0.25525512558E+03  0.19900000000E+03 0.  0.
   -5000001    1    1    2    0    0 -0.17531168694E+02 -0.15663796591E+03  0.85855305707E+02  0.26798307364E+03  0.19900000000E+03 0.  0.
<mgrwt>
<rscale>  0 0.51099497E+03</rscale>
<asrwt>0</asrwt>
<pdfrwt beam="1">  1        2 0.29336507E-01 0.51099497E+03</pdfrwt>
<pdfrwt beam="2">  1       -2 0.45411807E-01 0.51099497E+03</pdfrwt>
<totfact> 0.84248028E+02</totfact>
</mgrwt>
</event>
<event>
 4    1  0.1724904E-005  0.8434371E+03  0.7818608E-02  0.9499188E-01
          2   -1    0    0  501    0  0.00000000000E+00  0.00000000000E+00  0.13392667611E+04  0.13392667611E+04  0.25500000000E-02 0.  1.
         -2   -1    0    0    0  501 -0.00000000000E+00 -0.00000000000E+00 -0.13279396833E+03  0.13279396836E+03  0.25500000000E-02 0. -1.
    5000001    1    1    2    0    0  0.57004368899E+02  0.29446966335E+03  0.98674325513E+03  0.10503452443E+04  0.19900000000E+03 0.  0.
   -5000001    1    1    2    0    0 -0.57004368899E+02 -0.29446966335E+03  0.21972953764E+03  0.42171548515E+03  0.19900000000E+03 0.  0.
<mgrwt>
<rscale>  0 0.84343713E+03</rscale>
<asrwt>0</asrwt>
<pdfrwt beam="1">  1        2 0.19132383E+00 0.84343713E+03</pdfrwt>
<pdfrwt beam="2">  1       -2 0.18970567E-01 0.84343713E+03</pdfrwt>
<totfact> 0.41940083E+02</totfact>
</mgrwt>
</event>
<event>
 4    1  0.1724904E-005  0.5621823E+03  0.7818608E-02  0.9987129E-01
          2   -1    0    0  501    0  0.00000000000E+00  0.00000000000E+00  0.45510123107E+02  0.45510123178E+02  0.25500000000E-02 0.  1.
         -2   -1    0    0    0  501 -0.00000000000E+00 -0.00000000000E+00 -0.17361464328E+04  0.17361464328E+04  0.25500000000E-02 0. -1.
    5000001    1    1    2    0    0 -0.15101174476E+03 -0.65669538374E+02 -0.11967143028E+04  0.12242725015E+04  0.19900000000E+03 0.  0.
   -5000001    1    1    2    0    0  0.15101174476E+03  0.65669538374E+02 -0.49392200686E+03  0.55738405448E+03  0.19900000000E+03 0.  0.
<mgrwt>
<rscale>  0 0.56218231E+03</rscale>
<asrwt>0</asrwt>
<pdfrwt beam="1">  1        2 0.65014473E-02 0.56218231E+03</pdfrwt>
<pdfrwt beam="2">  1       -2 0.24802088E+00 0.56218231E+03</pdfrwt>
<totfact> 0.80078845E+01</totfact>
</mgrwt>
</event>
<event>
 4    1  0.1724904E-005  0.9870131E+03  0.7818608E-02  0.9322904E-01
          2   -1    0    0  501    0  0.00000000000E+00  0.00000000000E+00  0.19476258702E+04  0.19476258702E+04  0.25500000000E-02 0.  1.
         -2   -1    0    0    0  501 -0.00000000000E+00 -0.00000000000E+00 -0.12504901211E+03  0.12504901214E+03  0.25500000000E-02 0. -1.
    5000001    1    1    2    0    0  0.38691628342E+03 -0.70724535526E+02  0.44530119683E+03  0.62657826821E+03  0.19900000000E+03 0.  0.
   -5000001    1    1    2    0    0 -0.38691628342E+03  0.70724535526E+02  0.13772756612E+04  0.14460966141E+04  0.19900000000E+03 0.  0.
<mgrwt>
<rscale>  0 0.98701305E+03</rscale>
<asrwt>0</asrwt>
<pdfrwt beam="1">  1        2 0.27823227E+00 0.98701305E+03</pdfrwt>
<pdfrwt beam="2">  1       -2 0.17864145E-01 0.98701305E+03</pdfrwt>
<totfact> 0.22234211E+02</totfact>
</mgrwt>
</event>
<event>
 4    1  0.1724904E-005  0.5968338E+03  0.7818608E-02  0.9911997E-01
         -2   -1    0    0    0  501 -0.00000000000E+00  0.00000000000E+00  0.91239567372E+03  0.91239567372E+03  0.25500000000E-02 0. -1.
          2   -1    0    0  501    0  0.00000000000E+00 -0.00000000000E+00 -0.97603102127E+02  0.97603102160E+02  0.25500000000E-02 0.  1.
    5000001    1    1    2    0    0  0.17362366234E+03  0.13823989145E+03  0.43110029645E+03  0.52412203666E+03  0.19900000000E+03 0.  0.
   -5000001    1    1    2    0    0 -0.17362366234E+03 -0.13823989145E+03  0.38369227514E+03  0.48587673922E+03  0.19900000000E+03 0.  0.
<mgrwt>
<rscale>  0 0.59683381E+03</rscale>
<asrwt>0</asrwt>
<pdfrwt beam="1">  1        2 0.13943300E-01 0.59683381E+03</pdfrwt>
<pdfrwt beam="2">  1       -2 0.13034224E+00 0.59683381E+03</pdfrwt>
<totfact> 0.19183324E+02</totfact>
</mgrwt>
</event>
<event>
 4    1  0.1724904E-005  0.4229817E+03  0.7818608E-02  0.1036100E+00
         -2   -1    0    0    0  501 -0.00000000000E+00  0.00000000000E+00  0.21343442000E+02  0.21343442152E+02  0.25500000000E-02 0. -1.
          2   -1    0    0  501    0  0.00000000000E+00 -0.00000000000E+00 -0.20956499288E+04  0.20956499288E+04  0.25500000000E-02 0.  1.
    5000001    1    1    2    0    0  0.19226546746E+02  0.16539683125E+02 -0.13723027114E+04  0.13868882265E+04  0.19900000000E+03 0.  0.
   -5000001    1    1    2    0    0 -0.19226546746E+02 -0.16539683125E+02 -0.70200377548E+03  0.73010514448E+03  0.19900000000E+03 0.  0.
<mgrwt>
<rscale>  0 0.42298172E+03</rscale>
<asrwt>0</asrwt>
<pdfrwt beam="1">  1        2 0.29937843E+00 0.42298172E+03</pdfrwt>
<pdfrwt beam="2">  1       -2 0.30490645E-02 0.42298172E+03</pdfrwt>
<totfact> 0.32649311E+03</totfact>
</mgrwt>
</event>
<event>
 4    1  0.1724904E-005  0.4483076E+03  0.7818608E-02  0.1028228E+00
         -2   -1    0    0    0  501 -0.00000000000E+00  0.00000000000E+00  0.27507744846E+03  0.27507744847E+03  0.25500000000E-02 0. -1.
          2   -1    0    0  501    0  0.00000000000E+00 -0.00000000000E+00 -0.18265737561E+03  0.18265737563E+03  0.25500000000E-02 0.  1.
    5000001    1    1    2    0    0  0.26568241848E+01 -0.83886291202E+02  0.10747137341E+03  0.24123653262E+03  0.19900000000E+03 0.  0.
   -5000001    1    1    2    0    0 -0.26568241848E+01  0.83886291202E+02 -0.15051300557E+02  0.21649829148E+03  0.19900000000E+03 0.  0.
<mgrwt>
<rscale>  0 0.44830759E+03</rscale>
<asrwt>0</asrwt>
<pdfrwt beam="1">  1        2 0.26093911E-01 0.44830759E+03</pdfrwt>
<pdfrwt beam="2">  1       -2 0.39296778E-01 0.44830759E+03</pdfrwt>
<totfact> 0.12742996E+03</totfact>
</mgrwt>
</event>
<event>
 4    1  0.1724904E-005  0.9801253E+03  0.7818608E-02  0.9330616E-01
          2   -1    0    0  501    0  0.00000000000E+00  0.00000000000E+00  0.37529369834E+03  0.37529369835E+03  0.25500000000E-02 0.  1.
         -2   -1    0    0    0  501 -0.00000000000E+00 -0.00000000000E+00 -0.63992922642E+03  0.63992922643E+03  0.25500000000E-02 0. -1.
    5000001    1    1    2    0    0 -0.29730579389E+03  0.33490438860E+03 -0.12925879566E+03  0.50681408903E+03  0.19900000000E+03 0.  0.
   -5000001    1    1    2    0    0  0.29730579389E+03 -0.33490438860E+03 -0.13537673242E+03  0.50840883575E+03  0.19900000000E+03 0.  0.
<mgrwt>
<rscale>  0 0.98012531E+03</rscale>
<asrwt>0</asrwt>
<pdfrwt beam="1">  1        2 0.53613386E-01 0.98012531E+03</pdfrwt>
<pdfrwt beam="2">  1       -2 0.91418460E-01 0.98012531E+03</pdfrwt>
<totfact> 0.94696739E+01</totfact>
</mgrwt>
</event>
<event>
 4    1  0.1724904E-005  0.5303907E+03  0.7818608E-02  0.1006137E+00
          2   -1    0    0  501    0  0.00000000000E+00  0.00000000000E+00  0.65094618849E+03  0.65094618850E+03  0.25500000000E-02 0.  1.
         -2   -1    0    0    0  501 -0.00000000000E+00 -0.00000000000E+00 -0.10804052373E+03  0.10804052376E+03  0.25500000000E-02 0. -1.
    5000001    1    1    2    0    0 -0.11547291835E+03 -0.12929713060E+03  0.23425178311E+03  0.35288332455E+03  0.19900000000E+03 0.  0.
   -5000001    1    1    2    0    0  0.11547291835E+03  0.12929713060E+03  0.30865388166E+03  0.40610338772E+03  0.19900000000E+03 0.  0.
<mgrwt>
<rscale>  0 0.53039068E+03</rscale>
<asrwt>0</asrwt>
<pdfrwt beam="1">  1        2 0.92992311E-01 0.53039068E+03</pdfrwt>
<pdfrwt beam="2">  1       -2 0.15434361E-01 0.53039068E+03</pdfrwt>
<totfact> 0.16401440E+03</totfact>
</mgrwt>
</event>
<event>
 4    1  0.1724904E-005  0.5590516E+03  0.7818608E-02  0.9994203E-01
          2   -1    0    0  501    0  0.00000000000E+00  0.00000000000E+00  0.78677089441E+03  0.78677089442E+03  0.25500000000E-02 0.  1.
         -2   -1    0    0    0  501 -0.00000000000E+00 -0.00000000000E+00 -0.99310579513E+02  0.99310579546E+02  0.25500000000E-02 0. -1.
    5000001    1    1    2    0    0 -0.19074372506E+03  0.43028962210E+02  0.31632281208E+03  0.42177693356E+03  0.19900000000E+03 0.  0.
   -5000001    1    1    2    0    0  0.19074372506E+03 -0.43028962210E+02  0.37113750282E+03  0.46430454040E+03  0.19900000000E+03 0.  0.
<mgrwt>
<rscale>  0 0.55905160E+03</rscale>
<asrwt>0</asrwt>
<pdfrwt beam="1">  1        2 0.11239585E+00 0.55905160E+03</pdfrwt>
<pdfrwt beam="2">  1       -2 0.14187225E-01 0.55905160E+03</pdfrwt>
<totfact> 0.14965176E+03</totfact>
</mgrwt>
</event>
<event>
 4    1  0.1724904E-005  0.4383287E+03  0.7818608E-02  0.1031261E+00
          2   -1    0    0  501    0  0.00000000000E+00  0.00000000000E+00  0.89494036490E+03  0.89494036490E+03  0.25500000000E-02 0.  1.
         -2   -1    0    0    0  501 -0.00000000000E+00 -0.00000000000E+00 -0.53671757554E+02  0.53671757615E+02  0.25500000000E-02 0. -1.
    5000001    1    1    2    0    0  0.43980149728E+02  0.77858775350E+02  0.37545679365E+03  0.43424077004E+03  0.19900000000E+03 0.  0.
   -5000001    1    1    2    0    0 -0.43980149728E+02 -0.77858775350E+02  0.46581181369E+03  0.51437135247E+03  0.19900000000E+03 0.  0.
<mgrwt>
<rscale>  0 0.43832875E+03</rscale>
<asrwt>0</asrwt>
<pdfrwt beam="1">  1        2 0.12784861E+00 0.43832875E+03</pdfrwt>
<pdfrwt beam="2">  1       -2 0.76673947E-02 0.43832875E+03</pdfrwt>
<totfact> 0.34338923E+03</totfact>
</mgrwt>
</event>
<event>
 4    1  0.1724904E-005  0.2399956E+04  0.7818608E-02  0.8439520E-01
          2   -1    0    0  501    0  0.00000000000E+00  0.00000000000E+00  0.62145923604E+03  0.62145923604E+03  0.25500000000E-02 0.  1.
         -2   -1    0    0    0  501 -0.00000000000E+00 -0.00000000000E+00 -0.23170425890E+04  0.23170425890E+04  0.25500000000E-02 0. -1.
    5000001    1    1    2    0    0 -0.74365713416E+03  0.89213204056E+03 -0.57014471632E+03  0.13090422104E+04  0.19900000000E+03 0.  0.
   -5000001    1    1    2    0    0  0.74365713416E+03 -0.89213204056E+03 -0.11254386366E+04  0.16294596146E+04  0.19900000000E+03 0.  0.
<mgrwt>
<rscale>  0 0.23999563E+04</rscale>
<asrwt>0</asrwt>
<pdfrwt beam="1">  1        2 0.88779892E-01 0.23999563E+04</pdfrwt>
<pdfrwt beam="2">  1       -2 0.33100608E+00 0.23999563E+04</pdfrwt>
<totfact> 0.96213502E-01</totfact>
</mgrwt>
</event>
<event>
 4    1  0.1724904E-005  0.1631705E+04  0.7818608E-02  0.8801304E-01
          2   -1    0    0  501    0  0.00000000000E+00  0.00000000000E+00  0.17494909971E+04  0.17494909971E+04  0.25500000000E-02 0.  1.
         -2   -1    0    0    0  501 -0.00000000000E+00 -0.00000000000E+00 -0.38046225927E+03  0.38046225927E+03  0.25500000000E-02 0. -1.
    5000001    1    1    2    0    0 -0.47960358278E+03 -0.55837142864E+03  0.30570050988E+03  0.82149379223E+03  0.19900000000E+03 0.  0.
   -5000001    1    1    2    0    0  0.47960358278E+03  0.55837142864E+03  0.10633282280E+04  0.13084594641E+04  0.19900000000E+03 0.  0.
<mgrwt>
<rscale>  0 0.16317050E+04</rscale>
<asrwt>0</asrwt>
<pdfrwt beam="1">  1        2 0.24992729E+00 0.16317050E+04</pdfrwt>
<pdfrwt beam="2">  1       -2 0.54351751E-01 0.16317050E+04</pdfrwt>
<totfact> 0.33017087E+01</totfact>
</mgrwt>
</event>
<event>
 4    1  0.1724904E-005  0.6241772E+03  0.7818608E-02  0.9856478E-01
         -2   -1    0    0    0  501 -0.00000000000E+00  0.00000000000E+00  0.30045904836E+03  0.30045904837E+03  0.25500000000E-02 0. -1.
          2   -1    0    0  501    0  0.00000000000E+00 -0.00000000000E+00 -0.32416824982E+03  0.32416824983E+03  0.25500000000E-02 0.  1.
    5000001    1    1    2    0    0 -0.11399019010E+03 -0.13995042646E+03  0.14706293971E+03  0.30628155926E+03  0.19900000000E+03 0.  0.
   -5000001    1    1    2    0    0  0.11399019010E+03  0.13995042646E+03 -0.17077214117E+03  0.31834573895E+03  0.19900000000E+03 0.  0.
<mgrwt>
<rscale>  0 0.62417717E+03</rscale>
<asrwt>0</asrwt>
<pdfrwt beam="1">  1        2 0.46309750E-01 0.62417717E+03</pdfrwt>
<pdfrwt beam="2">  1       -2 0.42922721E-01 0.62417717E+03</pdfrwt>
<totfact> 0.56682646E+02</totfact>
</mgrwt>
</event>
<event>
 4    1  0.1724904E-005  0.4942377E+03  0.7818608E-02  0.1015294E+00
         -2   -1    0    0    0  501 -0.00000000000E+00  0.00000000000E+00  0.11334389321E+02  0.11334389608E+02  0.25500000000E-02 0. -1.
          2   -1    0    0  501    0  0.00000000000E+00 -0.00000000000E+00 -0.53878260982E+04  0.53878260982E+04  0.25500000000E-02 0.  1.
    5000001    1    1    2    0    0 -0.64094820448E+02 -0.10761173708E+03 -0.35186508635E+04  0.35264987354E+04  0.19900000000E+03 0.  0.
   -5000001    1    1    2    0    0  0.64094820448E+02  0.10761173708E+03 -0.18578408454E+04  0.18726617524E+04  0.19900000000E+03 0.  0.
<mgrwt>
<rscale>  0 0.49423767E+03</rscale>
<asrwt>0</asrwt>
<pdfrwt beam="1">  1        2 0.76968780E+00 0.49423767E+03</pdfrwt>
<pdfrwt beam="2">  1       -2 0.16192020E-02 0.49423767E+03</pdfrwt>
<totfact> 0.48692123E+01</totfact>
</mgrwt>
</event>
<event>
 4    1  0.1724904E-005  0.1243976E+04  0.7818608E-02  0.9075212E-01
          2   -1    0    0  501    0  0.00000000000E+00  0.00000000000E+00  0.25436415504E+04  0.25436415504E+04  0.25500000000E-02 0.  1.
         -2   -1    0    0    0  501 -0.00000000000E+00 -0.00000000000E+00 -0.15209248552E+03  0.15209248554E+03  0.25500000000E-02 0. -1.
    5000001    1    1    2    0    0  0.52179149048E+03  0.26247626267E+03  0.13651307458E+04  0.14981131804E+04  0.19900000000E+03 0.  0.
   -5000001    1    1    2    0    0 -0.52179149048E+03 -0.26247626267E+03  0.10264183190E+04  0.11976208555E+04  0.19900000000E+03 0.  0.
<mgrwt>
<rscale>  0 0.12439755E+04</rscale>
<asrwt>0</asrwt>
<pdfrwt beam="1">  1        2 0.36337736E+00 0.12439755E+04</pdfrwt>
<pdfrwt beam="2">  1       -2 0.21727498E-01 0.12439755E+04</pdfrwt>
<totfact> 0.76273110E+01</totfact>
</mgrwt>
</event>
<event>
 4    1  0.1724904E-005  0.4499355E+03  0.7818608E-02  0.1027741E+00
          2   -1    0    0  501    0  0.00000000000E+00  0.00000000000E+00  0.31938624734E+03  0.31938624735E+03  0.25500000000E-02 0.  1.
         -2   -1    0    0    0  501 -0.00000000000E+00 -0.00000000000E+00 -0.15846172115E+03  0.15846172117E+03  0.25500000000E-02 0. -1.
    5000001    1    1    2    0    0 -0.89647872811E+02  0.21056622849E+02  0.27049405651E+02  0.22093617361E+03  0.19900000000E+03 0.  0.
   -5000001    1    1    2    0    0  0.89647872811E+02 -0.21056622849E+02  0.13387512053E+03  0.25691179491E+03  0.19900000000E+03 0.  0.
<mgrwt>
<rscale>  0 0.44993553E+03</rscale>
<asrwt>0</asrwt>
<pdfrwt beam="1">  1        2 0.45626607E-01 0.44993553E+03</pdfrwt>
<pdfrwt beam="2">  1       -2 0.22637389E-01 0.44993553E+03</pdfrwt>
<totfact> 0.18910565E+03</totfact>
</mgrwt>
</event>
<event>
 4    1  0.1724904E-005  0.9859270E+03  0.7818608E-02  0.9324116E-01
          2   -1    0    0  501    0  0.00000000000E+00  0.00000000000E+00  0.14047769071E+04  0.14047769071E+04  0.25500000000E-02 0.  1.
         -2   -1    0    0    0  501 -0.00000000000E+00 -0.00000000000E+00 -0.17299047233E+03  0.17299047234E+03  0.25500000000E-02 0. -1.
    5000001    1    1    2    0    0  0.44453565602E+03 -0.22364723396E+02  0.49939168227E+03  0.69792921034E+03  0.19900000000E+03 0.  0.
   -5000001    1    1    2    0    0 -0.44453565602E+03  0.22364723396E+02  0.73239475253E+03  0.87983816913E+03  0.19900000000E+03 0.  0.
<mgrwt>
<rscale>  0 0.98592702E+03</rscale>
<asrwt>0</asrwt>
<pdfrwt beam="1">  1        2 0.20068242E+00 0.98592702E+03</pdfrwt>
<pdfrwt beam="2">  1       -2 0.24712925E-01 0.98592702E+03</pdfrwt>
<totfact> 0.24004632E+02</totfact>
</mgrwt>
</event>
<event>
 4    1  0.1724904E-005  0.8963838E+03  0.7818608E-02  0.9430113E-01
          2   -1    0    0  501    0  0.00000000000E+00  0.00000000000E+00  0.25836049673E+03  0.25836049674E+03  0.25500000000E-02 0.  1.
         -2   -1    0    0    0  501 -0.00000000000E+00 -0.00000000000E+00 -0.77750260466E+03  0.77750260466E+03  0.25500000000E-02 0. -1.
    5000001    1    1    2    0    0  0.35892661842E+03 -0.17121883399E+03 -0.19491149125E+03  0.48552620521E+03  0.19900000000E+03 0.  0.
   -5000001    1    1    2    0    0 -0.35892661842E+03  0.17121883399E+03 -0.32423061668E+03  0.55033689619E+03  0.19900000000E+03 0.  0.
<mgrwt>
<rscale>  0 0.89638376E+03</rscale>
<asrwt>0</asrwt>
<pdfrwt beam="1">  1        2 0.36908643E-01 0.89638376E+03</pdfrwt>
<pdfrwt beam="2">  1       -2 0.11107180E+00 0.89638376E+03</pdfrwt>
<totfact> 0.90754924E+01</totfact>
</mgrwt>
</event>
<event>
 4    1  0.1724904E-005  0.5830918E+03  0.7818608E-02  0.9941120E-01
          2   -1    0    0  501    0  0.00000000000E+00  0.00000000000E+00  0.77495445395E+03  0.77495445395E+03  0.25500000000E-02 0.  1.
         -2   -1    0    0    0  501 -0.00000000000E+00 -0.00000000000E+00 -0.10968257520E+03  0.10968257523E+03  0.25500000000E-02 0. -1.
    5000001    1    1    2    0    0  0.18504323487E+02  0.21192148113E+03  0.35089702032E+03  0.45605136007E+03  0.19900000000E+03 0.  0.
   -5000001    1    1    2    0    0 -0.18504323487E+02 -0.21192148113E+03  0.31437485843E+03  0.42858566911E+03  0.19900000000E+03 0.  0.
<mgrwt>
<rscale>  0 0.58309176E+03</rscale>
<asrwt>0</asrwt>
<pdfrwt beam="1">  1        2 0.11070778E+00 0.58309176E+03</pdfrwt>
<pdfrwt beam="2">  1       -2 0.15668940E-01 0.58309176E+03</pdfrwt>
<totfact> 0.12905574E+03</totfact>
</mgrwt>
</event>
<event>
 4    1  0.1724904E-005  0.1321612E+04  0.7818608E-02  0.9012600E-01
          2   -1    0    0  501    0  0.00000000000E+00  0.00000000000E+00  0.21007813966E+04  0.21007813966E+04  0.25500000000E-02 0.  1.
         -2   -1    0    0    0  501 -0.00000000000E+00 -0.00000000000E+00 -0.20785802808E+03  0.20785802809E+03  0.25500000000E-02 0. -1.
    5000001    1    1    2    0    0 -0.36091188286E+03  0.51571567628E+03  0.89573622722E+03  0.11127283742E+04  0.19900000000E+03 0.  0.
   -5000001    1    1    2    0    0  0.36091188286E+03 -0.51571567628E+03  0.99718714126E+03  0.11959110505E+04  0.19900000000E+03 0.  0.
<mgrwt>
<rscale>  0 0.13216116E+04</rscale>
<asrwt>0</asrwt>
<pdfrwt beam="1">  1        2 0.30011161E+00 0.13216116E+04</pdfrwt>
<pdfrwt beam="2">  1       -2 0.29694006E-01 0.13216116E+04</pdfrwt>
<totfact> 0.72896336E+01</totfact>
</mgrwt>
</event>
<event>
 4    1  0.1724904E-005  0.4478441E+03  0.7818608E-02  0.1028367E+00
          2   -1    0    0  501    0  0.00000000000E+00  0.00000000000E+00  0.18635249380E+04  0.18635249380E+04  0.25500000000E-02 0.  1.
         -2   -1    0    0    0  501 -0.00000000000E+00 -0.00000000000E+00 -0.26906585506E+02  0.26906585626E+02  0.25500000000E-02 0. -1.
    5000001    1    1    2    0    0 -0.37629937075E+02  0.30501611288E+02  0.53621101032E+03  0.57399443206E+03  0.19900000000E+03 0.  0.
   -5000001    1    1    2    0    0  0.37629937075E+02 -0.30501611288E+02  0.13004073422E+04  0.13164370915E+04  0.19900000000E+03 0.  0.
<mgrwt>
<rscale>  0 0.44784414E+03</rscale>
<asrwt>0</asrwt>
<pdfrwt beam="1">  1        2 0.26621800E+00 0.44784414E+03</pdfrwt>
<pdfrwt beam="2">  1       -2 0.38437957E-02 0.44784414E+03</pdfrwt>
<totfact> 0.29952750E+03</totfact>
</mgrwt>
</event>
<event>
 4    1  0.1724904E-005  0.8927175E+03  0.7818608E-02  0.9434731E-01
         -2   -1    0    0    0  501 -0.00000000000E+00  0.00000000000E+00  0.16503418099E+03  0.16503418100E+03  0.25500000000E-02 0. -1.
          2   -1    0    0  501    0  0.00000000000E+00 -0.00000000000E+00 -0.12072417643E+04  0.12072417643E+04  0.25500000000E-02 0.  1.
    5000001    1    1    2    0    0 -0.70800707675E+02  0.35168582257E+03 -0.79148967172E+03  0.89148895587E+03  0.19900000000E+03 0.  0.
   -5000001    1    1    2    0    0  0.70800707675E+02 -0.35168582257E+03 -0.25071791158E+03  0.48078698942E+03  0.19900000000E+03 0.  0.
<mgrwt>
<rscale>  0 0.89271755E+03</rscale>
<asrwt>0</asrwt>
<pdfrwt beam="1">  1        2 0.17246310E+00 0.89271755E+03</pdfrwt>
<pdfrwt beam="2">  1       -2 0.23576312E-01 0.89271755E+03</pdfrwt>
<totfact> 0.33741005E+02</totfact>
</mgrwt>
</event>
<event>
 4    1  0.1724904E-005  0.5752072E+03  0.7818608E-02  0.9958222E-01
         -2   -1    0    0    0  501 -0.00000000000E+00  0.00000000000E+00  0.64729034933E+02  0.64729034983E+02  0.25500000000E-02 0. -1.
          2   -1    0    0  501    0  0.00000000000E+00 -0.00000000000E+00 -0.12778782884E+04  0.12778782884E+04  0.25500000000E-02 0.  1.
    5000001    1    1    2    0    0  0.13643051613E+03  0.48149861815E+02 -0.95421975717E+03  0.98542784612E+03  0.19900000000E+03 0.  0.
   -5000001    1    1    2    0    0 -0.13643051613E+03 -0.48149861815E+02 -0.25892949627E+03  0.35717947724E+03  0.19900000000E+03 0.  0.
<mgrwt>
<rscale>  0 0.57520719E+03</rscale>
<asrwt>0</asrwt>
<pdfrwt beam="1">  1        2 0.18255403E+00 0.57520719E+03</pdfrwt>
<pdfrwt beam="2">  1       -2 0.92470058E-02 0.57520719E+03</pdfrwt>
<totfact> 0.15196487E+03</totfact>
</mgrwt>
</event>
<event>
 4    1  0.1724904E-005  0.5457903E+03  0.7818608E-02  0.1002473E+00
         -2   -1    0    0    0  501 -0.00000000000E+00  0.00000000000E+00  0.12002187193E+03  0.12002187196E+03  0.25500000000E-02 0. -1.
          2   -1    0    0  501    0  0.00000000000E+00 -0.00000000000E+00 -0.62048494382E+03  0.62048494383E+03  0.25500000000E-02 0.  1.
    5000001    1    1    2    0    0 -0.12834761070E+03 -0.10664401587E+03 -0.36394644735E+03  0.44710633168E+03  0.19900000000E+03 0.  0.
   -5000001    1    1    2    0    0  0.12834761070E+03  0.10664401587E+03 -0.13651662455E+03  0.29340048410E+03  0.19900000000E+03 0.  0.
<mgrwt>
<rscale>  0 0.54579031E+03</rscale>
<asrwt>0</asrwt>
<pdfrwt beam="1">  1        2 0.88640704E-01 0.54579031E+03</pdfrwt>
<pdfrwt beam="2">  1       -2 0.17145982E-01 0.54579031E+03</pdfrwt>
<totfact> 0.14527967E+03</totfact>
</mgrwt>
</event>
<event>
 4    1  0.1724904E-005  0.2032671E+04  0.7818608E-02  0.8591496E-01
         -2   -1    0    0    0  501 -0.00000000000E+00  0.00000000000E+00  0.55215754792E+03  0.55215754792E+03  0.25500000000E-02 0. -1.
          2   -1    0    0  501    0  0.00000000000E+00 -0.00000000000E+00 -0.18707303110E+04  0.18707303110E+04  0.25500000000E-02 0.  1.
    5000001    1    1    2    0    0 -0.89007218685E+03  0.28785585986E+03 -0.24940144290E+03  0.98837825430E+03  0.19900000000E+03 0.  0.
   -5000001    1    1    2    0    0  0.89007218685E+03 -0.28785585986E+03 -0.10691713202E+04  0.14345096046E+04  0.19900000000E+03 0.  0.
<mgrwt>
<rscale>  0 0.20326710E+04</rscale>
<asrwt>0</asrwt>
<pdfrwt beam="1">  1        2 0.26724719E+00 0.20326710E+04</pdfrwt>
<pdfrwt beam="2">  1       -2 0.78879650E-01 0.20326710E+04</pdfrwt>
<totfact> 0.12417187E+01</totfact>
</mgrwt>
</event>
<event>
 4    1  0.1724904E-005  0.4566257E+03  0.7818608E-02  0.1025764E+00
         -2   -1    0    0    0  501 -0.00000000000E+00  0.00000000000E+00  0.54918008239E+02  0.54918008298E+02  0.25500000000E-02 0. -1.
          2   -1    0    0  501    0  0.00000000000E+00 -0.00000000000E+00 -0.94917441492E+03  0.94917441492E+03  0.25500000000E-02 0.  1.
    5000001    1    1    2    0    0 -0.16289660846E+02 -0.73607862551E+02 -0.26523591675E+03  0.34005082269E+03  0.19900000000E+03 0.  0.
   -5000001    1    1    2    0    0  0.16289660846E+02  0.73607862551E+02 -0.62902048993E+03  0.66404160052E+03  0.19900000000E+03 0.  0.
<mgrwt>
<rscale>  0 0.45662575E+03</rscale>
<asrwt>0</asrwt>
<pdfrwt beam="1">  1        2 0.13559634E+00 0.45662575E+03</pdfrwt>
<pdfrwt beam="2">  1       -2 0.78454303E-02 0.45662575E+03</pdfrwt>
<totfact> 0.30620501E+03</totfact>
</mgrwt>
</event>
<event>
 4    1  0.1724904E-005  0.1296038E+04  0.7818608E-02  0.9032713E-01
         -2   -1    0    0    0  501 -0.00000000000E+00  0.00000000000E+00  0.72739983029E+03  0.72739983030E+03  0.25500000000E-02 0. -1.
          2   -1    0    0  501    0  0.00000000000E+00 -0.00000000000E+00 -0.57730093766E+03  0.57730093767E+03  0.25500000000E-02 0.  1.
    5000001    1    1    2    0    0 -0.29156774257E+03  0.54120369396E+03  0.12451459890E+03  0.65804108702E+03  0.19900000000E+03 0.  0.
   -5000001    1    1    2    0    0  0.29156774257E+03 -0.54120369396E+03  0.25584293731E+02  0.64665968094E+03  0.19900000000E+03 0.  0.
<mgrwt>
<rscale>  0 0.12960380E+04</rscale>
<asrwt>0</asrwt>
<pdfrwt beam="1">  1        2 0.82471563E-01 0.12960380E+04</pdfrwt>
<pdfrwt beam="2">  1       -2 0.10391426E+00 0.12960380E+04</pdfrwt>
<totfact> 0.42030920E+01</totfact>
</mgrwt>
</event>
<event>
 4    1  0.1724904E-005  0.4817604E+03  0.7818608E-02  0.1018652E+00
         -2   -1    0    0    0  501 -0.00000000000E+00  0.00000000000E+00  0.71726828919E+02  0.71726828964E+02  0.25500000000E-02 0. -1.
          2   -1    0    0  501    0  0.00000000000E+00 -0.00000000000E+00 -0.80894802277E+03  0.80894802278E+03  0.25500000000E-02 0.  1.
    5000001    1    1    2    0    0  0.30550072781E+02 -0.12731789025E+03 -0.43398998551E+03  0.49506712640E+03  0.19900000000E+03 0.  0.
   -5000001    1    1    2    0    0 -0.30550072781E+02  0.12731789025E+03 -0.30323120834E+03  0.38560772534E+03  0.19900000000E+03 0.  0.
<mgrwt>
<rscale>  0 0.48176042E+03</rscale>
<asrwt>0</asrwt>
<pdfrwt beam="1">  1        2 0.11556400E+00 0.48176042E+03</pdfrwt>
<pdfrwt beam="2">  1       -2 0.10246690E-01 0.48176042E+03</pdfrwt>
<totfact> 0.24653286E+03</totfact>
</mgrwt>
</event>
<event>
 4    1  0.1724904E-005  0.4556920E+03  0.7818608E-02  0.1026038E+00
          2   -1    0    0  501    0  0.00000000000E+00  0.00000000000E+00  0.10564375779E+04  0.10564375779E+04  0.25500000000E-02 0.  1.
         -2   -1    0    0    0  501 -0.00000000000E+00 -0.00000000000E+00 -0.49140425715E+02  0.49140425781E+02  0.25500000000E-02 0. -1.
    5000001    1    1    2    0    0 -0.68158071237E+02 -0.69689257606E+02  0.63227301411E+03  0.66997931287E+03  0.19900000000E+03 0.  0.
   -5000001    1    1    2    0    0  0.68158071237E+02  0.69689257606E+02  0.37502413807E+03  0.43559869081E+03  0.19900000000E+03 0.  0.
<mgrwt>
<rscale>  0 0.45569197E+03</rscale>
<asrwt>0</asrwt>
<pdfrwt beam="1">  1        2 0.15091966E+00 0.45569197E+03</pdfrwt>
<pdfrwt beam="2">  1       -2 0.70200605E-02 0.45569197E+03</pdfrwt>
<totfact> 0.31437394E+03</totfact>
</mgrwt>
</event>
<event>
 4    1  0.1724904E-005  0.1957970E+04  0.7818608E-02  0.8626527E-01
         -2   -1    0    0    0  501 -0.00000000000E+00  0.00000000000E+00  0.10249304831E+04  0.10249304831E+04  0.25500000000E-02 0. -1.
          2   -1    0    0  501    0  0.00000000000E+00 -0.00000000000E+00 -0.93509925655E+03  0.93509925655E+03  0.25500000000E-02 0.  1.
    5000001    1    1    2    0    0  0.69920176644E+03  0.45881724895E+03  0.51382521195E+03  0.10015057297E+04  0.19900000000E+03 0.  0.
   -5000001    1    1    2    0    0 -0.69920176644E+03 -0.45881724895E+03 -0.42399398537E+03  0.95852401000E+03  0.19900000000E+03 0.  0.
<mgrwt>
<rscale>  0 0.19579701E+04</rscale>
<asrwt>0</asrwt>
<pdfrwt beam="1">  1        2 0.13358561E+00 0.19579701E+04</pdfrwt>
<pdfrwt beam="2">  1       -2 0.14641864E+00 0.19579701E+04</pdfrwt>
<totfact> 0.92203118E+00</totfact>
</mgrwt>
</event>
<event>
 4    1  0.1724904E-005  0.6949283E+03  0.7818608E-02  0.9725945E-01
         -2   -1    0    0    0  501 -0.00000000000E+00  0.00000000000E+00  0.63225513524E+02  0.63225513575E+02  0.25500000000E-02 0. -1.
          2   -1    0    0  501    0  0.00000000000E+00 -0.00000000000E+00 -0.19095352151E+04  0.19095352151E+04  0.25500000000E-02 0.  1.
    5000001    1    1    2    0    0 -0.13102400633E+03  0.20800076214E+03 -0.51473548539E+03  0.60414007250E+03  0.19900000000E+03 0.  0.
   -5000001    1    1    2    0    0  0.13102400633E+03 -0.20800076214E+03 -0.13315742162E+04  0.13686206562E+04  0.19900000000E+03 0.  0.
<mgrwt>
<rscale>  0 0.69492833E+03</rscale>
<asrwt>0</asrwt>
<pdfrwt beam="1">  1        2 0.27279071E+00 0.69492833E+03</pdfrwt>
<pdfrwt beam="2">  1       -2 0.90322174E-02 0.69492833E+03</pdfrwt>
<totfact> 0.73834255E+02</totfact>
</mgrwt>
</event>
<event>
 4    1  0.1724904E-005  0.5770939E+03  0.7818608E-02  0.9954102E-01
         -2   -1    0    0    0  501 -0.00000000000E+00  0.00000000000E+00  0.55780366126E+02  0.55780366185E+02  0.25500000000E-02 0. -1.
          2   -1    0    0  501    0  0.00000000000E+00 -0.00000000000E+00 -0.14926282898E+04  0.14926282898E+04  0.25500000000E-02 0.  1.
    5000001    1    1    2    0    0 -0.17433126007E+03 -0.10968623115E+03 -0.81274962521E+03  0.86173395594E+03  0.19900000000E+03 0.  0.
   -5000001    1    1    2    0    0  0.17433126007E+03  0.10968623115E+03 -0.62409829849E+03  0.68667470007E+03  0.19900000000E+03 0.  0.
<mgrwt>
<rscale>  0 0.57709394E+03</rscale>
<asrwt>0</asrwt>
<pdfrwt beam="1">  1        2 0.21323259E+00 0.57709394E+03</pdfrwt>
<pdfrwt beam="2">  1       -2 0.79686247E-02 0.57709394E+03</pdfrwt>
<totfact> 0.14817515E+03</totfact>
</mgrwt>
</event>
<event>
 4    1  0.1724904E-005  0.4722198E+03  0.7818608E-02  0.1021296E+00
          2   -1    0    0  501    0  0.00000000000E+00  0.00000000000E+00  0.17527202685E+04  0.17527202685E+04  0.25500000000E-02 0.  1.
         -2   -1    0    0    0  501 -0.00000000000E+00 -0.00000000000E+00 -0.31806496043E+02  0.31806496146E+02  0.25500000000E-02 0. -1.
    5000001    1    1    2    0    0 -0.26341371986E+02 -0.12348897548E+03  0.80654851786E+03  0.84027668455E+03  0.19900000000E+03 0.  0.
   -5000001    1    1    2    0    0  0.26341371986E+02  0.12348897548E+03  0.91436525458E+03  0.94425008007E+03  0.19900000000E+03 0.  0.
<mgrwt>
<rscale>  0 0.47221982E+03</rscale>
<asrwt>0</asrwt>
<pdfrwt beam="1">  1        2 0.25038858E+00 0.47221982E+03</pdfrwt>
<pdfrwt beam="2">  1       -2 0.45437858E-02 0.47221982E+03</pdfrwt>
<totfact> 0.26330961E+03</totfact>
</mgrwt>
</event>
<event>
 4    1  0.1724904E-005  0.8450989E+03  0.7818608E-02  0.9496939E-01
         -2   -1    0    0    0  501 -0.00000000000E+00  0.00000000000E+00  0.25076848803E+03  0.25076848804E+03  0.25500000000E-02 0. -1.
          2   -1    0    0  501    0  0.00000000000E+00 -0.00000000000E+00 -0.71200352439E+03  0.71200352439E+03  0.25500000000E-02 0.  1.
    5000001    1    1    2    0    0  0.18201558536E+03 -0.10358635362E+03 -0.58191661461E+03  0.64968280901E+03  0.19900000000E+03 0.  0.
   -5000001    1    1    2    0    0 -0.18201558536E+03  0.10358635362E+03  0.12068157825E+03  0.31308920342E+03  0.19900000000E+03 0.  0.
<mgrwt>
<rscale>  0 0.84509892E+03</rscale>
<asrwt>0</asrwt>
<pdfrwt beam="1">  1        2 0.10171479E+00 0.84509892E+03</pdfrwt>
<pdfrwt beam="2">  1       -2 0.35824070E-01 0.84509892E+03</pdfrwt>
<totfact> 0.32368174E+02</totfact>
</mgrwt>
</event>
<event>
 4    1  0.1724904E-005  0.4214353E+03  0.7818608E-02  0.1036600E+00
         -2   -1    0    0    0  501 -0.00000000000E+00  0.00000000000E+00  0.16983972381E+03  0.16983972383E+03  0.25500000000E-02 0. -1.
          2   -1    0    0  501    0  0.00000000000E+00 -0.00000000000E+00 -0.26143425644E+03  0.26143425645E+03  0.25500000000E-02 0.  1.
    5000001    1    1    2    0    0 -0.44736931461E+02 -0.52905064885E+02 -0.46578627590E+02  0.21580293667E+03  0.19900000000E+03 0.  0.
   -5000001    1    1    2    0    0  0.44736931461E+02  0.52905064885E+02 -0.45015905037E+02  0.21547104361E+03  0.19900000000E+03 0.  0.
<mgrwt>
<rscale>  0 0.42143527E+03</rscale>
<asrwt>0</asrwt>
<pdfrwt beam="1">  1        2 0.37347751E-01 0.42143527E+03</pdfrwt>
<pdfrwt beam="2">  1       -2 0.24262818E-01 0.42143527E+03</pdfrwt>
<totfact> 0.20814751E+03</totfact>
</mgrwt>
</event>
<event>
 4    1  0.1724904E-005  0.1696700E+04  0.7818608E-02  0.8763248E-01
         -2   -1    0    0    0  501 -0.00000000000E+00  0.00000000000E+00  0.94571576807E+03  0.94571576807E+03  0.25500000000E-02 0. -1.
          2   -1    0    0  501    0  0.00000000000E+00 -0.00000000000E+00 -0.76100881954E+03  0.76100881955E+03  0.25500000000E-02 0.  1.
    5000001    1    1    2    0    0  0.66722914633E+03 -0.47928829043E+03  0.19920820652E+02  0.84552341077E+03  0.19900000000E+03 0.  0.
   -5000001    1    1    2    0    0 -0.66722914633E+03  0.47928829043E+03  0.16478612787E+03  0.86120117685E+03  0.19900000000E+03 0.  0.
<mgrwt>
<rscale>  0 0.16967004E+04</rscale>
<asrwt>0</asrwt>
<pdfrwt beam="1">  1        2 0.10871555E+00 0.16967004E+04</pdfrwt>
<pdfrwt beam="2">  1       -2 0.13510225E+00 0.16967004E+04</pdfrwt>
<totfact> 0.15225907E+01</totfact>
</mgrwt>
</event>
<event>
 4    1  0.1724904E-005  0.5631192E+03  0.7818608E-02  0.9985022E-01
          2   -1    0    0  501    0  0.00000000000E+00  0.00000000000E+00  0.13754516186E+04  0.13754516187E+04  0.25500000000E-02 0.  1.
         -2   -1    0    0    0  501 -0.00000000000E+00 -0.00000000000E+00 -0.57636196379E+02  0.57636196436E+02  0.25500000000E-02 0. -1.
    5000001    1    1    2    0    0 -0.15558711067E+03  0.79494451537E+02  0.90231721758E+03  0.94037443499E+03  0.19900000000E+03 0.  0.
   -5000001    1    1    2    0    0  0.15558711067E+03 -0.79494451537E+02  0.41549820469E+03  0.49271338010E+03  0.19900000000E+03 0.  0.
<mgrwt>
<rscale>  0 0.56311917E+03</rscale>
<asrwt>0</asrwt>
<pdfrwt beam="1">  1        2 0.19649305E+00 0.56311917E+03</pdfrwt>
<pdfrwt beam="2">  1       -2 0.82337440E-02 0.56311917E+03</pdfrwt>
<totfact> 0.16218513E+03</totfact>
</mgrwt>
</event>
<event>
 4    1  0.1724904E-005  0.7412216E+03  0.7818608E-02  0.9649224E-01
         -2   -1    0    0    0  501 -0.00000000000E+00  0.00000000000E+00  0.16406658963E+03  0.16406658965E+03  0.25500000000E-02 0. -1.
          2   -1    0    0  501    0  0.00000000000E+00 -0.00000000000E+00 -0.83717444799E+03  0.83717444800E+03  0.25500000000E-02 0.  1.
    5000001    1    1    2    0    0  0.20380394588E+03  0.23639827529E+03 -0.31197222715E+03  0.48409489094E+03  0.19900000000E+03 0.  0.
   -5000001    1    1    2    0    0 -0.20380394588E+03 -0.23639827529E+03 -0.36113563122E+03  0.51714614671E+03  0.19900000000E+03 0.  0.
<mgrwt>
<rscale>  0 0.74122158E+03</rscale>
<asrwt>0</asrwt>
<pdfrwt beam="1">  1        2 0.11959635E+00 0.74122158E+03</pdfrwt>
<pdfrwt beam="2">  1       -2 0.23438085E-01 0.74122158E+03</pdfrwt>
<totfact> 0.57866513E+02</totfact>
</mgrwt>
</event>
<event>
 4    1  0.1724904E-005  0.5082026E+03  0.7818608E-02  0.1011660E+00
         -2   -1    0    0    0  501 -0.00000000000E+00  0.00000000000E+00  0.42938024548E+02  0.42938024624E+02  0.25500000000E-02 0. -1.
          2   -1    0    0  501    0  0.00000000000E+00 -0.00000000000E+00 -0.15037366064E+04  0.15037366064E+04  0.25500000000E-02 0.  1.
    5000001    1    1    2    0    0  0.82464893645E+02 -0.10804164492E+03 -0.48516254604E+03  0.54171685575E+03  0.19900000000E+03 0.  0.
   -5000001    1    1    2    0    0 -0.82464893645E+02  0.10804164492E+03 -0.97563603585E+03  0.10049577753E+04  0.19900000000E+03 0.  0.
<mgrwt>
<rscale>  0 0.50820263E+03</rscale>
<asrwt>0</asrwt>
<pdfrwt beam="1">  1        2 0.21481948E+00 0.50820263E+03</pdfrwt>
<pdfrwt beam="2">  1       -2 0.61340044E-02 0.50820263E+03</pdfrwt>
<totfact> 0.22131830E+03</totfact>
</mgrwt>
</event>
<event>
 4    1  0.1724904E-005  0.7201572E+03  0.7818608E-02  0.9683368E-01
          2   -1    0    0  501    0  0.00000000000E+00  0.00000000000E+00  0.51516227954E+03  0.51516227954E+03  0.25500000000E-02 0.  1.
         -2   -1    0    0    0  501 -0.00000000000E+00 -0.00000000000E+00 -0.25168110666E+03  0.25168110668E+03  0.25500000000E-02 0. -1.
    5000001    1    1    2    0    0 -0.15354537082E+03 -0.14643156263E+03 -0.94236901703E+02  0.30577765954E+03  0.19900000000E+03 0.  0.
   -5000001    1    1    2    0    0  0.15354537082E+03  0.14643156263E+03  0.35771807458E+03  0.46106572667E+03  0.19900000000E+03 0.  0.
<mgrwt>
<rscale>  0 0.72015724E+03</rscale>
<asrwt>0</asrwt>
<pdfrwt beam="1">  1        2 0.73594610E-01 0.72015724E+03</pdfrwt>
<pdfrwt beam="2">  1       -2 0.35954444E-01 0.72015724E+03</pdfrwt>
<totfact> 0.47454571E+02</totfact>
</mgrwt>
</event>
<event>
 4    1  0.1724904E-005  0.5830013E+03  0.7818608E-02  0.9941314E-01
         -2   -1    0    0    0  501 -0.00000000000E+00  0.00000000000E+00  0.26723340622E+02  0.26723340744E+02  0.25500000000E-02 0. -1.
          2   -1    0    0  501    0  0.00000000000E+00 -0.00000000000E+00 -0.31797153805E+04  0.31797153805E+04  0.25500000000E-02 0.  1.
    5000001    1    1    2    0    0 -0.20047824241E+03  0.25915567436E+02 -0.19457866489E+04  0.19663544506E+04  0.19900000000E+03 0.  0.
   -5000001    1    1    2    0    0  0.20047824241E+03 -0.25915567436E+02 -0.12072053909E+04  0.12400842706E+04  0.19900000000E+03 0.  0.
<mgrwt>
<rscale>  0 0.58300126E+03</rscale>
<asrwt>0</asrwt>
<pdfrwt beam="1">  1        2 0.45424481E+00 0.58300126E+03</pdfrwt>
<pdfrwt beam="2">  1       -2 0.38176221E-02 0.58300126E+03</pdfrwt>
<totfact> 0.62570251E+02</totfact>
</mgrwt>
</event>
<event>
 4    1  0.1724904E-005  0.5757327E+03  0.7818608E-02  0.9957073E-01
         -2   -1    0    0    0  501 -0.00000000000E+00  0.00000000000E+00  0.97933176738E+02  0.97933176771E+02  0.25500000000E-02 0. -1.
          2   -1    0    0  501    0  0.00000000000E+00 -0.00000000000E+00 -0.84615886433E+03  0.84615886434E+03  0.25500000000E-02 0.  1.
    5000001    1    1    2    0    0 -0.17014963175E+03 -0.52329390785E+02 -0.19767690920E+03  0.33221442285E+03  0.19900000000E+03 0.  0.
   -5000001    1    1    2    0    0  0.17014963175E+03  0.52329390785E+02 -0.55054877840E+03  0.61187761826E+03  0.19900000000E+03 0.  0.
<mgrwt>
<rscale>  0 0.57573267E+03</rscale>
<asrwt>0</asrwt>
<pdfrwt beam="1">  1        2 0.12087983E+00 0.57573267E+03</pdfrwt>
<pdfrwt beam="2">  1       -2 0.13990454E-01 0.57573267E+03</pdfrwt>
<totfact> 0.13949068E+03</totfact>
</mgrwt>
</event>
<event>
 4    1  0.1724904E-005  0.7881750E+03  0.7818608E-02  0.9577293E-01
          2   -1    0    0  501    0  0.00000000000E+00  0.00000000000E+00  0.28019744493E+03  0.28019744494E+03  0.25500000000E-02 0.  1.
         -2   -1    0    0    0  501 -0.00000000000E+00 -0.00000000000E+00 -0.55426967211E+03  0.55426967212E+03  0.25500000000E-02 0. -1.
    5000001    1    1    2    0    0 -0.33948236161E+03  0.19769292685E+02 -0.12851037413E+03  0.41443336622E+03  0.19900000000E+03 0.  0.
   -5000001    1    1    2    0    0  0.33948236161E+03 -0.19769292685E+02 -0.14556185305E+03  0.42003375084E+03  0.19900000000E+03 0.  0.
<mgrwt>
<rscale>  0 0.78817497E+03</rscale>
<asrwt>0</asrwt>
<pdfrwt beam="1">  1        2 0.40028206E-01 0.78817497E+03</pdfrwt>
<pdfrwt beam="2">  1       -2 0.79181382E-01 0.78817497E+03</pdfrwt>
<totfact> 0.18345104E+02</totfact>
</mgrwt>
</event>
<event>
 4    1  0.1724904E-005  0.5130334E+03  0.7818608E-02  0.1010432E+00
          2   -1    0    0  501    0  0.00000000000E+00  0.00000000000E+00  0.23633937740E+04  0.23633937740E+04  0.25500000000E-02 0.  1.
         -2   -1    0    0    0  501 -0.00000000000E+00 -0.00000000000E+00 -0.27841667317E+02  0.27841667434E+02  0.25500000000E-02 0. -1.
    5000001    1    1    2    0    0  0.17295547210E+02 -0.14730132029E+03  0.86560225086E+03  0.90048046709E+03  0.19900000000E+03 0.  0.
   -5000001    1    1    2    0    0 -0.17295547210E+02  0.14730132029E+03  0.14699498558E+04  0.14907549743E+04  0.19900000000E+03 0.  0.
<mgrwt>
<rscale>  0 0.51303342E+03</rscale>
<asrwt>0</asrwt>
<pdfrwt beam="1">  1        2 0.33762783E+00 0.51303342E+03</pdfrwt>
<pdfrwt beam="2">  1       -2 0.39773793E-02 0.51303342E+03</pdfrwt>
<totfact> 0.15950773E+03</totfact>
</mgrwt>
</event>
<event>
 4    1  0.1724904E-005  0.9809453E+03  0.7818608E-02  0.9329694E-01
          2   -1    0    0  501    0  0.00000000000E+00  0.00000000000E+00  0.28404589006E+04  0.28404589006E+04  0.25500000000E-02 0.  1.
         -2   -1    0    0    0  501 -0.00000000000E+00 -0.00000000000E+00 -0.84691737184E+02  0.84691737223E+02  0.25500000000E-02 0. -1.
    5000001    1    1    2    0    0  0.15021998062E+03 -0.42165274025E+03  0.14512499438E+04  0.15316933360E+04  0.19900000000E+03 0.  0.
   -5000001    1    1    2    0    0 -0.15021998062E+03  0.42165274025E+03  0.13045172195E+04  0.13934573018E+04  0.19900000000E+03 0.  0.
<mgrwt>
<rscale>  0 0.98094526E+03</rscale>
<asrwt>0</asrwt>
<pdfrwt beam="1">  1        2 0.40577978E+00 0.98094526E+03</pdfrwt>
<pdfrwt beam="2">  1       -2 0.12098821E-01 0.98094526E+03</pdfrwt>
<totfact> 0.14799784E+02</totfact>
</mgrwt>
</event>
<event>
 4    1  0.1724904E-005  0.4693083E+03  0.7818608E-02  0.1022116E+00
          2   -1    0    0  501    0  0.00000000000E+00  0.00000000000E+00  0.15111527665E+04  0.15111527665E+04  0.25500000000E-02 0.  1.
         -2   -1    0    0    0  501 -0.00000000000E+00 -0.00000000000E+00 -0.36437462081E+02  0.36437462170E+02  0.25500000000E-02 0. -1.
    5000001    1    1    2    0    0 -0.72999326333E+02  0.92835346710E+02  0.60903622676E+03  0.65151625364E+03  0.19900000000E+03 0.  0.
   -5000001    1    1    2    0    0  0.72999326333E+02 -0.92835346710E+02  0.86567907766E+03  0.89607397504E+03  0.19900000000E+03 0.  0.
<mgrwt>
<rscale>  0 0.46930831E+03</rscale>
<asrwt>0</asrwt>
<pdfrwt beam="1">  1        2 0.21587890E+00 0.46930831E+03</pdfrwt>
<pdfrwt beam="2">  1       -2 0.52053534E-02 0.46930831E+03</pdfrwt>
<totfact> 0.28329217E+03</totfact>
</mgrwt>
</event>
<event>
 4    1  0.1724904E-005  0.5332626E+03  0.7818608E-02  0.1005444E+00
         -2   -1    0    0    0  501 -0.00000000000E+00  0.00000000000E+00  0.26871973025E+02  0.26871973146E+02  0.25500000000E-02 0. -1.
          2   -1    0    0  501    0  0.00000000000E+00 -0.00000000000E+00 -0.26455907780E+04  0.26455907780E+04  0.25500000000E-02 0.  1.
    5000001    1    1    2    0    0 -0.36858744451E+02  0.61200243355E+02 -0.21234397450E+04  0.21339403430E+04  0.19900000000E+03 0.  0.
   -5000001    1    1    2    0    0  0.36858744451E+02 -0.61200243355E+02 -0.49527905997E+03  0.53852240815E+03  0.19900000000E+03 0.  0.
<mgrwt>
<rscale>  0 0.53326258E+03</rscale>
<asrwt>0</asrwt>
<pdfrwt beam="1">  1        2 0.37794138E+00 0.53326258E+03</pdfrwt>
<pdfrwt beam="2">  1       -2 0.38388550E-02 0.53326258E+03</pdfrwt>
<totfact> 0.12063122E+03</totfact>
</mgrwt>
</event>
<event>
 4    1  0.1724904E-005  0.4439451E+03  0.7818608E-02  0.1029543E+00
          2   -1    0    0  501    0  0.00000000000E+00  0.00000000000E+00  0.20782407754E+04  0.20782407754E+04  0.25500000000E-02 0.  1.
         -2   -1    0    0    0  501 -0.00000000000E+00 -0.00000000000E+00 -0.23708425686E+02  0.23708425823E+02  0.25500000000E-02 0. -1.
    5000001    1    1    2    0    0 -0.55685998460E+02 -0.79666584720E+02  0.10979897342E+04  0.11201027415E+04  0.19900000000E+03 0.  0.
   -5000001    1    1    2    0    0  0.55685998460E+02  0.79666584720E+02  0.95654261551E+03  0.98184645971E+03  0.19900000000E+03 0.  0.
<mgrwt>
<rscale>  0 0.44394512E+03</rscale>
<asrwt>0</asrwt>
<pdfrwt beam="1">  1        2 0.29689170E+00 0.44394512E+03</pdfrwt>
<pdfrwt beam="2">  1       -2 0.33869161E-02 0.44394512E+03</pdfrwt>
<totfact> 0.28394652E+03</totfact>
</mgrwt>
</event>
<event>
 4    1  0.1724904E-005  0.4650349E+03  0.7818608E-02  0.1023331E+00
          2   -1    0    0  501    0  0.00000000000E+00  0.00000000000E+00  0.11818961962E+04  0.11818961962E+04  0.25500000000E-02 0.  1.
         -2   -1    0    0    0  501 -0.00000000000E+00 -0.00000000000E+00 -0.45743753953E+02  0.45743754024E+02  0.25500000000E-02 0. -1.
    5000001    1    1    2    0    0 -0.93727283671E+01 -0.75813254131E+02  0.81328571320E+03  0.84075570104E+03  0.19900000000E+03 0.  0.
   -5000001    1    1    2    0    0  0.93727283671E+01  0.75813254131E+02  0.32286672903E+03  0.38688424916E+03  0.19900000000E+03 0.  0.
<mgrwt>
<rscale>  0 0.46503492E+03</rscale>
<asrwt>0</asrwt>
<pdfrwt beam="1">  1        2 0.16884230E+00 0.46503492E+03</pdfrwt>
<pdfrwt beam="2">  1       -2 0.65348226E-02 0.46503492E+03</pdfrwt>
<totfact> 0.29818360E+03</totfact>
</mgrwt>
</event>
<event>
 4    1  0.1724904E-005  0.7331731E+03  0.7818608E-02  0.9662125E-01
          2   -1    0    0  501    0  0.00000000000E+00  0.00000000000E+00  0.48058213248E+03  0.48058213249E+03  0.25500000000E-02 0.  1.
         -2   -1    0    0    0  501 -0.00000000000E+00 -0.00000000000E+00 -0.27963107748E+03  0.27963107749E+03  0.25500000000E-02 0. -1.
    5000001    1    1    2    0    0  0.20897584276E+03  0.16021316484E+03  0.26587522505E+03  0.42382755496E+03  0.19900000000E+03 0.  0.
   -5000001    1    1    2    0    0 -0.20897584276E+03 -0.16021316484E+03 -0.64924170052E+02  0.33638565502E+03  0.19900000000E+03 0.  0.
<mgrwt>
<rscale>  0 0.73317310E+03</rscale>
<asrwt>0</asrwt>
<pdfrwt beam="1">  1        2 0.68654590E-01 0.73317310E+03</pdfrwt>
<pdfrwt beam="2">  1       -2 0.39947297E-01 0.73317310E+03</pdfrwt>
<totfact> 0.41921204E+02</totfact>
</mgrwt>
</event>
<event>
 4    1  0.1724904E-005  0.6929074E+03  0.7818608E-02  0.9729439E-01
          2   -1    0    0  501    0  0.00000000000E+00  0.00000000000E+00  0.21059391854E+04  0.21059391854E+04  0.25500000000E-02 0.  1.
         -2   -1    0    0    0  501 -0.00000000000E+00 -0.00000000000E+00 -0.56996021468E+02  0.56996021525E+02  0.25500000000E-02 0. -1.
    5000001    1    1    2    0    0 -0.18745795760E+03 -0.10185927686E+03  0.16077341892E+04  0.16339908266E+04  0.19900000000E+03 0.  0.
   -5000001    1    1    2    0    0  0.18745795760E+03  0.10185927686E+03  0.44120897477E+03  0.52894438041E+03  0.19900000000E+03 0.  0.
<mgrwt>
<rscale>  0 0.69290737E+03</rscale>
<asrwt>0</asrwt>
<pdfrwt beam="1">  1        2 0.30084842E+00 0.69290737E+03</pdfrwt>
<pdfrwt beam="2">  1       -2 0.81422899E-02 0.69290737E+03</pdfrwt>
<totfact> 0.69428633E+02</totfact>
</mgrwt>
</event>
<event>
 4    1  0.1724904E-005  0.6218238E+03  0.7818608E-02  0.9861135E-01
          2   -1    0    0  501    0  0.00000000000E+00  0.00000000000E+00  0.77960487602E+02  0.77960487644E+02  0.25500000000E-02 0.  1.
         -2   -1    0    0    0  501 -0.00000000000E+00 -0.00000000000E+00 -0.12399382991E+04  0.12399382991E+04  0.25500000000E-02 0. -1.
    5000001    1    1    2    0    0  0.16815849322E+03 -0.16530568593E+03 -0.49995245990E+03  0.58750039217E+03  0.19900000000E+03 0.  0.
   -5000001    1    1    2    0    0 -0.16815849322E+03  0.16530568593E+03 -0.66202535160E+03  0.73039839458E+03  0.19900000000E+03 0.  0.
<mgrwt>
<rscale>  0 0.62182375E+03</rscale>
<asrwt>0</asrwt>
<pdfrwt beam="1">  1        2 0.11137213E-01 0.62182375E+03</pdfrwt>
<pdfrwt beam="2">  1       -2 0.17713403E+00 0.62182375E+03</pdfrwt>
<totfact> 0.11227618E+02</totfact>
</mgrwt>
</event>
<event>
 4    1  0.1724904E-005  0.5526303E+03  0.7818608E-02  0.1000887E+00
          2   -1    0    0  501    0  0.00000000000E+00  0.00000000000E+00  0.66923311523E+03  0.66923311523E+03  0.25500000000E-02 0.  1.
         -2   -1    0    0    0  501 -0.00000000000E+00 -0.00000000000E+00 -0.11408590595E+03  0.11408590598E+03  0.25500000000E-02 0. -1.
    5000001    1    1    2    0    0 -0.16662409141E+03  0.47193775875E+02  0.16104828010E+03  0.30907667146E+03  0.19900000000E+03 0.  0.
   -5000001    1    1    2    0    0  0.16662409141E+03 -0.47193775875E+02  0.39409892917E+03  0.47424234975E+03  0.19900000000E+03 0.  0.
<mgrwt>
<rscale>  0 0.55263031E+03</rscale>
<asrwt>0</asrwt>
<pdfrwt beam="1">  1        2 0.95604733E-01 0.55263031E+03</pdfrwt>
<pdfrwt beam="2">  1       -2 0.16297986E-01 0.55263031E+03</pdfrwt>
<totfact> 0.14469629E+03</totfact>
</mgrwt>
</event>
<event>
 4    1  0.1724904E-005  0.5273589E+03  0.7818608E-02  0.1006875E+00
          2   -1    0    0  501    0  0.00000000000E+00  0.00000000000E+00  0.15954984712E+03  0.15954984714E+03  0.25500000000E-02 0.  1.
         -2   -1    0    0    0  501 -0.00000000000E+00 -0.00000000000E+00 -0.43576883230E+03  0.43576883231E+03  0.25500000000E-02 0. -1.
    5000001    1    1    2    0    0  0.79561563223E+02 -0.12579852069E+03 -0.23761997869E+03  0.34383072059E+03  0.19900000000E+03 0.  0.
   -5000001    1    1    2    0    0 -0.79561563223E+02  0.12579852069E+03 -0.38599006487E+02  0.25148795886E+03  0.19900000000E+03 0.  0.
<mgrwt>
<rscale>  0 0.52735889E+03</rscale>
<asrwt>0</asrwt>
<pdfrwt beam="1">  1        2 0.22792835E-01 0.52735889E+03</pdfrwt>
<pdfrwt beam="2">  1       -2 0.62252690E-01 0.52735889E+03</pdfrwt>
<totfact> 0.58829610E+02</totfact>
</mgrwt>
</event>
<event>
 4    1  0.1724904E-005  0.4832742E+03  0.7818608E-02  0.1018239E+00
         -2   -1    0    0    0  501 -0.00000000000E+00  0.00000000000E+00  0.13963794847E+02  0.13963795080E+02  0.25500000000E-02 0. -1.
          2   -1    0    0  501    0  0.00000000000E+00 -0.00000000000E+00 -0.41814197709E+04  0.41814197709E+04  0.25500000000E-02 0.  1.
    5000001    1    1    2    0    0 -0.12538016686E+03  0.25512744233E+02 -0.16569886760E+04  0.16737931649E+04  0.19900000000E+03 0.  0.
   -5000001    1    1    2    0    0  0.12538016686E+03 -0.25512744233E+02 -0.25104673000E+04  0.25215904011E+04  0.19900000000E+03 0.  0.
<mgrwt>
<rscale>  0 0.48327420E+03</rscale>
<asrwt>0</asrwt>
<pdfrwt beam="1">  1        2 0.59734488E+00 0.48327420E+03</pdfrwt>
<pdfrwt beam="2">  1       -2 0.19948305E-02 0.48327420E+03</pdfrwt>
<totfact> 0.40556590E+02</totfact>
</mgrwt>
</event>
<event>
 4    1  0.1724904E-005  0.6668483E+03  0.7818608E-02  0.9775668E-01
         -2   -1    0    0    0  501 -0.00000000000E+00  0.00000000000E+00  0.25557430761E+02  0.25557430888E+02  0.25500000000E-02 0. -1.
          2   -1    0    0  501    0  0.00000000000E+00 -0.00000000000E+00 -0.43498761242E+04  0.43498761242E+04  0.25500000000E-02 0.  1.
    5000001    1    1    2    0    0 -0.13830302779E+03  0.20317849999E+03 -0.14689667231E+04  0.15026221960E+04  0.19900000000E+03 0.  0.
   -5000001    1    1    2    0    0  0.13830302779E+03 -0.20317849999E+03 -0.28553519704E+04  0.28728113591E+04  0.19900000000E+03 0.  0.
<mgrwt>
<rscale>  0 0.66684828E+03</rscale>
<asrwt>0</asrwt>
<pdfrwt beam="1">  1        2 0.62141040E+00 0.66684828E+03</pdfrwt>
<pdfrwt beam="2">  1       -2 0.36510643E-02 0.66684828E+03</pdfrwt>
<totfact> 0.11934576E+02</totfact>
</mgrwt>
</event>
<event>
 4    1  0.1724904E-005  0.4860596E+03  0.7818608E-02  0.1017483E+00
          2   -1    0    0  501    0  0.00000000000E+00  0.00000000000E+00  0.50289403094E+03  0.50289403094E+03  0.25500000000E-02 0.  1.
         -2   -1    0    0    0  501 -0.00000000000E+00 -0.00000000000E+00 -0.11744718536E+03  0.11744718539E+03  0.25500000000E-02 0. -1.
    5000001    1    1    2    0    0  0.11639316070E+03 -0.74796593574E+02  0.16987184336E+03  0.29597185920E+03  0.19900000000E+03 0.  0.
   -5000001    1    1    2    0    0 -0.11639316070E+03  0.74796593574E+02  0.21557500221E+03  0.32436935714E+03  0.19900000000E+03 0.  0.
<mgrwt>
<rscale>  0 0.48605962E+03</rscale>
<asrwt>0</asrwt>
<pdfrwt beam="1">  1        2 0.71842005E-01 0.48605962E+03</pdfrwt>
<pdfrwt beam="2">  1       -2 0.16778169E-01 0.48605962E+03</pdfrwt>
<totfact> 0.19208655E+03</totfact>
</mgrwt>
</event>
<event>
 4    1  0.1724904E-005  0.1127428E+04  0.7818608E-02  0.9178863E-01
          2   -1    0    0  501    0  0.00000000000E+00  0.00000000000E+00  0.53104946943E+03  0.53104946944E+03  0.25500000000E-02 0.  1.
         -2   -1    0    0    0  501 -0.00000000000E+00 -0.00000000000E+00 -0.59838771504E+03  0.59838771505E+03  0.25500000000E-02 0. -1.
    5000001    1    1    2    0    0  0.50066111923E+03  0.89574922947E+02 -0.17351465675E+03  0.57305633164E+03  0.19900000000E+03 0.  0.
   -5000001    1    1    2    0    0 -0.50066111923E+03 -0.89574922947E+02  0.10617641114E+03  0.55638085284E+03  0.19900000000E+03 0.  0.
<mgrwt>
<rscale>  0 0.11274280E+04</rscale>
<asrwt>0</asrwt>
<pdfrwt beam="1">  1        2 0.75864210E-01 0.11274280E+04</pdfrwt>
<pdfrwt beam="2">  1       -2 0.85483959E-01 0.11274280E+04</pdfrwt>
<totfact> 0.73927878E+01</totfact>
</mgrwt>
</event>
<event>
 4    1  0.1724904E-005  0.5285728E+03  0.7818608E-02  0.1006579E+00
         -2   -1    0    0    0  501 -0.00000000000E+00  0.00000000000E+00  0.48089253178E+02  0.48089253245E+02  0.25500000000E-02 0. -1.
          2   -1    0    0  501    0  0.00000000000E+00 -0.00000000000E+00 -0.14524515577E+04  0.14524515577E+04  0.25500000000E-02 0.  1.
    5000001    1    1    2    0    0  0.31567734817E+02  0.13640612330E+03 -0.99505340905E+03  0.10243707528E+04  0.19900000000E+03 0.  0.
   -5000001    1    1    2    0    0 -0.31567734817E+02 -0.13640612330E+03 -0.40930889548E+03  0.47617005815E+03  0.19900000000E+03 0.  0.
<mgrwt>
<rscale>  0 0.52857284E+03</rscale>
<asrwt>0</asrwt>
<pdfrwt beam="1">  1        2 0.20749305E+00 0.52857284E+03</pdfrwt>
<pdfrwt beam="2">  1       -2 0.68698942E-02 0.52857284E+03</pdfrwt>
<totfact> 0.19694508E+03</totfact>
</mgrwt>
</event>
<event>
 4    1  0.1724904E-005  0.5096680E+03  0.7818608E-02  0.1011286E+00
          2   -1    0    0  501    0  0.00000000000E+00  0.00000000000E+00  0.15882989836E+04  0.15882989836E+04  0.25500000000E-02 0.  1.
         -2   -1    0    0    0  501 -0.00000000000E+00 -0.00000000000E+00 -0.40886737595E+02  0.40886737675E+02  0.25500000000E-02 0. -1.
    5000001    1    1    2    0    0  0.15049014007E+03 -0.50524202387E+02  0.73596683806E+03  0.77874781798E+03  0.19900000000E+03 0.  0.
   -5000001    1    1    2    0    0 -0.15049014007E+03  0.50524202387E+02  0.81144540793E+03  0.85043790328E+03  0.19900000000E+03 0.  0.
<mgrwt>
<rscale>  0 0.50966799E+03</rscale>
<asrwt>0</asrwt>
<pdfrwt beam="1">  1        2 0.22689984E+00 0.50966799E+03</pdfrwt>
<pdfrwt beam="2">  1       -2 0.58409628E-02 0.50966799E+03</pdfrwt>
<totfact> 0.21609804E+03</totfact>
</mgrwt>
</event>
<event>
 4    1  0.1724904E-005  0.7842200E+03  0.7818608E-02  0.9583143E-01
         -2   -1    0    0    0  501 -0.00000000000E+00  0.00000000000E+00  0.15859553034E+04  0.15859553034E+04  0.25500000000E-02 0. -1.
          2   -1    0    0  501    0  0.00000000000E+00 -0.00000000000E+00 -0.96944885722E+02  0.96944885755E+02  0.25500000000E-02 0.  1.
    5000001    1    1    2    0    0  0.30727707572E+03  0.11742720595E+03  0.57910091856E+03  0.69510231178E+03  0.19900000000E+03 0.  0.
   -5000001    1    1    2    0    0 -0.30727707572E+03 -0.11742720595E+03  0.90990949908E+03  0.98779787734E+03  0.19900000000E+03 0.  0.
<mgrwt>
<rscale>  0 0.78422001E+03</rscale>
<asrwt>0</asrwt>
<pdfrwt beam="1">  1        2 0.13849270E-01 0.78422001E+03</pdfrwt>
<pdfrwt beam="2">  1       -2 0.22656503E+00 0.78422001E+03</pdfrwt>
<totfact> 0.40534659E+01</totfact>
</mgrwt>
</event>
<event>
 4    1  0.1724904E-005  0.9050579E+03  0.7818608E-02  0.9419281E-01
          2   -1    0    0  501    0  0.00000000000E+00  0.00000000000E+00  0.15302148172E+04  0.15302148172E+04  0.25500000000E-02 0.  1.
         -2   -1    0    0    0  501 -0.00000000000E+00 -0.00000000000E+00 -0.13382593630E+03  0.13382593633E+03  0.25500000000E-02 0. -1.
    5000001    1    1    2    0    0  0.37304539090E+03 -0.14663272696E+03  0.57461893676E+03  0.72832131836E+03  0.19900000000E+03 0.  0.
   -5000001    1    1    2    0    0 -0.37304539090E+03  0.14663272696E+03  0.82176994414E+03  0.93571943519E+03  0.19900000000E+03 0.  0.
<mgrwt>
<rscale>  0 0.90505786E+03</rscale>
<asrwt>0</asrwt>
<pdfrwt beam="1">  1        2 0.21860209E+00 0.90505786E+03</pdfrwt>
<pdfrwt beam="2">  1       -2 0.19117993E-01 0.90505786E+03</pdfrwt>
<totfact> 0.32607349E+02</totfact>
</mgrwt>
</event>
<event>
 4    1  0.1724904E-005  0.4964868E+03  0.7818608E-02  0.1014700E+00
          2   -1    0    0  501    0  0.00000000000E+00  0.00000000000E+00  0.37483114773E+04  0.37483114773E+04  0.25500000000E-02 0.  1.
         -2   -1    0    0    0  501 -0.00000000000E+00 -0.00000000000E+00 -0.16440677986E+02  0.16440678184E+02  0.25500000000E-02 0. -1.
    5000001    1    1    2    0    0  0.78623517761E+02 -0.11589946877E+03  0.22381441419E+04  0.22513339478E+04  0.19900000000E+03 0.  0.
   -5000001    1    1    2    0    0 -0.78623517761E+02  0.11589946877E+03  0.14937266574E+04  0.15134182077E+04  0.19900000000E+03 0.  0.
<mgrwt>
<rscale>  0 0.49648679E+03</rscale>
<asrwt>0</asrwt>
<pdfrwt beam="1">  1        2 0.53547393E+00 0.49648679E+03</pdfrwt>
<pdfrwt beam="2">  1       -2 0.23486645E-02 0.49648679E+03</pdfrwt>
<totfact> 0.61086285E+02</totfact>
</mgrwt>
</event>
<event>
 4    1  0.1724904E-005  0.9090680E+03  0.7818608E-02  0.9414316E-01
          2   -1    0    0  501    0  0.00000000000E+00  0.00000000000E+00  0.28902354287E+04  0.28902354287E+04  0.25500000000E-02 0.  1.
         -2   -1    0    0    0  501 -0.00000000000E+00 -0.00000000000E+00 -0.71482466826E+02  0.71482466871E+02  0.25500000000E-02 0. -1.
    5000001    1    1    2    0    0  0.36173335736E+03 -0.13314090639E+03  0.18515810208E+04  0.19017178548E+04  0.19900000000E+03 0.  0.
   -5000001    1    1    2    0    0 -0.36173335736E+03  0.13314090639E+03  0.96717194105E+03  0.10600000407E+04  0.19900000000E+03 0.  0.
<mgrwt>
<rscale>  0 0.90906800E+03</rscale>
<asrwt>0</asrwt>
<pdfrwt beam="1">  1        2 0.41289064E+00 0.90906800E+03</pdfrwt>
<pdfrwt beam="2">  1       -2 0.10211784E-01 0.90906800E+03</pdfrwt>
<totfact> 0.18513543E+02</totfact>
</mgrwt>
</event>
<event>
 4    1  0.1724904E-005  0.4387725E+03  0.7818608E-02  0.1031124E+00
         -2   -1    0    0    0  501 -0.00000000000E+00  0.00000000000E+00  0.51464755768E+02  0.51464755832E+02  0.25500000000E-02 0. -1.
          2   -1    0    0  501    0  0.00000000000E+00 -0.00000000000E+00 -0.93520951422E+03  0.93520951422E+03  0.25500000000E-02 0.  1.
    5000001    1    1    2    0    0 -0.65416158126E+02 -0.95108366463E+01 -0.29684160997E+03  0.36343592443E+03  0.19900000000E+03 0.  0.
   -5000001    1    1    2    0    0  0.65416158126E+02  0.95108366463E+01 -0.58690314848E+03  0.62323834562E+03  0.19900000000E+03 0.  0.
<mgrwt>
<rscale>  0 0.43877251E+03</rscale>
<asrwt>0</asrwt>
<pdfrwt beam="1">  1        2 0.13360135E+00 0.43877251E+03</pdfrwt>
<pdfrwt beam="2">  1       -2 0.73521085E-02 0.43877251E+03</pdfrwt>
<totfact> 0.34599676E+03</totfact>
</mgrwt>
</event>
<event>
 4    1  0.1724904E-005  0.7870167E+03  0.7818608E-02  0.9579002E-01
          2   -1    0    0  501    0  0.00000000000E+00  0.00000000000E+00  0.41661453191E+03  0.41661453191E+03  0.25500000000E-02 0.  1.
         -2   -1    0    0    0  501 -0.00000000000E+00 -0.00000000000E+00 -0.37168371895E+03  0.37168371896E+03  0.25500000000E-02 0. -1.
    5000001    1    1    2    0    0 -0.97941348396E+02 -0.25507646992E+03 -0.17933554379E+03  0.38264703122E+03  0.19900000000E+03 0.  0.
   -5000001    1    1    2    0    0  0.97941348396E+02  0.25507646992E+03  0.22426635675E+03  0.40565121965E+03  0.19900000000E+03 0.  0.
<mgrwt>
<rscale>  0 0.78701674E+03</rscale>
<asrwt>0</asrwt>
<pdfrwt beam="1">  1        2 0.59516362E-01 0.78701674E+03</pdfrwt>
<pdfrwt beam="2">  1       -2 0.53097674E-01 0.78701674E+03</pdfrwt>
<totfact> 0.27820814E+02</totfact>
</mgrwt>
</event>
<event>
 4    1  0.1724904E-005  0.5260817E+03  0.7818608E-02  0.1007187E+00
         -2   -1    0    0    0  501 -0.00000000000E+00  0.00000000000E+00  0.13837490679E+03  0.13837490682E+03  0.25500000000E-02 0. -1.
          2   -1    0    0  501    0  0.00000000000E+00 -0.00000000000E+00 -0.50002191385E+03  0.50002191386E+03  0.25500000000E-02 0.  1.
    5000001    1    1    2    0    0  0.10464099188E+03  0.10982957334E+03 -0.27923786876E+03  0.37494940954E+03  0.19900000000E+03 0.  0.
   -5000001    1    1    2    0    0 -0.10464099188E+03 -0.10982957334E+03 -0.82409138302E+02  0.26344741114E+03  0.19900000000E+03 0.  0.
<mgrwt>
<rscale>  0 0.52608169E+03</rscale>
<asrwt>0</asrwt>
<pdfrwt beam="1">  1        2 0.71431701E-01 0.52608169E+03</pdfrwt>
<pdfrwt beam="2">  1       -2 0.19767844E-01 0.52608169E+03</pdfrwt>
<totfact> 0.14598123E+03</totfact>
</mgrwt>
</event>
<event>
 4    1  0.1724904E-005  0.6106163E+03  0.7818608E-02  0.9883622E-01
         -2   -1    0    0    0  501 -0.00000000000E+00  0.00000000000E+00  0.12026203793E+03  0.12026203795E+03  0.25500000000E-02 0. -1.
          2   -1    0    0  501    0  0.00000000000E+00 -0.00000000000E+00 -0.77508292629E+03  0.77508292629E+03  0.25500000000E-02 0.  1.
    5000001    1    1    2    0    0 -0.86971965366E+02  0.21432378180E+03 -0.31180652712E+03  0.43626037702E+03  0.19900000000E+03 0.  0.
   -5000001    1    1    2    0    0  0.86971965366E+02 -0.21432378180E+03 -0.34301436124E+03  0.45908458722E+03  0.19900000000E+03 0.  0.
<mgrwt>
<rscale>  0 0.61061625E+03</rscale>
<asrwt>0</asrwt>
<pdfrwt beam="1">  1        2 0.11072613E+00 0.61061625E+03</pdfrwt>
<pdfrwt beam="2">  1       -2 0.17180291E-01 0.61061625E+03</pdfrwt>
<totfact> 0.11028834E+03</totfact>
</mgrwt>
</event>
<event>
 4    1  0.1724904E-005  0.6766557E+03  0.7818608E-02  0.9758008E-01
          2   -1    0    0  501    0  0.00000000000E+00  0.00000000000E+00  0.29659681185E+04  0.29659681185E+04  0.25500000000E-02 0.  1.
         -2   -1    0    0    0  501 -0.00000000000E+00 -0.00000000000E+00 -0.38593043469E+02  0.38593043553E+02  0.25500000000E-02 0. -1.
    5000001    1    1    2    0    0 -0.12859735490E+03 -0.22201287406E+03  0.18858146417E+04  0.19135633930E+04  0.19900000000E+03 0.  0.
   -5000001    1    1    2    0    0  0.12859735490E+03  0.22201287406E+03  0.10415604333E+04  0.10909977691E+04  0.19900000000E+03 0.  0.
<mgrwt>
<rscale>  0 0.67665571E+03</rscale>
<asrwt>0</asrwt>
<pdfrwt beam="1">  1        2 0.42370958E+00 0.67665571E+03</pdfrwt>
<pdfrwt beam="2">  1       -2 0.55132939E-02 0.67665571E+03</pdfrwt>
<totfact> 0.46045533E+02</totfact>
</mgrwt>
</event>
<event>
 4    1  0.1724904E-005  0.8859150E+03  0.7818608E-02  0.9443362E-01
          2   -1    0    0  501    0  0.00000000000E+00  0.00000000000E+00  0.92194521072E+03  0.92194521072E+03  0.25500000000E-02 0.  1.
         -2   -1    0    0    0  501 -0.00000000000E+00 -0.00000000000E+00 -0.21282323015E+03  0.21282323016E+03  0.25500000000E-02 0. -1.
    5000001    1    1    2    0    0 -0.16943801710E+03 -0.33522258719E+03  0.51417022815E+03  0.66712476203E+03  0.19900000000E+03 0.  0.
   -5000001    1    1    2    0    0  0.16943801710E+03  0.33522258719E+03  0.19495175242E+03  0.46764367885E+03  0.19900000000E+03 0.  0.
<mgrwt>
<rscale>  0 0.88591502E+03</rscale>
<asrwt>0</asrwt>
<pdfrwt beam="1">  1        2 0.13170646E+00 0.88591502E+03</pdfrwt>
<pdfrwt beam="2">  1       -2 0.30403319E-01 0.88591502E+03</pdfrwt>
<totfact> 0.31473439E+02</totfact>
</mgrwt>
</event>
<event>
 4    1  0.1724904E-005  0.7120212E+03  0.7818608E-02  0.9696892E-01
          2   -1    0    0  501    0  0.00000000000E+00  0.00000000000E+00  0.36507091981E+04  0.36507091981E+04  0.25500000000E-02 0.  1.
         -2   -1    0    0    0  501 -0.00000000000E+00 -0.00000000000E+00 -0.34717513186E+02  0.34717513279E+02  0.25500000000E-02 0. -1.
    5000001    1    1    2    0    0 -0.15527547797E+03  0.15677702771E+03  0.79300957351E+03  0.84684986518E+03  0.19900000000E+03 0.  0.
   -5000001    1    1    2    0    0  0.15527547797E+03 -0.15677702771E+03  0.28229821114E+04  0.28385768462E+04  0.19900000000E+03 0.  0.
<mgrwt>
<rscale>  0 0.71202119E+03</rscale>
<asrwt>0</asrwt>
<pdfrwt beam="1">  1        2 0.52152965E+00 0.71202119E+03</pdfrwt>
<pdfrwt beam="2">  1       -2 0.49596470E-02 0.71202119E+03</pdfrwt>
<totfact> 0.21803347E+02</totfact>
</mgrwt>
</event>
<event>
 4    1  0.1724904E-005  0.6027637E+03  0.7818608E-02  0.9899689E-01
          2   -1    0    0  501    0  0.00000000000E+00  0.00000000000E+00  0.44233796430E+03  0.44233796431E+03  0.25500000000E-02 0.  1.
         -2   -1    0    0    0  501 -0.00000000000E+00 -0.00000000000E+00 -0.20534304961E+03  0.20534304963E+03  0.25500000000E-02 0. -1.
    5000001    1    1    2    0    0  0.32301216369E+02  0.19623039600E+03  0.23684092959E+01  0.28134737649E+03  0.19900000000E+03 0.  0.
   -5000001    1    1    2    0    0 -0.32301216369E+02 -0.19623039600E+03  0.23462650539E+03  0.36633363745E+03  0.19900000000E+03 0.  0.
<mgrwt>
<rscale>  0 0.60276372E+03</rscale>
<asrwt>0</asrwt>
<pdfrwt beam="1">  1        2 0.63191137E-01 0.60276372E+03</pdfrwt>
<pdfrwt beam="2">  1       -2 0.29334722E-01 0.60276372E+03</pdfrwt>
<totfact> 0.82812917E+02</totfact>
</mgrwt>
</event>
<event>
 4    1  0.1724904E-005  0.5022572E+03  0.7818608E-02  0.1013191E+00
         -2   -1    0    0    0  501 -0.00000000000E+00  0.00000000000E+00  0.98236177234E+03  0.98236177235E+03  0.25500000000E-02 0. -1.
          2   -1    0    0  501    0  0.00000000000E+00 -0.00000000000E+00 -0.64197923743E+02  0.64197923794E+02  0.25500000000E-02 0.  1.
    5000001    1    1    2    0    0 -0.38873322778E+02 -0.14274996604E+03  0.37636357399E+03  0.45070969354E+03  0.19900000000E+03 0.  0.
   -5000001    1    1    2    0    0  0.38873322778E+02  0.14274996604E+03  0.54180027461E+03  0.59585000260E+03  0.19900000000E+03 0.  0.
<mgrwt>
<rscale>  0 0.50225725E+03</rscale>
<asrwt>0</asrwt>
<pdfrwt beam="1">  1        2 0.91711320E-02 0.50225725E+03</pdfrwt>
<pdfrwt beam="2">  1       -2 0.14033740E+00 0.50225725E+03</pdfrwt>
<totfact> 0.26905901E+02</totfact>
</mgrwt>
</event>
<event>
 4    1  0.1724904E-005  0.1104424E+04  0.7818608E-02  0.9200891E-01
         -2   -1    0    0    0  501 -0.00000000000E+00  0.00000000000E+00  0.19695753800E+03  0.19695753802E+03  0.25500000000E-02 0. -1.
          2   -1    0    0  501    0  0.00000000000E+00 -0.00000000000E+00 -0.15482423737E+04  0.15482423738E+04  0.25500000000E-02 0.  1.
    5000001    1    1    2    0    0 -0.49465329942E+03 -0.13222566652E+03 -0.58665240607E+03  0.80369618579E+03  0.19900000000E+03 0.  0.
   -5000001    1    1    2    0    0  0.49465329942E+03  0.13222566652E+03 -0.76463242968E+03  0.94150372598E+03  0.19900000000E+03 0.  0.
<mgrwt>
<rscale>  0 0.11044238E+04</rscale>
<asrwt>0</asrwt>
<pdfrwt beam="1">  1        2 0.22117747E+00 0.11044238E+04</pdfrwt>
<pdfrwt beam="2">  1       -2 0.28136792E-01 0.11044238E+04</pdfrwt>
<totfact> 0.15776479E+02</totfact>
</mgrwt>
</event>
<event>
 4    1  0.1724904E-005  0.5227325E+03  0.7818608E-02  0.1008010E+00
          2   -1    0    0  501    0  0.00000000000E+00  0.00000000000E+00  0.16014374425E+03  0.16014374428E+03  0.25500000000E-02 0.  1.
         -2   -1    0    0    0  501 -0.00000000000E+00 -0.00000000000E+00 -0.42656873473E+03  0.42656873474E+03  0.25500000000E-02 0. -1.
    5000001    1    1    2    0    0  0.15158833817E+03 -0.15672285079E+02 -0.50074368708E+02  0.25560337867E+03  0.19900000000E+03 0.  0.
   -5000001    1    1    2    0    0 -0.15158833817E+03  0.15672285079E+02 -0.21635062177E+03  0.33110910034E+03  0.19900000000E+03 0.  0.
<mgrwt>
<rscale>  0 0.52273249E+03</rscale>
<asrwt>0</asrwt>
<pdfrwt beam="1">  1        2 0.22877678E-01 0.52273249E+03</pdfrwt>
<pdfrwt beam="2">  1       -2 0.60938390E-01 0.52273249E+03</pdfrwt>
<totfact> 0.61277648E+02</totfact>
</mgrwt>
</event>
<event>
 4    1  0.1724904E-005  0.5223392E+03  0.7818608E-02  0.1008107E+00
         -2   -1    0    0    0  501 -0.00000000000E+00  0.00000000000E+00  0.97812152095E+02  0.97812152128E+02  0.25500000000E-02 0. -1.
          2   -1    0    0  501    0  0.00000000000E+00 -0.00000000000E+00 -0.69735271765E+03  0.69735271766E+03  0.25500000000E-02 0.  1.
    5000001    1    1    2    0    0  0.11861934895E+03  0.36616204881E+02 -0.47465290022E+03  0.52944090519E+03  0.19900000000E+03 0.  0.
   -5000001    1    1    2    0    0 -0.11861934895E+03 -0.36616204881E+02 -0.12488766534E+03  0.26572396459E+03  0.19900000000E+03 0.  0.
<mgrwt>
<rscale>  0 0.52233924E+03</rscale>
<asrwt>0</asrwt>
<pdfrwt beam="1">  1        2 0.99621814E-01 0.52233924E+03</pdfrwt>
<pdfrwt beam="2">  1       -2 0.13973165E-01 0.52233924E+03</pdfrwt>
<totfact> 0.17831400E+03</totfact>
</mgrwt>
</event>
<event>
 4    1  0.1724904E-005  0.5394988E+03  0.7818608E-02  0.1003954E+00
          2   -1    0    0  501    0  0.00000000000E+00  0.00000000000E+00  0.64699922197E+03  0.64699922197E+03  0.25500000000E-02 0.  1.
         -2   -1    0    0    0  501 -0.00000000000E+00 -0.00000000000E+00 -0.11246495901E+03  0.11246495904E+03  0.25500000000E-02 0. -1.
    5000001    1    1    2    0    0  0.10450952458E+03 -0.10079807812E+03  0.11253778160E+03  0.27082881229E+03  0.19900000000E+03 0.  0.
   -5000001    1    1    2    0    0 -0.10450952458E+03  0.10079807812E+03  0.42199648136E+03  0.48863536872E+03  0.19900000000E+03 0.  0.
<mgrwt>
<rscale>  0 0.53949881E+03</rscale>
<asrwt>0</asrwt>
<pdfrwt beam="1">  1        2 0.92428466E-01 0.53949881E+03</pdfrwt>
<pdfrwt beam="2">  1       -2 0.16066422E-01 0.53949881E+03</pdfrwt>
<totfact> 0.15438473E+03</totfact>
</mgrwt>
</event>
<event>
 4    1  0.1724904E-005  0.8018728E+03  0.7818608E-02  0.9557310E-01
          2   -1    0    0  501    0  0.00000000000E+00  0.00000000000E+00  0.74009748781E+03  0.74009748782E+03  0.25500000000E-02 0.  1.
         -2   -1    0    0    0  501 -0.00000000000E+00 -0.00000000000E+00 -0.21720111106E+03  0.21720111107E+03  0.25500000000E-02 0. -1.
    5000001    1    1    2    0    0  0.33030906618E+03  0.90168912354E+02  0.33614107457E+03  0.51944810517E+03  0.19900000000E+03 0.  0.
   -5000001    1    1    2    0    0 -0.33030906618E+03 -0.90168912354E+02  0.18675530218E+03  0.43785049372E+03  0.19900000000E+03 0.  0.
<mgrwt>
<rscale>  0 0.80187280E+03</rscale>
<asrwt>0</asrwt>
<pdfrwt beam="1">  1        2 0.10572821E+00 0.80187280E+03</pdfrwt>
<pdfrwt beam="2">  1       -2 0.31028730E-01 0.80187280E+03</pdfrwt>
<totfact> 0.40527263E+02</totfact>
</mgrwt>
</event>
<event>
 4    1  0.1724904E-005  0.4833776E+03  0.7818608E-02  0.1018211E+00
          2   -1    0    0  501    0  0.00000000000E+00  0.00000000000E+00  0.11774363469E+04  0.11774363469E+04  0.25500000000E-02 0. -1.
         -2   -1    0    0    0  501 -0.00000000000E+00 -0.00000000000E+00 -0.49610723447E+02  0.49610723513E+02  0.25500000000E-02 0.  1.
    5000001    1    1    2    0    0 -0.12577736123E+03 -0.24638360568E+02  0.43992978944E+03  0.49956602471E+03  0.19900000000E+03 0.  0.
   -5000001    1    1    2    0    0  0.12577736123E+03  0.24638360568E+02  0.68789583402E+03  0.72748104571E+03  0.19900000000E+03 0.  0.
<mgrwt>
<rscale>  0 0.48337757E+03</rscale>
<asrwt>0</asrwt>
<pdfrwt beam="1">  1        2 0.16820519E+00 0.48337757E+03</pdfrwt>
<pdfrwt beam="2">  1       -2 0.70872462E-02 0.48337757E+03</pdfrwt>
<totfact> 0.26404499E+03</totfact>
</mgrwt>
</event>
<event>
 4    1  0.1724904E-005  0.5521491E+03  0.7818608E-02  0.1000998E+00
         -2   -1    0    0    0  501 -0.00000000000E+00  0.00000000000E+00  0.42058736010E+02  0.42058736087E+02  0.25500000000E-02 0.  1.
          2   -1    0    0  501    0  0.00000000000E+00 -0.00000000000E+00 -0.18121601991E+04  0.18121601991E+04  0.25500000000E-02 0. -1.
    5000001    1    1    2    0    0 -0.86360550211E+02 -0.12017080558E+03 -0.12924443893E+04  0.13160215297E+04  0.19900000000E+03 0.  0.
   -5000001    1    1    2    0    0  0.86360550211E+02  0.12017080558E+03 -0.47765707371E+03  0.53819740543E+03  0.19900000000E+03 0.  0.
<mgrwt>
<rscale>  0 0.55214914E+03</rscale>
<asrwt>0</asrwt>
<pdfrwt beam="1">  1        2 0.25887998E+00 0.55214914E+03</pdfrwt>
<pdfrwt beam="2">  1       -2 0.60083920E-02 0.55214914E+03</pdfrwt>
<totfact> 0.15901692E+03</totfact>
</mgrwt>
</event>
<event>
 4    1  0.1724904E-005  0.8024846E+03  0.7818608E-02  0.9556428E-01
         -2   -1    0    0    0  501 -0.00000000000E+00  0.00000000000E+00  0.53235005794E+02  0.53235005855E+02  0.25500000000E-02 0. -1.
          2   -1    0    0  501    0  0.00000000000E+00 -0.00000000000E+00 -0.30242389210E+04  0.30242389210E+04  0.25500000000E-02 0.  1.
    5000001    1    1    2    0    0 -0.45901325923E+02  0.21135367073E+03 -0.43794708265E+03  0.52742388366E+03  0.19900000000E+03 0.  0.
   -5000001    1    1    2    0    0  0.45901325923E+02 -0.21135367073E+03 -0.25330568325E+04  0.25500500432E+04  0.19900000000E+03 0.  0.
<mgrwt>
<rscale>  0 0.80248458E+03</rscale>
<asrwt>0</asrwt>
<pdfrwt beam="1">  1        2 0.43203402E+00 0.80248458E+03</pdfrwt>
<pdfrwt beam="2">  1       -2 0.76050028E-02 0.80248458E+03</pdfrwt>
<totfact> 0.25435580E+02</totfact>
</mgrwt>
</event>
<event>
 4    1  0.1724904E-005  0.4538473E+03  0.7818608E-02  0.1026581E+00
          2   -1    0    0  501    0  0.00000000000E+00  0.00000000000E+00  0.15250865351E+04  0.15250865351E+04  0.25500000000E-02 0.  1.
         -2   -1    0    0    0  501 -0.00000000000E+00 -0.00000000000E+00 -0.33764863175E+02  0.33764863272E+02  0.25500000000E-02 0. -1.
    5000001    1    1    2    0    0 -0.65985841223E+02  0.85336531054E+02  0.69061010670E+03  0.72675977754E+03  0.19900000000E+03 0.  0.
   -5000001    1    1    2    0    0  0.65985841223E+02 -0.85336531054E+02  0.80071156517E+03  0.83209162078E+03  0.19900000000E+03 0.  0.
<mgrwt>
<rscale>  0 0.45384728E+03</rscale>
<asrwt>0</asrwt>
<pdfrwt beam="1">  1        2 0.21786951E+00 0.45384728E+03</pdfrwt>
<pdfrwt beam="2">  1       -2 0.48235517E-02 0.45384728E+03</pdfrwt>
<totfact> 0.31343847E+03</totfact>
</mgrwt>
</event>
<event>
 4    1  0.1724904E-005  0.6040028E+03  0.7818608E-02  0.9897136E-01
         -2   -1    0    0    0  501 -0.00000000000E+00  0.00000000000E+00  0.12201892344E+03  0.12201892347E+03  0.25500000000E-02 0. -1.
          2   -1    0    0  501    0  0.00000000000E+00 -0.00000000000E+00 -0.74746463931E+03  0.74746463932E+03  0.25500000000E-02 0.  1.
    5000001    1    1    2    0    0 -0.21215515213E+03  0.23479492274E+02 -0.20082049639E+03  0.35424704220E+03  0.19900000000E+03 0.  0.
   -5000001    1    1    2    0    0  0.21215515213E+03 -0.23479492274E+02 -0.42462521948E+03  0.51523652059E+03  0.19900000000E+03 0.  0.
<mgrwt>
<rscale>  0 0.60400275E+03</rscale>
<asrwt>0</asrwt>
<pdfrwt beam="1">  1        2 0.10678066E+00 0.60400275E+03</pdfrwt>
<pdfrwt beam="2">  1       -2 0.17431275E-01 0.60400275E+03</pdfrwt>
<totfact> 0.11261699E+03</totfact>
</mgrwt>
</event>
<event>
 4    1  0.1724904E-005  0.4887542E+03  0.7818608E-02  0.1016757E+00
          2   -1    0    0  501    0  0.00000000000E+00  0.00000000000E+00  0.40217104726E+03  0.40217104727E+03  0.25500000000E-02 0.  1.
         -2   -1    0    0    0  501 -0.00000000000E+00 -0.00000000000E+00 -0.14849445891E+03  0.14849445893E+03  0.25500000000E-02 0. -1.
    5000001    1    1    2    0    0 -0.41549745300E+02 -0.97487595632E+02  0.20614254350E+02  0.22639823347E+03  0.19900000000E+03 0.  0.
   -5000001    1    1    2    0    0  0.41549745300E+02  0.97487595632E+02  0.23306233400E+03  0.32426727274E+03  0.19900000000E+03 0.  0.
<mgrwt>
<rscale>  0 0.48875422E+03</rscale>
<asrwt>0</asrwt>
<pdfrwt beam="1">  1        2 0.57453006E-01 0.48875422E+03</pdfrwt>
<pdfrwt beam="2">  1       -2 0.21213494E-01 0.48875422E+03</pdfrwt>
<totfact> 0.16462667E+03</totfact>
</mgrwt>
</event>
<event>
 4    1  0.1724904E-005  0.4435366E+03  0.7818608E-02  0.1029667E+00
         -2   -1    0    0    0  501 -0.00000000000E+00  0.00000000000E+00  0.22358115091E+02  0.22358115237E+02  0.25500000000E-02 0. -1.
          2   -1    0    0  501    0  0.00000000000E+00 -0.00000000000E+00 -0.21997010399E+04  0.21997010399E+04  0.25500000000E-02 0.  1.
    5000001    1    1    2    0    0 -0.18314576824E+02  0.95209596620E+02 -0.11558631307E+04  0.11768690955E+04  0.19900000000E+03 0.  0.
   -5000001    1    1    2    0    0  0.18314576824E+02 -0.95209596620E+02 -0.10214797941E+04  0.10451900597E+04  0.19900000000E+03 0.  0.
<mgrwt>
<rscale>  0 0.44353656E+03</rscale>
<asrwt>0</asrwt>
<pdfrwt beam="1">  1        2 0.31424287E+00 0.44353656E+03</pdfrwt>
<pdfrwt beam="2">  1       -2 0.31940179E-02 0.44353656E+03</pdfrwt>
<totfact> 0.27000110E+03</totfact>
</mgrwt>
</event>
<event>
 4    1  0.1724904E-005  0.7106039E+03  0.7818608E-02  0.9699268E-01
          2   -1    0    0  501    0  0.00000000000E+00  0.00000000000E+00  0.74738161600E+03  0.74738161601E+03  0.25500000000E-02 0.  1.
         -2   -1    0    0    0  501 -0.00000000000E+00 -0.00000000000E+00 -0.16890897757E+03  0.16890897759E+03  0.25500000000E-02 0. -1.
    5000001    1    1    2    0    0 -0.28669039166E+03 -0.63420760764E+02  0.26265696314E+03  0.44136521595E+03  0.19900000000E+03 0.  0.
   -5000001    1    1    2    0    0  0.28669039166E+03  0.63420760764E+02  0.31581567530E+03  0.47492537765E+03  0.19900000000E+03 0.  0.
<mgrwt>
<rscale>  0 0.71060387E+03</rscale>
<asrwt>0</asrwt>
<pdfrwt beam="1">  1        2 0.10676880E+00 0.71060387E+03</pdfrwt>
<pdfrwt beam="2">  1       -2 0.24129854E-01 0.71060387E+03</pdfrwt>
<totfact> 0.63584948E+02</totfact>
</mgrwt>
</event>
<event>
 4    1  0.1724904E-005  0.1168019E+04  0.7818608E-02  0.9141320E-01
         -2   -1    0    0    0  501 -0.00000000000E+00  0.00000000000E+00  0.96059290197E+02  0.96059290231E+02  0.25500000000E-02 0. -1.
          2   -1    0    0  501    0  0.00000000000E+00 -0.00000000000E+00 -0.35505869654E+04  0.35505869654E+04  0.25500000000E-02 0.  1.
    5000001    1    1    2    0    0  0.35114327835E+03  0.12344548796E+03 -0.29874606380E+04  0.30171281799E+04  0.19900000000E+03 0.  0.
   -5000001    1    1    2    0    0 -0.35114327835E+03 -0.12344548796E+03 -0.46706703723E+03  0.62951807575E+03  0.19900000000E+03 0.  0.
<mgrwt>
<rscale>  0 0.11680186E+04</rscale>
<asrwt>0</asrwt>
<pdfrwt beam="1">  1        2 0.50722663E+00 0.11680186E+04</pdfrwt>
<pdfrwt beam="2">  1       -2 0.13722758E-01 0.11680186E+04</pdfrwt>
<totfact> 0.46235530E+01</totfact>
</mgrwt>
</event>
<event>
 4    1  0.1724904E-005  0.5082871E+03  0.7818608E-02  0.1011638E+00
         -2   -1    0    0    0  501 -0.00000000000E+00  0.00000000000E+00  0.35051407913E+02  0.35051408005E+02  0.25500000000E-02 0. -1.
          2   -1    0    0  501    0  0.00000000000E+00 -0.00000000000E+00 -0.18426921559E+04  0.18426921559E+04  0.25500000000E-02 0.  1.
    5000001    1    1    2    0    0 -0.69303053487E+01  0.10579760908E+03 -0.47068083647E+03  0.52190287701E+03  0.19900000000E+03 0.  0.
   -5000001    1    1    2    0    0  0.69303053487E+01 -0.10579760908E+03 -0.13369599116E+04  0.13558406869E+04  0.19900000000E+03 0.  0.
<mgrwt>
<rscale>  0 0.50828714E+03</rscale>
<asrwt>0</asrwt>
<pdfrwt beam="1">  1        2 0.26324168E+00 0.50828714E+03</pdfrwt>
<pdfrwt beam="2">  1       -2 0.50073452E-02 0.50828714E+03</pdfrwt>
<totfact> 0.20411032E+03</totfact>
</mgrwt>
</event>
<event>
 4    1  0.1724904E-005  0.5466608E+03  0.7818608E-02  0.1002270E+00
          2   -1    0    0  501    0  0.00000000000E+00  0.00000000000E+00  0.17044398828E+04  0.17044398828E+04  0.25500000000E-02 0.  1.
         -2   -1    0    0    0  501 -0.00000000000E+00 -0.00000000000E+00 -0.43832287887E+02  0.43832287961E+02  0.25500000000E-02 0. -1.
    5000001    1    1    2    0    0  0.17031186388E+03 -0.61319553393E+02  0.67552529483E+03  0.72711872659E+03  0.19900000000E+03 0.  0.
   -5000001    1    1    2    0    0 -0.17031186388E+03  0.61319553393E+02  0.98508230011E+03  0.10211534442E+04  0.19900000000E+03 0.  0.
<mgrwt>
<rscale>  0 0.54666077E+03</rscale>
<asrwt>0</asrwt>
<pdfrwt beam="1">  1        2 0.24349133E+00 0.54666077E+03</pdfrwt>
<pdfrwt beam="2">  1       -2 0.62617576E-02 0.54666077E+03</pdfrwt>
<totfact> 0.16898414E+03</totfact>
</mgrwt>
</event>
<event>
 4    1  0.1724904E-005  0.5648587E+03  0.7818608E-02  0.9981120E-01
          2   -1    0    0  501    0  0.00000000000E+00  0.00000000000E+00  0.81515616086E+03  0.81515616086E+03  0.25500000000E-02 0. -1.
         -2   -1    0    0    0  501 -0.00000000000E+00 -0.00000000000E+00 -0.97854066555E+02  0.97854066589E+02  0.25500000000E-02 0.  1.
    5000001    1    1    2    0    0  0.43574177118E+01 -0.20030329261E+03  0.36672457532E+03  0.46284804230E+03  0.19900000000E+03 0.  0.
   -5000001    1    1    2    0    0 -0.43574177118E+01  0.20030329261E+03  0.35057751898E+03  0.45016218515E+03  0.19900000000E+03 0.  0.
<mgrwt>
<rscale>  0 0.56485873E+03</rscale>
<asrwt>0</asrwt>
<pdfrwt beam="1">  1        2 0.11645088E+00 0.56485873E+03</pdfrwt>
<pdfrwt beam="2">  1       -2 0.13979152E-01 0.56485873E+03</pdfrwt>
<totfact> 0.14660466E+03</totfact>
</mgrwt>
</event>
<event>
 4    1  0.1724904E-005  0.5989813E+03  0.7818608E-02  0.9907522E-01
         -2   -1    0    0    0  501 -0.00000000000E+00  0.00000000000E+00  0.20210873959E+03  0.20210873961E+03  0.25500000000E-02 0. -1.
          2   -1    0    0  501    0  0.00000000000E+00 -0.00000000000E+00 -0.44379403823E+03  0.44379403824E+03  0.25500000000E-02 0.  1.
    5000001    1    1    2    0    0  0.12607215938E+03 -0.12132571554E+03  0.29659662721E+02  0.26663610823E+03  0.19900000000E+03 0.  0.
   -5000001    1    1    2    0    0 -0.12607215938E+03  0.12132571554E+03 -0.27134496136E+03  0.37926666961E+03  0.19900000000E+03 0.  0.
<mgrwt>
<rscale>  0 0.59898131E+03</rscale>
<asrwt>0</asrwt>
<pdfrwt beam="1">  1        2 0.63399148E-01 0.59898131E+03</pdfrwt>
<pdfrwt beam="2">  1       -2 0.28872677E-01 0.59898131E+03</pdfrwt>
<totfact> 0.84956485E+02</totfact>
</mgrwt>
</event>
<event>
 4    1  0.1724904E-005  0.9567254E+03  0.7818608E-02  0.9357324E-01
          2   -1    0    0  501    0  0.00000000000E+00  0.00000000000E+00  0.21672909659E+04  0.21672909659E+04  0.25500000000E-02 0.  1.
         -2   -1    0    0    0  501 -0.00000000000E+00 -0.00000000000E+00 -0.10558383594E+03  0.10558383597E+03  0.25500000000E-02 0. -1.
    5000001    1    1    2    0    0  0.24073993187E+03 -0.23568399838E+03  0.37709975805E+03  0.54342238582E+03  0.19900000000E+03 0.  0.
   -5000001    1    1    2    0    0 -0.24073993187E+03  0.23568399838E+03  0.16846073719E+04  0.17294524160E+04  0.19900000000E+03 0.  0.
<mgrwt>
<rscale>  0 0.95672544E+03</rscale>
<asrwt>0</asrwt>
<pdfrwt beam="1">  1        2 0.30961294E+00 0.95672544E+03</pdfrwt>
<pdfrwt beam="2">  1       -2 0.15083408E-01 0.95672544E+03</pdfrwt>
<totfact> 0.23005835E+02</totfact>
</mgrwt>
</event>
<event>
 4    1  0.1724904E-005  0.1086804E+04  0.7818608E-02  0.9218150E-01
         -2   -1    0    0    0  501 -0.00000000000E+00  0.00000000000E+00  0.14139064781E+03  0.14139064783E+03  0.25500000000E-02 0. -1.
          2   -1    0    0  501    0  0.00000000000E+00 -0.00000000000E+00 -0.20884375870E+04  0.20884375870E+04  0.25500000000E-02 0.  1.
    5000001    1    1    2    0    0  0.41846343324E+03 -0.28385240436E+03 -0.97525343987E+03  0.11164246971E+04  0.19900000000E+03 0.  0.
   -5000001    1    1    2    0    0 -0.41846343324E+03  0.28385240436E+03 -0.97179349934E+03  0.11134035377E+04  0.19900000000E+03 0.  0.
<mgrwt>
<rscale>  0 0.10868036E+04</rscale>
<asrwt>0</asrwt>
<pdfrwt beam="1">  1        2 0.29834821E+00 0.10868036E+04</pdfrwt>
<pdfrwt beam="2">  1       -2 0.20198665E-01 0.10868036E+04</pdfrwt>
<totfact> 0.15101387E+02</totfact>
</mgrwt>
</event>
<event>
 4    1  0.1724904E-005  0.5489373E+03  0.7818608E-02  0.1001740E+00
          2   -1    0    0  501    0  0.00000000000E+00  0.00000000000E+00  0.84288537250E+03  0.84288537250E+03  0.25500000000E-02 0.  1.
         -2   -1    0    0    0  501 -0.00000000000E+00 -0.00000000000E+00 -0.89375202819E+02  0.89375202856E+02  0.25500000000E-02 0. -1.
    5000001    1    1    2    0    0 -0.53462905311E+02  0.18041602907E+03  0.40731625404E+03  0.49083169885E+03  0.19900000000E+03 0.  0.
   -5000001    1    1    2    0    0  0.53462905311E+02 -0.18041602907E+03  0.34619391564E+03  0.44142887651E+03  0.19900000000E+03 0.  0.
<mgrwt>
<rscale>  0 0.54893734E+03</rscale>
<asrwt>0</asrwt>
<pdfrwt beam="1">  1        2 0.12041220E+00 0.54893734E+03</pdfrwt>
<pdfrwt beam="2">  1       -2 0.12767885E-01 0.54893734E+03</pdfrwt>
<totfact> 0.16324270E+03</totfact>
</mgrwt>
</event>
<event>
 4    1  0.1724904E-005  0.6589684E+03  0.7818608E-02  0.9790095E-01
          2   -1    0    0  501    0  0.00000000000E+00  0.00000000000E+00  0.89344018636E+03  0.89344018636E+03  0.25500000000E-02 0.  1.
         -2   -1    0    0    0  501 -0.00000000000E+00 -0.00000000000E+00 -0.12150767310E+03  0.12150767313E+03  0.25500000000E-02 0. -1.
    5000001    1    1    2    0    0 -0.14782228486E+03  0.17384419838E+03  0.58610789677E+03  0.65969439885E+03  0.19900000000E+03 0.  0.
   -5000001    1    1    2    0    0  0.14782228486E+03 -0.17384419838E+03  0.18582461648E+03  0.35525346064E+03  0.19900000000E+03 0.  0.
<mgrwt>
<rscale>  0 0.65896840E+03</rscale>
<asrwt>0</asrwt>
<pdfrwt beam="1">  1        2 0.12763432E+00 0.65896840E+03</pdfrwt>
<pdfrwt beam="2">  1       -2 0.17358238E-01 0.65896840E+03</pdfrwt>
<totfact> 0.89991065E+02</totfact>
</mgrwt>
</event>
<event>
 4    1  0.1724904E-005  0.6871555E+03  0.7818608E-02  0.9739454E-01
          2   -1    0    0  501    0  0.00000000000E+00  0.00000000000E+00  0.27792779041E+04  0.27792779041E+04  0.25500000000E-02 0.  1.
         -2   -1    0    0    0  501 -0.00000000000E+00 -0.00000000000E+00 -0.42473502010E+02  0.42473502086E+02  0.25500000000E-02 0. -1.
    5000001    1    1    2    0    0  0.21872076428E+03  0.13998317106E+03  0.93750931905E+03  0.99295457308E+03  0.19900000000E+03 0.  0.
   -5000001    1    1    2    0    0 -0.21872076428E+03 -0.13998317106E+03  0.17992950830E+04  0.18287968331E+04  0.19900000000E+03 0.  0.
<mgrwt>
<rscale>  0 0.68715549E+03</rscale>
<asrwt>0</asrwt>
<pdfrwt beam="1">  1        2 0.39703968E+00 0.68715549E+03</pdfrwt>
<pdfrwt beam="2">  1       -2 0.60676435E-02 0.68715549E+03</pdfrwt>
<totfact> 0.49859759E+02</totfact>
</mgrwt>
</event>
<event>
 4    1  0.1724904E-005  0.5437932E+03  0.7818608E-02  0.1002941E+00
         -2   -1    0    0    0  501 -0.00000000000E+00  0.00000000000E+00  0.27814754832E+03  0.27814754833E+03  0.25500000000E-02 0. -1.
          2   -1    0    0  501    0  0.00000000000E+00 -0.00000000000E+00 -0.26578615557E+03  0.26578615558E+03  0.25500000000E-02 0.  1.
    5000001    1    1    2    0    0 -0.11191428785E+01  0.72678744133E+02 -0.16428432320E+03  0.26809287790E+03  0.19900000000E+03 0.  0.
   -5000001    1    1    2    0    0  0.11191428785E+01 -0.72678744133E+02  0.17664571595E+03  0.27584082601E+03  0.19900000000E+03 0.  0.
<mgrwt>
<rscale>  0 0.54379322E+03</rscale>
<asrwt>0</asrwt>
<pdfrwt beam="1">  1        2 0.37969451E-01 0.54379322E+03</pdfrwt>
<pdfrwt beam="2">  1       -2 0.39735364E-01 0.54379322E+03</pdfrwt>
<totfact> 0.82122756E+02</totfact>
</mgrwt>
</event>
<event>
 4    1  0.1724904E-005  0.1016184E+04  0.7818608E-02  0.9290970E-01
         -2   -1    0    0    0  501 -0.00000000000E+00  0.00000000000E+00  0.23621622960E+03  0.23621622962E+03  0.25500000000E-02 0. -1.
          2   -1    0    0  501    0  0.00000000000E+00 -0.00000000000E+00 -0.10928868857E+04  0.10928868857E+04  0.25500000000E-02 0.  1.
    5000001    1    1    2    0    0 -0.35206122553E+03  0.26091087904E+03 -0.21527824986E+03  0.52722605985E+03  0.19900000000E+03 0.  0.
   -5000001    1    1    2    0    0  0.35206122553E+03 -0.26091087904E+03 -0.64139240627E+03  0.80187705550E+03  0.19900000000E+03 0.  0.
<mgrwt>
<rscale>  0 0.10161843E+04</rscale>
<asrwt>0</asrwt>
<pdfrwt beam="1">  1        2 0.15612670E+00 0.10161843E+04</pdfrwt>
<pdfrwt beam="2">  1       -2 0.33745176E-01 0.10161843E+04</pdfrwt>
<totfact> 0.20167221E+02</totfact>
</mgrwt>
</event>
<event>
 4    1  0.1724904E-005  0.9144397E+03  0.7818608E-02  0.9407709E-01
          2   -1    0    0  501    0  0.00000000000E+00  0.00000000000E+00  0.19381942159E+04  0.19381942159E+04  0.25500000000E-02 0.  1.
         -2   -1    0    0    0  501 -0.00000000000E+00 -0.00000000000E+00 -0.10785813299E+03  0.10785813302E+03  0.25500000000E-02 0. -1.
    5000001    1    1    2    0    0 -0.21818504383E+03  0.25096208878E+03  0.14580186888E+04  0.15086438215E+04  0.19900000000E+03 0.  0.
   -5000001    1    1    2    0    0  0.21818504383E+03 -0.25096208878E+03  0.37231739413E+03  0.53740852740E+03  0.19900000000E+03 0.  0.
<mgrwt>
<rscale>  0 0.91443974E+03</rscale>
<asrwt>0</asrwt>
<pdfrwt beam="1">  1        2 0.27688490E+00 0.91443974E+03</pdfrwt>
<pdfrwt beam="2">  1       -2 0.15408304E-01 0.91443974E+03</pdfrwt>
<totfact> 0.29113614E+02</totfact>
</mgrwt>
</event>
<event>
 4    1  0.1724904E-005  0.5442024E+03  0.7818608E-02  0.1002845E+00
          2   -1    0    0  501    0  0.00000000000E+00  0.00000000000E+00  0.21201555734E+03  0.21201555735E+03  0.25500000000E-02 0.  1.
         -2   -1    0    0    0  501 -0.00000000000E+00 -0.00000000000E+00 -0.34921524869E+03  0.34921524870E+03  0.25500000000E-02 0. -1.
    5000001    1    1    2    0    0 -0.55934490540E+02 -0.13812512802E+03  0.45453837470E+02  0.25273359405E+03  0.19900000000E+03 0.  0.
   -5000001    1    1    2    0    0  0.55934490540E+02  0.13812512802E+03 -0.18265352883E+03  0.30849721200E+03  0.19900000000E+03 0.  0.
<mgrwt>
<rscale>  0 0.54420241E+03</rscale>
<asrwt>0</asrwt>
<pdfrwt beam="1">  1        2 0.30287937E-01 0.54420241E+03</pdfrwt>
<pdfrwt beam="2">  1       -2 0.49887892E-01 0.54420241E+03</pdfrwt>
<totfact> 0.67331412E+02</totfact>
</mgrwt>
</event>
<event>
 4    1  0.1724904E-005  0.8980038E+03  0.7818608E-02  0.9428080E-01
         -2   -1    0    0    0  501 -0.00000000000E+00  0.00000000000E+00  0.16463815059E+03  0.16463815061E+03  0.25500000000E-02 0. -1.
          2   -1    0    0  501    0  0.00000000000E+00 -0.00000000000E+00 -0.12245201046E+04  0.12245201046E+04  0.25500000000E-02 0.  1.
    5000001    1    1    2    0    0  0.27919338543E+03  0.18901822605E+03 -0.18987830551E+03  0.43512251970E+03  0.19900000000E+03 0.  0.
   -5000001    1    1    2    0    0 -0.27919338543E+03 -0.18901822605E+03 -0.87000364852E+03  0.95403573554E+03  0.19900000000E+03 0.  0.
<mgrwt>
<rscale>  0 0.89800384E+03</rscale>
<asrwt>0</asrwt>
<pdfrwt beam="1">  1        2 0.17493144E+00 0.89800384E+03</pdfrwt>
<pdfrwt beam="2">  1       -2 0.23519736E-01 0.89800384E+03</pdfrwt>
<totfact> 0.33124952E+02</totfact>
</mgrwt>
</event>
<event>
 4    1  0.1724904E-005  0.4964477E+03  0.7818608E-02  0.1014710E+00
          2   -1    0    0  501    0  0.00000000000E+00  0.00000000000E+00  0.12885768255E+04  0.12885768255E+04  0.25500000000E-02 0. -1.
         -2   -1    0    0    0  501 -0.00000000000E+00 -0.00000000000E+00 -0.47816389296E+02  0.47816389364E+02  0.25500000000E-02 0.  1.
    5000001    1    1    2    0    0  0.97918815331E+02 -0.73595486517E+02  0.84575767269E+03  0.87744597038E+03  0.19900000000E+03 0.  0.
   -5000001    1    1    2    0    0 -0.97918815331E+02  0.73595486517E+02  0.39500276350E+03  0.45894724447E+03  0.19900000000E+03 0.  0.
<mgrwt>
<rscale>  0 0.49644775E+03</rscale>
<asrwt>0</asrwt>
<pdfrwt beam="1">  1        2 0.18408240E+00 0.49644775E+03</pdfrwt>
<pdfrwt beam="2">  1       -2 0.68309128E-02 0.49644775E+03</pdfrwt>
<totfact> 0.24300380E+03</totfact>
</mgrwt>
</event>
<event>
 4    1  0.1724904E-005  0.5959086E+03  0.7818608E-02  0.9913931E-01
         -2   -1    0    0    0  501 -0.00000000000E+00  0.00000000000E+00  0.50331879532E+03  0.50331879533E+03  0.25500000000E-02 0. -1.
          2   -1    0    0  501    0  0.00000000000E+00 -0.00000000000E+00 -0.17638278845E+03  0.17638278847E+03  0.25500000000E-02 0.  1.
    5000001    1    1    2    0    0 -0.20486338896E+02 -0.21389394561E+03  0.10093716230E+03  0.30977349916E+03  0.19900000000E+03 0.  0.
   -5000001    1    1    2    0    0  0.20486338896E+02  0.21389394561E+03  0.22599884457E+03  0.36992808463E+03  0.19900000000E+03 0.  0.
<mgrwt>
<rscale>  0 0.59590863E+03</rscale>
<asrwt>0</asrwt>
<pdfrwt beam="1">  1        2 0.25197541E-01 0.59590863E+03</pdfrwt>
<pdfrwt beam="2">  1       -2 0.71902684E-01 0.59590863E+03</pdfrwt>
<totfact> 0.38433056E+02</totfact>
</mgrwt>
</event>
<event>
 4    1  0.1724904E-005  0.5142434E+03  0.7818608E-02  0.1010127E+00
          2   -1    0    0  501    0  0.00000000000E+00  0.00000000000E+00  0.37269678381E+03  0.37269678381E+03  0.25500000000E-02 0.  1.
         -2   -1    0    0    0  501 -0.00000000000E+00 -0.00000000000E+00 -0.17738699489E+03  0.17738699491E+03  0.25500000000E-02 0. -1.
    5000001    1    1    2    0    0 -0.10722325198E+03 -0.26537359688E+02 -0.30304578133E+02  0.22960928701E+03  0.19900000000E+03 0.  0.
   -5000001    1    1    2    0    0  0.10722325198E+03  0.26537359688E+02  0.22561436705E+03  0.32047449172E+03  0.19900000000E+03 0.  0.
<mgrwt>
<rscale>  0 0.51424338E+03</rscale>
<asrwt>0</asrwt>
<pdfrwt beam="1">  1        2 0.53242398E-01 0.51424338E+03</pdfrwt>
<pdfrwt beam="2">  1       -2 0.25340999E-01 0.51424338E+03</pdfrwt>
<totfact> 0.13074067E+03</totfact>
</mgrwt>
</event>
<event>
 4    1  0.1724904E-005  0.5519321E+03  0.7818608E-02  0.1001048E+00
         -2   -1    0    0    0  501 -0.00000000000E+00  0.00000000000E+00  0.11096112855E+03  0.11096112858E+03  0.25500000000E-02 0. -1.
          2   -1    0    0  501    0  0.00000000000E+00 -0.00000000000E+00 -0.68634183947E+03  0.68634183947E+03  0.25500000000E-02 0.  1.
    5000001    1    1    2    0    0 -0.10152727070E+03  0.13236665832E+03 -0.42264374365E+03  0.49604178552E+03  0.19900000000E+03 0.  0.
   -5000001    1    1    2    0    0  0.10152727070E+03 -0.13236665832E+03 -0.15273696726E+03  0.30126118253E+03  0.19900000000E+03 0.  0.
<mgrwt>
<rscale>  0 0.55193212E+03</rscale>
<asrwt>0</asrwt>
<pdfrwt beam="1">  1        2 0.98048832E-01 0.55193212E+03</pdfrwt>
<pdfrwt beam="2">  1       -2 0.15851590E-01 0.55193212E+03</pdfrwt>
<totfact> 0.14710339E+03</totfact>
</mgrwt>
</event>
<event>
 4    1  0.1724904E-005  0.6070811E+03  0.7818608E-02  0.9890823E-01
          2   -1    0    0  501    0  0.00000000000E+00  0.00000000000E+00  0.28977579419E+04  0.28977579419E+04  0.25500000000E-02 0.  1.
         -2   -1    0    0    0  501 -0.00000000000E+00 -0.00000000000E+00 -0.31795910057E+02  0.31795910159E+02  0.25500000000E-02 0. -1.
    5000001    1    1    2    0    0 -0.14370523575E+03  0.66078354531E+02  0.22334889961E+04  0.22479082809E+04  0.19900000000E+03 0.  0.
   -5000001    1    1    2    0    0  0.14370523575E+03 -0.66078354531E+02  0.63247303577E+03  0.68164557117E+03  0.19900000000E+03 0.  0.
<mgrwt>
<rscale>  0 0.60708105E+03</rscale>
<asrwt>0</asrwt>
<pdfrwt beam="1">  1        2 0.41396527E+00 0.60708105E+03</pdfrwt>
<pdfrwt beam="2">  1       -2 0.45422745E-02 0.60708105E+03</pdfrwt>
<totfact> 0.68161061E+02</totfact>
</mgrwt>
</event>
<event>
 4    1  0.1724904E-005  0.6568493E+03  0.7818608E-02  0.9794011E-01
         -2   -1    0    0    0  501 -0.00000000000E+00  0.00000000000E+00  0.26539820812E+03  0.26539820813E+03  0.25500000000E-02 0. -1.
          2   -1    0    0  501    0  0.00000000000E+00 -0.00000000000E+00 -0.40641854200E+03  0.40641854201E+03  0.25500000000E-02 0.  1.
    5000001    1    1    2    0    0 -0.50483448044E+01 -0.26084264427E+03 -0.84879572225E+02  0.33892464153E+03  0.19900000000E+03 0.  0.
   -5000001    1    1    2    0    0  0.50483448044E+01  0.26084264427E+03 -0.56140761657E+02  0.33289210861E+03  0.19900000000E+03 0.  0.
<mgrwt>
<rscale>  0 0.65684931E+03</rscale>
<asrwt>0</asrwt>
<pdfrwt beam="1">  1        2 0.58059792E-01 0.65684931E+03</pdfrwt>
<pdfrwt beam="2">  1       -2 0.37914030E-01 0.65684931E+03</pdfrwt>
<totfact> 0.56120133E+02</totfact>
</mgrwt>
</event>
<event>
 4    1  0.1724904E-005  0.8154228E+03  0.7818608E-02  0.9537958E-01
         -2   -1    0    0    0  501 -0.00000000000E+00  0.00000000000E+00  0.68377865706E+02  0.68377865754E+02  0.25500000000E-02 0. -1.
          2   -1    0    0  501    0  0.00000000000E+00 -0.00000000000E+00 -0.24310294126E+04  0.24310294126E+04  0.25500000000E-02 0.  1.
    5000001    1    1    2    0    0  0.90708075700E+02  0.33826604479E+03 -0.98805657856E+03  0.10670092195E+04  0.19900000000E+03 0.  0.
   -5000001    1    1    2    0    0 -0.90708075700E+02 -0.33826604479E+03 -0.13745949684E+04  0.14323980589E+04  0.19900000000E+03 0.  0.
<mgrwt>
<rscale>  0 0.81542284E+03</rscale>
<asrwt>0</asrwt>
<pdfrwt beam="1">  1        2 0.34728986E+00 0.81542284E+03</pdfrwt>
<pdfrwt beam="2">  1       -2 0.97682680E-02 0.81542284E+03</pdfrwt>
<totfact> 0.35040825E+02</totfact>
</mgrwt>
</event>
<event>
 4    1  0.1724904E-005  0.7350650E+03  0.7818608E-02  0.9659077E-01
         -2   -1    0    0    0  501 -0.00000000000E+00  0.00000000000E+00  0.45685255627E+03  0.45685255628E+03  0.25500000000E-02 0. -1.
          2   -1    0    0  501    0  0.00000000000E+00 -0.00000000000E+00 -0.29567554643E+03  0.29567554644E+03  0.25500000000E-02 0.  1.
    5000001    1    1    2    0    0 -0.15191236001E+03  0.23075041229E+03 -0.61104867265E+02  0.34591606308E+03  0.19900000000E+03 0.  0.
   -5000001    1    1    2    0    0  0.15191236001E+03 -0.23075041229E+03  0.22228187710E+03  0.40661203964E+03  0.19900000000E+03 0.  0.
<mgrwt>
<rscale>  0 0.73506497E+03</rscale>
<asrwt>0</asrwt>
<pdfrwt beam="1">  1        2 0.42239364E-01 0.73506497E+03</pdfrwt>
<pdfrwt beam="2">  1       -2 0.65264650E-01 0.73506497E+03</pdfrwt>
<totfact> 0.26457286E+02</totfact>
</mgrwt>
</event>
<event>
 4    1  0.1724904E-005  0.5085889E+03  0.7818608E-02  0.1011561E+00
          2   -1    0    0  501    0  0.00000000000E+00  0.00000000000E+00  0.15740274186E+04  0.15740274186E+04  0.25500000000E-02 0.  1.
         -2   -1    0    0    0  501 -0.00000000000E+00 -0.00000000000E+00 -0.41082929575E+02  0.41082929654E+02  0.25500000000E-02 0. -1.
    5000001    1    1    2    0    0 -0.14076669512E+03 -0.69479246400E+02  0.83171116530E+03  0.86947518114E+03  0.19900000000E+03 0.  0.
   -5000001    1    1    2    0    0  0.14076669512E+03  0.69479246400E+02  0.70123332372E+03  0.74563516711E+03  0.19900000000E+03 0.  0.
<mgrwt>
<rscale>  0 0.50858886E+03</rscale>
<asrwt>0</asrwt>
<pdfrwt beam="1">  1        2 0.22486107E+00 0.50858886E+03</pdfrwt>
<pdfrwt beam="2">  1       -2 0.58689898E-02 0.50858886E+03</pdfrwt>
<totfact> 0.21813815E+03</totfact>
</mgrwt>
</event>
<event>
 4    1  0.1724904E-005  0.4959392E+03  0.7818608E-02  0.1014844E+00
         -2   -1    0    0    0  501 -0.00000000000E+00  0.00000000000E+00  0.29341948662E+02  0.29341948773E+02  0.25500000000E-02 0. -1.
          2   -1    0    0  501    0  0.00000000000E+00 -0.00000000000E+00 -0.20955978260E+04  0.20955978260E+04  0.25500000000E-02 0.  1.
    5000001    1    1    2    0    0 -0.52691053865E+02 -0.12304843628E+03 -0.76313681537E+03  0.79993503724E+03  0.19900000000E+03 0.  0.
   -5000001    1    1    2    0    0  0.52691053865E+02  0.12304843628E+03 -0.13031190620E+04  0.13250047376E+04  0.19900000000E+03 0.  0.
<mgrwt>
<rscale>  0 0.49593921E+03</rscale>
<asrwt>0</asrwt>
<pdfrwt beam="1">  1        2 0.29937103E+00 0.49593921E+03</pdfrwt>
<pdfrwt beam="2">  1       -2 0.41917083E-02 0.49593921E+03</pdfrwt>
<totfact> 0.20072808E+03</totfact>
</mgrwt>
</event>
<event>
 4    1  0.1724904E-005  0.5901180E+03  0.7818608E-02  0.9926123E-01
          2   -1    0    0  501    0  0.00000000000E+00  0.00000000000E+00  0.26003368722E+03  0.26003368723E+03  0.25500000000E-02 0.  1.
         -2   -1    0    0    0  501 -0.00000000000E+00 -0.00000000000E+00 -0.33480206264E+03  0.33480206265E+03  0.25500000000E-02 0. -1.
    5000001    1    1    2    0    0  0.24058951480E+02 -0.18604333848E+03 -0.14903003272E+03  0.31145129249E+03  0.19900000000E+03 0.  0.
   -5000001    1    1    2    0    0 -0.24058951480E+02  0.18604333848E+03  0.74261657303E+02  0.28338445738E+03  0.19900000000E+03 0.  0.
<mgrwt>
<rscale>  0 0.59011800E+03</rscale>
<asrwt>0</asrwt>
<pdfrwt beam="1">  1        2 0.37147670E-01 0.59011800E+03</pdfrwt>
<pdfrwt beam="2">  1       -2 0.47828866E-01 0.59011800E+03</pdfrwt>
<totfact> 0.58359188E+02</totfact>
</mgrwt>
</event>
<event>
 4    1  0.1724904E-005  0.5741111E+03  0.7818608E-02  0.9960622E-01
          2   -1    0    0  501    0  0.00000000000E+00  0.00000000000E+00  0.92753992175E+03  0.92753992175E+03  0.25500000000E-02 0.  1.
         -2   -1    0    0    0  501 -0.00000000000E+00 -0.00000000000E+00 -0.88838102851E+02  0.88838102887E+02  0.25500000000E-02 0. -1.
    5000001    1    1    2    0    0 -0.15555987126E+03 -0.99616556513E+02  0.25443672259E+03  0.37210398773E+03  0.19900000000E+03 0.  0.
   -5000001    1    1    2    0    0  0.15555987126E+03  0.99616556513E+02  0.58426509630E+03  0.64427403691E+03  0.19900000000E+03 0.  0.
<mgrwt>
<rscale>  0 0.57411109E+03</rscale>
<asrwt>0</asrwt>
<pdfrwt beam="1">  1        2 0.13250570E+00 0.57411109E+03</pdfrwt>
<pdfrwt beam="2">  1       -2 0.12691158E-01 0.57411109E+03</pdfrwt>
<totfact> 0.14519709E+03</totfact>
</mgrwt>
</event>
<event>
 4    1  0.1724904E-005  0.5126975E+03  0.7818608E-02  0.1010517E+00
         -2   -1    0    0    0  501 -0.00000000000E+00  0.00000000000E+00  0.52000817156E+02  0.52000817219E+02  0.25500000000E-02 0.  1.
          2   -1    0    0  501    0  0.00000000000E+00 -0.00000000000E+00 -0.12637239042E+04  0.12637239042E+04  0.25500000000E-02 0. -1.
    5000001    1    1    2    0    0 -0.92821566981E+02 -0.12741531294E+03 -0.51465314435E+03  0.57386354150E+03  0.19900000000E+03 0.  0.
   -5000001    1    1    2    0    0  0.92821566981E+02  0.12741531294E+03 -0.69706994267E+03  0.74186117990E+03  0.19900000000E+03 0.  0.
<mgrwt>
<rscale>  0 0.51269748E+03</rscale>
<asrwt>0</asrwt>
<pdfrwt beam="1">  1        2 0.18053197E+00 0.51269748E+03</pdfrwt>
<pdfrwt beam="2">  1       -2 0.74286890E-02 0.51269748E+03</pdfrwt>
<totfact> 0.21959914E+03</totfact>
</mgrwt>
</event>
<event>
 4    1  0.1724904E-005  0.1273167E+04  0.7818608E-02  0.9051119E-01
         -2   -1    0    0    0  501 -0.00000000000E+00  0.00000000000E+00  0.16260447169E+03  0.16260447171E+03  0.25500000000E-02 0. -1.
          2   -1    0    0  501    0  0.00000000000E+00 -0.00000000000E+00 -0.24921730712E+04  0.24921730712E+04  0.25500000000E-02 0.  1.
    5000001    1    1    2    0    0  0.46344690717E+03 -0.11170615710E+03 -0.19404480098E+04  0.20080340585E+04  0.19900000000E+03 0.  0.
   -5000001    1    1    2    0    0 -0.46344690717E+03  0.11170615710E+03 -0.38912058971E+03  0.64674348441E+03  0.19900000000E+03 0.  0.
<mgrwt>
<rscale>  0 0.12731669E+04</rscale>
<asrwt>0</asrwt>
<pdfrwt beam="1">  1        2 0.35602470E+00 0.12731669E+04</pdfrwt>
<pdfrwt beam="2">  1       -2 0.23229212E-01 0.12731669E+04</pdfrwt>
<totfact> 0.71864557E+01</totfact>
</mgrwt>
</event>
<event>
 4    1  0.1724904E-005  0.4713370E+03  0.7818608E-02  0.1021544E+00
          2   -1    0    0  501    0  0.00000000000E+00  0.00000000000E+00  0.65493086406E+03  0.65493086407E+03  0.25500000000E-02 0. -1.
         -2   -1    0    0    0  501 -0.00000000000E+00 -0.00000000000E+00 -0.84802310364E+02  0.84802310402E+02  0.25500000000E-02 0.  1.
    5000001    1    1    2    0    0  0.12457202072E+03 -0.28593539153E+01  0.25319714988E+03  0.34530589476E+03  0.19900000000E+03 0.  0.
   -5000001    1    1    2    0    0 -0.12457202072E+03  0.28593539153E+01  0.31693140382E+03  0.39442727971E+03  0.19900000000E+03 0.  0.
<mgrwt>
<rscale>  0 0.47133704E+03</rscale>
<asrwt>0</asrwt>
<pdfrwt beam="1">  1        2 0.93561554E-01 0.47133704E+03</pdfrwt>
<pdfrwt beam="2">  1       -2 0.12114615E-01 0.47133704E+03</pdfrwt>
<totfact> 0.24335676E+03</totfact>
</mgrwt>
</event>
<event>
 4    1  0.1724904E-005  0.9555971E+03  0.7818608E-02  0.9358632E-01
         -2   -1    0    0    0  501 -0.00000000000E+00  0.00000000000E+00  0.16028639214E+03  0.16028639216E+03  0.25500000000E-02 0. -1.
          2   -1    0    0  501    0  0.00000000000E+00 -0.00000000000E+00 -0.14242722927E+04  0.14242722927E+04  0.25500000000E-02 0.  1.
    5000001    1    1    2    0    0 -0.39378921697E+03  0.14333330193E+03 -0.44237809877E+03  0.64102555730E+03  0.19900000000E+03 0.  0.
   -5000001    1    1    2    0    0  0.39378921697E+03 -0.14333330193E+03 -0.82160780178E+03  0.94353312755E+03  0.19900000000E+03 0.  0.
<mgrwt>
<rscale>  0 0.95559713E+03</rscale>
<asrwt>0</asrwt>
<pdfrwt beam="1">  1        2 0.20346746E+00 0.95559713E+03</pdfrwt>
<pdfrwt beam="2">  1       -2 0.22898057E-01 0.95559713E+03</pdfrwt>
<totfact> 0.26918593E+02</totfact>
</mgrwt>
</event>
<event>
 4    1  0.1724904E-005  0.4637426E+03  0.7818608E-02  0.1023701E+00
          2   -1    0    0  501    0  0.00000000000E+00  0.00000000000E+00  0.88944559692E+03  0.88944559692E+03  0.25500000000E-02 0.  1.
         -2   -1    0    0    0  501 -0.00000000000E+00 -0.00000000000E+00 -0.60446972976E+02  0.60446973030E+02  0.25500000000E-02 0. -1.
    5000001    1    1    2    0    0  0.29595752508E+02 -0.10494309403E+03  0.51218355017E+03  0.56019813515E+03  0.19900000000E+03 0.  0.
   -5000001    1    1    2    0    0 -0.29595752508E+02  0.10494309403E+03  0.31681507377E+03  0.38969443481E+03  0.19900000000E+03 0.  0.
<mgrwt>
<rscale>  0 0.46374258E+03</rscale>
<asrwt>0</asrwt>
<pdfrwt beam="1">  1        2 0.12706364E+00 0.46374258E+03</pdfrwt>
<pdfrwt beam="2">  1       -2 0.86352827E-02 0.46374258E+03</pdfrwt>
<totfact> 0.28685022E+03</totfact>
</mgrwt>
</event>
<event>
 4    1  0.1724904E-005  0.5091624E+03  0.7818608E-02  0.1011415E+00
          2   -1    0    0  501    0  0.00000000000E+00  0.00000000000E+00  0.30683686304E+03  0.30683686305E+03  0.25500000000E-02 0.  1.
         -2   -1    0    0    0  501 -0.00000000000E+00 -0.00000000000E+00 -0.21122487068E+03  0.21122487069E+03  0.25500000000E-02 0. -1.
    5000001    1    1    2    0    0 -0.13633232985E+03 -0.43136675360E+02 -0.22416972230E+02  0.24607071660E+03  0.19900000000E+03 0.  0.
   -5000001    1    1    2    0    0  0.13633232985E+03  0.43136675360E+02  0.11802896460E+03  0.27199101715E+03  0.19900000000E+03 0.  0.
<mgrwt>
<rscale>  0 0.50916236E+03</rscale>
<asrwt>0</asrwt>
<pdfrwt beam="1">  1        2 0.43833838E-01 0.50916236E+03</pdfrwt>
<pdfrwt beam="2">  1       -2 0.30174982E-01 0.50916236E+03</pdfrwt>
<totfact> 0.11788111E+03</totfact>
</mgrwt>
</event>
<event>
 4    1  0.1724904E-005  0.5571340E+03  0.7818608E-02  0.9998561E-01
          2   -1    0    0  501    0  0.00000000000E+00  0.00000000000E+00  0.11554948581E+04  0.11554948582E+04  0.25500000000E-02 0.  1.
         -2   -1    0    0    0  501 -0.00000000000E+00 -0.00000000000E+00 -0.67156993978E+02  0.67156994027E+02  0.25500000000E-02 0. -1.
    5000001    1    1    2    0    0 -0.57925442360E+02  0.14401478685E+03  0.80292860446E+03  0.84165964592E+03  0.19900000000E+03 0.  0.
   -5000001    1    1    2    0    0  0.57925442360E+02 -0.14401478685E+03  0.28540925971E+03  0.38099220626E+03  0.19900000000E+03 0.  0.
<mgrwt>
<rscale>  0 0.55713396E+03</rscale>
<asrwt>0</asrwt>
<pdfrwt beam="1">  1        2 0.16507069E+00 0.55713396E+03</pdfrwt>
<pdfrwt beam="2">  1       -2 0.95938567E-02 0.55713396E+03</pdfrwt>
<totfact> 0.16758946E+03</totfact>
</mgrwt>
</event>
<event>
 4    1  0.1724904E-005  0.4286285E+03  0.7818608E-02  0.1034294E+00
          2   -1    0    0  501    0  0.00000000000E+00  0.00000000000E+00  0.17561669032E+03  0.17561669034E+03  0.25500000000E-02 0. -1.
         -2   -1    0    0    0  501 -0.00000000000E+00 -0.00000000000E+00 -0.26153896975E+03  0.26153896976E+03  0.25500000000E-02 0.  1.
    5000001    1    1    2    0    0 -0.37710447958E+02 -0.69742515514E+02 -0.49688722990E+02  0.21990012630E+03  0.19900000000E+03 0.  0.
   -5000001    1    1    2    0    0  0.37710447958E+02  0.69742515514E+02 -0.36233556437E+02  0.21725553380E+03  0.19900000000E+03 0.  0.
<mgrwt>
<rscale>  0 0.42862855E+03</rscale>
<asrwt>0</asrwt>
<pdfrwt beam="1">  1        2 0.25088099E-01 0.42862855E+03</pdfrwt>
<pdfrwt beam="2">  1       -2 0.37362710E-01 0.42862855E+03</pdfrwt>
<totfact> 0.14668453E+03</totfact>
</mgrwt>
</event>
<event>
 4    1  0.1724904E-005  0.5329729E+03  0.7818608E-02  0.1005514E+00
         -2   -1    0    0    0  501 -0.00000000000E+00  0.00000000000E+00  0.85590130615E+02  0.85590130653E+02  0.25500000000E-02 0. -1.
          2   -1    0    0  501    0  0.00000000000E+00 -0.00000000000E+00 -0.82971041381E+03  0.82971041382E+03  0.25500000000E-02 0.  1.
    5000001    1    1    2    0    0  0.16895178869E+03  0.53393638893E+02 -0.37943377900E+03  0.46364488590E+03  0.19900000000E+03 0.  0.
   -5000001    1    1    2    0    0 -0.16895178869E+03 -0.53393638893E+02 -0.36468650420E+03  0.45165565858E+03  0.19900000000E+03 0.  0.
<mgrwt>
<rscale>  0 0.53297288E+03</rscale>
<asrwt>0</asrwt>
<pdfrwt beam="1">  1        2 0.11853005E+00 0.53297288E+03</pdfrwt>
<pdfrwt beam="2">  1       -2 0.12227162E-01 0.53297288E+03</pdfrwt>
<totfact> 0.17894330E+03</totfact>
</mgrwt>
</event>
<event>
 4    1  0.1724904E-005  0.6760738E+03  0.7818608E-02  0.9759047E-01
          2   -1    0    0  501    0  0.00000000000E+00  0.00000000000E+00  0.77818161269E+03  0.77818161269E+03  0.25500000000E-02 0.  1.
         -2   -1    0    0    0  501 -0.00000000000E+00 -0.00000000000E+00 -0.14684097763E+03  0.14684097765E+03  0.25500000000E-02 0. -1.
    5000001    1    1    2    0    0 -0.12843848526E+03 -0.23926743243E+03  0.35722930616E+03  0.49087587627E+03  0.19900000000E+03 0.  0.
   -5000001    1    1    2    0    0  0.12843848526E+03  0.23926743243E+03  0.27411132890E+03  0.43414671408E+03  0.19900000000E+03 0.  0.
<mgrwt>
<rscale>  0 0.67607381E+03</rscale>
<asrwt>0</asrwt>
<pdfrwt beam="1">  1        2 0.11116880E+00 0.67607381E+03</pdfrwt>
<pdfrwt beam="2">  1       -2 0.20977282E-01 0.67607381E+03</pdfrwt>
<totfact> 0.77530577E+02</totfact>
</mgrwt>
</event>
<event>
 4    1  0.1724904E-005  0.4410953E+03  0.7818608E-02  0.1030411E+00
         -2   -1    0    0    0  501 -0.00000000000E+00  0.00000000000E+00  0.56275085468E+02  0.56275085526E+02  0.25500000000E-02 0. -1.
          2   -1    0    0  501    0  0.00000000000E+00 -0.00000000000E+00 -0.86434817273E+03  0.86434817273E+03  0.25500000000E-02 0.  1.
    5000001    1    1    2    0    0  0.64307793973E+02  0.65937812211E+02 -0.45329369122E+03  0.50354687760E+03  0.19900000000E+03 0.  0.
   -5000001    1    1    2    0    0 -0.64307793973E+02 -0.65937812211E+02 -0.35477939604E+03  0.41707638065E+03  0.19900000000E+03 0.  0.
<mgrwt>
<rscale>  0 0.44109531E+03</rscale>
<asrwt>0</asrwt>
<pdfrwt beam="1">  1        2 0.12347830E+00 0.44109531E+03</pdfrwt>
<pdfrwt beam="2">  1       -2 0.80392984E-02 0.44109531E+03</pdfrwt>
<totfact> 0.33349440E+03</totfact>
</mgrwt>
</event>
<event>
 4    1  0.1724904E-005  0.6071003E+03  0.7818608E-02  0.9890784E-01
          2   -1    0    0  501    0  0.00000000000E+00  0.00000000000E+00  0.26098749094E+04  0.26098749094E+04  0.25500000000E-02 0.  1.
         -2   -1    0    0    0  501 -0.00000000000E+00 -0.00000000000E+00 -0.35305401914E+02  0.35305402006E+02  0.25500000000E-02 0. -1.
    5000001    1    1    2    0    0  0.92563950432E+01  0.22109076461E+03  0.10267741937E+04  0.10690337001E+04  0.19900000000E+03 0.  0.
   -5000001    1    1    2    0    0 -0.92563950432E+01 -0.22109076461E+03  0.15477953138E+04  0.15761466113E+04  0.19900000000E+03 0.  0.
<mgrwt>
<rscale>  0 0.60710026E+03</rscale>
<asrwt>0</asrwt>
<pdfrwt beam="1">  1        2 0.37283935E+00 0.60710026E+03</pdfrwt>
<pdfrwt beam="2">  1       -2 0.50436278E-02 0.60710026E+03</pdfrwt>
<totfact> 0.82192069E+02</totfact>
</mgrwt>
</event>
<event>
 4    1  0.1724904E-005  0.5595807E+03  0.7818608E-02  0.9993004E-01
         -2   -1    0    0    0  501 -0.00000000000E+00  0.00000000000E+00  0.45087761672E+02  0.45087761744E+02  0.25500000000E-02 0. -1.
          2   -1    0    0  501    0  0.00000000000E+00 -0.00000000000E+00 -0.17362279281E+04  0.17362279281E+04  0.25500000000E-02 0.  1.
    5000001    1    1    2    0    0 -0.17090187855E+03 -0.19031199217E+02 -0.54170215390E+03  0.60217261825E+03  0.19900000000E+03 0.  0.
   -5000001    1    1    2    0    0  0.17090187855E+03  0.19031199217E+02 -0.11494380125E+04  0.11791430716E+04  0.19900000000E+03 0.  0.
<mgrwt>
<rscale>  0 0.55958067E+03</rscale>
<asrwt>0</asrwt>
<pdfrwt beam="1">  1        2 0.24803252E+00 0.55958067E+03</pdfrwt>
<pdfrwt beam="2">  1       -2 0.64411099E-02 0.55958067E+03</pdfrwt>
<totfact> 0.15570483E+03</totfact>
</mgrwt>
</event>
<event>
 4    1  0.1724904E-005  0.1162222E+04  0.7818608E-02  0.9146582E-01
          2   -1    0    0  501    0  0.00000000000E+00  0.00000000000E+00  0.70452592485E+03  0.70452592486E+03  0.25500000000E-02 0.  1.
         -2   -1    0    0    0  501 -0.00000000000E+00 -0.00000000000E+00 -0.47931508891E+03  0.47931508891E+03  0.25500000000E-02 0. -1.
    5000001    1    1    2    0    0 -0.52908574718E+03 -0.67129356033E+02  0.23161552445E+03  0.61456068006E+03  0.19900000000E+03 0.  0.
   -5000001    1    1    2    0    0  0.52908574718E+03  0.67129356033E+02 -0.64046884999E+01  0.56928033371E+03  0.19900000000E+03 0.  0.
<mgrwt>
<rscale>  0 0.11622218E+04</rscale>
<asrwt>0</asrwt>
<pdfrwt beam="1">  1        2 0.10064656E+00 0.11622218E+04</pdfrwt>
<pdfrwt beam="2">  1       -2 0.68473584E-01 0.11622218E+04</pdfrwt>
<totfact> 0.86235825E+01</totfact>
</mgrwt>
</event>
<event>
 4    1  0.1724904E-005  0.4353831E+03  0.7818608E-02  0.1032173E+00
         -2   -1    0    0    0  501 -0.00000000000E+00  0.00000000000E+00  0.20015519619E+03  0.20015519621E+03  0.25500000000E-02 0. -1.
          2   -1    0    0  501    0  0.00000000000E+00 -0.00000000000E+00 -0.23676437507E+03  0.23676437508E+03  0.25500000000E-02 0.  1.
    5000001    1    1    2    0    0  0.42984022513E+02 -0.73652802060E+02  0.44969149130E+01  0.21654926388E+03  0.19900000000E+03 0.  0.
   -5000001    1    1    2    0    0 -0.42984022513E+02  0.73652802060E+02 -0.41106093784E+02  0.22037030741E+03  0.19900000000E+03 0.  0.
<mgrwt>
<rscale>  0 0.43538314E+03</rscale>
<asrwt>0</asrwt>
<pdfrwt beam="1">  1        2 0.33823482E-01 0.43538314E+03</pdfrwt>
<pdfrwt beam="2">  1       -2 0.28593599E-01 0.43538314E+03</pdfrwt>
<totfact> 0.17288097E+03</totfact>
</mgrwt>
</event>
<event>
 4    1  0.1724904E-005  0.7166713E+03  0.7818608E-02  0.9689139E-01
          2   -1    0    0  501    0  0.00000000000E+00  0.00000000000E+00  0.97250226343E+03  0.97250226343E+03  0.25500000000E-02 0.  1.
         -2   -1    0    0    0  501 -0.00000000000E+00 -0.00000000000E+00 -0.13203511943E+03  0.13203511946E+03  0.25500000000E-02 0. -1.
    5000001    1    1    2    0    0  0.17212582444E+03 -0.23200729136E+03  0.53295003088E+03  0.63803716044E+03  0.19900000000E+03 0.  0.
   -5000001    1    1    2    0    0 -0.17212582444E+03  0.23200729136E+03  0.30751711312E+03  0.46650022245E+03  0.19900000000E+03 0.  0.
<mgrwt>
<rscale>  0 0.71667134E+03</rscale>
<asrwt>0</asrwt>
<pdfrwt beam="1">  1        2 0.13892890E+00 0.71667134E+03</pdfrwt>
<pdfrwt beam="2">  1       -2 0.18862159E-01 0.71667134E+03</pdfrwt>
<totfact> 0.69341161E+02</totfact>
</mgrwt>
</event>
<event>
 4    1  0.1724904E-005  0.4435481E+03  0.7818608E-02  0.1029664E+00
          2   -1    0    0  501    0  0.00000000000E+00  0.00000000000E+00  0.40429336146E+03  0.40429336146E+03  0.25500000000E-02 0.  1.
         -2   -1    0    0    0  501 -0.00000000000E+00 -0.00000000000E+00 -0.12165357242E+03  0.12165357245E+03  0.25500000000E-02 0. -1.
    5000001    1    1    2    0    0 -0.23040391947E+02 -0.80981405996E+01  0.28913385210E+02  0.20256708367E+03  0.19900000000E+03 0.  0.
   -5000001    1    1    2    0    0  0.23040391947E+02  0.80981405996E+01  0.25372640383E+03  0.32337985024E+03  0.19900000000E+03 0.  0.
<mgrwt>
<rscale>  0 0.44354811E+03</rscale>
<asrwt>0</asrwt>
<pdfrwt beam="1">  1        2 0.57756195E-01 0.44354811E+03</pdfrwt>
<pdfrwt beam="2">  1       -2 0.17379082E-01 0.44354811E+03</pdfrwt>
<totfact> 0.23057687E+03</totfact>
</mgrwt>
</event>
<event>
 4    1  0.1724904E-005  0.6210057E+03  0.7818608E-02  0.9862759E-01
         -2   -1    0    0    0  501 -0.00000000000E+00  0.00000000000E+00  0.11735294332E+03  0.11735294335E+03  0.25500000000E-02 0. -1.
          2   -1    0    0  501    0  0.00000000000E+00 -0.00000000000E+00 -0.82155608648E+03  0.82155608648E+03  0.25500000000E-02 0.  1.
    5000001    1    1    2    0    0  0.13778409119E+03  0.15994772068E+03 -0.18480883399E+03  0.34398115392E+03  0.19900000000E+03 0.  0.
   -5000001    1    1    2    0    0 -0.13778409119E+03 -0.15994772068E+03 -0.51939430917E+03  0.59492787591E+03  0.19900000000E+03 0.  0.
<mgrwt>
<rscale>  0 0.62100572E+03</rscale>
<asrwt>0</asrwt>
<pdfrwt beam="1">  1        2 0.11736515E+00 0.62100572E+03</pdfrwt>
<pdfrwt beam="2">  1       -2 0.16764707E-01 0.62100572E+03</pdfrwt>
<totfact> 0.10673078E+03</totfact>
</mgrwt>
</event>
<event>
 4    1  0.1724904E-005  0.4453490E+03  0.7818608E-02  0.1029118E+00
         -2   -1    0    0    0  501 -0.00000000000E+00  0.00000000000E+00  0.22618384627E+03  0.22618384628E+03  0.25500000000E-02 0. -1.
          2   -1    0    0  501    0  0.00000000000E+00 -0.00000000000E+00 -0.21921961706E+03  0.21921961708E+03  0.25500000000E-02 0.  1.
    5000001    1    1    2    0    0  0.95100755291E+02  0.10378978679E+02 -0.25349509378E+02  0.22225092684E+03  0.19900000000E+03 0.  0.
   -5000001    1    1    2    0    0 -0.95100755291E+02 -0.10378978679E+02  0.32313738583E+02  0.22315253652E+03  0.19900000000E+03 0.  0.
<mgrwt>
<rscale>  0 0.44534901E+03</rscale>
<asrwt>0</asrwt>
<pdfrwt beam="1">  1        2 0.31317088E-01 0.44534901E+03</pdfrwt>
<pdfrwt beam="2">  1       -2 0.32311978E-01 0.44534901E+03</pdfrwt>
<totfact> 0.15038441E+03</totfact>
</mgrwt>
</event>
<event>
 4    1  0.1724904E-005  0.4570477E+03  0.7818608E-02  0.1025641E+00
         -2   -1    0    0    0  501 -0.00000000000E+00  0.00000000000E+00  0.17336255516E+03  0.17336255517E+03  0.25500000000E-02 0. -1.
          2   -1    0    0  501    0  0.00000000000E+00 -0.00000000000E+00 -0.30123668332E+03  0.30123668333E+03  0.25500000000E-02 0.  1.
    5000001    1    1    2    0    0 -0.11106922797E+03 -0.16890001194E+02 -0.64682685349E+02  0.23750051648E+03  0.19900000000E+03 0.  0.
   -5000001    1    1    2    0    0  0.11106922797E+03  0.16890001194E+02 -0.63191442814E+02  0.23709872203E+03  0.19900000000E+03 0.  0.
<mgrwt>
<rscale>  0 0.45704775E+03</rscale>
<asrwt>0</asrwt>
<pdfrwt beam="1">  1        2 0.43033812E-01 0.45704775E+03</pdfrwt>
<pdfrwt beam="2">  1       -2 0.24766080E-01 0.45704775E+03</pdfrwt>
<totfact> 0.17196591E+03</totfact>
</mgrwt>
</event>
<event>
 4    1  0.1724904E-005  0.4309237E+03  0.7818608E-02  0.1033569E+00
          2   -1    0    0  501    0  0.00000000000E+00  0.00000000000E+00  0.97759479444E+03  0.97759479445E+03  0.25500000000E-02 0.  1.
         -2   -1    0    0    0  501 -0.00000000000E+00 -0.00000000000E+00 -0.47487779682E+02  0.47487779751E+02  0.25500000000E-02 0. -1.
    5000001    1    1    2    0    0 -0.54166999095E+02 -0.61918007519E+02  0.48267958832E+03  0.52853428311E+03  0.19900000000E+03 0.  0.
   -5000001    1    1    2    0    0  0.54166999095E+02  0.61918007519E+02  0.44742742644E+03  0.49654829109E+03  0.19900000000E+03 0.  0.
<mgrwt>
<rscale>  0 0.43092369E+03</rscale>
<asrwt>0</asrwt>
<pdfrwt beam="1">  1        2 0.13965640E+00 0.43092369E+03</pdfrwt>
<pdfrwt beam="2">  1       -2 0.67839686E-02 0.43092369E+03</pdfrwt>
<totfact> 0.36955925E+03</totfact>
</mgrwt>
</event>
<event>
 4    1  0.1724904E-005  0.9918386E+03  0.7818608E-02  0.9317542E-01
         -2   -1    0    0    0  501 -0.00000000000E+00  0.00000000000E+00  0.12202543091E+04  0.12202543091E+04  0.25500000000E-02 0. -1.
          2   -1    0    0  501    0  0.00000000000E+00 -0.00000000000E+00 -0.20154483481E+03  0.20154483483E+03  0.25500000000E-02 0.  1.
    5000001    1    1    2    0    0  0.26451471716E+03  0.24453847982E+03  0.90601661737E+03  0.99510512744E+03  0.19900000000E+03 0.  0.
   -5000001    1    1    2    0    0 -0.26451471716E+03 -0.24453847982E+03  0.11269285691E+03  0.42669401648E+03  0.19900000000E+03 0.  0.
<mgrwt>
<rscale>  0 0.99183860E+03</rscale>
<asrwt>0</asrwt>
<pdfrwt beam="1">  1        2 0.28792118E-01 0.99183860E+03</pdfrwt>
<pdfrwt beam="2">  1       -2 0.17432205E+00 0.99183860E+03</pdfrwt>
<totfact> 0.37028133E+01</totfact>
</mgrwt>
</event>
<event>
 4    1  0.1724904E-005  0.6303327E+03  0.7818608E-02  0.9844400E-01
          2   -1    0    0  501    0  0.00000000000E+00  0.00000000000E+00  0.12218274377E+04  0.12218274377E+04  0.25500000000E-02 0.  1.
         -2   -1    0    0    0  501 -0.00000000000E+00 -0.00000000000E+00 -0.81296123178E+02  0.81296123218E+02  0.25500000000E-02 0. -1.
    5000001    1    1    2    0    0  0.21716056985E+03 -0.10557894483E+03  0.64825761381E+03  0.71982258964E+03  0.19900000000E+03 0.  0.
   -5000001    1    1    2    0    0 -0.21716056985E+03  0.10557894483E+03  0.49227370071E+03  0.58330097128E+03  0.19900000000E+03 0.  0.
<mgrwt>
<rscale>  0 0.63033272E+03</rscale>
<asrwt>0</asrwt>
<pdfrwt beam="1">  1        2 0.17454677E+00 0.63033272E+03</pdfrwt>
<pdfrwt beam="2">  1       -2 0.11613732E-01 0.63033272E+03</pdfrwt>
<totfact> 0.11248099E+03</totfact>
</mgrwt>
</event>
<event>
 4    1  0.1724904E-005  0.8633942E+03  0.7818608E-02  0.9472534E-01
          2   -1    0    0  501    0  0.00000000000E+00  0.00000000000E+00  0.32232474571E+04  0.32232474571E+04  0.25500000000E-02 0.  1.
         -2   -1    0    0    0  501 -0.00000000000E+00 -0.00000000000E+00 -0.57818201933E+02  0.57818201990E+02  0.25500000000E-02 0. -1.
    5000001    1    1    2    0    0 -0.36682369577E+03 -0.83757508441E+02  0.13090365529E+04  0.13765001419E+04  0.19900000000E+03 0.  0.
   -5000001    1    1    2    0    0  0.36682369577E+03  0.83757508441E+02  0.18563927023E+04  0.19045655172E+04  0.19900000000E+03 0.  0.
<mgrwt>
<rscale>  0 0.86339417E+03</rscale>
<asrwt>0</asrwt>
<pdfrwt beam="1">  1        2 0.46046395E+00 0.86339417E+03</pdfrwt>
<pdfrwt beam="2">  1       -2 0.82597427E-02 0.86339417E+03</pdfrwt>
<totfact> 0.17135689E+02</totfact>
</mgrwt>
</event>
<event>
 4    1  0.1724904E-005  0.4813543E+03  0.7818608E-02  0.1018764E+00
          2   -1    0    0  501    0  0.00000000000E+00  0.00000000000E+00  0.11430842901E+04  0.11430842901E+04  0.25500000000E-02 0.  1.
         -2   -1    0    0    0  501 -0.00000000000E+00 -0.00000000000E+00 -0.50674729796E+02  0.50674729860E+02  0.25500000000E-02 0. -1.
    5000001    1    1    2    0    0  0.76225307092E+02  0.11014002182E+03  0.59476252019E+03  0.64131472560E+03  0.19900000000E+03 0.  0.
   -5000001    1    1    2    0    0 -0.76225307092E+02 -0.11014002182E+03  0.49764704016E+03  0.55244429441E+03  0.19900000000E+03 0.  0.
<mgrwt>
<rscale>  0 0.48135429E+03</rscale>
<asrwt>0</asrwt>
<pdfrwt beam="1">  1        2 0.16329777E+00 0.48135429E+03</pdfrwt>
<pdfrwt beam="2">  1       -2 0.72392466E-02 0.48135429E+03</pdfrwt>
<totfact> 0.26701187E+03</totfact>
</mgrwt>
</event>
<event>
 4    1  0.1724904E-005  0.5349872E+03  0.7818608E-02  0.1005030E+00
          2   -1    0    0  501    0  0.00000000000E+00  0.00000000000E+00  0.37490083819E+03  0.37490083819E+03  0.25500000000E-02 0.  1.
         -2   -1    0    0    0  501 -0.00000000000E+00 -0.00000000000E+00 -0.19085797230E+03  0.19085797232E+03  0.25500000000E-02 0. -1.
    5000001    1    1    2    0    0  0.45152224413E+02  0.17295383865E+03  0.91762127256E+02  0.28279505242E+03  0.19900000000E+03 0.  0.
   -5000001    1    1    2    0    0 -0.45152224413E+02 -0.17295383865E+03  0.92280738625E+02  0.28296375810E+03  0.19900000000E+03 0.  0.
<mgrwt>
<rscale>  0 0.53498715E+03</rscale>
<asrwt>0</asrwt>
<pdfrwt beam="1">  1        2 0.53557263E-01 0.53498715E+03</pdfrwt>
<pdfrwt beam="2">  1       -2 0.27265425E-01 0.53498715E+03</pdfrwt>
<totfact> 0.11382677E+03</totfact>
</mgrwt>
</event>
<event>
 4    1  0.1724904E-005  0.8331834E+03  0.7818608E-02  0.9513190E-01
         -2   -1    0    0    0  501 -0.00000000000E+00  0.00000000000E+00  0.21497947573E+03  0.21497947574E+03  0.25500000000E-02 0. -1.
          2   -1    0    0  501    0  0.00000000000E+00 -0.00000000000E+00 -0.80728009848E+03  0.80728009849E+03  0.25500000000E-02 0.  1.
    5000001    1    1    2    0    0  0.36062458902E+03 -0.61527591384E+02 -0.30912993441E+03  0.51865022419E+03  0.19900000000E+03 0.  0.
   -5000001    1    1    2    0    0 -0.36062458902E+03  0.61527591384E+02 -0.28317068834E+03  0.50360935004E+03  0.19900000000E+03 0.  0.
<mgrwt>
<rscale>  0 0.83318342E+03</rscale>
<asrwt>0</asrwt>
<pdfrwt beam="1">  1        2 0.11532573E+00 0.83318342E+03</pdfrwt>
<pdfrwt beam="2">  1       -2 0.30711354E-01 0.83318342E+03</pdfrwt>
<totfact> 0.36936994E+02</totfact>
</mgrwt>
</event>
<event>
 4    1  0.1724904E-005  0.4177670E+03  0.7818608E-02  0.1037796E+00
          2   -1    0    0  501    0  0.00000000000E+00  0.00000000000E+00  0.20264680700E+03  0.20264680702E+03  0.25500000000E-02 0.  1.
         -2   -1    0    0    0  501 -0.00000000000E+00 -0.00000000000E+00 -0.21531214842E+03  0.21531214844E+03  0.25500000000E-02 0. -1.
    5000001    1    1    2    0    0 -0.22387593033E+02 -0.58887735790E+02  0.15671363350E+01  0.20874009118E+03  0.19900000000E+03 0.  0.
   -5000001    1    1    2    0    0  0.22387593033E+02  0.58887735790E+02 -0.14232477754E+02  0.20921886428E+03  0.19900000000E+03 0.  0.
<mgrwt>
<rscale>  0 0.41776701E+03</rscale>
<asrwt>0</asrwt>
<pdfrwt beam="1">  1        2 0.28949544E-01 0.41776701E+03</pdfrwt>
<pdfrwt beam="2">  1       -2 0.30758878E-01 0.41776701E+03</pdfrwt>
<totfact> 0.17968615E+03</totfact>
</mgrwt>
</event>
<event>
 4    1  0.1724904E-005  0.6951374E+03  0.7818608E-02  0.9725584E-01
          2   -1    0    0  501    0  0.00000000000E+00  0.00000000000E+00  0.27488841349E+03  0.27488841350E+03  0.25500000000E-02 0.  1.
         -2   -1    0    0    0  501 -0.00000000000E+00 -0.00000000000E+00 -0.43946563670E+03  0.43946563670E+03  0.25500000000E-02 0. -1.
    5000001    1    1    2    0    0 -0.11145373553E+03  0.15351079826E+02 -0.35133803216E+03  0.41916226411E+03  0.19900000000E+03 0.  0.
   -5000001    1    1    2    0    0  0.11145373553E+03 -0.15351079826E+02  0.18676080896E+03  0.29519178609E+03  0.19900000000E+03 0.  0.
<mgrwt>
<rscale>  0 0.69513743E+03</rscale>
<asrwt>0</asrwt>
<pdfrwt beam="1">  1        2 0.39269774E-01 0.69513743E+03</pdfrwt>
<pdfrwt beam="2">  1       -2 0.62780805E-01 0.69513743E+03</pdfrwt>
<totfact> 0.31202892E+02</totfact>
</mgrwt>
</event>
<event>
 4    1  0.1724904E-005  0.5876671E+03  0.7818608E-02  0.9931328E-01
         -2   -1    0    0    0  501 -0.00000000000E+00  0.00000000000E+00  0.20451294695E+03  0.20451294697E+03  0.25500000000E-02 0. -1.
          2   -1    0    0  501    0  0.00000000000E+00 -0.00000000000E+00 -0.42216471802E+03  0.42216471803E+03  0.25500000000E-02 0.  1.
    5000001    1    1    2    0    0  0.37267366226E+02 -0.53895166851E+02  0.11086851205E+03  0.23703664814E+03  0.19900000000E+03 0.  0.
   -5000001    1    1    2    0    0 -0.37267366226E+02  0.53895166851E+02 -0.32852028312E+03  0.38964101686E+03  0.19900000000E+03 0.  0.
<mgrwt>
<rscale>  0 0.58766708E+03</rscale>
<asrwt>0</asrwt>
<pdfrwt beam="1">  1        2 0.60309245E-01 0.58766708E+03</pdfrwt>
<pdfrwt beam="2">  1       -2 0.29216135E-01 0.58766708E+03</pdfrwt>
<totfact> 0.87916811E+02</totfact>
</mgrwt>
</event>
<event>
 4    1  0.1724904E-005  0.1478139E+04  0.7818608E-02  0.8899122E-01
         -2   -1    0    0    0  501 -0.00000000000E+00  0.00000000000E+00  0.17080073305E+03  0.17080073307E+03  0.25500000000E-02 0. -1.
          2   -1    0    0  501    0  0.00000000000E+00 -0.00000000000E+00 -0.31980160945E+04  0.31980160945E+04  0.25500000000E-02 0.  1.
    5000001    1    1    2    0    0 -0.22052569206E+02  0.50397823620E+03 -0.36918907449E+03  0.65603502277E+03  0.19900000000E+03 0.  0.
   -5000001    1    1    2    0    0  0.22052569206E+02 -0.50397823620E+03 -0.26580262870E+04  0.27127818048E+04  0.19900000000E+03 0.  0.
<mgrwt>
<rscale>  0 0.14781387E+04</rscale>
<asrwt>0</asrwt>
<pdfrwt beam="1">  1        2 0.45685941E+00 0.14781387E+04</pdfrwt>
<pdfrwt beam="2">  1       -2 0.24400107E-01 0.14781387E+04</pdfrwt>
<totfact> 0.26618193E+01</totfact>
</mgrwt>
</event>
<event>
 4    1  0.1724904E-005  0.8404105E+03  0.7818608E-02  0.9503299E-01
         -2   -1    0    0    0  501 -0.00000000000E+00  0.00000000000E+00  0.67156012479E+02  0.67156012527E+02  0.25500000000E-02 0. -1.
          2   -1    0    0  501    0  0.00000000000E+00 -0.00000000000E+00 -0.26292876079E+04  0.26292876079E+04  0.25500000000E-02 0.  1.
    5000001    1    1    2    0    0 -0.22859328109E+03 -0.29023176399E+03 -0.12106173650E+04  0.12812824706E+04  0.19900000000E+03 0.  0.
   -5000001    1    1    2    0    0  0.22859328109E+03  0.29023176399E+03 -0.13515142304E+04  0.14151611499E+04  0.19900000000E+03 0.  0.
<mgrwt>
<rscale>  0 0.84041055E+03</rscale>
<asrwt>0</asrwt>
<pdfrwt beam="1">  1        2 0.37561245E+00 0.84041055E+03</pdfrwt>
<pdfrwt beam="2">  1       -2 0.95937177E-02 0.84041055E+03</pdfrwt>
<totfact> 0.28404785E+02</totfact>
</mgrwt>
</event>
<event>
 4    1  0.1724904E-005  0.5948641E+03  0.7818608E-02  0.9916119E-01
          2   -1    0    0  501    0  0.00000000000E+00  0.00000000000E+00  0.20501334066E+03  0.20501334068E+03  0.25500000000E-02 0. -1.
         -2   -1    0    0    0  501 -0.00000000000E+00 -0.00000000000E+00 -0.43151255786E+03  0.43151255787E+03  0.25500000000E-02 0.  1.
    5000001    1    1    2    0    0 -0.16766788325E+03  0.14974297042E+02 -0.26656031800E+03  0.37281651221E+03  0.19900000000E+03 0.  0.
   -5000001    1    1    2    0    0  0.16766788325E+03 -0.14974297042E+02  0.40061100794E+02  0.26370938634E+03  0.19900000000E+03 0.  0.
<mgrwt>
<rscale>  0 0.59486412E+03</rscale>
<asrwt>0</asrwt>
<pdfrwt beam="1">  1        2 0.29287620E-01 0.59486412E+03</pdfrwt>
<pdfrwt beam="2">  1       -2 0.61644651E-01 0.59486412E+03</pdfrwt>
<totfact> 0.45116441E+02</totfact>
</mgrwt>
</event>
<event>
 4    1  0.1724904E-005  0.7722224E+03  0.7818608E-02  0.9601118E-01
          2   -1    0    0  501    0  0.00000000000E+00  0.00000000000E+00  0.16163678445E+04  0.16163678445E+04  0.25500000000E-02 0.  1.
         -2   -1    0    0    0  501 -0.00000000000E+00 -0.00000000000E+00 -0.92232625437E+02  0.92232625473E+02  0.25500000000E-02 0. -1.
    5000001    1    1    2    0    0 -0.27166257877E+03 -0.13907995915E+03  0.47926392196E+03  0.60202881877E+03  0.19900000000E+03 0.  0.
   -5000001    1    1    2    0    0  0.27166257877E+03  0.13907995915E+03  0.10448712971E+04  0.11065716512E+04  0.19900000000E+03 0.  0.
<mgrwt>
<rscale>  0 0.77222238E+03</rscale>
<asrwt>0</asrwt>
<pdfrwt beam="1">  1        2 0.23090970E+00 0.77222238E+03</pdfrwt>
<pdfrwt beam="2">  1       -2 0.13176089E-01 0.77222238E+03</pdfrwt>
<totfact> 0.55860723E+02</totfact>
</mgrwt>
</event>
<event>
 4    1  0.1724904E-005  0.8666663E+03  0.7818608E-02  0.9468237E-01
          2   -1    0    0  501    0  0.00000000000E+00  0.00000000000E+00  0.21919615936E+04  0.21919615936E+04  0.25500000000E-02 0.  1.
         -2   -1    0    0    0  501 -0.00000000000E+00 -0.00000000000E+00 -0.85666465156E+02  0.85666465194E+02  0.25500000000E-02 0. -1.
    5000001    1    1    2    0    0  0.30676119724E+03 -0.18956399988E+03  0.14071004671E+04  0.14661410801E+04  0.19900000000E+03 0.  0.
   -5000001    1    1    2    0    0 -0.30676119724E+03  0.18956399988E+03  0.69919466139E+03  0.81148697876E+03  0.19900000000E+03 0.  0.
<mgrwt>
<rscale>  0 0.86666626E+03</rscale>
<asrwt>0</asrwt>
<pdfrwt beam="1">  1        2 0.31313742E+00 0.86666626E+03</pdfrwt>
<pdfrwt beam="2">  1       -2 0.12238064E-01 0.86666626E+03</pdfrwt>
<totfact> 0.31947829E+02</totfact>
</mgrwt>
</event>
<event>
 4    1  0.1724904E-005  0.5879801E+03  0.7818608E-02  0.9930662E-01
         -2   -1    0    0    0  501 -0.00000000000E+00  0.00000000000E+00  0.16183354765E+03  0.16183354767E+03  0.25500000000E-02 0. -1.
          2   -1    0    0  501    0  0.00000000000E+00 -0.00000000000E+00 -0.53406822273E+03  0.53406822273E+03  0.25500000000E-02 0.  1.
    5000001    1    1    2    0    0  0.57535472473E+02  0.17845535409E+03 -0.58247695718E+02  0.27955399846E+03  0.19900000000E+03 0.  0.
   -5000001    1    1    2    0    0 -0.57535472473E+02 -0.17845535409E+03 -0.31398697936E+03  0.41634777195E+03  0.19900000000E+03 0.  0.
<mgrwt>
<rscale>  0 0.58798012E+03</rscale>
<asrwt>0</asrwt>
<pdfrwt beam="1">  1        2 0.76295460E-01 0.58798012E+03</pdfrwt>
<pdfrwt beam="2">  1       -2 0.23119078E-01 0.58798012E+03</pdfrwt>
<totfact> 0.10285245E+03</totfact>
</mgrwt>
</event>
<event>
 4    1  0.1724904E-005  0.1011768E+04  0.7818608E-02  0.9295731E-01
          2   -1    0    0  501    0  0.00000000000E+00  0.00000000000E+00  0.43514772800E+04  0.43514772800E+04  0.25500000000E-02 0.  1.
         -2   -1    0    0    0  501 -0.00000000000E+00 -0.00000000000E+00 -0.58811950712E+02  0.58811950767E+02  0.25500000000E-02 0. -1.
    5000001    1    1    2    0    0 -0.32941710457E+03  0.17238497238E+03  0.92826457427E+03  0.10195628119E+04  0.19900000000E+03 0.  0.
   -5000001    1    1    2    0    0  0.32941710457E+03 -0.17238497238E+03  0.33644007550E+04  0.33907264189E+04  0.19900000000E+03 0.  0.
<mgrwt>
<rscale>  0 0.10117685E+04</rscale>
<asrwt>0</asrwt>
<pdfrwt beam="1">  1        2 0.62163969E+00 0.10117685E+04</pdfrwt>
<pdfrwt beam="2">  1       -2 0.84017062E-02 0.10117685E+04</pdfrwt>
<totfact> 0.30591857E+01</totfact>
</mgrwt>
</event>
<event>
 4    1  0.1724904E-005  0.7671976E+03  0.7818608E-02  0.9608750E-01
          2   -1    0    0  501    0  0.00000000000E+00  0.00000000000E+00  0.13127849904E+04  0.13127849904E+04  0.25500000000E-02 0.  1.
         -2   -1    0    0    0  501 -0.00000000000E+00 -0.00000000000E+00 -0.11208845422E+03  0.11208845425E+03  0.25500000000E-02 0. -1.
    5000001    1    1    2    0    0 -0.30081394704E+03  0.13051656547E+03  0.60933927163E+03  0.72001316137E+03  0.19900000000E+03 0.  0.
   -5000001    1    1    2    0    0  0.30081394704E+03 -0.13051656547E+03  0.59135726453E+03  0.70486028325E+03  0.19900000000E+03 0.  0.
<mgrwt>
<rscale>  0 0.76719760E+03</rscale>
<asrwt>0</asrwt>
<pdfrwt beam="1">  1        2 0.18754069E+00 0.76719760E+03</pdfrwt>
<pdfrwt beam="2">  1       -2 0.16012638E-01 0.76719760E+03</pdfrwt>
<totfact> 0.58256399E+02</totfact>
</mgrwt>
</event>
<event>
 4    1  0.1724904E-005  0.5365192E+03  0.7818608E-02  0.1004663E+00
          2   -1    0    0  501    0  0.00000000000E+00  0.00000000000E+00  0.94913363907E+03  0.94913363907E+03  0.25500000000E-02 0.  1.
         -2   -1    0    0    0  501 -0.00000000000E+00 -0.00000000000E+00 -0.75819893172E+02  0.75819893215E+02  0.25500000000E-02 0. -1.
    5000001    1    1    2    0    0 -0.15987172518E+03 -0.80968995026E+02  0.46669686243E+03  0.53807240040E+03  0.19900000000E+03 0.  0.
   -5000001    1    1    2    0    0  0.15987172518E+03  0.80968995026E+02  0.40661688347E+03  0.48688113189E+03  0.19900000000E+03 0.  0.
<mgrwt>
<rscale>  0 0.53651919E+03</rscale>
<asrwt>0</asrwt>
<pdfrwt beam="1">  1        2 0.13559052E+00 0.53651919E+03</pdfrwt>
<pdfrwt beam="2">  1       -2 0.10831414E-01 0.53651919E+03</pdfrwt>
<totfact> 0.18257159E+03</totfact>
</mgrwt>
</event>
<event>
 4    1  0.1724904E-005  0.4994547E+03  0.7818608E-02  0.1013921E+00
         -2   -1    0    0    0  501 -0.00000000000E+00  0.00000000000E+00  0.12201636712E+03  0.12201636714E+03  0.25500000000E-02 0.  1.
          2   -1    0    0  501    0  0.00000000000E+00 -0.00000000000E+00 -0.51110966060E+03  0.51110966060E+03  0.25500000000E-02 0. -1.
    5000001    1    1    2    0    0  0.20266893395E+02  0.14534718709E+03 -0.15015785107E+03  0.28928348034E+03  0.19900000000E+03 0.  0.
   -5000001    1    1    2    0    0 -0.20266893395E+02 -0.14534718709E+03 -0.23893544241E+03  0.34384254740E+03  0.19900000000E+03 0.  0.
<mgrwt>
<rscale>  0 0.49945468E+03</rscale>
<asrwt>0</asrwt>
<pdfrwt beam="1">  1        2 0.73015665E-01 0.49945468E+03</pdfrwt>
<pdfrwt beam="2">  1       -2 0.17430910E-01 0.49945468E+03</pdfrwt>
<totfact> 0.17676407E+03</totfact>
</mgrwt>
</event>
<event>
 4    1  0.1724904E-005  0.4923164E+03  0.7818608E-02  0.1015804E+00
         -2   -1    0    0    0  501 -0.00000000000E+00  0.00000000000E+00  0.92559258829E+02  0.92559258864E+02  0.25500000000E-02 0. -1.
          2   -1    0    0  501    0  0.00000000000E+00 -0.00000000000E+00 -0.65464924414E+03  0.65464924415E+03  0.25500000000E-02 0.  1.
    5000001    1    1    2    0    0 -0.38003303090E+02  0.27174752601E+02 -0.48920315529E+03  0.53019189486E+03  0.19900000000E+03 0.  0.
   -5000001    1    1    2    0    0  0.38003303090E+02 -0.27174752601E+02 -0.72886830022E+02  0.21701660816E+03  0.19900000000E+03 0.  0.
<mgrwt>
<rscale>  0 0.49231636E+03</rscale>
<asrwt>0</asrwt>
<pdfrwt beam="1">  1        2 0.93521318E-01 0.49231636E+03</pdfrwt>
<pdfrwt beam="2">  1       -2 0.13222752E-01 0.49231636E+03</pdfrwt>
<totfact> 0.21086383E+03</totfact>
</mgrwt>
</event>
<event>
 4    1  0.1724904E-005  0.5310319E+03  0.7818608E-02  0.1005982E+00
          2   -1    0    0  501    0  0.00000000000E+00  0.00000000000E+00  0.98870515993E+03  0.98870515993E+03  0.25500000000E-02 0.  1.
         -2   -1    0    0    0  501 -0.00000000000E+00 -0.00000000000E+00 -0.71304090607E+02  0.71304090653E+02  0.25500000000E-02 0. -1.
    5000001    1    1    2    0    0 -0.17576286080E+03 -0.20226565792E+01  0.45665709872E+03  0.52823610269E+03  0.19900000000E+03 0.  0.
   -5000001    1    1    2    0    0  0.17576286080E+03  0.20226565792E+01  0.46074397060E+03  0.53177314789E+03  0.19900000000E+03 0.  0.
<mgrwt>
<rscale>  0 0.53103191E+03</rscale>
<asrwt>0</asrwt>
<pdfrwt beam="1">  1        2 0.14124358E+00 0.53103191E+03</pdfrwt>
<pdfrwt beam="2">  1       -2 0.10186299E-01 0.53103191E+03</pdfrwt>
<totfact> 0.19068896E+03</totfact>
</mgrwt>
</event>
<event>
 4    1  0.1724904E-005  0.4618578E+03  0.7818608E-02  0.1024244E+00
          2   -1    0    0  501    0  0.00000000000E+00  0.00000000000E+00  0.20516275410E+04  0.20516275410E+04  0.25500000000E-02 0.  1.
         -2   -1    0    0    0  501 -0.00000000000E+00 -0.00000000000E+00 -0.25993102777E+02  0.25993102902E+02  0.25500000000E-02 0. -1.
    5000001    1    1    2    0    0 -0.97915615533E+02 -0.61082136338E+01  0.13009391258E+04  0.13197228448E+04  0.19900000000E+03 0.  0.
   -5000001    1    1    2    0    0  0.97915615533E+02  0.61082136338E+01  0.72469531234E+03  0.75789779903E+03  0.19900000000E+03 0.  0.
<mgrwt>
<rscale>  0 0.46185784E+03</rscale>
<asrwt>0</asrwt>
<pdfrwt beam="1">  1        2 0.29308978E+00 0.46185784E+03</pdfrwt>
<pdfrwt beam="2">  1       -2 0.37132987E-02 0.46185784E+03</pdfrwt>
<totfact> 0.25439528E+03</totfact>
</mgrwt>
</event>
<event>
 4    1  0.1724904E-005  0.5174111E+03  0.7818608E-02  0.1009332E+00
          2   -1    0    0  501    0  0.00000000000E+00  0.00000000000E+00  0.73094639115E+03  0.73094639116E+03  0.25500000000E-02 0.  1.
         -2   -1    0    0    0  501 -0.00000000000E+00 -0.00000000000E+00 -0.91564262473E+02  0.91564262508E+02  0.25500000000E-02 0. -1.
    5000001    1    1    2    0    0 -0.20839035516E+02 -0.16397046005E+03  0.31548819196E+03  0.40798820625E+03  0.19900000000E+03 0.  0.
   -5000001    1    1    2    0    0  0.20839035516E+02  0.16397046005E+03  0.32389393672E+03  0.41452244742E+03  0.19900000000E+03 0.  0.
<mgrwt>
<rscale>  0 0.51741112E+03</rscale>
<asrwt>0</asrwt>
<pdfrwt beam="1">  1        2 0.10442091E+00 0.51741112E+03</pdfrwt>
<pdfrwt beam="2">  1       -2 0.13080609E-01 0.51741112E+03</pdfrwt>
<totfact> 0.18782675E+03</totfact>
</mgrwt>
</event>
<event>
 4    1  0.1724904E-005  0.5005436E+03  0.7818608E-02  0.1013637E+00
          2   -1    0    0  501    0  0.00000000000E+00  0.00000000000E+00  0.16463195804E+04  0.16463195804E+04  0.25500000000E-02 0.  1.
         -2   -1    0    0    0  501 -0.00000000000E+00 -0.00000000000E+00 -0.38046057831E+02  0.38046057917E+02  0.25500000000E-02 0. -1.
    5000001    1    1    2    0    0  0.70627235391E+02 -0.13409804130E+03  0.83115789394E+03  0.86798325774E+03  0.19900000000E+03 0.  0.
   -5000001    1    1    2    0    0 -0.70627235391E+02  0.13409804130E+03  0.77711562860E+03  0.81638238055E+03  0.19900000000E+03 0.  0.
<mgrwt>
<rscale>  0 0.50054358E+03</rscale>
<asrwt>0</asrwt>
<pdfrwt beam="1">  1        2 0.23518846E+00 0.50054358E+03</pdfrwt>
<pdfrwt beam="2">  1       -2 0.54351524E-02 0.50054358E+03</pdfrwt>
<totfact> 0.22583679E+03</totfact>
</mgrwt>
</event>
<event>
 4    1  0.1724904E-005  0.5100441E+03  0.7818608E-02  0.1011190E+00
          2   -1    0    0  501    0  0.00000000000E+00  0.00000000000E+00  0.13387161441E+04  0.13387161441E+04  0.25500000000E-02 0.  1.
         -2   -1    0    0    0  501 -0.00000000000E+00 -0.00000000000E+00 -0.48581065467E+02  0.48581065534E+02  0.25500000000E-02 0. -1.
    5000001    1    1    2    0    0 -0.41509688928E+02  0.11667508122E+03  0.91840784990E+03  0.94784498079E+03  0.19900000000E+03 0.  0.
   -5000001    1    1    2    0    0  0.41509688928E+02 -0.11667508122E+03  0.37172722872E+03  0.43945222883E+03  0.19900000000E+03 0.  0.
<mgrwt>
<rscale>  0 0.51004414E+03</rscale>
<asrwt>0</asrwt>
<pdfrwt beam="1">  1        2 0.19124517E+00 0.51004414E+03</pdfrwt>
<pdfrwt beam="2">  1       -2 0.69401521E-02 0.51004414E+03</pdfrwt>
<totfact> 0.22269059E+03</totfact>
</mgrwt>
</event>
<event>
 4    1  0.1724904E-005  0.5570387E+03  0.7818608E-02  0.9998778E-01
          2   -1    0    0  501    0  0.00000000000E+00  0.00000000000E+00  0.75477715331E+03  0.75477715332E+03  0.25500000000E-02 0.  1.
         -2   -1    0    0    0  501 -0.00000000000E+00 -0.00000000000E+00 -0.10277605092E+03  0.10277605095E+03  0.25500000000E-02 0. -1.
    5000001    1    1    2    0    0 -0.92290983915E+01  0.15990389880E+03  0.49685979275E+03  0.55868156114E+03  0.19900000000E+03 0.  0.
   -5000001    1    1    2    0    0  0.92290983915E+01 -0.15990389880E+03  0.15514130964E+03  0.29887164313E+03  0.19900000000E+03 0.  0.
<mgrwt>
<rscale>  0 0.55703865E+03</rscale>
<asrwt>0</asrwt>
<pdfrwt beam="1">  1        2 0.10782531E+00 0.55703865E+03</pdfrwt>
<pdfrwt beam="2">  1       -2 0.14682293E-01 0.55703865E+03</pdfrwt>
<totfact> 0.14887831E+03</totfact>
</mgrwt>
</event>
<event>
 4    1  0.1724904E-005  0.6641102E+03  0.7818608E-02  0.9780657E-01
          2   -1    0    0  501    0  0.00000000000E+00  0.00000000000E+00  0.18523980418E+04  0.18523980418E+04  0.25500000000E-02 0.  1.
         -2   -1    0    0    0  501 -0.00000000000E+00 -0.00000000000E+00 -0.59523166325E+02  0.59523166380E+02  0.25500000000E-02 0. -1.
    5000001    1    1    2    0    0  0.82052177142E+02  0.24840367354E+03  0.76071065328E+03  0.82868488752E+03  0.19900000000E+03 0.  0.
   -5000001    1    1    2    0    0 -0.82052177142E+02 -0.24840367354E+03  0.10321642222E+04  0.10832363207E+04  0.19900000000E+03 0.  0.
<mgrwt>
<rscale>  0 0.66411022E+03</rscale>
<asrwt>0</asrwt>
<pdfrwt beam="1">  1        2 0.26462833E+00 0.66411022E+03</pdfrwt>
<pdfrwt beam="2">  1       -2 0.85033083E-02 0.66411022E+03</pdfrwt>
<totfact> 0.87102993E+02</totfact>
</mgrwt>
</event>
<event>
 4    1  0.1724904E-005  0.7012094E+03  0.7818608E-02  0.9715166E-01
         -2   -1    0    0    0  501 -0.00000000000E+00  0.00000000000E+00  0.12529858193E+03  0.12529858195E+03  0.25500000000E-02 0. -1.
          2   -1    0    0  501    0  0.00000000000E+00 -0.00000000000E+00 -0.98104574590E+03  0.98104574590E+03  0.25500000000E-02 0.  1.
    5000001    1    1    2    0    0  0.32745579959E+02  0.12072046359E+03 -0.17421030881E+02  0.23569089005E+03  0.19900000000E+03 0.  0.
   -5000001    1    1    2    0    0 -0.32745579959E+02 -0.12072046359E+03 -0.83832613309E+03  0.87065343781E+03  0.19900000000E+03 0.  0.
<mgrwt>
<rscale>  0 0.70120936E+03</rscale>
<asrwt>0</asrwt>
<pdfrwt beam="1">  1        2 0.14014939E+00 0.70120936E+03</pdfrwt>
<pdfrwt beam="2">  1       -2 0.17899798E-01 0.70120936E+03</pdfrwt>
<totfact> 0.75025493E+02</totfact>
</mgrwt>
</event>
<event>
 4    1  0.1724904E-005  0.6024661E+03  0.7818608E-02  0.9900303E-01
          2   -1    0    0  501    0  0.00000000000E+00  0.00000000000E+00  0.15318119803E+03  0.15318119805E+03  0.25500000000E-02 0.  1.
         -2   -1    0    0    0  501 -0.00000000000E+00 -0.00000000000E+00 -0.59237908699E+03  0.59237908700E+03  0.25500000000E-02 0. -1.
    5000001    1    1    2    0    0  0.16294125460E+03  0.42096075610E+01 -0.41358798442E+03  0.48705604822E+03  0.19900000000E+03 0.  0.
   -5000001    1    1    2    0    0 -0.16294125460E+03 -0.42096075610E+01 -0.25609904542E+02  0.25850423683E+03  0.19900000000E+03 0.  0.
<mgrwt>
<rscale>  0 0.60246606E+03</rscale>
<asrwt>0</asrwt>
<pdfrwt beam="1">  1        2 0.21883029E-01 0.60246606E+03</pdfrwt>
<pdfrwt beam="2">  1       -2 0.84625583E-01 0.60246606E+03</pdfrwt>
<totfact> 0.31451199E+02</totfact>
</mgrwt>
</event>
<event>
 4    1  0.1724904E-005  0.6531616E+03  0.7818608E-02  0.9800865E-01
         -2   -1    0    0    0  501 -0.00000000000E+00  0.00000000000E+00  0.72321239132E+02  0.72321239177E+02  0.25500000000E-02 0. -1.
          2   -1    0    0  501    0  0.00000000000E+00 -0.00000000000E+00 -0.14747399089E+04  0.14747399089E+04  0.25500000000E-02 0.  1.
    5000001    1    1    2    0    0 -0.51608748234E+02 -0.25369396545E+03 -0.71416667536E+03  0.78527646800E+03  0.19900000000E+03 0.  0.
   -5000001    1    1    2    0    0  0.51608748234E+02  0.25369396545E+03 -0.68825199440E+03  0.76178468007E+03  0.19900000000E+03 0.  0.
<mgrwt>
<rscale>  0 0.65316160E+03</rscale>
<asrwt>0</asrwt>
<pdfrwt beam="1">  1        2 0.21067711E+00 0.65316160E+03</pdfrwt>
<pdfrwt beam="2">  1       -2 0.10331607E-01 0.65316160E+03</pdfrwt>
<totfact> 0.99396514E+02</totfact>
</mgrwt>
</event>
<event>
 4    1  0.1724904E-005  0.4825198E+03  0.7818608E-02  0.1018445E+00
         -2   -1    0    0    0  501 -0.00000000000E+00  0.00000000000E+00  0.91249058542E+02  0.91249058578E+02  0.25500000000E-02 0. -1.
          2   -1    0    0  501    0  0.00000000000E+00 -0.00000000000E+00 -0.63788418918E+03  0.63788418919E+03  0.25500000000E-02 0.  1.
    5000001    1    1    2    0    0 -0.13448335589E+03 -0.21393417400E+02 -0.28520445976E+03  0.37347829279E+03  0.19900000000E+03 0.  0.
   -5000001    1    1    2    0    0  0.13448335589E+03  0.21393417400E+02 -0.26143067088E+03  0.35565495497E+03  0.19900000000E+03 0.  0.
<mgrwt>
<rscale>  0 0.48251977E+03</rscale>
<asrwt>0</asrwt>
<pdfrwt beam="1">  1        2 0.91126310E-01 0.48251977E+03</pdfrwt>
<pdfrwt beam="2">  1       -2 0.13035580E-01 0.48251977E+03</pdfrwt>
<totfact> 0.22262877E+03</totfact>
</mgrwt>
</event>
<event>
 4    1  0.1724904E-005  0.8731436E+03  0.7818608E-02  0.9459790E-01
         -2   -1    0    0    0  501 -0.00000000000E+00  0.00000000000E+00  0.40357499711E+03  0.40357499712E+03  0.25500000000E-02 0. -1.
          2   -1    0    0  501    0  0.00000000000E+00 -0.00000000000E+00 -0.47226646613E+03  0.47226646614E+03  0.25500000000E-02 0.  1.
    5000001    1    1    2    0    0 -0.18291491404E+03 -0.34268821688E+03 -0.44419570723E+02  0.43871081367E+03  0.19900000000E+03 0.  0.
   -5000001    1    1    2    0    0  0.18291491404E+03  0.34268821688E+03 -0.24271898291E+02  0.43713064959E+03  0.19900000000E+03 0.  0.
<mgrwt>
<rscale>  0 0.87314360E+03</rscale>
<asrwt>0</asrwt>
<pdfrwt beam="1">  1        2 0.67466638E-01 0.87314360E+03</pdfrwt>
<pdfrwt beam="2">  1       -2 0.57653571E-01 0.87314360E+03</pdfrwt>
<totfact> 0.20283873E+02</totfact>
</mgrwt>
</event>
<event>
 4    1  0.1724904E-005  0.5038518E+03  0.7818608E-02  0.1012778E+00
          2   -1    0    0  501    0  0.00000000000E+00  0.00000000000E+00  0.28125248089E+03  0.28125248090E+03  0.25500000000E-02 0.  1.
         -2   -1    0    0    0  501 -0.00000000000E+00 -0.00000000000E+00 -0.22565727642E+03  0.22565727643E+03  0.25500000000E-02 0. -1.
    5000001    1    1    2    0    0  0.11296700894E+03  0.10184631492E+03  0.58809500303E+00  0.25047068257E+03  0.19900000000E+03 0.  0.
   -5000001    1    1    2    0    0 -0.11296700894E+03 -0.10184631492E+03  0.55007109471E+02  0.25643907476E+03  0.19900000000E+03 0.  0.
<mgrwt>
<rscale>  0 0.50385184E+03</rscale>
<asrwt>0</asrwt>
<pdfrwt beam="1">  1        2 0.40178926E-01 0.50385184E+03</pdfrwt>
<pdfrwt beam="2">  1       -2 0.32236754E-01 0.50385184E+03</pdfrwt>
<totfact> 0.11476255E+03</totfact>
</mgrwt>
</event>
<event>
 4    1  0.1724904E-005  0.6196445E+03  0.7818608E-02  0.9865468E-01
          2   -1    0    0  501    0  0.00000000000E+00  0.00000000000E+00  0.20291758842E+04  0.20291758842E+04  0.25500000000E-02 0.  1.
         -2   -1    0    0    0  501 -0.00000000000E+00 -0.00000000000E+00 -0.47304833132E+02  0.47304833201E+02  0.25500000000E-02 0. -1.
    5000001    1    1    2    0    0 -0.44093672987E+02 -0.22819655131E+03  0.82776462402E+03  0.88250393246E+03  0.19900000000E+03 0.  0.
   -5000001    1    1    2    0    0  0.44093672987E+02  0.22819655131E+03  0.11541064270E+04  0.11939767849E+04  0.19900000000E+03 0.  0.
<mgrwt>
<rscale>  0 0.61964450E+03</rscale>
<asrwt>0</asrwt>
<pdfrwt beam="1">  1        2 0.28988225E+00 0.61964450E+03</pdfrwt>
<pdfrwt beam="2">  1       -2 0.67578338E-02 0.61964450E+03</pdfrwt>
<totfact> 0.10250806E+03</totfact>
</mgrwt>
</event>
<event>
 4    1  0.1724904E-005  0.5296905E+03  0.7818608E-02  0.1006307E+00
         -2   -1    0    0    0  501 -0.00000000000E+00  0.00000000000E+00  0.31263219427E+02  0.31263219531E+02  0.25500000000E-02 0. -1.
          2   -1    0    0  501    0  0.00000000000E+00 -0.00000000000E+00 -0.22436267508E+04  0.22436267508E+04  0.25500000000E-02 0.  1.
    5000001    1    1    2    0    0 -0.88563969072E+02 -0.67794965566E+02 -0.52834567487E+03  0.57549099570E+03  0.19900000000E+03 0.  0.
   -5000001    1    1    2    0    0  0.88563969072E+02  0.67794965566E+02 -0.16840178565E+04  0.16993989746E+04  0.19900000000E+03 0.  0.
<mgrwt>
<rscale>  0 0.52969046E+03</rscale>
<asrwt>0</asrwt>
<pdfrwt beam="1">  1        2 0.32051800E+00 0.52969046E+03</pdfrwt>
<pdfrwt beam="2">  1       -2 0.44661756E-02 0.52969046E+03</pdfrwt>
<totfact> 0.15326788E+03</totfact>
</mgrwt>
</event>
<event>
 4    1  0.1724904E-005  0.8013643E+03  0.7818608E-02  0.9558044E-01
         -2   -1    0    0    0  501 -0.00000000000E+00  0.00000000000E+00  0.14249335366E+03  0.14249335369E+03  0.25500000000E-02 0. -1.
          2   -1    0    0  501    0  0.00000000000E+00 -0.00000000000E+00 -0.11266924188E+04  0.11266924188E+04  0.25500000000E-02 0.  1.
    5000001    1    1    2    0    0 -0.22278134051E+03  0.23005814619E+03 -0.70685761894E+03  0.80112856007E+03  0.19900000000E+03 0.  0.
   -5000001    1    1    2    0    0  0.22278134051E+03 -0.23005814619E+03 -0.27734144619E+03  0.46805721241E+03  0.19900000000E+03 0.  0.
<mgrwt>
<rscale>  0 0.80136429E+03</rscale>
<asrwt>0</asrwt>
<pdfrwt beam="1">  1        2 0.16095605E+00 0.80136429E+03</pdfrwt>
<pdfrwt beam="2">  1       -2 0.20356194E-01 0.80136429E+03</pdfrwt>
<totfact> 0.48895741E+02</totfact>
</mgrwt>
</event>
<event>
 4    1  0.1724904E-005  0.5483040E+03  0.7818608E-02  0.1001887E+00
          2   -1    0    0  501    0  0.00000000000E+00  0.00000000000E+00  0.82937967013E+03  0.82937967013E+03  0.25500000000E-02 0.  1.
         -2   -1    0    0    0  501 -0.00000000000E+00 -0.00000000000E+00 -0.90621118513E+02  0.90621118549E+02  0.25500000000E-02 0. -1.
    5000001    1    1    2    0    0 -0.16597631839E+03 -0.87202562815E+02  0.40318342412E+03  0.48714504895E+03  0.19900000000E+03 0.  0.
   -5000001    1    1    2    0    0  0.16597631839E+03  0.87202562815E+02  0.33557512750E+03  0.43285573973E+03  0.19900000000E+03 0.  0.
<mgrwt>
<rscale>  0 0.54830398E+03</rscale>
<asrwt>0</asrwt>
<pdfrwt beam="1">  1        2 0.11848281E+00 0.54830398E+03</pdfrwt>
<pdfrwt beam="2">  1       -2 0.12945875E-01 0.54830398E+03</pdfrwt>
<totfact> 0.16292061E+03</totfact>
</mgrwt>
</event>
<event>
 4    1  0.1724904E-005  0.9514436E+03  0.7818608E-02  0.9363465E-01
         -2   -1    0    0    0  501 -0.00000000000E+00  0.00000000000E+00  0.78416591453E+02  0.78416591494E+02  0.25500000000E-02 0. -1.
          2   -1    0    0  501    0  0.00000000000E+00 -0.00000000000E+00 -0.28860118679E+04  0.28860118679E+04  0.25500000000E-02 0.  1.
    5000001    1    1    2    0    0 -0.15821829619E+03 -0.38490009616E+03 -0.17662011527E+04  0.18254447746E+04  0.19900000000E+03 0.  0.
   -5000001    1    1    2    0    0  0.15821829619E+03  0.38490009616E+03 -0.10413941237E+04  0.11389836848E+04  0.19900000000E+03 0.  0.
<mgrwt>
<rscale>  0 0.95144356E+03</rscale>
<asrwt>0</asrwt>
<pdfrwt beam="1">  1        2 0.41228734E+00 0.95144356E+03</pdfrwt>
<pdfrwt beam="2">  1       -2 0.11202372E-01 0.95144356E+03</pdfrwt>
<totfact> 0.15925290E+02</totfact>
</mgrwt>
</event>
<event>
 4    1  0.1724904E-005  0.5671093E+03  0.7818608E-02  0.9976096E-01
         -2   -1    0    0    0  501 -0.00000000000E+00  0.00000000000E+00  0.12363727359E+03  0.12363727362E+03  0.25500000000E-02 0. -1.
          2   -1    0    0  501    0  0.00000000000E+00 -0.00000000000E+00 -0.65031555948E+03  0.65031555948E+03  0.25500000000E-02 0.  1.
    5000001    1    1    2    0    0  0.21289299609E+02 -0.19191572181E+03 -0.18240041288E+03  0.33189725696E+03  0.19900000000E+03 0.  0.
   -5000001    1    1    2    0    0 -0.21289299609E+02  0.19191572181E+03 -0.34427787300E+03  0.44205557614E+03  0.19900000000E+03 0.  0.
<mgrwt>
<rscale>  0 0.56710931E+03</rscale>
<asrwt>0</asrwt>
<pdfrwt beam="1">  1        2 0.92902221E-01 0.56710931E+03</pdfrwt>
<pdfrwt beam="2">  1       -2 0.17662468E-01 0.56710931E+03</pdfrwt>
<totfact> 0.13057999E+03</totfact>
</mgrwt>
</event>
<event>
 4    1  0.1724904E-005  0.8039965E+03  0.7818608E-02  0.9554250E-01
         -2   -1    0    0    0  501 -0.00000000000E+00  0.00000000000E+00  0.94485224470E+02  0.94485224504E+02  0.25500000000E-02 0. -1.
          2   -1    0    0  501    0  0.00000000000E+00 -0.00000000000E+00 -0.17103477866E+04  0.17103477866E+04  0.25500000000E-02 0.  1.
    5000001    1    1    2    0    0  0.11408036155E+03 -0.30844072544E+03 -0.54373141421E+03  0.66587901364E+03  0.19900000000E+03 0.  0.
   -5000001    1    1    2    0    0 -0.11408036155E+03  0.30844072544E+03 -0.10721311479E+04  0.11389539974E+04  0.19900000000E+03 0.  0.
<mgrwt>
<rscale>  0 0.80399650E+03</rscale>
<asrwt>0</asrwt>
<pdfrwt beam="1">  1        2 0.24433538E+00 0.80399650E+03</pdfrwt>
<pdfrwt beam="2">  1       -2 0.13497890E-01 0.80399650E+03</pdfrwt>
<totfact> 0.47908592E+02</totfact>
</mgrwt>
</event>
<event>
 4    1  0.1724904E-005  0.4531681E+03  0.7818608E-02  0.1026781E+00
         -2   -1    0    0    0  501 -0.00000000000E+00  0.00000000000E+00  0.32914632258E+02  0.32914632357E+02  0.25500000000E-02 0. -1.
          2   -1    0    0  501    0  0.00000000000E+00 -0.00000000000E+00 -0.15598028913E+04  0.15598028913E+04  0.25500000000E-02 0.  1.
    5000001    1    1    2    0    0 -0.73710471263E+02  0.48934436777E+02 -0.98325669094E+03  0.10070861596E+04  0.19900000000E+03 0.  0.
   -5000001    1    1    2    0    0  0.73710471263E+02 -0.48934436777E+02 -0.54363156810E+03  0.58563136401E+03  0.19900000000E+03 0.  0.
<mgrwt>
<rscale>  0 0.45316813E+03</rscale>
<asrwt>0</asrwt>
<pdfrwt beam="1">  1        2 0.22282894E+00 0.45316813E+03</pdfrwt>
<pdfrwt beam="2">  1       -2 0.47020913E-02 0.45316813E+03</pdfrwt>
<totfact> 0.31289302E+03</totfact>
</mgrwt>
</event>
<event>
 4    1  0.1724904E-005  0.8056260E+03  0.7818608E-02  0.9551909E-01
          2   -1    0    0  501    0  0.00000000000E+00  0.00000000000E+00  0.14273602542E+03  0.14273602544E+03  0.25500000000E-02 0.  1.
         -2   -1    0    0    0  501 -0.00000000000E+00 -0.00000000000E+00 -0.11367719357E+04  0.11367719357E+04  0.25500000000E-02 0. -1.
    5000001    1    1    2    0    0  0.56816535957E+02 -0.31539912462E+03 -0.72135917174E+03  0.81404224781E+03  0.19900000000E+03 0.  0.
   -5000001    1    1    2    0    0 -0.56816535957E+02  0.31539912462E+03 -0.27267673859E+03  0.46546571338E+03  0.19900000000E+03 0.  0.
<mgrwt>
<rscale>  0 0.80562599E+03</rscale>
<asrwt>0</asrwt>
<pdfrwt beam="1">  1        2 0.20390862E-01 0.80562599E+03</pdfrwt>
<pdfrwt beam="2">  1       -2 0.16239598E+00 0.80562599E+03</pdfrwt>
<totfact> 0.67818814E+01</totfact>
</mgrwt>
</event>
<event>
 4    1  0.1724904E-005  0.5929949E+03  0.7818608E-02  0.9920047E-01
          2   -1    0    0  501    0  0.00000000000E+00  0.00000000000E+00  0.68465995681E+03  0.68465995682E+03  0.25500000000E-02 0.  1.
         -2   -1    0    0    0  501 -0.00000000000E+00 -0.00000000000E+00 -0.12840057000E+03  0.12840057002E+03  0.25500000000E-02 0. -1.
    5000001    1    1    2    0    0  0.16711575735E+03  0.13551705486E+03  0.33971034655E+03  0.44866097230E+03  0.19900000000E+03 0.  0.
   -5000001    1    1    2    0    0 -0.16711575735E+03 -0.13551705486E+03  0.21654904026E+03  0.36439955454E+03  0.19900000000E+03 0.  0.
<mgrwt>
<rscale>  0 0.59299487E+03</rscale>
<asrwt>0</asrwt>
<pdfrwt beam="1">  1        2 0.97808565E-01 0.59299487E+03</pdfrwt>
<pdfrwt beam="2">  1       -2 0.18342939E-01 0.59299487E+03</pdfrwt>
<totfact> 0.11497877E+03</totfact>
</mgrwt>
</event>
<event>
 4    1  0.1724904E-005  0.6087299E+03  0.7818608E-02  0.9887458E-01
          2   -1    0    0  501    0  0.00000000000E+00  0.00000000000E+00  0.44082878391E+03  0.44082878392E+03  0.25500000000E-02 0.  1.
         -2   -1    0    0    0  501 -0.00000000000E+00 -0.00000000000E+00 -0.21014510596E+03  0.21014510598E+03  0.25500000000E-02 0. -1.
    5000001    1    1    2    0    0 -0.19284759928E+03 -0.12454352073E+03  0.95747450490E+02  0.31854333988E+03  0.19900000000E+03 0.  0.
   -5000001    1    1    2    0    0  0.19284759928E+03  0.12454352073E+03  0.13493622746E+03  0.33243055002E+03  0.19900000000E+03 0.  0.
<mgrwt>
<rscale>  0 0.60872986E+03</rscale>
<asrwt>0</asrwt>
<pdfrwt beam="1">  1        2 0.62975539E-01 0.60872986E+03</pdfrwt>
<pdfrwt beam="2">  1       -2 0.30020730E-01 0.60872986E+03</pdfrwt>
<totfact> 0.79654050E+02</totfact>
</mgrwt>
</event>
<event>
 4    1  0.1724904E-005  0.4561311E+03  0.7818608E-02  0.1025909E+00
          2   -1    0    0  501    0  0.00000000000E+00  0.00000000000E+00  0.38761497086E+03  0.38761497087E+03  0.25500000000E-02 0.  1.
         -2   -1    0    0    0  501 -0.00000000000E+00 -0.00000000000E+00 -0.13418959830E+03  0.13418959832E+03  0.25500000000E-02 0. -1.
    5000001    1    1    2    0    0  0.99340368772E+02  0.30389869397E+02  0.17276896256E+03  0.28327048461E+03  0.19900000000E+03 0.  0.
   -5000001    1    1    2    0    0 -0.99340368772E+02 -0.30389869397E+02  0.80656410005E+02  0.23853408458E+03  0.19900000000E+03 0.  0.
<mgrwt>
<rscale>  0 0.45613111E+03</rscale>
<asrwt>0</asrwt>
<pdfrwt beam="1">  1        2 0.55373568E-01 0.45613111E+03</pdfrwt>
<pdfrwt beam="2">  1       -2 0.19169942E-01 0.45613111E+03</pdfrwt>
<totfact> 0.20428556E+03</totfact>
</mgrwt>
</event>
<event>
 4    1  0.1724904E-005  0.4593711E+03  0.7818608E-02  0.1024964E+00
          2   -1    0    0  501    0  0.00000000000E+00  0.00000000000E+00  0.12992028408E+04  0.12992028408E+04  0.25500000000E-02 0.  1.
         -2   -1    0    0    0  501 -0.00000000000E+00 -0.00000000000E+00 -0.40606016103E+02  0.40606016183E+02  0.25500000000E-02 0. -1.
    5000001    1    1    2    0    0 -0.66596023651E+02  0.86003927038E+02  0.73537446627E+03  0.76955072053E+03  0.19900000000E+03 0.  0.
   -5000001    1    1    2    0    0  0.66596023651E+02 -0.86003927038E+02  0.52322235844E+03  0.57025813646E+03  0.19900000000E+03 0.  0.
<mgrwt>
<rscale>  0 0.45937110E+03</rscale>
<asrwt>0</asrwt>
<pdfrwt beam="1">  1        2 0.18560040E+00 0.45937110E+03</pdfrwt>
<pdfrwt beam="2">  1       -2 0.58008597E-02 0.45937110E+03</pdfrwt>
<totfact> 0.30963643E+03</totfact>
</mgrwt>
</event>
<event>
 4    1  0.1724904E-005  0.5131479E+03  0.7818608E-02  0.1010403E+00
          2   -1    0    0  501    0  0.00000000000E+00  0.00000000000E+00  0.82997027785E+03  0.82997027786E+03  0.25500000000E-02 0.  1.
         -2   -1    0    0    0  501 -0.00000000000E+00 -0.00000000000E+00 -0.79316323625E+02  0.79316323666E+02  0.25500000000E-02 0. -1.
    5000001    1    1    2    0    0  0.15881798614E+03 -0.90679936393E+01  0.32146905978E+03  0.41018134725E+03  0.19900000000E+03 0.  0.
   -5000001    1    1    2    0    0 -0.15881798614E+03  0.90679936393E+01  0.42918489444E+03  0.49910525428E+03  0.19900000000E+03 0.  0.
<mgrwt>
<rscale>  0 0.51314790E+03</rscale>
<asrwt>0</asrwt>
<pdfrwt beam="1">  1        2 0.11856718E+00 0.51314790E+03</pdfrwt>
<pdfrwt beam="2">  1       -2 0.11330903E-01 0.51314790E+03</pdfrwt>
<totfact> 0.20264290E+03</totfact>
</mgrwt>
</event>
<event>
 4    1  0.1724904E-005  0.7665795E+03  0.7818608E-02  0.9609693E-01
          2   -1    0    0  501    0  0.00000000000E+00  0.00000000000E+00  0.16382021390E+04  0.16382021390E+04  0.25500000000E-02 0.  1.
         -2   -1    0    0    0  501 -0.00000000000E+00 -0.00000000000E+00 -0.89678200234E+02  0.89678200271E+02  0.25500000000E-02 0. -1.
    5000001    1    1    2    0    0 -0.14746823088E+03 -0.28256765340E+03  0.94471458911E+03  0.10166995686E+04  0.19900000000E+03 0.  0.
   -5000001    1    1    2    0    0  0.14746823088E+03  0.28256765340E+03  0.60380934962E+03  0.71118077066E+03  0.19900000000E+03 0.  0.
<mgrwt>
<rscale>  0 0.76657947E+03</rscale>
<asrwt>0</asrwt>
<pdfrwt beam="1">  1        2 0.23402889E+00 0.76657947E+03</pdfrwt>
<pdfrwt beam="2">  1       -2 0.12811170E-01 0.76657947E+03</pdfrwt>
<totfact> 0.57054152E+02</totfact>
</mgrwt>
</event>
<event>
 4    1  0.1724904E-005  0.8548648E+03  0.7818608E-02  0.9483831E-01
          2   -1    0    0  501    0  0.00000000000E+00  0.00000000000E+00  0.57886786435E+03  0.57886786435E+03  0.25500000000E-02 0.  1.
         -2   -1    0    0    0  501 -0.00000000000E+00 -0.00000000000E+00 -0.31561343634E+03  0.31561343635E+03  0.25500000000E-02 0. -1.
    5000001    1    1    2    0    0 -0.13586113668E+03 -0.31828680892E+03  0.29145659939E+03  0.49427997179E+03  0.19900000000E+03 0.  0.
   -5000001    1    1    2    0    0  0.13586113668E+03  0.31828680892E+03 -0.28202171379E+02  0.40020132891E+03  0.19900000000E+03 0.  0.
<mgrwt>
<rscale>  0 0.85486485E+03</rscale>
<asrwt>0</asrwt>
<pdfrwt beam="1">  1        2 0.82695409E-01 0.85486485E+03</pdfrwt>
<pdfrwt beam="2">  1       -2 0.45087634E-01 0.85486485E+03</pdfrwt>
<totfact> 0.26514395E+02</totfact>
</mgrwt>
</event>
<event>
 4    1  0.1724904E-005  0.1052000E+04  0.7818608E-02  0.9253281E-01
          2   -1    0    0  501    0  0.00000000000E+00  0.00000000000E+00  0.26481235671E+03  0.26481235672E+03  0.25500000000E-02 0.  1.
         -2   -1    0    0    0  501 -0.00000000000E+00 -0.00000000000E+00 -0.10448008349E+04  0.10448008349E+04  0.25500000000E-02 0. -1.
    5000001    1    1    2    0    0  0.23175854646E+03 -0.32219077560E+03 -0.74112131764E+03  0.86393328863E+03  0.19900000000E+03 0.  0.
   -5000001    1    1    2    0    0 -0.23175854646E+03  0.32219077560E+03 -0.38867160515E+02  0.44567990296E+03  0.19900000000E+03 0.  0.
<mgrwt>
<rscale>  0 0.10520003E+04</rscale>
<asrwt>0</asrwt>
<pdfrwt beam="1">  1        2 0.37830337E-01 0.10520003E+04</pdfrwt>
<pdfrwt beam="2">  1       -2 0.14925726E+00 0.10520003E+04</pdfrwt>
<totfact> 0.41428281E+01</totfact>
</mgrwt>
</event>
<event>
 4    1  0.1724904E-005  0.4301649E+03  0.7818608E-02  0.1033808E+00
          2   -1    0    0  501    0  0.00000000000E+00  0.00000000000E+00  0.99532281044E+02  0.99532281077E+02  0.25500000000E-02 0.  1.
         -2   -1    0    0    0  501 -0.00000000000E+00 -0.00000000000E+00 -0.46477838524E+03  0.46477838525E+03  0.25500000000E-02 0. -1.
    5000001    1    1    2    0    0  0.62506911630E+02 -0.49928616204E+02 -0.20375447318E+03  0.29583249662E+03  0.19900000000E+03 0.  0.
   -5000001    1    1    2    0    0 -0.62506911630E+02  0.49928616204E+02 -0.16149163102E+03  0.26847816970E+03  0.19900000000E+03 0.  0.
<mgrwt>
<rscale>  0 0.43016487E+03</rscale>
<asrwt>0</asrwt>
<pdfrwt beam="1">  1        2 0.14218898E-01 0.43016487E+03</pdfrwt>
<pdfrwt beam="2">  1       -2 0.66396911E-01 0.43016487E+03</pdfrwt>
<totfact> 0.89479833E+02</totfact>
</mgrwt>
</event>
<event>
 4    1  0.1724904E-005  0.9330284E+03  0.7818608E-02  0.9385211E-01
          2   -1    0    0  501    0  0.00000000000E+00  0.00000000000E+00  0.74981632455E+03  0.74981632456E+03  0.25500000000E-02 0. -1.
         -2   -1    0    0    0  501 -0.00000000000E+00 -0.00000000000E+00 -0.29025172693E+03  0.29025172694E+03  0.25500000000E-02 0.  1.
    5000001    1    1    2    0    0  0.15520025788E+03  0.36758624832E+03  0.76826588818E+02  0.45244899685E+03  0.19900000000E+03 0.  0.
   -5000001    1    1    2    0    0 -0.15520025788E+03 -0.36758624832E+03  0.38273800881E+03  0.58761905465E+03  0.19900000000E+03 0.  0.
<mgrwt>
<rscale>  0 0.93302837E+03</rscale>
<asrwt>0</asrwt>
<pdfrwt beam="1">  1        2 0.10711662E+00 0.93302837E+03</pdfrwt>
<pdfrwt beam="2">  1       -2 0.41464533E-01 0.93302837E+03</pdfrwt>
<totfact> 0.22760645E+02</totfact>
</mgrwt>
</event>
<event>
 4    1  0.1724904E-005  0.5475364E+03  0.7818608E-02  0.1002066E+00
         -2   -1    0    0    0  501 -0.00000000000E+00  0.00000000000E+00  0.39328161959E+02  0.39328162041E+02  0.25500000000E-02 0. -1.
          2   -1    0    0  501    0  0.00000000000E+00 -0.00000000000E+00 -0.19057340657E+04  0.19057340657E+04  0.25500000000E-02 0.  1.
    5000001    1    1    2    0    0  0.16612970471E+03 -0.86763229211E+02 -0.88038317344E+03  0.92184731317E+03  0.19900000000E+03 0.  0.
   -5000001    1    1    2    0    0 -0.16612970471E+03  0.86763229211E+02 -0.98602273034E+03  0.10232149146E+04  0.19900000000E+03 0.  0.
<mgrwt>
<rscale>  0 0.54753637E+03</rscale>
<asrwt>0</asrwt>
<pdfrwt beam="1">  1        2 0.27224767E+00 0.54753637E+03</pdfrwt>
<pdfrwt beam="2">  1       -2 0.56183101E-02 0.54753637E+03</pdfrwt>
<totfact> 0.15849779E+03</totfact>
</mgrwt>
</event>
<event>
 4    1  0.1724904E-005  0.4401818E+03  0.7818608E-02  0.1030691E+00
          2   -1    0    0  501    0  0.00000000000E+00  0.00000000000E+00  0.10157601070E+04  0.10157601070E+04  0.25500000000E-02 0.  1.
         -2   -1    0    0    0  501 -0.00000000000E+00 -0.00000000000E+00 -0.47688438979E+02  0.47688439047E+02  0.25500000000E-02 0. -1.
    5000001    1    1    2    0    0 -0.82249699298E+02  0.24619797045E+02  0.57659674758E+03  0.61598373092E+03  0.19900000000E+03 0.  0.
   -5000001    1    1    2    0    0  0.82249699298E+02 -0.24619797045E+02  0.39147492042E+03  0.44746481511E+03  0.19900000000E+03 0.  0.
<mgrwt>
<rscale>  0 0.44018184E+03</rscale>
<asrwt>0</asrwt>
<pdfrwt beam="1">  1        2 0.14510860E+00 0.44018184E+03</pdfrwt>
<pdfrwt beam="2">  1       -2 0.68126337E-02 0.44018184E+03</pdfrwt>
<totfact> 0.34823449E+03</totfact>
</mgrwt>
</event>
<event>
 4    1  0.1724904E-005  0.9901932E+03  0.7818608E-02  0.9319367E-01
         -2   -1    0    0    0  501 -0.00000000000E+00  0.00000000000E+00  0.12208827604E+03  0.12208827607E+03  0.25500000000E-02 0. -1.
          2   -1    0    0  501    0  0.00000000000E+00 -0.00000000000E+00 -0.20077328096E+04  0.20077328097E+04  0.25500000000E-02 0.  1.
    5000001    1    1    2    0    0 -0.42328177720E+03 -0.15714513996E+03 -0.85525125171E+03  0.98737923893E+03  0.19900000000E+03 0.  0.
   -5000001    1    1    2    0    0  0.42328177720E+03  0.15714513996E+03 -0.10303932819E+04  0.11424418468E+04  0.19900000000E+03 0.  0.
<mgrwt>
<rscale>  0 0.99019319E+03</rscale>
<asrwt>0</asrwt>
<pdfrwt beam="1">  1        2 0.28681895E+00 0.99019319E+03</pdfrwt>
<pdfrwt beam="2">  1       -2 0.17441184E-01 0.99019319E+03</pdfrwt>
<totfact> 0.21589780E+02</totfact>
</mgrwt>
</event>
<event>
 4    1  0.1724904E-005  0.7916387E+03  0.7818608E-02  0.9572199E-01
         -2   -1    0    0    0  501 -0.00000000000E+00  0.00000000000E+00  0.10837250487E+03  0.10837250490E+03  0.25500000000E-02 0. -1.
          2   -1    0    0  501    0  0.00000000000E+00 -0.00000000000E+00 -0.14456891508E+04  0.14456891509E+04  0.25500000000E-02 0.  1.
    5000001    1    1    2    0    0 -0.31288930577E+03 -0.99524916728E+02 -0.85763641798E+03  0.93965214423E+03  0.19900000000E+03 0.  0.
   -5000001    1    1    2    0    0  0.31288930577E+03  0.99524916728E+02 -0.47968022800E+03  0.61440951152E+03  0.19900000000E+03 0.  0.
<mgrwt>
<rscale>  0 0.79163869E+03</rscale>
<asrwt>0</asrwt>
<pdfrwt beam="1">  1        2 0.20652701E+00 0.79163869E+03</pdfrwt>
<pdfrwt beam="2">  1       -2 0.15481787E-01 0.79163869E+03</pdfrwt>
<totfact> 0.52260544E+02</totfact>
</mgrwt>
</event>
<event>
 4    1  0.1724904E-005  0.8185488E+03  0.7818608E-02  0.9533550E-01
          2   -1    0    0  501    0  0.00000000000E+00  0.00000000000E+00  0.79072912298E+03  0.79072912298E+03  0.25500000000E-02 0.  1.
         -2   -1    0    0    0  501 -0.00000000000E+00 -0.00000000000E+00 -0.21183679803E+03  0.21183679805E+03  0.25500000000E-02 0. -1.
    5000001    1    1    2    0    0 -0.11214916709E+03 -0.26135138516E+03  0.55504210201E+03  0.65464090707E+03  0.19900000000E+03 0.  0.
   -5000001    1    1    2    0    0  0.11214916709E+03  0.26135138516E+03  0.23850222930E+02  0.34792501396E+03  0.19900000000E+03 0.  0.
<mgrwt>
<rscale>  0 0.81854878E+03</rscale>
<asrwt>0</asrwt>
<pdfrwt beam="1">  1        2 0.11296130E+00 0.81854878E+03</pdfrwt>
<pdfrwt beam="2">  1       -2 0.30262400E-01 0.81854878E+03</pdfrwt>
<totfact> 0.39013521E+02</totfact>
</mgrwt>
</event>
<event>
 4    1  0.1724904E-005  0.5418053E+03  0.7818608E-02  0.1003409E+00
         -2   -1    0    0    0  501 -0.00000000000E+00  0.00000000000E+00  0.10245259394E+03  0.10245259397E+03  0.25500000000E-02 0. -1.
          2   -1    0    0  501    0  0.00000000000E+00 -0.00000000000E+00 -0.71631414814E+03  0.71631414814E+03  0.25500000000E-02 0.  1.
    5000001    1    1    2    0    0 -0.16329658242E+03 -0.22352707946E+02 -0.18395889796E+03  0.31718652796E+03  0.19900000000E+03 0.  0.
   -5000001    1    1    2    0    0  0.16329658242E+03  0.22352707946E+02 -0.42990265624E+03  0.50158021415E+03  0.19900000000E+03 0.  0.
<mgrwt>
<rscale>  0 0.54180529E+03</rscale>
<asrwt>0</asrwt>
<pdfrwt beam="1">  1        2 0.10233059E+00 0.54180529E+03</pdfrwt>
<pdfrwt beam="2">  1       -2 0.14636085E-01 0.54180529E+03</pdfrwt>
<totfact> 0.15969634E+03</totfact>
</mgrwt>
</event>
<event>
 4    1  0.1724904E-005  0.6671955E+03  0.7818608E-02  0.9775038E-01
         -2   -1    0    0    0  501 -0.00000000000E+00  0.00000000000E+00  0.18178234443E+03  0.18178234445E+03  0.25500000000E-02 0. -1.
          2   -1    0    0  501    0  0.00000000000E+00 -0.00000000000E+00 -0.61220166882E+03  0.61220166882E+03  0.25500000000E-02 0.  1.
    5000001    1    1    2    0    0 -0.17507081374E+03  0.20021232550E+03 -0.17849780938E+03  0.37709048391E+03  0.19900000000E+03 0.  0.
   -5000001    1    1    2    0    0  0.17507081374E+03 -0.20021232550E+03 -0.25192151501E+03  0.41689352937E+03  0.19900000000E+03 0.  0.
<mgrwt>
<rscale>  0 0.66719549E+03</rscale>
<asrwt>0</asrwt>
<pdfrwt beam="1">  1        2 0.87457380E-01 0.66719549E+03</pdfrwt>
<pdfrwt beam="2">  1       -2 0.25968907E-01 0.66719549E+03</pdfrwt>
<totfact> 0.71117511E+02</totfact>
</mgrwt>
</event>
<event>
 4    1  0.1724904E-005  0.4780581E+03  0.7818608E-02  0.1019670E+00
         -2   -1    0    0    0  501 -0.00000000000E+00  0.00000000000E+00  0.34113878520E+03  0.34113878521E+03  0.25500000000E-02 0. -1.
          2   -1    0    0  501    0  0.00000000000E+00 -0.00000000000E+00 -0.16748284409E+03  0.16748284411E+03  0.25500000000E-02 0.  1.
    5000001    1    1    2    0    0  0.89650477129E+02  0.81440438106E+02  0.29888777058E+02  0.23487037276E+03  0.19900000000E+03 0.  0.
   -5000001    1    1    2    0    0 -0.89650477129E+02 -0.81440438106E+02  0.14376716405E+03  0.27375125656E+03  0.19900000000E+03 0.  0.
<mgrwt>
<rscale>  0 0.47805813E+03</rscale>
<asrwt>0</asrwt>
<pdfrwt beam="1">  1        2 0.23926121E-01 0.47805813E+03</pdfrwt>
<pdfrwt beam="2">  1       -2 0.48734111E-01 0.47805813E+03</pdfrwt>
<totfact> 0.92154535E+02</totfact>
</mgrwt>
</event>
<event>
 4    1  0.1724904E-005  0.7339912E+03  0.7818608E-02  0.9660806E-01
         -2   -1    0    0    0  501 -0.00000000000E+00  0.00000000000E+00  0.16410872364E+03  0.16410872366E+03  0.25500000000E-02 0. -1.
          2   -1    0    0  501    0  0.00000000000E+00 -0.00000000000E+00 -0.82071071546E+03  0.82071071547E+03  0.25500000000E-02 0.  1.
    5000001    1    1    2    0    0  0.25261843338E+03 -0.65705286471E+02 -0.10802993328E+03  0.34554988647E+03  0.19900000000E+03 0.  0.
   -5000001    1    1    2    0    0 -0.25261843338E+03  0.65705286471E+02 -0.54857205854E+03  0.63926955266E+03  0.19900000000E+03 0.  0.
<mgrwt>
<rscale>  0 0.73399125E+03</rscale>
<asrwt>0</asrwt>
<pdfrwt beam="1">  1        2 0.11724439E+00 0.73399125E+03</pdfrwt>
<pdfrwt beam="2">  1       -2 0.23444104E-01 0.73399125E+03</pdfrwt>
<totfact> 0.59370777E+02</totfact>
</mgrwt>
</event>
<event>
 4    1  0.1724904E-005  0.6886796E+03  0.7818608E-02  0.9736790E-01
         -2   -1    0    0    0  501 -0.00000000000E+00  0.00000000000E+00  0.17144144102E+03  0.17144144103E+03  0.25500000000E-02 0. -1.
          2   -1    0    0  501    0  0.00000000000E+00 -0.00000000000E+00 -0.69160580162E+03  0.69160580162E+03  0.25500000000E-02 0.  1.
    5000001    1    1    2    0    0 -0.14681243517E+03  0.12208987732E+03 -0.51846172997E+03  0.58725070856E+03  0.19900000000E+03 0.  0.
   -5000001    1    1    2    0    0  0.14681243517E+03 -0.12208987732E+03 -0.17026306310E+01  0.27579653409E+03  0.19900000000E+03 0.  0.
<mgrwt>
<rscale>  0 0.68867959E+03</rscale>
<asrwt>0</asrwt>
<pdfrwt beam="1">  1        2 0.98800828E-01 0.68867959E+03</pdfrwt>
<pdfrwt beam="2">  1       -2 0.24491635E-01 0.68867959E+03</pdfrwt>
<totfact> 0.68199764E+02</totfact>
</mgrwt>
</event>
<event>
 4    1  0.1724904E-005  0.5765338E+03  0.7818608E-02  0.9955324E-01
          2   -1    0    0  501    0  0.00000000000E+00  0.00000000000E+00  0.18639811348E+04  0.18639811348E+04  0.25500000000E-02 0.  1.
         -2   -1    0    0    0  501 -0.00000000000E+00 -0.00000000000E+00 -0.44580820142E+02  0.44580820215E+02  0.25500000000E-02 0. -1.
    5000001    1    1    2    0    0 -0.63438190973E+02 -0.19435603875E+03  0.77328348480E+03  0.82423723632E+03  0.19900000000E+03 0.  0.
   -5000001    1    1    2    0    0  0.63438190973E+02  0.19435603875E+03  0.10461168299E+04  0.10843247187E+04  0.19900000000E+03 0.  0.
<mgrwt>
<rscale>  0 0.57653381E+03</rscale>
<asrwt>0</asrwt>
<pdfrwt beam="1">  1        2 0.26628305E+00 0.57653381E+03</pdfrwt>
<pdfrwt beam="2">  1       -2 0.63686878E-02 0.57653381E+03</pdfrwt>
<totfact> 0.13654761E+03</totfact>
</mgrwt>
</event>
<event>
 4    1  0.1724904E-005  0.6982013E+03  0.7818608E-02  0.9720313E-01
         -2   -1    0    0    0  501 -0.00000000000E+00  0.00000000000E+00  0.14718252025E+03  0.14718252027E+03  0.25500000000E-02 0. -1.
          2   -1    0    0  501    0  0.00000000000E+00 -0.00000000000E+00 -0.82802806657E+03  0.82802806658E+03  0.25500000000E-02 0.  1.
    5000001    1    1    2    0    0 -0.12316619445E+03 -0.23502357106E+03 -0.49256095652E+03  0.59382092107E+03  0.19900000000E+03 0.  0.
   -5000001    1    1    2    0    0  0.12316619445E+03  0.23502357106E+03 -0.18828458980E+03  0.38138966578E+03  0.19900000000E+03 0.  0.
<mgrwt>
<rscale>  0 0.69820128E+03</rscale>
<asrwt>0</asrwt>
<pdfrwt beam="1">  1        2 0.11828972E+00 0.69820128E+03</pdfrwt>
<pdfrwt beam="2">  1       -2 0.21026075E-01 0.69820128E+03</pdfrwt>
<totfact> 0.71251291E+02</totfact>
</mgrwt>
</event>
<event>
 4    1  0.1724904E-005  0.4543788E+03  0.7818608E-02  0.1026424E+00
          2   -1    0    0  501    0  0.00000000000E+00  0.00000000000E+00  0.64752900732E+03  0.64752900732E+03  0.25500000000E-02 0.  1.
         -2   -1    0    0    0  501 -0.00000000000E+00 -0.00000000000E+00 -0.79710766199E+02  0.79710766240E+02  0.25500000000E-02 0. -1.
    5000001    1    1    2    0    0 -0.89979435921E+02  0.62469145518E+02  0.27764043649E+03  0.35872538941E+03  0.19900000000E+03 0.  0.
   -5000001    1    1    2    0    0  0.89979435921E+02 -0.62469145518E+02  0.29017780463E+03  0.36851438415E+03  0.19900000000E+03 0.  0.
<mgrwt>
<rscale>  0 0.45437884E+03</rscale>
<asrwt>0</asrwt>
<pdfrwt beam="1">  1        2 0.92504147E-01 0.45437884E+03</pdfrwt>
<pdfrwt beam="2">  1       -2 0.11387252E-01 0.45437884E+03</pdfrwt>
<totfact> 0.27283308E+03</totfact>
</mgrwt>
</event>
<event>
 4    1  0.1724904E-005  0.6626147E+03  0.7818608E-02  0.9783392E-01
         -2   -1    0    0    0  501 -0.00000000000E+00  0.00000000000E+00  0.54924887167E+02  0.54924887226E+02  0.25500000000E-02 0. -1.
          2   -1    0    0  501    0  0.00000000000E+00 -0.00000000000E+00 -0.19984485114E+04  0.19984485114E+04  0.25500000000E-02 0.  1.
    5000001    1    1    2    0    0 -0.31661955713E+01 -0.26458910738E+03 -0.93429996203E+03  0.99122895417E+03  0.19900000000E+03 0.  0.
   -5000001    1    1    2    0    0  0.31661955713E+01  0.26458910738E+03 -0.10092236622E+04  0.10621444445E+04  0.19900000000E+03 0.  0.
<mgrwt>
<rscale>  0 0.66261470E+03</rscale>
<asrwt>0</asrwt>
<pdfrwt beam="1">  1        2 0.28549260E+00 0.66261470E+03</pdfrwt>
<pdfrwt beam="2">  1       -2 0.78464137E-02 0.66261470E+03</pdfrwt>
<totfact> 0.83606722E+02</totfact>
</mgrwt>
</event>
<event>
 4    1  0.1724904E-005  0.5490667E+03  0.7818608E-02  0.1001710E+00
          2   -1    0    0  501    0  0.00000000000E+00  0.00000000000E+00  0.11793513531E+04  0.11793513531E+04  0.25500000000E-02 0.  1.
         -2   -1    0    0    0  501 -0.00000000000E+00 -0.00000000000E+00 -0.63906781832E+02  0.63906781883E+02  0.25500000000E-02 0. -1.
    5000001    1    1    2    0    0  0.11866586513E+03 -0.11384381364E+03  0.76923310911E+03  0.81139545082E+03  0.19900000000E+03 0.  0.
   -5000001    1    1    2    0    0 -0.11866586513E+03  0.11384381364E+03  0.34621146217E+03  0.43186268418E+03  0.19900000000E+03 0.  0.
<mgrwt>
<rscale>  0 0.54906666E+03</rscale>
<asrwt>0</asrwt>
<pdfrwt beam="1">  1        2 0.16847876E+00 0.54906666E+03</pdfrwt>
<pdfrwt beam="2">  1       -2 0.91295407E-02 0.54906666E+03</pdfrwt>
<totfact> 0.17599780E+03</totfact>
</mgrwt>
</event>
<event>
 4    1  0.1724904E-005  0.5031239E+03  0.7818608E-02  0.1012967E+00
         -2   -1    0    0    0  501 -0.00000000000E+00  0.00000000000E+00  0.60529118852E+02  0.60529118906E+02  0.25500000000E-02 0. -1.
          2   -1    0    0  501    0  0.00000000000E+00 -0.00000000000E+00 -0.10455035887E+04  0.10455035887E+04  0.25500000000E-02 0.  1.
    5000001    1    1    2    0    0 -0.31545917779E+02 -0.11248032942E+03 -0.27226494308E+03  0.35689798075E+03  0.19900000000E+03 0.  0.
   -5000001    1    1    2    0    0  0.31545917779E+02  0.11248032942E+03 -0.71270952677E+03  0.74913472686E+03  0.19900000000E+03 0.  0.
<mgrwt>
<rscale>  0 0.50312389E+03</rscale>
<asrwt>0</asrwt>
<pdfrwt beam="1">  1        2 0.14935764E+00 0.50312389E+03</pdfrwt>
<pdfrwt beam="2">  1       -2 0.86470176E-02 0.50312389E+03</pdfrwt>
<totfact> 0.22942921E+03</totfact>
</mgrwt>
</event>
<event>
 4    1  0.1724904E-005  0.4801093E+03  0.7818608E-02  0.1019105E+00
         -2   -1    0    0    0  501 -0.00000000000E+00  0.00000000000E+00  0.28047140807E+02  0.28047140923E+02  0.25500000000E-02 0. -1.
          2   -1    0    0  501    0  0.00000000000E+00 -0.00000000000E+00 -0.20546203522E+04  0.20546203522E+04  0.25500000000E-02 0.  1.
    5000001    1    1    2    0    0  0.25286278785E+02  0.13164836778E+03 -0.10453218993E+04  0.10725062059E+04  0.19900000000E+03 0.  0.
   -5000001    1    1    2    0    0 -0.25286278785E+02 -0.13164836778E+03 -0.98125131210E+03  0.10101612872E+04  0.19900000000E+03 0.  0.
<mgrwt>
<rscale>  0 0.48010926E+03</rscale>
<asrwt>0</asrwt>
<pdfrwt beam="1">  1        2 0.29351710E+00 0.48010926E+03</pdfrwt>
<pdfrwt beam="2">  1       -2 0.40067357E-02 0.48010926E+03</pdfrwt>
<totfact> 0.22559714E+03</totfact>
</mgrwt>
</event>
<event>
 4    1  0.1724904E-005  0.1055491E+04  0.7818608E-02  0.9249693E-01
         -2   -1    0    0    0  501 -0.00000000000E+00  0.00000000000E+00  0.14903801590E+03  0.14903801592E+03  0.25500000000E-02 0. -1.
          2   -1    0    0  501    0  0.00000000000E+00 -0.00000000000E+00 -0.18687529493E+04  0.18687529493E+04  0.25500000000E-02 0.  1.
    5000001    1    1    2    0    0 -0.48498944750E+03  0.29317091263E+02 -0.96173514014E+03  0.10957233847E+04  0.19900000000E+03 0.  0.
   -5000001    1    1    2    0    0  0.48498944750E+03 -0.29317091263E+02 -0.75797979323E+03  0.92206758048E+03  0.19900000000E+03 0.  0.
<mgrwt>
<rscale>  0 0.10554908E+04</rscale>
<asrwt>0</asrwt>
<pdfrwt beam="1">  1        2 0.26696469E+00 0.10554908E+04</pdfrwt>
<pdfrwt beam="2">  1       -2 0.21291146E-01 0.10554908E+04</pdfrwt>
<totfact> 0.17861566E+02</totfact>
</mgrwt>
</event>
<event>
 4    1  0.1724904E-005  0.7421578E+03  0.7818608E-02  0.9647735E-01
         -2   -1    0    0    0  501 -0.00000000000E+00  0.00000000000E+00  0.89679585009E+03  0.89679585009E+03  0.25500000000E-02 0. -1.
          2   -1    0    0  501    0  0.00000000000E+00 -0.00000000000E+00 -0.15354613134E+03  0.15354613136E+03  0.25500000000E-02 0.  1.
    5000001    1    1    2    0    0  0.23456219270E+03 -0.18391618363E+03  0.50776871152E+03  0.62150997517E+03  0.19900000000E+03 0.  0.
   -5000001    1    1    2    0    0 -0.23456219270E+03  0.18391618363E+03  0.23548100723E+03  0.42883200628E+03  0.19900000000E+03 0.  0.
<mgrwt>
<rscale>  0 0.74215776E+03</rscale>
<asrwt>0</asrwt>
<pdfrwt beam="1">  1        2 0.21935162E-01 0.74215776E+03</pdfrwt>
<pdfrwt beam="2">  1       -2 0.12811369E+00 0.74215776E+03</pdfrwt>
<totfact> 0.11606710E+02</totfact>
</mgrwt>
</event>
<event>
 4    1  0.1724904E-005  0.1092242E+04  0.7818608E-02  0.9212786E-01
         -2   -1    0    0    0  501 -0.00000000000E+00  0.00000000000E+00  0.25329333980E+03  0.25329333982E+03  0.25500000000E-02 0. -1.
          2   -1    0    0  501    0  0.00000000000E+00 -0.00000000000E+00 -0.11774816816E+04  0.11774816816E+04  0.25500000000E-02 0.  1.
    5000001    1    1    2    0    0 -0.95766491963E+02  0.39416061234E+03 -0.86395738686E+03  0.97496521764E+03  0.19900000000E+03 0.  0.
   -5000001    1    1    2    0    0  0.95766491963E+02 -0.39416061234E+03 -0.60230954963E+02  0.45580980380E+03  0.19900000000E+03 0.  0.
<mgrwt>
<rscale>  0 0.10922422E+04</rscale>
<asrwt>0</asrwt>
<pdfrwt beam="1">  1        2 0.16821167E+00 0.10922422E+04</pdfrwt>
<pdfrwt beam="2">  1       -2 0.36184763E-01 0.10922422E+04</pdfrwt>
<totfact> 0.15689643E+02</totfact>
</mgrwt>
</event>
<event>
 4    1  0.1724904E-005  0.5433889E+03  0.7818608E-02  0.1003036E+00
          2   -1    0    0  501    0  0.00000000000E+00  0.00000000000E+00  0.37669415788E+03  0.37669415789E+03  0.25500000000E-02 0.  1.
         -2   -1    0    0    0  501 -0.00000000000E+00 -0.00000000000E+00 -0.19596238908E+03  0.19596238910E+03  0.25500000000E-02 0. -1.
    5000001    1    1    2    0    0 -0.14912194530E+03 -0.94705928316E+02  0.14818743587E+03  0.30457689272E+03  0.19900000000E+03 0.  0.
   -5000001    1    1    2    0    0  0.14912194530E+03  0.94705928316E+02  0.32544332931E+02  0.26807965427E+03  0.19900000000E+03 0.  0.
<mgrwt>
<rscale>  0 0.54338895E+03</rscale>
<asrwt>0</asrwt>
<pdfrwt beam="1">  1        2 0.53813452E-01 0.54338895E+03</pdfrwt>
<pdfrwt beam="2">  1       -2 0.27994627E-01 0.54338895E+03</pdfrwt>
<totfact> 0.10791698E+03</totfact>
</mgrwt>
</event>
<event>
 4    1  0.1724904E-005  0.6926282E+03  0.7818608E-02  0.9729923E-01
         -2   -1    0    0    0  501 -0.00000000000E+00  0.00000000000E+00  0.25468499778E+03  0.25468499780E+03  0.25500000000E-02 0. -1.
          2   -1    0    0  501    0  0.00000000000E+00 -0.00000000000E+00 -0.47090899642E+03  0.47090899643E+03  0.25500000000E-02 0.  1.
    5000001    1    1    2    0    0  0.17548425687E+03 -0.64863597006E+02 -0.33115495145E+03  0.42926287109E+03  0.19900000000E+03 0.  0.
   -5000001    1    1    2    0    0 -0.17548425687E+03  0.64863597006E+02  0.11493095281E+03  0.29633112314E+03  0.19900000000E+03 0.  0.
<mgrwt>
<rscale>  0 0.69262820E+03</rscale>
<asrwt>0</asrwt>
<pdfrwt beam="1">  1        2 0.67272713E-01 0.69262820E+03</pdfrwt>
<pdfrwt beam="2">  1       -2 0.36383571E-01 0.69262820E+03</pdfrwt>
<totfact> 0.51433436E+02</totfact>
</mgrwt>
</event>
<event>
 4    1  0.1724904E-005  0.5223196E+03  0.7818608E-02  0.1008112E+00
          2   -1    0    0  501    0  0.00000000000E+00  0.00000000000E+00  0.32242085781E+03  0.32242085782E+03  0.25500000000E-02 0.  1.
         -2   -1    0    0    0  501 -0.00000000000E+00 -0.00000000000E+00 -0.21153854622E+03  0.21153854624E+03  0.25500000000E-02 0. -1.
    5000001    1    1    2    0    0 -0.13775684143E+03 -0.76312719334E+02 -0.76004330615E+01  0.25388845006E+03  0.19900000000E+03 0.  0.
   -5000001    1    1    2    0    0  0.13775684143E+03  0.76312719334E+02  0.11848274465E+03  0.28007095399E+03  0.19900000000E+03 0.  0.
<mgrwt>
<rscale>  0 0.52231959E+03</rscale>
<asrwt>0</asrwt>
<pdfrwt beam="1">  1        2 0.46060123E-01 0.52231959E+03</pdfrwt>
<pdfrwt beam="2">  1       -2 0.30219792E-01 0.52231959E+03</pdfrwt>
<totfact> 0.11133301E+03</totfact>
</mgrwt>
</event>
<event>
 4    1  0.1724904E-005  0.4600253E+03  0.7818608E-02  0.1024774E+00
         -2   -1    0    0    0  501 -0.00000000000E+00  0.00000000000E+00  0.24182859317E+02  0.24182859452E+02  0.25500000000E-02 0. -1.
          2   -1    0    0  501    0  0.00000000000E+00 -0.00000000000E+00 -0.21877399640E+04  0.21877399640E+04  0.25500000000E-02 0.  1.
    5000001    1    1    2    0    0  0.61167973362E+02  0.35446536958E+02 -0.15200124419E+04  0.15346129159E+04  0.19900000000E+03 0.  0.
   -5000001    1    1    2    0    0 -0.61167973362E+02 -0.35446536958E+02 -0.64354466276E+03  0.67730990759E+03  0.19900000000E+03 0.  0.
<mgrwt>
<rscale>  0 0.46002525E+03</rscale>
<asrwt>0</asrwt>
<pdfrwt beam="1">  1        2 0.31253415E+00 0.46002525E+03</pdfrwt>
<pdfrwt beam="2">  1       -2 0.34546956E-02 0.46002525E+03</pdfrwt>
<totfact> 0.24288707E+03</totfact>
</mgrwt>
</event>
<event>
 4    1  0.1724904E-005  0.5303444E+03  0.7818608E-02  0.1006149E+00
          2   -1    0    0  501    0  0.00000000000E+00  0.00000000000E+00  0.52939776625E+03  0.52939776625E+03  0.25500000000E-02 0.  1.
         -2   -1    0    0    0  501 -0.00000000000E+00 -0.00000000000E+00 -0.13282320435E+03  0.13282320437E+03  0.25500000000E-02 0. -1.
    5000001    1    1    2    0    0 -0.10973044057E+03  0.12990984205E+03  0.14534090340E+03  0.29940326460E+03  0.19900000000E+03 0.  0.
   -5000001    1    1    2    0    0  0.10973044057E+03 -0.12990984205E+03  0.25123365849E+03  0.36281770603E+03  0.19900000000E+03 0.  0.
<mgrwt>
<rscale>  0 0.53034445E+03</rscale>
<asrwt>0</asrwt>
<pdfrwt beam="1">  1        2 0.75628253E-01 0.53034445E+03</pdfrwt>
<pdfrwt beam="2">  1       -2 0.18974743E-01 0.53034445E+03</pdfrwt>
<totfact> 0.14683786E+03</totfact>
</mgrwt>
</event>
<event>
 4    1  0.1724904E-005  0.1042361E+04  0.7818608E-02  0.9263267E-01
          2   -1    0    0  501    0  0.00000000000E+00  0.00000000000E+00  0.14901942429E+04  0.14901942429E+04  0.25500000000E-02 0.  1.
         -2   -1    0    0    0  501 -0.00000000000E+00 -0.00000000000E+00 -0.18227758729E+03  0.18227758730E+03  0.25500000000E-02 0. -1.
    5000001    1    1    2    0    0  0.45316043257E+02  0.47780966541E+03  0.58834234191E+03  0.78492250027E+03  0.19900000000E+03 0.  0.
   -5000001    1    1    2    0    0 -0.45316043257E+02 -0.47780966541E+03  0.71957431371E+03  0.88754932994E+03  0.19900000000E+03 0.  0.
<mgrwt>
<rscale>  0 0.10423608E+04</rscale>
<asrwt>0</asrwt>
<pdfrwt beam="1">  1        2 0.21288488E+00 0.10423608E+04</pdfrwt>
<pdfrwt beam="2">  1       -2 0.26039657E-01 0.10423608E+04</pdfrwt>
<totfact> 0.19588212E+02</totfact>
</mgrwt>
</event>
<event>
 4    1  0.1724904E-005  0.5510950E+03  0.7818608E-02  0.1001241E+00
         -2   -1    0    0    0  501 -0.00000000000E+00  0.00000000000E+00  0.16016663346E+03  0.16016663348E+03  0.25500000000E-02 0. -1.
          2   -1    0    0  501    0  0.00000000000E+00 -0.00000000000E+00 -0.47404637854E+03  0.47404637855E+03  0.25500000000E-02 0.  1.
    5000001    1    1    2    0    0  0.16084726240E+03 -0.84705770056E+02 -0.22283397126E+03  0.34971829814E+03  0.19900000000E+03 0.  0.
   -5000001    1    1    2    0    0 -0.16084726240E+03  0.84705770056E+02 -0.91045773818E+02  0.28449471389E+03  0.19900000000E+03 0.  0.
<mgrwt>
<rscale>  0 0.55109496E+03</rscale>
<asrwt>0</asrwt>
<pdfrwt beam="1">  1        2 0.67720910E-01 0.55109496E+03</pdfrwt>
<pdfrwt beam="2">  1       -2 0.22880948E-01 0.55109496E+03</pdfrwt>
<totfact> 0.12000195E+03</totfact>
</mgrwt>
</event>
<event>
 4    1  0.1724904E-005  0.4603544E+03  0.7818608E-02  0.1024678E+00
         -2   -1    0    0    0  501 -0.00000000000E+00  0.00000000000E+00  0.83860627830E+02  0.83860627869E+02  0.25500000000E-02 0. -1.
          2   -1    0    0  501    0  0.00000000000E+00 -0.00000000000E+00 -0.63178100768E+03  0.63178100769E+03  0.25500000000E-02 0.  1.
    5000001    1    1    2    0    0 -0.10681853554E+03 -0.30107302047E+02 -0.22325478656E+03  0.31899897945E+03  0.19900000000E+03 0.  0.
   -5000001    1    1    2    0    0  0.10681853554E+03  0.30107302047E+02 -0.32466559330E+03  0.39664265610E+03  0.19900000000E+03 0.  0.
<mgrwt>
<rscale>  0 0.46035444E+03</rscale>
<asrwt>0</asrwt>
<pdfrwt beam="1">  1        2 0.90254427E-01 0.46035444E+03</pdfrwt>
<pdfrwt beam="2">  1       -2 0.11980090E-01 0.46035444E+03</pdfrwt>
<totfact> 0.25859858E+03</totfact>
</mgrwt>
</event>
<event>
 4    1  0.1724904E-005  0.5313576E+03  0.7818608E-02  0.1005903E+00
          2   -1    0    0  501    0  0.00000000000E+00  0.00000000000E+00  0.12948984868E+03  0.12948984870E+03  0.25500000000E-02 0.  1.
         -2   -1    0    0    0  501 -0.00000000000E+00 -0.00000000000E+00 -0.54510246584E+03  0.54510246584E+03  0.25500000000E-02 0. -1.
    5000001    1    1    2    0    0 -0.12950914327E+02  0.17271086334E+03 -0.16791155145E+03  0.31271721668E+03  0.19900000000E+03 0.  0.
   -5000001    1    1    2    0    0  0.12950914327E+02 -0.17271086334E+03 -0.24770106572E+03  0.36187509787E+03  0.19900000000E+03 0.  0.
<mgrwt>
<rscale>  0 0.53135764E+03</rscale>
<asrwt>0</asrwt>
<pdfrwt beam="1">  1        2 0.18498550E-01 0.53135764E+03</pdfrwt>
<pdfrwt beam="2">  1       -2 0.77871780E-01 0.53135764E+03</pdfrwt>
<totfact> 0.46183172E+02</totfact>
</mgrwt>
</event>
<event>
 4    1  0.1724904E-005  0.4609655E+03  0.7818608E-02  0.1024502E+00
          2   -1    0    0  501    0  0.00000000000E+00  0.00000000000E+00  0.89079567973E+03  0.89079567973E+03  0.25500000000E-02 0.  1.
         -2   -1    0    0    0  501 -0.00000000000E+00 -0.00000000000E+00 -0.59634662313E+02  0.59634662367E+02  0.25500000000E-02 0. -1.
    5000001    1    1    2    0    0 -0.74091576224E+02 -0.19162159954E+02  0.23507303784E+03  0.31735954872E+03  0.19900000000E+03 0.  0.
   -5000001    1    1    2    0    0  0.74091576224E+02  0.19162159954E+02  0.59608797958E+03  0.63307079339E+03  0.19900000000E+03 0.  0.
<mgrwt>
<rscale>  0 0.46096551E+03</rscale>
<asrwt>0</asrwt>
<pdfrwt beam="1">  1        2 0.12725653E+00 0.46096551E+03</pdfrwt>
<pdfrwt beam="2">  1       -2 0.85192369E-02 0.46096551E+03</pdfrwt>
<totfact> 0.29249934E+03</totfact>
</mgrwt>
</event>
<event>
 4    1  0.1724904E-005  0.6164783E+03  0.7818608E-02  0.9871796E-01
         -2   -1    0    0    0  501 -0.00000000000E+00  0.00000000000E+00  0.78761281961E+02  0.78761282002E+02  0.25500000000E-02 0. -1.
          2   -1    0    0  501    0  0.00000000000E+00 -0.00000000000E+00 -0.12063209781E+04  0.12063209781E+04  0.25500000000E-02 0.  1.
    5000001    1    1    2    0    0  0.20714221581E+03 -0.63029831972E+02 -0.37125768524E+03  0.47361791154E+03  0.19900000000E+03 0.  0.
   -5000001    1    1    2    0    0 -0.20714221581E+03  0.63029831972E+02 -0.75630201086E+03  0.81146434852E+03  0.19900000000E+03 0.  0.
<mgrwt>
<rscale>  0 0.61647834E+03</rscale>
<asrwt>0</asrwt>
<pdfrwt beam="1">  1        2 0.17233156E+00 0.61647834E+03</pdfrwt>
<pdfrwt beam="2">  1       -2 0.11251612E-01 0.61647834E+03</pdfrwt>
<totfact> 0.12091732E+03</totfact>
</mgrwt>
</event>
<event>
 4    1  0.1724904E-005  0.5922338E+03  0.7818608E-02  0.9921651E-01
          2   -1    0    0  501    0  0.00000000000E+00  0.00000000000E+00  0.12194405497E+04  0.12194405497E+04  0.25500000000E-02 0.  1.
         -2   -1    0    0    0  501 -0.00000000000E+00 -0.00000000000E+00 -0.71906093955E+02  0.71906094000E+02  0.25500000000E-02 0. -1.
    5000001    1    1    2    0    0 -0.48863853473E+02  0.21075855205E+03  0.65169762682E+03  0.71492491930E+03  0.19900000000E+03 0.  0.
   -5000001    1    1    2    0    0  0.48863853473E+02 -0.21075855205E+03  0.49583682892E+03  0.57642172440E+03  0.19900000000E+03 0.  0.
<mgrwt>
<rscale>  0 0.59223376E+03</rscale>
<asrwt>0</asrwt>
<pdfrwt beam="1">  1        2 0.17420579E+00 0.59223376E+03</pdfrwt>
<pdfrwt beam="2">  1       -2 0.10272299E-01 0.59223376E+03</pdfrwt>
<totfact> 0.13802176E+03</totfact>
</mgrwt>
</event>
<event>
 4    1  0.1724904E-005  0.8816903E+03  0.7818608E-02  0.9448763E-01
         -2   -1    0    0    0  501 -0.00000000000E+00  0.00000000000E+00  0.29440318329E+03  0.29440318330E+03  0.25500000000E-02 0.  1.
          2   -1    0    0  501    0  0.00000000000E+00 -0.00000000000E+00 -0.66013027470E+03  0.66013027470E+03  0.25500000000E-02 0. -1.
    5000001    1    1    2    0    0  0.49390268734E+02 -0.26408292047E+03 -0.49394287079E+03  0.59645598927E+03  0.19900000000E+03 0.  0.
   -5000001    1    1    2    0    0 -0.49390268734E+02  0.26408292047E+03  0.12821577938E+03  0.35807746873E+03  0.19900000000E+03 0.  0.
<mgrwt>
<rscale>  0 0.88169032E+03</rscale>
<asrwt>0</asrwt>
<pdfrwt beam="1">  1        2 0.94304324E-01 0.88169032E+03</pdfrwt>
<pdfrwt beam="2">  1       -2 0.42057598E-01 0.88169032E+03</pdfrwt>
<totfact> 0.25979400E+02</totfact>
</mgrwt>
</event>
<event>
 4    1  0.1724904E-005  0.5337973E+03  0.7818608E-02  0.1005315E+00
          2   -1    0    0  501    0  0.00000000000E+00  0.00000000000E+00  0.71899958530E+03  0.71899958531E+03  0.25500000000E-02 0.  1.
         -2   -1    0    0    0  501 -0.00000000000E+00 -0.00000000000E+00 -0.99075015229E+02  0.99075015261E+02  0.25500000000E-02 0. -1.
    5000001    1    1    2    0    0  0.17439900274E+03 -0.18261157577E+02  0.26435970350E+03  0.37448035312E+03  0.19900000000E+03 0.  0.
   -5000001    1    1    2    0    0 -0.17439900274E+03  0.18261157577E+02  0.35556486657E+03  0.44359424745E+03  0.19900000000E+03 0.  0.
<mgrwt>
<rscale>  0 0.53379732E+03</rscale>
<asrwt>0</asrwt>
<pdfrwt beam="1">  1        2 0.10271423E+00 0.53379732E+03</pdfrwt>
<pdfrwt beam="2">  1       -2 0.14153574E-01 0.53379732E+03</pdfrwt>
<totfact> 0.16813459E+03</totfact>
</mgrwt>
</event>
<event>
 4    1  0.1724904E-005  0.5366041E+03  0.7818608E-02  0.1004643E+00
          2   -1    0    0  501    0  0.00000000000E+00  0.00000000000E+00  0.65115298295E+03  0.65115298296E+03  0.25500000000E-02 0.  1.
         -2   -1    0    0    0  501 -0.00000000000E+00 -0.00000000000E+00 -0.11055156420E+03  0.11055156423E+03  0.25500000000E-02 0. -1.
    5000001    1    1    2    0    0 -0.38066122333E+02  0.14854487952E+03  0.40399210439E+03  0.47573651458E+03  0.19900000000E+03 0.  0.
   -5000001    1    1    2    0    0  0.38066122333E+02 -0.14854487952E+03  0.13660931436E+03  0.28596803260E+03  0.19900000000E+03 0.  0.
<mgrwt>
<rscale>  0 0.53660407E+03</rscale>
<asrwt>0</asrwt>
<pdfrwt beam="1">  1        2 0.93021850E-01 0.53660407E+03</pdfrwt>
<pdfrwt beam="2">  1       -2 0.15793081E-01 0.53660407E+03</pdfrwt>
<totfact> 0.15771957E+03</totfact>
</mgrwt>
</event>
<event>
 4    1  0.1724904E-005  0.5305427E+03  0.7818608E-02  0.1006101E+00
          2   -1    0    0  501    0  0.00000000000E+00  0.00000000000E+00  0.14915212878E+04  0.14915212878E+04  0.25500000000E-02 0.  1.
         -2   -1    0    0    0  501 -0.00000000000E+00 -0.00000000000E+00 -0.47179269214E+02  0.47179269283E+02  0.25500000000E-02 0. -1.
    5000001    1    1    2    0    0  0.82086840863E+02  0.10968847414E+03  0.10398507677E+04  0.10675487950E+04  0.19900000000E+03 0.  0.
   -5000001    1    1    2    0    0 -0.82086840863E+02 -0.10968847414E+03  0.40449125096E+03  0.47115176207E+03  0.19900000000E+03 0.  0.
<mgrwt>
<rscale>  0 0.53054268E+03</rscale>
<asrwt>0</asrwt>
<pdfrwt beam="1">  1        2 0.21307444E+00 0.53054268E+03</pdfrwt>
<pdfrwt beam="2">  1       -2 0.67398966E-02 0.53054268E+03</pdfrwt>
<totfact> 0.19364565E+03</totfact>
</mgrwt>
</event>
<event>
 4    1  0.1724904E-005  0.5177983E+03  0.7818608E-02  0.1009235E+00
         -2   -1    0    0    0  501 -0.00000000000E+00  0.00000000000E+00  0.21587542228E+03  0.21587542230E+03  0.25500000000E-02 0. -1.
          2   -1    0    0  501    0  0.00000000000E+00 -0.00000000000E+00 -0.31049743925E+03  0.31049743926E+03  0.25500000000E-02 0.  1.
    5000001    1    1    2    0    0 -0.75845106566E+02  0.12671071468E+03 -0.12351692528E+03  0.27688538465E+03  0.19900000000E+03 0.  0.
   -5000001    1    1    2    0    0  0.75845106566E+02 -0.12671071468E+03  0.28894908314E+02  0.24948747690E+03  0.19900000000E+03 0.  0.
<mgrwt>
<rscale>  0 0.51779828E+03</rscale>
<asrwt>0</asrwt>
<pdfrwt beam="1">  1        2 0.44356777E-01 0.51779828E+03</pdfrwt>
<pdfrwt beam="2">  1       -2 0.30839346E-01 0.51779828E+03</pdfrwt>
<totfact> 0.11177034E+03</totfact>
</mgrwt>
</event>
<event>
 4    1  0.1724904E-005  0.1483221E+04  0.7818608E-02  0.8895688E-01
          2   -1    0    0  501    0  0.00000000000E+00  0.00000000000E+00  0.33822009461E+03  0.33822009462E+03  0.25500000000E-02 0.  1.
         -2   -1    0    0    0  501 -0.00000000000E+00 -0.00000000000E+00 -0.16261181048E+04  0.16261181048E+04  0.25500000000E-02 0. -1.
    5000001    1    1    2    0    0  0.50986427388E+03 -0.48491588672E+03 -0.48024108123E+03  0.87483569376E+03  0.19900000000E+03 0.  0.
   -5000001    1    1    2    0    0 -0.50986427388E+03  0.48491588672E+03 -0.80765692900E+03  0.10895025057E+04  0.19900000000E+03 0.  0.
<mgrwt>
<rscale>  0 0.14832206E+04</rscale>
<asrwt>0</asrwt>
<pdfrwt beam="1">  1        2 0.48317157E-01 0.14832206E+04</pdfrwt>
<pdfrwt beam="2">  1       -2 0.23230258E+00 0.14832206E+04</pdfrwt>
<totfact> 0.83639050E+00</totfact>
</mgrwt>
</event>
<event>
 4    1  0.1724904E-005  0.4770258E+03  0.7818608E-02  0.1019956E+00
          2   -1    0    0  501    0  0.00000000000E+00  0.00000000000E+00  0.26016689681E+03  0.26016689682E+03  0.25500000000E-02 0.  1.
         -2   -1    0    0    0  501 -0.00000000000E+00 -0.00000000000E+00 -0.21866121719E+03  0.21866121721E+03  0.25500000000E-02 0. -1.
    5000001    1    1    2    0    0  0.10120376085E+03  0.83929888919E+02  0.21747984756E+02  0.23950031796E+03  0.19900000000E+03 0.  0.
   -5000001    1    1    2    0    0 -0.10120376085E+03 -0.83929888919E+02  0.19757694865E+02  0.23932779607E+03  0.19900000000E+03 0.  0.
<mgrwt>
<rscale>  0 0.47702583E+03</rscale>
<asrwt>0</asrwt>
<pdfrwt beam="1">  1        2 0.37166700E-01 0.47702583E+03</pdfrwt>
<pdfrwt beam="2">  1       -2 0.31237317E-01 0.47702583E+03</pdfrwt>
<totfact> 0.13255013E+03</totfact>
</mgrwt>
</event>
<event>
 4    1  0.1724904E-005  0.5345041E+03  0.7818608E-02  0.1005146E+00
          2   -1    0    0  501    0  0.00000000000E+00  0.00000000000E+00  0.31980593278E+04  0.31980593278E+04  0.25500000000E-02 0.  1.
         -2   -1    0    0    0  501 -0.00000000000E+00 -0.00000000000E+00 -0.22333433949E+02  0.22333434095E+02  0.25500000000E-02 0. -1.
    5000001    1    1    2    0    0 -0.15354813419E+03  0.55506862375E+02  0.11548743880E+04  0.11832133761E+04  0.19900000000E+03 0.  0.
   -5000001    1    1    2    0    0  0.15354813419E+03 -0.55506862375E+02  0.20208515059E+04  0.20371793859E+04  0.19900000000E+03 0.  0.
<mgrwt>
<rscale>  0 0.53450406E+03</rscale>
<asrwt>0</asrwt>
<pdfrwt beam="1">  1        2 0.45686584E+00 0.53450406E+03</pdfrwt>
<pdfrwt beam="2">  1       -2 0.31904890E-02 0.53450406E+03</pdfrwt>
<totfact> 0.80764581E+02</totfact>
</mgrwt>
</event>
<event>
 4    1  0.1724904E-005  0.9183204E+03  0.7818608E-02  0.9402965E-01
          2   -1    0    0  501    0  0.00000000000E+00  0.00000000000E+00  0.95944297436E+03  0.95944297437E+03  0.25500000000E-02 0.  1.
         -2   -1    0    0    0  501 -0.00000000000E+00 -0.00000000000E+00 -0.21974011317E+03  0.21974011318E+03  0.25500000000E-02 0. -1.
    5000001    1    1    2    0    0 -0.91286443728E+02  0.32373139796E+03  0.60362808495E+02  0.39544898721E+03  0.19900000000E+03 0.  0.
   -5000001    1    1    2    0    0  0.91286443728E+02 -0.32373139796E+03  0.67934005270E+03  0.78373410034E+03  0.19900000000E+03 0.  0.
<mgrwt>
<rscale>  0 0.91832044E+03</rscale>
<asrwt>0</asrwt>
<pdfrwt beam="1">  1        2 0.13706328E+00 0.91832044E+03</pdfrwt>
<pdfrwt beam="2">  1       -2 0.31391444E-01 0.91832044E+03</pdfrwt>
<totfact> 0.28019017E+02</totfact>
</mgrwt>
</event>
<event>
 4    1  0.1724904E-005  0.5597767E+03  0.7818608E-02  0.9992560E-01
          2   -1    0    0  501    0  0.00000000000E+00  0.00000000000E+00  0.14268233897E+03  0.14268233899E+03  0.25500000000E-02 0.  1.
         -2   -1    0    0    0  501 -0.00000000000E+00 -0.00000000000E+00 -0.54903417245E+03  0.54903417246E+03  0.25500000000E-02 0. -1.
    5000001    1    1    2    0    0  0.35788189776E+01 -0.91301253440E+02  0.12232487344E+02  0.21931566422E+03  0.19900000000E+03 0.  0.
   -5000001    1    1    2    0    0 -0.35788189776E+01  0.91301253440E+02 -0.41858432083E+03  0.47240084723E+03  0.19900000000E+03 0.  0.
<mgrwt>
<rscale>  0 0.55977667E+03</rscale>
<asrwt>0</asrwt>
<pdfrwt beam="1">  1        2 0.20383192E-01 0.55977667E+03</pdfrwt>
<pdfrwt beam="2">  1       -2 0.78433452E-01 0.55977667E+03</pdfrwt>
<totfact> 0.40548120E+02</totfact>
</mgrwt>
</event>
<event>
 4    1  0.1724904E-005  0.4850800E+03  0.7818608E-02  0.1017748E+00
          2   -1    0    0  501    0  0.00000000000E+00  0.00000000000E+00  0.56215243487E+03  0.56215243488E+03  0.25500000000E-02 0.  1.
         -2   -1    0    0    0  501 -0.00000000000E+00 -0.00000000000E+00 -0.10464358905E+03  0.10464358908E+03  0.25500000000E-02 0. -1.
    5000001    1    1    2    0    0  0.69564415000E+02 -0.63345885866E+02  0.88754957970E+02  0.23734016022E+03  0.19900000000E+03 0.  0.
   -5000001    1    1    2    0    0 -0.69564415000E+02  0.63345885866E+02  0.36875388785E+03  0.42945586373E+03  0.19900000000E+03 0.  0.
<mgrwt>
<rscale>  0 0.48507999E+03</rscale>
<asrwt>0</asrwt>
<pdfrwt beam="1">  1        2 0.80307489E-01 0.48507999E+03</pdfrwt>
<pdfrwt beam="2">  1       -2 0.14949084E-01 0.48507999E+03</pdfrwt>
<totfact> 0.20547705E+03</totfact>
</mgrwt>
</event>
<event>
 4    1  0.1724904E-005  0.5230400E+03  0.7818608E-02  0.1007934E+00
         -2   -1    0    0    0  501 -0.00000000000E+00  0.00000000000E+00  0.18472486393E+02  0.18472486569E+02  0.25500000000E-02 0. -1.
          2   -1    0    0  501    0  0.00000000000E+00 -0.00000000000E+00 -0.37024101909E+04  0.37024101909E+04  0.25500000000E-02 0.  1.
    5000001    1    1    2    0    0 -0.11506368738E+02  0.10866265409E+03 -0.27654617973E+04  0.27747648407E+04  0.19900000000E+03 0.  0.
   -5000001    1    1    2    0    0  0.11506368738E+02 -0.10866265409E+03 -0.91847590724E+03  0.94611783679E+03  0.19900000000E+03 0.  0.
<mgrwt>
<rscale>  0 0.52304005E+03</rscale>
<asrwt>0</asrwt>
<pdfrwt beam="1">  1        2 0.52891527E+00 0.52304005E+03</pdfrwt>
<pdfrwt beam="2">  1       -2 0.26389290E-02 0.52304005E+03</pdfrwt>
<totfact> 0.54541262E+02</totfact>
</mgrwt>
</event>
<event>
 4    1  0.1724904E-005  0.6126827E+03  0.7818608E-02  0.9879437E-01
         -2   -1    0    0    0  501 -0.00000000000E+00  0.00000000000E+00  0.14082045411E+03  0.14082045414E+03  0.25500000000E-02 0.  1.
          2   -1    0    0  501    0  0.00000000000E+00 -0.00000000000E+00 -0.66641607469E+03  0.66641607470E+03  0.25500000000E-02 0. -1.
    5000001    1    1    2    0    0 -0.18053659151E+03  0.14559063989E+03 -0.29086858379E+03  0.42189528124E+03  0.19900000000E+03 0.  0.
   -5000001    1    1    2    0    0  0.18053659151E+03 -0.14559063989E+03 -0.23472703679E+03  0.38534124759E+03  0.19900000000E+03 0.  0.
<mgrwt>
<rscale>  0 0.61268267E+03</rscale>
<asrwt>0</asrwt>
<pdfrwt beam="1">  1        2 0.95202295E-01 0.61268267E+03</pdfrwt>
<pdfrwt beam="2">  1       -2 0.20117208E-01 0.61268267E+03</pdfrwt>
<totfact> 0.10120853E+03</totfact>
</mgrwt>
</event>
<event>
 4    1  0.1724904E-005  0.5865565E+03  0.7818608E-02  0.9933696E-01
          2   -1    0    0  501    0  0.00000000000E+00  0.00000000000E+00  0.47315713288E+03  0.47315713289E+03  0.25500000000E-02 0.  1.
         -2   -1    0    0    0  501 -0.00000000000E+00 -0.00000000000E+00 -0.18178344869E+03  0.18178344871E+03  0.25500000000E-02 0. -1.
    5000001    1    1    2    0    0 -0.21149142839E+03  0.50094162612E+01  0.19114459015E+03  0.34769379183E+03  0.19900000000E+03 0.  0.
   -5000001    1    1    2    0    0  0.21149142839E+03 -0.50094162612E+01  0.10022909404E+03  0.30724678977E+03  0.19900000000E+03 0.  0.
<mgrwt>
<rscale>  0 0.58655651E+03</rscale>
<asrwt>0</asrwt>
<pdfrwt beam="1">  1        2 0.67593875E-01 0.58655651E+03</pdfrwt>
<pdfrwt beam="2">  1       -2 0.25969064E-01 0.58655651E+03</pdfrwt>
<totfact> 0.95884237E+02</totfact>
</mgrwt>
</event>
<event>
 4    1  0.1724904E-005  0.7247692E+03  0.7818608E-02  0.9675787E-01
         -2   -1    0    0    0  501 -0.00000000000E+00  0.00000000000E+00  0.12803916939E+03  0.12803916942E+03  0.25500000000E-02 0. -1.
          2   -1    0    0  501    0  0.00000000000E+00 -0.00000000000E+00 -0.10256439458E+04  0.10256439458E+04  0.25500000000E-02 0.  1.
    5000001    1    1    2    0    0  0.29111374318E+02  0.26192275128E+03 -0.68635114247E+03  0.76166258312E+03  0.19900000000E+03 0.  0.
   -5000001    1    1    2    0    0 -0.29111374318E+02 -0.26192275128E+03 -0.21125363397E+03  0.39202053214E+03  0.19900000000E+03 0.  0.
<mgrwt>
<rscale>  0 0.72476920E+03</rscale>
<asrwt>0</asrwt>
<pdfrwt beam="1">  1        2 0.14652056E+00 0.72476920E+03</pdfrwt>
<pdfrwt beam="2">  1       -2 0.18291310E-01 0.72476920E+03</pdfrwt>
<totfact> 0.67820705E+02</totfact>
</mgrwt>
</event>
<event>
 4    1  0.1724904E-005  0.8366180E+03  0.7818608E-02  0.9508476E-01
         -2   -1    0    0    0  501 -0.00000000000E+00  0.00000000000E+00  0.15132211299E+03  0.15132211301E+03  0.25500000000E-02 0. -1.
          2   -1    0    0  501    0  0.00000000000E+00 -0.00000000000E+00 -0.11563573178E+04  0.11563573178E+04  0.25500000000E-02 0.  1.
    5000001    1    1    2    0    0 -0.26735407537E+03 -0.15617489672E+03 -0.19181702832E+03  0.41504647009E+03  0.19900000000E+03 0.  0.
   -5000001    1    1    2    0    0  0.26735407537E+03  0.15617489672E+03 -0.81321817647E+03  0.89263296070E+03  0.19900000000E+03 0.  0.
<mgrwt>
<rscale>  0 0.83661803E+03</rscale>
<asrwt>0</asrwt>
<pdfrwt beam="1">  1        2 0.16519390E+00 0.83661803E+03</pdfrwt>
<pdfrwt beam="2">  1       -2 0.21617445E-01 0.83661803E+03</pdfrwt>
<totfact> 0.42212341E+02</totfact>
</mgrwt>
</event>
<event>
 4    1  0.1724904E-005  0.8090312E+03  0.7818608E-02  0.9547036E-01
          2   -1    0    0  501    0  0.00000000000E+00  0.00000000000E+00  0.35875198886E+03  0.35875198887E+03  0.25500000000E-02 0.  1.
         -2   -1    0    0    0  501 -0.00000000000E+00 -0.00000000000E+00 -0.45611701246E+03  0.45611701247E+03  0.25500000000E-02 0. -1.
    5000001    1    1    2    0    0 -0.25074906626E+03 -0.24482713382E+03 -0.83812049948E+02  0.41163197082E+03  0.19900000000E+03 0.  0.
   -5000001    1    1    2    0    0  0.25074906626E+03  0.24482713382E+03 -0.13552973656E+02  0.40323703052E+03  0.19900000000E+03 0.  0.
<mgrwt>
<rscale>  0 0.80903124E+03</rscale>
<asrwt>0</asrwt>
<pdfrwt beam="1">  1        2 0.51250284E-01 0.80903124E+03</pdfrwt>
<pdfrwt beam="2">  1       -2 0.65159573E-01 0.80903124E+03</pdfrwt>
<totfact> 0.21363232E+02</totfact>
</mgrwt>
</event>
<event>
 4    1  0.1724904E-005  0.4193534E+03  0.7818608E-02  0.1037277E+00
          2   -1    0    0  501    0  0.00000000000E+00  0.00000000000E+00  0.26129149467E+04  0.26129149467E+04  0.25500000000E-02 0.  1.
         -2   -1    0    0    0  501 -0.00000000000E+00 -0.00000000000E+00 -0.16825772490E+02  0.16825772684E+02  0.25500000000E-02 0. -1.
    5000001    1    1    2    0    0  0.79057146869E+01 -0.47563159003E+02  0.10149090671E+04  0.10353579907E+04  0.19900000000E+03 0.  0.
   -5000001    1    1    2    0    0 -0.79057146869E+01  0.47563159003E+02  0.15811801070E+04  0.15943827286E+04  0.19900000000E+03 0.  0.
<mgrwt>
<rscale>  0 0.41935337E+03</rscale>
<asrwt>0</asrwt>
<pdfrwt beam="1">  1        2 0.37327358E+00 0.41935337E+03</pdfrwt>
<pdfrwt beam="2">  1       -2 0.24036817E-02 0.41935337E+03</pdfrwt>
<totfact> 0.25658628E+03</totfact>
</mgrwt>
</event>
<event>
 4    1  0.1724904E-005  0.6156998E+03  0.7818608E-02  0.9873359E-01
         -2   -1    0    0    0  501 -0.00000000000E+00  0.00000000000E+00  0.15405922752E+03  0.15405922755E+03  0.25500000000E-02 0. -1.
          2   -1    0    0  501    0  0.00000000000E+00 -0.00000000000E+00 -0.61516323449E+03  0.61516323450E+03  0.25500000000E-02 0.  1.
    5000001    1    1    2    0    0 -0.98636300551E+01  0.11235713560E+03  0.26853273430E+02  0.23031177871E+03  0.19900000000E+03 0.  0.
   -5000001    1    1    2    0    0  0.98636300551E+01 -0.11235713560E+03 -0.48795728040E+03  0.53891068333E+03  0.19900000000E+03 0.  0.
<mgrwt>
<rscale>  0 0.61569984E+03</rscale>
<asrwt>0</asrwt>
<pdfrwt beam="1">  1        2 0.87880461E-01 0.61569984E+03</pdfrwt>
<pdfrwt beam="2">  1       -2 0.22008461E-01 0.61569984E+03</pdfrwt>
<totfact> 0.95127673E+02</totfact>
</mgrwt>
</event>
<event>
 4    1  0.1724904E-005  0.8565412E+03  0.7818608E-02  0.9481599E-01
          2   -1    0    0  501    0  0.00000000000E+00  0.00000000000E+00  0.69604222142E+03  0.69604222142E+03  0.25500000000E-02 0.  1.
         -2   -1    0    0    0  501 -0.00000000000E+00 -0.00000000000E+00 -0.26351233127E+03  0.26351233128E+03  0.25500000000E-02 0. -1.
    5000001    1    1    2    0    0  0.38530330417E+02  0.35847902439E+03  0.34797567879E+03  0.53914735492E+03  0.19900000000E+03 0.  0.
   -5000001    1    1    2    0    0 -0.38530330417E+02 -0.35847902439E+03  0.84554211366E+02  0.42040719778E+03  0.19900000000E+03 0.  0.
<mgrwt>
<rscale>  0 0.85654120E+03</rscale>
<asrwt>0</asrwt>
<pdfrwt beam="1">  1        2 0.99434603E-01 0.85654120E+03</pdfrwt>
<pdfrwt beam="2">  1       -2 0.37644619E-01 0.85654120E+03</pdfrwt>
<totfact> 0.30251773E+02</totfact>
</mgrwt>
</event>
<event>
 4    1  0.1724904E-005  0.8372353E+03  0.7818608E-02  0.9507631E-01
          2   -1    0    0  501    0  0.00000000000E+00  0.00000000000E+00  0.13151889328E+04  0.13151889328E+04  0.25500000000E-02 0.  1.
         -2   -1    0    0    0  501 -0.00000000000E+00 -0.00000000000E+00 -0.13324375963E+03  0.13324375965E+03  0.25500000000E-02 0. -1.
    5000001    1    1    2    0    0 -0.29958071939E+03 -0.69350490637E+02  0.24032198212E+03  0.43807961956E+03  0.19900000000E+03 0.  0.
   -5000001    1    1    2    0    0  0.29958071939E+03  0.69350490637E+02  0.94162319103E+03  0.10103530729E+04  0.19900000000E+03 0.  0.
<mgrwt>
<rscale>  0 0.83723525E+03</rscale>
<asrwt>0</asrwt>
<pdfrwt beam="1">  1        2 0.18788415E+00 0.83723525E+03</pdfrwt>
<pdfrwt beam="2">  1       -2 0.19034821E-01 0.83723525E+03</pdfrwt>
<totfact> 0.42988924E+02</totfact>
</mgrwt>
</event>
<event>
 4    1  0.1724904E-005  0.6057264E+03  0.7818608E-02  0.9893596E-01
         -2   -1    0    0    0  501 -0.00000000000E+00  0.00000000000E+00  0.26535336295E+02  0.26535336417E+02  0.25500000000E-02 0. -1.
          2   -1    0    0  501    0  0.00000000000E+00 -0.00000000000E+00 -0.34567539843E+04  0.34567539843E+04  0.25500000000E-02 0.  1.
    5000001    1    1    2    0    0 -0.33667675856E+02 -0.22250434575E+03 -0.19365957140E+04  0.19597565297E+04  0.19900000000E+03 0.  0.
   -5000001    1    1    2    0    0  0.33667675856E+02  0.22250434575E+03 -0.14936229340E+04  0.15235327910E+04  0.19900000000E+03 0.  0.
<mgrwt>
<rscale>  0 0.60572644E+03</rscale>
<asrwt>0</asrwt>
<pdfrwt beam="1">  1        2 0.49382171E+00 0.60572644E+03</pdfrwt>
<pdfrwt beam="2">  1       -2 0.37907645E-02 0.60572644E+03</pdfrwt>
<totfact> 0.43762627E+02</totfact>
</mgrwt>
</event>
<event>
 4    1  0.1724904E-005  0.5615099E+03  0.7818608E-02  0.9988644E-01
          2   -1    0    0  501    0  0.00000000000E+00  0.00000000000E+00  0.11474134982E+04  0.11474134982E+04  0.25500000000E-02 0.  1.
         -2   -1    0    0    0  501 -0.00000000000E+00 -0.00000000000E+00 -0.68696539942E+02  0.68696539989E+02  0.25500000000E-02 0. -1.
    5000001    1    1    2    0    0 -0.11740152054E+02  0.19256114678E+03  0.63632935880E+03  0.69407037056E+03  0.19900000000E+03 0.  0.
   -5000001    1    1    2    0    0  0.11740152054E+02 -0.19256114678E+03  0.44238759943E+03  0.52203966760E+03  0.19900000000E+03 0.  0.
<mgrwt>
<rscale>  0 0.56150988E+03</rscale>
<asrwt>0</asrwt>
<pdfrwt beam="1">  1        2 0.16391621E+00 0.56150988E+03</pdfrwt>
<pdfrwt beam="2">  1       -2 0.98137918E-02 0.56150988E+03</pdfrwt>
<totfact> 0.16327281E+03</totfact>
</mgrwt>
</event>
<event>
 4    1  0.1724904E-005  0.6006337E+03  0.7818608E-02  0.9904092E-01
          2   -1    0    0  501    0  0.00000000000E+00  0.00000000000E+00  0.38367507470E+04  0.38367507470E+04  0.25500000000E-02 0.  1.
         -2   -1    0    0    0  501 -0.00000000000E+00 -0.00000000000E+00 -0.23506921154E+02  0.23506921292E+02  0.25500000000E-02 0. -1.
    5000001    1    1    2    0    0 -0.50283498973E+02 -0.21886929938E+03  0.19871509343E+04  0.20096770974E+04  0.19900000000E+03 0.  0.
   -5000001    1    1    2    0    0  0.50283498973E+02  0.21886929938E+03  0.18260928916E+04  0.18505805708E+04  0.19900000000E+03 0.  0.
<mgrwt>
<rscale>  0 0.60063366E+03</rscale>
<asrwt>0</asrwt>
<pdfrwt beam="1">  1        2 0.54810690E+00 0.60063366E+03</pdfrwt>
<pdfrwt beam="2">  1       -2 0.33581337E-02 0.60063366E+03</pdfrwt>
<totfact> 0.30821439E+02</totfact>
</mgrwt>
</event>
<event>
 4    1  0.1724904E-005  0.5575478E+03  0.7818608E-02  0.9997619E-01
         -2   -1    0    0    0  501 -0.00000000000E+00  0.00000000000E+00  0.15470305112E+02  0.15470305322E+02  0.25500000000E-02 0. -1.
          2   -1    0    0  501    0  0.00000000000E+00 -0.00000000000E+00 -0.50234878095E+04  0.50234878095E+04  0.25500000000E-02 0.  1.
    5000001    1    1    2    0    0  0.23229482862E+02 -0.15321448704E+03 -0.14308547281E+04  0.14529144988E+04  0.19900000000E+03 0.  0.
   -5000001    1    1    2    0    0 -0.23229482862E+02  0.15321448704E+03 -0.35771627763E+04  0.35860436160E+04  0.19900000000E+03 0.  0.
<mgrwt>
<rscale>  0 0.55754781E+03</rscale>
<asrwt>0</asrwt>
<pdfrwt beam="1">  1        2 0.71764007E+00 0.55754781E+03</pdfrwt>
<pdfrwt beam="2">  1       -2 0.22100468E-02 0.55754781E+03</pdfrwt>
<totfact> 0.71711351E+01</totfact>
</mgrwt>
</event>
<event>
 4    1  0.1724904E-005  0.4682465E+03  0.7818608E-02  0.1022416E+00
          2   -1    0    0  501    0  0.00000000000E+00  0.00000000000E+00  0.47469501477E+03  0.47469501478E+03  0.25500000000E-02 0.  1.
         -2   -1    0    0    0  501 -0.00000000000E+00 -0.00000000000E+00 -0.11547138852E+03  0.11547138855E+03  0.25500000000E-02 0. -1.
    5000001    1    1    2    0    0  0.11943072694E+03 -0.28867524581E+02  0.16605706319E+03  0.28683267029E+03  0.19900000000E+03 0.  0.
   -5000001    1    1    2    0    0 -0.11943072694E+03  0.28867524581E+02  0.19316656307E+03  0.30333373304E+03  0.19900000000E+03 0.  0.
<mgrwt>
<rscale>  0 0.46824648E+03</rscale>
<asrwt>0</asrwt>
<pdfrwt beam="1">  1        2 0.67813576E-01 0.46824648E+03</pdfrwt>
<pdfrwt beam="2">  1       -2 0.16495912E-01 0.46824648E+03</pdfrwt>
<totfact> 0.21089729E+03</totfact>
</mgrwt>
</event>
<event>
 4    1  0.1724904E-005  0.4730896E+03  0.7818608E-02  0.1021052E+00
          2   -1    0    0  501    0  0.00000000000E+00  0.00000000000E+00  0.10253605533E+04  0.10253605533E+04  0.25500000000E-02 0.  1.
         -2   -1    0    0    0  501 -0.00000000000E+00 -0.00000000000E+00 -0.54569537073E+02  0.54569537132E+02  0.25500000000E-02 0. -1.
    5000001    1    1    2    0    0 -0.11629582606E+03  0.12210830471E+02  0.60353860424E+03  0.64616845354E+03  0.19900000000E+03 0.  0.
   -5000001    1    1    2    0    0  0.11629582606E+03 -0.12210830471E+02  0.36725241203E+03  0.43376163694E+03  0.19900000000E+03 0.  0.
<mgrwt>
<rscale>  0 0.47308964E+03</rscale>
<asrwt>0</asrwt>
<pdfrwt beam="1">  1        2 0.14648007E+00 0.47308964E+03</pdfrwt>
<pdfrwt beam="2">  1       -2 0.77956484E-02 0.47308964E+03</pdfrwt>
<totfact> 0.27806334E+03</totfact>
</mgrwt>
</event>
<event>
 4    1  0.1724904E-005  0.5021496E+03  0.7818608E-02  0.1013219E+00
          2   -1    0    0  501    0  0.00000000000E+00  0.00000000000E+00  0.62756569226E+03  0.62756569226E+03  0.25500000000E-02 0.  1.
         -2   -1    0    0    0  501 -0.00000000000E+00 -0.00000000000E+00 -0.10044935171E+03  0.10044935174E+03  0.25500000000E-02 0. -1.
    5000001    1    1    2    0    0  0.86665612533E+01  0.15024920992E+03  0.30424642221E+03  0.39346768583E+03  0.19900000000E+03 0.  0.
   -5000001    1    1    2    0    0 -0.86665612533E+01 -0.15024920992E+03  0.22286991834E+03  0.33454735818E+03  0.19900000000E+03 0.  0.
<mgrwt>
<rscale>  0 0.50214965E+03</rscale>
<asrwt>0</asrwt>
<pdfrwt beam="1">  1        2 0.89652241E-01 0.50214965E+03</pdfrwt>
<pdfrwt beam="2">  1       -2 0.14349908E-01 0.50214965E+03</pdfrwt>
<totfact> 0.19354176E+03</totfact>
</mgrwt>
</event>
<event>
 4    1  0.1724904E-005  0.4868848E+03  0.7818608E-02  0.1017260E+00
         -2   -1    0    0    0  501 -0.00000000000E+00  0.00000000000E+00  0.86789699882E+02  0.86789699919E+02  0.25500000000E-02 0. -1.
          2   -1    0    0  501    0  0.00000000000E+00 -0.00000000000E+00 -0.68284823826E+03  0.68284823826E+03  0.25500000000E-02 0.  1.
    5000001    1    1    2    0    0  0.86176200739E+02 -0.10901726493E+03 -0.32769044705E+03  0.40779054761E+03  0.19900000000E+03 0.  0.
   -5000001    1    1    2    0    0 -0.86176200739E+02  0.10901726493E+03 -0.26836809133E+03  0.36184739058E+03  0.19900000000E+03 0.  0.
<mgrwt>
<rscale>  0 0.48688477E+03</rscale>
<asrwt>0</asrwt>
<pdfrwt beam="1">  1        2 0.97549745E-01 0.48688477E+03</pdfrwt>
<pdfrwt beam="2">  1       -2 0.12398529E-01 0.48688477E+03</pdfrwt>
<totfact> 0.22289224E+03</totfact>
</mgrwt>
</event>
<event>
 4    1  0.1724904E-005  0.7062688E+03  0.7818608E-02  0.9706571E-01
          2   -1    0    0  501    0  0.00000000000E+00  0.00000000000E+00  0.29203077365E+03  0.29203077366E+03  0.25500000000E-02 0.  1.
         -2   -1    0    0    0  501 -0.00000000000E+00 -0.00000000000E+00 -0.42702319979E+03  0.42702319980E+03  0.25500000000E-02 0. -1.
    5000001    1    1    2    0    0  0.12301089395E+03 -0.22053980202E+03  0.81207497290E+02  0.33160992434E+03  0.19900000000E+03 0.  0.
   -5000001    1    1    2    0    0 -0.12301089395E+03  0.22053980202E+03 -0.21619992343E+03  0.38744404912E+03  0.19900000000E+03 0.  0.
<mgrwt>
<rscale>  0 0.70626883E+03</rscale>
<asrwt>0</asrwt>
<pdfrwt beam="1">  1        2 0.41718682E-01 0.70626883E+03</pdfrwt>
<pdfrwt beam="2">  1       -2 0.61003314E-01 0.70626883E+03</pdfrwt>
<totfact> 0.31001250E+02</totfact>
</mgrwt>
</event>
<event>
 4    1  0.1724904E-005  0.5714407E+03  0.7818608E-02  0.9966496E-01
         -2   -1    0    0    0  501 -0.00000000000E+00  0.00000000000E+00  0.16037149277E+02  0.16037149480E+02  0.25500000000E-02 0.  1.
          2   -1    0    0  501    0  0.00000000000E+00 -0.00000000000E+00 -0.50904376011E+04  0.50904376011E+04  0.25500000000E-02 0. -1.
    5000001    1    1    2    0    0 -0.85813224265E+02 -0.17675178089E+03 -0.30605566163E+04  0.30733065098E+04  0.19900000000E+03 0.  0.
   -5000001    1    1    2    0    0  0.85813224265E+02  0.17675178089E+03 -0.20138438356E+04  0.20331682408E+04  0.19900000000E+03 0.  0.
<mgrwt>
<rscale>  0 0.57144066E+03</rscale>
<asrwt>0</asrwt>
<pdfrwt beam="1">  1        2 0.72720434E+00 0.57144066E+03</pdfrwt>
<pdfrwt beam="2">  1       -2 0.22910246E-02 0.57144066E+03</pdfrwt>
<totfact> 0.58373900E+01</totfact>
</mgrwt>
</event>
<event>
 4    1  0.1724904E-005  0.4091469E+03  0.7818608E-02  0.1040658E+00
         -2   -1    0    0    0  501 -0.00000000000E+00  0.00000000000E+00  0.86959673784E+02  0.86959673821E+02  0.25500000000E-02 0.  1.
          2   -1    0    0  501    0  0.00000000000E+00 -0.00000000000E+00 -0.48126097674E+03  0.48126097675E+03  0.25500000000E-02 0. -1.
    5000001    1    1    2    0    0 -0.31691165097E+02  0.28598426614E+02 -0.16844936853E+03  0.26419384873E+03  0.19900000000E+03 0.  0.
   -5000001    1    1    2    0    0  0.31691165097E+02 -0.28598426614E+02 -0.22585193443E+03  0.30402680184E+03  0.19900000000E+03 0.  0.
<mgrwt>
<rscale>  0 0.40914691E+03</rscale>
<asrwt>0</asrwt>
<pdfrwt beam="1">  1        2 0.68751567E-01 0.40914691E+03</pdfrwt>
<pdfrwt beam="2">  1       -2 0.12422811E-01 0.40914691E+03</pdfrwt>
<totfact> 0.33232983E+03</totfact>
</mgrwt>
</event>
<event>
 4    1  0.1724904E-005  0.6441976E+03  0.7818608E-02  0.9817728E-01
         -2   -1    0    0    0  501 -0.00000000000E+00  0.00000000000E+00  0.92617552940E+02  0.92617552975E+02  0.25500000000E-02 0. -1.
          2   -1    0    0  501    0  0.00000000000E+00 -0.00000000000E+00 -0.11201723612E+04  0.11201723612E+04  0.25500000000E-02 0.  1.
    5000001    1    1    2    0    0  0.50988481056E+02  0.24733925653E+03 -0.47755976345E+03  0.57570900695E+03  0.19900000000E+03 0.  0.
   -5000001    1    1    2    0    0 -0.50988481056E+02 -0.24733925653E+03 -0.54999504476E+03  0.63708090717E+03  0.19900000000E+03 0.  0.
<mgrwt>
<rscale>  0 0.64419756E+03</rscale>
<asrwt>0</asrwt>
<pdfrwt beam="1">  1        2 0.16002461E+00 0.64419756E+03</pdfrwt>
<pdfrwt beam="2">  1       -2 0.13231080E-01 0.64419756E+03</pdfrwt>
<totfact> 0.10350700E+03</totfact>
</mgrwt>
</event>
<event>
 4    1  0.1724904E-005  0.5199686E+03  0.7818608E-02  0.1008694E+00
         -2   -1    0    0    0  501 -0.00000000000E+00  0.00000000000E+00  0.18982524642E+02  0.18982524813E+02  0.25500000000E-02 0. -1.
          2   -1    0    0  501    0  0.00000000000E+00 -0.00000000000E+00 -0.35607406723E+04  0.35607406723E+04  0.25500000000E-02 0.  1.
    5000001    1    1    2    0    0  0.14901667288E+03  0.46342352783E+02 -0.13556767394E+04  0.13790627267E+04  0.19900000000E+03 0.  0.
   -5000001    1    1    2    0    0 -0.14901667288E+03 -0.46342352783E+02 -0.21860814082E+04  0.22006604704E+04  0.19900000000E+03 0.  0.
<mgrwt>
<rscale>  0 0.51996864E+03</rscale>
<asrwt>0</asrwt>
<pdfrwt beam="1">  1        2 0.50867681E+00 0.51996864E+03</pdfrwt>
<pdfrwt beam="2">  1       -2 0.27117915E-02 0.51996864E+03</pdfrwt>
<totfact> 0.63853575E+02</totfact>
</mgrwt>
</event>
<event>
 4    1  0.1724904E-005  0.5454453E+03  0.7818608E-02  0.1002554E+00
         -2   -1    0    0    0  501 -0.00000000000E+00  0.00000000000E+00  0.19388181243E+02  0.19388181411E+02  0.25500000000E-02 0. -1.
          2   -1    0    0  501    0  0.00000000000E+00 -0.00000000000E+00 -0.38362357544E+04  0.38362357544E+04  0.25500000000E-02 0.  1.
    5000001    1    1    2    0    0  0.15696223704E+03  0.72097791985E+02 -0.14115244110E+04  0.14359099548E+04  0.19900000000E+03 0.  0.
   -5000001    1    1    2    0    0 -0.15696223704E+03 -0.72097791985E+02 -0.24053231622E+04  0.24197139810E+04  0.19900000000E+03 0.  0.
<mgrwt>
<rscale>  0 0.54544527E+03</rscale>
<asrwt>0</asrwt>
<pdfrwt beam="1">  1        2 0.54803319E+00 0.54544527E+03</pdfrwt>
<pdfrwt beam="2">  1       -2 0.27697426E-02 0.54544527E+03</pdfrwt>
<totfact> 0.41652988E+02</totfact>
</mgrwt>
</event>
<event>
 4    1  0.1724904E-005  0.5738339E+03  0.7818608E-02  0.9961230E-01
          2   -1    0    0  501    0  0.00000000000E+00  0.00000000000E+00  0.30596939505E+04  0.30596939505E+04  0.25500000000E-02 0.  1.
         -2   -1    0    0    0  501 -0.00000000000E+00 -0.00000000000E+00 -0.26905087125E+02  0.26905087246E+02  0.25500000000E-02 0. -1.
    5000001    1    1    2    0    0 -0.93528493526E+02 -0.50115541942E+01  0.25074518222E+04  0.25170793264E+04  0.19900000000E+03 0.  0.
   -5000001    1    1    2    0    0  0.93528493526E+02  0.50115541942E+01  0.52533704121E+03  0.56951971137E+03  0.19900000000E+03 0.  0.
<mgrwt>
<rscale>  0 0.57383389E+03</rscale>
<asrwt>0</asrwt>
<pdfrwt beam="1">  1        2 0.43709922E+00 0.57383389E+03</pdfrwt>
<pdfrwt beam="2">  1       -2 0.38435832E-02 0.57383389E+03</pdfrwt>
<totfact> 0.72228322E+02</totfact>
</mgrwt>
</event>
<event>
 4    1  0.1724904E-005  0.1015178E+04  0.7818608E-02  0.9292053E-01
          2   -1    0    0  501    0  0.00000000000E+00  0.00000000000E+00  0.82737068297E+03  0.82737068297E+03  0.25500000000E-02 0.  1.
         -2   -1    0    0    0  501 -0.00000000000E+00 -0.00000000000E+00 -0.31140379961E+03  0.31140379962E+03  0.25500000000E-02 0. -1.
    5000001    1    1    2    0    0  0.41667265680E+03 -0.73899741889E+02  0.36546371392E+02  0.46905640603E+03  0.19900000000E+03 0.  0.
   -5000001    1    1    2    0    0 -0.41667265680E+03  0.73899741889E+02  0.47942051197E+03  0.66971807656E+03  0.19900000000E+03 0.  0.
<mgrwt>
<rscale>  0 0.10151776E+04</rscale>
<asrwt>0</asrwt>
<pdfrwt beam="1">  1        2 0.11819581E+00 0.10151776E+04</pdfrwt>
<pdfrwt beam="2">  1       -2 0.44486258E-01 0.10151776E+04</pdfrwt>
<totfact> 0.17376232E+02</totfact>
</mgrwt>
</event>
<event>
 4    1  0.1724904E-005  0.1483220E+04  0.7818608E-02  0.8895689E-01
          2   -1    0    0  501    0  0.00000000000E+00  0.00000000000E+00  0.13244469675E+04  0.13244469675E+04  0.25500000000E-02 0.  1.
         -2   -1    0    0    0  501 -0.00000000000E+00 -0.00000000000E+00 -0.41525656124E+03  0.41525656125E+03  0.25500000000E-02 0. -1.
    5000001    1    1    2    0    0  0.50761974319E+03 -0.48900876978E+03  0.59126426806E+03  0.94127669432E+03  0.19900000000E+03 0.  0.
   -5000001    1    1    2    0    0 -0.50761974319E+03  0.48900876978E+03  0.31792613820E+03  0.79842683443E+03  0.19900000000E+03 0.  0.
<mgrwt>
<rscale>  0 0.14832199E+04</rscale>
<asrwt>0</asrwt>
<pdfrwt beam="1">  1        2 0.18920671E+00 0.14832199E+04</pdfrwt>
<pdfrwt beam="2">  1       -2 0.59322367E-01 0.14832199E+04</pdfrwt>
<totfact> 0.46771014E+01</totfact>
</mgrwt>
</event>
<event>
 4    1  0.1724904E-005  0.5625876E+03  0.7818608E-02  0.9986217E-01
         -2   -1    0    0    0  501 -0.00000000000E+00  0.00000000000E+00  0.22695694074E+02  0.22695694217E+02  0.25500000000E-02 0. -1.
          2   -1    0    0  501    0  0.00000000000E+00 -0.00000000000E+00 -0.34863973466E+04  0.34863973466E+04  0.25500000000E-02 0.  1.
    5000001    1    1    2    0    0  0.17288089848E+03  0.96867170877E+02 -0.16324126418E+04  0.16563946048E+04  0.19900000000E+03 0.  0.
   -5000001    1    1    2    0    0 -0.17288089848E+03 -0.96867170877E+02 -0.18312890108E+04  0.18526984360E+04  0.19900000000E+03 0.  0.
<mgrwt>
<rscale>  0 0.56258762E+03</rscale>
<asrwt>0</asrwt>
<pdfrwt beam="1">  1        2 0.49805642E+00 0.56258762E+03</pdfrwt>
<pdfrwt beam="2">  1       -2 0.32422442E-02 0.56258762E+03</pdfrwt>
<totfact> 0.53646054E+02</totfact>
</mgrwt>
</event>
<event>
 4    1  0.1724904E-005  0.5714397E+03  0.7818608E-02  0.9966498E-01
          2   -1    0    0  501    0  0.00000000000E+00  0.00000000000E+00  0.21807729905E+04  0.21807729905E+04  0.25500000000E-02 0.  1.
         -2   -1    0    0    0  501 -0.00000000000E+00 -0.00000000000E+00 -0.37434355823E+02  0.37434355910E+02  0.25500000000E-02 0. -1.
    5000001    1    1    2    0    0 -0.18008589024E+03  0.89959784222E+02  0.92077103182E+03  0.96329849147E+03  0.19900000000E+03 0.  0.
   -5000001    1    1    2    0    0  0.18008589024E+03 -0.89959784222E+02  0.12225676029E+04  0.12549088549E+04  0.19900000000E+03 0.  0.
<mgrwt>
<rscale>  0 0.57143970E+03</rscale>
<asrwt>0</asrwt>
<pdfrwt beam="1">  1        2 0.31153903E+00 0.57143970E+03</pdfrwt>
<pdfrwt beam="2">  1       -2 0.53477646E-02 0.57143970E+03</pdfrwt>
<totfact> 0.12444167E+03</totfact>
</mgrwt>
</event>
<event>
 4    1  0.1724904E-005  0.5093376E+03  0.7818608E-02  0.1011370E+00
          2   -1    0    0  501    0  0.00000000000E+00  0.00000000000E+00  0.14377491634E+04  0.14377491634E+04  0.25500000000E-02 0.  1.
         -2   -1    0    0    0  501 -0.00000000000E+00 -0.00000000000E+00 -0.45109529687E+02  0.45109529759E+02  0.25500000000E-02 0. -1.
    5000001    1    1    2    0    0  0.15754806653E+03  0.20190732951E+02  0.68143782888E+03  0.72745279819E+03  0.19900000000E+03 0.  0.
   -5000001    1    1    2    0    0 -0.15754806653E+03 -0.20190732951E+02  0.71120180485E+03  0.75540589499E+03  0.19900000000E+03 0.  0.
<mgrwt>
<rscale>  0 0.50933756E+03</rscale>
<asrwt>0</asrwt>
<pdfrwt beam="1">  1        2 0.20539276E+00 0.50933756E+03</pdfrwt>
<pdfrwt beam="2">  1       -2 0.64442178E-02 0.50933756E+03</pdfrwt>
<totfact> 0.22174132E+03</totfact>
</mgrwt>
</event>
<event>
 4    1  0.1724904E-005  0.8632896E+03  0.7818608E-02  0.9472672E-01
         -2   -1    0    0    0  501 -0.00000000000E+00  0.00000000000E+00  0.16650665232E+03  0.16650665234E+03  0.25500000000E-02 0. -1.
          2   -1    0    0  501    0  0.00000000000E+00 -0.00000000000E+00 -0.11189777018E+04  0.11189777018E+04  0.25500000000E-02 0.  1.
    5000001    1    1    2    0    0  0.33035129609E+03 -0.14766264929E+03 -0.28918294155E+03  0.50414681444E+03  0.19900000000E+03 0.  0.
   -5000001    1    1    2    0    0 -0.33035129609E+03  0.14766264929E+03 -0.66328810789E+03  0.78133753966E+03  0.19900000000E+03 0.  0.
<mgrwt>
<rscale>  0 0.86328959E+03</rscale>
<asrwt>0</asrwt>
<pdfrwt beam="1">  1        2 0.15985395E+00 0.86328959E+03</pdfrwt>
<pdfrwt beam="2">  1       -2 0.23786665E-01 0.86328959E+03</pdfrwt>
<totfact> 0.37376380E+02</totfact>
</mgrwt>
</event>
<event>
 4    1  0.1724904E-005  0.5710855E+03  0.7818608E-02  0.9967279E-01
          2   -1    0    0  501    0  0.00000000000E+00  0.00000000000E+00  0.14546740800E+04  0.14546740800E+04  0.25500000000E-02 0. -1.
         -2   -1    0    0    0  501 -0.00000000000E+00 -0.00000000000E+00 -0.56050126603E+02  0.56050126661E+02  0.25500000000E-02 0.  1.
    5000001    1    1    2    0    0  0.10759347199E+02 -0.34897385041E+02  0.16628711893E+03  0.26188928377E+03  0.19900000000E+03 0.  0.
   -5000001    1    1    2    0    0 -0.10759347199E+02  0.34897385041E+02  0.12323368345E+04  0.12488349229E+04  0.19900000000E+03 0.  0.
<mgrwt>
<rscale>  0 0.57108552E+03</rscale>
<asrwt>0</asrwt>
<pdfrwt beam="1">  1        2 0.20781062E+00 0.57108552E+03</pdfrwt>
<pdfrwt beam="2">  1       -2 0.80071597E-02 0.57108552E+03</pdfrwt>
<totfact> 0.15394406E+03</totfact>
</mgrwt>
</event>
<event>
 4    1  0.1724904E-005  0.8479633E+03  0.7818608E-02  0.9493075E-01
          2   -1    0    0  501    0  0.00000000000E+00  0.00000000000E+00  0.23064608570E+04  0.23064608570E+04  0.25500000000E-02 0. -1.
         -2   -1    0    0    0  501 -0.00000000000E+00 -0.00000000000E+00 -0.77937785953E+02  0.77937785995E+02  0.25500000000E-02 0.  1.
    5000001    1    1    2    0    0 -0.25750649670E+03  0.26851969304E+03  0.99673061747E+03  0.10823517659E+04  0.19900000000E+03 0.  0.
   -5000001    1    1    2    0    0  0.25750649670E+03 -0.26851969304E+03  0.12317924535E+04  0.13020468770E+04  0.19900000000E+03 0.  0.
<mgrwt>
<rscale>  0 0.84796333E+03</rscale>
<asrwt>0</asrwt>
<pdfrwt beam="1">  1        2 0.32949439E+00 0.84796333E+03</pdfrwt>
<pdfrwt beam="2">  1       -2 0.11133970E-01 0.84796333E+03</pdfrwt>
<totfact> 0.32692572E+02</totfact>
</mgrwt>
</event>
<event>
 4    1  0.1724904E-005  0.8115464E+03  0.7818608E-02  0.9543453E-01
          2   -1    0    0  501    0  0.00000000000E+00  0.00000000000E+00  0.26842034437E+03  0.26842034439E+03  0.25500000000E-02 0.  1.
         -2   -1    0    0    0  501 -0.00000000000E+00 -0.00000000000E+00 -0.61341059538E+03  0.61341059539E+03  0.25500000000E-02 0. -1.
    5000001    1    1    2    0    0 -0.30967624954E+03  0.14092894150E+03 -0.67759990149E+02  0.39994094857E+03  0.19900000000E+03 0.  0.
   -5000001    1    1    2    0    0  0.30967624954E+03 -0.14092894150E+03 -0.27723026086E+03  0.48188999120E+03  0.19900000000E+03 0.  0.
<mgrwt>
<rscale>  0 0.81154638E+03</rscale>
<asrwt>0</asrwt>
<pdfrwt beam="1">  1        2 0.38345764E-01 0.81154638E+03</pdfrwt>
<pdfrwt beam="2">  1       -2 0.87630085E-01 0.81154638E+03</pdfrwt>
<totfact> 0.15278878E+02</totfact>
</mgrwt>
</event>
<event>
 4    1  0.1724904E-005  0.7975915E+03  0.7818608E-02  0.9563510E-01
         -2   -1    0    0    0  501 -0.00000000000E+00  0.00000000000E+00  0.10080070074E+03  0.10080070077E+03  0.25500000000E-02 0. -1.
          2   -1    0    0  501    0  0.00000000000E+00 -0.00000000000E+00 -0.15777474839E+04  0.15777474839E+04  0.25500000000E-02 0.  1.
    5000001    1    1    2    0    0 -0.12982762134E+03  0.27969026019E+03 -0.41003861595E+03  0.55028585251E+03  0.19900000000E+03 0.  0.
   -5000001    1    1    2    0    0  0.12982762134E+03 -0.27969026019E+03 -0.10669081672E+04  0.11282623321E+04  0.19900000000E+03 0.  0.
<mgrwt>
<rscale>  0 0.79759150E+03</rscale>
<asrwt>0</asrwt>
<pdfrwt beam="1">  1        2 0.22539248E+00 0.79759150E+03</pdfrwt>
<pdfrwt beam="2">  1       -2 0.14400101E-01 0.79759150E+03</pdfrwt>
<totfact> 0.50333271E+02</totfact>
</mgrwt>
</event>
<event>
 4    1  0.1724904E-005  0.4602344E+03  0.7818608E-02  0.1024713E+00
         -2   -1    0    0    0  501 -0.00000000000E+00  0.00000000000E+00  0.49787244318E+02  0.49787244383E+02  0.25500000000E-02 0. -1.
          2   -1    0    0  501    0  0.00000000000E+00 -0.00000000000E+00 -0.10636044373E+04  0.10636044373E+04  0.25500000000E-02 0.  1.
    5000001    1    1    2    0    0 -0.83842722833E+02 -0.48204666918E+01 -0.69892680302E+03  0.73154119163E+03  0.19900000000E+03 0.  0.
   -5000001    1    1    2    0    0  0.83842722833E+02  0.48204666918E+01 -0.31489039001E+03  0.38185049010E+03  0.19900000000E+03 0.  0.
<mgrwt>
<rscale>  0 0.46023444E+03</rscale>
<asrwt>0</asrwt>
<pdfrwt beam="1">  1        2 0.15194348E+00 0.46023444E+03</pdfrwt>
<pdfrwt beam="2">  1       -2 0.71124641E-02 0.46023444E+03</pdfrwt>
<totfact> 0.30502893E+03</totfact>
</mgrwt>
</event>
<event>
 4    1  0.1724904E-005  0.5037911E+03  0.7818608E-02  0.1012794E+00
          2   -1    0    0  501    0  0.00000000000E+00  0.00000000000E+00  0.13453219415E+04  0.13453219415E+04  0.25500000000E-02 0.  1.
         -2   -1    0    0    0  501 -0.00000000000E+00 -0.00000000000E+00 -0.47164446953E+02  0.47164447022E+02  0.25500000000E-02 0. -1.
    5000001    1    1    2    0    0  0.10511736900E+03 -0.55541351559E+02  0.37663229648E+03  0.44225263114E+03  0.19900000000E+03 0.  0.
   -5000001    1    1    2    0    0 -0.10511736900E+03  0.55541351559E+02  0.92152519808E+03  0.95023375739E+03  0.19900000000E+03 0.  0.
<mgrwt>
<rscale>  0 0.50379109E+03</rscale>
<asrwt>0</asrwt>
<pdfrwt beam="1">  1        2 0.19218884E+00 0.50379109E+03</pdfrwt>
<pdfrwt beam="2">  1       -2 0.67377785E-02 0.50379109E+03</pdfrwt>
<totfact> 0.23142797E+03</totfact>
</mgrwt>
</event>
<event>
 4    1  0.1724904E-005  0.6351948E+03  0.7818608E-02  0.9834964E-01
          2   -1    0    0  501    0  0.00000000000E+00  0.00000000000E+00  0.13090264579E+04  0.13090264579E+04  0.25500000000E-02 0.  1.
         -2   -1    0    0    0  501 -0.00000000000E+00 -0.00000000000E+00 -0.77055819676E+02  0.77055819719E+02  0.25500000000E-02 0. -1.
    5000001    1    1    2    0    0 -0.14836172071E+03  0.16691317255E+03  0.84893192305E+03  0.90008756091E+03  0.19900000000E+03 0.  0.
   -5000001    1    1    2    0    0  0.14836172071E+03 -0.16691317255E+03  0.38303871516E+03  0.48599471669E+03  0.19900000000E+03 0.  0.
<mgrwt>
<rscale>  0 0.63519479E+03</rscale>
<asrwt>0</asrwt>
<pdfrwt beam="1">  1        2 0.18700376E+00 0.63519479E+03</pdfrwt>
<pdfrwt beam="2">  1       -2 0.11007975E-01 0.63519479E+03</pdfrwt>
<totfact> 0.10994178E+03</totfact>
</mgrwt>
</event>
<event>
 4    1  0.1724904E-005  0.4815923E+03  0.7818608E-02  0.1018698E+00
         -2   -1    0    0    0  501 -0.00000000000E+00  0.00000000000E+00  0.49934240613E+02  0.49934240679E+02  0.25500000000E-02 0. -1.
          2   -1    0    0  501    0  0.00000000000E+00 -0.00000000000E+00 -0.11611826712E+04  0.11611826712E+04  0.25500000000E-02 0.  1.
    5000001    1    1    2    0    0  0.43256744443E+02  0.93944882660E+02 -0.77608338755E+03  0.80783860476E+03  0.19900000000E+03 0.  0.
   -5000001    1    1    2    0    0 -0.43256744443E+02 -0.93944882660E+02 -0.33516504304E+03  0.40327830712E+03  0.19900000000E+03 0.  0.
<mgrwt>
<rscale>  0 0.48159225E+03</rscale>
<asrwt>0</asrwt>
<pdfrwt beam="1">  1        2 0.16588322E+00 0.48159225E+03</pdfrwt>
<pdfrwt beam="2">  1       -2 0.71334637E-02 0.48159225E+03</pdfrwt>
<totfact> 0.26691184E+03</totfact>
</mgrwt>
</event>
<event>
 4    1  0.1724904E-005  0.6006406E+03  0.7818608E-02  0.9904078E-01
          2   -1    0    0  501    0  0.00000000000E+00  0.00000000000E+00  0.60180887769E+02  0.60180887823E+02  0.25500000000E-02 0.  1.
         -2   -1    0    0    0  501 -0.00000000000E+00 -0.00000000000E+00 -0.14986864529E+04  0.14986864529E+04  0.25500000000E-02 0. -1.
    5000001    1    1    2    0    0  0.25544336006E+02 -0.18445739423E+03 -0.39184620544E+03  0.47730649702E+03  0.19900000000E+03 0.  0.
   -5000001    1    1    2    0    0 -0.25544336006E+02  0.18445739423E+03 -0.10466593597E+04  0.10815608437E+04  0.19900000000E+03 0.  0.
<mgrwt>
<rscale>  0 0.60064060E+03</rscale>
<asrwt>0</asrwt>
<pdfrwt beam="1">  1        2 0.85972706E-02 0.60064060E+03</pdfrwt>
<pdfrwt beam="2">  1       -2 0.21409804E+00 0.60064060E+03</pdfrwt>
<totfact> 0.89492418E+01</totfact>
</mgrwt>
</event>
<event>
 4    1  0.1724904E-005  0.1187157E+04  0.7818608E-02  0.9124172E-01
          2   -1    0    0  501    0  0.00000000000E+00  0.00000000000E+00  0.75152026431E+03  0.75152026432E+03  0.25500000000E-02 0.  1.
         -2   -1    0    0    0  501 -0.00000000000E+00 -0.00000000000E+00 -0.46883064682E+03  0.46883064683E+03  0.25500000000E-02 0. -1.
    5000001    1    1    2    0    0 -0.55580661400E+03  0.53997439260E+02  0.17214961138E+03  0.61731127019E+03  0.19900000000E+03 0.  0.
   -5000001    1    1    2    0    0  0.55580661400E+03 -0.53997439260E+02  0.11054000611E+03  0.60303964095E+03  0.19900000000E+03 0.  0.
<mgrwt>
<rscale>  0 0.11871575E+04</rscale>
<asrwt>0</asrwt>
<pdfrwt beam="1">  1        2 0.10736004E+00 0.11871575E+04</pdfrwt>
<pdfrwt beam="2">  1       -2 0.66975807E-01 0.11871575E+04</pdfrwt>
<totfact> 0.83309050E+01</totfact>
</mgrwt>
</event>
<event>
 4    1  0.1724904E-005  0.1271900E+04  0.7818608E-02  0.9052150E-01
         -2   -1    0    0    0  501 -0.00000000000E+00  0.00000000000E+00  0.84531250178E+03  0.84531250178E+03  0.25500000000E-02 0. -1.
          2   -1    0    0  501    0  0.00000000000E+00 -0.00000000000E+00 -0.47844128753E+03  0.47844128753E+03  0.25500000000E-02 0.  1.
    5000001    1    1    2    0    0 -0.13032542780E+02 -0.55185057103E+03 -0.71759751523E+02  0.59115087910E+03  0.19900000000E+03 0.  0.
   -5000001    1    1    2    0    0  0.13032542780E+02  0.55185057103E+03  0.43863096577E+03  0.73260291021E+03  0.19900000000E+03 0.  0.
<mgrwt>
<rscale>  0 0.12719000E+04</rscale>
<asrwt>0</asrwt>
<pdfrwt beam="1">  1        2 0.68348756E-01 0.12719000E+04</pdfrwt>
<pdfrwt beam="2">  1       -2 0.12075893E+00 0.12719000E+04</pdfrwt>
<totfact> 0.36289468E+01</totfact>
</mgrwt>
</event>
<event>
 4    1  0.1724904E-005  0.5955569E+03  0.7818608E-02  0.9914667E-01
         -2   -1    0    0    0  501 -0.00000000000E+00  0.00000000000E+00  0.12886578834E+03  0.12886578837E+03  0.25500000000E-02 0. -1.
          2   -1    0    0  501    0  0.00000000000E+00 -0.00000000000E+00 -0.68809570318E+03  0.68809570318E+03  0.25500000000E-02 0.  1.
    5000001    1    1    2    0    0 -0.19368088858E+03 -0.10751137797E+03 -0.27946304876E+03  0.40837676062E+03  0.19900000000E+03 0.  0.
   -5000001    1    1    2    0    0  0.19368088858E+03  0.10751137797E+03 -0.27976686608E+03  0.40858473093E+03  0.19900000000E+03 0.  0.
<mgrwt>
<rscale>  0 0.59555687E+03</rscale>
<asrwt>0</asrwt>
<pdfrwt beam="1">  1        2 0.98299385E-01 0.59555687E+03</pdfrwt>
<pdfrwt beam="2">  1       -2 0.18409399E-01 0.59555687E+03</pdfrwt>
<totfact> 0.11356758E+03</totfact>
</mgrwt>
</event>
<event>
 4    1  0.1724904E-005  0.5705745E+03  0.7818608E-02  0.9968408E-01
          2   -1    0    0  501    0  0.00000000000E+00  0.00000000000E+00  0.19798336522E+04  0.19798336522E+04  0.25500000000E-02 0.  1.
         -2   -1    0    0    0  501 -0.00000000000E+00 -0.00000000000E+00 -0.41108922937E+02  0.41108923016E+02  0.25500000000E-02 0. -1.
    5000001    1    1    2    0    0  0.83752979582E+02 -0.11966054976E+03  0.14759298247E+04  0.14964301040E+04  0.19900000000E+03 0.  0.
   -5000001    1    1    2    0    0 -0.83752979582E+02  0.11966054976E+03  0.46279490456E+03  0.52451247120E+03  0.19900000000E+03 0.  0.
<mgrwt>
<rscale>  0 0.57057455E+03</rscale>
<asrwt>0</asrwt>
<pdfrwt beam="1">  1        2 0.28283342E+00 0.57057455E+03</pdfrwt>
<pdfrwt beam="2">  1       -2 0.58727025E-02 0.57057455E+03</pdfrwt>
<totfact> 0.13564551E+03</totfact>
</mgrwt>
</event>
<event>
 4    1  0.1724904E-005  0.5177897E+03  0.7818608E-02  0.1009237E+00
          2   -1    0    0  501    0  0.00000000000E+00  0.00000000000E+00  0.21324979754E+04  0.21324979754E+04  0.25500000000E-02 0.  1.
         -2   -1    0    0    0  501 -0.00000000000E+00 -0.00000000000E+00 -0.31430997946E+02  0.31430998049E+02  0.25500000000E-02 0. -1.
    5000001    1    1    2    0    0  0.72170181821E+02  0.11413299713E+03  0.64988543464E+03  0.69295523256E+03  0.19900000000E+03 0.  0.
   -5000001    1    1    2    0    0 -0.72170181821E+02 -0.11413299713E+03  0.14511815428E+04  0.14709737409E+04  0.19900000000E+03 0.  0.
<mgrwt>
<rscale>  0 0.51778969E+03</rscale>
<asrwt>0</asrwt>
<pdfrwt beam="1">  1        2 0.30464254E+00 0.51778969E+03</pdfrwt>
<pdfrwt beam="2">  1       -2 0.44901430E-02 0.51778969E+03</pdfrwt>
<totfact> 0.17292454E+03</totfact>
</mgrwt>
</event>
<event>
 4    1  0.1724904E-005  0.4965539E+03  0.7818608E-02  0.1014682E+00
         -2   -1    0    0    0  501 -0.00000000000E+00  0.00000000000E+00  0.55352691732E+02  0.55352691791E+02  0.25500000000E-02 0. -1.
          2   -1    0    0  501    0  0.00000000000E+00 -0.00000000000E+00 -0.11136125051E+04  0.11136125051E+04  0.25500000000E-02 0.  1.
    5000001    1    1    2    0    0  0.43963259265E+02  0.10072811961E+03 -0.29416763496E+03  0.37177213411E+03  0.19900000000E+03 0.  0.
   -5000001    1    1    2    0    0 -0.43963259265E+02 -0.10072811961E+03 -0.76409217844E+03  0.79719306281E+03  0.19900000000E+03 0.  0.
<mgrwt>
<rscale>  0 0.49655392E+03</rscale>
<asrwt>0</asrwt>
<pdfrwt beam="1">  1        2 0.15908749E+00 0.49655392E+03</pdfrwt>
<pdfrwt beam="2">  1       -2 0.79075281E-02 0.49655392E+03</pdfrwt>
<totfact> 0.24139260E+03</totfact>
</mgrwt>
</event>
<event>
 4    1  0.1724904E-005  0.1374671E+04  0.7818608E-02  0.8972360E-01
          2   -1    0    0  501    0  0.00000000000E+00  0.00000000000E+00  0.12859720669E+04  0.12859720669E+04  0.25500000000E-02 0.  1.
         -2   -1    0    0    0  501 -0.00000000000E+00 -0.00000000000E+00 -0.36737183051E+03  0.36737183052E+03  0.25500000000E-02 0. -1.
    5000001    1    1    2    0    0 -0.58540147863E+03  0.21052143887E+03  0.20186538409E+03  0.68364084189E+03  0.19900000000E+03 0.  0.
   -5000001    1    1    2    0    0  0.58540147863E+03 -0.21052143887E+03  0.71673485228E+03  0.96970305551E+03  0.19900000000E+03 0.  0.
<mgrwt>
<rscale>  0 0.13746707E+04</rscale>
<asrwt>0</asrwt>
<pdfrwt beam="1">  1        2 0.18371030E+00 0.13746707E+04</pdfrwt>
<pdfrwt beam="2">  1       -2 0.52481690E-01 0.13746707E+04</pdfrwt>
<totfact> 0.63902270E+01</totfact>
</mgrwt>
</event>
<event>
 4    1  0.1724904E-005  0.1654557E+04  0.7818608E-02  0.8787715E-01
         -2   -1    0    0    0  501 -0.00000000000E+00  0.00000000000E+00  0.69606890834E+03  0.69606890835E+03  0.25500000000E-02 0. -1.
          2   -1    0    0  501    0  0.00000000000E+00 -0.00000000000E+00 -0.98322121883E+03  0.98322121883E+03  0.25500000000E-02 0.  1.
    5000001    1    1    2    0    0 -0.34272771853E+03 -0.55099722239E+03 -0.62364624452E+03  0.92173524747E+03  0.19900000000E+03 0.  0.
   -5000001    1    1    2    0    0  0.34272771853E+03  0.55099722239E+03  0.33649393404E+03  0.75755487971E+03  0.19900000000E+03 0.  0.
<mgrwt>
<rscale>  0 0.16545570E+04</rscale>
<asrwt>0</asrwt>
<pdfrwt beam="1">  1        2 0.14046017E+00 0.16545570E+04</pdfrwt>
<pdfrwt beam="2">  1       -2 0.99438416E-01 0.16545570E+04</pdfrwt>
<totfact> 0.23059132E+01</totfact>
</mgrwt>
</event>
<event>
 4    1  0.1724904E-005  0.5360002E+03  0.7818608E-02  0.1004787E+00
         -2   -1    0    0    0  501 -0.00000000000E+00  0.00000000000E+00  0.18414921538E+03  0.18414921539E+03  0.25500000000E-02 0. -1.
          2   -1    0    0  501    0  0.00000000000E+00 -0.00000000000E+00 -0.39003185361E+03  0.39003185362E+03  0.25500000000E-02 0.  1.
    5000001    1    1    2    0    0 -0.10265087628E+03  0.14275979166E+03 -0.14164677807E+03  0.30096905199E+03  0.19900000000E+03 0.  0.
   -5000001    1    1    2    0    0  0.10265087628E+03 -0.14275979166E+03 -0.64235860164E+02  0.27321201703E+03  0.19900000000E+03 0.  0.
<mgrwt>
<rscale>  0 0.53600022E+03</rscale>
<asrwt>0</asrwt>
<pdfrwt beam="1">  1        2 0.55718836E-01 0.53600022E+03</pdfrwt>
<pdfrwt beam="2">  1       -2 0.26307031E-01 0.53600022E+03</pdfrwt>
<totfact> 0.11624300E+03</totfact>
</mgrwt>
</event>
<event>
 4    1  0.1724904E-005  0.5203895E+03  0.7818608E-02  0.1008590E+00
         -2   -1    0    0    0  501 -0.00000000000E+00  0.00000000000E+00  0.18023321460E+03  0.18023321462E+03  0.25500000000E-02 0. -1.
          2   -1    0    0  501    0  0.00000000000E+00 -0.00000000000E+00 -0.37563164052E+03  0.37563164053E+03  0.25500000000E-02 0.  1.
    5000001    1    1    2    0    0 -0.16387457547E+03  0.12480797025E+02 -0.13295939046E+03  0.29032713668E+03  0.19900000000E+03 0.  0.
   -5000001    1    1    2    0    0  0.16387457547E+03 -0.12480797025E+02 -0.62439035457E+02  0.26553771847E+03  0.19900000000E+03 0.  0.
<mgrwt>
<rscale>  0 0.52038946E+03</rscale>
<asrwt>0</asrwt>
<pdfrwt beam="1">  1        2 0.53661662E-01 0.52038946E+03</pdfrwt>
<pdfrwt beam="2">  1       -2 0.25747602E-01 0.52038946E+03</pdfrwt>
<totfact> 0.12596320E+03</totfact>
</mgrwt>
</event>
<event>
 4    1  0.1724904E-005  0.9232416E+03  0.7818608E-02  0.9396986E-01
         -2   -1    0    0    0  501 -0.00000000000E+00  0.00000000000E+00  0.86845418679E+03  0.86845418680E+03  0.25500000000E-02 0. -1.
          2   -1    0    0  501    0  0.00000000000E+00 -0.00000000000E+00 -0.24537135652E+03  0.24537135654E+03  0.25500000000E-02 0.  1.
    5000001    1    1    2    0    0  0.33236430235E+03 -0.22680227514E+03  0.44140766382E+03  0.62956097970E+03  0.19900000000E+03 0.  0.
   -5000001    1    1    2    0    0 -0.33236430235E+03  0.22680227514E+03  0.18167516645E+03  0.48426456363E+03  0.19900000000E+03 0.  0.
<mgrwt>
<rscale>  0 0.92324164E+03</rscale>
<asrwt>0</asrwt>
<pdfrwt beam="1">  1        2 0.35053051E-01 0.92324164E+03</pdfrwt>
<pdfrwt beam="2">  1       -2 0.12406488E+00 0.92324164E+03</pdfrwt>
<totfact> 0.73114369E+01</totfact>
</mgrwt>
</event>
<event>
 4    1  0.1724904E-005  0.5303874E+03  0.7818608E-02  0.1006138E+00
         -2   -1    0    0    0  501 -0.00000000000E+00  0.00000000000E+00  0.15556693719E+03  0.15556693721E+03  0.25500000000E-02 0. -1.
          2   -1    0    0  501    0  0.00000000000E+00 -0.00000000000E+00 -0.45207360865E+03  0.45207360866E+03  0.25500000000E-02 0.  1.
    5000001    1    1    2    0    0  0.25067949169E+02  0.12693060599E+03 -0.12761022229E+02  0.23770491055E+03  0.19900000000E+03 0.  0.
   -5000001    1    1    2    0    0 -0.25067949169E+02 -0.12693060599E+03 -0.28374564924E+03  0.36993563531E+03  0.19900000000E+03 0.  0.
<mgrwt>
<rscale>  0 0.53038743E+03</rscale>
<asrwt>0</asrwt>
<pdfrwt beam="1">  1        2 0.64581943E-01 0.53038743E+03</pdfrwt>
<pdfrwt beam="2">  1       -2 0.22223848E-01 0.53038743E+03</pdfrwt>
<totfact> 0.13325702E+03</totfact>
</mgrwt>
</event>
<event>
 4    1  0.1724904E-005  0.4756300E+03  0.7818608E-02  0.1020343E+00
         -2   -1    0    0    0  501 -0.00000000000E+00  0.00000000000E+00  0.12289650622E+03  0.12289650624E+03  0.25500000000E-02 0. -1.
          2   -1    0    0  501    0  0.00000000000E+00 -0.00000000000E+00 -0.46019181702E+03  0.46019181703E+03  0.25500000000E-02 0.  1.
    5000001    1    1    2    0    0 -0.12004300936E+03 -0.45899370832E+02 -0.14299409000E+03  0.27670451047E+03  0.19900000000E+03 0.  0.
   -5000001    1    1    2    0    0  0.12004300936E+03  0.45899370832E+02 -0.19430122080E+03  0.30638381280E+03  0.19900000000E+03 0.  0.
<mgrwt>
<rscale>  0 0.47562997E+03</rscale>
<asrwt>0</asrwt>
<pdfrwt beam="1">  1        2 0.65741688E-01 0.47562997E+03</pdfrwt>
<pdfrwt beam="2">  1       -2 0.17556644E-01 0.47562997E+03</pdfrwt>
<totfact> 0.19644736E+03</totfact>
</mgrwt>
</event>
<event>
 4    1  0.1724904E-005  0.4848819E+03  0.7818608E-02  0.1017802E+00
         -2   -1    0    0    0  501 -0.00000000000E+00  0.00000000000E+00  0.31915097855E+02  0.31915097957E+02  0.25500000000E-02 0. -1.
          2   -1    0    0  501    0  0.00000000000E+00 -0.00000000000E+00 -0.18416866023E+04  0.18416866023E+04  0.25500000000E-02 0.  1.
    5000001    1    1    2    0    0  0.21900007382E+02 -0.11423334018E+03 -0.11952738032E+04  0.12172959094E+04  0.19900000000E+03 0.  0.
   -5000001    1    1    2    0    0 -0.21900007382E+02  0.11423334018E+03 -0.61449770128E+03  0.65630579093E+03  0.19900000000E+03 0.  0.
<mgrwt>
<rscale>  0 0.48488188E+03</rscale>
<asrwt>0</asrwt>
<pdfrwt beam="1">  1        2 0.26309802E+00 0.48488188E+03</pdfrwt>
<pdfrwt beam="2">  1       -2 0.45593009E-02 0.48488188E+03</pdfrwt>
<totfact> 0.23629858E+03</totfact>
</mgrwt>
</event>
<event>
 4    1  0.1724904E-005  0.4469611E+03  0.7818608E-02  0.1028632E+00
          2   -1    0    0  501    0  0.00000000000E+00  0.00000000000E+00  0.23549582220E+03  0.23549582221E+03  0.25500000000E-02 0.  1.
         -2   -1    0    0    0  501 -0.00000000000E+00 -0.00000000000E+00 -0.21207835753E+03  0.21207835754E+03  0.25500000000E-02 0. -1.
    5000001    1    1    2    0    0 -0.93899040931E+02 -0.24526323582E+02  0.42147738640E+02  0.22537968477E+03  0.19900000000E+03 0.  0.
   -5000001    1    1    2    0    0  0.93899040931E+02  0.24526323582E+02 -0.18730273971E+02  0.22219449498E+03  0.19900000000E+03 0.  0.
<mgrwt>
<rscale>  0 0.44696115E+03</rscale>
<asrwt>0</asrwt>
<pdfrwt beam="1">  1        2 0.33642260E-01 0.44696115E+03</pdfrwt>
<pdfrwt beam="2">  1       -2 0.30296908E-01 0.44696115E+03</pdfrwt>
<totfact> 0.15647401E+03</totfact>
</mgrwt>
</event>
<event>
 4    1  0.1724904E-005  0.6993165E+03  0.7818608E-02  0.9718402E-01
          2   -1    0    0  501    0  0.00000000000E+00  0.00000000000E+00  0.11136869885E+04  0.11136869885E+04  0.25500000000E-02 0.  1.
         -2   -1    0    0    0  501 -0.00000000000E+00 -0.00000000000E+00 -0.10978030523E+03  0.10978030526E+03  0.25500000000E-02 0. -1.
    5000001    1    1    2    0    0 -0.14063018369E+03  0.22978936832E+03  0.32630397558E+03  0.46760590976E+03  0.19900000000E+03 0.  0.
   -5000001    1    1    2    0    0  0.14063018369E+03 -0.22978936832E+03  0.67760270770E+03  0.75586138401E+03  0.19900000000E+03 0.  0.
<mgrwt>
<rscale>  0 0.69931652E+03</rscale>
<asrwt>0</asrwt>
<pdfrwt beam="1">  1        2 0.15909814E+00 0.69931652E+03</pdfrwt>
<pdfrwt beam="2">  1       -2 0.15682901E-01 0.69931652E+03</pdfrwt>
<totfact> 0.78325956E+02</totfact>
</mgrwt>
</event>
<event>
 4    1  0.1724904E-005  0.8827945E+03  0.7818608E-02  0.9447348E-01
          2   -1    0    0  501    0  0.00000000000E+00  0.00000000000E+00  0.27339004801E+04  0.27339004801E+04  0.25500000000E-02 0. -1.
         -2   -1    0    0    0  501 -0.00000000000E+00 -0.00000000000E+00 -0.71265038049E+02  0.71265038095E+02  0.25500000000E-02 0.  1.
    5000001    1    1    2    0    0 -0.37612380445E+03  0.16339072714E+01  0.17040424020E+04  0.17563693500E+04  0.19900000000E+03 0.  0.
   -5000001    1    1    2    0    0  0.37612380445E+03 -0.16339072714E+01  0.95859304009E+03  0.10487961682E+04  0.19900000000E+03 0.  0.
<mgrwt>
<rscale>  0 0.88279448E+03</rscale>
<asrwt>0</asrwt>
<pdfrwt beam="1">  1        2 0.39055724E+00 0.88279448E+03</pdfrwt>
<pdfrwt beam="2">  1       -2 0.10180719E-01 0.88279448E+03</pdfrwt>
<totfact> 0.22622672E+02</totfact>
</mgrwt>
</event>
<event>
 4    1  0.1724904E-005  0.6832884E+03  0.7818608E-02  0.9746246E-01
          2   -1    0    0  501    0  0.00000000000E+00  0.00000000000E+00  0.17866794782E+03  0.17866794784E+03  0.25500000000E-02 0.  1.
         -2   -1    0    0    0  501 -0.00000000000E+00 -0.00000000000E+00 -0.65328319243E+03  0.65328319244E+03  0.25500000000E-02 0. -1.
    5000001    1    1    2    0    0 -0.26586392815E+03  0.79876045129E+02 -0.24641553592E+03  0.42117149384E+03  0.19900000000E+03 0.  0.
   -5000001    1    1    2    0    0  0.26586392815E+03 -0.79876045129E+02 -0.22819970869E+03  0.41077964643E+03  0.19900000000E+03 0.  0.
<mgrwt>
<rscale>  0 0.68328842E+03</rscale>
<asrwt>0</asrwt>
<pdfrwt beam="1">  1        2 0.25523993E-01 0.68328842E+03</pdfrwt>
<pdfrwt beam="2">  1       -2 0.93326169E-01 0.68328842E+03</pdfrwt>
<totfact> 0.21000341E+02</totfact>
</mgrwt>
</event>
<event>
 4    1  0.1724904E-005  0.4333929E+03  0.7818608E-02  0.1032794E+00
         -2   -1    0    0    0  501 -0.00000000000E+00  0.00000000000E+00  0.62034211196E+02  0.62034211248E+02  0.25500000000E-02 0. -1.
          2   -1    0    0  501    0  0.00000000000E+00 -0.00000000000E+00 -0.75695889895E+03  0.75695889895E+03  0.25500000000E-02 0.  1.
    5000001    1    1    2    0    0  0.24330685628E+02  0.25096648258E+02 -0.19945307503E+03  0.28390905790E+03  0.19900000000E+03 0.  0.
   -5000001    1    1    2    0    0 -0.24330685628E+02 -0.25096648258E+02 -0.49547161272E+03  0.53508405230E+03  0.19900000000E+03 0.  0.
<mgrwt>
<rscale>  0 0.43339289E+03</rscale>
<asrwt>0</asrwt>
<pdfrwt beam="1">  1        2 0.10813698E+00 0.43339289E+03</pdfrwt>
<pdfrwt beam="2">  1       -2 0.88620306E-02 0.43339289E+03</pdfrwt>
<totfact> 0.33798411E+03</totfact>
</mgrwt>
</event>
<event>
 4    1  0.1724904E-005  0.5249645E+03  0.7818608E-02  0.1007461E+00
         -2   -1    0    0    0  501 -0.00000000000E+00  0.00000000000E+00  0.53706121085E+02  0.53706121146E+02  0.25500000000E-02 0. -1.
          2   -1    0    0  501    0  0.00000000000E+00 -0.00000000000E+00 -0.12828504001E+04  0.12828504001E+04  0.25500000000E-02 0.  1.
    5000001    1    1    2    0    0 -0.16624847019E+03  0.26525711507E+02 -0.53594452365E+03  0.59596954590E+03  0.19900000000E+03 0.  0.
   -5000001    1    1    2    0    0  0.16624847019E+03 -0.26525711507E+02 -0.69319975533E+03  0.74058697532E+03  0.19900000000E+03 0.  0.
<mgrwt>
<rscale>  0 0.52496445E+03</rscale>
<asrwt>0</asrwt>
<pdfrwt beam="1">  1        2 0.18326432E+00 0.52496445E+03</pdfrwt>
<pdfrwt beam="2">  1       -2 0.76723038E-02 0.52496445E+03</pdfrwt>
<totfact> 0.20367969E+03</totfact>
</mgrwt>
</event>
<event>
 4    1  0.1724904E-005  0.6588695E+03  0.7818608E-02  0.9790277E-01
         -2   -1    0    0    0  501 -0.00000000000E+00  0.00000000000E+00  0.15934121383E+03  0.15934121385E+03  0.25500000000E-02 0. -1.
          2   -1    0    0  501    0  0.00000000000E+00 -0.00000000000E+00 -0.68109973226E+03  0.68109973226E+03  0.25500000000E-02 0.  1.
    5000001    1    1    2    0    0 -0.40912869243E+02 -0.25711679642E+03 -0.30401100634E+03  0.44699731749E+03  0.19900000000E+03 0.  0.
   -5000001    1    1    2    0    0  0.40912869243E+02  0.25711679642E+03 -0.21774751209E+03  0.39344362861E+03  0.19900000000E+03 0.  0.
<mgrwt>
<rscale>  0 0.65886951E+03</rscale>
<asrwt>0</asrwt>
<pdfrwt beam="1">  1        2 0.97299960E-01 0.65886951E+03</pdfrwt>
<pdfrwt beam="2">  1       -2 0.22763031E-01 0.65886951E+03</pdfrwt>
<totfact> 0.79240058E+02</totfact>
</mgrwt>
</event>
<event>
 4    1  0.1724904E-005  0.9214985E+03  0.7818608E-02  0.9399099E-01
         -2   -1    0    0    0  501 -0.00000000000E+00  0.00000000000E+00  0.18529134214E+03  0.18529134216E+03  0.25500000000E-02 0. -1.
          2   -1    0    0  501    0  0.00000000000E+00 -0.00000000000E+00 -0.11457084480E+04  0.11457084480E+04  0.25500000000E-02 0.  1.
    5000001    1    1    2    0    0  0.24704714579E+03 -0.16341944938E+03 -0.59223461258E+02  0.36172728269E+03  0.19900000000E+03 0.  0.
   -5000001    1    1    2    0    0 -0.24704714579E+03  0.16341944938E+03 -0.90119364459E+03  0.96927250746E+03  0.19900000000E+03 0.  0.
<mgrwt>
<rscale>  0 0.92149847E+03</rscale>
<asrwt>0</asrwt>
<pdfrwt beam="1">  1        2 0.16367263E+00 0.92149847E+03</pdfrwt>
<pdfrwt beam="2">  1       -2 0.26470192E-01 0.92149847E+03</pdfrwt>
<totfact> 0.29641641E+02</totfact>
</mgrwt>
</event>
<event>
 4    1  0.1724904E-005  0.4821473E+03  0.7818608E-02  0.1018547E+00
          2   -1    0    0  501    0  0.00000000000E+00  0.00000000000E+00  0.15388683372E+04  0.15388683372E+04  0.25500000000E-02 0.  1.
         -2   -1    0    0    0  501 -0.00000000000E+00 -0.00000000000E+00 -0.37765747989E+02  0.37765748075E+02  0.25500000000E-02 0. -1.
    5000001    1    1    2    0    0  0.10459289096E+03  0.67816791157E+02  0.92896179594E+03  0.95818046751E+03  0.19900000000E+03 0.  0.
   -5000001    1    1    2    0    0 -0.10459289096E+03 -0.67816791157E+02  0.57214079323E+03  0.61845361772E+03  0.19900000000E+03 0.  0.
<mgrwt>
<rscale>  0 0.48214734E+03</rscale>
<asrwt>0</asrwt>
<pdfrwt beam="1">  1        2 0.21983832E+00 0.48214734E+03</pdfrwt>
<pdfrwt beam="2">  1       -2 0.53951072E-02 0.48214734E+03</pdfrwt>
<totfact> 0.25931242E+03</totfact>
</mgrwt>
</event>
<event>
 4    1  0.1724904E-005  0.6562040E+03  0.7818608E-02  0.9795207E-01
         -2   -1    0    0    0  501 -0.00000000000E+00  0.00000000000E+00  0.36938582208E+03  0.36938582209E+03  0.25500000000E-02 0. -1.
          2   -1    0    0  501    0  0.00000000000E+00 -0.00000000000E+00 -0.29143224141E+03  0.29143224142E+03  0.25500000000E-02 0.  1.
    5000001    1    1    2    0    0  0.98823550660E+01  0.24266457331E+03 -0.56909213101E+02  0.31909781356E+03  0.19900000000E+03 0.  0.
   -5000001    1    1    2    0    0 -0.98823550660E+01 -0.24266457331E+03  0.13486279377E+03  0.34172024995E+03  0.19900000000E+03 0.  0.
<mgrwt>
<rscale>  0 0.65620405E+03</rscale>
<asrwt>0</asrwt>
<pdfrwt beam="1">  1        2 0.41633177E-01 0.65620405E+03</pdfrwt>
<pdfrwt beam="2">  1       -2 0.52769403E-01 0.65620405E+03</pdfrwt>
<totfact> 0.42080390E+02</totfact>
</mgrwt>
</event>
<event>
 4    1  0.1724904E-005  0.1188407E+04  0.7818608E-02  0.9123065E-01
          2   -1    0    0  501    0  0.00000000000E+00  0.00000000000E+00  0.74178283523E+03  0.74178283523E+03  0.25500000000E-02 0. -1.
         -2   -1    0    0    0  501 -0.00000000000E+00 -0.00000000000E+00 -0.47598549654E+03  0.47598549655E+03  0.25500000000E-02 0.  1.
    5000001    1    1    2    0    0 -0.68203986083E+02 -0.52813180500E+03  0.31009254474E+03  0.64755955207E+03  0.19900000000E+03 0.  0.
   -5000001    1    1    2    0    0  0.68203986083E+02  0.52813180500E+03 -0.44295206062E+02  0.57020877971E+03  0.19900000000E+03 0.  0.
<mgrwt>
<rscale>  0 0.11884071E+04</rscale>
<asrwt>0</asrwt>
<pdfrwt beam="1">  1        2 0.10596898E+00 0.11884071E+04</pdfrwt>
<pdfrwt beam="2">  1       -2 0.67997928E-01 0.11884071E+04</pdfrwt>
<totfact> 0.81952538E+01</totfact>
</mgrwt>
</event>
<event>
 4    1  0.1724904E-005  0.5183430E+03  0.7818608E-02  0.1009099E+00
          2   -1    0    0  501    0  0.00000000000E+00  0.00000000000E+00  0.14525620575E+04  0.14525620575E+04  0.25500000000E-02 0.  1.
         -2   -1    0    0    0  501 -0.00000000000E+00 -0.00000000000E+00 -0.46242341950E+02  0.46242342020E+02  0.25500000000E-02 0. -1.
    5000001    1    1    2    0    0 -0.59370097130E+02  0.65613636928E+02  0.29691364198E+03  0.36822366651E+03  0.19900000000E+03 0.  0.
   -5000001    1    1    2    0    0  0.59370097130E+02 -0.65613636928E+02  0.11094060736E+04  0.11305807330E+04  0.19900000000E+03 0.  0.
<mgrwt>
<rscale>  0 0.51834302E+03</rscale>
<asrwt>0</asrwt>
<pdfrwt beam="1">  1        2 0.20750889E+00 0.51834302E+03</pdfrwt>
<pdfrwt beam="2">  1       -2 0.66060482E-02 0.51834302E+03</pdfrwt>
<totfact> 0.20947030E+03</totfact>
</mgrwt>
</event>
<event>
 4    1  0.1724904E-005  0.1485200E+04  0.7818608E-02  0.8894355E-01
          2   -1    0    0  501    0  0.00000000000E+00  0.00000000000E+00  0.83820391577E+03  0.83820391577E+03  0.25500000000E-02 0.  1.
         -2   -1    0    0    0  501 -0.00000000000E+00 -0.00000000000E+00 -0.65790033509E+03  0.65790033509E+03  0.25500000000E-02 0. -1.
    5000001    1    1    2    0    0  0.71377961578E+03  0.28876208106E+02  0.12966299922E+03  0.75281383401E+03  0.19900000000E+03 0.  0.
   -5000001    1    1    2    0    0 -0.71377961578E+03 -0.28876208106E+02  0.50640581460E+02  0.74329041686E+03  0.19900000000E+03 0.  0.
<mgrwt>
<rscale>  0 0.14851998E+04</rscale>
<asrwt>0</asrwt>
<pdfrwt beam="1">  1        2 0.11974342E+00 0.14851998E+04</pdfrwt>
<pdfrwt beam="2">  1       -2 0.93985762E-01 0.14851998E+04</pdfrwt>
<totfact> 0.33130732E+01</totfact>
</mgrwt>
</event>
<event>
 4    1  0.1724904E-005  0.8292996E+03  0.7818608E-02  0.9518549E-01
         -2   -1    0    0    0  501 -0.00000000000E+00  0.00000000000E+00  0.20876641830E+03  0.20876641832E+03  0.25500000000E-02 0. -1.
          2   -1    0    0  501    0  0.00000000000E+00 -0.00000000000E+00 -0.82357329173E+03  0.82357329173E+03  0.25500000000E-02 0.  1.
    5000001    1    1    2    0    0 -0.19785522118E+02  0.31344551379E+03 -0.78903142858E+02  0.38008717810E+03  0.19900000000E+03 0.  0.
   -5000001    1    1    2    0    0  0.19785522118E+02 -0.31344551379E+03 -0.53590373057E+03  0.65225253195E+03  0.19900000000E+03 0.  0.
<mgrwt>
<rscale>  0 0.82929958E+03</rscale>
<asrwt>0</asrwt>
<pdfrwt beam="1">  1        2 0.11765333E+00 0.82929958E+03</pdfrwt>
<pdfrwt beam="2">  1       -2 0.29823774E-01 0.82929958E+03</pdfrwt>
<totfact> 0.38013455E+02</totfact>
</mgrwt>
</event>
<event>
 4    1  0.1724904E-005  0.6039511E+03  0.7818608E-02  0.9897243E-01
          2   -1    0    0  501    0  0.00000000000E+00  0.00000000000E+00  0.79963755285E+03  0.79963755285E+03  0.25500000000E-02 0.  1.
         -2   -1    0    0    0  501 -0.00000000000E+00 -0.00000000000E+00 -0.11403819285E+03  0.11403819287E+03  0.25500000000E-02 0. -1.
    5000001    1    1    2    0    0  0.63784584487E+02  0.16888282454E+03  0.13427946088E+03  0.30036953117E+03  0.19900000000E+03 0.  0.
   -5000001    1    1    2    0    0 -0.63784584487E+02 -0.16888282454E+03  0.55131989912E+03  0.61330621455E+03  0.19900000000E+03 0.  0.
<mgrwt>
<rscale>  0 0.60395106E+03</rscale>
<asrwt>0</asrwt>
<pdfrwt beam="1">  1        2 0.11423393E+00 0.60395106E+03</pdfrwt>
<pdfrwt beam="2">  1       -2 0.16291171E-01 0.60395106E+03</pdfrwt>
<totfact> 0.11606295E+03</totfact>
</mgrwt>
</event>
<event>
 4    1  0.1724904E-005  0.4227483E+03  0.7818608E-02  0.1036176E+00
          2   -1    0    0  501    0  0.00000000000E+00  0.00000000000E+00  0.22567025398E+04  0.22567025398E+04  0.25500000000E-02 0.  1.
         -2   -1    0    0    0  501 -0.00000000000E+00 -0.00000000000E+00 -0.19798368485E+02  0.19798368649E+02  0.25500000000E-02 0. -1.
    5000001    1    1    2    0    0 -0.10778655900E+02 -0.70437286630E+02  0.11220153962E+04  0.11417517857E+04  0.19900000000E+03 0.  0.
   -5000001    1    1    2    0    0  0.10778655900E+02  0.70437286630E+02  0.11148887750E+04  0.11347491227E+04  0.19900000000E+03 0.  0.
<mgrwt>
<rscale>  0 0.42274829E+03</rscale>
<asrwt>0</asrwt>
<pdfrwt beam="1">  1        2 0.32238587E+00 0.42274829E+03</pdfrwt>
<pdfrwt beam="2">  1       -2 0.28283402E-02 0.42274829E+03</pdfrwt>
<totfact> 0.30404995E+03</totfact>
</mgrwt>
</event>
<event>
 4    1  0.1724904E-005  0.5537147E+03  0.7818608E-02  0.1000638E+00
          2   -1    0    0  501    0  0.00000000000E+00  0.00000000000E+00  0.76851093677E+03  0.76851093677E+03  0.25500000000E-02 0.  1.
         -2   -1    0    0    0  501 -0.00000000000E+00 -0.00000000000E+00 -0.99738306240E+02  0.99738306272E+02  0.25500000000E-02 0. -1.
    5000001    1    1    2    0    0  0.18663530483E+03 -0.44323504650E+02  0.30951072764E+03  0.41496409555E+03  0.19900000000E+03 0.  0.
   -5000001    1    1    2    0    0 -0.18663530483E+03  0.44323504650E+02  0.35926190289E+03  0.45328514749E+03  0.19900000000E+03 0.  0.
<mgrwt>
<rscale>  0 0.55371465E+03</rscale>
<asrwt>0</asrwt>
<pdfrwt beam="1">  1        2 0.10978728E+00 0.55371465E+03</pdfrwt>
<pdfrwt beam="2">  1       -2 0.14248329E-01 0.55371465E+03</pdfrwt>
<totfact> 0.15305478E+03</totfact>
</mgrwt>
</event>
<event>
 4    1  0.1724904E-005  0.6353836E+03  0.7818608E-02  0.9834599E-01
          2   -1    0    0  501    0  0.00000000000E+00  0.00000000000E+00  0.74169498277E+03  0.74169498277E+03  0.25500000000E-02 0.  1.
         -2   -1    0    0    0  501 -0.00000000000E+00 -0.00000000000E+00 -0.13607761745E+03  0.13607761748E+03  0.25500000000E-02 0. -1.
    5000001    1    1    2    0    0  0.24552358974E+03 -0.23597197935E+01  0.34735346506E+03  0.46961987935E+03  0.19900000000E+03 0.  0.
   -5000001    1    1    2    0    0 -0.24552358974E+03  0.23597197935E+01  0.25826390026E+03  0.40815272090E+03  0.19900000000E+03 0.  0.
<mgrwt>
<rscale>  0 0.63538362E+03</rscale>
<asrwt>0</asrwt>
<pdfrwt beam="1">  1        2 0.10595643E+00 0.63538362E+03</pdfrwt>
<pdfrwt beam="2">  1       -2 0.19439660E-01 0.63538362E+03</pdfrwt>
<totfact> 0.94164649E+02</totfact>
</mgrwt>
</event>
<event>
 4    1  0.1724904E-005  0.4782515E+03  0.7818608E-02  0.1019617E+00
          2   -1    0    0  501    0  0.00000000000E+00  0.00000000000E+00  0.27747404877E+04  0.27747404877E+04  0.25500000000E-02 0.  1.
         -2   -1    0    0    0  501 -0.00000000000E+00 -0.00000000000E+00 -0.20607741331E+02  0.20607741489E+02  0.25500000000E-02 0. -1.
    5000001    1    1    2    0    0 -0.98993857350E+01  0.13145737245E+03  0.14599523555E+04  0.14793380003E+04  0.19900000000E+03 0.  0.
   -5000001    1    1    2    0    0  0.98993857350E+01 -0.13145737245E+03  0.12941803909E+04  0.13160102290E+04  0.19900000000E+03 0.  0.
<mgrwt>
<rscale>  0 0.47825154E+03</rscale>
<asrwt>0</asrwt>
<pdfrwt beam="1">  1        2 0.39639137E+00 0.47825154E+03</pdfrwt>
<pdfrwt beam="2">  1       -2 0.29439640E-02 0.47825154E+03</pdfrwt>
<totfact> 0.15531785E+03</totfact>
</mgrwt>
</event>
<event>
 4    1  0.1724904E-005  0.5324360E+03  0.7818608E-02  0.1005643E+00
          2   -1    0    0  501    0  0.00000000000E+00  0.00000000000E+00  0.24643247329E+03  0.24643247330E+03  0.25500000000E-02 0.  1.
         -2   -1    0    0    0  501 -0.00000000000E+00 -0.00000000000E+00 -0.28759208531E+03  0.28759208532E+03  0.25500000000E-02 0. -1.
    5000001    1    1    2    0    0 -0.98997774143E+02 -0.97058919989E+02  0.89520358320E+02  0.25852637736E+03  0.19900000000E+03 0.  0.
   -5000001    1    1    2    0    0  0.98997774143E+02  0.97058919989E+02 -0.13067997034E+03  0.27549818127E+03  0.19900000000E+03 0.  0.
<mgrwt>
<rscale>  0 0.53243602E+03</rscale>
<asrwt>0</asrwt>
<pdfrwt beam="1">  1        2 0.35204639E-01 0.53243602E+03</pdfrwt>
<pdfrwt beam="2">  1       -2 0.41084583E-01 0.53243602E+03</pdfrwt>
<totfact> 0.83694173E+02</totfact>
</mgrwt>
</event>
<event>
 4    1  0.1724904E-005  0.4474855E+03  0.7818608E-02  0.1028475E+00
          2   -1    0    0  501    0  0.00000000000E+00  0.00000000000E+00  0.14138290794E+04  0.14138290794E+04  0.25500000000E-02 0.  1.
         -2   -1    0    0    0  501 -0.00000000000E+00 -0.00000000000E+00 -0.35407970609E+02  0.35407970701E+02  0.25500000000E-02 0. -1.
    5000001    1    1    2    0    0 -0.26797778292E+02 -0.53592811425E+02  0.42078535615E+03  0.46930973388E+03  0.19900000000E+03 0.  0.
   -5000001    1    1    2    0    0  0.26797778292E+02  0.53592811425E+02  0.95763575264E+03  0.97992731623E+03  0.19900000000E+03 0.  0.
<mgrwt>
<rscale>  0 0.44748550E+03</rscale>
<asrwt>0</asrwt>
<pdfrwt beam="1">  1        2 0.20197560E+00 0.44748550E+03</pdfrwt>
<pdfrwt beam="2">  1       -2 0.50582812E-02 0.44748550E+03</pdfrwt>
<totfact> 0.33271342E+03</totfact>
</mgrwt>
</event>
<event>
 4    1  0.1724904E-005  0.1451007E+04  0.7818608E-02  0.8917703E-01
         -2   -1    0    0    0  501 -0.00000000000E+00  0.00000000000E+00  0.78801858213E+03  0.78801858213E+03  0.25500000000E-02 0. -1.
          2   -1    0    0  501    0  0.00000000000E+00 -0.00000000000E+00 -0.66794781079E+03  0.66794781079E+03  0.25500000000E-02 0.  1.
    5000001    1    1    2    0    0 -0.74961869902E+01 -0.54540172227E+03 -0.37646301414E+03  0.69198600600E+03  0.19900000000E+03 0.  0.
   -5000001    1    1    2    0    0  0.74961869902E+01  0.54540172227E+03  0.49653378549E+03  0.76398038692E+03  0.19900000000E+03 0.  0.
<mgrwt>
<rscale>  0 0.14510069E+04</rscale>
<asrwt>0</asrwt>
<pdfrwt beam="1">  1        2 0.95421116E-01 0.14510069E+04</pdfrwt>
<pdfrwt beam="2">  1       -2 0.11257408E+00 0.14510069E+04</pdfrwt>
<totfact> 0.28771486E+01</totfact>
</mgrwt>
</event>
<event>
 4    1  0.1724904E-005  0.4886448E+03  0.7818608E-02  0.1016786E+00
          2   -1    0    0  501    0  0.00000000000E+00  0.00000000000E+00  0.10963639640E+04  0.10963639640E+04  0.25500000000E-02 0.  1.
         -2   -1    0    0    0  501 -0.00000000000E+00 -0.00000000000E+00 -0.54446738312E+02  0.54446738371E+02  0.25500000000E-02 0. -1.
    5000001    1    1    2    0    0 -0.11251061930E+03  0.84121219234E+02  0.56548339172E+03  0.61571704970E+03  0.19900000000E+03 0.  0.
   -5000001    1    1    2    0    0  0.11251061930E+03 -0.84121219234E+02  0.47643383398E+03  0.53509365268E+03  0.19900000000E+03 0.  0.
<mgrwt>
<rscale>  0 0.48864483E+03</rscale>
<asrwt>0</asrwt>
<pdfrwt beam="1">  1        2 0.15662342E+00 0.48864483E+03</pdfrwt>
<pdfrwt beam="2">  1       -2 0.77781058E-02 0.48864483E+03</pdfrwt>
<totfact> 0.25353067E+03</totfact>
</mgrwt>
</event>
<event>
 4    1  0.1724904E-005  0.9628760E+03  0.7818608E-02  0.9350226E-01
          2   -1    0    0  501    0  0.00000000000E+00  0.00000000000E+00  0.36861889878E+03  0.36861889879E+03  0.25500000000E-02 0.  1.
         -2   -1    0    0    0  501 -0.00000000000E+00 -0.00000000000E+00 -0.62878633676E+03  0.62878633677E+03  0.25500000000E-02 0. -1.
    5000001    1    1    2    0    0  0.22824367003E+03  0.12828549061E+03  0.23413461865E+03  0.40369835231E+03  0.19900000000E+03 0.  0.
   -5000001    1    1    2    0    0 -0.22824367003E+03 -0.12828549061E+03 -0.49430205664E+03  0.59370688324E+03  0.19900000000E+03 0.  0.
<mgrwt>
<rscale>  0 0.96287596E+03</rscale>
<asrwt>0</asrwt>
<pdfrwt beam="1">  1        2 0.52659843E-01 0.96287596E+03</pdfrwt>
<pdfrwt beam="2">  1       -2 0.89826620E-01 0.96287596E+03</pdfrwt>
<totfact> 0.10070903E+02</totfact>
</mgrwt>
</event>
<event>
 4    1  0.1724904E-005  0.5985397E+03  0.7818608E-02  0.9908440E-01
         -2   -1    0    0    0  501 -0.00000000000E+00  0.00000000000E+00  0.53115837911E+02  0.53115837973E+02  0.25500000000E-02 0. -1.
          2   -1    0    0  501    0  0.00000000000E+00 -0.00000000000E+00 -0.16861721744E+04  0.16861721744E+04  0.25500000000E-02 0.  1.
    5000001    1    1    2    0    0  0.15681530744E+03  0.15836697204E+03 -0.86604001675E+03  0.91613178587E+03  0.19900000000E+03 0.  0.
   -5000001    1    1    2    0    0 -0.15681530744E+03 -0.15836697204E+03 -0.76701631977E+03  0.82315622653E+03  0.19900000000E+03 0.  0.
<mgrwt>
<rscale>  0 0.59853972E+03</rscale>
<asrwt>0</asrwt>
<pdfrwt beam="1">  1        2 0.24088171E+00 0.59853972E+03</pdfrwt>
<pdfrwt beam="2">  1       -2 0.75879779E-02 0.59853972E+03</pdfrwt>
<totfact> 0.12724446E+03</totfact>
</mgrwt>
</event>
<event>
 4    1  0.1724904E-005  0.7495844E+03  0.7818608E-02  0.9636003E-01
         -2   -1    0    0    0  501 -0.00000000000E+00  0.00000000000E+00  0.16496713076E+03  0.16496713078E+03  0.25500000000E-02 0. -1.
          2   -1    0    0  501    0  0.00000000000E+00 -0.00000000000E+00 -0.85149803150E+03  0.85149803150E+03  0.25500000000E-02 0.  1.
    5000001    1    1    2    0    0 -0.70990135847E+02  0.29025481995E+03 -0.48919387172E+03  0.60679411996E+03  0.19900000000E+03 0.  0.
   -5000001    1    1    2    0    0  0.70990135847E+02 -0.29025481995E+03 -0.19733702902E+03  0.40967104232E+03  0.19900000000E+03 0.  0.
<mgrwt>
<rscale>  0 0.74958438E+03</rscale>
<asrwt>0</asrwt>
<pdfrwt beam="1">  1        2 0.12164257E+00 0.74958438E+03</pdfrwt>
<pdfrwt beam="2">  1       -2 0.23566733E-01 0.74958438E+03</pdfrwt>
<totfact> 0.56025204E+02</totfact>
</mgrwt>
</event>
<event>
 4    1  0.1724904E-005  0.4727354E+03  0.7818608E-02  0.1021151E+00
         -2   -1    0    0    0  501 -0.00000000000E+00  0.00000000000E+00  0.20794752000E+02  0.20794752156E+02  0.25500000000E-02 0. -1.
          2   -1    0    0  501    0  0.00000000000E+00 -0.00000000000E+00 -0.26867209028E+04  0.26867209028E+04  0.25500000000E-02 0.  1.
    5000001    1    1    2    0    0 -0.86154815951E+02 -0.71750827823E+02 -0.98468338542E+03  0.10108279790E+04  0.19900000000E+03 0.  0.
   -5000001    1    1    2    0    0  0.86154815951E+02  0.71750827823E+02 -0.16812427654E+04  0.16966876759E+04  0.19900000000E+03 0.  0.
<mgrwt>
<rscale>  0 0.47273542E+03</rscale>
<asrwt>0</asrwt>
<pdfrwt beam="1">  1        2 0.38381705E+00 0.47273542E+03</pdfrwt>
<pdfrwt beam="2">  1       -2 0.29706806E-02 0.47273542E+03</pdfrwt>
<totfact> 0.17035420E+03</totfact>
</mgrwt>
</event>
<event>
 4    1  0.1724904E-005  0.7228913E+03  0.7818608E-02  0.9678866E-01
          2   -1    0    0  501    0  0.00000000000E+00  0.00000000000E+00  0.23227972599E+03  0.23227972601E+03  0.25500000000E-02 0.  1.
         -2   -1    0    0    0  501 -0.00000000000E+00 -0.00000000000E+00 -0.56243812626E+03  0.56243812626E+03  0.25500000000E-02 0. -1.
    5000001    1    1    2    0    0 -0.28019918546E+02 -0.30036869011E+03 -0.15852826629E+03  0.39463739946E+03  0.19900000000E+03 0.  0.
   -5000001    1    1    2    0    0  0.28019918546E+02  0.30036869011E+03 -0.17163013397E+03  0.40008045281E+03  0.19900000000E+03 0.  0.
<mgrwt>
<rscale>  0 0.72289134E+03</rscale>
<asrwt>0</asrwt>
<pdfrwt beam="1">  1        2 0.33182818E-01 0.72289134E+03</pdfrwt>
<pdfrwt beam="2">  1       -2 0.80348303E-01 0.72289134E+03</pdfrwt>
<totfact> 0.21937494E+02</totfact>
</mgrwt>
</event>
<event>
 4    1  0.1724904E-005  0.4689372E+03  0.7818608E-02  0.1022221E+00
          2   -1    0    0  501    0  0.00000000000E+00  0.00000000000E+00  0.12298997277E+04  0.12298997277E+04  0.25500000000E-02 0.  1.
         -2   -1    0    0    0  501 -0.00000000000E+00 -0.00000000000E+00 -0.44699183592E+02  0.44699183664E+02  0.25500000000E-02 0. -1.
    5000001    1    1    2    0    0 -0.76161414340E+02 -0.97726988094E+02  0.57945527583E+03  0.62507642887E+03  0.19900000000E+03 0.  0.
   -5000001    1    1    2    0    0  0.76161414340E+02  0.97726988094E+02  0.60574526831E+03  0.64952248254E+03  0.19900000000E+03 0.  0.
<mgrwt>
<rscale>  0 0.46893715E+03</rscale>
<asrwt>0</asrwt>
<pdfrwt beam="1">  1        2 0.17569993E+00 0.46893715E+03</pdfrwt>
<pdfrwt beam="2">  1       -2 0.63855986E-02 0.46893715E+03</pdfrwt>
<totfact> 0.29078574E+03</totfact>
</mgrwt>
</event>
<event>
 4    1  0.1724904E-005  0.4881801E+03  0.7818608E-02  0.1016911E+00
          2   -1    0    0  501    0  0.00000000000E+00  0.00000000000E+00  0.13215464665E+04  0.13215464665E+04  0.25500000000E-02 0.  1.
         -2   -1    0    0    0  501 -0.00000000000E+00 -0.00000000000E+00 -0.45083515663E+02  0.45083515735E+02  0.25500000000E-02 0. -1.
    5000001    1    1    2    0    0  0.57493113938E+02  0.12265862171E+03  0.52526573483E+03  0.57780246436E+03  0.19900000000E+03 0.  0.
   -5000001    1    1    2    0    0 -0.57493113938E+02 -0.12265862171E+03  0.75119721603E+03  0.78882751791E+03  0.19900000000E+03 0.  0.
<mgrwt>
<rscale>  0 0.48818013E+03</rscale>
<asrwt>0</asrwt>
<pdfrwt beam="1">  1        2 0.18879235E+00 0.48818013E+03</pdfrwt>
<pdfrwt beam="2">  1       -2 0.64405024E-02 0.48818013E+03</pdfrwt>
<totfact> 0.25583016E+03</totfact>
</mgrwt>
</event>
<event>
 4    1  0.1724904E-005  0.5561618E+03  0.7818608E-02  0.1000078E+00
          2   -1    0    0  501    0  0.00000000000E+00  0.00000000000E+00  0.38949930239E+03  0.38949930240E+03  0.25500000000E-02 0.  1.
         -2   -1    0    0    0  501 -0.00000000000E+00 -0.00000000000E+00 -0.19853431094E+03  0.19853431096E+03  0.25500000000E-02 0. -1.
    5000001    1    1    2    0    0 -0.18135374598E+03 -0.62146904859E+02  0.62441756897E+02  0.28328676631E+03  0.19900000000E+03 0.  0.
   -5000001    1    1    2    0    0  0.18135374598E+03  0.62146904859E+02  0.12852323456E+03  0.30474684704E+03  0.19900000000E+03 0.  0.
<mgrwt>
<rscale>  0 0.55616176E+03</rscale>
<asrwt>0</asrwt>
<pdfrwt beam="1">  1        2 0.55642758E-01 0.55616176E+03</pdfrwt>
<pdfrwt beam="2">  1       -2 0.28362044E-01 0.55616176E+03</pdfrwt>
<totfact> 0.10154524E+03</totfact>
</mgrwt>
</event>
<event>
 4    1  0.1724904E-005  0.7162722E+03  0.7818608E-02  0.9689802E-01
         -2   -1    0    0    0  501 -0.00000000000E+00  0.00000000000E+00  0.10680160263E+03  0.10680160266E+03  0.25500000000E-02 0. -1.
          2   -1    0    0  501    0  0.00000000000E+00 -0.00000000000E+00 -0.12009319141E+04  0.12009319141E+04  0.25500000000E-02 0.  1.
    5000001    1    1    2    0    0  0.18356873231E+03 -0.12870226419E+03 -0.18929884180E+03  0.35453745048E+03  0.19900000000E+03 0.  0.
   -5000001    1    1    2    0    0 -0.18356873231E+03  0.12870226419E+03 -0.90483146969E+03  0.95319606631E+03  0.19900000000E+03 0.  0.
<mgrwt>
<rscale>  0 0.71627216E+03</rscale>
<asrwt>0</asrwt>
<pdfrwt beam="1">  1        2 0.17156169E+00 0.71627216E+03</pdfrwt>
<pdfrwt beam="2">  1       -2 0.15257373E-01 0.71627216E+03</pdfrwt>
<totfact> 0.73104588E+02</totfact>
</mgrwt>
</event>
<event>
 4    1  0.1724904E-005  0.5500601E+03  0.7818608E-02  0.1001480E+00
         -2   -1    0    0    0  501 -0.00000000000E+00  0.00000000000E+00  0.79731716064E+02  0.79731716105E+02  0.25500000000E-02 0. -1.
          2   -1    0    0  501    0  0.00000000000E+00 -0.00000000000E+00 -0.94870070916E+03  0.94870070917E+03  0.25500000000E-02 0.  1.
    5000001    1    1    2    0    0 -0.13988023773E+03  0.90716546407E+02 -0.60424998786E+03  0.65765874170E+03  0.19900000000E+03 0.  0.
   -5000001    1    1    2    0    0  0.13988023773E+03 -0.90716546407E+02 -0.26471900524E+03  0.37077368358E+03  0.19900000000E+03 0.  0.
<mgrwt>
<rscale>  0 0.55006013E+03</rscale>
<asrwt>0</asrwt>
<pdfrwt beam="1">  1        2 0.13552867E+00 0.55006013E+03</pdfrwt>
<pdfrwt beam="2">  1       -2 0.11390246E-01 0.55006013E+03</pdfrwt>
<totfact> 0.16826825E+03</totfact>
</mgrwt>
</event>
<event>
 4    1  0.1724904E-005  0.8298509E+03  0.7818608E-02  0.9517787E-01
         -2   -1    0    0    0  501 -0.00000000000E+00  0.00000000000E+00  0.93778853846E+02  0.93778853881E+02  0.25500000000E-02 0. -1.
          2   -1    0    0  501    0  0.00000000000E+00 -0.00000000000E+00 -0.18358418943E+04  0.18358418943E+04  0.25500000000E-02 0.  1.
    5000001    1    1    2    0    0  0.26694501940E+03  0.15499681788E+03 -0.42207836017E+03  0.55949512872E+03  0.19900000000E+03 0.  0.
   -5000001    1    1    2    0    0 -0.26694501940E+03 -0.15499681788E+03 -0.13199846803E+04  0.13701256195E+04  0.19900000000E+03 0.  0.
<mgrwt>
<rscale>  0 0.82985095E+03</rscale>
<asrwt>0</asrwt>
<pdfrwt beam="1">  1        2 0.26226311E+00 0.82985095E+03</pdfrwt>
<pdfrwt beam="2">  1       -2 0.13396980E-01 0.82985095E+03</pdfrwt>
<totfact> 0.41788184E+02</totfact>
</mgrwt>
</event>
<event>
 4    1  0.1724904E-005  0.6003268E+03  0.7818608E-02  0.9904728E-01
         -2   -1    0    0    0  501 -0.00000000000E+00  0.00000000000E+00  0.53167650953E+02  0.53167651014E+02  0.25500000000E-02 0. -1.
          2   -1    0    0  501    0  0.00000000000E+00 -0.00000000000E+00 -0.16946031689E+04  0.16946031689E+04  0.25500000000E-02 0.  1.
    5000001    1    1    2    0    0 -0.19640586334E+03 -0.61255991539E+02 -0.55757298200E+03  0.62675050053E+03  0.19900000000E+03 0.  0.
   -5000001    1    1    2    0    0  0.19640586334E+03  0.61255991539E+02 -0.10838625359E+04  0.11210203194E+04  0.19900000000E+03 0.  0.
<mgrwt>
<rscale>  0 0.60032681E+03</rscale>
<asrwt>0</asrwt>
<pdfrwt beam="1">  1        2 0.24208613E+00 0.60032681E+03</pdfrwt>
<pdfrwt beam="2">  1       -2 0.75953798E-02 0.60032681E+03</pdfrwt>
<totfact> 0.12578862E+03</totfact>
</mgrwt>
</event>
<event>
 4    1  0.1724904E-005  0.5126818E+03  0.7818608E-02  0.1010521E+00
         -2   -1    0    0    0  501 -0.00000000000E+00  0.00000000000E+00  0.52582738732E+02  0.52582738794E+02  0.25500000000E-02 0. -1.
          2   -1    0    0  501    0  0.00000000000E+00 -0.00000000000E+00 -0.12496618992E+04  0.12496618992E+04  0.25500000000E-02 0.  1.
    5000001    1    1    2    0    0  0.99763872547E+02 -0.36958361940E+02 -0.90745667006E+03  0.93509216595E+03  0.19900000000E+03 0.  0.
   -5000001    1    1    2    0    0 -0.99763872547E+02  0.36958361940E+02 -0.28962249042E+03  0.36715247206E+03  0.19900000000E+03 0.  0.
<mgrwt>
<rscale>  0 0.51268175E+03</rscale>
<asrwt>0</asrwt>
<pdfrwt beam="1">  1        2 0.17852311E+00 0.51268175E+03</pdfrwt>
<pdfrwt beam="2">  1       -2 0.75118206E-02 0.51268175E+03</pdfrwt>
<totfact> 0.21962681E+03</totfact>
</mgrwt>
</event>
<event>
 4    1  0.1724904E-005  0.5208656E+03  0.7818608E-02  0.1008472E+00
         -2   -1    0    0    0  501 -0.00000000000E+00  0.00000000000E+00  0.67665406121E+02  0.67665406170E+02  0.25500000000E-02 0. -1.
          2   -1    0    0  501    0  0.00000000000E+00 -0.00000000000E+00 -0.10023622648E+04  0.10023622648E+04  0.25500000000E-02 0.  1.
    5000001    1    1    2    0    0 -0.15176493531E+03 -0.47804525005E+02 -0.35659794691E+03  0.43827042330E+03  0.19900000000E+03 0.  0.
   -5000001    1    1    2    0    0  0.15176493531E+03  0.47804525005E+02 -0.57809891178E+03  0.63175724768E+03  0.19900000000E+03 0.  0.
<mgrwt>
<rscale>  0 0.52086562E+03</rscale>
<asrwt>0</asrwt>
<pdfrwt beam="1">  1        2 0.14319460E+00 0.52086562E+03</pdfrwt>
<pdfrwt beam="2">  1       -2 0.96664872E-02 0.52086562E+03</pdfrwt>
<totfact> 0.20361031E+03</totfact>
</mgrwt>
</event>
<event>
 4    1  0.1724904E-005  0.4980099E+03  0.7818608E-02  0.1014300E+00
         -2   -1    0    0    0  501 -0.00000000000E+00  0.00000000000E+00  0.10815549111E+03  0.10815549114E+03  0.25500000000E-02 0. -1.
          2   -1    0    0  501    0  0.00000000000E+00 -0.00000000000E+00 -0.57328067332E+03  0.57328067332E+03  0.25500000000E-02 0.  1.
    5000001    1    1    2    0    0  0.13262526118E+03  0.68864998465E+02 -0.22106506104E+03  0.33287025870E+03  0.19900000000E+03 0.  0.
   -5000001    1    1    2    0    0 -0.13262526118E+03 -0.68864998465E+02 -0.24406012116E+03  0.34856590576E+03  0.19900000000E+03 0.  0.
<mgrwt>
<rscale>  0 0.49800985E+03</rscale>
<asrwt>0</asrwt>
<pdfrwt beam="1">  1        2 0.81897237E-01 0.49800985E+03</pdfrwt>
<pdfrwt beam="2">  1       -2 0.15450785E-01 0.49800985E+03</pdfrwt>
<totfact> 0.19007497E+03</totfact>
</mgrwt>
</event>
<event>
 4    1  0.1724904E-005  0.6323590E+03  0.7818608E-02  0.9840456E-01
         -2   -1    0    0    0  501 -0.00000000000E+00  0.00000000000E+00  0.94862298456E+02  0.94862298491E+02  0.25500000000E-02 0. -1.
          2   -1    0    0  501    0  0.00000000000E+00 -0.00000000000E+00 -0.10538378051E+04  0.10538378052E+04  0.25500000000E-02 0.  1.
    5000001    1    1    2    0    0 -0.15768799006E+03 -0.18445627080E+03 -0.54934416098E+03  0.63266865360E+03  0.19900000000E+03 0.  0.
   -5000001    1    1    2    0    0  0.15768799006E+03  0.18445627080E+03 -0.40963134571E+03  0.51603145004E+03  0.19900000000E+03 0.  0.
<mgrwt>
<rscale>  0 0.63235900E+03</rscale>
<asrwt>0</asrwt>
<pdfrwt beam="1">  1        2 0.15054825E+00 0.63235900E+03</pdfrwt>
<pdfrwt beam="2">  1       -2 0.13551758E-01 0.63235900E+03</pdfrwt>
<totfact> 0.10881351E+03</totfact>
</mgrwt>
</event>
<event>
 4    1  0.1724904E-005  0.7403009E+03  0.7818608E-02  0.9650691E-01
          2   -1    0    0  501    0  0.00000000000E+00  0.00000000000E+00  0.41591451713E+03  0.41591451713E+03  0.25500000000E-02 0.  1.
         -2   -1    0    0    0  501 -0.00000000000E+00 -0.00000000000E+00 -0.32942195415E+03  0.32942195416E+03  0.25500000000E-02 0. -1.
    5000001    1    1    2    0    0  0.28402810133E+03 -0.12800633278E+03  0.24335832304E+02  0.37047377277E+03  0.19900000000E+03 0.  0.
   -5000001    1    1    2    0    0 -0.28402810133E+03  0.12800633278E+03  0.62156730671E+02  0.37486269852E+03  0.19900000000E+03 0.  0.
<mgrwt>
<rscale>  0 0.74030095E+03</rscale>
<asrwt>0</asrwt>
<pdfrwt beam="1">  1        2 0.59416359E-01 0.74030095E+03</pdfrwt>
<pdfrwt beam="2">  1       -2 0.47060279E-01 0.74030095E+03</pdfrwt>
<totfact> 0.35682063E+02</totfact>
</mgrwt>
</event>
<event>
 4    1  0.1724904E-005  0.1021074E+04  0.7818608E-02  0.9285729E-01
          2   -1    0    0  501    0  0.00000000000E+00  0.00000000000E+00  0.13686110097E+04  0.13686110097E+04  0.25500000000E-02 0. -1.
         -2   -1    0    0    0  501 -0.00000000000E+00 -0.00000000000E+00 -0.19044708750E+03  0.19044708752E+03  0.25500000000E-02 0.  1.
    5000001    1    1    2    0    0  0.21759632448E+03  0.19013777490E+03  0.22803805127E+02  0.35159856001E+03  0.19900000000E+03 0.  0.
   -5000001    1    1    2    0    0 -0.21759632448E+03 -0.19013777490E+03  0.11553601171E+04  0.12074595372E+04  0.19900000000E+03 0.  0.
<mgrwt>
<rscale>  0 0.10210739E+04</rscale>
<asrwt>0</asrwt>
<pdfrwt beam="1">  1        2 0.19551586E+00 0.10210739E+04</pdfrwt>
<pdfrwt beam="2">  1       -2 0.27206727E-01 0.10210739E+04</pdfrwt>
<totfact> 0.21040254E+02</totfact>
</mgrwt>
</event>
<event>
 4    1  0.1724904E-005  0.6261922E+03  0.7818608E-02  0.9852508E-01
          2   -1    0    0  501    0  0.00000000000E+00  0.00000000000E+00  0.11056328142E+03  0.11056328145E+03  0.25500000000E-02 0.  1.
         -2   -1    0    0    0  501 -0.00000000000E+00 -0.00000000000E+00 -0.88663390093E+03  0.88663390093E+03  0.25500000000E-02 0. -1.
    5000001    1    1    2    0    0  0.14482257306E+03  0.43318921808E+02 -0.68841078590E+03  0.73236638153E+03  0.19900000000E+03 0.  0.
   -5000001    1    1    2    0    0 -0.14482257306E+03 -0.43318921808E+02 -0.87659833612E+02  0.26483080086E+03  0.19900000000E+03 0.  0.
<mgrwt>
<rscale>  0 0.62619215E+03</rscale>
<asrwt>0</asrwt>
<pdfrwt beam="1">  1        2 0.15794755E-01 0.62619215E+03</pdfrwt>
<pdfrwt beam="2">  1       -2 0.12666198E+00 0.62619215E+03</pdfrwt>
<totfact> 0.17701181E+02</totfact>
</mgrwt>
</event>
<event>
 4    1  0.1724904E-005  0.1468315E+04  0.7818608E-02  0.8905801E-01
         -2   -1    0    0    0  501 -0.00000000000E+00  0.00000000000E+00  0.31169939460E+03  0.31169939461E+03  0.25500000000E-02 0. -1.
          2   -1    0    0  501    0  0.00000000000E+00 -0.00000000000E+00 -0.17291885909E+04  0.17291885909E+04  0.25500000000E-02 0.  1.
    5000001    1    1    2    0    0 -0.26831449719E+03 -0.36125058401E+03  0.48609203471E+02  0.49442745526E+03  0.19900000000E+03 0.  0.
   -5000001    1    1    2    0    0  0.26831449719E+03  0.36125058401E+03 -0.14660983998E+04  0.15464605303E+04  0.19900000000E+03 0.  0.
<mgrwt>
<rscale>  0 0.14683147E+04</rscale>
<asrwt>0</asrwt>
<pdfrwt beam="1">  1        2 0.24702694E+00 0.14683147E+04</pdfrwt>
<pdfrwt beam="2">  1       -2 0.44528486E-01 0.14683147E+04</pdfrwt>
<totfact> 0.51358505E+01</totfact>
</mgrwt>
</event>
<event>
 4    1  0.1724904E-005  0.4698420E+03  0.7818608E-02  0.1021965E+00
          2   -1    0    0  501    0  0.00000000000E+00  0.00000000000E+00  0.19839400782E+04  0.19839400782E+04  0.25500000000E-02 0.  1.
         -2   -1    0    0    0  501 -0.00000000000E+00 -0.00000000000E+00 -0.27817312610E+02  0.27817312727E+02  0.25500000000E-02 0. -1.
    5000001    1    1    2    0    0  0.55111263664E+02  0.88142032808E+02  0.12741116815E+04  0.12937418004E+04  0.19900000000E+03 0.  0.
   -5000001    1    1    2    0    0 -0.55111263664E+02 -0.88142032808E+02  0.68201108411E+03  0.71801559049E+03  0.19900000000E+03 0.  0.
<mgrwt>
<rscale>  0 0.46984202E+03</rscale>
<asrwt>0</asrwt>
<pdfrwt beam="1">  1        2 0.28342013E+00 0.46984202E+03</pdfrwt>
<pdfrwt beam="2">  1       -2 0.39739001E-02 0.46984202E+03</pdfrwt>
<totfact> 0.24783278E+03</totfact>
</mgrwt>
</event>
<event>
 4    1  0.1724904E-005  0.6007876E+03  0.7818608E-02  0.9903773E-01
          2   -1    0    0  501    0  0.00000000000E+00  0.00000000000E+00  0.17784139532E+03  0.17784139533E+03  0.25500000000E-02 0.  1.
         -2   -1    0    0    0  501 -0.00000000000E+00 -0.00000000000E+00 -0.50739835497E+03  0.50739835498E+03  0.25500000000E-02 0. -1.
    5000001    1    1    2    0    0  0.17670865628E+03  0.13931503339E+03 -0.16580099417E+03  0.34311163985E+03  0.19900000000E+03 0.  0.
   -5000001    1    1    2    0    0 -0.17670865628E+03 -0.13931503339E+03 -0.16375596548E+03  0.34212811046E+03  0.19900000000E+03 0.  0.
<mgrwt>
<rscale>  0 0.60078759E+03</rscale>
<asrwt>0</asrwt>
<pdfrwt beam="1">  1        2 0.25405914E-01 0.60078759E+03</pdfrwt>
<pdfrwt beam="2">  1       -2 0.72485478E-01 0.60078759E+03</pdfrwt>
<totfact> 0.37402861E+02</totfact>
</mgrwt>
</event>
<event>
 4    1  0.1724904E-005  0.8624019E+03  0.7818608E-02  0.9473841E-01
         -2   -1    0    0    0  501 -0.00000000000E+00  0.00000000000E+00  0.67608134969E+02  0.67608135017E+02  0.25500000000E-02 0. -1.
          2   -1    0    0  501    0  0.00000000000E+00 -0.00000000000E+00 -0.27501756679E+04  0.27501756680E+04  0.25500000000E-02 0.  1.
    5000001    1    1    2    0    0 -0.17470303992E+03 -0.32868131365E+03 -0.10530751071E+04  0.11345134372E+04  0.19900000000E+03 0.  0.
   -5000001    1    1    2    0    0  0.17470303992E+03  0.32868131365E+03 -0.16294924259E+04  0.16832703658E+04  0.19900000000E+03 0.  0.
<mgrwt>
<rscale>  0 0.86240187E+03</rscale>
<asrwt>0</asrwt>
<pdfrwt beam="1">  1        2 0.39288217E+00 0.86240187E+03</pdfrwt>
<pdfrwt beam="2">  1       -2 0.96583067E-02 0.86240187E+03</pdfrwt>
<totfact> 0.24208336E+02</totfact>
</mgrwt>
</event>
<event>
 4    1  0.1724904E-005  0.5582479E+03  0.7818608E-02  0.9996027E-01
         -2   -1    0    0    0  501 -0.00000000000E+00  0.00000000000E+00  0.38438164466E+02  0.38438164551E+02  0.25500000000E-02 0. -1.
          2   -1    0    0  501    0  0.00000000000E+00 -0.00000000000E+00 -0.20268963350E+04  0.20268963350E+04  0.25500000000E-02 0.  1.
    5000001    1    1    2    0    0  0.79744239587E+02  0.17858153933E+03 -0.96589219141E+03  0.10053851179E+04  0.19900000000E+03 0.  0.
   -5000001    1    1    2    0    0 -0.79744239587E+02 -0.17858153933E+03 -0.10225659792E+04  0.10599493817E+04  0.19900000000E+03 0.  0.
<mgrwt>
<rscale>  0 0.55824788E+03</rscale>
<asrwt>0</asrwt>
<pdfrwt beam="1">  1        2 0.28955655E+00 0.55824788E+03</pdfrwt>
<pdfrwt beam="2">  1       -2 0.54911676E-02 0.55824788E+03</pdfrwt>
<totfact> 0.14275229E+03</totfact>
</mgrwt>
</event>
<event>
 4    1  0.1724904E-005  0.6143585E+03  0.7818608E-02  0.9876057E-01
         -2   -1    0    0    0  501 -0.00000000000E+00  0.00000000000E+00  0.74822990765E+02  0.74822990808E+02  0.25500000000E-02 0. -1.
          2   -1    0    0  501    0  0.00000000000E+00 -0.00000000000E+00 -0.12610973936E+04  0.12610973936E+04  0.25500000000E-02 0.  1.
    5000001    1    1    2    0    0  0.88893482343E+02 -0.10134679729E+03 -0.10090568133E+04  0.10372896784E+04  0.19900000000E+03 0.  0.
   -5000001    1    1    2    0    0 -0.88893482343E+02  0.10134679729E+03 -0.17721758960E+03  0.29863070604E+03  0.19900000000E+03 0.  0.
<mgrwt>
<rscale>  0 0.61435846E+03</rscale>
<asrwt>0</asrwt>
<pdfrwt beam="1">  1        2 0.18015676E+00 0.61435846E+03</pdfrwt>
<pdfrwt beam="2">  1       -2 0.10688999E-01 0.61435846E+03</pdfrwt>
<totfact> 0.12260915E+03</totfact>
</mgrwt>
</event>
<event>
 4    1  0.1724904E-005  0.7371213E+03  0.7818608E-02  0.9655774E-01
          2   -1    0    0  501    0  0.00000000000E+00  0.00000000000E+00  0.64245187889E+02  0.64245187939E+02  0.25500000000E-02 0.  1.
         -2   -1    0    0    0  501 -0.00000000000E+00 -0.00000000000E+00 -0.21143523499E+04  0.21143523499E+04  0.25500000000E-02 0. -1.
    5000001    1    1    2    0    0 -0.23889397833E+03  0.19464660961E+03 -0.11307254211E+04  0.11887382442E+04  0.19900000000E+03 0.  0.
   -5000001    1    1    2    0    0  0.23889397833E+03 -0.19464660961E+03 -0.91938174097E+03  0.98985929361E+03  0.19900000000E+03 0.  0.
<mgrwt>
<rscale>  0 0.73712133E+03</rscale>
<asrwt>0</asrwt>
<pdfrwt beam="1">  1        2 0.91778853E-02 0.73712133E+03</pdfrwt>
<pdfrwt beam="2">  1       -2 0.30205029E+00 0.73712133E+03</pdfrwt>
<totfact> 0.23897529E+01</totfact>
</mgrwt>
</event>
<event>
 4    1  0.1724904E-005  0.6205152E+03  0.7818608E-02  0.9863734E-01
          2   -1    0    0  501    0  0.00000000000E+00  0.00000000000E+00  0.18587264965E+04  0.18587264965E+04  0.25500000000E-02 0.  1.
         -2   -1    0    0    0  501 -0.00000000000E+00 -0.00000000000E+00 -0.51788031726E+02  0.51788031789E+02  0.25500000000E-02 0. -1.
    5000001    1    1    2    0    0 -0.17300769952E+03  0.12344956892E+03  0.12334642531E+04  0.12673620334E+04  0.19900000000E+03 0.  0.
   -5000001    1    1    2    0    0  0.17300769952E+03 -0.12344956892E+03  0.57347421165E+03  0.64315249481E+03  0.19900000000E+03 0.  0.
<mgrwt>
<rscale>  0 0.62051523E+03</rscale>
<asrwt>0</asrwt>
<pdfrwt beam="1">  1        2 0.26553240E+00 0.62051523E+03</pdfrwt>
<pdfrwt beam="2">  1       -2 0.73982892E-02 0.62051523E+03</pdfrwt>
<totfact> 0.10821178E+03</totfact>
</mgrwt>
</event>
<event>
 4    1  0.1724904E-005  0.8109608E+03  0.7818608E-02  0.9544286E-01
          2   -1    0    0  501    0  0.00000000000E+00  0.00000000000E+00  0.86200583602E+03  0.86200583602E+03  0.25500000000E-02 0.  1.
         -2   -1    0    0    0  501 -0.00000000000E+00 -0.00000000000E+00 -0.19073461555E+03  0.19073461557E+03  0.25500000000E-02 0. -1.
    5000001    1    1    2    0    0  0.12167178032E+03  0.31287745379E+03  0.19273979241E+03  0.43525389234E+03  0.19900000000E+03 0.  0.
   -5000001    1    1    2    0    0 -0.12167178032E+03 -0.31287745379E+03  0.47853142805E+03  0.61748655925E+03  0.19900000000E+03 0.  0.
<mgrwt>
<rscale>  0 0.81096079E+03</rscale>
<asrwt>0</asrwt>
<pdfrwt beam="1">  1        2 0.12314369E+00 0.81096079E+03</pdfrwt>
<pdfrwt beam="2">  1       -2 0.27247802E-01 0.81096079E+03</pdfrwt>
<totfact> 0.42310486E+02</totfact>
</mgrwt>
</event>
<event>
 4    1  0.1724904E-005  0.1055602E+04  0.7818608E-02  0.9249579E-01
         -2   -1    0    0    0  501 -0.00000000000E+00  0.00000000000E+00  0.96845016133E+03  0.96845016133E+03  0.25500000000E-02 0. -1.
          2   -1    0    0  501    0  0.00000000000E+00 -0.00000000000E+00 -0.28764932394E+03  0.28764932395E+03  0.25500000000E-02 0.  1.
    5000001    1    1    2    0    0 -0.33920390617E+03 -0.30925070716E+03  0.54049996646E+03  0.73650288770E+03  0.19900000000E+03 0.  0.
   -5000001    1    1    2    0    0  0.33920390617E+03  0.30925070716E+03  0.14030087093E+03  0.51959659759E+03  0.19900000000E+03 0.  0.
<mgrwt>
<rscale>  0 0.10556023E+04</rscale>
<asrwt>0</asrwt>
<pdfrwt beam="1">  1        2 0.41092759E-01 0.10556023E+04</pdfrwt>
<pdfrwt beam="2">  1       -2 0.13835003E+00 0.10556023E+04</pdfrwt>
<totfact> 0.46074637E+01</totfact>
</mgrwt>
</event>
<event>
 4    1  0.1724904E-005  0.8267057E+03  0.7818608E-02  0.9522146E-01
          2   -1    0    0  501    0  0.00000000000E+00  0.00000000000E+00  0.10798163490E+04  0.10798163490E+04  0.25500000000E-02 0.  1.
         -2   -1    0    0    0  501 -0.00000000000E+00 -0.00000000000E+00 -0.15823116399E+03  0.15823116401E+03  0.25500000000E-02 0. -1.
    5000001    1    1    2    0    0  0.89724203854E+02  0.25149624243E+03  0.94090962600E+02  0.34605621213E+03  0.19900000000E+03 0.  0.
   -5000001    1    1    2    0    0 -0.89724203854E+02 -0.25149624243E+03  0.82749422241E+03  0.89199130087E+03  0.19900000000E+03 0.  0.
<mgrwt>
<rscale>  0 0.82670575E+03</rscale>
<asrwt>0</asrwt>
<pdfrwt beam="1">  1        2 0.15425948E+00 0.82670575E+03</pdfrwt>
<pdfrwt beam="2">  1       -2 0.22604452E-01 0.82670575E+03</pdfrwt>
<totfact> 0.43242506E+02</totfact>
</mgrwt>
</event>
<event>
 4    1  0.1724904E-005  0.5388450E+03  0.7818608E-02  0.1004109E+00
         -2   -1    0    0    0  501 -0.00000000000E+00  0.00000000000E+00  0.36802097481E+02  0.36802097569E+02  0.25500000000E-02 0. -1.
          2   -1    0    0  501    0  0.00000000000E+00 -0.00000000000E+00 -0.19724008870E+04  0.19724008870E+04  0.25500000000E-02 0.  1.
    5000001    1    1    2    0    0 -0.57408230166E+02 -0.13791838682E+03 -0.58263305682E+03  0.63354515642E+03  0.19900000000E+03 0.  0.
   -5000001    1    1    2    0    0  0.57408230166E+02  0.13791838682E+03 -0.13529657327E+04  0.13756578282E+04  0.19900000000E+03 0.  0.
<mgrwt>
<rscale>  0 0.53884502E+03</rscale>
<asrwt>0</asrwt>
<pdfrwt beam="1">  1        2 0.28177149E+00 0.53884502E+03</pdfrwt>
<pdfrwt beam="2">  1       -2 0.52574437E-02 0.53884502E+03</pdfrwt>
<totfact> 0.16278810E+03</totfact>
</mgrwt>
</event>
<event>
 4    1  0.1724904E-005  0.4984469E+03  0.7818608E-02  0.1014185E+00
          2   -1    0    0  501    0  0.00000000000E+00  0.00000000000E+00  0.25810751634E+03  0.25810751635E+03  0.25500000000E-02 0.  1.
         -2   -1    0    0    0  501 -0.00000000000E+00 -0.00000000000E+00 -0.24064513697E+03  0.24064513699E+03  0.25500000000E-02 0. -1.
    5000001    1    1    2    0    0 -0.13052100408E+03 -0.65024805353E+02  0.44070852435E+02  0.25061364259E+03  0.19900000000E+03 0.  0.
   -5000001    1    1    2    0    0  0.13052100408E+03  0.65024805353E+02 -0.26608473072E+02  0.24813901075E+03  0.19900000000E+03 0.  0.
<mgrwt>
<rscale>  0 0.49844686E+03</rscale>
<asrwt>0</asrwt>
<pdfrwt beam="1">  1        2 0.36872502E-01 0.49844686E+03</pdfrwt>
<pdfrwt beam="2">  1       -2 0.34377877E-01 0.49844686E+03</pdfrwt>
<totfact> 0.11184174E+03</totfact>
</mgrwt>
</event>
<event>
 4    1  0.1724904E-005  0.4250668E+03  0.7818608E-02  0.1035430E+00
          2   -1    0    0  501    0  0.00000000000E+00  0.00000000000E+00  0.16495546689E+04  0.16495546689E+04  0.25500000000E-02 0.  1.
         -2   -1    0    0    0  501 -0.00000000000E+00 -0.00000000000E+00 -0.27383413008E+02  0.27383413127E+02  0.25500000000E-02 0. -1.
    5000001    1    1    2    0    0 -0.73503707944E+02  0.12218095647E+02  0.79464819726E+03  0.82256843749E+03  0.19900000000E+03 0.  0.
   -5000001    1    1    2    0    0  0.73503707944E+02 -0.12218095647E+02  0.82752305860E+03  0.85436964451E+03  0.19900000000E+03 0.  0.
<mgrwt>
<rscale>  0 0.42506676E+03</rscale>
<asrwt>0</asrwt>
<pdfrwt beam="1">  1        2 0.23565071E+00 0.42506676E+03</pdfrwt>
<pdfrwt beam="2">  1       -2 0.39119155E-02 0.42506676E+03</pdfrwt>
<totfact> 0.37335303E+03</totfact>
</mgrwt>
</event>
<event>
 4    1  0.1724904E-005  0.6476461E+03  0.7818608E-02  0.9811206E-01
          2   -1    0    0  501    0  0.00000000000E+00  0.00000000000E+00  0.16519693492E+04  0.16519693492E+04  0.25500000000E-02 0.  1.
         -2   -1    0    0    0  501 -0.00000000000E+00 -0.00000000000E+00 -0.63476582258E+02  0.63476582309E+02  0.25500000000E-02 0. -1.
    5000001    1    1    2    0    0  0.19318837906E+03  0.11231835331E+03  0.11221257587E+04  0.11613373243E+04  0.19900000000E+03 0.  0.
   -5000001    1    1    2    0    0 -0.19318837906E+03 -0.11231835331E+03  0.46636700822E+03  0.55410860727E+03  0.19900000000E+03 0.  0.
<mgrwt>
<rscale>  0 0.64764610E+03</rscale>
<asrwt>0</asrwt>
<pdfrwt beam="1">  1        2 0.23599559E+00 0.64764610E+03</pdfrwt>
<pdfrwt beam="2">  1       -2 0.90680844E-02 0.64764610E+03</pdfrwt>
<totfact> 0.99402765E+02</totfact>
</mgrwt>
</event>
<event>
 4    1  0.1724904E-005  0.5260333E+03  0.7818608E-02  0.1007199E+00
          2   -1    0    0  501    0  0.00000000000E+00  0.00000000000E+00  0.44999336301E+03  0.44999336302E+03  0.25500000000E-02 0.  1.
         -2   -1    0    0    0  501 -0.00000000000E+00 -0.00000000000E+00 -0.15373060285E+03  0.15373060287E+03  0.25500000000E-02 0. -1.
    5000001    1    1    2    0    0 -0.17015893334E+03 -0.10825317468E+02  0.12232743181E+03  0.28919932688E+03  0.19900000000E+03 0.  0.
   -5000001    1    1    2    0    0  0.17015893334E+03  0.10825317468E+02  0.17393532836E+03  0.31452463901E+03  0.19900000000E+03 0.  0.
<mgrwt>
<rscale>  0 0.52603327E+03</rscale>
<asrwt>0</asrwt>
<pdfrwt beam="1">  1        2 0.64284766E-01 0.52603327E+03</pdfrwt>
<pdfrwt beam="2">  1       -2 0.21961515E-01 0.52603327E+03</pdfrwt>
<totfact> 0.13677463E+03</totfact>
</mgrwt>
</event>
<event>
 4    1  0.1724904E-005  0.5065661E+03  0.7818608E-02  0.1012079E+00
          2   -1    0    0  501    0  0.00000000000E+00  0.00000000000E+00  0.93451122226E+03  0.93451122226E+03  0.25500000000E-02 0.  1.
         -2   -1    0    0    0  501 -0.00000000000E+00 -0.00000000000E+00 -0.68647978318E+02  0.68647978366E+02  0.25500000000E-02 0. -1.
    5000001    1    1    2    0    0 -0.38604712604E+02  0.74641926681E+02  0.17103901811E+03  0.27553055506E+03  0.19900000000E+03 0.  0.
   -5000001    1    1    2    0    0  0.38604712604E+02 -0.74641926681E+02  0.69482422583E+03  0.72762864557E+03  0.19900000000E+03 0.  0.
<mgrwt>
<rscale>  0 0.50656611E+03</rscale>
<asrwt>0</asrwt>
<pdfrwt beam="1">  1        2 0.13350160E+00 0.50656611E+03</pdfrwt>
<pdfrwt beam="2">  1       -2 0.98068545E-02 0.50656611E+03</pdfrwt>
<totfact> 0.21905839E+03</totfact>
</mgrwt>
</event>
<event>
 4    1  0.1724904E-005  0.7148038E+03  0.7818608E-02  0.9692245E-01
          2   -1    0    0  501    0  0.00000000000E+00  0.00000000000E+00  0.14435084624E+04  0.14435084624E+04  0.25500000000E-02 0.  1.
         -2   -1    0    0    0  501 -0.00000000000E+00 -0.00000000000E+00 -0.88490039397E+02  0.88490039434E+02  0.25500000000E-02 0. -1.
    5000001    1    1    2    0    0 -0.11332877628E+03  0.25851236995E+03  0.48034172926E+03  0.59160902107E+03  0.19900000000E+03 0.  0.
   -5000001    1    1    2    0    0  0.11332877628E+03 -0.25851236995E+03  0.87467669375E+03  0.94038948077E+03  0.19900000000E+03 0.  0.
<mgrwt>
<rscale>  0 0.71480381E+03</rscale>
<asrwt>0</asrwt>
<pdfrwt beam="1">  1        2 0.20621549E+00 0.71480381E+03</pdfrwt>
<pdfrwt beam="2">  1       -2 0.12641435E-01 0.71480381E+03</pdfrwt>
<totfact> 0.73905204E+02</totfact>
</mgrwt>
</event>
<event>
 4    1  0.1724904E-005  0.6466069E+03  0.7818608E-02  0.9813167E-01
          2   -1    0    0  501    0  0.00000000000E+00  0.00000000000E+00  0.19164013724E+04  0.19164013724E+04  0.25500000000E-02 0.  1.
         -2   -1    0    0    0  501 -0.00000000000E+00 -0.00000000000E+00 -0.54542398126E+02  0.54542398186E+02  0.25500000000E-02 0. -1.
    5000001    1    1    2    0    0  0.22028992180E+03  0.11783580861E+03  0.10836771146E+04  0.11297654695E+04  0.19900000000E+03 0.  0.
   -5000001    1    1    2    0    0 -0.22028992180E+03 -0.11783580861E+03  0.77818185965E+03  0.84117830103E+03  0.19900000000E+03 0.  0.
<mgrwt>
<rscale>  0 0.64660692E+03</rscale>
<asrwt>0</asrwt>
<pdfrwt beam="1">  1        2 0.27377159E+00 0.64660692E+03</pdfrwt>
<pdfrwt beam="2">  1       -2 0.77917721E-02 0.64660692E+03</pdfrwt>
<totfact> 0.93071425E+02</totfact>
</mgrwt>
</event>
<event>
 4    1  0.1724904E-005  0.6844184E+03  0.7818608E-02  0.9744256E-01
          2   -1    0    0  501    0  0.00000000000E+00  0.00000000000E+00  0.66680541710E+02  0.66680541759E+02  0.25500000000E-02 0.  1.
         -2   -1    0    0    0  501 -0.00000000000E+00 -0.00000000000E+00 -0.17562416429E+04  0.17562416429E+04  0.25500000000E-02 0. -1.
    5000001    1    1    2    0    0 -0.25484070022E+03  0.39288672412E+01 -0.54643806595E+03  0.63494470500E+03  0.19900000000E+03 0.  0.
   -5000001    1    1    2    0    0  0.25484070022E+03 -0.39288672412E+01 -0.11431230352E+04  0.11879774797E+04  0.19900000000E+03 0.  0.
<mgrwt>
<rscale>  0 0.68441842E+03</rscale>
<asrwt>0</asrwt>
<pdfrwt beam="1">  1        2 0.95257928E-02 0.68441842E+03</pdfrwt>
<pdfrwt beam="2">  1       -2 0.25089163E+00 0.68441842E+03</pdfrwt>
<totfact> 0.46385649E+01</totfact>
</mgrwt>
</event>
<event>
 4    1  0.1724904E-005  0.6791999E+03  0.7818608E-02  0.9753480E-01
         -2   -1    0    0    0  501 -0.00000000000E+00  0.00000000000E+00  0.48603840853E+03  0.48603840853E+03  0.25500000000E-02 0. -1.
          2   -1    0    0  501    0  0.00000000000E+00 -0.00000000000E+00 -0.23728191257E+03  0.23728191259E+03  0.25500000000E-02 0.  1.
    5000001    1    1    2    0    0  0.14250614050E+03  0.17317374085E+03  0.29420498119E+03  0.42006513252E+03  0.19900000000E+03 0.  0.
   -5000001    1    1    2    0    0 -0.14250614050E+03 -0.17317374085E+03 -0.45448485237E+02  0.30325518860E+03  0.19900000000E+03 0.  0.
<mgrwt>
<rscale>  0 0.67919989E+03</rscale>
<asrwt>0</asrwt>
<pdfrwt beam="1">  1        2 0.33897417E-01 0.67919989E+03</pdfrwt>
<pdfrwt beam="2">  1       -2 0.69434057E-01 0.67919989E+03</pdfrwt>
<totfact> 0.29614958E+02</totfact>
</mgrwt>
</event>
<event>
 4    1  0.1724904E-005  0.6073487E+03  0.7818608E-02  0.9890276E-01
         -2   -1    0    0    0  501 -0.00000000000E+00  0.00000000000E+00  0.52303740852E+02  0.52303740915E+02  0.25500000000E-02 0. -1.
          2   -1    0    0  501    0  0.00000000000E+00 -0.00000000000E+00 -0.17631264968E+04  0.17631264968E+04  0.25500000000E-02 0.  1.
    5000001    1    1    2    0    0 -0.99907632664E+01 -0.22649651783E+03 -0.95967181878E+03  0.10059679357E+04  0.19900000000E+03 0.  0.
   -5000001    1    1    2    0    0  0.99907632664E+01  0.22649651783E+03 -0.75115093716E+03  0.80946230198E+03  0.19900000000E+03 0.  0.
<mgrwt>
<rscale>  0 0.60734870E+03</rscale>
<asrwt>0</asrwt>
<pdfrwt beam="1">  1        2 0.25187518E+00 0.60734870E+03</pdfrwt>
<pdfrwt beam="2">  1       -2 0.74719641E-02 0.60734870E+03</pdfrwt>
<totfact> 0.11912997E+03</totfact>
</mgrwt>
</event>
<event>
 4    1  0.1724904E-005  0.6388501E+03  0.7818608E-02  0.9827929E-01
         -2   -1    0    0    0  501 -0.00000000000E+00  0.00000000000E+00  0.45084803847E+03  0.45084803848E+03  0.25500000000E-02 0. -1.
          2   -1    0    0  501    0  0.00000000000E+00 -0.00000000000E+00 -0.22631210465E+03  0.22631210466E+03  0.25500000000E-02 0.  1.
    5000001    1    1    2    0    0 -0.24117291042E+03 -0.31397220772E+02  0.17298484597E+03  0.35871285888E+03  0.19900000000E+03 0.  0.
   -5000001    1    1    2    0    0  0.24117291042E+03  0.31397220772E+02  0.51551087859E+02  0.31844728426E+03  0.19900000000E+03 0.  0.
<mgrwt>
<rscale>  0 0.63885012E+03</rscale>
<asrwt>0</asrwt>
<pdfrwt beam="1">  1        2 0.32330301E-01 0.63885012E+03</pdfrwt>
<pdfrwt beam="2">  1       -2 0.64406861E-01 0.63885012E+03</pdfrwt>
<totfact> 0.36752547E+02</totfact>
</mgrwt>
</event>
<event>
 4    1  0.1724904E-005  0.6579658E+03  0.7818608E-02  0.9791946E-01
         -2   -1    0    0    0  501 -0.00000000000E+00  0.00000000000E+00  0.20075765364E+03  0.20075765365E+03  0.25500000000E-02 0. -1.
          2   -1    0    0  501    0  0.00000000000E+00 -0.00000000000E+00 -0.53910652776E+03  0.53910652776E+03  0.25500000000E-02 0.  1.
    5000001    1    1    2    0    0  0.16322982743E+02 -0.26094434713E+03 -0.18766403711E+03  0.37838760933E+03  0.19900000000E+03 0.  0.
   -5000001    1    1    2    0    0 -0.16322982743E+02  0.26094434713E+03 -0.15068483701E+03  0.36147657209E+03  0.19900000000E+03 0.  0.
<mgrwt>
<rscale>  0 0.65796584E+03</rscale>
<asrwt>0</asrwt>
<pdfrwt beam="1">  1        2 0.77015218E-01 0.65796584E+03</pdfrwt>
<pdfrwt beam="2">  1       -2 0.28679665E-01 0.65796584E+03</pdfrwt>
<totfact> 0.68874406E+02</totfact>
</mgrwt>
</event>
<event>
 4    1  0.1724904E-005  0.4316638E+03  0.7818608E-02  0.1033336E+00
          2   -1    0    0  501    0  0.00000000000E+00  0.00000000000E+00  0.19046804398E+04  0.19046804398E+04  0.25500000000E-02 0.  1.
         -2   -1    0    0    0  501 -0.00000000000E+00 -0.00000000000E+00 -0.24457335334E+02  0.24457335467E+02  0.25500000000E-02 0. -1.
    5000001    1    1    2    0    0 -0.32530457097E+02  0.51193163381E+02  0.68324906617E+03  0.71421933399E+03  0.19900000000E+03 0.  0.
   -5000001    1    1    2    0    0  0.32530457097E+02 -0.51193163381E+02  0.11969740383E+04  0.12149184413E+04  0.19900000000E+03 0.  0.
<mgrwt>
<rscale>  0 0.43166380E+03</rscale>
<asrwt>0</asrwt>
<pdfrwt beam="1">  1        2 0.27209721E+00 0.43166380E+03</pdfrwt>
<pdfrwt beam="2">  1       -2 0.34939050E-02 0.43166380E+03</pdfrwt>
<totfact> 0.33044718E+03</totfact>
</mgrwt>
</event>
<event>
 4    1  0.1724904E-005  0.6475311E+03  0.7818608E-02  0.9811423E-01
         -2   -1    0    0    0  501 -0.00000000000E+00  0.00000000000E+00  0.57111932135E+02  0.57111932191E+02  0.25500000000E-02 0. -1.
          2   -1    0    0  501    0  0.00000000000E+00 -0.00000000000E+00 -0.18354157027E+04  0.18354157027E+04  0.25500000000E-02 0.  1.
    5000001    1    1    2    0    0  0.15730397698E+03  0.18874475724E+03 -0.10927773241E+04  0.11375994043E+04  0.19900000000E+03 0.  0.
   -5000001    1    1    2    0    0 -0.15730397698E+03 -0.18874475724E+03 -0.68552644642E+03  0.75492823056E+03  0.19900000000E+03 0.  0.
<mgrwt>
<rscale>  0 0.64753112E+03</rscale>
<asrwt>0</asrwt>
<pdfrwt beam="1">  1        2 0.26220221E+00 0.64753112E+03</pdfrwt>
<pdfrwt beam="2">  1       -2 0.81588486E-02 0.64753112E+03</pdfrwt>
<totfact> 0.95007409E+02</totfact>
</mgrwt>
</event>
<event>
 4    1  0.1724904E-005  0.6276278E+03  0.7818608E-02  0.9849689E-01
          2   -1    0    0  501    0  0.00000000000E+00  0.00000000000E+00  0.30545565481E+03  0.30545565482E+03  0.25500000000E-02 0.  1.
         -2   -1    0    0    0  501 -0.00000000000E+00 -0.00000000000E+00 -0.32240080753E+03  0.32240080754E+03  0.25500000000E-02 0. -1.
    5000001    1    1    2    0    0  0.11992030497E+03 -0.20063054059E+03  0.56702192426E+02  0.31216923613E+03  0.19900000000E+03 0.  0.
   -5000001    1    1    2    0    0 -0.11992030497E+03  0.20063054059E+03 -0.73647345147E+02  0.31568722624E+03  0.19900000000E+03 0.  0.
<mgrwt>
<rscale>  0 0.62762776E+03</rscale>
<asrwt>0</asrwt>
<pdfrwt beam="1">  1        2 0.43636522E-01 0.62762776E+03</pdfrwt>
<pdfrwt beam="2">  1       -2 0.46057258E-01 0.62762776E+03</pdfrwt>
<totfact> 0.52637127E+02</totfact>
</mgrwt>
</event>
<event>
 4    1  0.1724904E-005  0.5008512E+03  0.7818608E-02  0.1013557E+00
          2   -1    0    0  501    0  0.00000000000E+00  0.00000000000E+00  0.32974370891E+04  0.32974370891E+04  0.25500000000E-02 0. -1.
         -2   -1    0    0    0  501 -0.00000000000E+00 -0.00000000000E+00 -0.19018703903E+02  0.19018704074E+02  0.25500000000E-02 0.  1.
    5000001    1    1    2    0    0 -0.46660700888E+02 -0.14327409102E+03  0.17728439332E+04  0.17903299410E+04  0.19900000000E+03 0.  0.
   -5000001    1    1    2    0    0  0.46660700888E+02  0.14327409102E+03  0.15055744520E+04  0.15261258522E+04  0.19900000000E+03 0.  0.
<mgrwt>
<rscale>  0 0.50085120E+03</rscale>
<asrwt>0</asrwt>
<pdfrwt beam="1">  1        2 0.47106193E+00 0.50085120E+03</pdfrwt>
<pdfrwt beam="2">  1       -2 0.27169606E-02 0.50085120E+03</pdfrwt>
<totfact> 0.90860075E+02</totfact>
</mgrwt>
</event>
<event>
 4    1  0.1724904E-005  0.8512750E+03  0.7818608E-02  0.9488627E-01
          2   -1    0    0  501    0  0.00000000000E+00  0.00000000000E+00  0.24894375070E+04  0.24894375070E+04  0.25500000000E-02 0.  1.
         -2   -1    0    0    0  501 -0.00000000000E+00 -0.00000000000E+00 -0.72774384859E+02  0.72774384904E+02  0.25500000000E-02 0. -1.
    5000001    1    1    2    0    0  0.15178144111E+03  0.33156120849E+03  0.92927683377E+03  0.10179031755E+04  0.19900000000E+03 0.  0.
   -5000001    1    1    2    0    0 -0.15178144111E+03 -0.33156120849E+03  0.14873862884E+04  0.15443087164E+04  0.19900000000E+03 0.  0.
<mgrwt>
<rscale>  0 0.85127500E+03</rscale>
<asrwt>0</asrwt>
<pdfrwt beam="1">  1        2 0.35563393E+00 0.85127500E+03</pdfrwt>
<pdfrwt beam="2">  1       -2 0.10396341E-01 0.85127500E+03</pdfrwt>
<totfact> 0.29444120E+02</totfact>
</mgrwt>
</event>
<event>
 4    1  0.1724904E-005  0.5508316E+03  0.7818608E-02  0.1001302E+00
          2   -1    0    0  501    0  0.00000000000E+00  0.00000000000E+00  0.19570200495E+04  0.19570200495E+04  0.25500000000E-02 0.  1.
         -2   -1    0    0    0  501 -0.00000000000E+00 -0.00000000000E+00 -0.38759883908E+02  0.38759883991E+02  0.25500000000E-02 0. -1.
    5000001    1    1    2    0    0 -0.15930138955E+03  0.32003015778E+01  0.58145133549E+03  0.63488095749E+03  0.19900000000E+03 0.  0.
   -5000001    1    1    2    0    0  0.15930138955E+03 -0.32003015778E+01  0.13368088301E+04  0.13608989760E+04  0.19900000000E+03 0.  0.
<mgrwt>
<rscale>  0 0.55083163E+03</rscale>
<asrwt>0</asrwt>
<pdfrwt beam="1">  1        2 0.27957437E+00 0.55083163E+03</pdfrwt>
<pdfrwt beam="2">  1       -2 0.55371247E-02 0.55083163E+03</pdfrwt>
<totfact> 0.15279262E+03</totfact>
</mgrwt>
</event>
<event>
 4    1  0.1724904E-005  0.4845055E+03  0.7818608E-02  0.1017904E+00
         -2   -1    0    0    0  501 -0.00000000000E+00  0.00000000000E+00  0.41716149018E+02  0.41716149096E+02  0.25500000000E-02 0. -1.
          2   -1    0    0  501    0  0.00000000000E+00 -0.00000000000E+00 -0.14068028677E+04  0.14068028677E+04  0.25500000000E-02 0.  1.
    5000001    1    1    2    0    0 -0.10533621436E+02  0.13325086469E+03 -0.78691070022E+03  0.82261546317E+03  0.19900000000E+03 0.  0.
   -5000001    1    1    2    0    0  0.10533621436E+02 -0.13325086469E+03 -0.57817601842E+03  0.62590355359E+03  0.19900000000E+03 0.  0.
<mgrwt>
<rscale>  0 0.48450551E+03</rscale>
<asrwt>0</asrwt>
<pdfrwt beam="1">  1        2 0.20097181E+00 0.48450551E+03</pdfrwt>
<pdfrwt beam="2">  1       -2 0.59594507E-02 0.48450551E+03</pdfrwt>
<totfact> 0.26020804E+03</totfact>
</mgrwt>
</event>
<event>
 4    1  0.1724904E-005  0.1042460E+04  0.7818608E-02  0.9263163E-01
         -2   -1    0    0    0  501 -0.00000000000E+00  0.00000000000E+00  0.13952219421E+03  0.13952219424E+03  0.25500000000E-02 0. -1.
          2   -1    0    0  501    0  0.00000000000E+00 -0.00000000000E+00 -0.19472224971E+04  0.19472224971E+04  0.25500000000E-02 0.  1.
    5000001    1    1    2    0    0 -0.48785948214E+02  0.47232532661E+03 -0.10665774552E+04  0.11843393732E+04  0.19900000000E+03 0.  0.
   -5000001    1    1    2    0    0  0.48785948214E+02 -0.47232532661E+03 -0.74112284769E+03  0.90240531817E+03  0.19900000000E+03 0.  0.
<mgrwt>
<rscale>  0 0.10424601E+04</rscale>
<asrwt>0</asrwt>
<pdfrwt beam="1">  1        2 0.27817463E+00 0.10424601E+04</pdfrwt>
<pdfrwt beam="2">  1       -2 0.19931743E-01 0.10424601E+04</pdfrwt>
<totfact> 0.18309696E+02</totfact>
</mgrwt>
</event>
<event>
 4    1  0.1724904E-005  0.7029713E+03  0.7818608E-02  0.9712164E-01
         -2   -1    0    0    0  501 -0.00000000000E+00  0.00000000000E+00  0.11543482694E+03  0.11543482697E+03  0.25500000000E-02 0. -1.
          2   -1    0    0  501    0  0.00000000000E+00 -0.00000000000E+00 -0.10702330029E+04  0.10702330029E+04  0.25500000000E-02 0.  1.
    5000001    1    1    2    0    0 -0.13237017760E+03 -0.20889237961E+03 -0.73198448220E+03  0.79784721116E+03  0.19900000000E+03 0.  0.
   -5000001    1    1    2    0    0  0.13237017760E+03  0.20889237961E+03 -0.22281369378E+03  0.38782061873E+03  0.19900000000E+03 0.  0.
<mgrwt>
<rscale>  0 0.70297130E+03</rscale>
<asrwt>0</asrwt>
<pdfrwt beam="1">  1        2 0.15289042E+00 0.70297130E+03</pdfrwt>
<pdfrwt beam="2">  1       -2 0.16490690E-01 0.70297130E+03</pdfrwt>
<totfact> 0.76251443E+02</totfact>
</mgrwt>
</event>
<event>
 4    1  0.1724904E-005  0.6445259E+03  0.7818608E-02  0.9817105E-01
          2   -1    0    0  501    0  0.00000000000E+00  0.00000000000E+00  0.80117797254E+03  0.80117797254E+03  0.25500000000E-02 0.  1.
         -2   -1    0    0    0  501 -0.00000000000E+00 -0.00000000000E+00 -0.12962590936E+03  0.12962590939E+03  0.25500000000E-02 0. -1.
    5000001    1    1    2    0    0 -0.17940648481E+02 -0.23985338070E+03  0.22023434152E+03  0.38204145886E+03  0.19900000000E+03 0.  0.
   -5000001    1    1    2    0    0  0.17940648481E+02  0.23985338070E+03  0.45131772166E+03  0.54876242308E+03  0.19900000000E+03 0.  0.
<mgrwt>
<rscale>  0 0.64452594E+03</rscale>
<asrwt>0</asrwt>
<pdfrwt beam="1">  1        2 0.11445400E+00 0.64452594E+03</pdfrwt>
<pdfrwt beam="2">  1       -2 0.18517987E-01 0.64452594E+03</pdfrwt>
<totfact> 0.92893955E+02</totfact>
</mgrwt>
</event>
<event>
 4    1  0.1724904E-005  0.4701216E+03  0.7818608E-02  0.1021886E+00
          2   -1    0    0  501    0  0.00000000000E+00  0.00000000000E+00  0.15793226328E+04  0.15793226328E+04  0.25500000000E-02 0.  1.
         -2   -1    0    0    0  501 -0.00000000000E+00 -0.00000000000E+00 -0.34985612495E+02  0.34985612588E+02  0.25500000000E-02 0. -1.
    5000001    1    1    2    0    0  0.97742524326E+02 -0.73660977386E+02  0.68308584385E+03  0.72193269127E+03  0.19900000000E+03 0.  0.
   -5000001    1    1    2    0    0 -0.97742524326E+02  0.73660977386E+02  0.86125117642E+03  0.89237555409E+03  0.19900000000E+03 0.  0.
<mgrwt>
<rscale>  0 0.47012156E+03</rscale>
<asrwt>0</asrwt>
<pdfrwt beam="1">  1        2 0.22561748E+00 0.47012156E+03</pdfrwt>
<pdfrwt beam="2">  1       -2 0.49979456E-02 0.47012156E+03</pdfrwt>
<totfact> 0.27830682E+03</totfact>
</mgrwt>
</event>
<event>
 4    1  0.1724904E-005  0.4913545E+03  0.7818608E-02  0.1016060E+00
         -2   -1    0    0    0  501 -0.00000000000E+00  0.00000000000E+00  0.17383213164E+03  0.17383213166E+03  0.25500000000E-02 0. -1.
          2   -1    0    0  501    0  0.00000000000E+00 -0.00000000000E+00 -0.34721608217E+03  0.34721608218E+03  0.25500000000E-02 0.  1.
    5000001    1    1    2    0    0 -0.61003389667E+02 -0.82520689598E+02  0.20538837623E+02  0.22484199255E+03  0.19900000000E+03 0.  0.
   -5000001    1    1    2    0    0  0.61003389667E+02  0.82520689598E+02 -0.19392278816E+03  0.29620622129E+03  0.19900000000E+03 0.  0.
<mgrwt>
<rscale>  0 0.49135450E+03</rscale>
<asrwt>0</asrwt>
<pdfrwt beam="1">  1        2 0.49602297E-01 0.49135450E+03</pdfrwt>
<pdfrwt beam="2">  1       -2 0.24833162E-01 0.49135450E+03</pdfrwt>
<totfact> 0.14653602E+03</totfact>
</mgrwt>
</event>
<event>
 4    1  0.1724904E-005  0.4792694E+03  0.7818608E-02  0.1019336E+00
         -2   -1    0    0    0  501 -0.00000000000E+00  0.00000000000E+00  0.35846141026E+02  0.35846141116E+02  0.25500000000E-02 0. -1.
          2   -1    0    0  501    0  0.00000000000E+00 -0.00000000000E+00 -0.16019794269E+04  0.16019794269E+04  0.25500000000E-02 0.  1.
    5000001    1    1    2    0    0 -0.10723433043E+03  0.49560762041E+02 -0.57052276436E+03  0.61567255535E+03  0.19900000000E+03 0.  0.
   -5000001    1    1    2    0    0  0.10723433043E+03 -0.49560762041E+02 -0.99561052147E+03  0.10221530126E+04  0.19900000000E+03 0.  0.
<mgrwt>
<rscale>  0 0.47926936E+03</rscale>
<asrwt>0</asrwt>
<pdfrwt beam="1">  1        2 0.22885416E+00 0.47926936E+03</pdfrwt>
<pdfrwt beam="2">  1       -2 0.51208783E-02 0.47926936E+03</pdfrwt>
<totfact> 0.26097881E+03</totfact>
</mgrwt>
</event>
<event>
 4    1  0.1724904E-005  0.9934554E+03  0.7818608E-02  0.9315752E-01
         -2   -1    0    0    0  501 -0.00000000000E+00  0.00000000000E+00  0.61168236409E+03  0.61168236410E+03  0.25500000000E-02 0. -1.
          2   -1    0    0  501    0  0.00000000000E+00 -0.00000000000E+00 -0.40337668281E+03  0.40337668281E+03  0.25500000000E-02 0.  1.
    5000001    1    1    2    0    0  0.11746276643E+03 -0.38919776785E+03  0.31321165273E+03  0.55043159739E+03  0.19900000000E+03 0.  0.
   -5000001    1    1    2    0    0 -0.11746276643E+03  0.38919776785E+03 -0.10490597145E+03  0.46462744952E+03  0.19900000000E+03 0.  0.
<mgrwt>
<rscale>  0 0.99345539E+03</rscale>
<asrwt>0</asrwt>
<pdfrwt beam="1">  1        2 0.57625241E-01 0.99345539E+03</pdfrwt>
<pdfrwt beam="2">  1       -2 0.87383194E-01 0.99345539E+03</pdfrwt>
<totfact> 0.96859596E+01</totfact>
</mgrwt>
</event>
<event>
 4    1  0.1724904E-005  0.4894571E+03  0.7818608E-02  0.1016568E+00
         -2   -1    0    0    0  501 -0.00000000000E+00  0.00000000000E+00  0.52878797445E+02  0.52878797507E+02  0.25500000000E-02 0.  1.
          2   -1    0    0  501    0  0.00000000000E+00 -0.00000000000E+00 -0.11326291647E+04  0.11326291647E+04  0.25500000000E-02 0. -1.
    5000001    1    1    2    0    0  0.10142794073E+03 -0.95028284105E+02 -0.61542980527E+03  0.66156847503E+03  0.19900000000E+03 0.  0.
   -5000001    1    1    2    0    0 -0.10142794073E+03  0.95028284105E+02 -0.46432056198E+03  0.52393948718E+03  0.19900000000E+03 0.  0.
<mgrwt>
<rscale>  0 0.48945712E+03</rscale>
<asrwt>0</asrwt>
<pdfrwt beam="1">  1        2 0.16180415E+00 0.48945712E+03</pdfrwt>
<pdfrwt beam="2">  1       -2 0.75541146E-02 0.48945712E+03</pdfrwt>
<totfact> 0.25309947E+03</totfact>
</mgrwt>
</event>
<event>
 4    1  0.1724904E-005  0.7117736E+03  0.7818608E-02  0.9697307E-01
         -2   -1    0    0    0  501 -0.00000000000E+00  0.00000000000E+00  0.11385661883E+03  0.11385661886E+03  0.25500000000E-02 0.  1.
          2   -1    0    0  501    0  0.00000000000E+00 -0.00000000000E+00 -0.11124114253E+04  0.11124114253E+04  0.25500000000E-02 0. -1.
    5000001    1    1    2    0    0 -0.14931624690E+03 -0.25436701021E+03 -0.51222575958E+03  0.62367791868E+03  0.19900000000E+03 0.  0.
   -5000001    1    1    2    0    0  0.14931624690E+03  0.25436701021E+03 -0.48632904687E+03  0.60259012546E+03  0.19900000000E+03 0.  0.
<mgrwt>
<rscale>  0 0.71177357E+03</rscale>
<asrwt>0</asrwt>
<pdfrwt beam="1">  1        2 0.15891591E+00 0.71177357E+03</pdfrwt>
<pdfrwt beam="2">  1       -2 0.16265232E-01 0.71177357E+03</pdfrwt>
<totfact> 0.73711845E+02</totfact>
</mgrwt>
</event>
<event>
 4    1  0.1724904E-005  0.5975996E+03  0.7818608E-02  0.9910399E-01
          2   -1    0    0  501    0  0.00000000000E+00  0.00000000000E+00  0.12721104668E+04  0.12721104668E+04  0.25500000000E-02 0.  1.
         -2   -1    0    0    0  501 -0.00000000000E+00 -0.00000000000E+00 -0.70183618297E+02  0.70183618344E+02  0.25500000000E-02 0. -1.
    5000001    1    1    2    0    0 -0.13509343953E+03  0.14303969198E+03  0.83621646875E+03  0.88179905505E+03  0.19900000000E+03 0.  0.
   -5000001    1    1    2    0    0  0.13509343953E+03 -0.14303969198E+03  0.36571037978E+03  0.46049503012E+03  0.19900000000E+03 0.  0.
<mgrwt>
<rscale>  0 0.59759958E+03</rscale>
<asrwt>0</asrwt>
<pdfrwt beam="1">  1        2 0.18173006E+00 0.59759958E+03</pdfrwt>
<pdfrwt beam="2">  1       -2 0.10026232E-01 0.59759958E+03</pdfrwt>
<totfact> 0.13424107E+03</totfact>
</mgrwt>
</event>
<event>
 4    1  0.1724904E-005  0.4870831E+03  0.7818608E-02  0.1017207E+00
         -2   -1    0    0    0  501 -0.00000000000E+00  0.00000000000E+00  0.21610301424E+02  0.21610301574E+02  0.25500000000E-02 0. -1.
          2   -1    0    0  501    0  0.00000000000E+00 -0.00000000000E+00 -0.27446391873E+04  0.27446391873E+04  0.25500000000E-02 0.  1.
    5000001    1    1    2    0    0  0.88757843115E+02  0.32280928629E+02 -0.77154630550E+03  0.80237442294E+03  0.19900000000E+03 0.  0.
   -5000001    1    1    2    0    0 -0.88757843115E+02 -0.32280928629E+02 -0.19514825804E+04  0.19638750659E+04  0.19900000000E+03 0.  0.
<mgrwt>
<rscale>  0 0.48708307E+03</rscale>
<asrwt>0</asrwt>
<pdfrwt beam="1">  1        2 0.39209109E+00 0.48708307E+03</pdfrwt>
<pdfrwt beam="2">  1       -2 0.30871877E-02 0.48708307E+03</pdfrwt>
<totfact> 0.14978150E+03</totfact>
</mgrwt>
</event>
<event>
 4    1  0.1724904E-005  0.7323619E+03  0.7818608E-02  0.9663435E-01
         -2   -1    0    0    0  501 -0.00000000000E+00  0.00000000000E+00  0.27851603946E+03  0.27851603947E+03  0.25500000000E-02 0. -1.
          2   -1    0    0  501    0  0.00000000000E+00 -0.00000000000E+00 -0.48143905834E+03  0.48143905835E+03  0.25500000000E-02 0.  1.
    5000001    1    1    2    0    0  0.23931572696E+03 -0.17380714587E+03 -0.18832045482E+03  0.40317060263E+03  0.19900000000E+03 0.  0.
   -5000001    1    1    2    0    0 -0.23931572696E+03  0.17380714587E+03 -0.14602564066E+02  0.35678449518E+03  0.19900000000E+03 0.  0.
<mgrwt>
<rscale>  0 0.73236193E+03</rscale>
<asrwt>0</asrwt>
<pdfrwt beam="1">  1        2 0.68777008E-01 0.73236193E+03</pdfrwt>
<pdfrwt beam="2">  1       -2 0.39788006E-01 0.73236193E+03</pdfrwt>
<totfact> 0.42163908E+02</totfact>
</mgrwt>
</event>
<event>
 4    1  0.1724904E-005  0.4976049E+03  0.7818608E-02  0.1014406E+00
          2   -1    0    0  501    0  0.00000000000E+00  0.00000000000E+00  0.38742877835E+04  0.38742877835E+04  0.25500000000E-02 0. -1.
         -2   -1    0    0    0  501 -0.00000000000E+00 -0.00000000000E+00 -0.15977819525E+02  0.15977819728E+02  0.25500000000E-02 0.  1.
    5000001    1    1    2    0    0  0.14285649393E+03  0.15899031625E+02  0.16124626739E+04  0.16310418854E+04  0.19900000000E+03 0.  0.
   -5000001    1    1    2    0    0 -0.14285649393E+03 -0.15899031625E+02  0.22458472901E+04  0.22592237179E+04  0.19900000000E+03 0.  0.
<mgrwt>
<rscale>  0 0.49760495E+03</rscale>
<asrwt>0</asrwt>
<pdfrwt beam="1">  1        2 0.55347058E+00 0.49760495E+03</pdfrwt>
<pdfrwt beam="2">  1       -2 0.22825420E-02 0.49760495E+03</pdfrwt>
<totfact> 0.53062145E+02</totfact>
</mgrwt>
</event>
<event>
 4    1  0.1724904E-005  0.6606905E+03  0.7818608E-02  0.9786923E-01
         -2   -1    0    0    0  501 -0.00000000000E+00  0.00000000000E+00  0.68735740309E+02  0.68735740356E+02  0.25500000000E-02 0. -1.
          2   -1    0    0  501    0  0.00000000000E+00 -0.00000000000E+00 -0.15876453871E+04  0.15876453871E+04  0.25500000000E-02 0.  1.
    5000001    1    1    2    0    0  0.25111397616E+03 -0.42015472417E+02 -0.93139231294E+03  0.98585808794E+03  0.19900000000E+03 0.  0.
   -5000001    1    1    2    0    0 -0.25111397616E+03  0.42015472417E+02 -0.58751733380E+03  0.67052303947E+03  0.19900000000E+03 0.  0.
<mgrwt>
<rscale>  0 0.66069049E+03</rscale>
<asrwt>0</asrwt>
<pdfrwt beam="1">  1        2 0.22680646E+00 0.66069049E+03</pdfrwt>
<pdfrwt beam="2">  1       -2 0.98193924E-02 0.66069049E+03</pdfrwt>
<totfact> 0.94263504E+02</totfact>
</mgrwt>
</event>
<event>
 4    1  0.1724904E-005  0.1005979E+04  0.7818608E-02  0.9302012E-01
          2   -1    0    0  501    0  0.00000000000E+00  0.00000000000E+00  0.82387880958E+03  0.82387880958E+03  0.25500000000E-02 0.  1.
         -2   -1    0    0    0  501 -0.00000000000E+00 -0.00000000000E+00 -0.30708193710E+03  0.30708193711E+03  0.25500000000E-02 0. -1.
    5000001    1    1    2    0    0 -0.39544686129E+03 -0.47560921174E+00 -0.10054388380E+02  0.44280982039E+03  0.19900000000E+03 0.  0.
   -5000001    1    1    2    0    0  0.39544686129E+03  0.47560921174E+00  0.52685126085E+03  0.68815092630E+03  0.19900000000E+03 0.  0.
<mgrwt>
<rscale>  0 0.10059787E+04</rscale>
<asrwt>0</asrwt>
<pdfrwt beam="1">  1        2 0.11769697E+00 0.10059787E+04</pdfrwt>
<pdfrwt beam="2">  1       -2 0.43868849E-01 0.10059787E+04</pdfrwt>
<totfact> 0.17974036E+02</totfact>
</mgrwt>
</event>
<event>
 4    1  0.1724904E-005  0.5194160E+03  0.7818608E-02  0.1008832E+00
          2   -1    0    0  501    0  0.00000000000E+00  0.00000000000E+00  0.61478516828E+03  0.61478516828E+03  0.25500000000E-02 0.  1.
         -2   -1    0    0    0  501 -0.00000000000E+00 -0.00000000000E+00 -0.10971027641E+03  0.10971027644E+03  0.25500000000E-02 0. -1.
    5000001    1    1    2    0    0  0.15139899641E+03 -0.67790551663E+02  0.27787710743E+03  0.37991301878E+03  0.19900000000E+03 0.  0.
   -5000001    1    1    2    0    0 -0.15139899641E+03  0.67790551663E+02  0.22719778444E+03  0.34458242594E+03  0.19900000000E+03 0.  0.
<mgrwt>
<rscale>  0 0.51941602E+03</rscale>
<asrwt>0</asrwt>
<pdfrwt beam="1">  1        2 0.87826454E-01 0.51941602E+03</pdfrwt>
<pdfrwt beam="2">  1       -2 0.15672896E-01 0.51941602E+03</pdfrwt>
<totfact> 0.17103638E+03</totfact>
</mgrwt>
</event>
<event>
 4    1  0.1724904E-005  0.2258104E+04  0.7818608E-02  0.8494626E-01
          2   -1    0    0  501    0  0.00000000000E+00  0.00000000000E+00  0.22472296119E+04  0.22472296119E+04  0.25500000000E-02 0.  1.
         -2   -1    0    0    0  501 -0.00000000000E+00 -0.00000000000E+00 -0.56725758834E+03  0.56725758834E+03  0.25500000000E-02 0. -1.
    5000001    1    1    2    0    0  0.10767780983E+04  0.24816024346E+03  0.69186702219E+03  0.13188311324E+04  0.19900000000E+03 0.  0.
   -5000001    1    1    2    0    0 -0.10767780983E+04 -0.24816024346E+03  0.98810500135E+03  0.14956560678E+04  0.19900000000E+03 0.  0.
<mgrwt>
<rscale>  0 0.22581037E+04</rscale>
<asrwt>0</asrwt>
<pdfrwt beam="1">  1        2 0.32103280E+00 0.22581037E+04</pdfrwt>
<pdfrwt beam="2">  1       -2 0.81036799E-01 0.22581037E+04</pdfrwt>
<totfact> 0.73360168E+00</totfact>
</mgrwt>
</event>
<event>
 4    1  0.1724904E-005  0.4661443E+03  0.7818608E-02  0.1023014E+00
         -2   -1    0    0    0  501 -0.00000000000E+00  0.00000000000E+00  0.31851150396E+02  0.31851150498E+02  0.25500000000E-02 0. -1.
          2   -1    0    0  501    0  0.00000000000E+00 -0.00000000000E+00 -0.17055152198E+04  0.17055152198E+04  0.25500000000E-02 0.  1.
    5000001    1    1    2    0    0  0.10190520278E+02  0.11768488697E+03 -0.94012332194E+03  0.96818719254E+03  0.19900000000E+03 0.  0.
   -5000001    1    1    2    0    0 -0.10190520278E+02 -0.11768488697E+03 -0.73354074747E+03  0.76917917777E+03  0.19900000000E+03 0.  0.
<mgrwt>
<rscale>  0 0.46614428E+03</rscale>
<asrwt>0</asrwt>
<pdfrwt beam="1">  1        2 0.24364497E+00 0.46614428E+03</pdfrwt>
<pdfrwt beam="2">  1       -2 0.45501654E-02 0.46614428E+03</pdfrwt>
<totfact> 0.27754203E+03</totfact>
</mgrwt>
</event>
<event>
 4    1  0.1724904E-005  0.4577739E+03  0.7818608E-02  0.1025429E+00
         -2   -1    0    0    0  501 -0.00000000000E+00  0.00000000000E+00  0.11245434049E+03  0.11245434052E+03  0.25500000000E-02 0. -1.
          2   -1    0    0  501    0  0.00000000000E+00 -0.00000000000E+00 -0.46587126833E+03  0.46587126833E+03  0.25500000000E-02 0.  1.
    5000001    1    1    2    0    0 -0.74299156870E+02  0.77007031246E+02 -0.22291641723E+03  0.31740065634E+03  0.19900000000E+03 0.  0.
   -5000001    1    1    2    0    0  0.74299156870E+02 -0.77007031246E+02 -0.13050051060E+03  0.26092495251E+03  0.19900000000E+03 0.  0.
<mgrwt>
<rscale>  0 0.45777395E+03</rscale>
<asrwt>0</asrwt>
<pdfrwt beam="1">  1        2 0.66553037E-01 0.45777395E+03</pdfrwt>
<pdfrwt beam="2">  1       -2 0.16064906E-01 0.45777395E+03</pdfrwt>
<totfact> 0.22517282E+03</totfact>
</mgrwt>
</event>
<event>
 4    1  0.1724904E-005  0.5877380E+03  0.7818608E-02  0.9931178E-01
         -2   -1    0    0    0  501 -0.00000000000E+00  0.00000000000E+00  0.15390574259E+03  0.15390574261E+03  0.25500000000E-02 0. -1.
          2   -1    0    0  501    0  0.00000000000E+00 -0.00000000000E+00 -0.56111606317E+03  0.56111606317E+03  0.25500000000E-02 0.  1.
    5000001    1    1    2    0    0  0.18664497185E+03 -0.30765721472E+01 -0.70825658652E+02  0.28189197352E+03  0.19900000000E+03 0.  0.
   -5000001    1    1    2    0    0 -0.18664497185E+03  0.30765721472E+01 -0.33638466193E+03  0.43312983226E+03  0.19900000000E+03 0.  0.
<mgrwt>
<rscale>  0 0.58773798E+03</rscale>
<asrwt>0</asrwt>
<pdfrwt beam="1">  1        2 0.80159437E-01 0.58773798E+03</pdfrwt>
<pdfrwt beam="2">  1       -2 0.21986535E-01 0.58773798E+03</pdfrwt>
<totfact> 0.10617602E+03</totfact>
</mgrwt>
</event>
<event>
 4    1  0.1724904E-005  0.4958065E+03  0.7818608E-02  0.1014879E+00
         -2   -1    0    0    0  501 -0.00000000000E+00  0.00000000000E+00  0.14598153146E+02  0.14598153369E+02  0.25500000000E-02 0. -1.
          2   -1    0    0  501    0  0.00000000000E+00 -0.00000000000E+00 -0.42098491060E+04  0.42098491060E+04  0.25500000000E-02 0.  1.
    5000001    1    1    2    0    0 -0.10965610827E+03 -0.97171483933E+02 -0.19297370668E+04  0.19454955426E+04  0.19900000000E+03 0.  0.
   -5000001    1    1    2    0    0  0.10965610827E+03  0.97171483933E+02 -0.22655138861E+04  0.22789517168E+04  0.19900000000E+03 0.  0.
<mgrwt>
<rscale>  0 0.49580650E+03</rscale>
<asrwt>0</asrwt>
<pdfrwt beam="1">  1        2 0.60140624E+00 0.49580650E+03</pdfrwt>
<pdfrwt beam="2">  1       -2 0.20854532E-02 0.49580650E+03</pdfrwt>
<totfact> 0.36170081E+02</totfact>
</mgrwt>
</event>
<event>
 4    1  0.1724904E-005  0.5997386E+03  0.7818608E-02  0.9905949E-01
          2   -1    0    0  501    0  0.00000000000E+00  0.00000000000E+00  0.27667264772E+04  0.27667264772E+04  0.25500000000E-02 0. -1.
         -2   -1    0    0    0  501 -0.00000000000E+00 -0.00000000000E+00 -0.32501078779E+02  0.32501078879E+02  0.25500000000E-02 0.  1.
    5000001    1    1    2    0    0 -0.11520607257E+03  0.16419763180E+03  0.89833866843E+03  0.94172536583E+03  0.19900000000E+03 0.  0.
   -5000001    1    1    2    0    0  0.11520607257E+03 -0.16419763180E+03  0.18358867300E+04  0.18575021903E+04  0.19900000000E+03 0.  0.
<mgrwt>
<rscale>  0 0.59973859E+03</rscale>
<asrwt>0</asrwt>
<pdfrwt beam="1">  1        2 0.39524651E+00 0.59973859E+03</pdfrwt>
<pdfrwt beam="2">  1       -2 0.46430127E-02 0.59973859E+03</pdfrwt>
<totfact> 0.77405059E+02</totfact>
</mgrwt>
</event>
<event>
 4    1  0.1724904E-005  0.1312994E+04  0.7818608E-02  0.9019324E-01
          2   -1    0    0  501    0  0.00000000000E+00  0.00000000000E+00  0.26247002969E+04  0.26247002969E+04  0.25500000000E-02 0.  1.
         -2   -1    0    0    0  501 -0.00000000000E+00 -0.00000000000E+00 -0.16420470501E+03  0.16420470503E+03  0.25500000000E-02 0. -1.
    5000001    1    1    2    0    0  0.62054927280E+03 -0.60004410111E+02  0.13407246922E+04  0.14919201149E+04  0.19900000000E+03 0.  0.
   -5000001    1    1    2    0    0 -0.62054927280E+03  0.60004410111E+02  0.11197708997E+04  0.12969848870E+04  0.19900000000E+03 0.  0.
<mgrwt>
<rscale>  0 0.13129937E+04</rscale>
<asrwt>0</asrwt>
<pdfrwt beam="1">  1        2 0.37495713E+00 0.13129937E+04</pdfrwt>
<pdfrwt beam="2">  1       -2 0.23457818E-01 0.13129937E+04</pdfrwt>
<totfact> 0.59932704E+01</totfact>
</mgrwt>
</event>
<event>
 4    1  0.1724904E-005  0.4827944E+03  0.7818608E-02  0.1018370E+00
          2   -1    0    0  501    0  0.00000000000E+00  0.00000000000E+00  0.76221591423E+02  0.76221591466E+02  0.25500000000E-02 0.  1.
         -2   -1    0    0    0  501 -0.00000000000E+00 -0.00000000000E+00 -0.76451563844E+03  0.76451563845E+03  0.25500000000E-02 0. -1.
    5000001    1    1    2    0    0  0.59289593132E+02  0.11383637451E+03 -0.26251235177E+03  0.35353601068E+03  0.19900000000E+03 0.  0.
   -5000001    1    1    2    0    0 -0.59289593132E+02 -0.11383637451E+03 -0.42578169525E+03  0.48720121923E+03  0.19900000000E+03 0.  0.
<mgrwt>
<rscale>  0 0.48279436E+03</rscale>
<asrwt>0</asrwt>
<pdfrwt beam="1">  1        2 0.10888799E-01 0.48279436E+03</pdfrwt>
<pdfrwt beam="2">  1       -2 0.10921652E+00 0.48279436E+03</pdfrwt>
<totfact> 0.40314566E+02</totfact>
</mgrwt>
</event>
<event>
 4    1  0.1724904E-005  0.9054380E+03  0.7818608E-02  0.9418809E-01
          2   -1    0    0  501    0  0.00000000000E+00  0.00000000000E+00  0.17380789927E+04  0.17380789927E+04  0.25500000000E-02 0.  1.
         -2   -1    0    0    0  501 -0.00000000000E+00 -0.00000000000E+00 -0.11792012558E+03  0.11792012561E+03  0.25500000000E-02 0. -1.
    5000001    1    1    2    0    0  0.20653159747E+03  0.34150589569E+03  0.96980774861E+03  0.10674313312E+04  0.19900000000E+03 0.  0.
   -5000001    1    1    2    0    0 -0.20653159747E+03 -0.34150589569E+03  0.65035111848E+03  0.78856778710E+03  0.19900000000E+03 0.  0.
<mgrwt>
<rscale>  0 0.90543800E+03</rscale>
<asrwt>0</asrwt>
<pdfrwt beam="1">  1        2 0.24829699E+00 0.90543800E+03</pdfrwt>
<pdfrwt beam="2">  1       -2 0.16845733E-01 0.90543800E+03</pdfrwt>
<totfact> 0.31655289E+02</totfact>
</mgrwt>
</event>
<event>
 4    1  0.1724904E-005  0.5161227E+03  0.7818608E-02  0.1009654E+00
          2   -1    0    0  501    0  0.00000000000E+00  0.00000000000E+00  0.30700369131E+03  0.30700369132E+03  0.25500000000E-02 0.  1.
         -2   -1    0    0    0  501 -0.00000000000E+00 -0.00000000000E+00 -0.21692140731E+03  0.21692140733E+03  0.25500000000E-02 0. -1.
    5000001    1    1    2    0    0  0.10541187932E+03 -0.94298973585E+02  0.12991557966E+03  0.27655563375E+03  0.19900000000E+03 0.  0.
   -5000001    1    1    2    0    0 -0.10541187932E+03  0.94298973585E+02 -0.39833295663E+02  0.24736946490E+03  0.19900000000E+03 0.  0.
<mgrwt>
<rscale>  0 0.51612275E+03</rscale>
<asrwt>0</asrwt>
<pdfrwt beam="1">  1        2 0.43857670E-01 0.51612275E+03</pdfrwt>
<pdfrwt beam="2">  1       -2 0.30988772E-01 0.51612275E+03</pdfrwt>
<totfact> 0.11216064E+03</totfact>
</mgrwt>
</event>
<event>
 4    1  0.1724904E-005  0.1154930E+04  0.7818608E-02  0.9153247E-01
         -2   -1    0    0    0  501 -0.00000000000E+00  0.00000000000E+00  0.18632813689E+03  0.18632813691E+03  0.25500000000E-02 0. -1.
          2   -1    0    0  501    0  0.00000000000E+00 -0.00000000000E+00 -0.17896709201E+04  0.17896709201E+04  0.25500000000E-02 0.  1.
    5000001    1    1    2    0    0 -0.19017101186E+03  0.24682631684E+03 -0.15606296255E+04  0.16038248259E+04  0.19900000000E+03 0.  0.
   -5000001    1    1    2    0    0  0.19017101186E+03 -0.24682631684E+03 -0.42713157753E+02  0.37217423108E+03  0.19900000000E+03 0.  0.
<mgrwt>
<rscale>  0 0.11549304E+04</rscale>
<asrwt>0</asrwt>
<pdfrwt beam="1">  1        2 0.25566726E+00 0.11549304E+04</pdfrwt>
<pdfrwt beam="2">  1       -2 0.26618306E-01 0.11549304E+04</pdfrwt>
<totfact> 0.13037968E+02</totfact>
</mgrwt>
</event>
<event>
 4    1  0.1724904E-005  0.7592892E+03  0.7818608E-02  0.9620889E-01
         -2   -1    0    0    0  501 -0.00000000000E+00  0.00000000000E+00  0.73985046282E+02  0.73985046326E+02  0.25500000000E-02 0. -1.
          2   -1    0    0  501    0  0.00000000000E+00 -0.00000000000E+00 -0.19480968656E+04  0.19480968656E+04  0.25500000000E-02 0.  1.
    5000001    1    1    2    0    0 -0.27652434494E+03 -0.15088505747E+03 -0.74323196632E+03  0.83140048693E+03  0.19900000000E+03 0.  0.
   -5000001    1    1    2    0    0  0.27652434494E+03  0.15088505747E+03 -0.11308798530E+04  0.11906814250E+04  0.19900000000E+03 0.  0.
<mgrwt>
<rscale>  0 0.75928924E+03</rscale>
<asrwt>0</asrwt>
<pdfrwt beam="1">  1        2 0.27829952E+00 0.75928924E+03</pdfrwt>
<pdfrwt beam="2">  1       -2 0.10569293E-01 0.75928924E+03</pdfrwt>
<totfact> 0.54478909E+02</totfact>
</mgrwt>
</event>
<event>
 4    1  0.1724904E-005  0.6496406E+03  0.7818608E-02  0.9807454E-01
          2   -1    0    0  501    0  0.00000000000E+00  0.00000000000E+00  0.18917696299E+03  0.18917696301E+03  0.25500000000E-02 0.  1.
         -2   -1    0    0    0  501 -0.00000000000E+00 -0.00000000000E+00 -0.55772241049E+03  0.55772241050E+03  0.25500000000E-02 0. -1.
    5000001    1    1    2    0    0  0.22206492295E+03  0.88903501086E+02 -0.29145254805E+03  0.42633584212E+03  0.19900000000E+03 0.  0.
   -5000001    1    1    2    0    0 -0.22206492295E+03 -0.88903501086E+02 -0.77092899455E+02  0.32056353139E+03  0.19900000000E+03 0.  0.
<mgrwt>
<rscale>  0 0.64964061E+03</rscale>
<asrwt>0</asrwt>
<pdfrwt beam="1">  1        2 0.27025281E-01 0.64964061E+03</pdfrwt>
<pdfrwt beam="2">  1       -2 0.79674629E-01 0.64964061E+03</pdfrwt>
<totfact> 0.28240067E+02</totfact>
</mgrwt>
</event>
<event>
 4    1  0.1724904E-005  0.5509407E+03  0.7818608E-02  0.1001276E+00
         -2   -1    0    0    0  501 -0.00000000000E+00  0.00000000000E+00  0.16876669788E+03  0.16876669790E+03  0.25500000000E-02 0. -1.
          2   -1    0    0  501    0  0.00000000000E+00 -0.00000000000E+00 -0.44963794822E+03  0.44963794823E+03  0.25500000000E-02 0.  1.
    5000001    1    1    2    0    0  0.44876613484E+02  0.18162772441E+03 -0.10027173068E+03  0.29096041086E+03  0.19900000000E+03 0.  0.
   -5000001    1    1    2    0    0 -0.44876613484E+02 -0.18162772441E+03 -0.18059951966E+03  0.32744423527E+03  0.19900000000E+03 0.  0.
<mgrwt>
<rscale>  0 0.55094069E+03</rscale>
<asrwt>0</asrwt>
<pdfrwt beam="1">  1        2 0.64233992E-01 0.55094069E+03</pdfrwt>
<pdfrwt beam="2">  1       -2 0.24109528E-01 0.55094069E+03</pdfrwt>
<totfact> 0.11604279E+03</totfact>
</mgrwt>
</event>
<event>
 4    1  0.1724904E-005  0.6003502E+03  0.7818608E-02  0.9904680E-01
          2   -1    0    0  501    0  0.00000000000E+00  0.00000000000E+00  0.54632199876E+03  0.54632199877E+03  0.25500000000E-02 0.  1.
         -2   -1    0    0    0  501 -0.00000000000E+00 -0.00000000000E+00 -0.16493035779E+03  0.16493035781E+03  0.25500000000E-02 0. -1.
    5000001    1    1    2    0    0 -0.11843071792E+03  0.15817635741E+03  0.63877286049E+02  0.28762284795E+03  0.19900000000E+03 0.  0.
   -5000001    1    1    2    0    0  0.11843071792E+03 -0.15817635741E+03  0.31751435493E+03  0.42362950862E+03  0.19900000000E+03 0.  0.
<mgrwt>
<rscale>  0 0.60035017E+03</rscale>
<asrwt>0</asrwt>
<pdfrwt beam="1">  1        2 0.78045999E-01 0.60035017E+03</pdfrwt>
<pdfrwt beam="2">  1       -2 0.23561480E-01 0.60035017E+03</pdfrwt>
<totfact> 0.96865398E+02</totfact>
</mgrwt>
</event>
<event>
 4    1  0.1724904E-005  0.7950947E+03  0.7818608E-02  0.9567145E-01
         -2   -1    0    0    0  501 -0.00000000000E+00  0.00000000000E+00  0.12452022765E+03  0.12452022768E+03  0.25500000000E-02 0. -1.
          2   -1    0    0  501    0  0.00000000000E+00 -0.00000000000E+00 -0.12692227078E+04  0.12692227078E+04  0.25500000000E-02 0.  1.
    5000001    1    1    2    0    0  0.16919655832E+03 -0.27108205072E+03 -0.79635546050E+03  0.88084957458E+03  0.19900000000E+03 0.  0.
   -5000001    1    1    2    0    0 -0.16919655832E+03  0.27108205072E+03 -0.34834701969E+03  0.51289336093E+03  0.19900000000E+03 0.  0.
<mgrwt>
<rscale>  0 0.79509471E+03</rscale>
<asrwt>0</asrwt>
<pdfrwt beam="1">  1        2 0.18131752E+00 0.79509471E+03</pdfrwt>
<pdfrwt beam="2">  1       -2 0.17788605E-01 0.79509471E+03</pdfrwt>
<totfact> 0.51343024E+02</totfact>
</mgrwt>
</event>
<event>
 4    1  0.1724904E-005  0.8493274E+03  0.7818608E-02  0.9491240E-01
         -2   -1    0    0    0  501 -0.00000000000E+00  0.00000000000E+00  0.10180535297E+03  0.10180535301E+03  0.25500000000E-02 0. -1.
          2   -1    0    0  501    0  0.00000000000E+00 -0.00000000000E+00 -0.17714121499E+04  0.17714121499E+04  0.25500000000E-02 0.  1.
    5000001    1    1    2    0    0  0.23793120554E+03  0.16895323273E+03 -0.13547746621E+04  0.14000613695E+04  0.19900000000E+03 0.  0.
   -5000001    1    1    2    0    0 -0.23793120554E+03 -0.16895323273E+03 -0.31483213482E+03  0.47315613336E+03  0.19900000000E+03 0.  0.
<mgrwt>
<rscale>  0 0.84932736E+03</rscale>
<asrwt>0</asrwt>
<pdfrwt beam="1">  1        2 0.25305886E+00 0.84932736E+03</pdfrwt>
<pdfrwt beam="2">  1       -2 0.14543623E-01 0.84932736E+03</pdfrwt>
<totfact> 0.39217175E+02</totfact>
</mgrwt>
</event>
<event>
 4    1  0.1724904E-005  0.4970422E+03  0.7818608E-02  0.1014554E+00
         -2   -1    0    0    0  501 -0.00000000000E+00  0.00000000000E+00  0.49441683367E+02  0.49441683432E+02  0.25500000000E-02 0. -1.
          2   -1    0    0  501    0  0.00000000000E+00 -0.00000000000E+00 -0.12492035826E+04  0.12492035826E+04  0.25500000000E-02 0.  1.
    5000001    1    1    2    0    0 -0.14374497781E+03  0.35284201705E+02 -0.64153230322E+03  0.68780250771E+03  0.19900000000E+03 0.  0.
   -5000001    1    1    2    0    0  0.14374497781E+03 -0.35284201705E+02 -0.55822959605E+03  0.61084275836E+03  0.19900000000E+03 0.  0.
<mgrwt>
<rscale>  0 0.49704216E+03</rscale>
<asrwt>0</asrwt>
<pdfrwt beam="1">  1        2 0.17845763E+00 0.49704216E+03</pdfrwt>
<pdfrwt beam="2">  1       -2 0.70630984E-02 0.49704216E+03</pdfrwt>
<totfact> 0.24222980E+03</totfact>
</mgrwt>
</event>
<event>
 4    1  0.1724904E-005  0.5169088E+03  0.7818608E-02  0.1009457E+00
         -2   -1    0    0    0  501 -0.00000000000E+00  0.00000000000E+00  0.18965114472E+03  0.18965114474E+03  0.25500000000E-02 0.  1.
          2   -1    0    0  501    0  0.00000000000E+00 -0.00000000000E+00 -0.35221871294E+03  0.35221871295E+03  0.25500000000E-02 0. -1.
    5000001    1    1    2    0    0 -0.13838775270E+02  0.16000635955E+03 -0.42002513152E+02  0.25915006831E+03  0.19900000000E+03 0.  0.
   -5000001    1    1    2    0    0  0.13838775270E+02 -0.16000635955E+03 -0.12056505507E+03  0.28271978937E+03  0.19900000000E+03 0.  0.
<mgrwt>
<rscale>  0 0.51690882E+03</rscale>
<asrwt>0</asrwt>
<pdfrwt beam="1">  1        2 0.50316959E-01 0.51690882E+03</pdfrwt>
<pdfrwt beam="2">  1       -2 0.27093021E-01 0.51690882E+03</pdfrwt>
<totfact> 0.12334564E+03</totfact>
</mgrwt>
</event>
<event>
 4    1  0.1724904E-005  0.8379833E+03  0.7818608E-02  0.9506609E-01
         -2   -1    0    0    0  501 -0.00000000000E+00  0.00000000000E+00  0.10042993390E+03  0.10042993393E+03  0.25500000000E-02 0. -1.
          2   -1    0    0  501    0  0.00000000000E+00 -0.00000000000E+00 -0.17480247613E+04  0.17480247613E+04  0.25500000000E-02 0.  1.
    5000001    1    1    2    0    0  0.35319959683E+01  0.22408921588E+03 -0.17795573586E+03  0.34856519562E+03  0.19900000000E+03 0.  0.
   -5000001    1    1    2    0    0 -0.35319959683E+01 -0.22408921588E+03 -0.14696390915E+04  0.14998894996E+04  0.19900000000E+03 0.  0.
<mgrwt>
<rscale>  0 0.83798332E+03</rscale>
<asrwt>0</asrwt>
<pdfrwt beam="1">  1        2 0.24971781E+00 0.83798332E+03</pdfrwt>
<pdfrwt beam="2">  1       -2 0.14347134E-01 0.83798332E+03</pdfrwt>
<totfact> 0.41277516E+02</totfact>
</mgrwt>
</event>
<event>
 4    1  0.1724904E-005  0.5252566E+03  0.7818608E-02  0.1007389E+00
         -2   -1    0    0    0  501 -0.00000000000E+00  0.00000000000E+00  0.30425354719E+02  0.30425354826E+02  0.25500000000E-02 0. -1.
          2   -1    0    0  501    0  0.00000000000E+00 -0.00000000000E+00 -0.22669785915E+04  0.22669785915E+04  0.25500000000E-02 0.  1.
    5000001    1    1    2    0    0 -0.30958939934E+02 -0.12767316169E+03 -0.63687795546E+03  0.68005398486E+03  0.19900000000E+03 0.  0.
   -5000001    1    1    2    0    0  0.30958939934E+02  0.12767316169E+03 -0.15996752813E+04  0.16173499615E+04  0.19900000000E+03 0.  0.
<mgrwt>
<rscale>  0 0.52525662E+03</rscale>
<asrwt>0</asrwt>
<pdfrwt beam="1">  1        2 0.32385398E+00 0.52525662E+03</pdfrwt>
<pdfrwt beam="2">  1       -2 0.43464807E-02 0.52525662E+03</pdfrwt>
<totfact> 0.15558514E+03</totfact>
</mgrwt>
</event>
<event>
 4    1  0.1724904E-005  0.9211374E+03  0.7818608E-02  0.9399538E-01
          2   -1    0    0  501    0  0.00000000000E+00  0.00000000000E+00  0.13247533038E+04  0.13247533038E+04  0.25500000000E-02 0.  1.
         -2   -1    0    0    0  501 -0.00000000000E+00 -0.00000000000E+00 -0.16012303217E+03  0.16012303220E+03  0.25500000000E-02 0. -1.
    5000001    1    1    2    0    0  0.11077198702E+03 -0.39910608234E+03  0.63242789915E+03  0.78174301768E+03  0.19900000000E+03 0.  0.
   -5000001    1    1    2    0    0 -0.11077198702E+03  0.39910608234E+03  0.53220237252E+03  0.70313331836E+03  0.19900000000E+03 0.  0.
<mgrwt>
<rscale>  0 0.92113738E+03</rscale>
<asrwt>0</asrwt>
<pdfrwt beam="1">  1        2 0.18925047E+00 0.92113738E+03</pdfrwt>
<pdfrwt beam="2">  1       -2 0.22874719E-01 0.92113738E+03</pdfrwt>
<totfact> 0.30590236E+02</totfact>
</mgrwt>
</event>
<event>
 4    1  0.1724904E-005  0.7884110E+03  0.7818608E-02  0.9576945E-01
         -2   -1    0    0    0  501 -0.00000000000E+00  0.00000000000E+00  0.22132618293E+03  0.22132618294E+03  0.25500000000E-02 0. -1.
          2   -1    0    0  501    0  0.00000000000E+00 -0.00000000000E+00 -0.70212191974E+03  0.70212191974E+03  0.25500000000E-02 0.  1.
    5000001    1    1    2    0    0 -0.12443993962E+02 -0.31613334674E+03 -0.93628707282E+02  0.38530829310E+03  0.19900000000E+03 0.  0.
   -5000001    1    1    2    0    0  0.12443993962E+02  0.31613334674E+03 -0.38716702953E+03  0.53813980959E+03  0.19900000000E+03 0.  0.
<mgrwt>
<rscale>  0 0.78841097E+03</rscale>
<asrwt>0</asrwt>
<pdfrwt beam="1">  1        2 0.10030313E+00 0.78841097E+03</pdfrwt>
<pdfrwt beam="2">  1       -2 0.31618026E-01 0.78841097E+03</pdfrwt>
<totfact> 0.41799731E+02</totfact>
</mgrwt>
</event>
<event>
 4    1  0.1724904E-005  0.8038424E+03  0.7818608E-02  0.9554472E-01
          2   -1    0    0  501    0  0.00000000000E+00  0.00000000000E+00  0.32467377631E+04  0.32467377631E+04  0.25500000000E-02 0.  1.
         -2   -1    0    0    0  501 -0.00000000000E+00 -0.00000000000E+00 -0.49754763915E+02  0.49754763980E+02  0.25500000000E-02 0. -1.
    5000001    1    1    2    0    0 -0.23816204609E+03  0.11381844717E+03  0.25360145385E+04  0.25574687757E+04  0.19900000000E+03 0.  0.
   -5000001    1    1    2    0    0  0.23816204609E+03 -0.11381844717E+03  0.66096846072E+03  0.73902375143E+03  0.19900000000E+03 0.  0.
<mgrwt>
<rscale>  0 0.80384245E+03</rscale>
<asrwt>0</asrwt>
<pdfrwt beam="1">  1        2 0.46381974E+00 0.80384245E+03</pdfrwt>
<pdfrwt beam="2">  1       -2 0.71078225E-02 0.80384245E+03</pdfrwt>
<totfact> 0.21257220E+02</totfact>
</mgrwt>
</event>
<event>
 4    1  0.1724904E-005  0.5932029E+03  0.7818608E-02  0.9919609E-01
         -2   -1    0    0    0  501 -0.00000000000E+00  0.00000000000E+00  0.66659216519E+02  0.66659216568E+02  0.25500000000E-02 0. -1.
          2   -1    0    0  501    0  0.00000000000E+00 -0.00000000000E+00 -0.13197336244E+04  0.13197336244E+04  0.25500000000E-02 0.  1.
    5000001    1    1    2    0    0  0.21051452296E+03  0.42445949574E+02 -0.51559394829E+03  0.59292170016E+03  0.19900000000E+03 0.  0.
   -5000001    1    1    2    0    0 -0.21051452296E+03 -0.42445949574E+02 -0.73748045956E+03  0.79347114078E+03  0.19900000000E+03 0.  0.
<mgrwt>
<rscale>  0 0.59320286E+03</rscale>
<asrwt>0</asrwt>
<pdfrwt beam="1">  1        2 0.18853336E+00 0.59320286E+03</pdfrwt>
<pdfrwt beam="2">  1       -2 0.95227460E-02 0.59320286E+03</pdfrwt>
<totfact> 0.13747120E+03</totfact>
</mgrwt>
</event>
<event>
 4    1  0.1724904E-005  0.5952769E+03  0.7818608E-02  0.9915254E-01
          2   -1    0    0  501    0  0.00000000000E+00  0.00000000000E+00  0.15100529336E+04  0.15100529336E+04  0.25500000000E-02 0.  1.
         -2   -1    0    0    0  501 -0.00000000000E+00 -0.00000000000E+00 -0.58665912764E+02  0.58665912820E+02  0.25500000000E-02 0. -1.
    5000001    1    1    2    0    0 -0.33037060627E+02 -0.97643921889E+02  0.12418434643E+04  0.12619041060E+04  0.19900000000E+03 0.  0.
   -5000001    1    1    2    0    0  0.33037060627E+02  0.97643921889E+02  0.20954355647E+03  0.30681474038E+03  0.19900000000E+03 0.  0.
<mgrwt>
<rscale>  0 0.59527686E+03</rscale>
<asrwt>0</asrwt>
<pdfrwt beam="1">  1        2 0.21572184E+00 0.59527686E+03</pdfrwt>
<pdfrwt beam="2">  1       -2 0.83808449E-02 0.59527686E+03</pdfrwt>
<totfact> 0.13380896E+03</totfact>
</mgrwt>
</event>
<event>
 4    1  0.1724904E-005  0.1126462E+04  0.7818608E-02  0.9179777E-01
          2   -1    0    0  501    0  0.00000000000E+00  0.00000000000E+00  0.15978252943E+04  0.15978252943E+04  0.25500000000E-02 0.  1.
         -2   -1    0    0    0  501 -0.00000000000E+00 -0.00000000000E+00 -0.19853811451E+03  0.19853811452E+03  0.25500000000E-02 0. -1.
    5000001    1    1    2    0    0  0.29378030950E+03 -0.42084643557E+03  0.50954934171E+03  0.75010674188E+03  0.19900000000E+03 0.  0.
   -5000001    1    1    2    0    0 -0.29378030950E+03  0.42084643557E+03  0.88973783804E+03  0.10462566669E+04  0.19900000000E+03 0.  0.
<mgrwt>
<rscale>  0 0.11264621E+04</rscale>
<asrwt>0</asrwt>
<pdfrwt beam="1">  1        2 0.22826076E+00 0.11264621E+04</pdfrwt>
<pdfrwt beam="2">  1       -2 0.28362588E-01 0.11264621E+04</pdfrwt>
<totfact> 0.14620078E+02</totfact>
</mgrwt>
</event>
<event>
 4    1  0.1724904E-005  0.5356196E+03  0.7818608E-02  0.1004878E+00
          2   -1    0    0  501    0  0.00000000000E+00  0.00000000000E+00  0.58018609235E+03  0.58018609236E+03  0.25500000000E-02 0.  1.
         -2   -1    0    0    0  501 -0.00000000000E+00 -0.00000000000E+00 -0.12361912226E+03  0.12361912229E+03  0.25500000000E-02 0. -1.
    5000001    1    1    2    0    0  0.11021479273E+03  0.13948854182E+03  0.19841365585E+03  0.33252568722E+03  0.19900000000E+03 0.  0.
   -5000001    1    1    2    0    0 -0.11021479273E+03 -0.13948854182E+03  0.25815331424E+03  0.37127952743E+03  0.19900000000E+03 0.  0.
<mgrwt>
<rscale>  0 0.53561962E+03</rscale>
<asrwt>0</asrwt>
<pdfrwt beam="1">  1        2 0.82883727E-01 0.53561962E+03</pdfrwt>
<pdfrwt beam="2">  1       -2 0.17659875E-01 0.53561962E+03</pdfrwt>
<totfact> 0.14945443E+03</totfact>
</mgrwt>
</event>
<event>
 4    1  0.1724904E-005  0.5034118E+03  0.7818608E-02  0.1012892E+00
         -2   -1    0    0    0  501 -0.00000000000E+00  0.00000000000E+00  0.29243798334E+04  0.29243798334E+04  0.25500000000E-02 0. -1.
          2   -1    0    0  501    0  0.00000000000E+00 -0.00000000000E+00 -0.21664718682E+02  0.21664718832E+02  0.25500000000E-02 0.  1.
    5000001    1    1    2    0    0  0.15220954796E+03 -0.12497692845E+02  0.13298738154E+04  0.13533252764E+04  0.19900000000E+03 0.  0.
   -5000001    1    1    2    0    0 -0.15220954796E+03  0.12497692845E+02  0.15728412993E+04  0.15927192758E+04  0.19900000000E+03 0.  0.
<mgrwt>
<rscale>  0 0.50341183E+03</rscale>
<asrwt>0</asrwt>
<pdfrwt beam="1">  1        2 0.30949570E-02 0.50341183E+03</pdfrwt>
<pdfrwt beam="2">  1       -2 0.41776893E+00 0.50341183E+03</pdfrwt>
<totfact> 0.19989750E+01</totfact>
</mgrwt>
</event>
<event>
 4    1  0.1724904E-005  0.5392870E+03  0.7818608E-02  0.1004004E+00
         -2   -1    0    0    0  501 -0.00000000000E+00  0.00000000000E+00  0.28581564593E+02  0.28581564707E+02  0.25500000000E-02 0. -1.
          2   -1    0    0  501    0  0.00000000000E+00 -0.00000000000E+00 -0.25438638237E+04  0.25438638237E+04  0.25500000000E-02 0.  1.
    5000001    1    1    2    0    0 -0.78790844850E+02 -0.16367516450E+03 -0.12078281717E+04  0.12375166459E+04  0.19900000000E+03 0.  0.
   -5000001    1    1    2    0    0  0.78790844850E+02  0.16367516450E+03 -0.13074540875E+04  0.13349287425E+04  0.19900000000E+03 0.  0.
<mgrwt>
<rscale>  0 0.53928697E+03</rscale>
<asrwt>0</asrwt>
<pdfrwt beam="1">  1        2 0.36340897E+00 0.53928697E+03</pdfrwt>
<pdfrwt beam="2">  1       -2 0.40830823E-02 0.53928697E+03</pdfrwt>
<totfact> 0.12379612E+03</totfact>
</mgrwt>
</event>
<event>
 4    1  0.1724904E-005  0.1494284E+04  0.7818608E-02  0.8888263E-01
          2   -1    0    0  501    0  0.00000000000E+00  0.00000000000E+00  0.19059406477E+04  0.19059406478E+04  0.25500000000E-02 0.  1.
         -2   -1    0    0    0  501 -0.00000000000E+00 -0.00000000000E+00 -0.29288468668E+03  0.29288468669E+03  0.25500000000E-02 0. -1.
    5000001    1    1    2    0    0  0.85141481756E+02 -0.52144597162E+03  0.86451525899E+02  0.57116533470E+03  0.19900000000E+03 0.  0.
   -5000001    1    1    2    0    0 -0.85141481756E+02  0.52144597162E+03  0.15266044352E+04  0.16276599997E+04  0.19900000000E+03 0.  0.
<mgrwt>
<rscale>  0 0.14942835E+04</rscale>
<asrwt>0</asrwt>
<pdfrwt beam="1">  1        2 0.27227722E+00 0.14942835E+04</pdfrwt>
<pdfrwt beam="2">  1       -2 0.41840671E-01 0.14942835E+04</pdfrwt>
<totfact> 0.47000011E+01</totfact>
</mgrwt>
</event>
<event>
 4    1  0.1724904E-005  0.6389491E+03  0.7818608E-02  0.9827739E-01
         -2   -1    0    0    0  501 -0.00000000000E+00  0.00000000000E+00  0.10422739001E+03  0.10422739004E+03  0.25500000000E-02 0. -1.
          2   -1    0    0  501    0  0.00000000000E+00 -0.00000000000E+00 -0.97924356796E+03  0.97924356796E+03  0.25500000000E-02 0.  1.
    5000001    1    1    2    0    0 -0.78269433826E+02  0.10470405939E+03 -0.79871355298E+03  0.83344668938E+03  0.19900000000E+03 0.  0.
   -5000001    1    1    2    0    0  0.78269433826E+02 -0.10470405939E+03 -0.76302624964E+02  0.25002426863E+03  0.19900000000E+03 0.  0.
<mgrwt>
<rscale>  0 0.63894914E+03</rscale>
<asrwt>0</asrwt>
<pdfrwt beam="1">  1        2 0.13989193E+00 0.63894914E+03</pdfrwt>
<pdfrwt beam="2">  1       -2 0.14889628E-01 0.63894914E+03</pdfrwt>
<totfact> 0.10310184E+03</totfact>
</mgrwt>
</event>
<event>
 4    1  0.1724904E-005  0.6459957E+03  0.7818608E-02  0.9814322E-01
         -2   -1    0    0    0  501 -0.00000000000E+00  0.00000000000E+00  0.24460978910E+02  0.24460979043E+02  0.25500000000E-02 0. -1.
          2   -1    0    0  501    0  0.00000000000E+00 -0.00000000000E+00 -0.42650629101E+04  0.42650629101E+04  0.25500000000E-02 0.  1.
    5000001    1    1    2    0    0 -0.17796040601E+02  0.21282001649E+03 -0.30384129140E+04  0.30524028394E+04  0.19900000000E+03 0.  0.
   -5000001    1    1    2    0    0  0.17796040601E+02 -0.21282001649E+03 -0.12021890172E+04  0.12371210497E+04  0.19900000000E+03 0.  0.
<mgrwt>
<rscale>  0 0.64599571E+03</rscale>
<asrwt>0</asrwt>
<pdfrwt beam="1">  1        2 0.60929423E+00 0.64599571E+03</pdfrwt>
<pdfrwt beam="2">  1       -2 0.34944283E-02 0.64599571E+03</pdfrwt>
<totfact> 0.14767192E+02</totfact>
</mgrwt>
</event>
<event>
 4    1  0.1724904E-005  0.9849851E+03  0.7818608E-02  0.9325168E-01
         -2   -1    0    0    0  501 -0.00000000000E+00  0.00000000000E+00  0.60287795454E+03  0.60287795455E+03  0.25500000000E-02 0. -1.
          2   -1    0    0  501    0  0.00000000000E+00 -0.00000000000E+00 -0.40231845573E+03  0.40231845574E+03  0.25500000000E-02 0.  1.
    5000001    1    1    2    0    0 -0.50153498829E+02  0.38799504155E+03 -0.12766965414E+03  0.45711712536E+03  0.19900000000E+03 0.  0.
   -5000001    1    1    2    0    0  0.50153498829E+02 -0.38799504155E+03  0.32822915295E+03  0.54807928492E+03  0.19900000000E+03 0.  0.
<mgrwt>
<rscale>  0 0.98498513E+03</rscale>
<asrwt>0</asrwt>
<pdfrwt beam="1">  1        2 0.57474066E-01 0.98498513E+03</pdfrwt>
<pdfrwt beam="2">  1       -2 0.86125421E-01 0.98498513E+03</pdfrwt>
<totfact> 0.10046833E+02</totfact>
</mgrwt>
</event>
<event>
 4    1  0.1724904E-005  0.7791946E+03  0.7818608E-02  0.9590630E-01
          2   -1    0    0  501    0  0.00000000000E+00  0.00000000000E+00  0.18762524783E+03  0.18762524785E+03  0.25500000000E-02 0.  1.
         -2   -1    0    0    0  501 -0.00000000000E+00 -0.00000000000E+00 -0.80898516497E+03  0.80898516498E+03  0.25500000000E-02 0. -1.
    5000001    1    1    2    0    0  0.15646525361E+03  0.27297879338E+03 -0.45755231895E+03  0.58987619193E+03  0.19900000000E+03 0.  0.
   -5000001    1    1    2    0    0 -0.15646525361E+03 -0.27297879338E+03 -0.16380759819E+03  0.40673422090E+03  0.19900000000E+03 0.  0.
<mgrwt>
<rscale>  0 0.77919456E+03</rscale>
<asrwt>0</asrwt>
<pdfrwt beam="1">  1        2 0.26803607E-01 0.77919456E+03</pdfrwt>
<pdfrwt beam="2">  1       -2 0.11556931E+00 0.77919456E+03</pdfrwt>
<totfact> 0.11881925E+02</totfact>
</mgrwt>
</event>
<event>
 4    1  0.1724904E-005  0.4973738E+03  0.7818608E-02  0.1014467E+00
         -2   -1    0    0    0  501 -0.00000000000E+00  0.00000000000E+00  0.42008667923E+02  0.42008668000E+02  0.25500000000E-02 0. -1.
          2   -1    0    0  501    0  0.00000000000E+00 -0.00000000000E+00 -0.14722004270E+04  0.14722004270E+04  0.25500000000E-02 0.  1.
    5000001    1    1    2    0    0  0.14824775099E+03  0.11617590897E+02 -0.68014283141E+03  0.72409090259E+03  0.19900000000E+03 0.  0.
   -5000001    1    1    2    0    0 -0.14824775099E+03 -0.11617590897E+02 -0.75004892766E+03  0.79011819241E+03  0.19900000000E+03 0.  0.
<mgrwt>
<rscale>  0 0.49737382E+03</rscale>
<asrwt>0</asrwt>
<pdfrwt beam="1">  1        2 0.21031431E+00 0.49737382E+03</pdfrwt>
<pdfrwt beam="2">  1       -2 0.60012392E-02 0.49737382E+03</pdfrwt>
<totfact> 0.23785082E+03</totfact>
</mgrwt>
</event>
<event>
 4    1  0.1724904E-005  0.6038462E+03  0.7818608E-02  0.9897458E-01
          2   -1    0    0  501    0  0.00000000000E+00  0.00000000000E+00  0.16363853549E+04  0.16363853549E+04  0.25500000000E-02 0.  1.
         -2   -1    0    0    0  501 -0.00000000000E+00 -0.00000000000E+00 -0.55706648767E+02  0.55706648825E+02  0.25500000000E-02 0. -1.
    5000001    1    1    2    0    0  0.21391366939E+03  0.64187764063E+02  0.90510666818E+03  0.95325663270E+03  0.19900000000E+03 0.  0.
   -5000001    1    1    2    0    0 -0.21391366939E+03 -0.64187764063E+02  0.67557203791E+03  0.73883537099E+03  0.19900000000E+03 0.  0.
<mgrwt>
<rscale>  0 0.60384615E+03</rscale>
<asrwt>0</asrwt>
<pdfrwt beam="1">  1        2 0.23376934E+00 0.60384615E+03</pdfrwt>
<pdfrwt beam="2">  1       -2 0.79580925E-02 0.60384615E+03</pdfrwt>
<totfact> 0.12504205E+03</totfact>
</mgrwt>
</event>
<event>
 4    1  0.1724904E-005  0.5969310E+03  0.7818608E-02  0.9911794E-01
          2   -1    0    0  501    0  0.00000000000E+00  0.00000000000E+00  0.14346057221E+04  0.14346057221E+04  0.25500000000E-02 0.  1.
         -2   -1    0    0    0  501 -0.00000000000E+00 -0.00000000000E+00 -0.62094871917E+02  0.62094871970E+02  0.25500000000E-02 0. -1.
    5000001    1    1    2    0    0 -0.80672284251E+02  0.17109922908E+03  0.97970570863E+03  0.10174513449E+04  0.19900000000E+03 0.  0.
   -5000001    1    1    2    0    0  0.80672284251E+02 -0.17109922908E+03  0.39280514155E+03  0.47924924921E+03  0.19900000000E+03 0.  0.
<mgrwt>
<rscale>  0 0.59693101E+03</rscale>
<asrwt>0</asrwt>
<pdfrwt beam="1">  1        2 0.20494368E+00 0.59693101E+03</pdfrwt>
<pdfrwt beam="2">  1       -2 0.88706958E-02 0.59693101E+03</pdfrwt>
<totfact> 0.13379752E+03</totfact>
</mgrwt>
</event>
<event>
 4    1  0.1724904E-005  0.4532819E+03  0.7818608E-02  0.1026748E+00
          2   -1    0    0  501    0  0.00000000000E+00  0.00000000000E+00  0.12540835733E+04  0.12540835733E+04  0.25500000000E-02 0. -1.
         -2   -1    0    0    0  501 -0.00000000000E+00 -0.00000000000E+00 -0.40959082606E+02  0.40959082685E+02  0.25500000000E-02 0.  1.
    5000001    1    1    2    0    0  0.56676675646E+02 -0.63894691306E+02  0.41553918838E+03  0.46858147020E+03  0.19900000000E+03 0.  0.
   -5000001    1    1    2    0    0 -0.56676675646E+02  0.63894691306E+02  0.79758530234E+03  0.82646118581E+03  0.19900000000E+03 0.  0.
<mgrwt>
<rscale>  0 0.45328187E+03</rscale>
<asrwt>0</asrwt>
<pdfrwt beam="1">  1        2 0.17915481E+00 0.45328187E+03</pdfrwt>
<pdfrwt beam="2">  1       -2 0.58512971E-02 0.45328187E+03</pdfrwt>
<totfact> 0.32318563E+03</totfact>
</mgrwt>
</event>
<event>
 4    1  0.1724904E-005  0.8816448E+03  0.7818608E-02  0.9448822E-01
         -2   -1    0    0    0  501 -0.00000000000E+00  0.00000000000E+00  0.15606544490E+03  0.15606544492E+03  0.25500000000E-02 0. -1.
          2   -1    0    0  501    0  0.00000000000E+00 -0.00000000000E+00 -0.12451466843E+04  0.12451466843E+04  0.25500000000E-02 0.  1.
    5000001    1    1    2    0    0  0.29005384381E+03  0.26324350536E+03 -0.48734741314E+03  0.65615308923E+03  0.19900000000E+03 0.  0.
   -5000001    1    1    2    0    0 -0.29005384381E+03 -0.26324350536E+03 -0.60173382630E+03  0.74505904003E+03  0.19900000000E+03 0.  0.
<mgrwt>
<rscale>  0 0.88164476E+03</rscale>
<asrwt>0</asrwt>
<pdfrwt beam="1">  1        2 0.17787809E+00 0.88164476E+03</pdfrwt>
<pdfrwt beam="2">  1       -2 0.22295064E-01 0.88164476E+03</pdfrwt>
<totfact> 0.35512494E+02</totfact>
</mgrwt>
</event>
<event>
 4    1  0.1724904E-005  0.5064195E+03  0.7818608E-02  0.1012117E+00
         -2   -1    0    0    0  501 -0.00000000000E+00  0.00000000000E+00  0.33340573423E+02  0.33340573521E+02  0.25500000000E-02 0. -1.
          2   -1    0    0  501    0  0.00000000000E+00 -0.00000000000E+00 -0.19230376800E+04  0.19230376800E+04  0.25500000000E-02 0.  1.
    5000001    1    1    2    0    0 -0.11401066712E+03 -0.10729892074E+03 -0.95118278082E+03  0.98430745865E+03  0.19900000000E+03 0.  0.
   -5000001    1    1    2    0    0  0.11401066712E+03  0.10729892074E+03 -0.93851432576E+03  0.97207079488E+03  0.19900000000E+03 0.  0.
<mgrwt>
<rscale>  0 0.50641951E+03</rscale>
<asrwt>0</asrwt>
<pdfrwt beam="1">  1        2 0.27471960E+00 0.50641951E+03</pdfrwt>
<pdfrwt beam="2">  1       -2 0.47629403E-02 0.50641951E+03</pdfrwt>
<totfact> 0.20102645E+03</totfact>
</mgrwt>
</event>
<event>
 4    1  0.1724904E-005  0.5472294E+03  0.7818608E-02  0.1002137E+00
          2   -1    0    0  501    0  0.00000000000E+00  0.00000000000E+00  0.29680945207E+03  0.29680945208E+03  0.25500000000E-02 0.  1.
         -2   -1    0    0    0  501 -0.00000000000E+00 -0.00000000000E+00 -0.25223257528E+03  0.25223257530E+03  0.25500000000E-02 0. -1.
    5000001    1    1    2    0    0  0.67700297927E+02 -0.12021896662E+03  0.15009988273E+03  0.28489806084E+03  0.19900000000E+03 0.  0.
   -5000001    1    1    2    0    0 -0.67700297927E+02  0.12021896662E+03 -0.10552300594E+03  0.26414396654E+03  0.19900000000E+03 0.  0.
<mgrwt>
<rscale>  0 0.54722943E+03</rscale>
<asrwt>0</asrwt>
<pdfrwt beam="1">  1        2 0.42401350E-01 0.54722943E+03</pdfrwt>
<pdfrwt beam="2">  1       -2 0.36033225E-01 0.54722943E+03</pdfrwt>
<totfact> 0.87710684E+02</totfact>
</mgrwt>
</event>
<event>
 4    1  0.1724904E-005  0.5146510E+03  0.7818608E-02  0.1010024E+00
         -2   -1    0    0    0  501 -0.00000000000E+00  0.00000000000E+00  0.44798209181E+02  0.44798209253E+02  0.25500000000E-02 0. -1.
          2   -1    0    0  501    0  0.00000000000E+00 -0.00000000000E+00 -0.14781040468E+04  0.14781040468E+04  0.25500000000E-02 0.  1.
    5000001    1    1    2    0    0  0.71299059150E+02 -0.13531912951E+03 -0.88458243570E+03  0.91950090169E+03  0.19900000000E+03 0.  0.
   -5000001    1    1    2    0    0 -0.71299059150E+02  0.13531912951E+03 -0.54872340195E+03  0.60340135440E+03  0.19900000000E+03 0.  0.
<mgrwt>
<rscale>  0 0.51465101E+03</rscale>
<asrwt>0</asrwt>
<pdfrwt beam="1">  1        2 0.21115769E+00 0.51465101E+03</pdfrwt>
<pdfrwt beam="2">  1       -2 0.63997451E-02 0.51465101E+03</pdfrwt>
<totfact> 0.21352305E+03</totfact>
</mgrwt>
</event>
<event>
 4    1  0.1724904E-005  0.7319238E+03  0.7818608E-02  0.9664144E-01
         -2   -1    0    0    0  501 -0.00000000000E+00  0.00000000000E+00  0.18278376937E+03  0.18278376939E+03  0.25500000000E-02 0. -1.
          2   -1    0    0  501    0  0.00000000000E+00 -0.00000000000E+00 -0.73271328351E+03  0.73271328351E+03  0.25500000000E-02 0.  1.
    5000001    1    1    2    0    0 -0.22602171977E+03 -0.18966472441E+03 -0.16832586933E+03  0.39369166079E+03  0.19900000000E+03 0.  0.
   -5000001    1    1    2    0    0  0.22602171977E+03  0.18966472441E+03 -0.38160364481E+03  0.52180539210E+03  0.19900000000E+03 0.  0.
<mgrwt>
<rscale>  0 0.73192376E+03</rscale>
<asrwt>0</asrwt>
<pdfrwt beam="1">  1        2 0.10467332E+00 0.73192376E+03</pdfrwt>
<pdfrwt beam="2">  1       -2 0.26111967E-01 0.73192376E+03</pdfrwt>
<totfact> 0.56501134E+02</totfact>
</mgrwt>
</event>
<event>
 4    1  0.1724904E-005  0.5905336E+03  0.7818608E-02  0.9925243E-01
         -2   -1    0    0    0  501 -0.00000000000E+00  0.00000000000E+00  0.24304991103E+02  0.24304991237E+02  0.25500000000E-02 0. -1.
          2   -1    0    0  501    0  0.00000000000E+00 -0.00000000000E+00 -0.35870195466E+04  0.35870195466E+04  0.25500000000E-02 0.  1.
    5000001    1    1    2    0    0  0.15170936673E+03  0.13584523422E+03 -0.13032700378E+04  0.13340102890E+04  0.19900000000E+03 0.  0.
   -5000001    1    1    2    0    0 -0.15170936673E+03 -0.13584523422E+03 -0.22594445177E+04  0.22773142489E+04  0.19900000000E+03 0.  0.
<mgrwt>
<rscale>  0 0.59053358E+03</rscale>
<asrwt>0</asrwt>
<pdfrwt beam="1">  1        2 0.51243102E+00 0.59053358E+03</pdfrwt>
<pdfrwt beam="2">  1       -2 0.34721439E-02 0.59053358E+03</pdfrwt>
<totfact> 0.41931108E+02</totfact>
</mgrwt>
</event>
<event>
 4    1  0.1724904E-005  0.7088407E+03  0.7818608E-02  0.9702232E-01
          2   -1    0    0  501    0  0.00000000000E+00  0.00000000000E+00  0.81826609242E+03  0.81826609243E+03  0.25500000000E-02 0.  1.
         -2   -1    0    0    0  501 -0.00000000000E+00 -0.00000000000E+00 -0.15351216736E+03  0.15351216738E+03  0.25500000000E-02 0. -1.
    5000001    1    1    2    0    0 -0.13508436787E+03 -0.21385625869E+03  0.53586122854E+03  0.62508442796E+03  0.19900000000E+03 0.  0.
   -5000001    1    1    2    0    0  0.13508436787E+03  0.21385625869E+03  0.12889269653E+03  0.34669383185E+03  0.19900000000E+03 0.  0.
<mgrwt>
<rscale>  0 0.70884075E+03</rscale>
<asrwt>0</asrwt>
<pdfrwt beam="1">  1        2 0.11689516E+00 0.70884075E+03</pdfrwt>
<pdfrwt beam="2">  1       -2 0.21930309E-01 0.70884075E+03</pdfrwt>
<totfact> 0.67158520E+02</totfact>
</mgrwt>
</event>
<event>
 4    1  0.1724904E-005  0.7385971E+03  0.7818608E-02  0.9653411E-01
          2   -1    0    0  501    0  0.00000000000E+00  0.00000000000E+00  0.77371924351E+03  0.77371924352E+03  0.25500000000E-02 0.  1.
         -2   -1    0    0    0  501 -0.00000000000E+00 -0.00000000000E+00 -0.17626733744E+03  0.17626733746E+03  0.25500000000E-02 0. -1.
    5000001    1    1    2    0    0  0.30532981006E+03 -0.50188025640E+02  0.34011095643E+03  0.50102055199E+03  0.19900000000E+03 0.  0.
   -5000001    1    1    2    0    0 -0.30532981006E+03  0.50188025640E+02  0.25734094964E+03  0.44896602899E+03  0.19900000000E+03 0.  0.
<mgrwt>
<rscale>  0 0.73859713E+03</rscale>
<asrwt>0</asrwt>
<pdfrwt beam="1">  1        2 0.11053132E+00 0.73859713E+03</pdfrwt>
<pdfrwt beam="2">  1       -2 0.25181048E-01 0.73859713E+03</pdfrwt>
<totfact> 0.56323283E+02</totfact>
</mgrwt>
</event>
<event>
 4    1  0.1724904E-005  0.4853865E+03  0.7818608E-02  0.1017665E+00
          2   -1    0    0  501    0  0.00000000000E+00  0.00000000000E+00  0.20155100327E+03  0.20155100329E+03  0.25500000000E-02 0.  1.
         -2   -1    0    0    0  501 -0.00000000000E+00 -0.00000000000E+00 -0.29223382231E+03  0.29223382232E+03  0.25500000000E-02 0. -1.
    5000001    1    1    2    0    0 -0.78361580359E+02 -0.10715060418E+03 -0.87004016428E+02  0.25454368609E+03  0.19900000000E+03 0.  0.
   -5000001    1    1    2    0    0  0.78361580359E+02  0.10715060418E+03 -0.36788026165E+01  0.23924113952E+03  0.19900000000E+03 0.  0.
<mgrwt>
<rscale>  0 0.48538653E+03</rscale>
<asrwt>0</asrwt>
<pdfrwt beam="1">  1        2 0.28793001E-01 0.48538653E+03</pdfrwt>
<pdfrwt beam="2">  1       -2 0.41747689E-01 0.48538653E+03</pdfrwt>
<totfact> 0.10149875E+03</totfact>
</mgrwt>
</event>
<event>
 4    1  0.1724904E-005  0.1155204E+04  0.7818608E-02  0.9152996E-01
         -2   -1    0    0    0  501 -0.00000000000E+00  0.00000000000E+00  0.35702432387E+03  0.35702432388E+03  0.25500000000E-02 0. -1.
          2   -1    0    0  501    0  0.00000000000E+00 -0.00000000000E+00 -0.93445800179E+03  0.93445800179E+03  0.25500000000E-02 0.  1.
    5000001    1    1    2    0    0 -0.53511860207E+03 -0.86224916039E+02 -0.27152111793E+03  0.63805279712E+03  0.19900000000E+03 0.  0.
   -5000001    1    1    2    0    0  0.53511860207E+03  0.86224916039E+02 -0.30591255999E+03  0.65342952855E+03  0.19900000000E+03 0.  0.
<mgrwt>
<rscale>  0 0.11552043E+04</rscale>
<asrwt>0</asrwt>
<pdfrwt beam="1">  1        2 0.13349400E+00 0.11552043E+04</pdfrwt>
<pdfrwt beam="2">  1       -2 0.51003475E-01 0.11552043E+04</pdfrwt>
<totfact> 0.11105748E+02</totfact>
</mgrwt>
</event>
<event>
 4    1  0.1724904E-005  0.6280996E+03  0.7818608E-02  0.9848764E-01
          2   -1    0    0  501    0  0.00000000000E+00  0.00000000000E+00  0.44276706730E+04  0.44276706730E+04  0.25500000000E-02 0.  1.
         -2   -1    0    0    0  501 -0.00000000000E+00 -0.00000000000E+00 -0.22275208881E+02  0.22275209027E+02  0.25500000000E-02 0. -1.
    5000001    1    1    2    0    0 -0.16502239648E+03 -0.17794923899E+03  0.21225531433E+04  0.21456307159E+04  0.19900000000E+03 0.  0.
   -5000001    1    1    2    0    0  0.16502239648E+03  0.17794923899E+03  0.22828423208E+04  0.23043151661E+04  0.19900000000E+03 0.  0.
<mgrwt>
<rscale>  0 0.62809964E+03</rscale>
<asrwt>0</asrwt>
<pdfrwt beam="1">  1        2 0.63252490E+00 0.62809964E+03</pdfrwt>
<pdfrwt beam="2">  1       -2 0.31821701E-02 0.62809964E+03</pdfrwt>
<totfact> 0.12960197E+02</totfact>
</mgrwt>
</event>
<event>
 4    1  0.1724904E-005  0.4858848E+03  0.7818608E-02  0.1017530E+00
         -2   -1    0    0    0  501 -0.00000000000E+00  0.00000000000E+00  0.50556942019E+03  0.50556942020E+03  0.25500000000E-02 0. -1.
          2   -1    0    0  501    0  0.00000000000E+00 -0.00000000000E+00 -0.11674165356E+03  0.11674165359E+03  0.25500000000E-02 0.  1.
    5000001    1    1    2    0    0  0.92832420126E+02  0.39537569233E+01  0.32743325279E+03  0.39426770785E+03  0.19900000000E+03 0.  0.
   -5000001    1    1    2    0    0 -0.92832420126E+02 -0.39537569233E+01  0.61394513843E+02  0.22804336594E+03  0.19900000000E+03 0.  0.
<mgrwt>
<rscale>  0 0.48588480E+03</rscale>
<asrwt>0</asrwt>
<pdfrwt beam="1">  1        2 0.16677379E-01 0.48588480E+03</pdfrwt>
<pdfrwt beam="2">  1       -2 0.72224204E-01 0.48588480E+03</pdfrwt>
<totfact> 0.61646863E+02</totfact>
</mgrwt>
</event>
<event>
 4    1  0.1724904E-005  0.6261822E+03  0.7818608E-02  0.9852527E-01
          2   -1    0    0  501    0  0.00000000000E+00  0.00000000000E+00  0.23486152055E+04  0.23486152055E+04  0.25500000000E-02 0. -1.
         -2   -1    0    0    0  501 -0.00000000000E+00 -0.00000000000E+00 -0.41737807119E+02  0.41737807197E+02  0.25500000000E-02 0.  1.
    5000001    1    1    2    0    0  0.15665336429E+03  0.18255579039E+03  0.10632527541E+04  0.11081400238E+04  0.19900000000E+03 0.  0.
   -5000001    1    1    2    0    0 -0.15665336429E+03 -0.18255579039E+03  0.12436246442E+04  0.12822129889E+04  0.19900000000E+03 0.  0.
<mgrwt>
<rscale>  0 0.62618224E+03</rscale>
<asrwt>0</asrwt>
<pdfrwt beam="1">  1        2 0.33551648E+00 0.62618224E+03</pdfrwt>
<pdfrwt beam="2">  1       -2 0.59625434E-02 0.62618224E+03</pdfrwt>
<totfact> 0.86075859E+02</totfact>
</mgrwt>
</event>
<event>
 4    1  0.1724904E-005  0.5878088E+03  0.7818608E-02  0.9931027E-01
          2   -1    0    0  501    0  0.00000000000E+00  0.00000000000E+00  0.19530581281E+04  0.19530581282E+04  0.25500000000E-02 0.  1.
         -2   -1    0    0    0  501 -0.00000000000E+00 -0.00000000000E+00 -0.44227973254E+02  0.44227973327E+02  0.25500000000E-02 0. -1.
    5000001    1    1    2    0    0 -0.19569801941E+03 -0.74289099766E+02  0.11393473294E+04  0.11753850102E+04  0.19900000000E+03 0.  0.
   -5000001    1    1    2    0    0  0.19569801941E+03  0.74289099766E+02  0.76948282551E+03  0.82190109131E+03  0.19900000000E+03 0.  0.
<mgrwt>
<rscale>  0 0.58780882E+03</rscale>
<asrwt>0</asrwt>
<pdfrwt beam="1">  1        2 0.27900836E+00 0.58780882E+03</pdfrwt>
<pdfrwt beam="2">  1       -2 0.63182805E-02 0.58780882E+03</pdfrwt>
<totfact> 0.12465603E+03</totfact>
</mgrwt>
</event>
<event>
 4    1  0.1724904E-005  0.1830424E+04  0.7818608E-02  0.8690286E-01
          2   -1    0    0  501    0  0.00000000000E+00  0.00000000000E+00  0.12766288134E+04  0.12766288134E+04  0.25500000000E-02 0.  1.
         -2   -1    0    0    0  501 -0.00000000000E+00 -0.00000000000E+00 -0.65611301136E+03  0.65611301136E+03  0.25500000000E-02 0. -1.
    5000001    1    1    2    0    0 -0.17271817373E+03  0.49909023932E+02  0.12342079466E+04  0.12630093957E+04  0.19900000000E+03 0.  0.
   -5000001    1    1    2    0    0  0.17271817373E+03 -0.49909023932E+02 -0.61369214457E+03  0.66973242904E+03  0.19900000000E+03 0.  0.
<mgrwt>
<rscale>  0 0.18304237E+04</rscale>
<asrwt>0</asrwt>
<pdfrwt beam="1">  1        2 0.18237555E+00 0.18304237E+04</pdfrwt>
<pdfrwt beam="2">  1       -2 0.93730429E-01 0.18304237E+04</pdfrwt>
<totfact> 0.17581366E+01</totfact>
</mgrwt>
</event>
<event>
 4    1  0.1724904E-005  0.5129577E+03  0.7818608E-02  0.1010451E+00
          2   -1    0    0  501    0  0.00000000000E+00  0.00000000000E+00  0.29041999234E+03  0.29041999236E+03  0.25500000000E-02 0. -1.
         -2   -1    0    0    0  501 -0.00000000000E+00 -0.00000000000E+00 -0.22650439886E+03  0.22650439887E+03  0.25500000000E-02 0.  1.
    5000001    1    1    2    0    0  0.11007437988E+03  0.10901915577E+03  0.78997021186E+02  0.26427840394E+03  0.19900000000E+03 0.  0.
   -5000001    1    1    2    0    0 -0.11007437988E+03 -0.10901915577E+03 -0.15081427700E+02  0.25264598729E+03  0.19900000000E+03 0.  0.
<mgrwt>
<rscale>  0 0.51295772E+03</rscale>
<asrwt>0</asrwt>
<pdfrwt beam="1">  1        2 0.41488571E-01 0.51295772E+03</pdfrwt>
<pdfrwt beam="2">  1       -2 0.32357771E-01 0.51295772E+03</pdfrwt>
<totfact> 0.11001704E+03</totfact>
</mgrwt>
</event>
<event>
 4    1  0.1724904E-005  0.7030970E+03  0.7818608E-02  0.9711950E-01
         -2   -1    0    0    0  501 -0.00000000000E+00  0.00000000000E+00  0.59772860081E+02  0.59772860136E+02  0.25500000000E-02 0. -1.
          2   -1    0    0  501    0  0.00000000000E+00 -0.00000000000E+00 -0.20675999742E+04  0.20675999742E+04  0.25500000000E-02 0.  1.
    5000001    1    1    2    0    0  0.24855388443E+03 -0.23046931021E+02 -0.55845265998E+03  0.64325777720E+03  0.19900000000E+03 0.  0.
   -5000001    1    1    2    0    0 -0.24855388443E+03  0.23046931021E+02 -0.14493744541E+04  0.14841150571E+04  0.19900000000E+03 0.  0.
<mgrwt>
<rscale>  0 0.70309705E+03</rscale>
<asrwt>0</asrwt>
<pdfrwt beam="1">  1        2 0.29537138E+00 0.70309705E+03</pdfrwt>
<pdfrwt beam="2">  1       -2 0.85389813E-02 0.70309705E+03</pdfrwt>
<totfact> 0.67218487E+02</totfact>
</mgrwt>
</event>
<event>
 4    1  0.1724904E-005  0.1071405E+04  0.7818608E-02  0.9233520E-01
         -2   -1    0    0    0  501 -0.00000000000E+00  0.00000000000E+00  0.19340239063E+03  0.19340239064E+03  0.25500000000E-02 0. -1.
          2   -1    0    0  501    0  0.00000000000E+00 -0.00000000000E+00 -0.14838345208E+04  0.14838345208E+04  0.25500000000E-02 0.  1.
    5000001    1    1    2    0    0  0.33075105394E+03  0.20677522990E+03 -0.11282901246E+04  0.12102858590E+04  0.19900000000E+03 0.  0.
   -5000001    1    1    2    0    0 -0.33075105394E+03 -0.20677522990E+03 -0.16214200564E+03  0.46695105244E+03  0.19900000000E+03 0.  0.
<mgrwt>
<rscale>  0 0.10714050E+04</rscale>
<asrwt>0</asrwt>
<pdfrwt beam="1">  1        2 0.21197635E+00 0.10714050E+04</pdfrwt>
<pdfrwt beam="2">  1       -2 0.27628914E-01 0.10714050E+04</pdfrwt>
<totfact> 0.17682937E+02</totfact>
</mgrwt>
</event>
<event>
 4    1  0.1724904E-005  0.9061071E+03  0.7818608E-02  0.9417979E-01
          2   -1    0    0  501    0  0.00000000000E+00  0.00000000000E+00  0.12312867398E+04  0.12312867398E+04  0.25500000000E-02 0.  1.
         -2   -1    0    0    0  501 -0.00000000000E+00 -0.00000000000E+00 -0.16670163574E+03  0.16670163576E+03  0.25500000000E-02 0. -1.
    5000001    1    1    2    0    0  0.35327451908E+03 -0.68906789755E+02  0.23912857353E+03  0.47574626240E+03  0.19900000000E+03 0.  0.
   -5000001    1    1    2    0    0 -0.35327451908E+03  0.68906789755E+02  0.82545653057E+03  0.92224211320E+03  0.19900000000E+03 0.  0.
<mgrwt>
<rscale>  0 0.90610709E+03</rscale>
<asrwt>0</asrwt>
<pdfrwt beam="1">  1        2 0.17589811E+00 0.90610709E+03</pdfrwt>
<pdfrwt beam="2">  1       -2 0.23814519E-01 0.90610709E+03</pdfrwt>
<totfact> 0.32097457E+02</totfact>
</mgrwt>
</event>
<event>
 4    1  0.1724904E-005  0.6509983E+03  0.7818608E-02  0.9804908E-01
          2   -1    0    0  501    0  0.00000000000E+00  0.00000000000E+00  0.12595032478E+04  0.12595032478E+04  0.25500000000E-02 0.  1.
         -2   -1    0    0    0  501 -0.00000000000E+00 -0.00000000000E+00 -0.84120237657E+02  0.84120237696E+02  0.25500000000E-02 0. -1.
    5000001    1    1    2    0    0  0.10036681300E+03  0.19645567197E+03  0.31325394448E+03  0.43173760774E+03  0.19900000000E+03 0.  0.
   -5000001    1    1    2    0    0 -0.10036681300E+03 -0.19645567197E+03  0.86212906569E+03  0.91188587779E+03  0.19900000000E+03 0.  0.
<mgrwt>
<rscale>  0 0.65099835E+03</rscale>
<asrwt>0</asrwt>
<pdfrwt beam="1">  1        2 0.17992903E+00 0.65099835E+03</pdfrwt>
<pdfrwt beam="2">  1       -2 0.12017177E-01 0.65099835E+03</pdfrwt>
<totfact> 0.10127060E+03</totfact>
</mgrwt>
</event>
<event>
 4    1  0.1724904E-005  0.6799378E+03  0.7818608E-02  0.9752170E-01
          2   -1    0    0  501    0  0.00000000000E+00  0.00000000000E+00  0.72899412733E+03  0.72899412733E+03  0.25500000000E-02 0.  1.
         -2   -1    0    0    0  501 -0.00000000000E+00 -0.00000000000E+00 -0.15854567979E+03  0.15854567981E+03  0.25500000000E-02 0. -1.
    5000001    1    1    2    0    0  0.20867605934E+03  0.12580517783E+03  0.45343005921E+03  0.55188083778E+03  0.19900000000E+03 0.  0.
   -5000001    1    1    2    0    0 -0.20867605934E+03 -0.12580517783E+03  0.11701838832E+03  0.33565896937E+03  0.19900000000E+03 0.  0.
<mgrwt>
<rscale>  0 0.67993785E+03</rscale>
<asrwt>0</asrwt>
<pdfrwt beam="1">  1        2 0.10414202E+00 0.67993785E+03</pdfrwt>
<pdfrwt beam="2">  1       -2 0.22649383E-01 0.67993785E+03</pdfrwt>
<totfact> 0.73496166E+02</totfact>
</mgrwt>
</event>
<event>
 4    1  0.1724904E-005  0.7810320E+03  0.7818608E-02  0.9587886E-01
         -2   -1    0    0    0  501 -0.00000000000E+00  0.00000000000E+00  0.54242772567E+02  0.54242772627E+02  0.25500000000E-02 0. -1.
          2   -1    0    0  501    0  0.00000000000E+00 -0.00000000000E+00 -0.28114851259E+04  0.28114851259E+04  0.25500000000E-02 0.  1.
    5000001    1    1    2    0    0 -0.27679356657E+03 -0.97101403917E+02 -0.77730057113E+03  0.85430705195E+03  0.19900000000E+03 0.  0.
   -5000001    1    1    2    0    0  0.27679356657E+03  0.97101403917E+02 -0.19799417822E+04  0.20114208466E+04  0.19900000000E+03 0.  0.
<mgrwt>
<rscale>  0 0.78103201E+03</rscale>
<asrwt>0</asrwt>
<pdfrwt beam="1">  1        2 0.40164064E+00 0.78103201E+03</pdfrwt>
<pdfrwt beam="2">  1       -2 0.77489693E-02 0.78103201E+03</pdfrwt>
<totfact> 0.32259335E+02</totfact>
</mgrwt>
</event>
<event>
 4    1  0.1724904E-005  0.5658993E+03  0.7818608E-02  0.9978794E-01
         -2   -1    0    0    0  501 -0.00000000000E+00  0.00000000000E+00  0.10976931672E+03  0.10976931675E+03  0.25500000000E-02 0. -1.
          2   -1    0    0  501    0  0.00000000000E+00 -0.00000000000E+00 -0.72935223561E+03  0.72935223562E+03  0.25500000000E-02 0.  1.
    5000001    1    1    2    0    0  0.42829281613E+02  0.19639870605E+03 -0.29902728773E+03  0.41161282525E+03  0.19900000000E+03 0.  0.
   -5000001    1    1    2    0    0 -0.42829281613E+02 -0.19639870605E+03 -0.32055563116E+03  0.42750872713E+03  0.19900000000E+03 0.  0.
<mgrwt>
<rscale>  0 0.56589927E+03</rscale>
<asrwt>0</asrwt>
<pdfrwt beam="1">  1        2 0.10419317E+00 0.56589927E+03</pdfrwt>
<pdfrwt beam="2">  1       -2 0.15681331E-01 0.56589927E+03</pdfrwt>
<totfact> 0.13905144E+03</totfact>
</mgrwt>
</event>
<event>
 4    1  0.1724904E-005  0.1089908E+04  0.7818608E-02  0.9215084E-01
          2   -1    0    0  501    0  0.00000000000E+00  0.00000000000E+00  0.19763474658E+04  0.19763474658E+04  0.25500000000E-02 0.  1.
         -2   -1    0    0    0  501 -0.00000000000E+00 -0.00000000000E+00 -0.15026453673E+03  0.15026453676E+03  0.25500000000E-02 0. -1.
    5000001    1    1    2    0    0  0.41295441394E+03  0.24180779384E+03  0.58438655727E+03  0.78109602833E+03  0.19900000000E+03 0.  0.
   -5000001    1    1    2    0    0 -0.41295441394E+03 -0.24180779384E+03  0.12416963718E+04  0.13455159742E+04  0.19900000000E+03 0.  0.
<mgrwt>
<rscale>  0 0.10899081E+04</rscale>
<asrwt>0</asrwt>
<pdfrwt beam="1">  1        2 0.28233534E+00 0.10899081E+04</pdfrwt>
<pdfrwt beam="2">  1       -2 0.21466364E-01 0.10899081E+04</pdfrwt>
<totfact> 0.15471722E+02</totfact>
</mgrwt>
</event>
<event>
 4    1  0.1724904E-005  0.8142567E+03  0.7818608E-02  0.9539607E-01
         -2   -1    0    0    0  501 -0.00000000000E+00  0.00000000000E+00  0.99264463422E+02  0.99264463454E+02  0.25500000000E-02 0. -1.
          2   -1    0    0  501    0  0.00000000000E+00 -0.00000000000E+00 -0.16698170539E+04  0.16698170539E+04  0.25500000000E-02 0.  1.
    5000001    1    1    2    0    0  0.34153406057E+03 -0.26877793887E+02 -0.58164402710E+03  0.70376040283E+03  0.19900000000E+03 0.  0.
   -5000001    1    1    2    0    0 -0.34153406057E+03  0.26877793887E+02 -0.98890856342E+03  0.10653211146E+04  0.19900000000E+03 0.  0.
<mgrwt>
<rscale>  0 0.81425670E+03</rscale>
<asrwt>0</asrwt>
<pdfrwt beam="1">  1        2 0.23854528E+00 0.81425670E+03</pdfrwt>
<pdfrwt beam="2">  1       -2 0.14180639E-01 0.81425670E+03</pdfrwt>
<totfact> 0.46241103E+02</totfact>
</mgrwt>
</event>
<event>
 4    1  0.1724904E-005  0.6052693E+03  0.7818608E-02  0.9894534E-01
          2   -1    0    0  501    0  0.00000000000E+00  0.00000000000E+00  0.11673385900E+04  0.11673385900E+04  0.25500000000E-02 0.  1.
         -2   -1    0    0    0  501 -0.00000000000E+00 -0.00000000000E+00 -0.78458579742E+02  0.78458579784E+02  0.25500000000E-02 0. -1.
    5000001    1    1    2    0    0 -0.61817183123E+02 -0.22262911592E+02  0.99382651568E+03  0.10156816158E+04  0.19900000000E+03 0.  0.
   -5000001    1    1    2    0    0  0.61817183123E+02  0.22262911592E+02  0.95053494567E+02  0.23011555400E+03  0.19900000000E+03 0.  0.
<mgrwt>
<rscale>  0 0.60526929E+03</rscale>
<asrwt>0</asrwt>
<pdfrwt beam="1">  1        2 0.16676264E+00 0.60526929E+03</pdfrwt>
<pdfrwt beam="2">  1       -2 0.11208369E-01 0.60526929E+03</pdfrwt>
<totfact> 0.12803323E+03</totfact>
</mgrwt>
</event>
<event>
 4    1  0.1724904E-005  0.6013059E+03  0.7818608E-02  0.9902701E-01
          2   -1    0    0  501    0  0.00000000000E+00  0.00000000000E+00  0.29433943435E+04  0.29433943435E+04  0.25500000000E-02 0.  1.
         -2   -1    0    0    0  501 -0.00000000000E+00 -0.00000000000E+00 -0.30710185328E+02  0.30710185434E+02  0.25500000000E-02 0. -1.
    5000001    1    1    2    0    0  0.12272923312E+02 -0.21573077984E+03  0.11396081014E+04  0.11768593878E+04  0.19900000000E+03 0.  0.
   -5000001    1    1    2    0    0 -0.12272923312E+02  0.21573077984E+03  0.17730760568E+04  0.17972451411E+04  0.19900000000E+03 0.  0.
<mgrwt>
<rscale>  0 0.60130587E+03</rscale>
<asrwt>0</asrwt>
<pdfrwt beam="1">  1        2 0.42048492E+00 0.60130587E+03</pdfrwt>
<pdfrwt beam="2">  1       -2 0.43871692E-02 0.60130587E+03</pdfrwt>
<totfact> 0.67998777E+02</totfact>
</mgrwt>
</event>
<event>
 4    1  0.1724904E-005  0.6001623E+03  0.7818608E-02  0.9905069E-01
          2   -1    0    0  501    0  0.00000000000E+00  0.00000000000E+00  0.10987039342E+04  0.10987039342E+04  0.25500000000E-02 0.  1.
         -2   -1    0    0    0  501 -0.00000000000E+00 -0.00000000000E+00 -0.81959017920E+02  0.81959017960E+02  0.25500000000E-02 0. -1.
    5000001    1    1    2    0    0 -0.62082389227E+02 -0.19714156123E+03  0.68131817585E+03  0.73926617329E+03  0.19900000000E+03 0.  0.
   -5000001    1    1    2    0    0  0.62082389227E+02  0.19714156123E+03  0.33542674047E+03  0.44139677892E+03  0.19900000000E+03 0.  0.
<mgrwt>
<rscale>  0 0.60016230E+03</rscale>
<asrwt>0</asrwt>
<pdfrwt beam="1">  1        2 0.15695769E+00 0.60016230E+03</pdfrwt>
<pdfrwt beam="2">  1       -2 0.11708432E-01 0.60016230E+03</pdfrwt>
<totfact> 0.13053240E+03</totfact>
</mgrwt>
</event>
<event>
 4    1  0.1724904E-005  0.6938869E+03  0.7818608E-02  0.9727744E-01
          2   -1    0    0  501    0  0.00000000000E+00  0.00000000000E+00  0.66694328416E+03  0.66694328416E+03  0.25500000000E-02 0. -1.
         -2   -1    0    0    0  501 -0.00000000000E+00 -0.00000000000E+00 -0.18047977645E+03  0.18047977647E+03  0.25500000000E-02 0.  1.
    5000001    1    1    2    0    0  0.20083127432E+03  0.19663866682E+03  0.29459494575E+03  0.45319658879E+03  0.19900000000E+03 0.  0.
   -5000001    1    1    2    0    0 -0.20083127432E+03 -0.19663866682E+03  0.19186856195E+03  0.39422647184E+03  0.19900000000E+03 0.  0.
<mgrwt>
<rscale>  0 0.69388695E+03</rscale>
<asrwt>0</asrwt>
<pdfrwt beam="1">  1        2 0.95277612E-01 0.69388695E+03</pdfrwt>
<pdfrwt beam="2">  1       -2 0.25782825E-01 0.69388695E+03</pdfrwt>
<totfact> 0.64975679E+02</totfact>
</mgrwt>
</event>
<event>
 4    1  0.1724904E-005  0.4976366E+03  0.7818608E-02  0.1014398E+00
          2   -1    0    0  501    0  0.00000000000E+00  0.00000000000E+00  0.10432099007E+04  0.10432099007E+04  0.25500000000E-02 0.  1.
         -2   -1    0    0    0  501 -0.00000000000E+00 -0.00000000000E+00 -0.59346203662E+02  0.59346203717E+02  0.25500000000E-02 0. -1.
    5000001    1    1    2    0    0 -0.78971184767E+02 -0.96307457265E+02  0.30925727764E+03  0.38826877047E+03  0.19900000000E+03 0.  0.
   -5000001    1    1    2    0    0  0.78971184767E+02  0.96307457265E+02  0.67460641938E+03  0.71428733394E+03  0.19900000000E+03 0.  0.
<mgrwt>
<rscale>  0 0.49763660E+03</rscale>
<asrwt>0</asrwt>
<pdfrwt beam="1">  1        2 0.14902998E+00 0.49763660E+03</pdfrwt>
<pdfrwt beam="2">  1       -2 0.84780295E-02 0.49763660E+03</pdfrwt>
<totfact> 0.23751251E+03</totfact>
</mgrwt>
</event>
<event>
 4    1  0.1724904E-005  0.5764537E+03  0.7818608E-02  0.9955498E-01
         -2   -1    0    0    0  501 -0.00000000000E+00  0.00000000000E+00  0.18805694494E+03  0.18805694496E+03  0.25500000000E-02 0. -1.
          2   -1    0    0  501    0  0.00000000000E+00 -0.00000000000E+00 -0.44175304446E+03  0.44175304446E+03  0.25500000000E-02 0.  1.
    5000001    1    1    2    0    0 -0.58937298061E+02  0.19725077259E+03 -0.90739734962E+02  0.30036007040E+03  0.19900000000E+03 0.  0.
   -5000001    1    1    2    0    0  0.58937298061E+02 -0.19725077259E+03 -0.16295636456E+03  0.32944991902E+03  0.19900000000E+03 0.  0.
<mgrwt>
<rscale>  0 0.57645374E+03</rscale>
<asrwt>0</asrwt>
<pdfrwt beam="1">  1        2 0.63107577E-01 0.57645374E+03</pdfrwt>
<pdfrwt beam="2">  1       -2 0.26865278E-01 0.57645374E+03</pdfrwt>
<totfact> 0.97419267E+02</totfact>
</mgrwt>
</event>
<event>
 4    1  0.1724904E-005  0.7563403E+03  0.7818608E-02  0.9625456E-01
         -2   -1    0    0    0  501 -0.00000000000E+00  0.00000000000E+00  0.28605032342E+03  0.28605032343E+03  0.25500000000E-02 0. -1.
          2   -1    0    0  501    0  0.00000000000E+00 -0.00000000000E+00 -0.49995635099E+03  0.49995635099E+03  0.25500000000E-02 0.  1.
    5000001    1    1    2    0    0 -0.20440639507E+03  0.24793903696E+03 -0.11993022846E+03  0.39653499226E+03  0.19900000000E+03 0.  0.
   -5000001    1    1    2    0    0  0.20440639507E+03 -0.24793903696E+03 -0.93975799105E+02  0.38947168216E+03  0.19900000000E+03 0.  0.
<mgrwt>
<rscale>  0 0.75634034E+03</rscale>
<asrwt>0</asrwt>
<pdfrwt beam="1">  1        2 0.71422335E-01 0.75634034E+03</pdfrwt>
<pdfrwt beam="2">  1       -2 0.40864332E-01 0.75634034E+03</pdfrwt>
<totfact> 0.38308408E+02</totfact>
</mgrwt>
</event>
<event>
 4    1  0.1724904E-005  0.7236552E+03  0.7818608E-02  0.9677612E-01
         -2   -1    0    0    0  501 -0.00000000000E+00  0.00000000000E+00  0.20770901111E+03  0.20770901112E+03  0.25500000000E-02 0. -1.
          2   -1    0    0  501    0  0.00000000000E+00 -0.00000000000E+00 -0.63030104856E+03  0.63030104857E+03  0.25500000000E-02 0.  1.
    5000001    1    1    2    0    0  0.24009024221E+03 -0.11666542417E+03 -0.47264622325E+02  0.33628721374E+03  0.19900000000E+03 0.  0.
   -5000001    1    1    2    0    0 -0.24009024221E+03  0.11666542417E+03 -0.37532741513E+03  0.50172284595E+03  0.19900000000E+03 0.  0.
<mgrwt>
<rscale>  0 0.72365519E+03</rscale>
<asrwt>0</asrwt>
<pdfrwt beam="1">  1        2 0.90043006E-01 0.72365519E+03</pdfrwt>
<pdfrwt beam="2">  1       -2 0.29672716E-01 0.72365519E+03</pdfrwt>
<totfact> 0.53746739E+02</totfact>
</mgrwt>
</event>
<event>
 4    1  0.1724904E-005  0.4916663E+03  0.7818608E-02  0.1015977E+00
          2   -1    0    0  501    0  0.00000000000E+00  0.00000000000E+00  0.26620373592E+04  0.26620373592E+04  0.25500000000E-02 0.  1.
         -2   -1    0    0    0  501 -0.00000000000E+00 -0.00000000000E+00 -0.22702138245E+02  0.22702138388E+02  0.25500000000E-02 0. -1.
    5000001    1    1    2    0    0  0.72653578512E+02 -0.12037353103E+03  0.11415006573E+04  0.11672159526E+04  0.19900000000E+03 0.  0.
   -5000001    1    1    2    0    0 -0.72653578512E+02  0.12037353103E+03  0.14978345637E+04  0.15175235450E+04  0.19900000000E+03 0.  0.
<mgrwt>
<rscale>  0 0.49166631E+03</rscale>
<asrwt>0</asrwt>
<pdfrwt beam="1">  1        2 0.38029081E+00 0.49166631E+03</pdfrwt>
<pdfrwt beam="2">  1       -2 0.32431646E-02 0.49166631E+03</pdfrwt>
<totfact> 0.15339800E+03</totfact>
</mgrwt>
</event>
<event>
 4    1  0.1724904E-005  0.6251446E+03  0.7818608E-02  0.9854570E-01
         -2   -1    0    0    0  501 -0.00000000000E+00  0.00000000000E+00  0.50004897110E+02  0.50004897175E+02  0.25500000000E-02 0. -1.
          2   -1    0    0  501    0  0.00000000000E+00 -0.00000000000E+00 -0.19538372055E+04  0.19538372055E+04  0.25500000000E-02 0.  1.
    5000001    1    1    2    0    0  0.15004989869E+03  0.17939437807E+03 -0.76492491369E+03  0.82426236027E+03  0.19900000000E+03 0.  0.
   -5000001    1    1    2    0    0 -0.15004989869E+03 -0.17939437807E+03 -0.11389073947E+04  0.11795797424E+04  0.19900000000E+03 0.  0.
<mgrwt>
<rscale>  0 0.62514455E+03</rscale>
<asrwt>0</asrwt>
<pdfrwt beam="1">  1        2 0.27911955E+00 0.62514455E+03</pdfrwt>
<pdfrwt beam="2">  1       -2 0.71435580E-02 0.62514455E+03</pdfrwt>
<totfact> 0.10242314E+03</totfact>
</mgrwt>
</event>
<event>
 4    1  0.1724904E-005  0.5993534E+03  0.7818608E-02  0.9906749E-01
          2   -1    0    0  501    0  0.00000000000E+00  0.00000000000E+00  0.22488250861E+04  0.22488250861E+04  0.25500000000E-02 0.  1.
         -2   -1    0    0    0  501 -0.00000000000E+00 -0.00000000000E+00 -0.39934680732E+02  0.39934680813E+02  0.25500000000E-02 0. -1.
    5000001    1    1    2    0    0 -0.16019292588E+03  0.15586834542E+03  0.10442598615E+04  0.10862947910E+04  0.19900000000E+03 0.  0.
   -5000001    1    1    2    0    0  0.16019292588E+03 -0.15586834542E+03  0.11646305439E+04  0.12024649760E+04  0.19900000000E+03 0.  0.
<mgrwt>
<rscale>  0 0.59935336E+03</rscale>
<asrwt>0</asrwt>
<pdfrwt beam="1">  1        2 0.32126077E+00 0.59935336E+03</pdfrwt>
<pdfrwt beam="2">  1       -2 0.57049536E-02 0.59935336E+03</pdfrwt>
<totfact> 0.10379678E+03</totfact>
</mgrwt>
</event>
<event>
 4    1  0.1724904E-005  0.7816464E+03  0.7818608E-02  0.9586970E-01
         -2   -1    0    0    0  501 -0.00000000000E+00  0.00000000000E+00  0.12614662825E+03  0.12614662828E+03  0.25500000000E-02 0. -1.
          2   -1    0    0  501    0  0.00000000000E+00 -0.00000000000E+00 -0.12108352750E+04  0.12108352750E+04  0.25500000000E-02 0.  1.
    5000001    1    1    2    0    0 -0.71779619243E+01 -0.30746834574E+03 -0.30935937005E+03  0.47947109048E+03  0.19900000000E+03 0.  0.
   -5000001    1    1    2    0    0  0.71779619243E+01  0.30746834574E+03 -0.77532927665E+03  0.85751081276E+03  0.19900000000E+03 0.  0.
<mgrwt>
<rscale>  0 0.78164643E+03</rscale>
<asrwt>0</asrwt>
<pdfrwt beam="1">  1        2 0.17297646E+00 0.78164643E+03</pdfrwt>
<pdfrwt beam="2">  1       -2 0.18020948E-01 0.78164643E+03</pdfrwt>
<totfact> 0.54153260E+02</totfact>
</mgrwt>
</event>
<event>
 4    1  0.1724904E-005  0.4956959E+03  0.7818608E-02  0.1014908E+00
          2   -1    0    0  501    0  0.00000000000E+00  0.00000000000E+00  0.30231703196E+03  0.30231703198E+03  0.25500000000E-02 0.  1.
         -2   -1    0    0    0  501 -0.00000000000E+00 -0.00000000000E+00 -0.20319270996E+03  0.20319270998E+03  0.25500000000E-02 0. -1.
    5000001    1    1    2    0    0 -0.66732731305E+02  0.11974484466E+03  0.10574860604E+03  0.26377235058E+03  0.19900000000E+03 0.  0.
   -5000001    1    1    2    0    0  0.66732731305E+02 -0.11974484466E+03 -0.66242840387E+01  0.24173739138E+03  0.19900000000E+03 0.  0.
<mgrwt>
<rscale>  0 0.49569594E+03</rscale>
<asrwt>0</asrwt>
<pdfrwt beam="1">  1        2 0.43188148E-01 0.49569594E+03</pdfrwt>
<pdfrwt beam="2">  1       -2 0.29027530E-01 0.49569594E+03</pdfrwt>
<totfact> 0.12865423E+03</totfact>
</mgrwt>
</event>
<event>
 4    1  0.1724904E-005  0.8811337E+03  0.7818608E-02  0.9449477E-01
          2   -1    0    0  501    0  0.00000000000E+00  0.00000000000E+00  0.12525964411E+04  0.12525964411E+04  0.25500000000E-02 0.  1.
         -2   -1    0    0    0  501 -0.00000000000E+00 -0.00000000000E+00 -0.15495746109E+03  0.15495746111E+03  0.25500000000E-02 0. -1.
    5000001    1    1    2    0    0 -0.19273445386E+02  0.39234890066E+03  0.52685613715E+03  0.68664948467E+03  0.19900000000E+03 0.  0.
   -5000001    1    1    2    0    0  0.19273445386E+02 -0.39234890066E+03  0.57078284290E+03  0.72090441758E+03  0.19900000000E+03 0.  0.
<mgrwt>
<rscale>  0 0.88113373E+03</rscale>
<asrwt>0</asrwt>
<pdfrwt beam="1">  1        2 0.17894235E+00 0.88113373E+03</pdfrwt>
<pdfrwt beam="2">  1       -2 0.22136780E-01 0.88113373E+03</pdfrwt>
<totfact> 0.35622862E+02</totfact>
</mgrwt>
</event>
<event>
 4    1  0.1724904E-005  0.8707614E+03  0.7818608E-02  0.9462888E-01
         -2   -1    0    0    0  501 -0.00000000000E+00  0.00000000000E+00  0.60265619273E+02  0.60265619327E+02  0.25500000000E-02 0. -1.
          2   -1    0    0  501    0  0.00000000000E+00 -0.00000000000E+00 -0.31453480460E+04  0.31453480460E+04  0.25500000000E-02 0.  1.
    5000001    1    1    2    0    0 -0.33317434003E+03  0.68404319924E+02 -0.86102567430E+03  0.94691631290E+03  0.19900000000E+03 0.  0.
   -5000001    1    1    2    0    0  0.33317434003E+03 -0.68404319924E+02 -0.22240567524E+04  0.22586973524E+04  0.19900000000E+03 0.  0.
<mgrwt>
<rscale>  0 0.87076139E+03</rscale>
<asrwt>0</asrwt>
<pdfrwt beam="1">  1        2 0.44933533E+00 0.87076139E+03</pdfrwt>
<pdfrwt beam="2">  1       -2 0.86093761E-02 0.87076139E+03</pdfrwt>
<totfact> 0.17728246E+02</totfact>
</mgrwt>
</event>
<event>
 4    1  0.1724904E-005  0.6981207E+03  0.7818608E-02  0.9720451E-01
          2   -1    0    0  501    0  0.00000000000E+00  0.00000000000E+00  0.13794453152E+04  0.13794453152E+04  0.25500000000E-02 0.  1.
         -2   -1    0    0    0  501 -0.00000000000E+00 -0.00000000000E+00 -0.88327631518E+02  0.88327631554E+02  0.25500000000E-02 0. -1.
    5000001    1    1    2    0    0  0.17295277668E+03 -0.15500439217E+03  0.99926730289E+03  0.10450240032E+04  0.19900000000E+03 0.  0.
   -5000001    1    1    2    0    0 -0.17295277668E+03  0.15500439217E+03  0.29185038083E+03  0.42274894363E+03  0.19900000000E+03 0.  0.
<mgrwt>
<rscale>  0 0.69812073E+03</rscale>
<asrwt>0</asrwt>
<pdfrwt beam="1">  1        2 0.19706360E+00 0.69812073E+03</pdfrwt>
<pdfrwt beam="2">  1       -2 0.12618234E-01 0.69812073E+03</pdfrwt>
<totfact> 0.80251203E+02</totfact>
</mgrwt>
</event>
<event>
 4    1  0.1724904E-005  0.5769445E+03  0.7818608E-02  0.9954428E-01
          2   -1    0    0  501    0  0.00000000000E+00  0.00000000000E+00  0.89231365735E+03  0.89231365735E+03  0.25500000000E-02 0.  1.
         -2   -1    0    0    0  501 -0.00000000000E+00 -0.00000000000E+00 -0.93258960129E+02  0.93258960164E+02  0.25500000000E-02 0. -1.
    5000001    1    1    2    0    0  0.52373060877E+02 -0.18002584822E+03  0.55667820657E+03  0.62019663753E+03  0.19900000000E+03 0.  0.
   -5000001    1    1    2    0    0 -0.52373060877E+02  0.18002584822E+03  0.24237649065E+03  0.36537597999E+03  0.19900000000E+03 0.  0.
<mgrwt>
<rscale>  0 0.57694452E+03</rscale>
<asrwt>0</asrwt>
<pdfrwt beam="1">  1        2 0.12747338E+00 0.57694452E+03</pdfrwt>
<pdfrwt beam="2">  1       -2 0.13322709E-01 0.57694452E+03</pdfrwt>
<totfact> 0.14110625E+03</totfact>
</mgrwt>
</event>
<event>
 4    1  0.1724904E-005  0.5319460E+03  0.7818608E-02  0.1005761E+00
          2   -1    0    0  501    0  0.00000000000E+00  0.00000000000E+00  0.14311458566E+04  0.14311458566E+04  0.25500000000E-02 0.  1.
         -2   -1    0    0    0  501 -0.00000000000E+00 -0.00000000000E+00 -0.49430066158E+02  0.49430066223E+02  0.25500000000E-02 0. -1.
    5000001    1    1    2    0    0  0.17560678792E+03  0.16087927522E+02  0.70933483236E+03  0.75753116753E+03  0.19900000000E+03 0.  0.
   -5000001    1    1    2    0    0 -0.17560678792E+03 -0.16087927522E+02  0.67238095811E+03  0.72304475533E+03  0.19900000000E+03 0.  0.
<mgrwt>
<rscale>  0 0.53194599E+03</rscale>
<asrwt>0</asrwt>
<pdfrwt beam="1">  1        2 0.20444938E+00 0.53194599E+03</pdfrwt>
<pdfrwt beam="2">  1       -2 0.70614390E-02 0.53194599E+03</pdfrwt>
<totfact> 0.19349254E+03</totfact>
</mgrwt>
</event>
<event>
 4    1  0.1724904E-005  0.1512300E+04  0.7818608E-02  0.8876314E-01
          2   -1    0    0  501    0  0.00000000000E+00  0.00000000000E+00  0.18572780801E+04  0.18572780801E+04  0.25500000000E-02 0.  1.
         -2   -1    0    0    0  501 -0.00000000000E+00 -0.00000000000E+00 -0.30785005652E+03  0.30785005653E+03  0.25500000000E-02 0. -1.
    5000001    1    1    2    0    0 -0.64375435243E+03  0.29689964735E+03  0.10210005745E+04  0.12588138226E+04  0.19900000000E+03 0.  0.
   -5000001    1    1    2    0    0  0.64375435243E+03 -0.29689964735E+03  0.52842744909E+03  0.90631431403E+03  0.19900000000E+03 0.  0.
<mgrwt>
<rscale>  0 0.15123004E+04</rscale>
<asrwt>0</asrwt>
<pdfrwt beam="1">  1        2 0.26532545E+00 0.15123004E+04</pdfrwt>
<pdfrwt beam="2">  1       -2 0.43978577E-01 0.15123004E+04</pdfrwt>
<totfact> 0.45050439E+01</totfact>
</mgrwt>
</event>
<event>
 4    1  0.1724904E-005  0.8085677E+03  0.7818608E-02  0.9547698E-01
          2   -1    0    0  501    0  0.00000000000E+00  0.00000000000E+00  0.83995543477E+03  0.83995543477E+03  0.25500000000E-02 0.  1.
         -2   -1    0    0    0  501 -0.00000000000E+00 -0.00000000000E+00 -0.19458824202E+03  0.19458824203E+03  0.25500000000E-02 0. -1.
    5000001    1    1    2    0    0  0.19851813574E+02  0.35077840249E+03  0.29693877830E+03  0.50121175187E+03  0.19900000000E+03 0.  0.
   -5000001    1    1    2    0    0 -0.19851813574E+02 -0.35077840249E+03  0.34842841445E+03  0.53333192493E+03  0.19900000000E+03 0.  0.
<mgrwt>
<rscale>  0 0.80856775E+03</rscale>
<asrwt>0</asrwt>
<pdfrwt beam="1">  1        2 0.11999363E+00 0.80856775E+03</pdfrwt>
<pdfrwt beam="2">  1       -2 0.27798321E-01 0.80856775E+03</pdfrwt>
<totfact> 0.42211839E+02</totfact>
</mgrwt>
</event>
<event>
 4    1  0.1724904E-005  0.5497488E+03  0.7818608E-02  0.1001552E+00
         -2   -1    0    0    0  501 -0.00000000000E+00  0.00000000000E+00  0.26925603171E+02  0.26925603292E+02  0.25500000000E-02 0. -1.
          2   -1    0    0  501    0  0.00000000000E+00 -0.00000000000E+00 -0.28061003347E+04  0.28061003347E+04  0.25500000000E-02 0.  1.
    5000001    1    1    2    0    0 -0.58922069079E+02  0.16029457992E+03 -0.96498524676E+03  0.99998184435E+03  0.19900000000E+03 0.  0.
   -5000001    1    1    2    0    0  0.58922069079E+02 -0.16029457992E+03 -0.18141894848E+04  0.18330440937E+04  0.19900000000E+03 0.  0.
<mgrwt>
<rscale>  0 0.54974883E+03</rscale>
<asrwt>0</asrwt>
<pdfrwt beam="1">  1        2 0.40087129E+00 0.54974883E+03</pdfrwt>
<pdfrwt beam="2">  1       -2 0.38465165E-02 0.54974883E+03</pdfrwt>
<totfact> 0.98987749E+02</totfact>
</mgrwt>
</event>
<event>
 4    1  0.1724904E-005  0.5348485E+03  0.7818608E-02  0.1005063E+00
          2   -1    0    0  501    0  0.00000000000E+00  0.00000000000E+00  0.80246946559E+03  0.80246946559E+03  0.25500000000E-02 0.  1.
         -2   -1    0    0    0  501 -0.00000000000E+00 -0.00000000000E+00 -0.89119566779E+02  0.89119566816E+02  0.25500000000E-02 0. -1.
    5000001    1    1    2    0    0  0.10819831688E+02  0.17510291455E+03  0.41287591958E+03  0.49076025146E+03  0.19900000000E+03 0.  0.
   -5000001    1    1    2    0    0 -0.10819831688E+02 -0.17510291455E+03  0.30047397923E+03  0.40082878095E+03  0.19900000000E+03 0.  0.
<mgrwt>
<rscale>  0 0.53484851E+03</rscale>
<asrwt>0</asrwt>
<pdfrwt beam="1">  1        2 0.11463849E+00 0.53484851E+03</pdfrwt>
<pdfrwt beam="2">  1       -2 0.12731367E-01 0.53484851E+03</pdfrwt>
<totfact> 0.17473106E+03</totfact>
</mgrwt>
</event>
<event>
 4    1  0.1724904E-005  0.5290080E+03  0.7818608E-02  0.1006473E+00
          2   -1    0    0  501    0  0.00000000000E+00  0.00000000000E+00  0.91206934154E+03  0.91206934155E+03  0.25500000000E-02 0.  1.
         -2   -1    0    0    0  501 -0.00000000000E+00 -0.00000000000E+00 -0.76707302675E+02  0.76707302717E+02  0.25500000000E-02 0. -1.
    5000001    1    1    2    0    0  0.14826596840E+02  0.15544301561E+03  0.27315337584E+03  0.37228500615E+03  0.19900000000E+03 0.  0.
   -5000001    1    1    2    0    0 -0.14826596840E+02 -0.15544301561E+03  0.56220866303E+03  0.61649163811E+03  0.19900000000E+03 0.  0.
<mgrwt>
<rscale>  0 0.52900805E+03</rscale>
<asrwt>0</asrwt>
<pdfrwt beam="1">  1        2 0.13029561E+00 0.52900805E+03</pdfrwt>
<pdfrwt beam="2">  1       -2 0.10958187E-01 0.52900805E+03</pdfrwt>
<totfact> 0.18906310E+03</totfact>
</mgrwt>
</event>
<event>
 4    1  0.1724904E-005  0.5126098E+03  0.7818608E-02  0.1010539E+00
          2   -1    0    0  501    0  0.00000000000E+00  0.00000000000E+00  0.18606861229E+04  0.18606861229E+04  0.25500000000E-02 0.  1.
         -2   -1    0    0    0  501 -0.00000000000E+00 -0.00000000000E+00 -0.35305364642E+02  0.35305364734E+02  0.25500000000E-02 0. -1.
    5000001    1    1    2    0    0  0.14090991305E+03  0.60997510528E+02  0.10981759079E+04  0.11265733995E+04  0.19900000000E+03 0.  0.
   -5000001    1    1    2    0    0 -0.14090991305E+03 -0.60997510528E+02  0.72720485042E+03  0.76941808815E+03  0.19900000000E+03 0.  0.
<mgrwt>
<rscale>  0 0.51260980E+03</rscale>
<asrwt>0</asrwt>
<pdfrwt beam="1">  1        2 0.26581243E+00 0.51260980E+03</pdfrwt>
<pdfrwt beam="2">  1       -2 0.50436211E-02 0.51260980E+03</pdfrwt>
<totfact> 0.19766774E+03</totfact>
</mgrwt>
</event>
<event>
 4    1  0.1724904E-005  0.4206278E+03  0.7818608E-02  0.1036862E+00
         -2   -1    0    0    0  501 -0.00000000000E+00  0.00000000000E+00  0.15004244442E+02  0.15004244659E+02  0.25500000000E-02 0. -1.
          2   -1    0    0  501    0  0.00000000000E+00 -0.00000000000E+00 -0.29479621234E+04  0.29479621234E+04  0.25500000000E-02 0.  1.
    5000001    1    1    2    0    0 -0.28437774557E+02  0.24728830378E+02 -0.18656233933E+04  0.18765851613E+04  0.19900000000E+03 0.  0.
   -5000001    1    1    2    0    0  0.28437774557E+02 -0.24728830378E+02 -0.10673344856E+04  0.10863812067E+04  0.19900000000E+03 0.  0.
<mgrwt>
<rscale>  0 0.42062784E+03</rscale>
<asrwt>0</asrwt>
<pdfrwt beam="1">  1        2 0.42113708E+00 0.42062784E+03</pdfrwt>
<pdfrwt beam="2">  1       -2 0.21434654E-02 0.42062784E+03</pdfrwt>
<totfact> 0.20348378E+03</totfact>
</mgrwt>
</event>
<event>
 4    1  0.1724904E-005  0.6331109E+03  0.7818608E-02  0.9838997E-01
         -2   -1    0    0    0  501 -0.00000000000E+00  0.00000000000E+00  0.31431667292E+02  0.31431667395E+02  0.25500000000E-02 0. -1.
          2   -1    0    0  501    0  0.00000000000E+00 -0.00000000000E+00 -0.31881019059E+04  0.31881019059E+04  0.25500000000E-02 0.  1.
    5000001    1    1    2    0    0  0.24450718264E+03  0.28337543440E+02 -0.16008369414E+04  0.16318292471E+04  0.19900000000E+03 0.  0.
   -5000001    1    1    2    0    0 -0.24450718264E+03 -0.28337543440E+02 -0.15558332972E+04  0.15877043262E+04  0.19900000000E+03 0.  0.
<mgrwt>
<rscale>  0 0.63311092E+03</rscale>
<asrwt>0</asrwt>
<pdfrwt beam="1">  1        2 0.45544292E+00 0.63311092E+03</pdfrwt>
<pdfrwt beam="2">  1       -2 0.44902402E-02 0.63311092E+03</pdfrwt>
<totfact> 0.47970694E+02</totfact>
</mgrwt>
</event>
<event>
 4    1  0.1724904E-005  0.6921344E+03  0.7818608E-02  0.9730779E-01
         -2   -1    0    0    0  501 -0.00000000000E+00  0.00000000000E+00  0.57572188365E+02  0.57572188421E+02  0.25500000000E-02 0. -1.
          2   -1    0    0  501    0  0.00000000000E+00 -0.00000000000E+00 -0.20802148903E+04  0.20802148903E+04  0.25500000000E-02 0.  1.
    5000001    1    1    2    0    0 -0.15657453394E+03 -0.91274081474E+02 -0.16831728918E+04  0.17045581616E+04  0.19900000000E+03 0.  0.
   -5000001    1    1    2    0    0  0.15657453394E+03  0.91274081474E+02 -0.33946981013E+03  0.43322891710E+03  0.19900000000E+03 0.  0.
<mgrwt>
<rscale>  0 0.69213445E+03</rscale>
<asrwt>0</asrwt>
<pdfrwt beam="1">  1        2 0.29717351E+00 0.69213445E+03</pdfrwt>
<pdfrwt beam="2">  1       -2 0.82245996E-02 0.69213445E+03</pdfrwt>
<totfact> 0.70396818E+02</totfact>
</mgrwt>
</event>
<event>
 4    1  0.1724904E-005  0.4335369E+03  0.7818608E-02  0.1032748E+00
          2   -1    0    0  501    0  0.00000000000E+00  0.00000000000E+00  0.19271764234E+04  0.19271764234E+04  0.25500000000E-02 0.  1.
         -2   -1    0    0    0  501 -0.00000000000E+00 -0.00000000000E+00 -0.24382073521E+02  0.24382073655E+02  0.25500000000E-02 0. -1.
    5000001    1    1    2    0    0  0.80101321280E+02 -0.29193208918E+02  0.90227277185E+03  0.92788233087E+03  0.19900000000E+03 0.  0.
   -5000001    1    1    2    0    0 -0.80101321280E+02  0.29193208918E+02  0.10005215780E+04  0.10236761662E+04  0.19900000000E+03 0.  0.
<mgrwt>
<rscale>  0 0.43353688E+03</rscale>
<asrwt>0</asrwt>
<pdfrwt beam="1">  1        2 0.27531093E+00 0.43353688E+03</pdfrwt>
<pdfrwt beam="2">  1       -2 0.34831532E-02 0.43353688E+03</pdfrwt>
<totfact> 0.32354757E+03</totfact>
</mgrwt>
</event>
<event>
 4    1  0.1724904E-005  0.1249112E+04  0.7818608E-02  0.9070923E-01
         -2   -1    0    0    0  501 -0.00000000000E+00  0.00000000000E+00  0.81962427465E+03  0.81962427466E+03  0.25500000000E-02 0. -1.
          2   -1    0    0  501    0  0.00000000000E+00 -0.00000000000E+00 -0.47591353572E+03  0.47591353573E+03  0.25500000000E-02 0.  1.
    5000001    1    1    2    0    0  0.56260971146E+03 -0.18420514308E+03  0.17480069516E+03  0.64855031046E+03  0.19900000000E+03 0.  0.
   -5000001    1    1    2    0    0 -0.56260971146E+03  0.18420514308E+03  0.16891004377E+03  0.64698749992E+03  0.19900000000E+03 0.  0.
<mgrwt>
<rscale>  0 0.12491121E+04</rscale>
<asrwt>0</asrwt>
<pdfrwt beam="1">  1        2 0.67987649E-01 0.12491121E+04</pdfrwt>
<pdfrwt beam="2">  1       -2 0.11708918E+00 0.12491121E+04</pdfrwt>
<totfact> 0.39468456E+01</totfact>
</mgrwt>
</event>
<event>
 4    1  0.1724904E-005  0.6516532E+03  0.7818608E-02  0.9803682E-01
          2   -1    0    0  501    0  0.00000000000E+00  0.00000000000E+00  0.42219977401E+03  0.42219977402E+03  0.25500000000E-02 0.  1.
         -2   -1    0    0    0  501 -0.00000000000E+00 -0.00000000000E+00 -0.25145198816E+03  0.25145198817E+03  0.25500000000E-02 0. -1.
    5000001    1    1    2    0    0 -0.22912361108E+02 -0.25612290286E+03  0.10701020330E+03  0.34230994913E+03  0.19900000000E+03 0.  0.
   -5000001    1    1    2    0    0  0.22912361108E+02  0.25612290286E+03  0.63737582551E+02  0.33134181307E+03  0.19900000000E+03 0.  0.
<mgrwt>
<rscale>  0 0.65165320E+03</rscale>
<asrwt>0</asrwt>
<pdfrwt beam="1">  1        2 0.60314253E-01 0.65165320E+03</pdfrwt>
<pdfrwt beam="2">  1       -2 0.35921713E-01 0.65165320E+03</pdfrwt>
<totfact> 0.59649097E+02</totfact>
</mgrwt>
</event>
<event>
 4    1  0.1724904E-005  0.5469361E+03  0.7818608E-02  0.1002206E+00
          2   -1    0    0  501    0  0.00000000000E+00  0.00000000000E+00  0.13559842917E+04  0.13559842917E+04  0.25500000000E-02 0.  1.
         -2   -1    0    0    0  501 -0.00000000000E+00 -0.00000000000E+00 -0.55151652918E+02  0.55151652977E+02  0.25500000000E-02 0. -1.
    5000001    1    1    2    0    0 -0.16828038049E+03 -0.80898470778E+02  0.69663682973E+03  0.74817559541E+03  0.19900000000E+03 0.  0.
   -5000001    1    1    2    0    0  0.16828038049E+03  0.80898470778E+02  0.60419580907E+03  0.66296034929E+03  0.19900000000E+03 0.  0.
<mgrwt>
<rscale>  0 0.54693610E+03</rscale>
<asrwt>0</asrwt>
<pdfrwt beam="1">  1        2 0.19371201E+00 0.54693610E+03</pdfrwt>
<pdfrwt beam="2">  1       -2 0.78788087E-02 0.54693610E+03</pdfrwt>
<totfact> 0.17825291E+03</totfact>
</mgrwt>
</event>
<event>
 4    1  0.1724904E-005  0.1779156E+04  0.7818608E-02  0.8717463E-01
          2   -1    0    0  501    0  0.00000000000E+00  0.00000000000E+00  0.14361880628E+04  0.14361880628E+04  0.25500000000E-02 0.  1.
         -2   -1    0    0    0  501 -0.00000000000E+00 -0.00000000000E+00 -0.55100673786E+03  0.55100673787E+03  0.25500000000E-02 0. -1.
    5000001    1    1    2    0    0 -0.47561253467E+03 -0.15688576289E+03 -0.34793128994E+03  0.64146520424E+03  0.19900000000E+03 0.  0.
   -5000001    1    1    2    0    0  0.47561253467E+03  0.15688576289E+03  0.12331126149E+04  0.13457295964E+04  0.19900000000E+03 0.  0.
<mgrwt>
<rscale>  0 0.17791563E+04</rscale>
<asrwt>0</asrwt>
<pdfrwt beam="1">  1        2 0.20516972E+00 0.17791563E+04</pdfrwt>
<pdfrwt beam="2">  1       -2 0.78715248E-01 0.17791563E+04</pdfrwt>
<totfact> 0.21505321E+01</totfact>
</mgrwt>
</event>
