<event>
 4    1  0.1573232E-005  0.4290635E+03  0.7818608E-02  0.1034156E+00
         -2   -1    0    0    0  501 -0.00000000000E+00  0.00000000000E+00  0.80711955434E+02  0.80711955474E+02  0.25500000000E-02 0. -1.
          2   -1    0    0  501    0  0.00000000000E+00 -0.00000000000E+00 -0.57022368149E+03  0.57022368149E+03  0.25500000000E-02 0.  1.
    5000001    1    1    2    0    0  0.28171514287E+02  0.12595109642E+03 -0.17454874304E+03  0.27267118770E+03  0.16500000000E+03 0.  0.
   -5000001    1    1    2    0    0 -0.28171514287E+02 -0.12595109642E+03 -0.31496298302E+03  0.37826444926E+03  0.16500000000E+03 0.  0.
<mgrwt>
<rscale>  0 0.42906348E+03</rscale>
<asrwt>0</asrwt>
<pdfrwt beam="1">  1        2 0.87726718E-01 0.42906348E+03</pdfrwt>
<pdfrwt beam="2">  1       -2 0.12417224E-01 0.42906348E+03</pdfrwt>
<totfact> 0.25185853E+03</totfact>
</mgrwt>
</event>
<event>
 4    1  0.1573232E-005  0.5459516E+03  0.7818608E-02  0.1002435E+00
          2   -1    0    0  501    0  0.00000000000E+00  0.00000000000E+00  0.19426457259E+04  0.19426457259E+04  0.25500000000E-02 0.  1.
         -2   -1    0    0    0  501 -0.00000000000E+00 -0.00000000000E+00 -0.38357881723E+02  0.38357881807E+02  0.25500000000E-02 0. -1.
    5000001    1    1    2    0    0 -0.16981099291E+03  0.64869449095E+02  0.51903991105E+03  0.57417005147E+03  0.16500000000E+03 0.  0.
   -5000001    1    1    2    0    0  0.16981099291E+03 -0.64869449095E+02  0.13852479332E+04  0.14068335563E+04  0.16500000000E+03 0.  0.
<mgrwt>
<rscale>  0 0.54595155E+03</rscale>
<asrwt>0</asrwt>
<pdfrwt beam="1">  1        2 0.29886857E+00 0.54595155E+03</pdfrwt>
<pdfrwt beam="2">  1       -2 0.59012127E-02 0.54595155E+03</pdfrwt>
<totfact> 0.11843033E+03</totfact>
</mgrwt>
</event>
<event>
 4    1  0.1573232E-005  0.9556393E+03  0.7818608E-02  0.9358583E-01
          2   -1    0    0  501    0  0.00000000000E+00  0.00000000000E+00  0.33531274781E+04  0.33531274781E+04  0.25500000000E-02 0.  1.
         -2   -1    0    0    0  501 -0.00000000000E+00 -0.00000000000E+00 -0.68089149609E+02  0.68089149656E+02  0.25500000000E-02 0. -1.
    5000001    1    1    2    0    0  0.18708526344E+03 -0.37270242565E+03  0.10523178535E+04  0.11438994093E+04  0.16500000000E+03 0.  0.
   -5000001    1    1    2    0    0 -0.18708526344E+03  0.37270242565E+03  0.22327204751E+04  0.22773172185E+04  0.16500000000E+03 0.  0.
<mgrwt>
<rscale>  0 0.95563926E+03</rscale>
<asrwt>0</asrwt>
<pdfrwt beam="1">  1        2 0.51586567E+00 0.95563926E+03</pdfrwt>
<pdfrwt beam="2">  1       -2 0.10475256E-01 0.95563926E+03</pdfrwt>
<totfact> 0.68017092E+01</totfact>
</mgrwt>
</event>
<event>
 4    1  0.1573232E-005  0.3865992E+03  0.7818608E-02  0.1048521E+00
          2   -1    0    0  501    0  0.00000000000E+00  0.00000000000E+00  0.37401983793E+03  0.37401983794E+03  0.25500000000E-02 0.  1.
         -2   -1    0    0    0  501 -0.00000000000E+00 -0.00000000000E+00 -0.99900394638E+02  0.99900394670E+02  0.25500000000E-02 0. -1.
    5000001    1    1    2    0    0  0.12683022942E+01  0.10049212306E+03  0.12935973375E+03  0.23250637863E+03  0.16500000000E+03 0.  0.
   -5000001    1    1    2    0    0 -0.12683022942E+01 -0.10049212306E+03  0.14475970955E+03  0.24141385398E+03  0.16500000000E+03 0.  0.
<mgrwt>
<rscale>  0 0.38659917E+03</rscale>
<asrwt>0</asrwt>
<pdfrwt beam="1">  1        2 0.57541514E-01 0.38659917E+03</pdfrwt>
<pdfrwt beam="2">  1       -2 0.15369291E-01 0.38659917E+03</pdfrwt>
<totfact> 0.28410138E+03</totfact>
</mgrwt>
</event>
<event>
 4    1  0.1573232E-005  0.5942153E+03  0.7818608E-02  0.9917481E-01
          2   -1    0    0  501    0  0.00000000000E+00  0.00000000000E+00  0.24589877611E+04  0.24589877611E+04  0.25500000000E-02 0.  1.
         -2   -1    0    0    0  501 -0.00000000000E+00 -0.00000000000E+00 -0.35898091350E+02  0.35898091440E+02  0.25500000000E-02 0. -1.
    5000001    1    1    2    0    0  0.23056855372E+03  0.59791442865E+02  0.14872218175E+04  0.15151866582E+04  0.16500000000E+03 0.  0.
   -5000001    1    1    2    0    0 -0.23056855372E+03 -0.59791442865E+02  0.93586785225E+03  0.97969919439E+03  0.16500000000E+03 0.  0.
<mgrwt>
<rscale>  0 0.59421534E+03</rscale>
<asrwt>0</asrwt>
<pdfrwt beam="1">  1        2 0.37830604E+00 0.59421534E+03</pdfrwt>
<pdfrwt beam="2">  1       -2 0.55227799E-02 0.59421534E+03</pdfrwt>
<totfact> 0.68250840E+02</totfact>
</mgrwt>
</event>
<event>
 4    1  0.1573232E-005  0.8027638E+03  0.7818608E-02  0.9556025E-01
         -2   -1    0    0    0  501 -0.00000000000E+00  0.00000000000E+00  0.16886098539E+03  0.16886098541E+03  0.25500000000E-02 0. -1.
          2   -1    0    0  501    0  0.00000000000E+00 -0.00000000000E+00 -0.95408331641E+03  0.95408331641E+03  0.25500000000E-02 0.  1.
    5000001    1    1    2    0    0 -0.19134487275E+03 -0.28946460904E+03 -0.23020122886E+03  0.44790649246E+03  0.16500000000E+03 0.  0.
   -5000001    1    1    2    0    0  0.19134487275E+03  0.28946460904E+03 -0.55502110216E+03  0.67503780936E+03  0.16500000000E+03 0.  0.
<mgrwt>
<rscale>  0 0.80276385E+03</rscale>
<asrwt>0</asrwt>
<pdfrwt beam="1">  1        2 0.14678205E+00 0.80276385E+03</pdfrwt>
<pdfrwt beam="2">  1       -2 0.25978614E-01 0.80276385E+03</pdfrwt>
<totfact> 0.36230500E+02</totfact>
</mgrwt>
</event>
<event>
 4    1  0.1573232E-005  0.1041148E+04  0.7818608E-02  0.9264532E-01
          2   -1    0    0  501    0  0.00000000000E+00  0.00000000000E+00  0.21847915271E+04  0.21847915271E+04  0.25500000000E-02 0.  1.
         -2   -1    0    0    0  501 -0.00000000000E+00 -0.00000000000E+00 -0.12403795000E+03  0.12403795003E+03  0.25500000000E-02 0. -1.
    5000001    1    1    2    0    0 -0.42145913646E+03  0.17057420302E+03  0.14572177181E+04  0.15353930573E+04  0.16500000000E+03 0.  0.
   -5000001    1    1    2    0    0  0.42145913646E+03 -0.17057420302E+03  0.60353585903E+03  0.77343641987E+03  0.16500000000E+03 0.  0.
<mgrwt>
<rscale>  0 0.10411476E+04</rscale>
<asrwt>0</asrwt>
<pdfrwt beam="1">  1        2 0.33612173E+00 0.10411476E+04</pdfrwt>
<pdfrwt beam="2">  1       -2 0.19082764E-01 0.10411476E+04</pdfrwt>
<totfact> 0.12242211E+02</totfact>
</mgrwt>
</event>
<event>
 4    1  0.1573232E-005  0.4376104E+03  0.7818608E-02  0.1031483E+00
          2   -1    0    0  501    0  0.00000000000E+00  0.00000000000E+00  0.40826577951E+03  0.40826577952E+03  0.25500000000E-02 0.  1.
         -2   -1    0    0    0  501 -0.00000000000E+00 -0.00000000000E+00 -0.11726602622E+03  0.11726602625E+03  0.25500000000E-02 0. -1.
    5000001    1    1    2    0    0  0.12671031320E+03  0.66525523732E+02  0.16113743937E+03  0.27142480201E+03  0.16500000000E+03 0.  0.
   -5000001    1    1    2    0    0 -0.12671031320E+03 -0.66525523732E+02  0.12986231392E+03  0.25410700375E+03  0.16500000000E+03 0.  0.
<mgrwt>
<rscale>  0 0.43761035E+03</rscale>
<asrwt>0</asrwt>
<pdfrwt beam="1">  1        2 0.62810120E-01 0.43761035E+03</pdfrwt>
<pdfrwt beam="2">  1       -2 0.18040927E-01 0.43761035E+03</pdfrwt>
<totfact> 0.19707934E+03</totfact>
</mgrwt>
</event>
<event>
 4    1  0.1573232E-005  0.6807852E+03  0.7818608E-02  0.9750668E-01
          2   -1    0    0  501    0  0.00000000000E+00  0.00000000000E+00  0.25343555344E+04  0.25343555344E+04  0.25500000000E-02 0. -1.
         -2   -1    0    0    0  501 -0.00000000000E+00 -0.00000000000E+00 -0.45718577485E+02  0.45718577556E+02  0.25500000000E-02 0.  1.
    5000001    1    1    2    0    0 -0.24747123103E+03  0.16533539375E+03  0.12747147202E+04  0.13193560628E+04  0.16500000000E+03 0.  0.
   -5000001    1    1    2    0    0  0.24747123103E+03 -0.16533539375E+03  0.12139222367E+04  0.12607180491E+04  0.16500000000E+03 0.  0.
<mgrwt>
<rscale>  0 0.68078522E+03</rscale>
<asrwt>0</asrwt>
<pdfrwt beam="1">  1        2 0.38990106E+00 0.68078522E+03</pdfrwt>
<pdfrwt beam="2">  1       -2 0.70336236E-02 0.68078522E+03</pdfrwt>
<totfact> 0.41992229E+02</totfact>
</mgrwt>
</event>
<event>
 4    1  0.1573232E-005  0.3768445E+03  0.7818608E-02  0.1052106E+00
          2   -1    0    0  501    0  0.00000000000E+00  0.00000000000E+00  0.51054952730E+03  0.51054952731E+03  0.25500000000E-02 0.  1.
         -2   -1    0    0    0  501 -0.00000000000E+00 -0.00000000000E+00 -0.69538677163E+02  0.69538677210E+02  0.25500000000E-02 0. -1.
    5000001    1    1    2    0    0 -0.78680188381E+02  0.27674195753E+02  0.16454688264E+03  0.24750173684E+03  0.16500000000E+03 0.  0.
   -5000001    1    1    2    0    0  0.78680188381E+02 -0.27674195753E+02  0.27646396750E+03  0.33258646768E+03  0.16500000000E+03 0.  0.
<mgrwt>
<rscale>  0 0.37684447E+03</rscale>
<asrwt>0</asrwt>
<pdfrwt beam="1">  1        2 0.78546083E-01 0.37684447E+03</pdfrwt>
<pdfrwt beam="2">  1       -2 0.10698258E-01 0.37684447E+03</pdfrwt>
<totfact> 0.36384436E+03</totfact>
</mgrwt>
</event>
<event>
 4    1  0.1573232E-005  0.6983871E+03  0.7818608E-02  0.9719994E-01
         -2   -1    0    0    0  501 -0.00000000000E+00  0.00000000000E+00  0.75249879015E+02  0.75249879058E+02  0.25500000000E-02 0. -1.
          2   -1    0    0  501    0  0.00000000000E+00 -0.00000000000E+00 -0.16204165310E+04  0.16204165310E+04  0.25500000000E-02 0.  1.
    5000001    1    1    2    0    0  0.11661202219E+03 -0.13809626338E+03 -0.13773499324E+04  0.13989234353E+04  0.16500000000E+03 0.  0.
   -5000001    1    1    2    0    0 -0.11661202219E+03  0.13809626338E+03 -0.16781671963E+03  0.29674297476E+03  0.16500000000E+03 0.  0.
<mgrwt>
<rscale>  0 0.69838714E+03</rscale>
<asrwt>0</asrwt>
<pdfrwt beam="1">  1        2 0.24929483E+00 0.69838714E+03</pdfrwt>
<pdfrwt beam="2">  1       -2 0.11576906E-01 0.69838714E+03</pdfrwt>
<totfact> 0.59693418E+02</totfact>
</mgrwt>
</event>
<event>
 4    1  0.1573232E-005  0.6815177E+03  0.7818608E-02  0.9749372E-01
          2   -1    0    0  501    0  0.00000000000E+00  0.00000000000E+00  0.11847463039E+04  0.11847463039E+04  0.25500000000E-02 0.  1.
         -2   -1    0    0    0  501 -0.00000000000E+00 -0.00000000000E+00 -0.98009656363E+02  0.98009656396E+02  0.25500000000E-02 0. -1.
    5000001    1    1    2    0    0 -0.21069956063E+03  0.94048501522E+02  0.89876209327E+03  0.94246364693E+03  0.16500000000E+03 0.  0.
   -5000001    1    1    2    0    0  0.21069956063E+03 -0.94048501522E+02  0.18797455428E+03  0.34029231338E+03  0.16500000000E+03 0.  0.
<mgrwt>
<rscale>  0 0.68151765E+03</rscale>
<asrwt>0</asrwt>
<pdfrwt beam="1">  1        2 0.18226865E+00 0.68151765E+03</pdfrwt>
<pdfrwt beam="2">  1       -2 0.15078409E-01 0.68151765E+03</pdfrwt>
<totfact> 0.67832411E+02</totfact>
</mgrwt>
</event>
<event>
 4    1  0.1573232E-005  0.4253268E+03  0.7818608E-02  0.1035346E+00
         -2   -1    0    0    0  501 -0.00000000000E+00  0.00000000000E+00  0.19754995294E+02  0.19754995459E+02  0.25500000000E-02 0. -1.
          2   -1    0    0  501    0  0.00000000000E+00 -0.00000000000E+00 -0.22893312437E+04  0.22893312437E+04  0.25500000000E-02 0.  1.
    5000001    1    1    2    0    0  0.23899506445E+02  0.12513160291E+03 -0.13632970203E+04  0.13791420776E+04  0.16500000000E+03 0.  0.
   -5000001    1    1    2    0    0 -0.23899506445E+02 -0.12513160291E+03 -0.90627922807E+03  0.92994416159E+03  0.16500000000E+03 0.  0.
<mgrwt>
<rscale>  0 0.42532683E+03</rscale>
<asrwt>0</asrwt>
<pdfrwt beam="1">  1        2 0.35220460E+00 0.42532683E+03</pdfrwt>
<pdfrwt beam="2">  1       -2 0.30392319E-02 0.42532683E+03</pdfrwt>
<totfact> 0.21429730E+03</totfact>
</mgrwt>
</event>
<event>
 4    1  0.1573232E-005  0.5330368E+03  0.7818608E-02  0.1005498E+00
         -2   -1    0    0    0  501 -0.00000000000E+00  0.00000000000E+00  0.15715505953E+03  0.15715505955E+03  0.25500000000E-02 0. -1.
          2   -1    0    0  501    0  0.00000000000E+00 -0.00000000000E+00 -0.45198716515E+03  0.45198716516E+03  0.25500000000E-02 0.  1.
    5000001    1    1    2    0    0 -0.79008474345E+02 -0.16992569450E+03 -0.25394584807E+03  0.35613280448E+03  0.16500000000E+03 0.  0.
   -5000001    1    1    2    0    0  0.79008474345E+02  0.16992569450E+03 -0.40886257547E+02  0.25300942023E+03  0.16500000000E+03 0.  0.
<mgrwt>
<rscale>  0 0.53303685E+03</rscale>
<asrwt>0</asrwt>
<pdfrwt beam="1">  1        2 0.69536487E-01 0.53303685E+03</pdfrwt>
<pdfrwt beam="2">  1       -2 0.24177702E-01 0.53303685E+03</pdfrwt>
<totfact> 0.10558267E+03</totfact>
</mgrwt>
</event>
<event>
 4    1  0.1573232E-005  0.5435138E+03  0.7818608E-02  0.1003006E+00
         -2   -1    0    0    0  501 -0.00000000000E+00  0.00000000000E+00  0.20159054465E+03  0.20159054467E+03  0.25500000000E-02 0. -1.
          2   -1    0    0  501    0  0.00000000000E+00 -0.00000000000E+00 -0.36634558113E+03  0.36634558114E+03  0.25500000000E-02 0.  1.
    5000001    1    1    2    0    0  0.62407999579E+02  0.20117997323E+03 -0.32716585624E+02  0.26956170911E+03  0.16500000000E+03 0.  0.
   -5000001    1    1    2    0    0 -0.62407999579E+02 -0.20117997323E+03 -0.13203845085E+03  0.29837441671E+03  0.16500000000E+03 0.  0.
<mgrwt>
<rscale>  0 0.54351377E+03</rscale>
<asrwt>0</asrwt>
<pdfrwt beam="1">  1        2 0.56360858E-01 0.54351377E+03</pdfrwt>
<pdfrwt beam="2">  1       -2 0.31013930E-01 0.54351377E+03</pdfrwt>
<totfact> 0.84900259E+02</totfact>
</mgrwt>
</event>
<event>
 4    1  0.1573232E-005  0.3999213E+03  0.7818608E-02  0.1043807E+00
         -2   -1    0    0    0  501 -0.00000000000E+00  0.00000000000E+00  0.23496608705E+02  0.23496608844E+02  0.25500000000E-02 0. -1.
          2   -1    0    0  501    0  0.00000000000E+00 -0.00000000000E+00 -0.17017033089E+04  0.17017033089E+04  0.25500000000E-02 0.  1.
    5000001    1    1    2    0    0  0.55847504544E+01  0.95377473441E+02 -0.57915306153E+03  0.60973053110E+03  0.16500000000E+03 0.  0.
   -5000001    1    1    2    0    0 -0.55847504544E+01 -0.95377473441E+02 -0.10990536386E+04  0.11154693866E+04  0.16500000000E+03 0.  0.
<mgrwt>
<rscale>  0 0.39992128E+03</rscale>
<asrwt>0</asrwt>
<pdfrwt beam="1">  1        2 0.26180041E+00 0.39992128E+03</pdfrwt>
<pdfrwt beam="2">  1       -2 0.36148642E-02 0.39992128E+03</pdfrwt>
<totfact> 0.34094201E+03</totfact>
</mgrwt>
</event>
<event>
 4    1  0.1573232E-005  0.5683434E+03  0.7818608E-02  0.9973351E-01
          2   -1    0    0  501    0  0.00000000000E+00  0.00000000000E+00  0.70874971064E+03  0.70874971064E+03  0.25500000000E-02 0.  1.
         -2   -1    0    0    0  501 -0.00000000000E+00 -0.00000000000E+00 -0.11393804581E+03  0.11393804584E+03  0.25500000000E-02 0. -1.
    5000001    1    1    2    0    0 -0.20684696531E+03 -0.80190464683E+02  0.39246252202E+03  0.48007083735E+03  0.16500000000E+03 0.  0.
   -5000001    1    1    2    0    0  0.20684696531E+03  0.80190464683E+02  0.20234914281E+03  0.34261691914E+03  0.16500000000E+03 0.  0.
<mgrwt>
<rscale>  0 0.56834341E+03</rscale>
<asrwt>0</asrwt>
<pdfrwt beam="1">  1        2 0.10903842E+00 0.56834341E+03</pdfrwt>
<pdfrwt beam="2">  1       -2 0.17528930E-01 0.56834341E+03</pdfrwt>
<totfact> 0.10869746E+03</totfact>
</mgrwt>
</event>
<event>
 4    1  0.1573232E-005  0.4054505E+03  0.7818608E-02  0.1041909E+00
         -2   -1    0    0    0  501 -0.00000000000E+00  0.00000000000E+00  0.94053110776E+02  0.94053110810E+02  0.25500000000E-02 0.  1.
          2   -1    0    0  501    0  0.00000000000E+00 -0.00000000000E+00 -0.43696094836E+03  0.43696094837E+03  0.25500000000E-02 0. -1.
    5000001    1    1    2    0    0 -0.10556417923E+03 -0.41397246326E+02 -0.12972828137E+03  0.23856226635E+03  0.16500000000E+03 0.  0.
   -5000001    1    1    2    0    0  0.10556417923E+03  0.41397246326E+02 -0.21317955622E+03  0.29245179283E+03  0.16500000000E+03 0.  0.
<mgrwt>
<rscale>  0 0.40545055E+03</rscale>
<asrwt>0</asrwt>
<pdfrwt beam="1">  1        2 0.67224760E-01 0.40545055E+03</pdfrwt>
<pdfrwt beam="2">  1       -2 0.14469710E-01 0.40545055E+03</pdfrwt>
<totfact> 0.26477035E+03</totfact>
</mgrwt>
</event>
<event>
 4    1  0.1573232E-005  0.4882473E+03  0.7818608E-02  0.1016893E+00
          2   -1    0    0  501    0  0.00000000000E+00  0.00000000000E+00  0.84984155474E+03  0.84984155474E+03  0.25500000000E-02 0.  1.
         -2   -1    0    0    0  501 -0.00000000000E+00 -0.00000000000E+00 -0.70126439678E+02  0.70126439725E+02  0.25500000000E-02 0. -1.
    5000001    1    1    2    0    0  0.13731170368E+03 -0.83999321826E+02  0.23840319307E+03  0.33161946943E+03  0.16500000000E+03 0.  0.
   -5000001    1    1    2    0    0 -0.13731170368E+03  0.83999321826E+02  0.54131192199E+03  0.58834852504E+03  0.16500000000E+03 0.  0.
<mgrwt>
<rscale>  0 0.48824732E+03</rscale>
<asrwt>0</asrwt>
<pdfrwt beam="1">  1        2 0.13074486E+00 0.48824732E+03</pdfrwt>
<pdfrwt beam="2">  1       -2 0.10788683E-01 0.48824732E+03</pdfrwt>
<totfact> 0.19301544E+03</totfact>
</mgrwt>
</event>
<event>
 4    1  0.1573232E-005  0.4124737E+03  0.7818608E-02  0.1039544E+00
         -2   -1    0    0    0  501 -0.00000000000E+00  0.00000000000E+00  0.26912717181E+02  0.26912717302E+02  0.25500000000E-02 0. -1.
          2   -1    0    0  501    0  0.00000000000E+00 -0.00000000000E+00 -0.15804290761E+04  0.15804290761E+04  0.25500000000E-02 0.  1.
    5000001    1    1    2    0    0  0.86939051786E+02  0.80890229457E+02 -0.91214235924E+03  0.93452143446E+03  0.16500000000E+03 0.  0.
   -5000001    1    1    2    0    0 -0.86939051786E+02 -0.80890229457E+02 -0.64137399971E+03  0.67282035898E+03  0.16500000000E+03 0.  0.
<mgrwt>
<rscale>  0 0.41247371E+03</rscale>
<asrwt>0</asrwt>
<pdfrwt beam="1">  1        2 0.24314286E+00 0.41247371E+03</pdfrwt>
<pdfrwt beam="2">  1       -2 0.41404193E-02 0.41247371E+03</pdfrwt>
<totfact> 0.32220991E+03</totfact>
</mgrwt>
</event>
<event>
 4    1  0.1573232E-005  0.1251513E+04  0.7818608E-02  0.9068925E-01
         -2   -1    0    0    0  501 -0.00000000000E+00  0.00000000000E+00  0.31686021148E+03  0.31686021149E+03  0.25500000000E-02 0. -1.
          2   -1    0    0  501    0  0.00000000000E+00 -0.00000000000E+00 -0.12357857304E+04  0.12357857304E+04  0.25500000000E-02 0.  1.
    5000001    1    1    2    0    0  0.46781622323E+03 -0.24914825932E+03 -0.10114307534E+03  0.56425330794E+03  0.16500000000E+03 0.  0.
   -5000001    1    1    2    0    0 -0.46781622323E+03  0.24914825932E+03 -0.81778244358E+03  0.98839263396E+03  0.16500000000E+03 0.  0.
<mgrwt>
<rscale>  0 0.12515132E+04</rscale>
<asrwt>0</asrwt>
<pdfrwt beam="1">  1        2 0.19012088E+00 0.12515132E+04</pdfrwt>
<pdfrwt beam="2">  1       -2 0.48747725E-01 0.12515132E+04</pdfrwt>
<totfact> 0.70649706E+01</totfact>
</mgrwt>
</event>
<event>
 4    1  0.1573232E-005  0.5688795E+03  0.7818608E-02  0.9972161E-01
         -2   -1    0    0    0  501 -0.00000000000E+00  0.00000000000E+00  0.58079721292E+02  0.58079721348E+02  0.25500000000E-02 0. -1.
          2   -1    0    0  501    0  0.00000000000E+00 -0.00000000000E+00 -0.13930157081E+04  0.13930157081E+04  0.25500000000E-02 0.  1.
    5000001    1    1    2    0    0  0.20927593227E+03 -0.13822843608E+02 -0.91860777277E+03  0.95658388395E+03  0.16500000000E+03 0.  0.
   -5000001    1    1    2    0    0 -0.20927593227E+03  0.13822843608E+02 -0.41632821405E+03  0.49451154551E+03  0.16500000000E+03 0.  0.
<mgrwt>
<rscale>  0 0.56887947E+03</rscale>
<asrwt>0</asrwt>
<pdfrwt beam="1">  1        2 0.21431008E+00 0.56887947E+03</pdfrwt>
<pdfrwt beam="2">  1       -2 0.89353428E-02 0.56887947E+03</pdfrwt>
<totfact> 0.12230243E+03</totfact>
</mgrwt>
</event>
<event>
 4    1  0.1573232E-005  0.4263654E+03  0.7818608E-02  0.1035014E+00
         -2   -1    0    0    0  501 -0.00000000000E+00  0.00000000000E+00  0.15839875146E+03  0.15839875148E+03  0.25500000000E-02 0. -1.
          2   -1    0    0  501    0  0.00000000000E+00 -0.00000000000E+00 -0.28691429599E+03  0.28691429600E+03  0.25500000000E-02 0.  1.
    5000001    1    1    2    0    0  0.10256509035E+03  0.14509288018E+02 -0.15465915315E+03  0.24874599665E+03  0.16500000000E+03 0.  0.
   -5000001    1    1    2    0    0 -0.10256509035E+03 -0.14509288018E+02  0.26143608622E+02  0.19656705082E+03  0.16500000000E+03 0.  0.
<mgrwt>
<rscale>  0 0.42636541E+03</rscale>
<asrwt>0</asrwt>
<pdfrwt beam="1">  1        2 0.44140661E-01 0.42636541E+03</pdfrwt>
<pdfrwt beam="2">  1       -2 0.24369039E-01 0.42636541E+03</pdfrwt>
<totfact> 0.17194082E+03</totfact>
</mgrwt>
</event>
<event>
 4    1  0.1573232E-005  0.5505846E+03  0.7818608E-02  0.1001359E+00
         -2   -1    0    0    0  501 -0.00000000000E+00  0.00000000000E+00  0.92184163259E+02  0.92184163294E+02  0.25500000000E-02 0. -1.
          2   -1    0    0  501    0  0.00000000000E+00 -0.00000000000E+00 -0.82211349950E+03  0.82211349950E+03  0.25500000000E-02 0.  1.
    5000001    1    1    2    0    0 -0.20316643003E+03  0.80472770362E+02 -0.31775060807E+03  0.41945549703E+03  0.16500000000E+03 0.  0.
   -5000001    1    1    2    0    0  0.20316643003E+03 -0.80472770362E+02 -0.41217872816E+03  0.49484216576E+03  0.16500000000E+03 0.  0.
<mgrwt>
<rscale>  0 0.55058458E+03</rscale>
<asrwt>0</asrwt>
<pdfrwt beam="1">  1        2 0.12647899E+00 0.55058458E+03</pdfrwt>
<pdfrwt beam="2">  1       -2 0.14182180E-01 0.55058458E+03</pdfrwt>
<totfact> 0.12849707E+03</totfact>
</mgrwt>
</event>
<event>
 4    1  0.1573232E-005  0.4660249E+03  0.7818608E-02  0.1023048E+00
         -2   -1    0    0    0  501 -0.00000000000E+00  0.00000000000E+00  0.44444033953E+02  0.44444034027E+02  0.25500000000E-02 0. -1.
          2   -1    0    0  501    0  0.00000000000E+00 -0.00000000000E+00 -0.12216444588E+04  0.12216444588E+04  0.25500000000E-02 0.  1.
    5000001    1    1    2    0    0 -0.70558561782E+02 -0.13361959024E+03 -0.41175659443E+03  0.46861625942E+03  0.16500000000E+03 0.  0.
   -5000001    1    1    2    0    0  0.70558561782E+02  0.13361959024E+03 -0.76544383040E+03  0.79747223339E+03  0.16500000000E+03 0.  0.
<mgrwt>
<rscale>  0 0.46602493E+03</rscale>
<asrwt>0</asrwt>
<pdfrwt beam="1">  1        2 0.18794528E+00 0.46602493E+03</pdfrwt>
<pdfrwt beam="2">  1       -2 0.68375446E-02 0.46602493E+03</pdfrwt>
<totfact> 0.23465018E+03</totfact>
</mgrwt>
</event>
<event>
 4    1  0.1573232E-005  0.4124257E+03  0.7818608E-02  0.1039560E+00
          2   -1    0    0  501    0  0.00000000000E+00  0.00000000000E+00  0.12447649938E+03  0.12447649940E+03  0.25500000000E-02 0.  1.
         -2   -1    0    0    0  501 -0.00000000000E+00 -0.00000000000E+00 -0.34162055258E+03  0.34162055259E+03  0.25500000000E-02 0. -1.
    5000001    1    1    2    0    0 -0.41718020491E+02 -0.11288668416E+03 -0.14083406849E+03  0.24807868014E+03  0.16500000000E+03 0.  0.
   -5000001    1    1    2    0    0  0.41718020491E+02  0.11288668416E+03 -0.76309984719E+02  0.21801837185E+03  0.16500000000E+03 0.  0.
<mgrwt>
<rscale>  0 0.41242566E+03</rscale>
<asrwt>0</asrwt>
<pdfrwt beam="1">  1        2 0.19150231E-01 0.41242566E+03</pdfrwt>
<pdfrwt beam="2">  1       -2 0.52557008E-01 0.41242566E+03</pdfrwt>
<totfact> 0.10215788E+03</totfact>
</mgrwt>
</event>
<event>
 4    1  0.1573232E-005  0.4719744E+03  0.7818608E-02  0.1021364E+00
          2   -1    0    0  501    0  0.00000000000E+00  0.00000000000E+00  0.58317222688E+03  0.58317222689E+03  0.25500000000E-02 0. -1.
         -2   -1    0    0    0  501 -0.00000000000E+00 -0.00000000000E+00 -0.95494860799E+02  0.95494860834E+02  0.25500000000E-02 0.  1.
    5000001    1    1    2    0    0  0.29397950588E+02 -0.16534760353E+03  0.26706389721E+03  0.35602274461E+03  0.16500000000E+03 0.  0.
   -5000001    1    1    2    0    0 -0.29397950588E+02  0.16534760353E+03  0.22061346888E+03  0.32264434311E+03  0.16500000000E+03 0.  0.
<mgrwt>
<rscale>  0 0.47197437E+03</rscale>
<asrwt>0</asrwt>
<pdfrwt beam="1">  1        2 0.89718805E-01 0.47197437E+03</pdfrwt>
<pdfrwt beam="2">  1       -2 0.14691517E-01 0.47197437E+03</pdfrwt>
<totfact> 0.18581084E+03</totfact>
</mgrwt>
</event>
<event>
 4    1  0.1573232E-005  0.4518000E+03  0.7818608E-02  0.1027187E+00
          2   -1    0    0  501    0  0.00000000000E+00  0.00000000000E+00  0.19601570922E+04  0.19601570922E+04  0.25500000000E-02 0.  1.
         -2   -1    0    0    0  501 -0.00000000000E+00 -0.00000000000E+00 -0.26034046053E+02  0.26034046178E+02  0.25500000000E-02 0. -1.
    5000001    1    1    2    0    0  0.14403587889E+03  0.31830338423E+02  0.76819529146E+03  0.79944262501E+03  0.16500000000E+03 0.  0.
   -5000001    1    1    2    0    0 -0.14403587889E+03 -0.31830338423E+02  0.11659277546E+04  0.11867485133E+04  0.16500000000E+03 0.  0.
<mgrwt>
<rscale>  0 0.45180004E+03</rscale>
<asrwt>0</asrwt>
<pdfrwt beam="1">  1        2 0.30156267E+00 0.45180004E+03</pdfrwt>
<pdfrwt beam="2">  1       -2 0.40052373E-02 0.45180004E+03</pdfrwt>
<totfact> 0.21185560E+03</totfact>
</mgrwt>
</event>
<event>
 4    1  0.1573232E-005  0.7104980E+03  0.7818608E-02  0.9699446E-01
          2   -1    0    0  501    0  0.00000000000E+00  0.00000000000E+00  0.14628215943E+04  0.14628215943E+04  0.25500000000E-02 0. -1.
         -2   -1    0    0    0  501 -0.00000000000E+00 -0.00000000000E+00 -0.86272892077E+02  0.86272892114E+02  0.25500000000E-02 0.  1.
    5000001    1    1    2    0    0 -0.89186340770E+02 -0.26578631801E+03  0.99953206179E+03  0.10511355349E+04  0.16500000000E+03 0.  0.
   -5000001    1    1    2    0    0  0.89186340770E+02  0.26578631801E+03  0.37701664048E+03  0.49795895154E+03  0.16500000000E+03 0.  0.
<mgrwt>
<rscale>  0 0.71049799E+03</rscale>
<asrwt>0</asrwt>
<pdfrwt beam="1">  1        2 0.22504946E+00 0.71049799E+03</pdfrwt>
<pdfrwt beam="2">  1       -2 0.13272753E-01 0.71049799E+03</pdfrwt>
<totfact> 0.58134597E+02</totfact>
</mgrwt>
</event>
<event>
 4    1  0.1573232E-005  0.4300514E+03  0.7818608E-02  0.1033844E+00
          2   -1    0    0  501    0  0.00000000000E+00  0.00000000000E+00  0.45540833390E+03  0.45540833391E+03  0.25500000000E-02 0.  1.
         -2   -1    0    0    0  501 -0.00000000000E+00 -0.00000000000E+00 -0.10152657878E+03  0.10152657881E+03  0.25500000000E-02 0. -1.
    5000001    1    1    2    0    0  0.12450465218E+03 -0.25194156662E+02  0.24637855181E+03  0.32258881682E+03  0.16500000000E+03 0.  0.
   -5000001    1    1    2    0    0 -0.12450465218E+03  0.25194156662E+02  0.10750320331E+03  0.23434609590E+03  0.16500000000E+03 0.  0.
<mgrwt>
<rscale>  0 0.43005139E+03</rscale>
<asrwt>0</asrwt>
<pdfrwt beam="1">  1        2 0.70062820E-01 0.43005139E+03</pdfrwt>
<pdfrwt beam="2">  1       -2 0.15619474E-01 0.43005139E+03</pdfrwt>
<totfact> 0.22263564E+03</totfact>
</mgrwt>
</event>
<event>
 4    1  0.1573232E-005  0.8934857E+03  0.7818608E-02  0.9433761E-01
         -2   -1    0    0    0  501 -0.00000000000E+00  0.00000000000E+00  0.24390702903E+03  0.24390702904E+03  0.25500000000E-02 0. -1.
          2   -1    0    0  501    0  0.00000000000E+00 -0.00000000000E+00 -0.81825926755E+03  0.81825926756E+03  0.25500000000E-02 0.  1.
    5000001    1    1    2    0    0  0.40826999067E+03 -0.75261315579E+02 -0.28997319466E+03  0.53259562946E+03  0.16500000000E+03 0.  0.
   -5000001    1    1    2    0    0 -0.40826999067E+03  0.75261315579E+02 -0.28437904387E+03  0.52957066714E+03  0.16500000000E+03 0.  0.
<mgrwt>
<rscale>  0 0.89348573E+03</rscale>
<asrwt>0</asrwt>
<pdfrwt beam="1">  1        2 0.12588604E+00 0.89348573E+03</pdfrwt>
<pdfrwt beam="2">  1       -2 0.37524159E-01 0.89348573E+03</pdfrwt>
<totfact> 0.22437473E+02</totfact>
</mgrwt>
</event>
<event>
 4    1  0.1573232E-005  0.4325975E+03  0.7818608E-02  0.1033043E+00
         -2   -1    0    0    0  501 -0.00000000000E+00  0.00000000000E+00  0.17839777450E+02  0.17839777632E+02  0.25500000000E-02 0. -1.
          2   -1    0    0  501    0  0.00000000000E+00 -0.00000000000E+00 -0.26225188536E+04  0.26225188536E+04  0.25500000000E-02 0.  1.
    5000001    1    1    2    0    0 -0.12650718767E+03 -0.59587245122E+02 -0.12880977920E+04  0.13061300204E+04  0.16500000000E+03 0.  0.
   -5000001    1    1    2    0    0  0.12650718767E+03  0.59587245122E+02 -0.13165812841E+04  0.13342286108E+04  0.16500000000E+03 0.  0.
<mgrwt>
<rscale>  0 0.43259752E+03</rscale>
<asrwt>0</asrwt>
<pdfrwt beam="1">  1        2 0.40346413E+00 0.43259752E+03</pdfrwt>
<pdfrwt beam="2">  1       -2 0.27445832E-02 0.43259752E+03</pdfrwt>
<totfact> 0.16321960E+03</totfact>
</mgrwt>
</event>
<event>
 4    1  0.1573232E-005  0.5906932E+03  0.7818608E-02  0.9924905E-01
         -2   -1    0    0    0  501 -0.00000000000E+00  0.00000000000E+00  0.63540445212E+02  0.63540445263E+02  0.25500000000E-02 0. -1.
          2   -1    0    0  501    0  0.00000000000E+00 -0.00000000000E+00 -0.13728203968E+04  0.13728203968E+04  0.25500000000E-02 0.  1.
    5000001    1    1    2    0    0 -0.96422046919E+02  0.17059047745E+03 -0.10120705879E+04  0.10439876422E+04  0.16500000000E+03 0.  0.
   -5000001    1    1    2    0    0  0.96422046919E+02 -0.17059047745E+03 -0.29720936370E+03  0.39237319990E+03  0.16500000000E+03 0.  0.
<mgrwt>
<rscale>  0 0.59069322E+03</rscale>
<asrwt>0</asrwt>
<pdfrwt beam="1">  1        2 0.21120312E+00 0.59069322E+03</pdfrwt>
<pdfrwt beam="2">  1       -2 0.97754541E-02 0.59069322E+03</pdfrwt>
<totfact> 0.10851857E+03</totfact>
</mgrwt>
</event>
<event>
 4    1  0.1573232E-005  0.8620841E+03  0.7818608E-02  0.9474260E-01
          2   -1    0    0  501    0  0.00000000000E+00  0.00000000000E+00  0.29047008321E+04  0.29047008321E+04  0.25500000000E-02 0.  1.
         -2   -1    0    0    0  501 -0.00000000000E+00 -0.00000000000E+00 -0.63964328853E+02  0.63964328904E+02  0.25500000000E-02 0. -1.
    5000001    1    1    2    0    0 -0.91488310490E+02 -0.38311582540E+03  0.16218813929E+04  0.16771619180E+04  0.16500000000E+03 0.  0.
   -5000001    1    1    2    0    0  0.91488310490E+02  0.38311582540E+03  0.12188551104E+04  0.12915032430E+04  0.16500000000E+03 0.  0.
<mgrwt>
<rscale>  0 0.86208408E+03</rscale>
<asrwt>0</asrwt>
<pdfrwt beam="1">  1        2 0.44687691E+00 0.86208408E+03</pdfrwt>
<pdfrwt beam="2">  1       -2 0.98406692E-02 0.86208408E+03</pdfrwt>
<totfact> 0.14606055E+02</totfact>
</mgrwt>
</event>
<event>
 4    1  0.1573232E-005  0.4796338E+03  0.7818608E-02  0.1019236E+00
         -2   -1    0    0    0  501 -0.00000000000E+00  0.00000000000E+00  0.53472809751E+02  0.53472809812E+02  0.25500000000E-02 0. -1.
          2   -1    0    0  501    0  0.00000000000E+00 -0.00000000000E+00 -0.10755400635E+04  0.10755400635E+04  0.25500000000E-02 0.  1.
    5000001    1    1    2    0    0  0.74965935319E+02  0.93745926108E+02 -0.21441384263E+03  0.29598392867E+03  0.16500000000E+03 0.  0.
   -5000001    1    1    2    0    0 -0.74965935319E+02 -0.93745926108E+02 -0.80765341110E+03  0.83302894462E+03  0.16500000000E+03 0.  0.
<mgrwt>
<rscale>  0 0.47963382E+03</rscale>
<asrwt>0</asrwt>
<pdfrwt beam="1">  1        2 0.16546769E+00 0.47963382E+03</pdfrwt>
<pdfrwt beam="2">  1       -2 0.82265869E-02 0.47963382E+03</pdfrwt>
<totfact> 0.21378157E+03</totfact>
</mgrwt>
</event>
<event>
 4    1  0.1573232E-005  0.3945115E+03  0.7818608E-02  0.1045697E+00
         -2   -1    0    0    0  501 -0.00000000000E+00  0.00000000000E+00  0.74818233327E+02  0.74818233370E+02  0.25500000000E-02 0. -1.
          2   -1    0    0  501    0  0.00000000000E+00 -0.00000000000E+00 -0.52005805678E+03  0.52005805678E+03  0.25500000000E-02 0.  1.
    5000001    1    1    2    0    0  0.40192138285E+02  0.97462240733E+02 -0.25863676558E+03  0.32439524173E+03  0.16500000000E+03 0.  0.
   -5000001    1    1    2    0    0 -0.40192138285E+02 -0.97462240733E+02 -0.18660305787E+03  0.27048104842E+03  0.16500000000E+03 0.  0.
<mgrwt>
<rscale>  0 0.39451147E+03</rscale>
<asrwt>0</asrwt>
<pdfrwt beam="1">  1        2 0.80008930E-01 0.39451147E+03</pdfrwt>
<pdfrwt beam="2">  1       -2 0.11510498E-01 0.39451147E+03</pdfrwt>
<totfact> 0.31672037E+03</totfact>
</mgrwt>
</event>
<event>
 4    1  0.1573232E-005  0.5015488E+03  0.7818608E-02  0.1013375E+00
         -2   -1    0    0    0  501 -0.00000000000E+00  0.00000000000E+00  0.13348083218E+03  0.13348083221E+03  0.25500000000E-02 0. -1.
          2   -1    0    0  501    0  0.00000000000E+00 -0.00000000000E+00 -0.47113736080E+03  0.47113736080E+03  0.25500000000E-02 0.  1.
    5000001    1    1    2    0    0 -0.15500276794E+03 -0.93009553583E+02 -0.10295254195E+03  0.26551998234E+03  0.16500000000E+03 0.  0.
   -5000001    1    1    2    0    0  0.15500276794E+03  0.93009553583E+02 -0.23470398666E+03  0.33909821067E+03  0.16500000000E+03 0.  0.
<mgrwt>
<rscale>  0 0.50154883E+03</rscale>
<asrwt>0</asrwt>
<pdfrwt beam="1">  1        2 0.72482670E-01 0.50154883E+03</pdfrwt>
<pdfrwt beam="2">  1       -2 0.20535513E-01 0.50154883E+03</pdfrwt>
<totfact> 0.13433616E+03</totfact>
</mgrwt>
</event>
<event>
 4    1  0.1573232E-005  0.4706358E+03  0.7818608E-02  0.1021741E+00
         -2   -1    0    0    0  501 -0.00000000000E+00  0.00000000000E+00  0.65301356200E+02  0.65301356250E+02  0.25500000000E-02 0. -1.
          2   -1    0    0  501    0  0.00000000000E+00 -0.00000000000E+00 -0.84798399767E+03  0.84798399768E+03  0.25500000000E-02 0.  1.
    5000001    1    1    2    0    0 -0.16720469064E+03 -0.98356288451E+01 -0.41029081934E+03  0.47288233696E+03  0.16500000000E+03 0.  0.
   -5000001    1    1    2    0    0  0.16720469064E+03  0.98356288451E+01 -0.37239182213E+03  0.44040301697E+03  0.16500000000E+03 0.  0.
<mgrwt>
<rscale>  0 0.47063576E+03</rscale>
<asrwt>0</asrwt>
<pdfrwt beam="1">  1        2 0.13045907E+00 0.47063576E+03</pdfrwt>
<pdfrwt beam="2">  1       -2 0.10046363E-01 0.47063576E+03</pdfrwt>
<totfact> 0.21725719E+03</totfact>
</mgrwt>
</event>
<event>
 4    1  0.1573232E-005  0.5705260E+03  0.7818608E-02  0.9968515E-01
          2   -1    0    0  501    0  0.00000000000E+00  0.00000000000E+00  0.26819081680E+04  0.26819081680E+04  0.25500000000E-02 0.  1.
         -2   -1    0    0    0  501 -0.00000000000E+00 -0.00000000000E+00 -0.30342194086E+02  0.30342194193E+02  0.25500000000E-02 0. -1.
    5000001    1    1    2    0    0 -0.66546458261E+02 -0.21815746721E+03  0.11064375666E+04  0.11416874355E+04  0.16500000000E+03 0.  0.
   -5000001    1    1    2    0    0  0.66546458261E+02  0.21815746721E+03  0.15451284073E+04  0.15705629267E+04  0.16500000000E+03 0.  0.
<mgrwt>
<rscale>  0 0.57052600E+03</rscale>
<asrwt>0</asrwt>
<pdfrwt beam="1">  1        2 0.41260118E+00 0.57052600E+03</pdfrwt>
<pdfrwt beam="2">  1       -2 0.46680307E-02 0.57052600E+03</pdfrwt>
<totfact> 0.66352531E+02</totfact>
</mgrwt>
</event>
<event>
 4    1  0.1573232E-005  0.4218247E+03  0.7818608E-02  0.1036474E+00
          2   -1    0    0  501    0  0.00000000000E+00  0.00000000000E+00  0.70813347915E+03  0.70813347915E+03  0.25500000000E-02 0.  1.
         -2   -1    0    0    0  501 -0.00000000000E+00 -0.00000000000E+00 -0.62818681832E+02  0.62818681884E+02  0.25500000000E-02 0. -1.
    5000001    1    1    2    0    0 -0.10476908837E+03  0.19163259763E+02  0.46322359322E+03  0.50313506111E+03  0.16500000000E+03 0.  0.
   -5000001    1    1    2    0    0  0.10476908837E+03 -0.19163259763E+02  0.18209120410E+03  0.26781709993E+03  0.16500000000E+03 0.  0.
<mgrwt>
<rscale>  0 0.42182466E+03</rscale>
<asrwt>0</asrwt>
<pdfrwt beam="1">  1        2 0.10894361E+00 0.42182466E+03</pdfrwt>
<pdfrwt beam="2">  1       -2 0.96644127E-02 0.42182466E+03</pdfrwt>
<totfact> 0.29134598E+03</totfact>
</mgrwt>
</event>
<event>
 4    1  0.1573232E-005  0.4693911E+03  0.7818608E-02  0.1022092E+00
          2   -1    0    0  501    0  0.00000000000E+00  0.00000000000E+00  0.18234560248E+03  0.18234560250E+03  0.25500000000E-02 0.  1.
         -2   -1    0    0    0  501 -0.00000000000E+00 -0.00000000000E+00 -0.30207468289E+03  0.30207468290E+03  0.25500000000E-02 0. -1.
    5000001    1    1    2    0    0  0.16293768542E+03 -0.36072032305E+02 -0.57112859200E+02  0.24153003857E+03  0.16500000000E+03 0.  0.
   -5000001    1    1    2    0    0 -0.16293768542E+03  0.36072032305E+02 -0.62616221212E+02  0.24289024683E+03  0.16500000000E+03 0.  0.
<mgrwt>
<rscale>  0 0.46939105E+03</rscale>
<asrwt>0</asrwt>
<pdfrwt beam="1">  1        2 0.28053170E-01 0.46939105E+03</pdfrwt>
<pdfrwt beam="2">  1       -2 0.46473028E-01 0.46939105E+03</pdfrwt>
<totfact> 0.84572620E+02</totfact>
</mgrwt>
</event>
<event>
 4    1  0.1573232E-005  0.4685621E+03  0.7818608E-02  0.1022327E+00
          2   -1    0    0  501    0  0.00000000000E+00  0.00000000000E+00  0.40754114929E+03  0.40754114930E+03  0.25500000000E-02 0.  1.
         -2   -1    0    0    0  501 -0.00000000000E+00 -0.00000000000E+00 -0.13467992440E+03  0.13467992442E+03  0.25500000000E-02 0. -1.
    5000001    1    1    2    0    0  0.57216631879E+02 -0.15385269272E+03  0.10541808781E+03  0.25550414333E+03  0.16500000000E+03 0.  0.
   -5000001    1    1    2    0    0 -0.57216631879E+02  0.15385269272E+03  0.16744313708E+03  0.28671693040E+03  0.16500000000E+03 0.  0.
<mgrwt>
<rscale>  0 0.46856210E+03</rscale>
<asrwt>0</asrwt>
<pdfrwt beam="1">  1        2 0.62698637E-01 0.46856210E+03</pdfrwt>
<pdfrwt beam="2">  1       -2 0.20719989E-01 0.46856210E+03</pdfrwt>
<totfact> 0.15560295E+03</totfact>
</mgrwt>
</event>
<event>
 4    1  0.1573232E-005  0.7873999E+03  0.7818608E-02  0.9578437E-01
          2   -1    0    0  501    0  0.00000000000E+00  0.00000000000E+00  0.18134273456E+04  0.18134273456E+04  0.25500000000E-02 0.  1.
         -2   -1    0    0    0  501 -0.00000000000E+00 -0.00000000000E+00 -0.85473306796E+02  0.85473306834E+02  0.25500000000E-02 0. -1.
    5000001    1    1    2    0    0 -0.17795768180E+03 -0.24012082216E+03  0.39110674000E+03  0.51914971619E+03  0.16500000000E+03 0.  0.
   -5000001    1    1    2    0    0  0.17795768180E+03  0.24012082216E+03  0.13368472988E+04  0.13797509362E+04  0.16500000000E+03 0.  0.
<mgrwt>
<rscale>  0 0.78739985E+03</rscale>
<asrwt>0</asrwt>
<pdfrwt beam="1">  1        2 0.27898883E+00 0.78739985E+03</pdfrwt>
<pdfrwt beam="2">  1       -2 0.13149739E-01 0.78739985E+03</pdfrwt>
<totfact> 0.37689425E+02</totfact>
</mgrwt>
</event>
<event>
 4    1  0.1573232E-005  0.9985764E+03  0.7818608E-02  0.9310108E-01
          2   -1    0    0  501    0  0.00000000000E+00  0.00000000000E+00  0.62654852245E+03  0.62654852246E+03  0.25500000000E-02 0.  1.
         -2   -1    0    0    0  501 -0.00000000000E+00 -0.00000000000E+00 -0.39787615407E+03  0.39787615408E+03  0.25500000000E-02 0. -1.
    5000001    1    1    2    0    0  0.29502473188E+03  0.41141513332E+02  0.48893388483E+03  0.59583014381E+03  0.16500000000E+03 0.  0.
   -5000001    1    1    2    0    0 -0.29502473188E+03 -0.41141513332E+02 -0.26026151645E+03  0.42859453273E+03  0.16500000000E+03 0.  0.
<mgrwt>
<rscale>  0 0.99857642E+03</rscale>
<asrwt>0</asrwt>
<pdfrwt beam="1">  1        2 0.96392080E-01 0.99857642E+03</pdfrwt>
<pdfrwt beam="2">  1       -2 0.61211716E-01 0.99857642E+03</pdfrwt>
<totfact> 0.11667949E+02</totfact>
</mgrwt>
</event>
<event>
 4    1  0.1573232E-005  0.4013428E+03  0.7818608E-02  0.1043316E+00
         -2   -1    0    0    0  501 -0.00000000000E+00  0.00000000000E+00  0.36880329519E+02  0.36880329607E+02  0.25500000000E-02 0. -1.
          2   -1    0    0  501    0  0.00000000000E+00 -0.00000000000E+00 -0.10918833587E+04  0.10918833587E+04  0.25500000000E-02 0.  1.
    5000001    1    1    2    0    0 -0.67083641519E+02 -0.84289622988E+02 -0.42081061933E+03  0.46466281629E+03  0.16500000000E+03 0.  0.
   -5000001    1    1    2    0    0  0.67083641519E+02  0.84289622988E+02 -0.63419240983E+03  0.66410087200E+03  0.16500000000E+03 0.  0.
<mgrwt>
<rscale>  0 0.40134284E+03</rscale>
<asrwt>0</asrwt>
<pdfrwt beam="1">  1        2 0.16798203E+00 0.40134284E+03</pdfrwt>
<pdfrwt beam="2">  1       -2 0.56738977E-02 0.40134284E+03</pdfrwt>
<totfact> 0.37402440E+03</totfact>
</mgrwt>
</event>
<event>
 4    1  0.1573232E-005  0.3761415E+03  0.7818608E-02  0.1052369E+00
          2   -1    0    0  501    0  0.00000000000E+00  0.00000000000E+00  0.70905150878E+03  0.70905150879E+03  0.25500000000E-02 0.  1.
         -2   -1    0    0    0  501 -0.00000000000E+00 -0.00000000000E+00 -0.49884407830E+02  0.49884407895E+02  0.25500000000E-02 0. -1.
    5000001    1    1    2    0    0 -0.89992709937E+02 -0.29465712265E+01  0.34206136490E+03  0.39030545408E+03  0.16500000000E+03 0.  0.
   -5000001    1    1    2    0    0  0.89992709937E+02  0.29465712265E+01  0.31710573605E+03  0.36863046261E+03  0.16500000000E+03 0.  0.
<mgrwt>
<rscale>  0 0.37614154E+03</rscale>
<asrwt>0</asrwt>
<pdfrwt beam="1">  1        2 0.10908483E+00 0.37614154E+03</pdfrwt>
<pdfrwt beam="2">  1       -2 0.76745253E-02 0.37614154E+03</pdfrwt>
<totfact> 0.41879466E+03</totfact>
</mgrwt>
</event>
<event>
 4    1  0.1573232E-005  0.4275503E+03  0.7818608E-02  0.1034637E+00
         -2   -1    0    0    0  501 -0.00000000000E+00  0.00000000000E+00  0.13932085920E+03  0.13932085923E+03  0.25500000000E-02 0. -1.
          2   -1    0    0  501    0  0.00000000000E+00 -0.00000000000E+00 -0.32801851340E+03  0.32801851341E+03  0.25500000000E-02 0.  1.
    5000001    1    1    2    0    0 -0.10652852389E+03 -0.82851605110E+02 -0.76652472118E+02  0.22652442772E+03  0.16500000000E+03 0.  0.
   -5000001    1    1    2    0    0  0.10652852389E+03  0.82851605110E+02 -0.11204518208E+03  0.24081494492E+03  0.16500000000E+03 0.  0.
<mgrwt>
<rscale>  0 0.42755033E+03</rscale>
<asrwt>0</asrwt>
<pdfrwt beam="1">  1        2 0.50464387E-01 0.42755033E+03</pdfrwt>
<pdfrwt beam="2">  1       -2 0.21433978E-01 0.42755033E+03</pdfrwt>
<totfact> 0.18619010E+03</totfact>
</mgrwt>
</event>
<event>
 4    1  0.1573232E-005  0.4483001E+03  0.7818608E-02  0.1028230E+00
         -2   -1    0    0    0  501 -0.00000000000E+00  0.00000000000E+00  0.51980607459E+02  0.51980607521E+02  0.25500000000E-02 0. -1.
          2   -1    0    0  501    0  0.00000000000E+00 -0.00000000000E+00 -0.96657677246E+03  0.96657677246E+03  0.25500000000E-02 0.  1.
    5000001    1    1    2    0    0 -0.13913850717E+03  0.58894552561E+02 -0.42596732505E+03  0.48114577261E+03  0.16500000000E+03 0.  0.
   -5000001    1    1    2    0    0  0.13913850717E+03 -0.58894552561E+02 -0.48862883995E+03  0.53741160737E+03  0.16500000000E+03 0.  0.
<mgrwt>
<rscale>  0 0.44830011E+03</rscale>
<asrwt>0</asrwt>
<pdfrwt beam="1">  1        2 0.14870411E+00 0.44830011E+03</pdfrwt>
<pdfrwt beam="2">  1       -2 0.79970173E-02 0.44830011E+03</pdfrwt>
<totfact> 0.26132708E+03</totfact>
</mgrwt>
</event>
<event>
 4    1  0.1573232E-005  0.6510630E+03  0.7818608E-02  0.9804787E-01
          2   -1    0    0  501    0  0.00000000000E+00  0.00000000000E+00  0.36170463719E+03  0.36170463720E+03  0.25500000000E-02 0.  1.
         -2   -1    0    0    0  501 -0.00000000000E+00 -0.00000000000E+00 -0.29297591794E+03  0.29297591795E+03  0.25500000000E-02 0. -1.
    5000001    1    1    2    0    0 -0.21588344868E+03  0.93151828747E+02  0.18839125598E+03  0.34351010457E+03  0.16500000000E+03 0.  0.
   -5000001    1    1    2    0    0  0.21588344868E+03 -0.93151828747E+02 -0.11966253674E+03  0.31117045058E+03  0.16500000000E+03 0.  0.
<mgrwt>
<rscale>  0 0.65106297E+03</rscale>
<asrwt>0</asrwt>
<pdfrwt beam="1">  1        2 0.55646867E-01 0.65106297E+03</pdfrwt>
<pdfrwt beam="2">  1       -2 0.45073218E-01 0.65106297E+03</pdfrwt>
<totfact> 0.41941366E+02</totfact>
</mgrwt>
</event>
<event>
 4    1  0.1573232E-005  0.4018602E+03  0.7818608E-02  0.1043137E+00
          2   -1    0    0  501    0  0.00000000000E+00  0.00000000000E+00  0.87690721716E+03  0.87690721716E+03  0.25500000000E-02 0.  1.
         -2   -1    0    0    0  501 -0.00000000000E+00 -0.00000000000E+00 -0.46040106235E+02  0.46040106306E+02  0.25500000000E-02 0. -1.
    5000001    1    1    2    0    0 -0.67138413812E+02 -0.92926373488E+02  0.41028570962E+03  0.45683940397E+03  0.16500000000E+03 0.  0.
   -5000001    1    1    2    0    0  0.67138413812E+02  0.92926373488E+02  0.42058140130E+03  0.46610791950E+03  0.16500000000E+03 0.  0.
<mgrwt>
<rscale>  0 0.40186018E+03</rscale>
<asrwt>0</asrwt>
<pdfrwt beam="1">  1        2 0.13490879E+00 0.40186018E+03</pdfrwt>
<pdfrwt beam="2">  1       -2 0.70830939E-02 0.40186018E+03</pdfrwt>
<totfact> 0.36164168E+03</totfact>
</mgrwt>
</event>
<event>
 4    1  0.1573232E-005  0.5431408E+03  0.7818608E-02  0.1003094E+00
          2   -1    0    0  501    0  0.00000000000E+00  0.00000000000E+00  0.20984600856E+04  0.20984600856E+04  0.25500000000E-02 0.  1.
         -2   -1    0    0    0  501 -0.00000000000E+00 -0.00000000000E+00 -0.35145055124E+02  0.35145055216E+02  0.25500000000E-02 0. -1.
    5000001    1    1    2    0    0 -0.18144166321E+03  0.10012154522E+03  0.79661369980E+03  0.83950210701E+03  0.16500000000E+03 0.  0.
   -5000001    1    1    2    0    0  0.18144166321E+03 -0.10012154522E+03  0.12667013306E+04  0.12941030338E+04  0.16500000000E+03 0.  0.
<mgrwt>
<rscale>  0 0.54314085E+03</rscale>
<asrwt>0</asrwt>
<pdfrwt beam="1">  1        2 0.32283996E+00 0.54314085E+03</pdfrwt>
<pdfrwt beam="2">  1       -2 0.54069325E-02 0.54314085E+03</pdfrwt>
<totfact> 0.11181898E+03</totfact>
</mgrwt>
</event>
<event>
 4    1  0.1573232E-005  0.5258822E+03  0.7818608E-02  0.1007236E+00
          2   -1    0    0  501    0  0.00000000000E+00  0.00000000000E+00  0.10470774451E+04  0.10470774451E+04  0.25500000000E-02 0.  1.
         -2   -1    0    0    0  501 -0.00000000000E+00 -0.00000000000E+00 -0.66029522401E+02  0.66029522451E+02  0.25500000000E-02 0. -1.
    5000001    1    1    2    0    0 -0.64038962256E+02  0.13805926370E+03  0.78037072459E+03  0.81201281811E+03  0.16500000000E+03 0.  0.
   -5000001    1    1    2    0    0  0.64038962256E+02 -0.13805926370E+03  0.20067719807E+03  0.30109414940E+03  0.16500000000E+03 0.  0.
<mgrwt>
<rscale>  0 0.52588221E+03</rscale>
<asrwt>0</asrwt>
<pdfrwt beam="1">  1        2 0.16108884E+00 0.52588221E+03</pdfrwt>
<pdfrwt beam="2">  1       -2 0.10158388E-01 0.52588221E+03</pdfrwt>
<totfact> 0.15855598E+03</totfact>
</mgrwt>
</event>
<event>
 4    1  0.1573232E-005  0.4625165E+03  0.7818608E-02  0.1024054E+00
          2   -1    0    0  501    0  0.00000000000E+00  0.00000000000E+00  0.58410021843E+02  0.58410021899E+02  0.25500000000E-02 0.  1.
         -2   -1    0    0    0  501 -0.00000000000E+00 -0.00000000000E+00 -0.91560280785E+03  0.91560280785E+03  0.25500000000E-02 0. -1.
    5000001    1    1    2    0    0  0.18567712128E+02  0.13742492851E+03 -0.25208981884E+03  0.33166948559E+03  0.16500000000E+03 0.  0.
   -5000001    1    1    2    0    0 -0.18567712128E+02 -0.13742492851E+03 -0.60510296717E+03  0.64234334416E+03  0.16500000000E+03 0.  0.
<mgrwt>
<rscale>  0 0.46251651E+03</rscale>
<asrwt>0</asrwt>
<pdfrwt beam="1">  1        2 0.89861579E-02 0.46251651E+03</pdfrwt>
<pdfrwt beam="2">  1       -2 0.14086196E+00 0.46251651E+03</pdfrwt>
<totfact> 0.27357511E+02</totfact>
</mgrwt>
</event>
<event>
 4    1  0.1573232E-005  0.5332288E+03  0.7818608E-02  0.1005452E+00
          2   -1    0    0  501    0  0.00000000000E+00  0.00000000000E+00  0.14678284591E+04  0.14678284591E+04  0.25500000000E-02 0.  1.
         -2   -1    0    0    0  501 -0.00000000000E+00 -0.00000000000E+00 -0.48427487481E+02  0.48427487548E+02  0.25500000000E-02 0. -1.
    5000001    1    1    2    0    0 -0.17483523717E+03 -0.11392488805E+03  0.65947327569E+03  0.71110916295E+03  0.16500000000E+03 0.  0.
   -5000001    1    1    2    0    0  0.17483523717E+03  0.11392488805E+03  0.75992769591E+03  0.80514678368E+03  0.16500000000E+03 0.  0.
<mgrwt>
<rscale>  0 0.53322882E+03</rscale>
<asrwt>0</asrwt>
<pdfrwt beam="1">  1        2 0.22581977E+00 0.53322882E+03</pdfrwt>
<pdfrwt beam="2">  1       -2 0.74503824E-02 0.53322882E+03</pdfrwt>
<totfact> 0.14866141E+03</totfact>
</mgrwt>
</event>
<event>
 4    1  0.1573232E-005  0.5049930E+03  0.7818608E-02  0.1012484E+00
         -2   -1    0    0    0  501 -0.00000000000E+00  0.00000000000E+00  0.28001423349E+02  0.28001423465E+02  0.25500000000E-02 0. -1.
          2   -1    0    0  501    0  0.00000000000E+00 -0.00000000000E+00 -0.22768296094E+04  0.22768296094E+04  0.25500000000E-02 0.  1.
    5000001    1    1    2    0    0  0.16088467249E+03  0.49987173092E+02 -0.15363686330E+04  0.15543603739E+04  0.16500000000E+03 0.  0.
   -5000001    1    1    2    0    0 -0.16088467249E+03 -0.49987173092E+02 -0.71245955301E+03  0.75047065898E+03  0.16500000000E+03 0.  0.
<mgrwt>
<rscale>  0 0.50499295E+03</rscale>
<asrwt>0</asrwt>
<pdfrwt beam="1">  1        2 0.35028133E+00 0.50499295E+03</pdfrwt>
<pdfrwt beam="2">  1       -2 0.43079131E-02 0.50499295E+03</pdfrwt>
<totfact> 0.12734545E+03</totfact>
</mgrwt>
</event>
<event>
 4    1  0.1573232E-005  0.6839109E+03  0.7818608E-02  0.9745149E-01
         -2   -1    0    0    0  501 -0.00000000000E+00  0.00000000000E+00  0.28056908948E+03  0.28056908949E+03  0.25500000000E-02 0. -1.
          2   -1    0    0  501    0  0.00000000000E+00 -0.00000000000E+00 -0.41677262078E+03  0.41677262079E+03  0.25500000000E-02 0.  1.
    5000001    1    1    2    0    0  0.14316382461E+03  0.26297472876E+03 -0.75794873727E+02  0.35017345920E+03  0.16500000000E+03 0.  0.
   -5000001    1    1    2    0    0 -0.14316382461E+03 -0.26297472876E+03 -0.60408657575E+02  0.34716825108E+03  0.16500000000E+03 0.  0.
<mgrwt>
<rscale>  0 0.68391086E+03</rscale>
<asrwt>0</asrwt>
<pdfrwt beam="1">  1        2 0.64118864E-01 0.68391086E+03</pdfrwt>
<pdfrwt beam="2">  1       -2 0.43164476E-01 0.68391086E+03</pdfrwt>
<totfact> 0.38958299E+02</totfact>
</mgrwt>
</event>
<event>
 4    1  0.1573232E-005  0.5192246E+03  0.7818608E-02  0.1008879E+00
         -2   -1    0    0    0  501 -0.00000000000E+00  0.00000000000E+00  0.25651897812E+02  0.25651897939E+02  0.25500000000E-02 0. -1.
          2   -1    0    0  501    0  0.00000000000E+00 -0.00000000000E+00 -0.26274291992E+04  0.26274291992E+04  0.25500000000E-02 0.  1.
    5000001    1    1    2    0    0 -0.10855309359E+03  0.16828952491E+03 -0.13431502654E+04  0.13679849318E+04  0.16500000000E+03 0.  0.
   -5000001    1    1    2    0    0  0.10855309359E+03 -0.16828952491E+03 -0.12586270360E+04  0.12850961653E+04  0.16500000000E+03 0.  0.
<mgrwt>
<rscale>  0 0.51922460E+03</rscale>
<asrwt>0</asrwt>
<pdfrwt beam="1">  1        2 0.40421966E+00 0.51922460E+03</pdfrwt>
<pdfrwt beam="2">  1       -2 0.39464479E-02 0.51922460E+03</pdfrwt>
<totfact> 0.92753381E+02</totfact>
</mgrwt>
</event>
<event>
 4    1  0.1573232E-005  0.4324762E+03  0.7818608E-02  0.1033081E+00
          2   -1    0    0  501    0  0.00000000000E+00  0.00000000000E+00  0.16545624085E+03  0.16545624087E+03  0.25500000000E-02 0.  1.
         -2   -1    0    0    0  501 -0.00000000000E+00 -0.00000000000E+00 -0.28260600170E+03  0.28260600171E+03  0.25500000000E-02 0. -1.
    5000001    1    1    2    0    0  0.13217409579E+03 -0.13913287993E+02 -0.13768674814E+02  0.21231615008E+03  0.16500000000E+03 0.  0.
   -5000001    1    1    2    0    0 -0.13217409579E+03  0.13913287993E+02 -0.10338108603E+03  0.23574609250E+03  0.16500000000E+03 0.  0.
<mgrwt>
<rscale>  0 0.43247625E+03</rscale>
<asrwt>0</asrwt>
<pdfrwt beam="1">  1        2 0.25454806E-01 0.43247625E+03</pdfrwt>
<pdfrwt beam="2">  1       -2 0.43477847E-01 0.43247625E+03</pdfrwt>
<totfact> 0.10760813E+03</totfact>
</mgrwt>
</event>
<event>
 4    1  0.1573232E-005  0.1012350E+04  0.7818608E-02  0.9295103E-01
          2   -1    0    0  501    0  0.00000000000E+00  0.00000000000E+00  0.34547685198E+04  0.34547685198E+04  0.25500000000E-02 0.  1.
         -2   -1    0    0    0  501 -0.00000000000E+00 -0.00000000000E+00 -0.74162128603E+02  0.74162128647E+02  0.25500000000E-02 0. -1.
    5000001    1    1    2    0    0  0.14467158904E+03 -0.28752395398E+03  0.45594640903E+03  0.58198970841E+03  0.16500000000E+03 0.  0.
   -5000001    1    1    2    0    0 -0.14467158904E+03  0.28752395398E+03  0.29246599821E+04  0.29469409400E+04  0.16500000000E+03 0.  0.
<mgrwt>
<rscale>  0 0.10123497E+04</rscale>
<asrwt>0</asrwt>
<pdfrwt beam="1">  1        2 0.53150277E+00 0.10123497E+04</pdfrwt>
<pdfrwt beam="2">  1       -2 0.11409560E-01 0.10123497E+04</pdfrwt>
<totfact> 0.50169458E+01</totfact>
</mgrwt>
</event>
<event>
 4    1  0.1573232E-005  0.4021033E+03  0.7818608E-02  0.1043054E+00
         -2   -1    0    0    0  501 -0.00000000000E+00  0.00000000000E+00  0.47650341779E+02  0.47650341847E+02  0.25500000000E-02 0. -1.
          2   -1    0    0  501    0  0.00000000000E+00 -0.00000000000E+00 -0.84829965705E+03  0.84829965706E+03  0.25500000000E-02 0.  1.
    5000001    1    1    2    0    0 -0.77500459284E+02  0.84013693451E+02 -0.37471083739E+03  0.42508567787E+03  0.16500000000E+03 0.  0.
   -5000001    1    1    2    0    0  0.77500459284E+02 -0.84013693451E+02 -0.42593847789E+03  0.47086432103E+03  0.16500000000E+03 0.  0.
<mgrwt>
<rscale>  0 0.40210331E+03</rscale>
<asrwt>0</asrwt>
<pdfrwt beam="1">  1        2 0.13050763E+00 0.40210331E+03</pdfrwt>
<pdfrwt beam="2">  1       -2 0.73308224E-02 0.40210331E+03</pdfrwt>
<totfact> 0.35818436E+03</totfact>
</mgrwt>
</event>
<event>
 4    1  0.1573232E-005  0.5060227E+03  0.7818608E-02  0.1012219E+00
          2   -1    0    0  501    0  0.00000000000E+00  0.00000000000E+00  0.25464989250E+03  0.25464989251E+03  0.25500000000E-02 0.  1.
         -2   -1    0    0    0  501 -0.00000000000E+00 -0.00000000000E+00 -0.25138330728E+03  0.25138330730E+03  0.25500000000E-02 0. -1.
    5000001    1    1    2    0    0  0.72574838925E+02 -0.14508064241E+03 -0.10071253594E+03  0.25235592908E+03  0.16500000000E+03 0.  0.
   -5000001    1    1    2    0    0 -0.72574838925E+02  0.14508064241E+03  0.10397912115E+03  0.25367727073E+03  0.16500000000E+03 0.  0.
<mgrwt>
<rscale>  0 0.50602266E+03</rscale>
<asrwt>0</asrwt>
<pdfrwt beam="1">  1        2 0.39176907E-01 0.50602266E+03</pdfrwt>
<pdfrwt beam="2">  1       -2 0.38674355E-01 0.50602266E+03</pdfrwt>
<totfact> 0.83568887E+02</totfact>
</mgrwt>
</event>
<event>
 4    1  0.1573232E-005  0.6161200E+03  0.7818608E-02  0.9872515E-01
          2   -1    0    0  501    0  0.00000000000E+00  0.00000000000E+00  0.12121995645E+04  0.12121995645E+04  0.25500000000E-02 0.  1.
         -2   -1    0    0    0  501 -0.00000000000E+00 -0.00000000000E+00 -0.78288233516E+02  0.78288233558E+02  0.25500000000E-02 0. -1.
    5000001    1    1    2    0    0  0.11851856343E+03 -0.20168118034E+03  0.32856415643E+03  0.43577672411E+03  0.16500000000E+03 0.  0.
   -5000001    1    1    2    0    0 -0.11851856343E+03  0.20168118034E+03  0.80534717454E+03  0.85471107394E+03  0.16500000000E+03 0.  0.
<mgrwt>
<rscale>  0 0.61612000E+03</rscale>
<asrwt>0</asrwt>
<pdfrwt beam="1">  1        2 0.18649225E+00 0.61612000E+03</pdfrwt>
<pdfrwt beam="2">  1       -2 0.12044343E-01 0.61612000E+03</pdfrwt>
<totfact> 0.95322915E+02</totfact>
</mgrwt>
</event>
<event>
 4    1  0.1573232E-005  0.4534888E+03  0.7818608E-02  0.1026687E+00
         -2   -1    0    0    0  501 -0.00000000000E+00  0.00000000000E+00  0.18952613138E+03  0.18952613139E+03  0.25500000000E-02 0. -1.
          2   -1    0    0  501    0  0.00000000000E+00 -0.00000000000E+00 -0.27127139735E+03  0.27127139736E+03  0.25500000000E-02 0.  1.
    5000001    1    1    2    0    0  0.30113750252E+02  0.10929545703E+03 -0.14905773340E+03  0.24959075057E+03  0.16500000000E+03 0.  0.
   -5000001    1    1    2    0    0 -0.30113750252E+02 -0.10929545703E+03  0.67312467427E+02  0.21120677819E+03  0.16500000000E+03 0.  0.
<mgrwt>
<rscale>  0 0.45348878E+03</rscale>
<asrwt>0</asrwt>
<pdfrwt beam="1">  1        2 0.41734061E-01 0.45348878E+03</pdfrwt>
<pdfrwt beam="2">  1       -2 0.29157866E-01 0.45348878E+03</pdfrwt>
<totfact> 0.13236881E+03</totfact>
</mgrwt>
</event>
<event>
 4    1  0.1573232E-005  0.7115362E+03  0.7818608E-02  0.9697705E-01
         -2   -1    0    0    0  501 -0.00000000000E+00  0.00000000000E+00  0.13619798048E+03  0.13619798050E+03  0.25500000000E-02 0. -1.
          2   -1    0    0  501    0  0.00000000000E+00 -0.00000000000E+00 -0.92931584475E+03  0.92931584475E+03  0.25500000000E-02 0.  1.
    5000001    1    1    2    0    0  0.26285149313E+03  0.23901282914E+02 -0.13855782905E+03  0.34071315025E+03  0.16500000000E+03 0.  0.
   -5000001    1    1    2    0    0 -0.26285149313E+03 -0.23901282914E+02 -0.65456003522E+03  0.72480067499E+03  0.16500000000E+03 0.  0.
<mgrwt>
<rscale>  0 0.71153620E+03</rscale>
<asrwt>0</asrwt>
<pdfrwt beam="1">  1        2 0.14297166E+00 0.71153620E+03</pdfrwt>
<pdfrwt beam="2">  1       -2 0.20953536E-01 0.71153620E+03</pdfrwt>
<totfact> 0.55433016E+02</totfact>
</mgrwt>
</event>
<event>
 4    1  0.1573232E-005  0.7065592E+03  0.7818608E-02  0.9706080E-01
         -2   -1    0    0    0  501 -0.00000000000E+00  0.00000000000E+00  0.22321033739E+03  0.22321033741E+03  0.25500000000E-02 0. -1.
          2   -1    0    0  501    0  0.00000000000E+00 -0.00000000000E+00 -0.55914285992E+03  0.55914285993E+03  0.25500000000E-02 0.  1.
    5000001    1    1    2    0    0  0.85071914462E+02  0.50481602046E+02 -0.49605498234E+03  0.53205372688E+03  0.16500000000E+03 0.  0.
   -5000001    1    1    2    0    0 -0.85071914462E+02 -0.50481602046E+02  0.16012245981E+03  0.25029947046E+03  0.16500000000E+03 0.  0.
<mgrwt>
<rscale>  0 0.70655917E+03</rscale>
<asrwt>0</asrwt>
<pdfrwt beam="1">  1        2 0.86021978E-01 0.70655917E+03</pdfrwt>
<pdfrwt beam="2">  1       -2 0.34340052E-01 0.70655917E+03</pdfrwt>
<totfact> 0.43182476E+02</totfact>
</mgrwt>
</event>
<event>
 4    1  0.1573232E-005  0.4643633E+03  0.7818608E-02  0.1023523E+00
         -2   -1    0    0    0  501 -0.00000000000E+00  0.00000000000E+00  0.17887995506E+02  0.17887995688E+02  0.25500000000E-02 0. -1.
          2   -1    0    0  501    0  0.00000000000E+00 -0.00000000000E+00 -0.30136589777E+04  0.30136589777E+04  0.25500000000E-02 0.  1.
    5000001    1    1    2    0    0  0.95402175059E+02 -0.13259601753E+03 -0.14991855395E+04  0.15170581929E+04  0.16500000000E+03 0.  0.
   -5000001    1    1    2    0    0 -0.95402175059E+02  0.13259601753E+03 -0.14965854427E+04  0.15144887805E+04  0.16500000000E+03 0.  0.
<mgrwt>
<rscale>  0 0.46436330E+03</rscale>
<asrwt>0</asrwt>
<pdfrwt beam="1">  1        2 0.46363944E+00 0.46436330E+03</pdfrwt>
<pdfrwt beam="2">  1       -2 0.27520017E-02 0.46436330E+03</pdfrwt>
<totfact> 0.95751960E+02</totfact>
</mgrwt>
</event>
<event>
 4    1  0.1573232E-005  0.3646699E+03  0.7818608E-02  0.1056750E+00
         -2   -1    0    0    0  501 -0.00000000000E+00  0.00000000000E+00  0.13033084695E+02  0.13033084945E+02  0.25500000000E-02 0. -1.
          2   -1    0    0  501    0  0.00000000000E+00 -0.00000000000E+00 -0.25508948495E+04  0.25508948495E+04  0.25500000000E-02 0.  1.
    5000001    1    1    2    0    0  0.19620120064E+02 -0.40729588192E+02 -0.17123287280E+04  0.17208540093E+04  0.16500000000E+03 0.  0.
   -5000001    1    1    2    0    0 -0.19620120064E+02  0.40729588192E+02 -0.82553303680E+03  0.84307392518E+03  0.16500000000E+03 0.  0.
<mgrwt>
<rscale>  0 0.36466987E+03</rscale>
<asrwt>0</asrwt>
<pdfrwt beam="1">  1        2 0.39244497E+00 0.36466987E+03</pdfrwt>
<pdfrwt beam="2">  1       -2 0.20050920E-02 0.36466987E+03</pdfrwt>
<totfact> 0.28772658E+03</totfact>
</mgrwt>
</event>
<event>
 4    1  0.1573232E-005  0.5800756E+03  0.7818608E-02  0.9947627E-01
          2   -1    0    0  501    0  0.00000000000E+00  0.00000000000E+00  0.70946651454E+03  0.70946651455E+03  0.25500000000E-02 0. -1.
         -2   -1    0    0    0  501 -0.00000000000E+00 -0.00000000000E+00 -0.11857068215E+03  0.11857068218E+03  0.25500000000E-02 0.  1.
    5000001    1    1    2    0    0 -0.22087168842E+03 -0.17455703170E+02  0.42158216847E+03  0.50402929388E+03  0.16500000000E+03 0.  0.
   -5000001    1    1    2    0    0  0.22087168842E+03  0.17455703170E+02  0.16931366392E+03  0.32400790285E+03  0.16500000000E+03 0.  0.
<mgrwt>
<rscale>  0 0.58007561E+03</rscale>
<asrwt>0</asrwt>
<pdfrwt beam="1">  1        2 0.10914869E+00 0.58007561E+03</pdfrwt>
<pdfrwt beam="2">  1       -2 0.18241644E-01 0.58007561E+03</pdfrwt>
<totfact> 0.10136348E+03</totfact>
</mgrwt>
</event>
<event>
 4    1  0.1573232E-005  0.4560371E+03  0.7818608E-02  0.1025937E+00
         -2   -1    0    0    0  501 -0.00000000000E+00  0.00000000000E+00  0.13643250736E+03  0.13643250739E+03  0.25500000000E-02 0. -1.
          2   -1    0    0  501    0  0.00000000000E+00 -0.00000000000E+00 -0.38108564830E+03  0.38108564831E+03  0.25500000000E-02 0.  1.
    5000001    1    1    2    0    0 -0.32668592431E+02  0.11995673864E+03 -0.23182667634E+03  0.31052449813E+03  0.16500000000E+03 0.  0.
   -5000001    1    1    2    0    0  0.32668592431E+02 -0.11995673864E+03 -0.12826464595E+02  0.20699365756E+03  0.16500000000E+03 0.  0.
<mgrwt>
<rscale>  0 0.45603715E+03</rscale>
<asrwt>0</asrwt>
<pdfrwt beam="1">  1        2 0.58628561E-01 0.45603715E+03</pdfrwt>
<pdfrwt beam="2">  1       -2 0.20989617E-01 0.45603715E+03</pdfrwt>
<totfact> 0.16385225E+03</totfact>
</mgrwt>
</event>
<event>
 4    1  0.1573232E-005  0.4130971E+03  0.7818608E-02  0.1039337E+00
         -2   -1    0    0    0  501 -0.00000000000E+00  0.00000000000E+00  0.25058543326E+02  0.25058543456E+02  0.25500000000E-02 0.  1.
          2   -1    0    0  501    0  0.00000000000E+00 -0.00000000000E+00 -0.17025053215E+04  0.17025053215E+04  0.25500000000E-02 0. -1.
    5000001    1    1    2    0    0 -0.56413561287E+02  0.10979824499E+03 -0.77970573951E+03  0.80647640060E+03  0.16500000000E+03 0.  0.
   -5000001    1    1    2    0    0  0.56413561287E+02 -0.10979824499E+03 -0.89774103869E+03  0.92108746439E+03  0.16500000000E+03 0.  0.
<mgrwt>
<rscale>  0 0.41309710E+03</rscale>
<asrwt>0</asrwt>
<pdfrwt beam="1">  1        2 0.26192380E+00 0.41309710E+03</pdfrwt>
<pdfrwt beam="2">  1       -2 0.38551619E-02 0.41309710E+03</pdfrwt>
<totfact> 0.30882356E+03</totfact>
</mgrwt>
</event>
<event>
 4    1  0.1573232E-005  0.4970856E+03  0.7818608E-02  0.1014542E+00
          2   -1    0    0  501    0  0.00000000000E+00  0.00000000000E+00  0.12829133319E+04  0.12829133319E+04  0.25500000000E-02 0.  1.
         -2   -1    0    0    0  501 -0.00000000000E+00 -0.00000000000E+00 -0.48150971782E+02  0.48150971850E+02  0.25500000000E-02 0. -1.
    5000001    1    1    2    0    0  0.11995569141E+03 -0.14009159518E+03  0.55553179738E+03  0.60815754607E+03  0.16500000000E+03 0.  0.
   -5000001    1    1    2    0    0 -0.11995569141E+03  0.14009159518E+03  0.67923056270E+03  0.72290675764E+03  0.16500000000E+03 0.  0.
<mgrwt>
<rscale>  0 0.49708560E+03</rscale>
<asrwt>0</asrwt>
<pdfrwt beam="1">  1        2 0.19737128E+00 0.49708560E+03</pdfrwt>
<pdfrwt beam="2">  1       -2 0.74078420E-02 0.49708560E+03</pdfrwt>
<totfact> 0.19065376E+03</totfact>
</mgrwt>
</event>
<event>
 4    1  0.1573232E-005  0.8608965E+03  0.7818608E-02  0.9475828E-01
          2   -1    0    0  501    0  0.00000000000E+00  0.00000000000E+00  0.21758555060E+04  0.21758555060E+04  0.25500000000E-02 0.  1.
         -2   -1    0    0    0  501 -0.00000000000E+00 -0.00000000000E+00 -0.85155325886E+02  0.85155325925E+02  0.25500000000E-02 0. -1.
    5000001    1    1    2    0    0  0.24617841173E+03 -0.45621303604E+02  0.18564424103E+04  0.18805022033E+04  0.16500000000E+03 0.  0.
   -5000001    1    1    2    0    0 -0.24617841173E+03  0.45621303604E+02  0.23425776974E+03  0.38050862859E+03  0.16500000000E+03 0.  0.
<mgrwt>
<rscale>  0 0.86089647E+03</rscale>
<asrwt>0</asrwt>
<pdfrwt beam="1">  1        2 0.33474700E+00 0.86089647E+03</pdfrwt>
<pdfrwt beam="2">  1       -2 0.13100819E-01 0.86089647E+03</pdfrwt>
<totfact> 0.23875934E+02</totfact>
</mgrwt>
</event>
<event>
 4    1  0.1573232E-005  0.4163661E+03  0.7818608E-02  0.1038256E+00
          2   -1    0    0  501    0  0.00000000000E+00  0.00000000000E+00  0.19591057826E+03  0.19591057828E+03  0.25500000000E-02 0.  1.
         -2   -1    0    0    0  501 -0.00000000000E+00 -0.00000000000E+00 -0.22122429920E+03  0.22122429921E+03  0.25500000000E-02 0. -1.
    5000001    1    1    2    0    0 -0.12304289915E+03 -0.31156865676E+02 -0.14868895250E+02  0.20870167550E+03  0.16500000000E+03 0.  0.
   -5000001    1    1    2    0    0  0.12304289915E+03  0.31156865676E+02 -0.10444825684E+02  0.20843320199E+03  0.16500000000E+03 0.  0.
<mgrwt>
<rscale>  0 0.41636609E+03</rscale>
<asrwt>0</asrwt>
<pdfrwt beam="1">  1        2 0.30140089E-01 0.41636609E+03</pdfrwt>
<pdfrwt beam="2">  1       -2 0.34034508E-01 0.41636609E+03</pdfrwt>
<totfact> 0.14227445E+03</totfact>
</mgrwt>
</event>
<event>
 4    1  0.1573232E-005  0.5788166E+03  0.7818608E-02  0.9950356E-01
         -2   -1    0    0    0  501 -0.00000000000E+00  0.00000000000E+00  0.45672322320E+02  0.45672322391E+02  0.25500000000E-02 0. -1.
          2   -1    0    0  501    0  0.00000000000E+00 -0.00000000000E+00 -0.18338713548E+04  0.18338713548E+04  0.25500000000E-02 0.  1.
    5000001    1    1    2    0    0 -0.96428526590E+02 -0.20967423246E+03 -0.10798000518E+04  0.11164474445E+04  0.16500000000E+03 0.  0.
   -5000001    1    1    2    0    0  0.96428526590E+02  0.20967423246E+03 -0.70839898073E+03  0.76309623272E+03  0.16500000000E+03 0.  0.
<mgrwt>
<rscale>  0 0.57881660E+03</rscale>
<asrwt>0</asrwt>
<pdfrwt beam="1">  1        2 0.28213400E+00 0.57881660E+03</pdfrwt>
<pdfrwt beam="2">  1       -2 0.70265126E-02 0.57881660E+03</pdfrwt>
<totfact> 0.10286259E+03</totfact>
</mgrwt>
</event>
<event>
 4    1  0.1573232E-005  0.3710468E+03  0.7818608E-02  0.1054293E+00
          2   -1    0    0  501    0  0.00000000000E+00  0.00000000000E+00  0.10782134134E+03  0.10782134137E+03  0.25500000000E-02 0.  1.
         -2   -1    0    0    0  501 -0.00000000000E+00 -0.00000000000E+00 -0.31922196344E+03  0.31922196345E+03  0.25500000000E-02 0. -1.
    5000001    1    1    2    0    0 -0.34151480274E+02  0.66445838511E+02 -0.15191734700E+03  0.23640062051E+03  0.16500000000E+03 0.  0.
   -5000001    1    1    2    0    0  0.34151480274E+02 -0.66445838511E+02 -0.59483275102E+02  0.19064268430E+03  0.16500000000E+03 0.  0.
<mgrwt>
<rscale>  0 0.37104684E+03</rscale>
<asrwt>0</asrwt>
<pdfrwt beam="1">  1        2 0.16587899E-01 0.37104684E+03</pdfrwt>
<pdfrwt beam="2">  1       -2 0.49111071E-01 0.37104684E+03</pdfrwt>
<totfact> 0.13851061E+03</totfact>
</mgrwt>
</event>
<event>
 4    1  0.1573232E-005  0.4958131E+03  0.7818608E-02  0.1014878E+00
         -2   -1    0    0    0  501 -0.00000000000E+00  0.00000000000E+00  0.35520534475E+02  0.35520534567E+02  0.25500000000E-02 0. -1.
          2   -1    0    0  501    0  0.00000000000E+00 -0.00000000000E+00 -0.17302008691E+04  0.17302008691E+04  0.25500000000E-02 0.  1.
    5000001    1    1    2    0    0  0.81873441308E+02  0.17711704050E+02 -0.14348483098E+04  0.14467313631E+04  0.16500000000E+03 0.  0.
   -5000001    1    1    2    0    0 -0.81873441308E+02 -0.17711704050E+02 -0.25983202480E+03  0.31899004054E+03  0.16500000000E+03 0.  0.
<mgrwt>
<rscale>  0 0.49581311E+03</rscale>
<asrwt>0</asrwt>
<pdfrwt beam="1">  1        2 0.26618468E+00 0.49581311E+03</pdfrwt>
<pdfrwt beam="2">  1       -2 0.54646990E-02 0.49581311E+03</pdfrwt>
<totfact> 0.17415299E+03</totfact>
</mgrwt>
</event>
<event>
 4    1  0.1573232E-005  0.5454465E+03  0.7818608E-02  0.1002553E+00
          2   -1    0    0  501    0  0.00000000000E+00  0.00000000000E+00  0.99661414743E+03  0.99661414744E+03  0.25500000000E-02 0.  1.
         -2   -1    0    0    0  501 -0.00000000000E+00 -0.00000000000E+00 -0.74630650946E+02  0.74630650990E+02  0.25500000000E-02 0. -1.
    5000001    1    1    2    0    0  0.64100590575E+02 -0.16946324574E+03  0.69606509381E+03  0.73794193009E+03  0.16500000000E+03 0.  0.
   -5000001    1    1    2    0    0 -0.64100590575E+02  0.16946324574E+03  0.22591840268E+03  0.33330286833E+03  0.16500000000E+03 0.  0.
<mgrwt>
<rscale>  0 0.54544647E+03</rscale>
<asrwt>0</asrwt>
<pdfrwt beam="1">  1        2 0.15332524E+00 0.54544647E+03</pdfrwt>
<pdfrwt beam="2">  1       -2 0.11481640E-01 0.54544647E+03</pdfrwt>
<totfact> 0.13961906E+03</totfact>
</mgrwt>
</event>
<event>
 4    1  0.1573232E-005  0.3984123E+03  0.7818608E-02  0.1044331E+00
          2   -1    0    0  501    0  0.00000000000E+00  0.00000000000E+00  0.33090199270E+03  0.33090199271E+03  0.25500000000E-02 0.  1.
         -2   -1    0    0    0  501 -0.00000000000E+00 -0.00000000000E+00 -0.11992397977E+03  0.11992397980E+03  0.25500000000E-02 0. -1.
    5000001    1    1    2    0    0 -0.84760286371E+02  0.84169272751E+01  0.18710971206E+03  0.26360992993E+03  0.16500000000E+03 0.  0.
   -5000001    1    1    2    0    0  0.84760286371E+02 -0.84169272751E+01  0.23868300867E+02  0.18721604257E+03  0.16500000000E+03 0.  0.
<mgrwt>
<rscale>  0 0.39841227E+03</rscale>
<asrwt>0</asrwt>
<pdfrwt beam="1">  1        2 0.50907998E-01 0.39841227E+03</pdfrwt>
<pdfrwt beam="2">  1       -2 0.18449843E-01 0.39841227E+03</pdfrwt>
<totfact> 0.23871184E+03</totfact>
</mgrwt>
</event>
<event>
 4    1  0.1573232E-005  0.7317394E+03  0.7818608E-02  0.9664442E-01
          2   -1    0    0  501    0  0.00000000000E+00  0.00000000000E+00  0.15424833305E+04  0.15424833305E+04  0.25500000000E-02 0.  1.
         -2   -1    0    0    0  501 -0.00000000000E+00 -0.00000000000E+00 -0.86782557182E+02  0.86782557219E+02  0.25500000000E-02 0. -1.
    5000001    1    1    2    0    0 -0.23624214252E+03  0.22428805962E+03  0.67706885813E+03  0.76926115347E+03  0.16500000000E+03 0.  0.
   -5000001    1    1    2    0    0  0.23624214252E+03 -0.22428805962E+03  0.77863191523E+03  0.86000473429E+03  0.16500000000E+03 0.  0.
<mgrwt>
<rscale>  0 0.73173943E+03</rscale>
<asrwt>0</asrwt>
<pdfrwt beam="1">  1        2 0.23730513E+00 0.73173943E+03</pdfrwt>
<pdfrwt beam="2">  1       -2 0.13351163E-01 0.73173943E+03</pdfrwt>
<totfact> 0.51923492E+02</totfact>
</mgrwt>
</event>
<event>
 4    1  0.1573232E-005  0.4028344E+03  0.7818608E-02  0.1042803E+00
          2   -1    0    0  501    0  0.00000000000E+00  0.00000000000E+00  0.35889655345E+04  0.35889655345E+04  0.25500000000E-02 0.  1.
         -2   -1    0    0    0  501 -0.00000000000E+00 -0.00000000000E+00 -0.11303783616E+02  0.11303783904E+02  0.25500000000E-02 0. -1.
    5000001    1    1    2    0    0 -0.52225310487E+02 -0.83261522390E+02  0.23312860893E+04  0.23391835743E+04  0.16500000000E+03 0.  0.
   -5000001    1    1    2    0    0  0.52225310487E+02  0.83261522390E+02  0.12463756616E+04  0.12610857441E+04  0.16500000000E+03 0.  0.
<mgrwt>
<rscale>  0 0.40283441E+03</rscale>
<asrwt>0</asrwt>
<pdfrwt beam="1">  1        2 0.55214831E+00 0.40283441E+03</pdfrwt>
<pdfrwt beam="2">  1       -2 0.17390444E-02 0.40283441E+03</pdfrwt>
<totfact> 0.81890696E+02</totfact>
</mgrwt>
</event>
<event>
 4    1  0.1573232E-005  0.3786325E+03  0.7818608E-02  0.1051440E+00
          2   -1    0    0  501    0  0.00000000000E+00  0.00000000000E+00  0.15425584026E+04  0.15425584026E+04  0.25500000000E-02 0.  1.
         -2   -1    0    0    0  501 -0.00000000000E+00 -0.00000000000E+00 -0.23234550726E+02  0.23234550866E+02  0.25500000000E-02 0. -1.
    5000001    1    1    2    0    0  0.84464817460E+02 -0.16986802605E+02  0.90248528506E+03  0.92148116997E+03  0.16500000000E+03 0.  0.
   -5000001    1    1    2    0    0 -0.84464817460E+02  0.16986802605E+02  0.61683856680E+03  0.64431178349E+03  0.16500000000E+03 0.  0.
<mgrwt>
<rscale>  0 0.37863255E+03</rscale>
<asrwt>0</asrwt>
<pdfrwt beam="1">  1        2 0.23731667E+00 0.37863255E+03</pdfrwt>
<pdfrwt beam="2">  1       -2 0.35745463E-02 0.37863255E+03</pdfrwt>
<totfact> 0.42229745E+03</totfact>
</mgrwt>
</event>
<event>
 4    1  0.1573232E-005  0.7633459E+03  0.7818608E-02  0.9614642E-01
          2   -1    0    0  501    0  0.00000000000E+00  0.00000000000E+00  0.98036230654E+03  0.98036230655E+03  0.25500000000E-02 0.  1.
         -2   -1    0    0    0  501 -0.00000000000E+00 -0.00000000000E+00 -0.14859223358E+03  0.14859223360E+03  0.25500000000E-02 0. -1.
    5000001    1    1    2    0    0  0.88201181785E+02 -0.32458870018E+03  0.30809411707E+03  0.48506108659E+03  0.16500000000E+03 0.  0.
   -5000001    1    1    2    0    0 -0.88201181785E+02  0.32458870018E+03  0.52367595590E+03  0.64389345356E+03  0.16500000000E+03 0.  0.
<mgrwt>
<rscale>  0 0.76334586E+03</rscale>
<asrwt>0</asrwt>
<pdfrwt beam="1">  1        2 0.15082497E+00 0.76334586E+03</pdfrwt>
<pdfrwt beam="2">  1       -2 0.22860343E-01 0.76334586E+03</pdfrwt>
<totfact> 0.43916278E+02</totfact>
</mgrwt>
</event>
<event>
 4    1  0.1573232E-005  0.6882385E+03  0.7818608E-02  0.9737560E-01
         -2   -1    0    0    0  501 -0.00000000000E+00  0.00000000000E+00  0.65332470608E+03  0.65332470609E+03  0.25500000000E-02 0. -1.
          2   -1    0    0  501    0  0.00000000000E+00 -0.00000000000E+00 -0.18125450105E+03  0.18125450107E+03  0.25500000000E-02 0.  1.
    5000001    1    1    2    0    0  0.11047335624E+03 -0.28030624407E+03  0.26080041962E+03  0.43129782260E+03  0.16500000000E+03 0.  0.
   -5000001    1    1    2    0    0 -0.11047335624E+03  0.28030624407E+03  0.21126978541E+03  0.40328138456E+03  0.16500000000E+03 0.  0.
<mgrwt>
<rscale>  0 0.68823846E+03</rscale>
<asrwt>0</asrwt>
<pdfrwt beam="1">  1        2 0.27885309E-01 0.68823846E+03</pdfrwt>
<pdfrwt beam="2">  1       -2 0.10051149E+00 0.68823846E+03</pdfrwt>
<totfact> 0.15948555E+02</totfact>
</mgrwt>
</event>
<event>
 4    1  0.1573232E-005  0.7366439E+03  0.7818608E-02  0.9656540E-01
         -2   -1    0    0    0  501 -0.00000000000E+00  0.00000000000E+00  0.30849219307E+03  0.30849219308E+03  0.25500000000E-02 0.  1.
          2   -1    0    0  501    0  0.00000000000E+00 -0.00000000000E+00 -0.43975522002E+03  0.43975522003E+03  0.25500000000E-02 0. -1.
    5000001    1    1    2    0    0 -0.72882928571E+02 -0.25641872335E+03  0.13073612884E+03  0.33967546033E+03  0.16500000000E+03 0.  0.
   -5000001    1    1    2    0    0  0.72882928571E+02  0.25641872335E+03 -0.26199915579E+03  0.40857195278E+03  0.16500000000E+03 0.  0.
<mgrwt>
<rscale>  0 0.73664388E+03</rscale>
<asrwt>0</asrwt>
<pdfrwt beam="1">  1        2 0.67654650E-01 0.73664388E+03</pdfrwt>
<pdfrwt beam="2">  1       -2 0.47460337E-01 0.73664388E+03</pdfrwt>
<totfact> 0.30295493E+02</totfact>
</mgrwt>
</event>
<event>
 4    1  0.1573232E-005  0.4970339E+03  0.7818608E-02  0.1014556E+00
          2   -1    0    0  501    0  0.00000000000E+00  0.00000000000E+00  0.14620101720E+04  0.14620101720E+04  0.25500000000E-02 0.  1.
         -2   -1    0    0    0  501 -0.00000000000E+00 -0.00000000000E+00 -0.42243672203E+02  0.42243672280E+02  0.25500000000E-02 0. -1.
    5000001    1    1    2    0    0 -0.41590376272E+02 -0.15184998304E+03  0.10086840572E+04  0.10341453979E+04  0.16500000000E+03 0.  0.
   -5000001    1    1    2    0    0  0.41590376272E+02  0.15184998304E+03  0.41108244259E+03  0.47010844637E+03  0.16500000000E+03 0.  0.
<mgrwt>
<rscale>  0 0.49703392E+03</rscale>
<asrwt>0</asrwt>
<pdfrwt beam="1">  1        2 0.22492460E+00 0.49703392E+03</pdfrwt>
<pdfrwt beam="2">  1       -2 0.64990278E-02 0.49703392E+03</pdfrwt>
<totfact> 0.18594227E+03</totfact>
</mgrwt>
</event>
<event>
 4    1  0.1573232E-005  0.5068056E+03  0.7818608E-02  0.1012018E+00
          2   -1    0    0  501    0  0.00000000000E+00  0.00000000000E+00  0.12827597281E+04  0.12827597281E+04  0.25500000000E-02 0.  1.
         -2   -1    0    0    0  501 -0.00000000000E+00 -0.00000000000E+00 -0.50058463658E+02  0.50058463723E+02  0.25500000000E-02 0. -1.
    5000001    1    1    2    0    0  0.18051613987E+03 -0.66255457351E+02  0.60719557534E+03  0.65794173685E+03  0.16500000000E+03 0.  0.
   -5000001    1    1    2    0    0 -0.18051613987E+03  0.66255457351E+02  0.62550568914E+03  0.67487645501E+03  0.16500000000E+03 0.  0.
<mgrwt>
<rscale>  0 0.50680561E+03</rscale>
<asrwt>0</asrwt>
<pdfrwt beam="1">  1        2 0.19734766E+00 0.50680561E+03</pdfrwt>
<pdfrwt beam="2">  1       -2 0.77013018E-02 0.50680561E+03</pdfrwt>
<totfact> 0.17928358E+03</totfact>
</mgrwt>
</event>
<event>
 4    1  0.1573232E-005  0.5751155E+03  0.7818608E-02  0.9958422E-01
          2   -1    0    0  501    0  0.00000000000E+00  0.00000000000E+00  0.32899517579E+04  0.32899517579E+04  0.25500000000E-02 0.  1.
         -2   -1    0    0    0  501 -0.00000000000E+00 -0.00000000000E+00 -0.25133941632E+02  0.25133941761E+02  0.25500000000E-02 0. -1.
    5000001    1    1    2    0    0  0.91192626704E+01 -0.21644703015E+03  0.10999764076E+04  0.11331838223E+04  0.16500000000E+03 0.  0.
   -5000001    1    1    2    0    0 -0.91192626704E+01  0.21644703015E+03  0.21648414087E+04  0.21819018774E+04  0.16500000000E+03 0.  0.
<mgrwt>
<rscale>  0 0.57511549E+03</rscale>
<asrwt>0</asrwt>
<pdfrwt beam="1">  1        2 0.50614638E+00 0.57511549E+03</pdfrwt>
<pdfrwt beam="2">  1       -2 0.38667606E-02 0.57511549E+03</pdfrwt>
<totfact> 0.37878027E+02</totfact>
</mgrwt>
</event>
<event>
 4    1  0.1573232E-005  0.3557279E+03  0.7818608E-02  0.1060288E+00
          2   -1    0    0  501    0  0.00000000000E+00  0.00000000000E+00  0.50613407922E+03  0.50613407923E+03  0.25500000000E-02 0.  1.
         -2   -1    0    0    0  501 -0.00000000000E+00 -0.00000000000E+00 -0.62504351184E+02  0.62504351236E+02  0.25500000000E-02 0. -1.
    5000001    1    1    2    0    0 -0.64016607593E+02  0.17167132605E+02  0.21508098029E+03  0.27906569938E+03  0.16500000000E+03 0.  0.
   -5000001    1    1    2    0    0  0.64016607593E+02 -0.17167132605E+02  0.22854874775E+03  0.28957273108E+03  0.16500000000E+03 0.  0.
<mgrwt>
<rscale>  0 0.35572789E+03</rscale>
<asrwt>0</asrwt>
<pdfrwt beam="1">  1        2 0.77866782E-01 0.35572789E+03</pdfrwt>
<pdfrwt beam="2">  1       -2 0.96160540E-02 0.35572789E+03</pdfrwt>
<totfact> 0.43551542E+03</totfact>
</mgrwt>
</event>
<event>
 4    1  0.1573232E-005  0.4391792E+03  0.7818608E-02  0.1030999E+00
         -2   -1    0    0    0  501 -0.00000000000E+00  0.00000000000E+00  0.11934856838E+03  0.11934856841E+03  0.25500000000E-02 0. -1.
          2   -1    0    0  501    0  0.00000000000E+00 -0.00000000000E+00 -0.40402315851E+03  0.40402315851E+03  0.25500000000E-02 0.  1.
    5000001    1    1    2    0    0  0.13556775186E+03 -0.49826402054E+02 -0.12857840465E+03  0.25420206889E+03  0.16500000000E+03 0.  0.
   -5000001    1    1    2    0    0 -0.13556775186E+03  0.49826402054E+02 -0.15609618548E+03  0.26916965803E+03  0.16500000000E+03 0.  0.
<mgrwt>
<rscale>  0 0.43917917E+03</rscale>
<asrwt>0</asrwt>
<pdfrwt beam="1">  1        2 0.62157408E-01 0.43917917E+03</pdfrwt>
<pdfrwt beam="2">  1       -2 0.18361318E-01 0.43917917E+03</pdfrwt>
<totfact> 0.19347070E+03</totfact>
</mgrwt>
</event>
<event>
 4    1  0.1573232E-005  0.4108173E+03  0.7818608E-02  0.1040097E+00
          2   -1    0    0  501    0  0.00000000000E+00  0.00000000000E+00  0.33157361082E+03  0.33157361083E+03  0.25500000000E-02 0.  1.
         -2   -1    0    0    0  501 -0.00000000000E+00 -0.00000000000E+00 -0.12724992732E+03  0.12724992734E+03  0.25500000000E-02 0. -1.
    5000001    1    1    2    0    0 -0.13931980443E+02  0.99378338929E+02  0.18032227958E+03  0.26421824093E+03  0.16500000000E+03 0.  0.
   -5000001    1    1    2    0    0  0.13931980443E+02 -0.99378338929E+02  0.24001403928E+02  0.19460529725E+03  0.16500000000E+03 0.  0.
<mgrwt>
<rscale>  0 0.41081732E+03</rscale>
<asrwt>0</asrwt>
<pdfrwt beam="1">  1        2 0.51011325E-01 0.41081732E+03</pdfrwt>
<pdfrwt beam="2">  1       -2 0.19576912E-01 0.41081732E+03</pdfrwt>
<totfact> 0.21523395E+03</totfact>
</mgrwt>
</event>
<event>
 4    1  0.1573232E-005  0.6663867E+03  0.7818608E-02  0.9776507E-01
          2   -1    0    0  501    0  0.00000000000E+00  0.00000000000E+00  0.82437207446E+03  0.82437207447E+03  0.25500000000E-02 0.  1.
         -2   -1    0    0    0  501 -0.00000000000E+00 -0.00000000000E+00 -0.13466955023E+03  0.13466955026E+03  0.25500000000E-02 0. -1.
    5000001    1    1    2    0    0  0.25907029188E+03 -0.83248477718E+02  0.20278070699E+03  0.37734962608E+03  0.16500000000E+03 0.  0.
   -5000001    1    1    2    0    0 -0.25907029188E+03  0.83248477718E+02  0.48692181724E+03  0.58169199864E+03  0.16500000000E+03 0.  0.
<mgrwt>
<rscale>  0 0.66638672E+03</rscale>
<asrwt>0</asrwt>
<pdfrwt beam="1">  1        2 0.12682647E+00 0.66638672E+03</pdfrwt>
<pdfrwt beam="2">  1       -2 0.20718392E-01 0.66638672E+03</pdfrwt>
<totfact> 0.66756368E+02</totfact>
</mgrwt>
</event>
<event>
 4    1  0.1573232E-005  0.3731950E+03  0.7818608E-02  0.1053478E+00
         -2   -1    0    0    0  501 -0.00000000000E+00  0.00000000000E+00  0.70811778482E+02  0.70811778528E+02  0.25500000000E-02 0. -1.
          2   -1    0    0  501    0  0.00000000000E+00 -0.00000000000E+00 -0.49170666932E+03  0.49170666932E+03  0.25500000000E-02 0.  1.
    5000001    1    1    2    0    0 -0.72391224206E+02  0.43828605547E+02 -0.24178298679E+03  0.30470551145E+03  0.16500000000E+03 0.  0.
   -5000001    1    1    2    0    0  0.72391224206E+02 -0.43828605547E+02 -0.17911190404E+03  0.25781293640E+03  0.16500000000E+03 0.  0.
<mgrwt>
<rscale>  0 0.37319498E+03</rscale>
<asrwt>0</asrwt>
<pdfrwt beam="1">  1        2 0.75647178E-01 0.37319498E+03</pdfrwt>
<pdfrwt beam="2">  1       -2 0.10894120E-01 0.37319498E+03</pdfrwt>
<totfact> 0.36867427E+03</totfact>
</mgrwt>
</event>
<event>
 4    1  0.1573232E-005  0.9090910E+03  0.7818608E-02  0.9414288E-01
         -2   -1    0    0    0  501 -0.00000000000E+00  0.00000000000E+00  0.95043822353E+02  0.95043822388E+02  0.25500000000E-02 0. -1.
          2   -1    0    0  501    0  0.00000000000E+00 -0.00000000000E+00 -0.21738563961E+04  0.21738563961E+04  0.25500000000E-02 0.  1.
    5000001    1    1    2    0    0 -0.38570343648E+03  0.15806154905E+03 -0.12267739155E+04  0.13061201453E+04  0.16500000000E+03 0.  0.
   -5000001    1    1    2    0    0  0.38570343648E+03 -0.15806154905E+03 -0.85203865830E+03  0.96278007325E+03  0.16500000000E+03 0.  0.
<mgrwt>
<rscale>  0 0.90909102E+03</rscale>
<asrwt>0</asrwt>
<pdfrwt beam="1">  1        2 0.33443941E+00 0.90909102E+03</pdfrwt>
<pdfrwt beam="2">  1       -2 0.14622128E-01 0.90909102E+03</pdfrwt>
<totfact> 0.19823208E+02</totfact>
</mgrwt>
</event>
<event>
 4    1  0.1573232E-005  0.5476075E+03  0.7818608E-02  0.1002049E+00
         -2   -1    0    0    0  501 -0.00000000000E+00  0.00000000000E+00  0.95610434756E+02  0.95610434790E+02  0.25500000000E-02 0. -1.
          2   -1    0    0  501    0  0.00000000000E+00 -0.00000000000E+00 -0.78410375392E+03  0.78410375392E+03  0.25500000000E-02 0.  1.
    5000001    1    1    2    0    0  0.16839621431E+03 -0.10200626600E+03 -0.19200516966E+03  0.32070788652E+03  0.16500000000E+03 0.  0.
   -5000001    1    1    2    0    0 -0.16839621431E+03  0.10200626600E+03 -0.49648814950E+03  0.55900630219E+03  0.16500000000E+03 0.  0.
<mgrwt>
<rscale>  0 0.54760753E+03</rscale>
<asrwt>0</asrwt>
<pdfrwt beam="1">  1        2 0.12063134E+00 0.54760753E+03</pdfrwt>
<pdfrwt beam="2">  1       -2 0.14709298E-01 0.54760753E+03</pdfrwt>
<totfact> 0.12863446E+03</totfact>
</mgrwt>
</event>
<event>
 4    1  0.1573232E-005  0.4446954E+03  0.7818608E-02  0.1029316E+00
          2   -1    0    0  501    0  0.00000000000E+00  0.00000000000E+00  0.12169448285E+04  0.12169448285E+04  0.25500000000E-02 0.  1.
         -2   -1    0    0    0  501 -0.00000000000E+00 -0.00000000000E+00 -0.40625092772E+02  0.40625092852E+02  0.25500000000E-02 0. -1.
    5000001    1    1    2    0    0 -0.14518693368E+03  0.32461945889E+02  0.61352835220E+03  0.65251441562E+03  0.16500000000E+03 0.  0.
   -5000001    1    1    2    0    0  0.14518693368E+03 -0.32461945889E+02  0.56279138353E+03  0.60505550574E+03  0.16500000000E+03 0.  0.
<mgrwt>
<rscale>  0 0.44469539E+03</rscale>
<asrwt>0</asrwt>
<pdfrwt beam="1">  1        2 0.18722228E+00 0.44469539E+03</pdfrwt>
<pdfrwt beam="2">  1       -2 0.62500144E-02 0.44469539E+03</pdfrwt>
<totfact> 0.27180543E+03</totfact>
</mgrwt>
</event>
<event>
 4    1  0.1573232E-005  0.5223501E+03  0.7818608E-02  0.1008104E+00
         -2   -1    0    0    0  501 -0.00000000000E+00  0.00000000000E+00  0.18483504765E+03  0.18483504767E+03  0.25500000000E-02 0. -1.
          2   -1    0    0  501    0  0.00000000000E+00 -0.00000000000E+00 -0.36904482019E+03  0.36904482020E+03  0.25500000000E-02 0.  1.
    5000001    1    1    2    0    0 -0.38525485172E+02 -0.19312863519E+03 -0.42318307296E+02  0.26038187700E+03  0.16500000000E+03 0.  0.
   -5000001    1    1    2    0    0  0.38525485172E+02  0.19312863519E+03 -0.14189146524E+03  0.29349799087E+03  0.16500000000E+03 0.  0.
<mgrwt>
<rscale>  0 0.52235014E+03</rscale>
<asrwt>0</asrwt>
<pdfrwt beam="1">  1        2 0.56776126E-01 0.52235014E+03</pdfrwt>
<pdfrwt beam="2">  1       -2 0.28436161E-01 0.52235014E+03</pdfrwt>
<totfact> 0.98811863E+02</totfact>
</mgrwt>
</event>
<event>
 4    1  0.1573232E-005  0.5837061E+03  0.7818608E-02  0.9939799E-01
          2   -1    0    0  501    0  0.00000000000E+00  0.00000000000E+00  0.22153174991E+03  0.22153174992E+03  0.25500000000E-02 0.  1.
         -2   -1    0    0    0  501 -0.00000000000E+00 -0.00000000000E+00 -0.38449660985E+03  0.38449660986E+03  0.25500000000E-02 0. -1.
    5000001    1    1    2    0    0 -0.12372009671E+03 -0.15142877927E+03 -0.22726535876E+03  0.34221613173E+03  0.16500000000E+03 0.  0.
   -5000001    1    1    2    0    0  0.12372009671E+03  0.15142877927E+03  0.64300498814E+02  0.26381222805E+03  0.16500000000E+03 0.  0.
<mgrwt>
<rscale>  0 0.58370611E+03</rscale>
<asrwt>0</asrwt>
<pdfrwt beam="1">  1        2 0.34081808E-01 0.58370611E+03</pdfrwt>
<pdfrwt beam="2">  1       -2 0.59153324E-01 0.58370611E+03</pdfrwt>
<totfact> 0.41520700E+02</totfact>
</mgrwt>
</event>
<event>
 4    1  0.1573232E-005  0.1095908E+04  0.7818608E-02  0.9209190E-01
         -2   -1    0    0    0  501 -0.00000000000E+00  0.00000000000E+00  0.10710158384E+03  0.10710158387E+03  0.25500000000E-02 0. -1.
          2   -1    0    0  501    0  0.00000000000E+00 -0.00000000000E+00 -0.28034452556E+04  0.28034452556E+04  0.25500000000E-02 0.  1.
    5000001    1    1    2    0    0  0.35440374940E+03 -0.35692411397E+03 -0.97228399042E+03  0.11070492305E+04  0.16500000000E+03 0.  0.
   -5000001    1    1    2    0    0 -0.35440374940E+03  0.35692411397E+03 -0.17240596814E+04  0.18034976090E+04  0.16500000000E+03 0.  0.
<mgrwt>
<rscale>  0 0.10959077E+04</rscale>
<asrwt>0</asrwt>
<pdfrwt beam="1">  1        2 0.43129921E+00 0.10959077E+04</pdfrwt>
<pdfrwt beam="2">  1       -2 0.16477169E-01 0.10959077E+04</pdfrwt>
<totfact> 0.69391878E+01</totfact>
</mgrwt>
</event>
<event>
 4    1  0.1573232E-005  0.4306243E+03  0.7818608E-02  0.1033663E+00
          2   -1    0    0  501    0  0.00000000000E+00  0.00000000000E+00  0.60755556234E+03  0.60755556235E+03  0.25500000000E-02 0.  1.
         -2   -1    0    0    0  501 -0.00000000000E+00 -0.00000000000E+00 -0.76304672230E+02  0.76304672272E+02  0.25500000000E-02 0. -1.
    5000001    1    1    2    0    0  0.83862466475E+02  0.98511468369E+02  0.34337434159E+03  0.40232867304E+03  0.16500000000E+03 0.  0.
   -5000001    1    1    2    0    0 -0.83862466475E+02 -0.98511468369E+02  0.18787654852E+03  0.28153156158E+03  0.16500000000E+03 0.  0.
<mgrwt>
<rscale>  0 0.43062433E+03</rscale>
<asrwt>0</asrwt>
<pdfrwt beam="1">  1        2 0.93470085E-01 0.43062433E+03</pdfrwt>
<pdfrwt beam="2">  1       -2 0.11739181E-01 0.43062433E+03</pdfrwt>
<totfact> 0.25621202E+03</totfact>
</mgrwt>
</event>
<event>
 4    1  0.1573232E-005  0.5289945E+03  0.7818608E-02  0.1006476E+00
         -2   -1    0    0    0  501 -0.00000000000E+00  0.00000000000E+00  0.55286503652E+02  0.55286503710E+02  0.25500000000E-02 0. -1.
          2   -1    0    0  501    0  0.00000000000E+00 -0.00000000000E+00 -0.12653866591E+04  0.12653866591E+04  0.25500000000E-02 0.  1.
    5000001    1    1    2    0    0 -0.52103782095E+02 -0.18601314289E+03 -0.42128283147E+03  0.49195519870E+03  0.16500000000E+03 0.  0.
   -5000001    1    1    2    0    0  0.52103782095E+02  0.18601314289E+03 -0.78881732397E+03  0.82871796410E+03  0.16500000000E+03 0.  0.
<mgrwt>
<rscale>  0 0.52899453E+03</rscale>
<asrwt>0</asrwt>
<pdfrwt beam="1">  1        2 0.19467485E+00 0.52899453E+03</pdfrwt>
<pdfrwt beam="2">  1       -2 0.85056169E-02 0.52899453E+03</pdfrwt>
<totfact> 0.15653643E+03</totfact>
</mgrwt>
</event>
<event>
 4    1  0.1573232E-005  0.3922438E+03  0.7818608E-02  0.1046499E+00
          2   -1    0    0  501    0  0.00000000000E+00  0.00000000000E+00  0.17250032073E+04  0.17250032073E+04  0.25500000000E-02 0.  1.
         -2   -1    0    0    0  501 -0.00000000000E+00 -0.00000000000E+00 -0.22297816454E+02  0.22297816600E+02  0.25500000000E-02 0. -1.
    5000001    1    1    2    0    0 -0.72538229289E+02  0.74817108055E+02  0.93812205249E+03  0.95820529102E+03  0.16500000000E+03 0.  0.
   -5000001    1    1    2    0    0  0.72538229289E+02 -0.74817108055E+02  0.76458333838E+03  0.78909573291E+03  0.16500000000E+03 0.  0.
<mgrwt>
<rscale>  0 0.39224383E+03</rscale>
<asrwt>0</asrwt>
<pdfrwt beam="1">  1        2 0.26538513E+00 0.39224383E+03</pdfrwt>
<pdfrwt beam="2">  1       -2 0.34304330E-02 0.39224383E+03</pdfrwt>
<totfact> 0.35868080E+03</totfact>
</mgrwt>
</event>
<event>
 4    1  0.1573232E-005  0.1000097E+04  0.7818608E-02  0.9308438E-01
          2   -1    0    0  501    0  0.00000000000E+00  0.00000000000E+00  0.16423757708E+04  0.16423757708E+04  0.25500000000E-02 0.  1.
         -2   -1    0    0    0  501 -0.00000000000E+00 -0.00000000000E+00 -0.15224814106E+03  0.15224814108E+03  0.25500000000E-02 0. -1.
    5000001    1    1    2    0    0  0.65891873771E+02 -0.44266650215E+03  0.47572727625E+03  0.67367411448E+03  0.16500000000E+03 0.  0.
   -5000001    1    1    2    0    0 -0.65891873771E+02  0.44266650215E+03  0.10144003535E+04  0.11209497974E+04  0.16500000000E+03 0.  0.
<mgrwt>
<rscale>  0 0.10000973E+04</rscale>
<asrwt>0</asrwt>
<pdfrwt beam="1">  1        2 0.25267321E+00 0.10000973E+04</pdfrwt>
<pdfrwt beam="2">  1       -2 0.23422789E-01 0.10000973E+04</pdfrwt>
<totfact> 0.17014936E+02</totfact>
</mgrwt>
</event>
<event>
 4    1  0.1573232E-005  0.3918065E+03  0.7818608E-02  0.1046654E+00
         -2   -1    0    0    0  501 -0.00000000000E+00  0.00000000000E+00  0.21514806376E+03  0.21514806377E+03  0.25500000000E-02 0. -1.
          2   -1    0    0  501    0  0.00000000000E+00 -0.00000000000E+00 -0.17837989935E+03  0.17837989937E+03  0.25500000000E-02 0.  1.
    5000001    1    1    2    0    0  0.71860080900E+02  0.38189692719E+02 -0.49222618979E+02  0.19044734200E+03  0.16500000000E+03 0.  0.
   -5000001    1    1    2    0    0 -0.71860080900E+02 -0.38189692719E+02  0.85990783383E+02  0.20308062114E+03  0.16500000000E+03 0.  0.
<mgrwt>
<rscale>  0 0.39180653E+03</rscale>
<asrwt>0</asrwt>
<pdfrwt beam="1">  1        2 0.27443062E-01 0.39180653E+03</pdfrwt>
<pdfrwt beam="2">  1       -2 0.33099702E-01 0.39180653E+03</pdfrwt>
<totfact> 0.16628682E+03</totfact>
</mgrwt>
</event>
<event>
 4    1  0.1573232E-005  0.4229173E+03  0.7818608E-02  0.1036121E+00
         -2   -1    0    0    0  501 -0.00000000000E+00  0.00000000000E+00  0.83079519902E+03  0.83079519902E+03  0.25500000000E-02 0. -1.
          2   -1    0    0  501    0  0.00000000000E+00 -0.00000000000E+00 -0.53821629902E+02  0.53821629962E+02  0.25500000000E-02 0.  1.
    5000001    1    1    2    0    0  0.13092090213E+02  0.13157739789E+03  0.38347660535E+03  0.43790789136E+03  0.16500000000E+03 0.  0.
   -5000001    1    1    2    0    0 -0.13092090213E+02 -0.13157739789E+03  0.39349696377E+03  0.44670893763E+03  0.16500000000E+03 0.  0.
<mgrwt>
<rscale>  0 0.42291726E+03</rscale>
<asrwt>0</asrwt>
<pdfrwt beam="1">  1        2 0.82802515E-02 0.42291726E+03</pdfrwt>
<pdfrwt beam="2">  1       -2 0.12781464E+00 0.42291726E+03</pdfrwt>
<totfact> 0.38852990E+02</totfact>
</mgrwt>
</event>
<event>
 4    1  0.1573232E-005  0.5405500E+03  0.7818608E-02  0.1003705E+00
          2   -1    0    0  501    0  0.00000000000E+00  0.00000000000E+00  0.16730644868E+04  0.16730644868E+04  0.25500000000E-02 0.  1.
         -2   -1    0    0    0  501 -0.00000000000E+00 -0.00000000000E+00 -0.43661542222E+02  0.43661542296E+02  0.25500000000E-02 0. -1.
    5000001    1    1    2    0    0 -0.18929226206E+03 -0.13583563780E+02  0.11292186174E+04  0.11568819126E+04  0.16500000000E+03 0.  0.
   -5000001    1    1    2    0    0  0.18929226206E+03  0.13583563780E+02  0.50018432711E+03  0.55984411649E+03  0.16500000000E+03 0.  0.
<mgrwt>
<rscale>  0 0.54055000E+03</rscale>
<asrwt>0</asrwt>
<pdfrwt beam="1">  1        2 0.25739451E+00 0.54055000E+03</pdfrwt>
<pdfrwt beam="2">  1       -2 0.67171610E-02 0.54055000E+03</pdfrwt>
<totfact> 0.13518153E+03</totfact>
</mgrwt>
</event>
<event>
 4    1  0.1573232E-005  0.4368151E+03  0.7818608E-02  0.1031729E+00
          2   -1    0    0  501    0  0.00000000000E+00  0.00000000000E+00  0.27593995519E+04  0.27593995519E+04  0.25500000000E-02 0.  1.
         -2   -1    0    0    0  501 -0.00000000000E+00 -0.00000000000E+00 -0.17287038691E+02  0.17287038879E+02  0.25500000000E-02 0. -1.
    5000001    1    1    2    0    0  0.89870316305E+02 -0.93209381377E+02  0.98375933157E+03  0.10058688210E+04  0.16500000000E+03 0.  0.
   -5000001    1    1    2    0    0 -0.89870316305E+02  0.93209381377E+02  0.17583531816E+04  0.17708177698E+04  0.16500000000E+03 0.  0.
<mgrwt>
<rscale>  0 0.43681505E+03</rscale>
<asrwt>0</asrwt>
<pdfrwt beam="1">  1        2 0.42452332E+00 0.43681505E+03</pdfrwt>
<pdfrwt beam="2">  1       -2 0.26595424E-02 0.43681505E+03</pdfrwt>
<totfact> 0.14286224E+03</totfact>
</mgrwt>
</event>
<event>
 4    1  0.1573232E-005  0.4806159E+03  0.7818608E-02  0.1018966E+00
         -2   -1    0    0    0  501 -0.00000000000E+00  0.00000000000E+00  0.10779993914E+03  0.10779993917E+03  0.25500000000E-02 0.  1.
          2   -1    0    0  501    0  0.00000000000E+00 -0.00000000000E+00 -0.53569516777E+03  0.53569516777E+03  0.25500000000E-02 0. -1.
    5000001    1    1    2    0    0  0.16829413224E+03  0.33516457337E+02 -0.17001549936E+03  0.29253467808E+03  0.16500000000E+03 0.  0.
   -5000001    1    1    2    0    0 -0.16829413224E+03 -0.33516457337E+02 -0.25787972927E+03  0.35096042886E+03  0.16500000000E+03 0.  0.
<mgrwt>
<rscale>  0 0.48061588E+03</rscale>
<asrwt>0</asrwt>
<pdfrwt beam="1">  1        2 0.82414639E-01 0.48061588E+03</pdfrwt>
<pdfrwt beam="2">  1       -2 0.16584606E-01 0.48061588E+03</pdfrwt>
<totfact> 0.16734764E+03</totfact>
</mgrwt>
</event>
<event>
 4    1  0.1573232E-005  0.3448742E+03  0.7818608E-02  0.1064739E+00
          2   -1    0    0  501    0  0.00000000000E+00  0.00000000000E+00  0.11937204032E+03  0.11937204034E+03  0.25500000000E-02 0.  1.
         -2   -1    0    0    0  501 -0.00000000000E+00 -0.00000000000E+00 -0.24909137229E+03  0.24909137230E+03  0.25500000000E-02 0. -1.
    5000001    1    1    2    0    0 -0.10873814046E+02 -0.35950786218E+02 -0.29443443747E+02  0.17176325347E+03  0.16500000000E+03 0.  0.
   -5000001    1    1    2    0    0  0.10873814046E+02  0.35950786218E+02 -0.10027588823E+03  0.19670015918E+03  0.16500000000E+03 0.  0.
<mgrwt>
<rscale>  0 0.34487415E+03</rscale>
<asrwt>0</asrwt>
<pdfrwt beam="1">  1        2 0.18364929E-01 0.34487415E+03</pdfrwt>
<pdfrwt beam="2">  1       -2 0.38321750E-01 0.34487415E+03</pdfrwt>
<totfact> 0.19925671E+03</totfact>
</mgrwt>
</event>
<event>
 4    1  0.1573232E-005  0.8246624E+03  0.7818608E-02  0.9524990E-01
          2   -1    0    0  501    0  0.00000000000E+00  0.00000000000E+00  0.34905690304E+04  0.34905690304E+04  0.25500000000E-02 0.  1.
         -2   -1    0    0    0  501 -0.00000000000E+00 -0.00000000000E+00 -0.48707541864E+02  0.48707541931E+02  0.25500000000E-02 0. -1.
    5000001    1    1    2    0    0  0.26948307096E+03  0.98449794224E+02  0.66547757561E+03  0.74323542109E+03  0.16500000000E+03 0.  0.
   -5000001    1    1    2    0    0 -0.26948307096E+03 -0.98449794224E+02  0.27763839130E+04  0.27960411513E+04  0.16500000000E+03 0.  0.
<mgrwt>
<rscale>  0 0.82466245E+03</rscale>
<asrwt>0</asrwt>
<pdfrwt beam="1">  1        2 0.53701085E+00 0.82466245E+03</pdfrwt>
<pdfrwt beam="2">  1       -2 0.74934648E-02 0.82466245E+03</pdfrwt>
<totfact> 0.96027605E+01</totfact>
</mgrwt>
</event>
<event>
 4    1  0.1573232E-005  0.4884565E+03  0.7818608E-02  0.1016837E+00
          2   -1    0    0  501    0  0.00000000000E+00  0.00000000000E+00  0.10637869064E+04  0.10637869064E+04  0.25500000000E-02 0.  1.
         -2   -1    0    0    0  501 -0.00000000000E+00 -0.00000000000E+00 -0.56070852744E+02  0.56070852801E+02  0.25500000000E-02 0. -1.
    5000001    1    1    2    0    0 -0.73618941878E+02 -0.16264790569E+03  0.45017146805E+03  0.51161845205E+03  0.16500000000E+03 0.  0.
   -5000001    1    1    2    0    0  0.73618941878E+02  0.16264790569E+03  0.55754458557E+03  0.60823930712E+03  0.16500000000E+03 0.  0.
<mgrwt>
<rscale>  0 0.48845650E+03</rscale>
<asrwt>0</asrwt>
<pdfrwt beam="1">  1        2 0.16365952E+00 0.48845650E+03</pdfrwt>
<pdfrwt beam="2">  1       -2 0.86262853E-02 0.48845650E+03</pdfrwt>
<totfact> 0.20150352E+03</totfact>
</mgrwt>
</event>
<event>
 4    1  0.1573232E-005  0.7496200E+03  0.7818608E-02  0.9635947E-01
         -2   -1    0    0    0  501 -0.00000000000E+00  0.00000000000E+00  0.91969131528E+03  0.91969131528E+03  0.25500000000E-02 0. -1.
          2   -1    0    0  501    0  0.00000000000E+00 -0.00000000000E+00 -0.15274966013E+03  0.15274966015E+03  0.25500000000E-02 0.  1.
    5000001    1    1    2    0    0  0.23463366342E+03 -0.21938676112E+03  0.52706401310E+03  0.63890921176E+03  0.16500000000E+03 0.  0.
   -5000001    1    1    2    0    0 -0.23463366342E+03  0.21938676112E+03  0.23987764204E+03  0.43353176367E+03  0.16500000000E+03 0.  0.
<mgrwt>
<rscale>  0 0.74962000E+03</rscale>
<asrwt>0</asrwt>
<pdfrwt beam="1">  1        2 0.23499948E-01 0.74962000E+03</pdfrwt>
<pdfrwt beam="2">  1       -2 0.14149097E+00 0.74962000E+03</pdfrwt>
<totfact> 0.83083623E+01</totfact>
</mgrwt>
</event>
<event>
 4    1  0.1573232E-005  0.4436758E+03  0.7818608E-02  0.1029625E+00
         -2   -1    0    0    0  501 -0.00000000000E+00  0.00000000000E+00  0.39399371099E+02  0.39399371182E+02  0.25500000000E-02 0. -1.
          2   -1    0    0  501    0  0.00000000000E+00 -0.00000000000E+00 -0.12490566658E+04  0.12490566658E+04  0.25500000000E-02 0.  1.
    5000001    1    1    2    0    0 -0.10371523816E+03 -0.70958098828E+02 -0.83340411760E+03  0.85882438580E+03  0.16500000000E+03 0.  0.
   -5000001    1    1    2    0    0  0.10371523816E+03  0.70958098828E+02 -0.37625317707E+03  0.42963165115E+03  0.16500000000E+03 0.  0.
<mgrwt>
<rscale>  0 0.44367577E+03</rscale>
<asrwt>0</asrwt>
<pdfrwt beam="1">  1        2 0.19216253E+00 0.44367577E+03</pdfrwt>
<pdfrwt beam="2">  1       -2 0.60614427E-02 0.44367577E+03</pdfrwt>
<totfact> 0.27322640E+03</totfact>
</mgrwt>
</event>
<event>
 4    1  0.1573232E-005  0.5023308E+03  0.7818608E-02  0.1013172E+00
          2   -1    0    0  501    0  0.00000000000E+00  0.00000000000E+00  0.11068140488E+04  0.11068140488E+04  0.25500000000E-02 0.  1.
         -2   -1    0    0    0  501 -0.00000000000E+00 -0.00000000000E+00 -0.56996066003E+02  0.56996066060E+02  0.25500000000E-02 0. -1.
    5000001    1    1    2    0    0 -0.44772194284E+02 -0.16080036340E+03  0.31771554696E+03  0.39500566456E+03  0.16500000000E+03 0.  0.
   -5000001    1    1    2    0    0  0.44772194284E+02  0.16080036340E+03  0.73210243582E+03  0.76880445029E+03  0.16500000000E+03 0.  0.
<mgrwt>
<rscale>  0 0.50233075E+03</rscale>
<asrwt>0</asrwt>
<pdfrwt beam="1">  1        2 0.17027907E+00 0.50233075E+03</pdfrwt>
<pdfrwt beam="2">  1       -2 0.87686264E-02 0.50233075E+03</pdfrwt>
<totfact> 0.18483200E+03</totfact>
</mgrwt>
</event>
<event>
 4    1  0.1573232E-005  0.8329773E+03  0.7818608E-02  0.9513473E-01
          2   -1    0    0  501    0  0.00000000000E+00  0.00000000000E+00  0.49410784480E+03  0.49410784481E+03  0.25500000000E-02 0.  1.
         -2   -1    0    0    0  501 -0.00000000000E+00 -0.00000000000E+00 -0.35106259488E+03  0.35106259489E+03  0.25500000000E-02 0. -1.
    5000001    1    1    2    0    0 -0.17199143075E+03 -0.26570368602E+03  0.28927605896E+03  0.45944002797E+03  0.16500000000E+03 0.  0.
   -5000001    1    1    2    0    0  0.17199143075E+03  0.26570368602E+03 -0.14623080904E+03  0.38573041173E+03  0.16500000000E+03 0.  0.
<mgrwt>
<rscale>  0 0.83297727E+03</rscale>
<asrwt>0</asrwt>
<pdfrwt beam="1">  1        2 0.76016591E-01 0.83297727E+03</pdfrwt>
<pdfrwt beam="2">  1       -2 0.54009630E-01 0.83297727E+03</pdfrwt>
<totfact> 0.20284470E+02</totfact>
</mgrwt>
</event>
<event>
 4    1  0.1573232E-005  0.3550825E+03  0.7818608E-02  0.1060548E+00
          2   -1    0    0  501    0  0.00000000000E+00  0.00000000000E+00  0.44773915588E+03  0.44773915588E+03  0.25500000000E-02 0.  1.
         -2   -1    0    0    0  501 -0.00000000000E+00 -0.00000000000E+00 -0.70400131191E+02  0.70400131237E+02  0.25500000000E-02 0. -1.
    5000001    1    1    2    0    0 -0.16248666119E+01  0.58536157189E+02  0.14570894066E+03  0.22778326821E+03  0.16500000000E+03 0.  0.
   -5000001    1    1    2    0    0  0.16248666119E+01 -0.58536157189E+02  0.23163008403E+03  0.29035601891E+03  0.16500000000E+03 0.  0.
<mgrwt>
<rscale>  0 0.35508250E+03</rscale>
<asrwt>0</asrwt>
<pdfrwt beam="1">  1        2 0.68882948E-01 0.35508250E+03</pdfrwt>
<pdfrwt beam="2">  1       -2 0.10830789E-01 0.35508250E+03</pdfrwt>
<totfact> 0.41293962E+03</totfact>
</mgrwt>
</event>
<event>
 4    1  0.1573232E-005  0.5042761E+03  0.7818608E-02  0.1012669E+00
         -2   -1    0    0    0  501 -0.00000000000E+00  0.00000000000E+00  0.33678827429E+02  0.33678827526E+02  0.25500000000E-02 0. -1.
          2   -1    0    0  501    0  0.00000000000E+00 -0.00000000000E+00 -0.18876428889E+04  0.18876428889E+04  0.25500000000E-02 0.  1.
    5000001    1    1    2    0    0 -0.16762721725E+03  0.67957006895E+02 -0.11565854413E+04  0.11822148374E+04  0.16500000000E+03 0.  0.
   -5000001    1    1    2    0    0  0.16762721725E+03 -0.67957006895E+02 -0.69737862013E+03  0.73910687899E+03  0.16500000000E+03 0.  0.
<mgrwt>
<rscale>  0 0.50427611E+03</rscale>
<asrwt>0</asrwt>
<pdfrwt beam="1">  1        2 0.29040652E+00 0.50427611E+03</pdfrwt>
<pdfrwt beam="2">  1       -2 0.51813595E-02 0.50427611E+03</pdfrwt>
<totfact> 0.15557310E+03</totfact>
</mgrwt>
</event>
<event>
 4    1  0.1573232E-005  0.1085689E+04  0.7818608E-02  0.9219254E-01
         -2   -1    0    0    0  501 -0.00000000000E+00  0.00000000000E+00  0.66117063835E+03  0.66117063835E+03  0.25500000000E-02 0. -1.
          2   -1    0    0  501    0  0.00000000000E+00 -0.00000000000E+00 -0.44569422299E+03  0.44569422300E+03  0.25500000000E-02 0.  1.
    5000001    1    1    2    0    0 -0.38644792861E+03 -0.29946018185E+03  0.27965869652E+03  0.58690066330E+03  0.16500000000E+03 0.  0.
   -5000001    1    1    2    0    0  0.38644792861E+03  0.29946018185E+03 -0.64182281162E+02  0.51996419805E+03  0.16500000000E+03 0.  0.
<mgrwt>
<rscale>  0 0.10856886E+04</rscale>
<asrwt>0</asrwt>
<pdfrwt beam="1">  1        2 0.68568342E-01 0.10856886E+04</pdfrwt>
<pdfrwt beam="2">  1       -2 0.10171856E+00 0.10856886E+04</pdfrwt>
<totfact> 0.55432840E+01</totfact>
</mgrwt>
</event>
<event>
 4    1  0.1573232E-005  0.5623375E+03  0.7818608E-02  0.9986779E-01
          2   -1    0    0  501    0  0.00000000000E+00  0.00000000000E+00  0.87102638862E+03  0.87102638863E+03  0.25500000000E-02 0.  1.
         -2   -1    0    0    0  501 -0.00000000000E+00 -0.00000000000E+00 -0.90761731689E+02  0.90761731724E+02  0.25500000000E-02 0. -1.
    5000001    1    1    2    0    0  0.16060098786E+03  0.20156602294E+02  0.11630754779E+03  0.25874970839E+03  0.16500000000E+03 0.  0.
   -5000001    1    1    2    0    0 -0.16060098786E+03 -0.20156602294E+02  0.66395710914E+03  0.70303841196E+03  0.16500000000E+03 0.  0.
<mgrwt>
<rscale>  0 0.56233749E+03</rscale>
<asrwt>0</asrwt>
<pdfrwt beam="1">  1        2 0.13400405E+00 0.56233749E+03</pdfrwt>
<pdfrwt beam="2">  1       -2 0.13963344E-01 0.56233749E+03</pdfrwt>
<totfact> 0.12201214E+03</totfact>
</mgrwt>
</event>
<event>
 4    1  0.1573232E-005  0.5591604E+03  0.7818608E-02  0.9993956E-01
          2   -1    0    0  501    0  0.00000000000E+00  0.00000000000E+00  0.46101042946E+03  0.46101042947E+03  0.25500000000E-02 0.  1.
         -2   -1    0    0    0  501 -0.00000000000E+00 -0.00000000000E+00 -0.16955165441E+03  0.16955165443E+03  0.25500000000E-02 0. -1.
    5000001    1    1    2    0    0  0.85856703743E+02  0.14655364495E+03 -0.21879315148E+02  0.23780884941E+03  0.16500000000E+03 0.  0.
   -5000001    1    1    2    0    0 -0.85856703743E+02 -0.14655364495E+03  0.31333809020E+03  0.39275323449E+03  0.16500000000E+03 0.  0.
<mgrwt>
<rscale>  0 0.55916037E+03</rscale>
<asrwt>0</asrwt>
<pdfrwt beam="1">  1        2 0.70924681E-01 0.55916037E+03</pdfrwt>
<pdfrwt beam="2">  1       -2 0.26084870E-01 0.55916037E+03</pdfrwt>
<totfact> 0.90077248E+02</totfact>
</mgrwt>
</event>
<event>
 4    1  0.1573232E-005  0.6943355E+03  0.7818608E-02  0.9726969E-01
         -2   -1    0    0    0  501 -0.00000000000E+00  0.00000000000E+00  0.25331860462E+03  0.25331860464E+03  0.25500000000E-02 0. -1.
          2   -1    0    0  501    0  0.00000000000E+00 -0.00000000000E+00 -0.47578603518E+03  0.47578603519E+03  0.25500000000E-02 0.  1.
    5000001    1    1    2    0    0 -0.41793825570E+02 -0.29676398753E+03 -0.49244870483E+02  0.34563802658E+03  0.16500000000E+03 0.  0.
   -5000001    1    1    2    0    0  0.41793825570E+02  0.29676398753E+03 -0.17322256007E+03  0.38346661324E+03  0.16500000000E+03 0.  0.
<mgrwt>
<rscale>  0 0.69433552E+03</rscale>
<asrwt>0</asrwt>
<pdfrwt beam="1">  1        2 0.73197852E-01 0.69433552E+03</pdfrwt>
<pdfrwt beam="2">  1       -2 0.38972093E-01 0.69433552E+03</pdfrwt>
<totfact> 0.40912509E+02</totfact>
</mgrwt>
</event>
<event>
 4    1  0.1573232E-005  0.3939305E+03  0.7818608E-02  0.1045902E+00
          2   -1    0    0  501    0  0.00000000000E+00  0.00000000000E+00  0.81825622844E+03  0.81825622844E+03  0.25500000000E-02 0.  1.
         -2   -1    0    0    0  501 -0.00000000000E+00 -0.00000000000E+00 -0.47412188287E+02  0.47412188356E+02  0.25500000000E-02 0. -1.
    5000001    1    1    2    0    0 -0.46080588111E+02 -0.73904976096E+02  0.24670061434E+03  0.30930819454E+03  0.16500000000E+03 0.  0.
   -5000001    1    1    2    0    0  0.46080588111E+02  0.73904976096E+02  0.52414342582E+03  0.55636022226E+03  0.16500000000E+03 0.  0.
<mgrwt>
<rscale>  0 0.39393054E+03</rscale>
<asrwt>0</asrwt>
<pdfrwt beam="1">  1        2 0.12588556E+00 0.39393054E+03</pdfrwt>
<pdfrwt beam="2">  1       -2 0.72941834E-02 0.39393054E+03</pdfrwt>
<totfact> 0.37846015E+03</totfact>
</mgrwt>
</event>
<event>
 4    1  0.1573232E-005  0.5948881E+03  0.7818608E-02  0.9916069E-01
          2   -1    0    0  501    0  0.00000000000E+00  0.00000000000E+00  0.10568857387E+03  0.10568857390E+03  0.25500000000E-02 0.  1.
         -2   -1    0    0    0  501 -0.00000000000E+00 -0.00000000000E+00 -0.83711000803E+03  0.83711000803E+03  0.25500000000E-02 0. -1.
    5000001    1    1    2    0    0 -0.12080376175E+03 -0.21589386089E+03 -0.35516771262E+03  0.46322004718E+03  0.16500000000E+03 0.  0.
   -5000001    1    1    2    0    0  0.12080376175E+03  0.21589386089E+03 -0.37625372154E+03  0.47957853475E+03  0.16500000000E+03 0.  0.
<mgrwt>
<rscale>  0 0.59488810E+03</rscale>
<asrwt>0</asrwt>
<pdfrwt beam="1">  1        2 0.16259781E-01 0.59488810E+03</pdfrwt>
<pdfrwt beam="2">  1       -2 0.12878615E+00 0.59488810E+03</pdfrwt>
<totfact> 0.16406898E+02</totfact>
</mgrwt>
</event>
<event>
 4    1  0.1573232E-005  0.4039221E+03  0.7818608E-02  0.1042430E+00
         -2   -1    0    0    0  501 -0.00000000000E+00  0.00000000000E+00  0.14793571016E+02  0.14793571236E+02  0.25500000000E-02 0. -1.
          2   -1    0    0  501    0  0.00000000000E+00 -0.00000000000E+00 -0.27571610574E+04  0.27571610574E+04  0.25500000000E-02 0.  1.
    5000001    1    1    2    0    0 -0.92741924121E+02  0.61179239868E+02 -0.11315528430E+04  0.11489041737E+04  0.16500000000E+03 0.  0.
   -5000001    1    1    2    0    0  0.92741924121E+02 -0.61179239868E+02 -0.16108146434E+04  0.16230504550E+04  0.16500000000E+03 0.  0.
<mgrwt>
<rscale>  0 0.40392206E+03</rscale>
<asrwt>0</asrwt>
<pdfrwt beam="1">  1        2 0.42417822E+00 0.40392206E+03</pdfrwt>
<pdfrwt beam="2">  1       -2 0.22759362E-02 0.40392206E+03</pdfrwt>
<totfact> 0.18149818E+03</totfact>
</mgrwt>
</event>
<event>
 4    1  0.1573232E-005  0.9577727E+03  0.7818608E-02  0.9356111E-01
         -2   -1    0    0    0  501 -0.00000000000E+00  0.00000000000E+00  0.61869314093E+03  0.61869314093E+03  0.25500000000E-02 0. -1.
          2   -1    0    0  501    0  0.00000000000E+00 -0.00000000000E+00 -0.37067184612E+03  0.37067184613E+03  0.25500000000E-02 0.  1.
    5000001    1    1    2    0    0  0.17573051612E+03  0.41372951896E+03  0.11643388746E+03  0.49278309560E+03  0.16500000000E+03 0.  0.
   -5000001    1    1    2    0    0 -0.17573051612E+03 -0.41372951896E+03  0.13158740735E+03  0.49658189146E+03  0.16500000000E+03 0.  0.
<mgrwt>
<rscale>  0 0.95777268E+03</rscale>
<asrwt>0</asrwt>
<pdfrwt beam="1">  1        2 0.57026438E-01 0.95777268E+03</pdfrwt>
<pdfrwt beam="2">  1       -2 0.95183559E-01 0.95777268E+03</pdfrwt>
<totfact> 0.80460526E+01</totfact>
</mgrwt>
</event>
<event>
 4    1  0.1573232E-005  0.4864342E+03  0.7818608E-02  0.1017382E+00
         -2   -1    0    0    0  501 -0.00000000000E+00  0.00000000000E+00  0.43176240308E+02  0.43176240383E+02  0.25500000000E-02 0. -1.
          2   -1    0    0  501    0  0.00000000000E+00 -0.00000000000E+00 -0.13700717604E+04  0.13700717604E+04  0.25500000000E-02 0.  1.
    5000001    1    1    2    0    0  0.33352019973E+02 -0.17102375178E+03 -0.54840041977E+03  0.59860629909E+03  0.16500000000E+03 0.  0.
   -5000001    1    1    2    0    0 -0.33352019973E+02  0.17102375178E+03 -0.77849510034E+03  0.81464170171E+03  0.16500000000E+03 0.  0.
<mgrwt>
<rscale>  0 0.48643416E+03</rscale>
<asrwt>0</asrwt>
<pdfrwt beam="1">  1        2 0.21078024E+00 0.48643416E+03</pdfrwt>
<pdfrwt beam="2">  1       -2 0.66424996E-02 0.48643416E+03</pdfrwt>
<totfact> 0.20215401E+03</totfact>
</mgrwt>
</event>
<event>
 4    1  0.1573232E-005  0.6356542E+03  0.7818608E-02  0.9834077E-01
          2   -1    0    0  501    0  0.00000000000E+00  0.00000000000E+00  0.31687837263E+04  0.31687837263E+04  0.25500000000E-02 0.  1.
         -2   -1    0    0    0  501 -0.00000000000E+00 -0.00000000000E+00 -0.31877869235E+02  0.31877869337E+02  0.25500000000E-02 0. -1.
    5000001    1    1    2    0    0 -0.23089228116E+03  0.12580633746E+03  0.19118313545E+04  0.19368692801E+04  0.16500000000E+03 0.  0.
   -5000001    1    1    2    0    0  0.23089228116E+03 -0.12580633746E+03  0.12250745026E+04  0.12637923156E+04  0.16500000000E+03 0.  0.
<mgrwt>
<rscale>  0 0.63565422E+03</rscale>
<asrwt>0</asrwt>
<pdfrwt beam="1">  1        2 0.48750523E+00 0.63565422E+03</pdfrwt>
<pdfrwt beam="2">  1       -2 0.49042871E-02 0.63565422E+03</pdfrwt>
<totfact> 0.31120999E+02</totfact>
</mgrwt>
</event>
<event>
 4    1  0.1573232E-005  0.4274800E+03  0.7818608E-02  0.1034659E+00
         -2   -1    0    0    0  501 -0.00000000000E+00  0.00000000000E+00  0.40501919196E+02  0.40501919276E+02  0.25500000000E-02 0. -1.
          2   -1    0    0  501    0  0.00000000000E+00 -0.00000000000E+00 -0.11279657870E+04  0.11279657870E+04  0.25500000000E-02 0.  1.
    5000001    1    1    2    0    0  0.99786334193E+02 -0.81088161748E+02 -0.66372654049E+03  0.69590985265E+03  0.16500000000E+03 0.  0.
   -5000001    1    1    2    0    0 -0.99786334193E+02  0.81088161748E+02 -0.42373732733E+03  0.47255785364E+03  0.16500000000E+03 0.  0.
<mgrwt>
<rscale>  0 0.42747996E+03</rscale>
<asrwt>0</asrwt>
<pdfrwt beam="1">  1        2 0.17353317E+00 0.42747996E+03</pdfrwt>
<pdfrwt beam="2">  1       -2 0.62310654E-02 0.42747996E+03</pdfrwt>
<totfact> 0.30787175E+03</totfact>
</mgrwt>
</event>
<event>
 4    1  0.1573232E-005  0.8929458E+03  0.7818608E-02  0.9434443E-01
          2   -1    0    0  501    0  0.00000000000E+00  0.00000000000E+00  0.35837159937E+03  0.35837159938E+03  0.25500000000E-02 0.  1.
         -2   -1    0    0    0  501 -0.00000000000E+00 -0.00000000000E+00 -0.55623284484E+03  0.55623284485E+03  0.25500000000E-02 0. -1.
    5000001    1    1    2    0    0  0.23116728204E+02  0.31621454512E+03  0.17511658696E+03  0.39801613120E+03  0.16500000000E+03 0.  0.
   -5000001    1    1    2    0    0 -0.23116728204E+02 -0.31621454512E+03 -0.37297783243E+03  0.51658831302E+03  0.16500000000E+03 0.  0.
<mgrwt>
<rscale>  0 0.89294581E+03</rscale>
<asrwt>0</asrwt>
<pdfrwt beam="1">  1        2 0.55134092E-01 0.89294581E+03</pdfrwt>
<pdfrwt beam="2">  1       -2 0.85574284E-01 0.89294581E+03</pdfrwt>
<totfact> 0.10721773E+02</totfact>
</mgrwt>
</event>
<event>
 4    1  0.1573232E-005  0.4532770E+03  0.7818608E-02  0.1026749E+00
          2   -1    0    0  501    0  0.00000000000E+00  0.00000000000E+00  0.29647640384E+03  0.29647640385E+03  0.25500000000E-02 0.  1.
         -2   -1    0    0    0  501 -0.00000000000E+00 -0.00000000000E+00 -0.17325162664E+03  0.17325162666E+03  0.25500000000E-02 0. -1.
    5000001    1    1    2    0    0  0.13177619187E+03 -0.17480368244E+02  0.14496473263E+03  0.25673001718E+03  0.16500000000E+03 0.  0.
   -5000001    1    1    2    0    0 -0.13177619187E+03  0.17480368244E+02 -0.21739955433E+02  0.21299801332E+03  0.16500000000E+03 0.  0.
<mgrwt>
<rscale>  0 0.45327704E+03</rscale>
<asrwt>0</asrwt>
<pdfrwt beam="1">  1        2 0.45611754E-01 0.45327704E+03</pdfrwt>
<pdfrwt beam="2">  1       -2 0.26654096E-01 0.45327704E+03</pdfrwt>
<totfact> 0.14136499E+03</totfact>
</mgrwt>
</event>
<event>
 4    1  0.1573232E-005  0.7653664E+03  0.7818608E-02  0.9611547E-01
          2   -1    0    0  501    0  0.00000000000E+00  0.00000000000E+00  0.25654423135E+03  0.25654423136E+03  0.25500000000E-02 0.  1.
         -2   -1    0    0    0  501 -0.00000000000E+00 -0.00000000000E+00 -0.57084276982E+03  0.57084276982E+03  0.25500000000E-02 0. -1.
    5000001    1    1    2    0    0 -0.11339057773E+03  0.25347043649E+03 -0.37900296268E+03  0.49796880526E+03  0.16500000000E+03 0.  0.
   -5000001    1    1    2    0    0  0.11339057773E+03 -0.25347043649E+03  0.64704424211E+02  0.32941819592E+03  0.16500000000E+03 0.  0.
<mgrwt>
<rscale>  0 0.76536637E+03</rscale>
<asrwt>0</asrwt>
<pdfrwt beam="1">  1        2 0.39468343E-01 0.76536637E+03</pdfrwt>
<pdfrwt beam="2">  1       -2 0.87821964E-01 0.76536637E+03</pdfrwt>
<totfact> 0.14742185E+02</totfact>
</mgrwt>
</event>
<event>
 4    1  0.1573232E-005  0.1326310E+04  0.7818608E-02  0.9008958E-01
         -2   -1    0    0    0  501 -0.00000000000E+00  0.00000000000E+00  0.62762181204E+03  0.62762181204E+03  0.25500000000E-02 0. -1.
          2   -1    0    0  501    0  0.00000000000E+00 -0.00000000000E+00 -0.70069960640E+03  0.70069960641E+03  0.25500000000E-02 0.  1.
    5000001    1    1    2    0    0  0.48895985160E+03 -0.38989573231E+03 -0.18321559598E+03  0.67223014896E+03  0.16500000000E+03 0.  0.
   -5000001    1    1    2    0    0 -0.48895985160E+03  0.38989573231E+03  0.11013780162E+03  0.65609126949E+03  0.16500000000E+03 0.  0.
<mgrwt>
<rscale>  0 0.13263097E+04</rscale>
<asrwt>0</asrwt>
<pdfrwt beam="1">  1        2 0.10779994E+00 0.13263097E+04</pdfrwt>
<pdfrwt beam="2">  1       -2 0.96557202E-01 0.13263097E+04</pdfrwt>
<totfact> 0.35930221E+01</totfact>
</mgrwt>
</event>
<event>
 4    1  0.1573232E-005  0.7691921E+03  0.7818608E-02  0.9605713E-01
          2   -1    0    0  501    0  0.00000000000E+00  0.00000000000E+00  0.37302705941E+03  0.37302705942E+03  0.25500000000E-02 0.  1.
         -2   -1    0    0    0  501 -0.00000000000E+00 -0.00000000000E+00 -0.39652380081E+03  0.39652380082E+03  0.25500000000E-02 0. -1.
    5000001    1    1    2    0    0  0.17241417835E+03 -0.24335982836E+03 -0.18998436257E+03  0.39021752008E+03  0.16500000000E+03 0.  0.
   -5000001    1    1    2    0    0 -0.17241417835E+03  0.24335982836E+03  0.16648762117E+03  0.37933334016E+03  0.16500000000E+03 0.  0.
<mgrwt>
<rscale>  0 0.76919206E+03</rscale>
<asrwt>0</asrwt>
<pdfrwt beam="1">  1        2 0.57388778E-01 0.76919206E+03</pdfrwt>
<pdfrwt beam="2">  1       -2 0.61003662E-01 0.76919206E+03</pdfrwt>
<totfact> 0.21693354E+02</totfact>
</mgrwt>
</event>
<event>
 4    1  0.1573232E-005  0.3622095E+03  0.7818608E-02  0.1057712E+00
         -2   -1    0    0    0  501 -0.00000000000E+00  0.00000000000E+00  0.12657146192E+03  0.12657146195E+03  0.25500000000E-02 0. -1.
          2   -1    0    0  501    0  0.00000000000E+00 -0.00000000000E+00 -0.25913374981E+03  0.25913374982E+03  0.25500000000E-02 0.  1.
    5000001    1    1    2    0    0  0.23655730434E+01 -0.69687015968E+02 -0.37865706082E+02  0.18308655829E+03  0.16500000000E+03 0.  0.
   -5000001    1    1    2    0    0 -0.23655730434E+01  0.69687015968E+02 -0.94696581806E+02  0.20261865348E+03  0.16500000000E+03 0.  0.
<mgrwt>
<rscale>  0 0.36220954E+03</rscale>
<asrwt>0</asrwt>
<pdfrwt beam="1">  1        2 0.39866731E-01 0.36220954E+03</pdfrwt>
<pdfrwt beam="2">  1       -2 0.19472533E-01 0.36220954E+03</pdfrwt>
<totfact> 0.28358299E+03</totfact>
</mgrwt>
</event>
<event>
 4    1  0.1573232E-005  0.4450322E+03  0.7818608E-02  0.1029214E+00
         -2   -1    0    0    0  501 -0.00000000000E+00  0.00000000000E+00  0.42296801273E+02  0.42296801350E+02  0.25500000000E-02 0. -1.
          2   -1    0    0  501    0  0.00000000000E+00 -0.00000000000E+00 -0.11706183783E+04  0.11706183783E+04  0.25500000000E-02 0.  1.
    5000001    1    1    2    0    0  0.10186793119E+03 -0.10416676713E+03 -0.65292121024E+03  0.68902750131E+03  0.16500000000E+03 0.  0.
   -5000001    1    1    2    0    0 -0.10186793119E+03  0.10416676713E+03 -0.47540036677E+03  0.52388767833E+03  0.16500000000E+03 0.  0.
<mgrwt>
<rscale>  0 0.44503219E+03</rscale>
<asrwt>0</asrwt>
<pdfrwt beam="1">  1        2 0.18009511E+00 0.44503219E+03</pdfrwt>
<pdfrwt beam="2">  1       -2 0.65072011E-02 0.44503219E+03</pdfrwt>
<totfact> 0.27155308E+03</totfact>
</mgrwt>
</event>
<event>
 4    1  0.1573232E-005  0.5164901E+03  0.7818608E-02  0.1009562E+00
          2   -1    0    0  501    0  0.00000000000E+00  0.00000000000E+00  0.11593973751E+04  0.11593973751E+04  0.25500000000E-02 0.  1.
         -2   -1    0    0    0  501 -0.00000000000E+00 -0.00000000000E+00 -0.57521704832E+02  0.57521704889E+02  0.25500000000E-02 0. -1.
    5000001    1    1    2    0    0 -0.15909172748E+03  0.80800426237E+01  0.27126136986E+03  0.35522274086E+03  0.16500000000E+03 0.  0.
   -5000001    1    1    2    0    0  0.15909172748E+03 -0.80800426237E+01  0.83061430042E+03  0.86169633915E+03  0.16500000000E+03 0.  0.
<mgrwt>
<rscale>  0 0.51649013E+03</rscale>
<asrwt>0</asrwt>
<pdfrwt beam="1">  1        2 0.17836882E+00 0.51649013E+03</pdfrwt>
<pdfrwt beam="2">  1       -2 0.88494936E-02 0.51649013E+03</pdfrwt>
<totfact> 0.16940964E+03</totfact>
</mgrwt>
</event>
<event>
 4    1  0.1573232E-005  0.3521889E+03  0.7818608E-02  0.1061720E+00
         -2   -1    0    0    0  501 -0.00000000000E+00  0.00000000000E+00  0.16966992526E+03  0.16966992528E+03  0.25500000000E-02 0. -1.
          2   -1    0    0  501    0  0.00000000000E+00 -0.00000000000E+00 -0.18276225162E+03  0.18276225163E+03  0.25500000000E-02 0.  1.
    5000001    1    1    2    0    0 -0.56901217656E+00 -0.56963576416E+02 -0.29780399483E+02  0.17707920546E+03  0.16500000000E+03 0.  0.
   -5000001    1    1    2    0    0  0.56901217656E+00  0.56963576416E+02  0.16688073127E+02  0.17535297145E+03  0.16500000000E+03 0.  0.
<mgrwt>
<rscale>  0 0.35218891E+03</rscale>
<asrwt>0</asrwt>
<pdfrwt beam="1">  1        2 0.28117270E-01 0.35218891E+03</pdfrwt>
<pdfrwt beam="2">  1       -2 0.26103065E-01 0.35218891E+03</pdfrwt>
<totfact> 0.24914283E+03</totfact>
</mgrwt>
</event>
<event>
 4    1  0.1573232E-005  0.4473348E+03  0.7818608E-02  0.1028520E+00
         -2   -1    0    0    0  501 -0.00000000000E+00  0.00000000000E+00  0.28114393097E+03  0.28114393098E+03  0.25500000000E-02 0. -1.
          2   -1    0    0  501    0  0.00000000000E+00 -0.00000000000E+00 -0.17794125075E+03  0.17794125077E+03  0.25500000000E-02 0.  1.
    5000001    1    1    2    0    0  0.15099888706E+03  0.71625746554E+00  0.52588803028E+02  0.22976457325E+03  0.16500000000E+03 0.  0.
   -5000001    1    1    2    0    0 -0.15099888706E+03 -0.71625746554E+00  0.50613877185E+02  0.22932060850E+03  0.16500000000E+03 0.  0.
<mgrwt>
<rscale>  0 0.44733479E+03</rscale>
<asrwt>0</asrwt>
<pdfrwt beam="1">  1        2 0.27375577E-01 0.44733479E+03</pdfrwt>
<pdfrwt beam="2">  1       -2 0.43252912E-01 0.44733479E+03</pdfrwt>
<totfact> 0.10015427E+03</totfact>
</mgrwt>
</event>
<event>
 4    1  0.1573232E-005  0.7957139E+03  0.7818608E-02  0.9566242E-01
         -2   -1    0    0    0  501 -0.00000000000E+00  0.00000000000E+00  0.72735643743E+02  0.72735643788E+02  0.25500000000E-02 0. -1.
          2   -1    0    0  501    0  0.00000000000E+00 -0.00000000000E+00 -0.21762391940E+04  0.21762391940E+04  0.25500000000E-02 0.  1.
    5000001    1    1    2    0    0  0.16951727433E+03 -0.31970906018E+03 -0.10820834243E+04  0.11528571146E+04  0.16500000000E+03 0.  0.
   -5000001    1    1    2    0    0 -0.16951727433E+03  0.31970906018E+03 -0.10214201260E+04  0.10961177232E+04  0.16500000000E+03 0.  0.
<mgrwt>
<rscale>  0 0.79571392E+03</rscale>
<asrwt>0</asrwt>
<pdfrwt beam="1">  1        2 0.33480598E+00 0.79571392E+03</pdfrwt>
<pdfrwt beam="2">  1       -2 0.11190101E-01 0.79571392E+03</pdfrwt>
<totfact> 0.31154987E+02</totfact>
</mgrwt>
</event>
<event>
 4    1  0.1573232E-005  0.4172114E+03  0.7818608E-02  0.1037978E+00
          2   -1    0    0  501    0  0.00000000000E+00  0.00000000000E+00  0.80248073128E+03  0.80248073128E+03  0.25500000000E-02 0.  1.
         -2   -1    0    0    0  501 -0.00000000000E+00 -0.00000000000E+00 -0.54227258260E+02  0.54227258320E+02  0.25500000000E-02 0. -1.
    5000001    1    1    2    0    0  0.84014277630E+02 -0.94691956302E+02  0.40763985389E+03  0.45762453596E+03  0.16500000000E+03 0.  0.
   -5000001    1    1    2    0    0 -0.84014277630E+02  0.94691956302E+02  0.34061361912E+03  0.39908345364E+03  0.16500000000E+03 0.  0.
<mgrwt>
<rscale>  0 0.41721136E+03</rscale>
<asrwt>0</asrwt>
<pdfrwt beam="1">  1        2 0.12345856E+00 0.41721136E+03</pdfrwt>
<pdfrwt beam="2">  1       -2 0.83426562E-02 0.41721136E+03</pdfrwt>
<totfact> 0.31427579E+03</totfact>
</mgrwt>
</event>
<event>
 4    1  0.1573232E-005  0.4829224E+03  0.7818608E-02  0.1018335E+00
          2   -1    0    0  501    0  0.00000000000E+00  0.00000000000E+00  0.29358438143E+04  0.29358438143E+04  0.25500000000E-02 0.  1.
         -2   -1    0    0    0  501 -0.00000000000E+00 -0.00000000000E+00 -0.19859201787E+02  0.19859201950E+02  0.25500000000E-02 0. -1.
    5000001    1    1    2    0    0  0.44151002598E+02  0.14905338159E+03  0.19668478511E+04  0.19798691095E+04  0.16500000000E+03 0.  0.
   -5000001    1    1    2    0    0 -0.44151002598E+02 -0.14905338159E+03  0.94913676148E+03  0.97583390676E+03  0.16500000000E+03 0.  0.
<mgrwt>
<rscale>  0 0.48292242E+03</rscale>
<asrwt>0</asrwt>
<pdfrwt beam="1">  1        2 0.45166769E+00 0.48292242E+03</pdfrwt>
<pdfrwt beam="2">  1       -2 0.30552658E-02 0.48292242E+03</pdfrwt>
<totfact> 0.90867527E+02</totfact>
</mgrwt>
</event>
<event>
 4    1  0.1573232E-005  0.4799228E+03  0.7818608E-02  0.1019156E+00
          2   -1    0    0  501    0  0.00000000000E+00  0.00000000000E+00  0.28678925140E+04  0.28678925140E+04  0.25500000000E-02 0.  1.
         -2   -1    0    0    0  501 -0.00000000000E+00 -0.00000000000E+00 -0.20077975858E+02  0.20077976020E+02  0.25500000000E-02 0. -1.
    5000001    1    1    2    0    0 -0.10410528746E+03 -0.13969023191E+03  0.14376362103E+04  0.14575232913E+04  0.16500000000E+03 0.  0.
   -5000001    1    1    2    0    0  0.10410528746E+03  0.13969023191E+03  0.14101783279E+04  0.14304471987E+04  0.16500000000E+03 0.  0.
<mgrwt>
<rscale>  0 0.47992281E+03</rscale>
<asrwt>0</asrwt>
<pdfrwt beam="1">  1        2 0.44121400E+00 0.47992281E+03</pdfrwt>
<pdfrwt beam="2">  1       -2 0.30889210E-02 0.47992281E+03</pdfrwt>
<totfact> 0.98098284E+02</totfact>
</mgrwt>
</event>
<event>
 4    1  0.1573232E-005  0.8050907E+03  0.7818608E-02  0.9552678E-01
          2   -1    0    0  501    0  0.00000000000E+00  0.00000000000E+00  0.42137113890E+04  0.42137113890E+04  0.25500000000E-02 0.  1.
         -2   -1    0    0    0  501 -0.00000000000E+00 -0.00000000000E+00 -0.38456069096E+02  0.38456069181E+02  0.25500000000E-02 0. -1.
    5000001    1    1    2    0    0 -0.11186458990E+03  0.15328737296E+03  0.37478243332E+04  0.37562511814E+04  0.16500000000E+03 0.  0.
   -5000001    1    1    2    0    0  0.11186458990E+03 -0.15328737296E+03  0.42743098664E+03  0.49591627673E+03  0.16500000000E+03 0.  0.
<mgrwt>
<rscale>  0 0.80509074E+03</rscale>
<asrwt>0</asrwt>
<pdfrwt beam="1">  1        2 0.64826306E+00 0.80509074E+03</pdfrwt>
<pdfrwt beam="2">  1       -2 0.59163204E-02 0.80509074E+03</pdfrwt>
<totfact> 0.39632935E+01</totfact>
</mgrwt>
</event>
<event>
 4    1  0.1573232E-005  0.2483702E+04  0.7818608E-02  0.8408815E-01
         -2   -1    0    0    0  501 -0.00000000000E+00  0.00000000000E+00  0.61381791098E+03  0.61381791098E+03  0.25500000000E-02 0. -1.
          2   -1    0    0  501    0  0.00000000000E+00 -0.00000000000E+00 -0.25124609626E+04  0.25124609626E+04  0.25500000000E-02 0.  1.
    5000001    1    1    2    0    0 -0.86590118461E+03 -0.35307096937E+03 -0.19567081421E+04  0.21749426945E+04  0.16500000000E+03 0.  0.
   -5000001    1    1    2    0    0  0.86590118461E+03  0.35307096937E+03  0.58065090493E+02  0.95133617909E+03  0.16500000000E+03 0.  0.
<mgrwt>
<rscale>  0 0.24837017E+04</rscale>
<asrwt>0</asrwt>
<pdfrwt beam="1">  1        2 0.38653245E+00 0.24837017E+04</pdfrwt>
<pdfrwt beam="2">  1       -2 0.94433526E-01 0.24837017E+04</pdfrwt>
<totfact> 0.28893024E+00</totfact>
</mgrwt>
</event>
<event>
 4    1  0.1573232E-005  0.5357452E+03  0.7818608E-02  0.1004848E+00
         -2   -1    0    0    0  501 -0.00000000000E+00  0.00000000000E+00  0.11568007606E+03  0.11568007609E+03  0.25500000000E-02 0. -1.
          2   -1    0    0  501    0  0.00000000000E+00 -0.00000000000E+00 -0.62029458565E+03  0.62029458565E+03  0.25500000000E-02 0.  1.
    5000001    1    1    2    0    0 -0.13110339289E+03 -0.84394332287E+02 -0.56964392159E+02  0.23405222691E+03  0.16500000000E+03 0.  0.
   -5000001    1    1    2    0    0  0.13110339289E+03  0.84394332287E+02 -0.44765011742E+03  0.50192243482E+03  0.16500000000E+03 0.  0.
<mgrwt>
<rscale>  0 0.53574518E+03</rscale>
<asrwt>0</asrwt>
<pdfrwt beam="1">  1        2 0.95429935E-01 0.53574518E+03</pdfrwt>
<pdfrwt beam="2">  1       -2 0.17796935E-01 0.53574518E+03</pdfrwt>
<totfact> 0.12480602E+03</totfact>
</mgrwt>
</event>
<event>
 4    1  0.1573232E-005  0.3856720E+03  0.7818608E-02  0.1048857E+00
         -2   -1    0    0    0  501 -0.00000000000E+00  0.00000000000E+00  0.29588641476E+02  0.29588641586E+02  0.25500000000E-02 0. -1.
          2   -1    0    0  501    0  0.00000000000E+00 -0.00000000000E+00 -0.12567565123E+04  0.12567565123E+04  0.25500000000E-02 0.  1.
    5000001    1    1    2    0    0  0.64878101426E+02  0.74132403338E+02 -0.56022518021E+03  0.59226854873E+03  0.16500000000E+03 0.  0.
   -5000001    1    1    2    0    0 -0.64878101426E+02 -0.74132403338E+02 -0.66694269059E+03  0.69407660514E+03  0.16500000000E+03 0.  0.
<mgrwt>
<rscale>  0 0.38567197E+03</rscale>
<asrwt>0</asrwt>
<pdfrwt beam="1">  1        2 0.19334711E+00 0.38567197E+03</pdfrwt>
<pdfrwt beam="2">  1       -2 0.45520997E-02 0.38567197E+03</pdfrwt>
<totfact> 0.42055337E+03</totfact>
</mgrwt>
</event>
<event>
 4    1  0.1573232E-005  0.4275615E+03  0.7818608E-02  0.1034633E+00
          2   -1    0    0  501    0  0.00000000000E+00  0.00000000000E+00  0.38596791887E+03  0.38596791888E+03  0.25500000000E-02 0.  1.
         -2   -1    0    0    0  501 -0.00000000000E+00 -0.00000000000E+00 -0.11840935534E+03  0.11840935537E+03  0.25500000000E-02 0. -1.
    5000001    1    1    2    0    0  0.65735734991E+02  0.11475261012E+03  0.17085635969E+03  0.27185702866E+03  0.16500000000E+03 0.  0.
   -5000001    1    1    2    0    0 -0.65735734991E+02 -0.11475261012E+03  0.96702203843E+02  0.23252024559E+03  0.16500000000E+03 0.  0.
<mgrwt>
<rscale>  0 0.42756152E+03</rscale>
<asrwt>0</asrwt>
<pdfrwt beam="1">  1        2 0.59379680E-01 0.42756152E+03</pdfrwt>
<pdfrwt beam="2">  1       -2 0.18216824E-01 0.42756152E+03</pdfrwt>
<totfact> 0.20621530E+03</totfact>
</mgrwt>
</event>
<event>
 4    1  0.1573232E-005  0.5805874E+03  0.7818608E-02  0.9946520E-01
         -2   -1    0    0    0  501 -0.00000000000E+00  0.00000000000E+00  0.22930796824E+03  0.22930796826E+03  0.25500000000E-02 0.  1.
          2   -1    0    0  501    0  0.00000000000E+00 -0.00000000000E+00 -0.36749890158E+03  0.36749890159E+03  0.25500000000E-02 0. -1.
    5000001    1    1    2    0    0 -0.21069523287E+03  0.11102399877E+03 -0.50518037374E+02  0.29410182175E+03  0.16500000000E+03 0.  0.
   -5000001    1    1    2    0    0  0.21069523287E+03 -0.11102399877E+03 -0.87672895967E+02  0.30270504810E+03  0.16500000000E+03 0.  0.
<mgrwt>
<rscale>  0 0.58058738E+03</rscale>
<asrwt>0</asrwt>
<pdfrwt beam="1">  1        2 0.56538292E-01 0.58058738E+03</pdfrwt>
<pdfrwt beam="2">  1       -2 0.35278149E-01 0.58058738E+03</pdfrwt>
<totfact> 0.66414306E+02</totfact>
</mgrwt>
</event>
<event>
 4    1  0.1573232E-005  0.4512305E+03  0.7818608E-02  0.1027356E+00
         -2   -1    0    0    0  501 -0.00000000000E+00  0.00000000000E+00  0.28798644552E+02  0.28798644665E+02  0.25500000000E-02 0. -1.
          2   -1    0    0  501    0  0.00000000000E+00 -0.00000000000E+00 -0.17675222751E+04  0.17675222751E+04  0.25500000000E-02 0.  1.
    5000001    1    1    2    0    0  0.23837716152E+02 -0.84382192438E+02 -0.36598707097E+03  0.41092593886E+03  0.16500000000E+03 0.  0.
   -5000001    1    1    2    0    0 -0.23837716152E+02  0.84382192438E+02 -0.13727365595E+04  0.13853949809E+04  0.16500000000E+03 0.  0.
<mgrwt>
<rscale>  0 0.45123052E+03</rscale>
<asrwt>0</asrwt>
<pdfrwt beam="1">  1        2 0.27192642E+00 0.45123052E+03</pdfrwt>
<pdfrwt beam="2">  1       -2 0.44305621E-02 0.45123052E+03</pdfrwt>
<totfact> 0.23023050E+03</totfact>
</mgrwt>
</event>
<event>
 4    1  0.1573232E-005  0.4278295E+03  0.7818608E-02  0.1034548E+00
         -2   -1    0    0    0  501 -0.00000000000E+00  0.00000000000E+00  0.11021831905E+03  0.11021831908E+03  0.25500000000E-02 0. -1.
          2   -1    0    0  501    0  0.00000000000E+00 -0.00000000000E+00 -0.41517169305E+03  0.41517169306E+03  0.25500000000E-02 0.  1.
    5000001    1    1    2    0    0  0.49979098491E+02 -0.14599651073E+02  0.19996159944E+01  0.17303195821E+03  0.16500000000E+03 0.  0.
   -5000001    1    1    2    0    0 -0.49979098491E+02  0.14599651073E+02 -0.30695299000E+03  0.35235805392E+03  0.16500000000E+03 0.  0.
<mgrwt>
<rscale>  0 0.42782953E+03</rscale>
<asrwt>0</asrwt>
<pdfrwt beam="1">  1        2 0.63872567E-01 0.42782953E+03</pdfrwt>
<pdfrwt beam="2">  1       -2 0.16956665E-01 0.42782953E+03</pdfrwt>
<totfact> 0.21490681E+03</totfact>
</mgrwt>
</event>
<event>
 4    1  0.1573232E-005  0.4430432E+03  0.7818608E-02  0.1029817E+00
          2   -1    0    0  501    0  0.00000000000E+00  0.00000000000E+00  0.23215325561E+04  0.23215325561E+04  0.25500000000E-02 0.  1.
         -2   -1    0    0    0  501 -0.00000000000E+00 -0.00000000000E+00 -0.21137684877E+02  0.21137685030E+02  0.25500000000E-02 0. -1.
    5000001    1    1    2    0    0  0.88174804489E+02  0.99814459149E+02  0.14891496643E+04  0.15041706835E+04  0.16500000000E+03 0.  0.
   -5000001    1    1    2    0    0 -0.88174804489E+02 -0.99814459149E+02  0.81124520694E+03  0.83849955766E+03  0.16500000000E+03 0.  0.
<mgrwt>
<rscale>  0 0.44304322E+03</rscale>
<asrwt>0</asrwt>
<pdfrwt beam="1">  1        2 0.35715871E+00 0.44304322E+03</pdfrwt>
<pdfrwt beam="2">  1       -2 0.32519529E-02 0.44304322E+03</pdfrwt>
<totfact> 0.18558809E+03</totfact>
</mgrwt>
</event>
<event>
 4    1  0.1573232E-005  0.5706194E+03  0.7818608E-02  0.9968309E-01
          2   -1    0    0  501    0  0.00000000000E+00  0.00000000000E+00  0.30696252599E+04  0.30696252599E+04  0.25500000000E-02 0.  1.
         -2   -1    0    0    0  501 -0.00000000000E+00 -0.00000000000E+00 -0.26518421370E+02  0.26518421493E+02  0.25500000000E-02 0. -1.
    5000001    1    1    2    0    0  0.12636445532E+03  0.19010653250E+03  0.12747987947E+04  0.13055441151E+04  0.16500000000E+03 0.  0.
   -5000001    1    1    2    0    0 -0.12636445532E+03 -0.19010653250E+03  0.17683080438E+04  0.17905995664E+04  0.16500000000E+03 0.  0.
<mgrwt>
<rscale>  0 0.57061937E+03</rscale>
<asrwt>0</asrwt>
<pdfrwt beam="1">  1        2 0.47224995E+00 0.57061937E+03</pdfrwt>
<pdfrwt beam="2">  1       -2 0.40797579E-02 0.57061937E+03</pdfrwt>
<totfact> 0.48034596E+02</totfact>
</mgrwt>
</event>
<event>
 4    1  0.1573232E-005  0.3693837E+03  0.7818608E-02  0.1054929E+00
         -2   -1    0    0    0  501 -0.00000000000E+00  0.00000000000E+00  0.20854787995E+03  0.20854787996E+03  0.25500000000E-02 0. -1.
          2   -1    0    0  501    0  0.00000000000E+00 -0.00000000000E+00 -0.16356478063E+03  0.16356478065E+03  0.25500000000E-02 0.  1.
    5000001    1    1    2    0    0 -0.74998104992E+02 -0.76997427722E+01  0.57418809436E+02  0.19027853654E+03  0.16500000000E+03 0.  0.
   -5000001    1    1    2    0    0  0.74998104992E+02  0.76997427722E+01 -0.12435710123E+02  0.18183412407E+03  0.16500000000E+03 0.  0.
<mgrwt>
<rscale>  0 0.36938375E+03</rscale>
<asrwt>0</asrwt>
<pdfrwt beam="1">  1        2 0.25163813E-01 0.36938375E+03</pdfrwt>
<pdfrwt beam="2">  1       -2 0.32084289E-01 0.36938375E+03</pdfrwt>
<totfact> 0.19406019E+03</totfact>
</mgrwt>
</event>
<event>
 4    1  0.1573232E-005  0.9645671E+03  0.7818608E-02  0.9348284E-01
         -2   -1    0    0    0  501 -0.00000000000E+00  0.00000000000E+00  0.92971851432E+03  0.92971851432E+03  0.25500000000E-02 0. -1.
          2   -1    0    0  501    0  0.00000000000E+00 -0.00000000000E+00 -0.25018048853E+03  0.25018048854E+03  0.25500000000E-02 0.  1.
    5000001    1    1    2    0    0  0.20684133060E+03  0.35071669336E+03  0.96387205741E+02  0.44977886619E+03  0.16500000000E+03 0.  0.
   -5000001    1    1    2    0    0 -0.20684133060E+03 -0.35071669336E+03  0.58315082005E+03  0.73012013667E+03  0.16500000000E+03 0.  0.
<mgrwt>
<rscale>  0 0.96456712E+03</rscale>
<asrwt>0</asrwt>
<pdfrwt beam="1">  1        2 0.38489307E-01 0.96456712E+03</pdfrwt>
<pdfrwt beam="2">  1       -2 0.14303361E+00 0.96456712E+03</pdfrwt>
<totfact> 0.45643382E+01</totfact>
</mgrwt>
</event>
<event>
 4    1  0.1573232E-005  0.6575784E+03  0.7818608E-02  0.9792662E-01
          2   -1    0    0  501    0  0.00000000000E+00  0.00000000000E+00  0.28564140923E+03  0.28564140924E+03  0.25500000000E-02 0.  1.
         -2   -1    0    0    0  501 -0.00000000000E+00 -0.00000000000E+00 -0.37845475083E+03  0.37845475084E+03  0.25500000000E-02 0. -1.
    5000001    1    1    2    0    0  0.13241431665E+03 -0.17358784410E+03 -0.23045198358E+03  0.35777004850E+03  0.16500000000E+03 0.  0.
   -5000001    1    1    2    0    0 -0.13241431665E+03  0.17358784410E+03  0.13763864198E+03  0.30632611158E+03  0.16500000000E+03 0.  0.
<mgrwt>
<rscale>  0 0.65757843E+03</rscale>
<asrwt>0</asrwt>
<pdfrwt beam="1">  1        2 0.43944832E-01 0.65757843E+03</pdfrwt>
<pdfrwt beam="2">  1       -2 0.58223808E-01 0.65757843E+03</pdfrwt>
<totfact> 0.32317519E+02</totfact>
</mgrwt>
</event>
<event>
 4    1  0.1573232E-005  0.5611256E+03  0.7818608E-02  0.9989511E-01
          2   -1    0    0  501    0  0.00000000000E+00  0.00000000000E+00  0.85180753157E+03  0.85180753158E+03  0.25500000000E-02 0.  1.
         -2   -1    0    0    0  501 -0.00000000000E+00 -0.00000000000E+00 -0.92409932754E+02  0.92409932790E+02  0.25500000000E-02 0. -1.
    5000001    1    1    2    0    0 -0.17154520717E+03  0.99660128006E+02  0.19436582025E+03  0.32305258287E+03  0.16500000000E+03 0.  0.
   -5000001    1    1    2    0    0  0.17154520717E+03 -0.99660128006E+02  0.56503177857E+03  0.62116488150E+03  0.16500000000E+03 0.  0.
<mgrwt>
<rscale>  0 0.56112557E+03</rscale>
<asrwt>0</asrwt>
<pdfrwt beam="1">  1        2 0.13104731E+00 0.56112557E+03</pdfrwt>
<pdfrwt beam="2">  1       -2 0.14216912E-01 0.56112557E+03</pdfrwt>
<totfact> 0.12202822E+03</totfact>
</mgrwt>
</event>
<event>
 4    1  0.1573232E-005  0.3910358E+03  0.7818608E-02  0.1046929E+00
          2   -1    0    0  501    0  0.00000000000E+00  0.00000000000E+00  0.12896651212E+04  0.12896651212E+04  0.25500000000E-02 0.  1.
         -2   -1    0    0    0  501 -0.00000000000E+00 -0.00000000000E+00 -0.29641215374E+02  0.29641215484E+02  0.25500000000E-02 0. -1.
    5000001    1    1    2    0    0 -0.63477693745E+02  0.55077877515E+02  0.84176809971E+03  0.86189414889E+03  0.16500000000E+03 0.  0.
   -5000001    1    1    2    0    0  0.63477693745E+02 -0.55077877515E+02  0.41825580607E+03  0.45741218775E+03  0.16500000000E+03 0.  0.
<mgrwt>
<rscale>  0 0.39103576E+03</rscale>
<asrwt>0</asrwt>
<pdfrwt beam="1">  1        2 0.19840999E+00 0.39103576E+03</pdfrwt>
<pdfrwt beam="2">  1       -2 0.45601876E-02 0.39103576E+03</pdfrwt>
<totfact> 0.40183406E+03</totfact>
</mgrwt>
</event>
<event>
 4    1  0.1573232E-005  0.3476777E+03  0.7818608E-02  0.1063572E+00
          2   -1    0    0  501    0  0.00000000000E+00  0.00000000000E+00  0.58792062015E+03  0.58792062016E+03  0.25500000000E-02 0. -1.
         -2   -1    0    0    0  501 -0.00000000000E+00 -0.00000000000E+00 -0.51401414469E+02  0.51401414533E+02  0.25500000000E-02 0.  1.
    5000001    1    1    2    0    0 -0.45756418613E+02  0.25175577872E+02  0.23818512219E+03  0.29442250593E+03  0.16500000000E+03 0.  0.
   -5000001    1    1    2    0    0  0.45756418613E+02 -0.25175577872E+02  0.29833408349E+03  0.34489952876E+03  0.16500000000E+03 0.  0.
<mgrwt>
<rscale>  0 0.34767773E+03</rscale>
<asrwt>0</asrwt>
<pdfrwt beam="1">  1        2 0.90449323E-01 0.34767773E+03</pdfrwt>
<pdfrwt beam="2">  1       -2 0.79079102E-02 0.34767773E+03</pdfrwt>
<totfact> 0.49946404E+03</totfact>
</mgrwt>
</event>
<event>
 4    1  0.1573232E-005  0.6483883E+03  0.7818608E-02  0.9809808E-01
          2   -1    0    0  501    0  0.00000000000E+00  0.00000000000E+00  0.65163367835E+03  0.65163367835E+03  0.25500000000E-02 0.  1.
         -2   -1    0    0    0  501 -0.00000000000E+00 -0.00000000000E+00 -0.16128977765E+03  0.16128977767E+03  0.25500000000E-02 0. -1.
    5000001    1    1    2    0    0 -0.23467646251E+03  0.71137781202E+02  0.78166456483E+02  0.30572638239E+03  0.16500000000E+03 0.  0.
   -5000001    1    1    2    0    0  0.23467646251E+03 -0.71137781202E+02  0.41217744422E+03  0.50719707362E+03  0.16500000000E+03 0.  0.
<mgrwt>
<rscale>  0 0.64838831E+03</rscale>
<asrwt>0</asrwt>
<pdfrwt beam="1">  1        2 0.10025133E+00 0.64838831E+03</pdfrwt>
<pdfrwt beam="2">  1       -2 0.24813812E-01 0.64838831E+03</pdfrwt>
<totfact> 0.65492393E+02</totfact>
</mgrwt>
</event>
<event>
 4    1  0.1573232E-005  0.8916737E+03  0.7818608E-02  0.9436050E-01
          2   -1    0    0  501    0  0.00000000000E+00  0.00000000000E+00  0.10903246832E+04  0.10903246832E+04  0.25500000000E-02 0.  1.
         -2   -1    0    0    0  501 -0.00000000000E+00 -0.00000000000E+00 -0.18230395303E+03  0.18230395305E+03  0.25500000000E-02 0. -1.
    5000001    1    1    2    0    0  0.15348152576E+03 -0.38321062481E+03  0.50216848450E+03  0.67067514383E+03  0.16500000000E+03 0.  0.
   -5000001    1    1    2    0    0 -0.15348152576E+03  0.38321062481E+03  0.40585224564E+03  0.60195349240E+03  0.16500000000E+03 0.  0.
<mgrwt>
<rscale>  0 0.89167371E+03</rscale>
<asrwt>0</asrwt>
<pdfrwt beam="1">  1        2 0.16774226E+00 0.89167371E+03</pdfrwt>
<pdfrwt beam="2">  1       -2 0.28046761E-01 0.89167371E+03</pdfrwt>
<totfact> 0.25703404E+02</totfact>
</mgrwt>
</event>
<event>
 4    1  0.1573232E-005  0.5019129E+03  0.7818608E-02  0.1013281E+00
         -2   -1    0    0    0  501 -0.00000000000E+00  0.00000000000E+00  0.13705961115E+03  0.13705961118E+03  0.25500000000E-02 0. -1.
          2   -1    0    0  501    0  0.00000000000E+00 -0.00000000000E+00 -0.45950179960E+03  0.45950179960E+03  0.25500000000E-02 0.  1.
    5000001    1    1    2    0    0 -0.68186731624E+02 -0.16172734653E+03 -0.77606064639E+02  0.25308667735E+03  0.16500000000E+03 0.  0.
   -5000001    1    1    2    0    0  0.68186731624E+02  0.16172734653E+03 -0.24483612381E+03  0.34347473343E+03  0.16500000000E+03 0.  0.
<mgrwt>
<rscale>  0 0.50191289E+03</rscale>
<asrwt>0</asrwt>
<pdfrwt beam="1">  1        2 0.70692584E-01 0.50191289E+03</pdfrwt>
<pdfrwt beam="2">  1       -2 0.21086094E-01 0.50191289E+03</pdfrwt>
<totfact> 0.13196003E+03</totfact>
</mgrwt>
</event>
<event>
 4    1  0.1573232E-005  0.7187481E+03  0.7818608E-02  0.9685697E-01
          2   -1    0    0  501    0  0.00000000000E+00  0.00000000000E+00  0.55425094723E+03  0.55425094723E+03  0.25500000000E-02 0.  1.
         -2   -1    0    0    0  501 -0.00000000000E+00 -0.00000000000E+00 -0.23301663560E+03  0.23301663561E+03  0.25500000000E-02 0. -1.
    5000001    1    1    2    0    0 -0.16807343158E+03  0.17383319684E+03 -0.67722171167E+02  0.30046289487E+03  0.16500000000E+03 0.  0.
   -5000001    1    1    2    0    0  0.16807343158E+03 -0.17383319684E+03  0.38895648280E+03  0.48680468798E+03  0.16500000000E+03 0.  0.
<mgrwt>
<rscale>  0 0.71874805E+03</rscale>
<asrwt>0</asrwt>
<pdfrwt beam="1">  1        2 0.85269376E-01 0.71874805E+03</pdfrwt>
<pdfrwt beam="2">  1       -2 0.35848714E-01 0.71874805E+03</pdfrwt>
<totfact> 0.40191443E+02</totfact>
</mgrwt>
</event>
<event>
 4    1  0.1573232E-005  0.3627384E+03  0.7818608E-02  0.1057505E+00
          2   -1    0    0  501    0  0.00000000000E+00  0.00000000000E+00  0.23901997588E+04  0.23901997588E+04  0.25500000000E-02 0.  1.
         -2   -1    0    0    0  501 -0.00000000000E+00 -0.00000000000E+00 -0.13762358799E+02  0.13762359035E+02  0.25500000000E-02 0. -1.
    5000001    1    1    2    0    0 -0.57813645233E+02 -0.40792324216E+02  0.10175290019E+04  0.10332457118E+04  0.16500000000E+03 0.  0.
   -5000001    1    1    2    0    0  0.57813645233E+02  0.40792324216E+02  0.13589083982E+04  0.13707164061E+04  0.16500000000E+03 0.  0.
<mgrwt>
<rscale>  0 0.36273840E+03</rscale>
<asrwt>0</asrwt>
<pdfrwt beam="1">  1        2 0.36772266E+00 0.36273840E+03</pdfrwt>
<pdfrwt beam="2">  1       -2 0.21172882E-02 0.36273840E+03</pdfrwt>
<totfact> 0.32552062E+03</totfact>
</mgrwt>
</event>
<event>
 4    1  0.1573232E-005  0.4756030E+03  0.7818608E-02  0.1020351E+00
          2   -1    0    0  501    0  0.00000000000E+00  0.00000000000E+00  0.57333802383E+03  0.57333802383E+03  0.25500000000E-02 0.  1.
         -2   -1    0    0    0  501 -0.00000000000E+00 -0.00000000000E+00 -0.98632130992E+02  0.98632131025E+02  0.25500000000E-02 0. -1.
    5000001    1    1    2    0    0 -0.52093280302E+02  0.11115875310E+03  0.40604029491E+03  0.45515239133E+03  0.16500000000E+03 0.  0.
   -5000001    1    1    2    0    0  0.52093280302E+02 -0.11115875310E+03  0.68665597927E+02  0.21681776353E+03  0.16500000000E+03 0.  0.
<mgrwt>
<rscale>  0 0.47560299E+03</rscale>
<asrwt>0</asrwt>
<pdfrwt beam="1">  1        2 0.88205850E-01 0.47560299E+03</pdfrwt>
<pdfrwt beam="2">  1       -2 0.15174174E-01 0.47560299E+03</pdfrwt>
<totfact> 0.17958595E+03</totfact>
</mgrwt>
</event>
<event>
 4    1  0.1573232E-005  0.6097631E+03  0.7818608E-02  0.9885355E-01
          2   -1    0    0  501    0  0.00000000000E+00  0.00000000000E+00  0.49505626414E+03  0.49505626415E+03  0.25500000000E-02 0.  1.
         -2   -1    0    0    0  501 -0.00000000000E+00 -0.00000000000E+00 -0.18776198930E+03  0.18776198932E+03  0.25500000000E-02 0. -1.
    5000001    1    1    2    0    0 -0.18968822710E+03  0.15711929035E+03  0.23330055616E+03  0.37725620526E+03  0.16500000000E+03 0.  0.
   -5000001    1    1    2    0    0  0.18968822710E+03 -0.15711929035E+03  0.73993718681E+02  0.30556204821E+03  0.16500000000E+03 0.  0.
<mgrwt>
<rscale>  0 0.60976307E+03</rscale>
<asrwt>0</asrwt>
<pdfrwt beam="1">  1        2 0.76162501E-01 0.60976307E+03</pdfrwt>
<pdfrwt beam="2">  1       -2 0.28886460E-01 0.60976307E+03</pdfrwt>
<totfact> 0.68901499E+02</totfact>
</mgrwt>
</event>
<event>
 4    1  0.1573232E-005  0.3848854E+03  0.7818608E-02  0.1049143E+00
          2   -1    0    0  501    0  0.00000000000E+00  0.00000000000E+00  0.18940008267E+04  0.18940008267E+04  0.25500000000E-02 0.  1.
         -2   -1    0    0    0  501 -0.00000000000E+00 -0.00000000000E+00 -0.19553417551E+02  0.19553417717E+02  0.25500000000E-02 0. -1.
    5000001    1    1    2    0    0 -0.28258710808E+02 -0.73907292412E+02  0.64106644908E+03  0.66667235937E+03  0.16500000000E+03 0.  0.
   -5000001    1    1    2    0    0  0.28258710808E+02  0.73907292412E+02  0.12333809601E+04  0.12468818851E+04  0.16500000000E+03 0.  0.
<mgrwt>
<rscale>  0 0.38488538E+03</rscale>
<asrwt>0</asrwt>
<pdfrwt beam="1">  1        2 0.29138463E+00 0.38488538E+03</pdfrwt>
<pdfrwt beam="2">  1       -2 0.30082192E-02 0.38488538E+03</pdfrwt>
<totfact> 0.35544323E+03</totfact>
</mgrwt>
</event>
<event>
 4    1  0.1573232E-005  0.3905392E+03  0.7818608E-02  0.1047106E+00
         -2   -1    0    0    0  501 -0.00000000000E+00  0.00000000000E+00  0.18175999948E+03  0.18175999950E+03  0.25500000000E-02 0. -1.
          2   -1    0    0  501    0  0.00000000000E+00 -0.00000000000E+00 -0.20978330216E+03  0.20978330218E+03  0.25500000000E-02 0.  1.
    5000001    1    1    2    0    0  0.71830884969E+01  0.10360376914E+03 -0.30347493778E+01  0.19498601859E+03  0.16500000000E+03 0.  0.
   -5000001    1    1    2    0    0 -0.71830884969E+01 -0.10360376914E+03 -0.24988553305E+02  0.19655728309E+03  0.16500000000E+03 0.  0.
<mgrwt>
<rscale>  0 0.39053918E+03</rscale>
<asrwt>0</asrwt>
<pdfrwt beam="1">  1        2 0.32274354E-01 0.39053918E+03</pdfrwt>
<pdfrwt beam="2">  1       -2 0.27963077E-01 0.39053918E+03</pdfrwt>
<totfact> 0.18923660E+03</totfact>
</mgrwt>
</event>
<event>
 4    1  0.1573232E-005  0.5481008E+03  0.7818608E-02  0.1001934E+00
          2   -1    0    0  501    0  0.00000000000E+00  0.00000000000E+00  0.14567487995E+04  0.14567487995E+04  0.25500000000E-02 0.  1.
         -2   -1    0    0    0  501 -0.00000000000E+00 -0.00000000000E+00 -0.51555644920E+02  0.51555644983E+02  0.25500000000E-02 0. -1.
    5000001    1    1    2    0    0  0.18235908433E+03 -0.44272368546E+02  0.10122740814E+04  0.10426594334E+04  0.16500000000E+03 0.  0.
   -5000001    1    1    2    0    0 -0.18235908433E+03  0.44272368546E+02  0.39291907320E+03  0.46564501107E+03  0.16500000000E+03 0.  0.
<mgrwt>
<rscale>  0 0.54810081E+03</rscale>
<asrwt>0</asrwt>
<pdfrwt beam="1">  1        2 0.22411523E+00 0.54810081E+03</pdfrwt>
<pdfrwt beam="2">  1       -2 0.79316365E-02 0.54810081E+03</pdfrwt>
<totfact> 0.13644406E+03</totfact>
</mgrwt>
</event>
<event>
 4    1  0.1573232E-005  0.4906806E+03  0.7818608E-02  0.1016240E+00
          2   -1    0    0  501    0  0.00000000000E+00  0.00000000000E+00  0.13805441776E+03  0.13805441778E+03  0.25500000000E-02 0.  1.
         -2   -1    0    0    0  501 -0.00000000000E+00 -0.00000000000E+00 -0.43600105543E+03  0.43600105544E+03  0.25500000000E-02 0. -1.
    5000001    1    1    2    0    0  0.14053964378E+03  0.14889210299E+02 -0.15614145854E+02  0.21781157363E+03  0.16500000000E+03 0.  0.
   -5000001    1    1    2    0    0 -0.14053964378E+03 -0.14889210299E+02 -0.28233249182E+03  0.35624389959E+03  0.16500000000E+03 0.  0.
<mgrwt>
<rscale>  0 0.49068064E+03</rscale>
<asrwt>0</asrwt>
<pdfrwt beam="1">  1        2 0.21239141E-01 0.49068064E+03</pdfrwt>
<pdfrwt beam="2">  1       -2 0.67077085E-01 0.49068064E+03</pdfrwt>
<totfact> 0.54434906E+02</totfact>
</mgrwt>
</event>
<event>
 4    1  0.1573232E-005  0.5237904E+03  0.7818608E-02  0.1007749E+00
         -2   -1    0    0    0  501 -0.00000000000E+00  0.00000000000E+00  0.56715361021E+03  0.56715361022E+03  0.25500000000E-02 0. -1.
          2   -1    0    0  501    0  0.00000000000E+00 -0.00000000000E+00 -0.12093567560E+03  0.12093567563E+03  0.25500000000E-02 0.  1.
    5000001    1    1    2    0    0 -0.94887494986E+02 -0.17876299338E+03  0.24952197748E+03  0.36117317419E+03  0.16500000000E+03 0.  0.
   -5000001    1    1    2    0    0  0.94887494986E+02  0.17876299338E+03  0.19669595714E+03  0.32691611166E+03  0.16500000000E+03 0.  0.
<mgrwt>
<rscale>  0 0.52379044E+03</rscale>
<asrwt>0</asrwt>
<pdfrwt beam="1">  1        2 0.18605489E-01 0.52379044E+03</pdfrwt>
<pdfrwt beam="2">  1       -2 0.87254401E-01 0.52379044E+03</pdfrwt>
<totfact> 0.35507095E+02</totfact>
</mgrwt>
</event>
<event>
 4    1  0.1573232E-005  0.4388387E+03  0.7818608E-02  0.1031104E+00
          2   -1    0    0  501    0  0.00000000000E+00  0.00000000000E+00  0.39789559459E+04  0.39789559459E+04  0.25500000000E-02 0.  1.
         -2   -1    0    0    0  501 -0.00000000000E+00 -0.00000000000E+00 -0.12099868427E+02  0.12099868696E+02  0.25500000000E-02 0. -1.
    5000001    1    1    2    0    0  0.23453339670E+02  0.12547996703E+03  0.26018974853E+04  0.26102472690E+04  0.16500000000E+03 0.  0.
   -5000001    1    1    2    0    0 -0.23453339670E+02 -0.12547996703E+03  0.13649585921E+04  0.13808085455E+04  0.16500000000E+03 0.  0.
<mgrwt>
<rscale>  0 0.43883867E+03</rscale>
<asrwt>0</asrwt>
<pdfrwt beam="1">  1        2 0.61214632E+00 0.43883867E+03</pdfrwt>
<pdfrwt beam="2">  1       -2 0.18615205E-02 0.43883867E+03</pdfrwt>
<totfact> 0.38299864E+02</totfact>
</mgrwt>
</event>
<event>
 4    1  0.1573232E-005  0.3376906E+03  0.7818608E-02  0.1067784E+00
         -2   -1    0    0    0  501 -0.00000000000E+00  0.00000000000E+00  0.13221734441E+02  0.13221734687E+02  0.25500000000E-02 0. -1.
          2   -1    0    0  501    0  0.00000000000E+00 -0.00000000000E+00 -0.21562025905E+04  0.21562025905E+04  0.25500000000E-02 0.  1.
    5000001    1    1    2    0    0  0.33448100250E+02 -0.11874773024E+02 -0.11029318754E+04  0.11157703650E+04  0.16500000000E+03 0.  0.
   -5000001    1    1    2    0    0 -0.33448100250E+02  0.11874773024E+02 -0.10400489806E+04  0.10536539601E+04  0.16500000000E+03 0.  0.
<mgrwt>
<rscale>  0 0.33769062E+03</rscale>
<asrwt>0</asrwt>
<pdfrwt beam="1">  1        2 0.33172319E+00 0.33769062E+03</pdfrwt>
<pdfrwt beam="2">  1       -2 0.20341147E-02 0.33769062E+03</pdfrwt>
<totfact> 0.46262980E+03</totfact>
</mgrwt>
</event>
<event>
 4    1  0.1573232E-005  0.6474546E+03  0.7818608E-02  0.9811567E-01
         -2   -1    0    0    0  501 -0.00000000000E+00  0.00000000000E+00  0.10396088110E+03  0.10396088114E+03  0.25500000000E-02 0.  1.
          2   -1    0    0  501    0  0.00000000000E+00 -0.00000000000E+00 -0.10080654961E+04  0.10080654961E+04  0.25500000000E-02 0. -1.
    5000001    1    1    2    0    0  0.34555381392E+02  0.21481395221E+03 -0.15340221131E+03  0.31320336346E+03  0.16500000000E+03 0.  0.
   -5000001    1    1    2    0    0 -0.34555381392E+02 -0.21481395221E+03 -0.75070240372E+03  0.79882301382E+03  0.16500000000E+03 0.  0.
<mgrwt>
<rscale>  0 0.64745464E+03</rscale>
<asrwt>0</asrwt>
<pdfrwt beam="1">  1        2 0.15508699E+00 0.64745464E+03</pdfrwt>
<pdfrwt beam="2">  1       -2 0.15993982E-01 0.64745464E+03</pdfrwt>
<totfact> 0.78804308E+02</totfact>
</mgrwt>
</event>
<event>
 4    1  0.1573232E-005  0.4421488E+03  0.7818608E-02  0.1030090E+00
          2   -1    0    0  501    0  0.00000000000E+00  0.00000000000E+00  0.63875979814E+03  0.63875979814E+03  0.25500000000E-02 0.  1.
         -2   -1    0    0    0  501 -0.00000000000E+00 -0.00000000000E+00 -0.76513727517E+02  0.76513727559E+02  0.25500000000E-02 0. -1.
    5000001    1    1    2    0    0 -0.13551936248E+03  0.53566225744E+01  0.18883204356E+03  0.28509074290E+03  0.16500000000E+03 0.  0.
   -5000001    1    1    2    0    0  0.13551936248E+03 -0.53566225744E+01  0.37341402706E+03  0.43018278280E+03  0.16500000000E+03 0.  0.
<mgrwt>
<rscale>  0 0.44214881E+03</rscale>
<asrwt>0</asrwt>
<pdfrwt beam="1">  1        2 0.98270738E-01 0.44214881E+03</pdfrwt>
<pdfrwt beam="2">  1       -2 0.11771343E-01 0.44214881E+03</pdfrwt>
<totfact> 0.24028974E+03</totfact>
</mgrwt>
</event>
<event>
 4    1  0.1573232E-005  0.9974133E+03  0.7818608E-02  0.9311386E-01
          2   -1    0    0  501    0  0.00000000000E+00  0.00000000000E+00  0.92752048080E+03  0.92752048080E+03  0.25500000000E-02 0.  1.
         -2   -1    0    0    0  501 -0.00000000000E+00 -0.00000000000E+00 -0.26814321974E+03  0.26814321975E+03  0.25500000000E-02 0. -1.
    5000001    1    1    2    0    0  0.30165341336E+03  0.33550508697E+03  0.16919343035E+03  0.50932294475E+03  0.16500000000E+03 0.  0.
   -5000001    1    1    2    0    0 -0.30165341336E+03 -0.33550508697E+03  0.49018383071E+03  0.68634075580E+03  0.16500000000E+03 0.  0.
<mgrwt>
<rscale>  0 0.99741331E+03</rscale>
<asrwt>0</asrwt>
<pdfrwt beam="1">  1        2 0.14269546E+00 0.99741331E+03</pdfrwt>
<pdfrwt beam="2">  1       -2 0.41252804E-01 0.99741331E+03</pdfrwt>
<totfact> 0.15605754E+02</totfact>
</mgrwt>
</event>
<event>
 4    1  0.1573232E-005  0.4467848E+03  0.7818608E-02  0.1028685E+00
          2   -1    0    0  501    0  0.00000000000E+00  0.00000000000E+00  0.13017160040E+04  0.13017160040E+04  0.25500000000E-02 0.  1.
         -2   -1    0    0    0  501 -0.00000000000E+00 -0.00000000000E+00 -0.38337212412E+02  0.38337212497E+02  0.25500000000E-02 0. -1.
    5000001    1    1    2    0    0 -0.11264739158E+03  0.99505874839E+02  0.65987492915E+03  0.69659943732E+03  0.16500000000E+03 0.  0.
   -5000001    1    1    2    0    0  0.11264739158E+03 -0.99505874839E+02  0.60350386242E+03  0.64345377916E+03  0.16500000000E+03 0.  0.
<mgrwt>
<rscale>  0 0.44678479E+03</rscale>
<asrwt>0</asrwt>
<pdfrwt beam="1">  1        2 0.20026399E+00 0.44678479E+03</pdfrwt>
<pdfrwt beam="2">  1       -2 0.58980329E-02 0.44678479E+03</pdfrwt>
<totfact> 0.26608000E+03</totfact>
</mgrwt>
</event>
<event>
 4    1  0.1573232E-005  0.4465333E+03  0.7818608E-02  0.1028761E+00
          2   -1    0    0  501    0  0.00000000000E+00  0.00000000000E+00  0.12814896799E+04  0.12814896799E+04  0.25500000000E-02 0.  1.
         -2   -1    0    0    0  501 -0.00000000000E+00 -0.00000000000E+00 -0.38898485680E+02  0.38898485763E+02  0.25500000000E-02 0. -1.
    5000001    1    1    2    0    0  0.63074011098E+01 -0.83845479619E+02  0.99006683997E+03  0.10072374076E+04  0.16500000000E+03 0.  0.
   -5000001    1    1    2    0    0 -0.63074011098E+01  0.83845479619E+02  0.25252435429E+03  0.31315075806E+03  0.16500000000E+03 0.  0.
<mgrwt>
<rscale>  0 0.44653335E+03</rscale>
<asrwt>0</asrwt>
<pdfrwt beam="1">  1        2 0.19715224E+00 0.44653335E+03</pdfrwt>
<pdfrwt beam="2">  1       -2 0.59843830E-02 0.44653335E+03</pdfrwt>
<totfact> 0.26709298E+03</totfact>
</mgrwt>
</event>
<event>
 4    1  0.1573232E-005  0.1152289E+04  0.7818608E-02  0.9155675E-01
          2   -1    0    0  501    0  0.00000000000E+00  0.00000000000E+00  0.63700243084E+03  0.63700243085E+03  0.25500000000E-02 0.  1.
         -2   -1    0    0    0  501 -0.00000000000E+00 -0.00000000000E+00 -0.52110067088E+03  0.52110067089E+03  0.25500000000E-02 0. -1.
    5000001    1    1    2    0    0 -0.46019748802E+03  0.17929390768E+03  0.30574994102E+03  0.60385102446E+03  0.16500000000E+03 0.  0.
   -5000001    1    1    2    0    0  0.46019748802E+03 -0.17929390768E+03 -0.18984818106E+03  0.55425207727E+03  0.16500000000E+03 0.  0.
<mgrwt>
<rscale>  0 0.11522888E+04</rscale>
<asrwt>0</asrwt>
<pdfrwt beam="1">  1        2 0.98000374E-01 0.11522888E+04</pdfrwt>
<pdfrwt beam="2">  1       -2 0.80169334E-01 0.11522888E+04</pdfrwt>
<totfact> 0.62803951E+01</totfact>
</mgrwt>
</event>
<event>
 4    1  0.1573232E-005  0.1323192E+04  0.7818608E-02  0.9011373E-01
          2   -1    0    0  501    0  0.00000000000E+00  0.00000000000E+00  0.10582558978E+04  0.10582558979E+04  0.25500000000E-02 0.  1.
         -2   -1    0    0    0  501 -0.00000000000E+00 -0.00000000000E+00 -0.41361370472E+03  0.41361370473E+03  0.25500000000E-02 0. -1.
    5000001    1    1    2    0    0  0.37128898774E+03 -0.50994809138E+03  0.44709220183E+03  0.79058143493E+03  0.16500000000E+03 0.  0.
   -5000001    1    1    2    0    0 -0.37128898774E+03  0.50994809138E+03  0.19754999129E+03  0.68128816765E+03  0.16500000000E+03 0.  0.
<mgrwt>
<rscale>  0 0.13231918E+04</rscale>
<asrwt>0</asrwt>
<pdfrwt beam="1">  1        2 0.16280860E+00 0.13231918E+04</pdfrwt>
<pdfrwt beam="2">  1       -2 0.63632878E-01 0.13231918E+04</pdfrwt>
<totfact> 0.51731628E+01</totfact>
</mgrwt>
</event>
<event>
 4    1  0.1573232E-005  0.5154123E+03  0.7818608E-02  0.1009833E+00
          2   -1    0    0  501    0  0.00000000000E+00  0.00000000000E+00  0.16042253077E+04  0.16042253077E+04  0.25500000000E-02 0.  1.
         -2   -1    0    0    0  501 -0.00000000000E+00 -0.00000000000E+00 -0.41398461672E+02  0.41398461751E+02  0.25500000000E-02 0. -1.
    5000001    1    1    2    0    0  0.11056135350E+03  0.11424945064E+03  0.40483934389E+03  0.46518452706E+03  0.16500000000E+03 0.  0.
   -5000001    1    1    2    0    0 -0.11056135350E+03 -0.11424945064E+03  0.11579875021E+04  0.11804392424E+04  0.16500000000E+03 0.  0.
<mgrwt>
<rscale>  0 0.51541230E+03</rscale>
<asrwt>0</asrwt>
<pdfrwt beam="1">  1        2 0.24680391E+00 0.51541230E+03</pdfrwt>
<pdfrwt beam="2">  1       -2 0.63689936E-02 0.51541230E+03</pdfrwt>
<totfact> 0.16033799E+03</totfact>
</mgrwt>
</event>
<event>
 4    1  0.1573232E-005  0.6298394E+03  0.7818608E-02  0.9845362E-01
          2   -1    0    0  501    0  0.00000000000E+00  0.00000000000E+00  0.23582828166E+04  0.23582828166E+04  0.25500000000E-02 0.  1.
         -2   -1    0    0    0  501 -0.00000000000E+00 -0.00000000000E+00 -0.42053656556E+02  0.42053656633E+02  0.25500000000E-02 0. -1.
    5000001    1    1    2    0    0  0.26245022468E+03  0.54721120032E+02  0.11251333585E+04  0.11683426705E+04  0.16500000000E+03 0.  0.
   -5000001    1    1    2    0    0 -0.26245022468E+03 -0.54721120032E+02  0.11910958016E+04  0.12319938027E+04  0.16500000000E+03 0.  0.
<mgrwt>
<rscale>  0 0.62983939E+03</rscale>
<asrwt>0</asrwt>
<pdfrwt beam="1">  1        2 0.36281280E+00 0.62983939E+03</pdfrwt>
<pdfrwt beam="2">  1       -2 0.64697922E-02 0.62983939E+03</pdfrwt>
<totfact> 0.60434471E+02</totfact>
</mgrwt>
</event>
<event>
 4    1  0.1573232E-005  0.4745009E+03  0.7818608E-02  0.1020658E+00
          2   -1    0    0  501    0  0.00000000000E+00  0.00000000000E+00  0.28917007898E+04  0.28917007898E+04  0.25500000000E-02 0.  1.
         -2   -1    0    0    0  501 -0.00000000000E+00 -0.00000000000E+00 -0.19465281721E+02  0.19465281888E+02  0.25500000000E-02 0. -1.
    5000001    1    1    2    0    0  0.40405335883E+02 -0.15860924628E+03  0.11435967493E+04  0.11669738682E+04  0.16500000000E+03 0.  0.
   -5000001    1    1    2    0    0 -0.40405335883E+02  0.15860924628E+03  0.17286387588E+04  0.17441922034E+04  0.16500000000E+03 0.  0.
<mgrwt>
<rscale>  0 0.47450088E+03</rscale>
<asrwt>0</asrwt>
<pdfrwt beam="1">  1        2 0.44487709E+00 0.47450088E+03</pdfrwt>
<pdfrwt beam="2">  1       -2 0.29946585E-02 0.47450088E+03</pdfrwt>
<totfact> 0.99589584E+02</totfact>
</mgrwt>
</event>
<event>
 4    1  0.1573232E-005  0.5012411E+03  0.7818608E-02  0.1013455E+00
         -2   -1    0    0    0  501 -0.00000000000E+00  0.00000000000E+00  0.60512592874E+02  0.60512592928E+02  0.25500000000E-02 0. -1.
          2   -1    0    0  501    0  0.00000000000E+00 -0.00000000000E+00 -0.10379768652E+04  0.10379768652E+04  0.25500000000E-02 0.  1.
    5000001    1    1    2    0    0 -0.15905321348E+03 -0.62357716071E+02 -0.66404513795E+03  0.70524276296E+03  0.16500000000E+03 0.  0.
   -5000001    1    1    2    0    0  0.15905321348E+03  0.62357716071E+02 -0.31341913439E+03  0.39324669519E+03  0.16500000000E+03 0.  0.
<mgrwt>
<rscale>  0 0.50124115E+03</rscale>
<asrwt>0</asrwt>
<pdfrwt beam="1">  1        2 0.15968874E+00 0.50124115E+03</pdfrwt>
<pdfrwt beam="2">  1       -2 0.93096305E-02 0.50124115E+03</pdfrwt>
<totfact> 0.18495812E+03</totfact>
</mgrwt>
</event>
<event>
 4    1  0.1573232E-005  0.3746053E+03  0.7818608E-02  0.1052946E+00
         -2   -1    0    0    0  501 -0.00000000000E+00  0.00000000000E+00  0.57714138717E+02  0.57714138773E+02  0.25500000000E-02 0. -1.
          2   -1    0    0  501    0  0.00000000000E+00 -0.00000000000E+00 -0.60786280052E+03  0.60786280053E+03  0.25500000000E-02 0.  1.
    5000001    1    1    2    0    0  0.25768277921E+02  0.68676757540E+02 -0.36349785436E+03  0.40587706426E+03  0.16500000000E+03 0.  0.
   -5000001    1    1    2    0    0 -0.25768277921E+02 -0.68676757540E+02 -0.18665080745E+03  0.25969987504E+03  0.16500000000E+03 0.  0.
<mgrwt>
<rscale>  0 0.37460527E+03</rscale>
<asrwt>0</asrwt>
<pdfrwt beam="1">  1        2 0.93517349E-01 0.37460527E+03</pdfrwt>
<pdfrwt beam="2">  1       -2 0.88790987E-02 0.37460527E+03</pdfrwt>
<totfact> 0.40055325E+03</totfact>
</mgrwt>
</event>
<event>
 4    1  0.1573232E-005  0.4881549E+03  0.7818608E-02  0.1016918E+00
         -2   -1    0    0    0  501 -0.00000000000E+00  0.00000000000E+00  0.27467437294E+02  0.27467437412E+02  0.25500000000E-02 0. -1.
          2   -1    0    0  501    0  0.00000000000E+00 -0.00000000000E+00 -0.21688886220E+04  0.21688886220E+04  0.25500000000E-02 0.  1.
    5000001    1    1    2    0    0  0.63739830664E+02 -0.16816100284E+03 -0.10833755177E+04  0.11105261821E+04  0.16500000000E+03 0.  0.
   -5000001    1    1    2    0    0 -0.63739830664E+02  0.16816100284E+03 -0.10580456670E+04  0.10858298773E+04  0.16500000000E+03 0.  0.
<mgrwt>
<rscale>  0 0.48815494E+03</rscale>
<asrwt>0</asrwt>
<pdfrwt beam="1">  1        2 0.33367504E+00 0.48815494E+03</pdfrwt>
<pdfrwt beam="2">  1       -2 0.42257613E-02 0.48815494E+03</pdfrwt>
<totfact> 0.15035213E+03</totfact>
</mgrwt>
</event>
<event>
 4    1  0.1573232E-005  0.8845245E+03  0.7818608E-02  0.9445136E-01
         -2   -1    0    0    0  501 -0.00000000000E+00  0.00000000000E+00  0.14383226801E+03  0.14383226803E+03  0.25500000000E-02 0. -1.
          2   -1    0    0  501    0  0.00000000000E+00 -0.00000000000E+00 -0.13598888131E+04  0.13598888131E+04  0.25500000000E-02 0.  1.
    5000001    1    1    2    0    0  0.35742951264E+03  0.14163021752E+03 -0.85176774001E+03  0.94897221137E+03  0.16500000000E+03 0.  0.
   -5000001    1    1    2    0    0 -0.35742951264E+03 -0.14163021752E+03 -0.36428880513E+03  0.55474886981E+03  0.16500000000E+03 0.  0.
<mgrwt>
<rscale>  0 0.88452449E+03</rscale>
<asrwt>0</asrwt>
<pdfrwt beam="1">  1        2 0.20921365E+00 0.88452449E+03</pdfrwt>
<pdfrwt beam="2">  1       -2 0.22128042E-01 0.88452449E+03</pdfrwt>
<totfact> 0.27331577E+02</totfact>
</mgrwt>
</event>
<event>
 4    1  0.1573232E-005  0.4866355E+03  0.7818608E-02  0.1017327E+00
         -2   -1    0    0    0  501 -0.00000000000E+00  0.00000000000E+00  0.25518019307E+02  0.25518019435E+02  0.25500000000E-02 0. -1.
          2   -1    0    0  501    0  0.00000000000E+00 -0.00000000000E+00 -0.23200674357E+04  0.23200674357E+04  0.25500000000E-02 0.  1.
    5000001    1    1    2    0    0  0.16578875498E+02  0.15376919353E+03 -0.71458155720E+03  0.74951425995E+03  0.16500000000E+03 0.  0.
   -5000001    1    1    2    0    0 -0.16578875498E+02 -0.15376919353E+03 -0.15799678592E+04  0.15960711952E+04  0.16500000000E+03 0.  0.
<mgrwt>
<rscale>  0 0.48663549E+03</rscale>
<asrwt>0</asrwt>
<pdfrwt beam="1">  1        2 0.35693329E+00 0.48663549E+03</pdfrwt>
<pdfrwt beam="2">  1       -2 0.39258510E-02 0.48663549E+03</pdfrwt>
<totfact> 0.13919883E+03</totfact>
</mgrwt>
</event>
<event>
 4    1  0.1573232E-005  0.3515182E+03  0.7818608E-02  0.1061994E+00
         -2   -1    0    0    0  501 -0.00000000000E+00  0.00000000000E+00  0.43621257389E+02  0.43621257463E+02  0.25500000000E-02 0. -1.
          2   -1    0    0  501    0  0.00000000000E+00 -0.00000000000E+00 -0.70816975499E+03  0.70816975499E+03  0.25500000000E-02 0.  1.
    5000001    1    1    2    0    0 -0.37868430120E+02 -0.47104561453E+02 -0.32444606756E+03  0.36897575593E+03  0.16500000000E+03 0.  0.
   -5000001    1    1    2    0    0  0.37868430120E+02  0.47104561453E+02 -0.34010243004E+03  0.38281525653E+03  0.16500000000E+03 0.  0.
<mgrwt>
<rscale>  0 0.35151817E+03</rscale>
<asrwt>0</asrwt>
<pdfrwt beam="1">  1        2 0.10894918E+00 0.35151817E+03</pdfrwt>
<pdfrwt beam="2">  1       -2 0.67109632E-02 0.35151817E+03</pdfrwt>
<totfact> 0.51671285E+03</totfact>
</mgrwt>
</event>
<event>
 4    1  0.1573232E-005  0.1040158E+04  0.7818608E-02  0.9265565E-01
          2   -1    0    0  501    0  0.00000000000E+00  0.00000000000E+00  0.48574817718E+03  0.48574817719E+03  0.25500000000E-02 0.  1.
         -2   -1    0    0    0  501 -0.00000000000E+00 -0.00000000000E+00 -0.55683622400E+03  0.55683622400E+03  0.25500000000E-02 0. -1.
    5000001    1    1    2    0    0 -0.41213181321E+03 -0.25512758922E+03  0.55852355316E+02  0.51506038853E+03  0.16500000000E+03 0.  0.
   -5000001    1    1    2    0    0  0.41213181321E+03  0.25512758922E+03 -0.12694040213E+03  0.52752401266E+03  0.16500000000E+03 0.  0.
<mgrwt>
<rscale>  0 0.10401580E+04</rscale>
<asrwt>0</asrwt>
<pdfrwt beam="1">  1        2 0.74730489E-01 0.10401580E+04</pdfrwt>
<pdfrwt beam="2">  1       -2 0.85667111E-01 0.10401580E+04</pdfrwt>
<totfact> 0.75141113E+01</totfact>
</mgrwt>
</event>
<event>
 4    1  0.1573232E-005  0.4156679E+03  0.7818608E-02  0.1038486E+00
         -2   -1    0    0    0  501 -0.00000000000E+00  0.00000000000E+00  0.49572070910E+02  0.49572070976E+02  0.25500000000E-02 0. -1.
          2   -1    0    0  501    0  0.00000000000E+00 -0.00000000000E+00 -0.87135679589E+03  0.87135679589E+03  0.25500000000E-02 0.  1.
    5000001    1    1    2    0    0  0.78813258421E+02 -0.76036600409E+02 -0.55060962237E+03  0.58514019734E+03  0.16500000000E+03 0.  0.
   -5000001    1    1    2    0    0 -0.78813258421E+02  0.76036600409E+02 -0.27117510261E+03  0.33578866952E+03  0.16500000000E+03 0.  0.
<mgrwt>
<rscale>  0 0.41566795E+03</rscale>
<asrwt>0</asrwt>
<pdfrwt beam="1">  1        2 0.13405488E+00 0.41566795E+03</pdfrwt>
<pdfrwt beam="2">  1       -2 0.76264731E-02 0.41566795E+03</pdfrwt>
<totfact> 0.32485115E+03</totfact>
</mgrwt>
</event>
<event>
 4    1  0.1573232E-005  0.3877848E+03  0.7818608E-02  0.1048093E+00
          2   -1    0    0  501    0  0.00000000000E+00  0.00000000000E+00  0.12670827736E+04  0.12670827736E+04  0.25500000000E-02 0.  1.
         -2   -1    0    0    0  501 -0.00000000000E+00 -0.00000000000E+00 -0.29669939730E+02  0.29669939840E+02  0.25500000000E-02 0. -1.
    5000001    1    1    2    0    0 -0.69978032583E+02 -0.67977506099E+02  0.52113244409E+03  0.55526740465E+03  0.16500000000E+03 0.  0.
   -5000001    1    1    2    0    0  0.69978032583E+02  0.67977506099E+02  0.71628038981E+03  0.74148530883E+03  0.16500000000E+03 0.  0.
<mgrwt>
<rscale>  0 0.38778484E+03</rscale>
<asrwt>0</asrwt>
<pdfrwt beam="1">  1        2 0.19493573E+00 0.38778484E+03</pdfrwt>
<pdfrwt beam="2">  1       -2 0.45646080E-02 0.38778484E+03</pdfrwt>
<totfact> 0.41319293E+03</totfact>
</mgrwt>
</event>
<event>
 4    1  0.1573232E-005  0.3940279E+03  0.7818608E-02  0.1045867E+00
         -2   -1    0    0    0  501 -0.00000000000E+00  0.00000000000E+00  0.51312247827E+02  0.51312247890E+02  0.25500000000E-02 0. -1.
          2   -1    0    0  501    0  0.00000000000E+00 -0.00000000000E+00 -0.75643711711E+03  0.75643711711E+03  0.25500000000E-02 0.  1.
    5000001    1    1    2    0    0 -0.25975263503E+02  0.10386653525E+03 -0.32950426650E+03  0.38374605288E+03  0.16500000000E+03 0.  0.
   -5000001    1    1    2    0    0  0.25975263503E+02 -0.10386653525E+03 -0.37562060278E+03  0.42400331213E+03  0.16500000000E+03 0.  0.
<mgrwt>
<rscale>  0 0.39402786E+03</rscale>
<asrwt>0</asrwt>
<pdfrwt beam="1">  1        2 0.11637493E+00 0.39402786E+03</pdfrwt>
<pdfrwt beam="2">  1       -2 0.78941925E-02 0.39402786E+03</pdfrwt>
<totfact> 0.36972041E+03</totfact>
</mgrwt>
</event>
<event>
 4    1  0.1573232E-005  0.3981507E+03  0.7818608E-02  0.1044422E+00
         -2   -1    0    0    0  501 -0.00000000000E+00  0.00000000000E+00  0.17526113453E+02  0.17526113639E+02  0.25500000000E-02 0. -1.
          2   -1    0    0  501    0  0.00000000000E+00 -0.00000000000E+00 -0.22612535243E+04  0.22612535243E+04  0.25500000000E-02 0.  1.
    5000001    1    1    2    0    0  0.14357846161E+02 -0.10658552511E+03 -0.95604630759E+03  0.97612302717E+03  0.16500000000E+03 0.  0.
   -5000001    1    1    2    0    0 -0.14357846161E+02  0.10658552511E+03 -0.12876811033E+04  0.13026566108E+04  0.16500000000E+03 0.  0.
<mgrwt>
<rscale>  0 0.39815066E+03</rscale>
<asrwt>0</asrwt>
<pdfrwt beam="1">  1        2 0.34788493E+00 0.39815066E+03</pdfrwt>
<pdfrwt beam="2">  1       -2 0.26963270E-02 0.39815066E+03</pdfrwt>
<totfact> 0.26617404E+03</totfact>
</mgrwt>
</event>
<event>
 4    1  0.1573232E-005  0.3730975E+03  0.7818608E-02  0.1053515E+00
         -2   -1    0    0    0  501 -0.00000000000E+00  0.00000000000E+00  0.18246394922E+03  0.18246394924E+03  0.25500000000E-02 0. -1.
          2   -1    0    0  501    0  0.00000000000E+00 -0.00000000000E+00 -0.19072496771E+03  0.19072496773E+03  0.25500000000E-02 0.  1.
    5000001    1    1    2    0    0 -0.21990743570E+02 -0.83316868442E+02 -0.16386571662E+02  0.18686576225E+03  0.16500000000E+03 0.  0.
   -5000001    1    1    2    0    0  0.21990743570E+02  0.83316868442E+02  0.81255531774E+01  0.18632315472E+03  0.16500000000E+03 0.  0.
<mgrwt>
<rscale>  0 0.37309747E+03</rscale>
<asrwt>0</asrwt>
<pdfrwt beam="1">  1        2 0.29342303E-01 0.37309747E+03</pdfrwt>
<pdfrwt beam="2">  1       -2 0.28071377E-01 0.37309747E+03</pdfrwt>
<totfact> 0.20868828E+03</totfact>
</mgrwt>
</event>
<event>
 4    1  0.1573232E-005  0.4704528E+03  0.7818608E-02  0.1021792E+00
         -2   -1    0    0    0  501 -0.00000000000E+00  0.00000000000E+00  0.44311131734E+02  0.44311131807E+02  0.25500000000E-02 0. -1.
          2   -1    0    0  501    0  0.00000000000E+00 -0.00000000000E+00 -0.12487034332E+04  0.12487034332E+04  0.25500000000E-02 0.  1.
    5000001    1    1    2    0    0 -0.16017007951E+03 -0.28241095404E+02 -0.71398898784E+03  0.75063792110E+03  0.16500000000E+03 0.  0.
   -5000001    1    1    2    0    0  0.16017007951E+03  0.28241095404E+02 -0.49040331364E+03  0.54237664392E+03  0.16500000000E+03 0.  0.
<mgrwt>
<rscale>  0 0.47045281E+03</rscale>
<asrwt>0</asrwt>
<pdfrwt beam="1">  1        2 0.19210819E+00 0.47045281E+03</pdfrwt>
<pdfrwt beam="2">  1       -2 0.68170981E-02 0.47045281E+03</pdfrwt>
<totfact> 0.22743342E+03</totfact>
</mgrwt>
</event>
<event>
 4    1  0.1573232E-005  0.7459043E+03  0.7818608E-02  0.9641798E-01
         -2   -1    0    0    0  501 -0.00000000000E+00  0.00000000000E+00  0.12412759215E+03  0.12412759218E+03  0.25500000000E-02 0. -1.
          2   -1    0    0  501    0  0.00000000000E+00 -0.00000000000E+00 -0.11205672938E+04  0.11205672938E+04  0.25500000000E-02 0.  1.
    5000001    1    1    2    0    0 -0.48290457639E+02  0.32504423912E+03 -0.39424201309E+03  0.53910805093E+03  0.16500000000E+03 0.  0.
   -5000001    1    1    2    0    0  0.48290457639E+02 -0.32504423912E+03 -0.60219768852E+03  0.70558683501E+03  0.16500000000E+03 0.  0.
<mgrwt>
<rscale>  0 0.74590434E+03</rscale>
<asrwt>0</asrwt>
<pdfrwt beam="1">  1        2 0.17239496E+00 0.74590434E+03</pdfrwt>
<pdfrwt beam="2">  1       -2 0.19096553E-01 0.74590434E+03</pdfrwt>
<totfact> 0.49307406E+02</totfact>
</mgrwt>
</event>
<event>
 4    1  0.1573232E-005  0.4103416E+03  0.7818608E-02  0.1040256E+00
         -2   -1    0    0    0  501 -0.00000000000E+00  0.00000000000E+00  0.18389391644E+03  0.18389391646E+03  0.25500000000E-02 0. -1.
          2   -1    0    0  501    0  0.00000000000E+00 -0.00000000000E+00 -0.22890942285E+03  0.22890942287E+03  0.25500000000E-02 0.  1.
    5000001    1    1    2    0    0  0.49188751774E+02  0.11003486063E+03 -0.41134950119E+02  0.20843293400E+03  0.16500000000E+03 0.  0.
   -5000001    1    1    2    0    0 -0.49188751774E+02 -0.11003486063E+03 -0.38805562962E+01  0.20437040532E+03  0.16500000000E+03 0.  0.
<mgrwt>
<rscale>  0 0.41034157E+03</rscale>
<asrwt>0</asrwt>
<pdfrwt beam="1">  1        2 0.35216834E-01 0.41034157E+03</pdfrwt>
<pdfrwt beam="2">  1       -2 0.28291372E-01 0.41034157E+03</pdfrwt>
<totfact> 0.16838426E+03</totfact>
</mgrwt>
</event>
<event>
 4    1  0.1573232E-005  0.5389593E+03  0.7818608E-02  0.1004082E+00
         -2   -1    0    0    0  501 -0.00000000000E+00  0.00000000000E+00  0.12948226581E+03  0.12948226584E+03  0.25500000000E-02 0. -1.
          2   -1    0    0  501    0  0.00000000000E+00 -0.00000000000E+00 -0.56084338762E+03  0.56084338762E+03  0.25500000000E-02 0.  1.
    5000001    1    1    2    0    0  0.96047910834E+02  0.21401596517E+02  0.26366234812E+02  0.19391598141E+03  0.16500000000E+03 0.  0.
   -5000001    1    1    2    0    0 -0.96047910834E+02 -0.21401596517E+02 -0.45772735662E+03  0.49640967205E+03  0.16500000000E+03 0.  0.
<mgrwt>
<rscale>  0 0.53895927E+03</rscale>
<asrwt>0</asrwt>
<pdfrwt beam="1">  1        2 0.86283597E-01 0.53895927E+03</pdfrwt>
<pdfrwt beam="2">  1       -2 0.19920349E-01 0.53895927E+03</pdfrwt>
<totfact> 0.11582322E+03</totfact>
</mgrwt>
</event>
<event>
 4    1  0.1573232E-005  0.5296563E+03  0.7818608E-02  0.1006316E+00
         -2   -1    0    0    0  501 -0.00000000000E+00  0.00000000000E+00  0.24369715045E+03  0.24369715046E+03  0.25500000000E-02 0. -1.
          2   -1    0    0  501    0  0.00000000000E+00 -0.00000000000E+00 -0.28779146846E+03  0.28779146848E+03  0.25500000000E-02 0.  1.
    5000001    1    1    2    0    0 -0.22750132899E+02 -0.42417312754E+02 -0.22421910515E+03  0.28251726334E+03  0.16500000000E+03 0.  0.
   -5000001    1    1    2    0    0  0.22750132899E+02  0.42417312754E+02  0.18012478714E+03  0.24897135560E+03  0.16500000000E+03 0.  0.
<mgrwt>
<rscale>  0 0.52965634E+03</rscale>
<asrwt>0</asrwt>
<pdfrwt beam="1">  1        2 0.44275610E-01 0.52965634E+03</pdfrwt>
<pdfrwt beam="2">  1       -2 0.37491870E-01 0.52965634E+03</pdfrwt>
<totfact> 0.77515507E+02</totfact>
</mgrwt>
</event>
<event>
 4    1  0.1573232E-005  0.6258794E+03  0.7818608E-02  0.9853123E-01
         -2   -1    0    0    0  501 -0.00000000000E+00  0.00000000000E+00  0.50361996077E+03  0.50361996078E+03  0.25500000000E-02 0. -1.
          2   -1    0    0  501    0  0.00000000000E+00 -0.00000000000E+00 -0.19445468891E+03  0.19445468893E+03  0.25500000000E-02 0.  1.
    5000001    1    1    2    0    0 -0.22439306437E+03 -0.62892523882E+01 -0.43868769884E+01  0.27863245813E+03  0.16500000000E+03 0.  0.
   -5000001    1    1    2    0    0  0.22439306437E+03  0.62892523882E+01  0.31355214885E+03  0.41944219158E+03  0.16500000000E+03 0.  0.
<mgrwt>
<rscale>  0 0.62587942E+03</rscale>
<asrwt>0</asrwt>
<pdfrwt beam="1">  1        2 0.29916106E-01 0.62587942E+03</pdfrwt>
<pdfrwt beam="2">  1       -2 0.77479993E-01 0.62587942E+03</pdfrwt>
<totfact> 0.26801795E+02</totfact>
</mgrwt>
</event>
<event>
 4    1  0.1573232E-005  0.4584324E+03  0.7818608E-02  0.1025237E+00
          2   -1    0    0  501    0  0.00000000000E+00  0.00000000000E+00  0.58854345556E+03  0.58854345557E+03  0.25500000000E-02 0.  1.
         -2   -1    0    0    0  501 -0.00000000000E+00 -0.00000000000E+00 -0.89271327314E+02  0.89271327351E+02  0.25500000000E-02 0. -1.
    5000001    1    1    2    0    0  0.14215292987E+03 -0.70821983553E+02  0.26380598542E+03  0.34934482502E+03  0.16500000000E+03 0.  0.
   -5000001    1    1    2    0    0 -0.14215292987E+03  0.70821983553E+02  0.23546614283E+03  0.32846995790E+03  0.16500000000E+03 0.  0.
<mgrwt>
<rscale>  0 0.45843235E+03</rscale>
<asrwt>0</asrwt>
<pdfrwt beam="1">  1        2 0.90545151E-01 0.45843235E+03</pdfrwt>
<pdfrwt beam="2">  1       -2 0.13734050E-01 0.45843235E+03</pdfrwt>
<totfact> 0.20561111E+03</totfact>
</mgrwt>
</event>
<event>
 4    1  0.1573232E-005  0.6131813E+03  0.7818608E-02  0.9878430E-01
          2   -1    0    0  501    0  0.00000000000E+00  0.00000000000E+00  0.84153556981E+03  0.84153556982E+03  0.25500000000E-02 0.  1.
         -2   -1    0    0    0  501 -0.00000000000E+00 -0.00000000000E+00 -0.11169799914E+03  0.11169799917E+03  0.25500000000E-02 0. -1.
    5000001    1    1    2    0    0 -0.40700091178E+02  0.21452165679E+03  0.57974669607E+03  0.64109848718E+03  0.16500000000E+03 0.  0.
   -5000001    1    1    2    0    0  0.40700091178E+02 -0.21452165679E+03  0.15009087460E+03  0.31213508181E+03  0.16500000000E+03 0.  0.
<mgrwt>
<rscale>  0 0.61318134E+03</rscale>
<asrwt>0</asrwt>
<pdfrwt beam="1">  1        2 0.12946701E+00 0.61318134E+03</pdfrwt>
<pdfrwt beam="2">  1       -2 0.17184307E-01 0.61318134E+03</pdfrwt>
<totfact> 0.89914826E+02</totfact>
</mgrwt>
</event>
<event>
 4    1  0.1573232E-005  0.8704850E+03  0.7818608E-02  0.9463248E-01
         -2   -1    0    0    0  501 -0.00000000000E+00  0.00000000000E+00  0.13429022603E+03  0.13429022605E+03  0.25500000000E-02 0.  1.
          2   -1    0    0  501    0  0.00000000000E+00 -0.00000000000E+00 -0.14106464458E+04  0.14106464458E+04  0.25500000000E-02 0. -1.
    5000001    1    1    2    0    0  0.21710446235E+03  0.20114548632E+03 -0.11229850166E+04  0.11729936921E+04  0.16500000000E+03 0.  0.
   -5000001    1    1    2    0    0 -0.21710446235E+03 -0.20114548632E+03 -0.15337120323E+03  0.37194297979E+03  0.16500000000E+03 0.  0.
<mgrwt>
<rscale>  0 0.87048499E+03</rscale>
<asrwt>0</asrwt>
<pdfrwt beam="1">  1        2 0.21702252E+00 0.87048499E+03</pdfrwt>
<pdfrwt beam="2">  1       -2 0.20660036E-01 0.87048499E+03</pdfrwt>
<totfact> 0.28896936E+02</totfact>
</mgrwt>
</event>
<event>
 4    1  0.1573232E-005  0.4585655E+03  0.7818608E-02  0.1025198E+00
          2   -1    0    0  501    0  0.00000000000E+00  0.00000000000E+00  0.72600563843E+03  0.72600563844E+03  0.25500000000E-02 0.  1.
         -2   -1    0    0    0  501 -0.00000000000E+00 -0.00000000000E+00 -0.72410689521E+02  0.72410689566E+02  0.25500000000E-02 0. -1.
    5000001    1    1    2    0    0 -0.70700459026E+02  0.86336262117E+01  0.57470028876E+03  0.60214492966E+03  0.16500000000E+03 0.  0.
   -5000001    1    1    2    0    0  0.70700459026E+02 -0.86336262117E+01  0.78894660147E+02  0.19627139834E+03  0.16500000000E+03 0.  0.
<mgrwt>
<rscale>  0 0.45856545E+03</rscale>
<asrwt>0</asrwt>
<pdfrwt beam="1">  1        2 0.11169318E+00 0.45856545E+03</pdfrwt>
<pdfrwt beam="2">  1       -2 0.11140106E-01 0.45856545E+03</pdfrwt>
<totfact> 0.22463548E+03</totfact>
</mgrwt>
</event>
<event>
 4    1  0.1573232E-005  0.1086424E+04  0.7818608E-02  0.9218526E-01
         -2   -1    0    0    0  501 -0.00000000000E+00  0.00000000000E+00  0.42939661153E+03  0.42939661153E+03  0.25500000000E-02 0. -1.
          2   -1    0    0  501    0  0.00000000000E+00 -0.00000000000E+00 -0.68719507508E+03  0.68719507509E+03  0.25500000000E-02 0.  1.
    5000001    1    1    2    0    0 -0.33274707235E+03 -0.35443817999E+03 -0.31133078994E+03  0.60041560469E+03  0.16500000000E+03 0.  0.
   -5000001    1    1    2    0    0  0.33274707235E+03  0.35443817999E+03  0.53532326379E+02  0.51617608193E+03  0.16500000000E+03 0.  0.
<mgrwt>
<rscale>  0 0.10864239E+04</rscale>
<asrwt>0</asrwt>
<pdfrwt beam="1">  1        2 0.10572232E+00 0.10864239E+04</pdfrwt>
<pdfrwt beam="2">  1       -2 0.66061017E-01 0.10864239E+04</pdfrwt>
<totfact> 0.87911725E+01</totfact>
</mgrwt>
</event>
<event>
 4    1  0.1573232E-005  0.9625916E+03  0.7818608E-02  0.9350553E-01
         -2   -1    0    0    0  501 -0.00000000000E+00  0.00000000000E+00  0.12188510392E+03  0.12188510395E+03  0.25500000000E-02 0. -1.
          2   -1    0    0  501    0  0.00000000000E+00 -0.00000000000E+00 -0.19005247290E+04  0.19005247290E+04  0.25500000000E-02 0.  1.
    5000001    1    1    2    0    0 -0.20150907562E+03 -0.25386092770E+03 -0.15516177084E+04  0.15936730503E+04  0.16500000000E+03 0.  0.
   -5000001    1    1    2    0    0  0.20150907562E+03  0.25386092770E+03 -0.22702191669E+03  0.42873678269E+03  0.16500000000E+03 0.  0.
<mgrwt>
<rscale>  0 0.96259161E+03</rscale>
<asrwt>0</asrwt>
<pdfrwt beam="1">  1        2 0.29238840E+00 0.96259161E+03</pdfrwt>
<pdfrwt beam="2">  1       -2 0.18751556E-01 0.96259161E+03</pdfrwt>
<totfact> 0.18219971E+02</totfact>
</mgrwt>
</event>
<event>
 4    1  0.1573232E-005  0.4760145E+03  0.7818608E-02  0.1020236E+00
          2   -1    0    0  501    0  0.00000000000E+00  0.00000000000E+00  0.42948919949E+03  0.42948919950E+03  0.25500000000E-02 0.  1.
         -2   -1    0    0    0  501 -0.00000000000E+00 -0.00000000000E+00 -0.13189492513E+03  0.13189492515E+03  0.25500000000E-02 0. -1.
    5000001    1    1    2    0    0 -0.50572422044E+02 -0.16189110878E+03  0.11858789534E+03  0.26467789839E+03  0.16500000000E+03 0.  0.
   -5000001    1    1    2    0    0  0.50572422044E+02  0.16189110878E+03  0.17900637902E+03  0.29670622626E+03  0.16500000000E+03 0.  0.
<mgrwt>
<rscale>  0 0.47601448E+03</rscale>
<asrwt>0</asrwt>
<pdfrwt beam="1">  1        2 0.66075262E-01 0.47601448E+03</pdfrwt>
<pdfrwt beam="2">  1       -2 0.20291527E-01 0.47601448E+03</pdfrwt>
<totfact> 0.15220719E+03</totfact>
</mgrwt>
</event>
<event>
 4    1  0.1573232E-005  0.6076330E+03  0.7818608E-02  0.9889695E-01
          2   -1    0    0  501    0  0.00000000000E+00  0.00000000000E+00  0.34144903323E+03  0.34144903324E+03  0.25500000000E-02 0.  1.
         -2   -1    0    0    0  501 -0.00000000000E+00 -0.00000000000E+00 -0.27033158799E+03  0.27033158800E+03  0.25500000000E-02 0. -1.
    5000001    1    1    2    0    0  0.21294504022E+03  0.13955511362E+03  0.19379199999E+02  0.30400949538E+03  0.16500000000E+03 0.  0.
   -5000001    1    1    2    0    0 -0.21294504022E+03 -0.13955511362E+03  0.51738245243E+02  0.30777112586E+03  0.16500000000E+03 0.  0.
<mgrwt>
<rscale>  0 0.60763298E+03</rscale>
<asrwt>0</asrwt>
<pdfrwt beam="1">  1        2 0.52530620E-01 0.60763298E+03</pdfrwt>
<pdfrwt beam="2">  1       -2 0.41589475E-01 0.60763298E+03</pdfrwt>
<totfact> 0.52456342E+02</totfact>
</mgrwt>
</event>
<event>
 4    1  0.1573232E-005  0.3685748E+03  0.7818608E-02  0.1055239E+00
          2   -1    0    0  501    0  0.00000000000E+00  0.00000000000E+00  0.38268055769E+04  0.38268055769E+04  0.25500000000E-02 0.  1.
         -2   -1    0    0    0  501 -0.00000000000E+00 -0.00000000000E+00 -0.88747243233E+01  0.88747246897E+01  0.25500000000E-02 0. -1.
    5000001    1    1    2    0    0  0.72558853058E+02  0.17025426516E+02  0.15511484457E+04  0.15616789532E+04  0.16500000000E+03 0.  0.
   -5000001    1    1    2    0    0 -0.72558853058E+02 -0.17025426516E+02  0.22667824069E+04  0.22740013484E+04  0.16500000000E+03 0.  0.
<mgrwt>
<rscale>  0 0.36857480E+03</rscale>
<asrwt>0</asrwt>
<pdfrwt beam="1">  1        2 0.58873832E+00 0.36857480E+03</pdfrwt>
<pdfrwt beam="2">  1       -2 0.13653446E-02 0.36857480E+03</pdfrwt>
<totfact> 0.79916959E+02</totfact>
</mgrwt>
</event>
<event>
 4    1  0.1573232E-005  0.4135901E+03  0.7818608E-02  0.1039173E+00
         -2   -1    0    0    0  501 -0.00000000000E+00  0.00000000000E+00  0.49669113774E+02  0.49669113840E+02  0.25500000000E-02 0. -1.
          2   -1    0    0  501    0  0.00000000000E+00 -0.00000000000E+00 -0.86098170831E+03  0.86098170832E+03  0.25500000000E-02 0.  1.
    5000001    1    1    2    0    0 -0.12291794959E+03 -0.16812717124E+02 -0.37889638316E+03  0.43148459875E+03  0.16500000000E+03 0.  0.
   -5000001    1    1    2    0    0  0.12291794959E+03  0.16812717124E+02 -0.43241621138E+03  0.47916622340E+03  0.16500000000E+03 0.  0.
<mgrwt>
<rscale>  0 0.41359013E+03</rscale>
<asrwt>0</asrwt>
<pdfrwt beam="1">  1        2 0.13245871E+00 0.41359013E+03</pdfrwt>
<pdfrwt beam="2">  1       -2 0.76414028E-02 0.41359013E+03</pdfrwt>
<totfact> 0.32907933E+03</totfact>
</mgrwt>
</event>
<event>
 4    1  0.1573232E-005  0.8888427E+03  0.7818608E-02  0.9439637E-01
         -2   -1    0    0    0  501 -0.00000000000E+00  0.00000000000E+00  0.27682308602E+03  0.27682308603E+03  0.25500000000E-02 0. -1.
          2   -1    0    0  501    0  0.00000000000E+00 -0.00000000000E+00 -0.71348940807E+03  0.71348940808E+03  0.25500000000E-02 0.  1.
    5000001    1    1    2    0    0 -0.13995869963E+03 -0.15385366072E+03  0.17876106839E+03  0.32006234719E+03  0.16500000000E+03 0.  0.
   -5000001    1    1    2    0    0  0.13995869963E+03  0.15385366072E+03 -0.61542739045E+03  0.67025014691E+03  0.16500000000E+03 0.  0.
<mgrwt>
<rscale>  0 0.88884271E+03</rscale>
<asrwt>0</asrwt>
<pdfrwt beam="1">  1        2 0.10976760E+00 0.88884271E+03</pdfrwt>
<pdfrwt beam="2">  1       -2 0.42588167E-01 0.88884271E+03</pdfrwt>
<totfact> 0.20964875E+02</totfact>
</mgrwt>
</event>
<event>
 4    1  0.1573232E-005  0.5068975E+03  0.7818608E-02  0.1011994E+00
         -2   -1    0    0    0  501 -0.00000000000E+00  0.00000000000E+00  0.27657788461E+02  0.27657788578E+02  0.25500000000E-02 0. -1.
          2   -1    0    0  501    0  0.00000000000E+00 -0.00000000000E+00 -0.23225381984E+04  0.23225381984E+04  0.25500000000E-02 0.  1.
    5000001    1    1    2    0    0 -0.10083276093E+03  0.10523185887E+03 -0.56519806358E+03  0.60655984113E+03  0.16500000000E+03 0.  0.
   -5000001    1    1    2    0    0  0.10083276093E+03 -0.10523185887E+03 -0.17296823463E+04  0.17436361458E+04  0.16500000000E+03 0.  0.
<mgrwt>
<rscale>  0 0.50689751E+03</rscale>
<asrwt>0</asrwt>
<pdfrwt beam="1">  1        2 0.35731341E+00 0.50689751E+03</pdfrwt>
<pdfrwt beam="2">  1       -2 0.42550462E-02 0.50689751E+03</pdfrwt>
<totfact> 0.12248581E+03</totfact>
</mgrwt>
</event>
<event>
 4    1  0.1573232E-005  0.1192842E+04  0.7818608E-02  0.9119145E-01
          2   -1    0    0  501    0  0.00000000000E+00  0.00000000000E+00  0.13156674022E+04  0.13156674022E+04  0.25500000000E-02 0.  1.
         -2   -1    0    0    0  501 -0.00000000000E+00 -0.00000000000E+00 -0.27037091067E+03  0.27037091069E+03  0.25500000000E-02 0. -1.
    5000001    1    1    2    0    0  0.42950900208E+03 -0.11987660178E+03  0.10013976086E+04  0.11085443397E+04  0.16500000000E+03 0.  0.
   -5000001    1    1    2    0    0 -0.42950900208E+03  0.11987660178E+03  0.43898882915E+02  0.47749397320E+03  0.16500000000E+03 0.  0.
<mgrwt>
<rscale>  0 0.11928423E+04</rscale>
<asrwt>0</asrwt>
<pdfrwt beam="1">  1        2 0.20241037E+00 0.11928423E+04</pdfrwt>
<pdfrwt beam="2">  1       -2 0.41595524E-01 0.11928423E+04</pdfrwt>
<totfact> 0.87458775E+01</totfact>
</mgrwt>
</event>
<event>
 4    1  0.1573232E-005  0.5292693E+03  0.7818608E-02  0.1006409E+00
         -2   -1    0    0    0  501 -0.00000000000E+00  0.00000000000E+00  0.39162415245E+02  0.39162415328E+02  0.25500000000E-02 0. -1.
          2   -1    0    0  501    0  0.00000000000E+00 -0.00000000000E+00 -0.17882322220E+04  0.17882322220E+04  0.25500000000E-02 0.  1.
    5000001    1    1    2    0    0 -0.18507822224E+03 -0.86118633329E+02 -0.75815745723E+03  0.80230798158E+03  0.16500000000E+03 0.  0.
   -5000001    1    1    2    0    0  0.18507822224E+03  0.86118633329E+02 -0.99091234954E+03  0.10250866558E+04  0.16500000000E+03 0.  0.
<mgrwt>
<rscale>  0 0.52926928E+03</rscale>
<asrwt>0</asrwt>
<pdfrwt beam="1">  1        2 0.27511259E+00 0.52926928E+03</pdfrwt>
<pdfrwt beam="2">  1       -2 0.60249884E-02 0.52926928E+03</pdfrwt>
<totfact> 0.13899146E+03</totfact>
</mgrwt>
</event>
<event>
 4    1  0.1573232E-005  0.5085908E+03  0.7818608E-02  0.1011561E+00
         -2   -1    0    0    0  501 -0.00000000000E+00  0.00000000000E+00  0.83995766767E+02  0.83995766806E+02  0.25500000000E-02 0. -1.
          2   -1    0    0  501    0  0.00000000000E+00 -0.00000000000E+00 -0.76987378276E+03  0.76987378276E+03  0.25500000000E-02 0.  1.
    5000001    1    1    2    0    0  0.16030815216E+03  0.58744085916E+02 -0.19006227811E+03  0.30413523446E+03  0.16500000000E+03 0.  0.
   -5000001    1    1    2    0    0 -0.16030815216E+03 -0.58744085916E+02 -0.49581573788E+03  0.54973431511E+03  0.16500000000E+03 0.  0.
<mgrwt>
<rscale>  0 0.50859075E+03</rscale>
<asrwt>0</asrwt>
<pdfrwt beam="1">  1        2 0.11844212E+00 0.50859075E+03</pdfrwt>
<pdfrwt beam="2">  1       -2 0.12922426E-01 0.50859075E+03</pdfrwt>
<totfact> 0.16348712E+03</totfact>
</mgrwt>
</event>
<event>
 4    1  0.1573232E-005  0.5677360E+03  0.7818608E-02  0.9974701E-01
          2   -1    0    0  501    0  0.00000000000E+00  0.00000000000E+00  0.61920997952E+03  0.61920997952E+03  0.25500000000E-02 0.  1.
         -2   -1    0    0    0  501 -0.00000000000E+00 -0.00000000000E+00 -0.13013523679E+03  0.13013523681E+03  0.25500000000E-02 0. -1.
    5000001    1    1    2    0    0  0.21681833607E+03  0.60496104761E+02  0.17613140230E+03  0.33002612082E+03  0.16500000000E+03 0.  0.
   -5000001    1    1    2    0    0 -0.21681833607E+03 -0.60496104761E+02  0.31294334043E+03  0.41931909552E+03  0.16500000000E+03 0.  0.
<mgrwt>
<rscale>  0 0.56773599E+03</rscale>
<asrwt>0</asrwt>
<pdfrwt beam="1">  1        2 0.95263073E-01 0.56773599E+03</pdfrwt>
<pdfrwt beam="2">  1       -2 0.20020806E-01 0.56773599E+03</pdfrwt>
<totfact> 0.10202527E+03</totfact>
</mgrwt>
</event>
<event>
 4    1  0.1573232E-005  0.4886482E+03  0.7818608E-02  0.1016785E+00
          2   -1    0    0  501    0  0.00000000000E+00  0.00000000000E+00  0.43001361483E+03  0.43001361484E+03  0.25500000000E-02 0. -1.
         -2   -1    0    0    0  501 -0.00000000000E+00 -0.00000000000E+00 -0.13881948101E+03  0.13881948103E+03  0.25500000000E-02 0.  1.
    5000001    1    1    2    0    0 -0.96170220641E+02 -0.14759792074E+03  0.18970090933E+03  0.30699396174E+03  0.16500000000E+03 0.  0.
   -5000001    1    1    2    0    0  0.96170220641E+02  0.14759792074E+03  0.10149322449E+03  0.26183913413E+03  0.16500000000E+03 0.  0.
<mgrwt>
<rscale>  0 0.48864820E+03</rscale>
<asrwt>0</asrwt>
<pdfrwt beam="1">  1        2 0.66155939E-01 0.48864820E+03</pdfrwt>
<pdfrwt beam="2">  1       -2 0.21356844E-01 0.48864820E+03</pdfrwt>
<totfact> 0.13903995E+03</totfact>
</mgrwt>
</event>
<event>
 4    1  0.1573232E-005  0.7784770E+03  0.7818608E-02  0.9591704E-01
          2   -1    0    0  501    0  0.00000000000E+00  0.00000000000E+00  0.74282499491E+03  0.74282499491E+03  0.25500000000E-02 0.  1.
         -2   -1    0    0    0  501 -0.00000000000E+00 -0.00000000000E+00 -0.20396001583E+03  0.20396001584E+03  0.25500000000E-02 0. -1.
    5000001    1    1    2    0    0 -0.18475159503E+03  0.28525729409E+03  0.38337132519E+03  0.53824106930E+03  0.16500000000E+03 0.  0.
   -5000001    1    1    2    0    0  0.18475159503E+03 -0.28525729409E+03  0.15549365389E+03  0.40854394146E+03  0.16500000000E+03 0.  0.
<mgrwt>
<rscale>  0 0.77847697E+03</rscale>
<asrwt>0</asrwt>
<pdfrwt beam="1">  1        2 0.11428077E+00 0.77847697E+03</pdfrwt>
<pdfrwt beam="2">  1       -2 0.31378465E-01 0.77847697E+03</pdfrwt>
<totfact> 0.35972169E+02</totfact>
</mgrwt>
</event>
<event>
 4    1  0.1573232E-005  0.3640639E+03  0.7818608E-02  0.1056986E+00
         -2   -1    0    0    0  501 -0.00000000000E+00  0.00000000000E+00  0.11592961155E+03  0.11592961158E+03  0.25500000000E-02 0. -1.
          2   -1    0    0  501    0  0.00000000000E+00 -0.00000000000E+00 -0.28582535876E+03  0.28582535877E+03  0.25500000000E-02 0.  1.
    5000001    1    1    2    0    0 -0.13988850725E+02 -0.73958153359E+02 -0.10222528848E+03  0.20818382742E+03  0.16500000000E+03 0.  0.
   -5000001    1    1    2    0    0  0.13988850725E+02  0.73958153359E+02 -0.67670458722E+02  0.19357114293E+03  0.16500000000E+03 0.  0.
<mgrwt>
<rscale>  0 0.36406386E+03</rscale>
<asrwt>0</asrwt>
<pdfrwt beam="1">  1        2 0.43973132E-01 0.36406386E+03</pdfrwt>
<pdfrwt beam="2">  1       -2 0.17835325E-01 0.36406386E+03</pdfrwt>
<totfact> 0.29615749E+03</totfact>
</mgrwt>
</event>
<event>
 4    1  0.1573232E-005  0.8587495E+03  0.7818608E-02  0.9478668E-01
         -2   -1    0    0    0  501 -0.00000000000E+00  0.00000000000E+00  0.19115637329E+03  0.19115637331E+03  0.25500000000E-02 0. -1.
          2   -1    0    0  501    0  0.00000000000E+00 -0.00000000000E+00 -0.96445999080E+03  0.96445999080E+03  0.25500000000E-02 0.  1.
    5000001    1    1    2    0    0  0.19786874202E+03 -0.28230937689E+03 -0.64996532020E+03  0.75400964239E+03  0.16500000000E+03 0.  0.
   -5000001    1    1    2    0    0 -0.19786874202E+03  0.28230937689E+03 -0.12333829731E+03  0.40160672172E+03  0.16500000000E+03 0.  0.
<mgrwt>
<rscale>  0 0.85874950E+03</rscale>
<asrwt>0</asrwt>
<pdfrwt beam="1">  1        2 0.14837846E+00 0.85874950E+03</pdfrwt>
<pdfrwt beam="2">  1       -2 0.29408673E-01 0.85874950E+03</pdfrwt>
<totfact> 0.28339719E+02</totfact>
</mgrwt>
</event>
<event>
 4    1  0.1573232E-005  0.3624046E+03  0.7818608E-02  0.1057636E+00
          2   -1    0    0  501    0  0.00000000000E+00  0.00000000000E+00  0.13457188962E+04  0.13457188962E+04  0.25500000000E-02 0.  1.
         -2   -1    0    0    0  501 -0.00000000000E+00 -0.00000000000E+00 -0.24399064656E+02  0.24399064789E+02  0.25500000000E-02 0. -1.
    5000001    1    1    2    0    0 -0.29895589657E+02 -0.61618839684E+02  0.54607159237E+03  0.57455183550E+03  0.16500000000E+03 0.  0.
   -5000001    1    1    2    0    0  0.29895589657E+02  0.61618839684E+02  0.77524823919E+03  0.79556612550E+03  0.16500000000E+03 0.  0.
<mgrwt>
<rscale>  0 0.36240465E+03</rscale>
<asrwt>0</asrwt>
<pdfrwt beam="1">  1        2 0.20703373E+00 0.36240465E+03</pdfrwt>
<pdfrwt beam="2">  1       -2 0.37537012E-02 0.36240465E+03</pdfrwt>
<totfact> 0.50241289E+03</totfact>
</mgrwt>
</event>
<event>
 4    1  0.1573232E-005  0.7698994E+03  0.7818608E-02  0.9604638E-01
         -2   -1    0    0    0  501 -0.00000000000E+00  0.00000000000E+00  0.75024195416E+02  0.75024195459E+02  0.25500000000E-02 0. -1.
          2   -1    0    0  501    0  0.00000000000E+00 -0.00000000000E+00 -0.19751797984E+04  0.19751797984E+04  0.25500000000E-02 0.  1.
    5000001    1    1    2    0    0  0.32664484973E+01  0.33041690443E+03 -0.66111055858E+03  0.75728341529E+03  0.16500000000E+03 0.  0.
   -5000001    1    1    2    0    0 -0.32664484973E+01 -0.33041690443E+03 -0.12390450444E+04  0.12929205786E+04  0.16500000000E+03 0.  0.
<mgrwt>
<rscale>  0 0.76989941E+03</rscale>
<asrwt>0</asrwt>
<pdfrwt beam="1">  1        2 0.30387378E+00 0.76989941E+03</pdfrwt>
<pdfrwt beam="2">  1       -2 0.11542185E-01 0.76989941E+03</pdfrwt>
<totfact> 0.38233202E+02</totfact>
</mgrwt>
</event>
<event>
 4    1  0.1573232E-005  0.4379568E+03  0.7818608E-02  0.1031376E+00
          2   -1    0    0  501    0  0.00000000000E+00  0.00000000000E+00  0.11908210106E+04  0.11908210106E+04  0.25500000000E-02 0.  1.
         -2   -1    0    0    0  501 -0.00000000000E+00 -0.00000000000E+00 -0.40267636411E+02  0.40267636492E+02  0.25500000000E-02 0. -1.
    5000001    1    1    2    0    0  0.10171115399E+03  0.24708499151E+02  0.85313591780E+03  0.87522657811E+03  0.16500000000E+03 0.  0.
   -5000001    1    1    2    0    0 -0.10171115399E+03 -0.24708499151E+02  0.29741745635E+03  0.35586206895E+03  0.16500000000E+03 0.  0.
<mgrwt>
<rscale>  0 0.43795684E+03</rscale>
<asrwt>0</asrwt>
<pdfrwt beam="1">  1        2 0.18320320E+00 0.43795684E+03</pdfrwt>
<pdfrwt beam="2">  1       -2 0.61950221E-02 0.43795684E+03</pdfrwt>
<totfact> 0.28536024E+03</totfact>
</mgrwt>
</event>
<event>
 4    1  0.1573232E-005  0.6205386E+03  0.7818608E-02  0.9863688E-01
         -2   -1    0    0    0  501 -0.00000000000E+00  0.00000000000E+00  0.40994748046E+02  0.40994748125E+02  0.25500000000E-02 0. -1.
          2   -1    0    0  501    0  0.00000000000E+00 -0.00000000000E+00 -0.23482770765E+04  0.23482770765E+04  0.25500000000E-02 0.  1.
    5000001    1    1    2    0    0 -0.17643811125E+03 -0.64976577632E+02 -0.18603574971E+04  0.18771007911E+04  0.16500000000E+03 0.  0.
   -5000001    1    1    2    0    0  0.17643811125E+03  0.64976577632E+02 -0.44692483127E+03  0.51217103349E+03  0.16500000000E+03 0.  0.
<mgrwt>
<rscale>  0 0.62053856E+03</rscale>
<asrwt>0</asrwt>
<pdfrwt beam="1">  1        2 0.36127329E+00 0.62053856E+03</pdfrwt>
<pdfrwt beam="2">  1       -2 0.63068862E-02 0.62053856E+03</pdfrwt>
<totfact> 0.63767555E+02</totfact>
</mgrwt>
</event>
<event>
 4    1  0.1573232E-005  0.5403851E+03  0.7818608E-02  0.1003744E+00
         -2   -1    0    0    0  501 -0.00000000000E+00  0.00000000000E+00  0.78799708398E+02  0.78799708439E+02  0.25500000000E-02 0. -1.
          2   -1    0    0  501    0  0.00000000000E+00 -0.00000000000E+00 -0.92645014644E+03  0.92645014645E+03  0.25500000000E-02 0.  1.
    5000001    1    1    2    0    0 -0.19115515612E+03  0.20792691682E+02 -0.24925538608E+03  0.35542351811E+03  0.16500000000E+03 0.  0.
   -5000001    1    1    2    0    0  0.19115515612E+03 -0.20792691682E+02 -0.59839505197E+03  0.64982633677E+03  0.16500000000E+03 0.  0.
<mgrwt>
<rscale>  0 0.54038505E+03</rscale>
<asrwt>0</asrwt>
<pdfrwt beam="1">  1        2 0.14253078E+00 0.54038505E+03</pdfrwt>
<pdfrwt beam="2">  1       -2 0.12123033E-01 0.54038505E+03</pdfrwt>
<totfact> 0.14169611E+03</totfact>
</mgrwt>
</event>
<event>
 4    1  0.1573232E-005  0.4194827E+03  0.7818608E-02  0.1037235E+00
         -2   -1    0    0    0  501 -0.00000000000E+00  0.00000000000E+00  0.47259165258E+03  0.47259165258E+03  0.25500000000E-02 0. -1.
          2   -1    0    0  501    0  0.00000000000E+00 -0.00000000000E+00 -0.93085528445E+02  0.93085528480E+02  0.25500000000E-02 0.  1.
    5000001    1    1    2    0    0 -0.28450318512E+02 -0.91726452698E+02  0.72632081585E+02  0.20426351124E+03  0.16500000000E+03 0.  0.
   -5000001    1    1    2    0    0  0.28450318512E+02  0.91726452698E+02  0.30687404255E+03  0.36141366982E+03  0.16500000000E+03 0.  0.
<mgrwt>
<rscale>  0 0.41948275E+03</rscale>
<asrwt>0</asrwt>
<pdfrwt beam="1">  1        2 0.14320850E-01 0.41948275E+03</pdfrwt>
<pdfrwt beam="2">  1       -2 0.72706409E-01 0.41948275E+03</pdfrwt>
<totfact> 0.72881802E+02</totfact>
</mgrwt>
</event>
<event>
 4    1  0.1573232E-005  0.5781102E+03  0.7818608E-02  0.9951891E-01
         -2   -1    0    0    0  501 -0.00000000000E+00  0.00000000000E+00  0.55133311294E+02  0.55133311353E+02  0.25500000000E-02 0. -1.
          2   -1    0    0  501    0  0.00000000000E+00 -0.00000000000E+00 -0.15154695923E+04  0.15154695923E+04  0.25500000000E-02 0.  1.
    5000001    1    1    2    0    0 -0.50516959445E+02 -0.23187040256E+03 -0.73958331665E+03  0.79405562087E+03  0.16500000000E+03 0.  0.
   -5000001    1    1    2    0    0  0.50516959445E+02  0.23187040256E+03 -0.72075296439E+03  0.77654728281E+03  0.16500000000E+03 0.  0.
<mgrwt>
<rscale>  0 0.57811022E+03</rscale>
<asrwt>0</asrwt>
<pdfrwt beam="1">  1        2 0.23314914E+00 0.57811022E+03</pdfrwt>
<pdfrwt beam="2">  1       -2 0.84820490E-02 0.57811022E+03</pdfrwt>
<totfact> 0.11363384E+03</totfact>
</mgrwt>
</event>
<event>
 4    1  0.1573232E-005  0.5400981E+03  0.7818608E-02  0.1003812E+00
         -2   -1    0    0    0  501 -0.00000000000E+00  0.00000000000E+00  0.79261643797E+02  0.79261643838E+02  0.25500000000E-02 0. -1.
          2   -1    0    0  501    0  0.00000000000E+00 -0.00000000000E+00 -0.92007289327E+03  0.92007289328E+03  0.25500000000E-02 0.  1.
    5000001    1    1    2    0    0  0.51903555088E+02 -0.18253971607E+03 -0.23829822948E+03  0.34644735985E+03  0.16500000000E+03 0.  0.
   -5000001    1    1    2    0    0 -0.51903555088E+02  0.18253971607E+03 -0.60251302000E+03  0.65288717727E+03  0.16500000000E+03 0.  0.
<mgrwt>
<rscale>  0 0.54009810E+03</rscale>
<asrwt>0</asrwt>
<pdfrwt beam="1">  1        2 0.14154967E+00 0.54009810E+03</pdfrwt>
<pdfrwt beam="2">  1       -2 0.12194100E-01 0.54009810E+03</pdfrwt>
<totfact> 0.14169918E+03</totfact>
</mgrwt>
</event>
<event>
 4    1  0.1573232E-005  0.5364434E+03  0.7818608E-02  0.1004681E+00
         -2   -1    0    0    0  501 -0.00000000000E+00  0.00000000000E+00  0.19031448856E+03  0.19031448858E+03  0.25500000000E-02 0. -1.
          2   -1    0    0  501    0  0.00000000000E+00 -0.00000000000E+00 -0.37802102695E+03  0.37802102696E+03  0.25500000000E-02 0.  1.
    5000001    1    1    2    0    0 -0.16405734691E+03  0.13066762067E+03 -0.12245919798E+03  0.29361555704E+03  0.16500000000E+03 0.  0.
   -5000001    1    1    2    0    0  0.16405734691E+03 -0.13066762067E+03 -0.65247340411E+02  0.27471995850E+03  0.16500000000E+03 0.  0.
<mgrwt>
<rscale>  0 0.53644339E+03</rscale>
<asrwt>0</asrwt>
<pdfrwt beam="1">  1        2 0.58157081E-01 0.53644339E+03</pdfrwt>
<pdfrwt beam="2">  1       -2 0.29279152E-01 0.53644339E+03</pdfrwt>
<totfact> 0.91192354E+02</totfact>
</mgrwt>
</event>
<event>
 4    1  0.1573232E-005  0.3751347E+03  0.7818608E-02  0.1052747E+00
          2   -1    0    0  501    0  0.00000000000E+00  0.00000000000E+00  0.25283939041E+04  0.25283939041E+04  0.25500000000E-02 0.  1.
         -2   -1    0    0    0  501 -0.00000000000E+00 -0.00000000000E+00 -0.13914568567E+02  0.13914568800E+02  0.25500000000E-02 0. -1.
    5000001    1    1    2    0    0  0.73544651301E+02  0.22027105802E+02  0.15650180735E+04  0.15755635752E+04  0.16500000000E+03 0.  0.
   -5000001    1    1    2    0    0 -0.73544651301E+02 -0.22027105802E+02  0.94946126207E+03  0.96674489774E+03  0.16500000000E+03 0.  0.
<mgrwt>
<rscale>  0 0.37513470E+03</rscale>
<asrwt>0</asrwt>
<pdfrwt beam="1">  1        2 0.38898353E+00 0.37513470E+03</pdfrwt>
<pdfrwt beam="2">  1       -2 0.21407037E-02 0.37513470E+03</pdfrwt>
<totfact> 0.26850806E+03</totfact>
</mgrwt>
</event>
<event>
 4    1  0.1573232E-005  0.5364370E+03  0.7818608E-02  0.1004683E+00
          2   -1    0    0  501    0  0.00000000000E+00  0.00000000000E+00  0.21643973201E+03  0.21643973202E+03  0.25500000000E-02 0.  1.
         -2   -1    0    0    0  501 -0.00000000000E+00 -0.00000000000E+00 -0.33238423793E+03  0.33238423794E+03  0.25500000000E-02 0. -1.
    5000001    1    1    2    0    0  0.22470570413E+02  0.17123995499E+03 -0.18280660374E+03  0.30078447947E+03  0.16500000000E+03 0.  0.
   -5000001    1    1    2    0    0 -0.22470570413E+02 -0.17123995499E+03  0.66862097816E+02  0.24803949049E+03  0.16500000000E+03 0.  0.
<mgrwt>
<rscale>  0 0.53643697E+03</rscale>
<asrwt>0</asrwt>
<pdfrwt beam="1">  1        2 0.33298420E-01 0.53643697E+03</pdfrwt>
<pdfrwt beam="2">  1       -2 0.51136037E-01 0.53643697E+03</pdfrwt>
<totfact> 0.57594288E+02</totfact>
</mgrwt>
</event>
<event>
 4    1  0.1573232E-005  0.3903400E+03  0.7818608E-02  0.1047177E+00
         -2   -1    0    0    0  501 -0.00000000000E+00  0.00000000000E+00  0.78364937243E+02  0.78364937284E+02  0.25500000000E-02 0. -1.
          2   -1    0    0  501    0  0.00000000000E+00 -0.00000000000E+00 -0.48607628407E+03  0.48607628407E+03  0.25500000000E-02 0.  1.
    5000001    1    1    2    0    0  0.91602521740E+02 -0.13831450402E+02 -0.13474831640E+03  0.23230247476E+03  0.16500000000E+03 0.  0.
   -5000001    1    1    2    0    0 -0.91602521740E+02  0.13831450402E+02 -0.27296303043E+03  0.33213874659E+03  0.16500000000E+03 0.  0.
<mgrwt>
<rscale>  0 0.39034004E+03</rscale>
<asrwt>0</asrwt>
<pdfrwt beam="1">  1        2 0.74780965E-01 0.39034004E+03</pdfrwt>
<pdfrwt beam="2">  1       -2 0.12056144E-01 0.39034004E+03</pdfrwt>
<totfact> 0.31711494E+03</totfact>
</mgrwt>
</event>
<event>
 4    1  0.1573232E-005  0.8059537E+03  0.7818608E-02  0.9551439E-01
          2   -1    0    0  501    0  0.00000000000E+00  0.00000000000E+00  0.89426581799E+03  0.89426581800E+03  0.25500000000E-02 0.  1.
         -2   -1    0    0    0  501 -0.00000000000E+00 -0.00000000000E+00 -0.18159067725E+03  0.18159067727E+03  0.25500000000E-02 0. -1.
    5000001    1    1    2    0    0 -0.34539175593E+03 -0.88369130208E+02  0.47618602904E+03  0.61731896333E+03  0.16500000000E+03 0.  0.
   -5000001    1    1    2    0    0  0.34539175593E+03  0.88369130208E+02  0.23648911171E+03  0.45853753193E+03  0.16500000000E+03 0.  0.
<mgrwt>
<rscale>  0 0.80595368E+03</rscale>
<asrwt>0</asrwt>
<pdfrwt beam="1">  1        2 0.13757935E+00 0.80595368E+03</pdfrwt>
<pdfrwt beam="2">  1       -2 0.27937028E-01 0.80595368E+03</pdfrwt>
<totfact> 0.34765455E+02</totfact>
</mgrwt>
</event>
<event>
 4    1  0.1573232E-005  0.4904032E+03  0.7818608E-02  0.1016315E+00
          2   -1    0    0  501    0  0.00000000000E+00  0.00000000000E+00  0.60050957494E+03  0.60050957494E+03  0.25500000000E-02 0. -1.
         -2   -1    0    0    0  501 -0.00000000000E+00 -0.00000000000E+00 -0.10012133923E+03  0.10012133926E+03  0.25500000000E-02 0.  1.
    5000001    1    1    2    0    0  0.57627076687E+02 -0.17115592380E+03  0.22613478954E+03  0.33313236597E+03  0.16500000000E+03 0.  0.
   -5000001    1    1    2    0    0 -0.57627076687E+02  0.17115592380E+03  0.27425344617E+03  0.36749854823E+03  0.16500000000E+03 0.  0.
<mgrwt>
<rscale>  0 0.49040319E+03</rscale>
<asrwt>0</asrwt>
<pdfrwt beam="1">  1        2 0.92386089E-01 0.49040319E+03</pdfrwt>
<pdfrwt beam="2">  1       -2 0.15403283E-01 0.49040319E+03</pdfrwt>
<totfact> 0.16580651E+03</totfact>
</mgrwt>
</event>
<event>
 4    1  0.1573232E-005  0.4397659E+03  0.7818608E-02  0.1030819E+00
         -2   -1    0    0    0  501 -0.00000000000E+00  0.00000000000E+00  0.83325406346E+02  0.83325406385E+02  0.25500000000E-02 0. -1.
          2   -1    0    0  501    0  0.00000000000E+00 -0.00000000000E+00 -0.58023723577E+03  0.58023723578E+03  0.25500000000E-02 0.  1.
    5000001    1    1    2    0    0 -0.10203761972E+03  0.99183834894E+02 -0.20383750081E+03  0.29836862382E+03  0.16500000000E+03 0.  0.
   -5000001    1    1    2    0    0  0.10203761972E+03 -0.99183834894E+02 -0.29307432861E+03  0.36519401834E+03  0.16500000000E+03 0.  0.
<mgrwt>
<rscale>  0 0.43976586E+03</rscale>
<asrwt>0</asrwt>
<pdfrwt beam="1">  1        2 0.89267265E-01 0.43976586E+03</pdfrwt>
<pdfrwt beam="2">  1       -2 0.12819294E-01 0.43976586E+03</pdfrwt>
<totfact> 0.23423834E+03</totfact>
</mgrwt>
</event>
<event>
 4    1  0.1573232E-005  0.4071254E+03  0.7818608E-02  0.1041340E+00
          2   -1    0    0  501    0  0.00000000000E+00  0.00000000000E+00  0.26127141356E+03  0.26127141357E+03  0.25500000000E-02 0.  1.
         -2   -1    0    0    0  501 -0.00000000000E+00 -0.00000000000E+00 -0.15860049625E+03  0.15860049627E+03  0.25500000000E-02 0. -1.
    5000001    1    1    2    0    0 -0.73739373427E+02  0.55050635248E+02 -0.26831388296E+02  0.19082188300E+03  0.16500000000E+03 0.  0.
   -5000001    1    1    2    0    0  0.73739373427E+02 -0.55050635248E+02  0.12950230561E+03  0.22905002683E+03  0.16500000000E+03 0.  0.
<mgrwt>
<rscale>  0 0.40712541E+03</rscale>
<asrwt>0</asrwt>
<pdfrwt beam="1">  1        2 0.40195602E-01 0.40712541E+03</pdfrwt>
<pdfrwt beam="2">  1       -2 0.24400077E-01 0.40712541E+03</pdfrwt>
<totfact> 0.18994079E+03</totfact>
</mgrwt>
</event>
<event>
 4    1  0.1573232E-005  0.4149945E+03  0.7818608E-02  0.1038708E+00
         -2   -1    0    0    0  501 -0.00000000000E+00  0.00000000000E+00  0.15523913125E+03  0.15523913127E+03  0.25500000000E-02 0. -1.
          2   -1    0    0  501    0  0.00000000000E+00 -0.00000000000E+00 -0.27734700165E+03  0.27734700166E+03  0.25500000000E-02 0.  1.
    5000001    1    1    2    0    0 -0.13171976505E+02  0.12127080926E+03 -0.93182511349E+02  0.22536213206E+03  0.16500000000E+03 0.  0.
   -5000001    1    1    2    0    0  0.13171976505E+02 -0.12127080926E+03 -0.28925359048E+02  0.20722400088E+03  0.16500000000E+03 0.  0.
<mgrwt>
<rscale>  0 0.41499449E+03</rscale>
<asrwt>0</asrwt>
<pdfrwt beam="1">  1        2 0.42668769E-01 0.41499449E+03</pdfrwt>
<pdfrwt beam="2">  1       -2 0.23882943E-01 0.41499449E+03</pdfrwt>
<totfact> 0.18487416E+03</totfact>
</mgrwt>
</event>
<event>
 4    1  0.1573232E-005  0.3546985E+03  0.7818608E-02  0.1060703E+00
         -2   -1    0    0    0  501 -0.00000000000E+00  0.00000000000E+00  0.15769368209E+02  0.15769368416E+02  0.25500000000E-02 0. -1.
          2   -1    0    0  501    0  0.00000000000E+00 -0.00000000000E+00 -0.19945477537E+04  0.19945477537E+04  0.25500000000E-02 0.  1.
    5000001    1    1    2    0    0 -0.63962519979E+02  0.11189548789E+02 -0.10084819382E+04  0.10239517712E+04  0.16500000000E+03 0.  0.
   -5000001    1    1    2    0    0  0.63962519979E+02 -0.11189548789E+02 -0.97029644720E+03  0.98636535088E+03  0.16500000000E+03 0.  0.
<mgrwt>
<rscale>  0 0.35469851E+03</rscale>
<asrwt>0</asrwt>
<pdfrwt beam="1">  1        2 0.30685330E+00 0.35469851E+03</pdfrwt>
<pdfrwt beam="2">  1       -2 0.24260582E-02 0.35469851E+03</pdfrwt>
<totfact> 0.43397102E+03</totfact>
</mgrwt>
</event>
<event>
 4    1  0.1573232E-005  0.6004077E+03  0.7818608E-02  0.9904560E-01
         -2   -1    0    0    0  501 -0.00000000000E+00  0.00000000000E+00  0.87237580179E+02  0.87237580216E+02  0.25500000000E-02 0. -1.
          2   -1    0    0  501    0  0.00000000000E+00 -0.00000000000E+00 -0.10330681061E+04  0.10330681061E+04  0.25500000000E-02 0.  1.
    5000001    1    1    2    0    0  0.17380069946E+02  0.24465181851E+03 -0.37523033538E+03  0.47768125745E+03  0.16500000000E+03 0.  0.
   -5000001    1    1    2    0    0 -0.17380069946E+02 -0.24465181851E+03 -0.57060019050E+03  0.64262442883E+03  0.16500000000E+03 0.  0.
<mgrwt>
<rscale>  0 0.60040773E+03</rscale>
<asrwt>0</asrwt>
<pdfrwt beam="1">  1        2 0.15893355E+00 0.60040773E+03</pdfrwt>
<pdfrwt beam="2">  1       -2 0.13421167E-01 0.60040773E+03</pdfrwt>
<totfact> 0.10223105E+03</totfact>
</mgrwt>
</event>
<event>
 4    1  0.1573232E-005  0.4038435E+03  0.7818608E-02  0.1042457E+00
          2   -1    0    0  501    0  0.00000000000E+00  0.00000000000E+00  0.19578502820E+04  0.19578502820E+04  0.25500000000E-02 0.  1.
         -2   -1    0    0    0  501 -0.00000000000E+00 -0.00000000000E+00 -0.20825078198E+02  0.20825078354E+02  0.25500000000E-02 0. -1.
    5000001    1    1    2    0    0  0.98588427243E+02  0.13162889356E+02  0.67232133551E+03  0.69938109627E+03  0.16500000000E+03 0.  0.
   -5000001    1    1    2    0    0 -0.98588427243E+02 -0.13162889356E+02  0.12647038683E+04  0.12792942641E+04  0.16500000000E+03 0.  0.
<mgrwt>
<rscale>  0 0.40384346E+03</rscale>
<asrwt>0</asrwt>
<pdfrwt beam="1">  1        2 0.30120786E+00 0.40384346E+03</pdfrwt>
<pdfrwt beam="2">  1       -2 0.32038568E-02 0.40384346E+03</pdfrwt>
<totfact> 0.29872381E+03</totfact>
</mgrwt>
</event>
<event>
 4    1  0.1573232E-005  0.4026054E+03  0.7818608E-02  0.1042881E+00
         -2   -1    0    0    0  501 -0.00000000000E+00  0.00000000000E+00  0.30842088660E+02  0.30842088765E+02  0.25500000000E-02 0. -1.
          2   -1    0    0  501    0  0.00000000000E+00 -0.00000000000E+00 -0.13138793853E+04  0.13138793853E+04  0.25500000000E-02 0.  1.
    5000001    1    1    2    0    0 -0.54632387345E+02  0.60135122035E+02 -0.91484916157E+03  0.93315321308E+03  0.16500000000E+03 0.  0.
   -5000001    1    1    2    0    0  0.54632387345E+02 -0.60135122035E+02 -0.36818813507E+03  0.41156826099E+03  0.16500000000E+03 0.  0.
<mgrwt>
<rscale>  0 0.40260544E+03</rscale>
<asrwt>0</asrwt>
<pdfrwt beam="1">  1        2 0.20213525E+00 0.40260544E+03</pdfrwt>
<pdfrwt beam="2">  1       -2 0.47449378E-02 0.40260544E+03</pdfrwt>
<totfact> 0.36647886E+03</totfact>
</mgrwt>
</event>
<event>
 4    1  0.1573232E-005  0.4683954E+03  0.7818608E-02  0.1022374E+00
          2   -1    0    0  501    0  0.00000000000E+00  0.00000000000E+00  0.23986015149E+03  0.23986015150E+03  0.25500000000E-02 0. -1.
         -2   -1    0    0    0  501 -0.00000000000E+00 -0.00000000000E+00 -0.22866891609E+03  0.22866891610E+03  0.25500000000E-02 0.  1.
    5000001    1    1    2    0    0  0.13471680514E+03  0.97335141414E+02  0.64978273526E+01  0.23428608388E+03  0.16500000000E+03 0.  0.
   -5000001    1    1    2    0    0 -0.13471680514E+03 -0.97335141414E+02  0.46934080493E+01  0.23424298372E+03  0.16500000000E+03 0.  0.
<mgrwt>
<rscale>  0 0.46839539E+03</rscale>
<asrwt>0</asrwt>
<pdfrwt beam="1">  1        2 0.36901562E-01 0.46839539E+03</pdfrwt>
<pdfrwt beam="2">  1       -2 0.35179833E-01 0.46839539E+03</pdfrwt>
<totfact> 0.10692142E+03</totfact>
</mgrwt>
</event>
<event>
 4    1  0.1573232E-005  0.4035124E+03  0.7818608E-02  0.1042570E+00
         -2   -1    0    0    0  501 -0.00000000000E+00  0.00000000000E+00  0.11749299150E+02  0.11749299426E+02  0.25500000000E-02 0. -1.
          2   -1    0    0  501    0  0.00000000000E+00 -0.00000000000E+00 -0.34645105168E+04  0.34645105168E+04  0.25500000000E-02 0.  1.
    5000001    1    1    2    0    0 -0.60351768408E+02  0.98206879487E+02 -0.16064977388E+04  0.16190574146E+04  0.16500000000E+03 0.  0.
   -5000001    1    1    2    0    0  0.60351768408E+02 -0.98206879487E+02 -0.18462634789E+04  0.18572024016E+04  0.16500000000E+03 0.  0.
<mgrwt>
<rscale>  0 0.40351243E+03</rscale>
<asrwt>0</asrwt>
<pdfrwt beam="1">  1        2 0.53300081E+00 0.40351243E+03</pdfrwt>
<pdfrwt beam="2">  1       -2 0.18075873E-02 0.40351243E+03</pdfrwt>
<totfact> 0.93820390E+02</totfact>
</mgrwt>
</event>
<event>
 4    1  0.1573232E-005  0.5013377E+03  0.7818608E-02  0.1013430E+00
         -2   -1    0    0    0  501 -0.00000000000E+00  0.00000000000E+00  0.14692079341E+03  0.14692079344E+03  0.25500000000E-02 0. -1.
          2   -1    0    0  501    0  0.00000000000E+00 -0.00000000000E+00 -0.42767858364E+03  0.42767858365E+03  0.25500000000E-02 0.  1.
    5000001    1    1    2    0    0  0.51148135959E+02 -0.26771732593E+02  0.65533022201E+02  0.18668806731E+03  0.16500000000E+03 0.  0.
   -5000001    1    1    2    0    0 -0.51148135959E+02  0.26771732593E+02 -0.34629081243E+03  0.38791130977E+03  0.16500000000E+03 0.  0.
<mgrwt>
<rscale>  0 0.50133772E+03</rscale>
<asrwt>0</asrwt>
<pdfrwt beam="1">  1        2 0.65796704E-01 0.50133772E+03</pdfrwt>
<pdfrwt beam="2">  1       -2 0.22603199E-01 0.50133772E+03</pdfrwt>
<totfact> 0.12662532E+03</totfact>
</mgrwt>
</event>
<event>
 4    1  0.1573232E-005  0.5006683E+03  0.7818608E-02  0.1013605E+00
          2   -1    0    0  501    0  0.00000000000E+00  0.00000000000E+00  0.35654982726E+04  0.35654982726E+04  0.25500000000E-02 0.  1.
         -2   -1    0    0    0  501 -0.00000000000E+00 -0.00000000000E+00 -0.17575996868E+02  0.17575997053E+02  0.25500000000E-02 0. -1.
    5000001    1    1    2    0    0  0.54311950796E+02 -0.16989480828E+03  0.13428904354E+04  0.13646954808E+04  0.16500000000E+03 0.  0.
   -5000001    1    1    2    0    0 -0.54311950796E+02  0.16989480828E+03  0.22050318404E+04  0.22183787889E+04  0.16500000000E+03 0.  0.
<mgrwt>
<rscale>  0 0.50066830E+03</rscale>
<asrwt>0</asrwt>
<pdfrwt beam="1">  1        2 0.54853749E+00 0.50066830E+03</pdfrwt>
<pdfrwt beam="2">  1       -2 0.27040030E-02 0.50066830E+03</pdfrwt>
<totfact> 0.43251390E+02</totfact>
</mgrwt>
</event>
<event>
 4    1  0.1573232E-005  0.3627160E+03  0.7818608E-02  0.1057514E+00
         -2   -1    0    0    0  501 -0.00000000000E+00  0.00000000000E+00  0.80305736238E+02  0.80305736278E+02  0.25500000000E-02 0. -1.
          2   -1    0    0  501    0  0.00000000000E+00 -0.00000000000E+00 -0.40956884845E+03  0.40956884846E+03  0.25500000000E-02 0.  1.
    5000001    1    1    2    0    0  0.74678120655E+02 -0.29006739008E+01 -0.17674856351E+03  0.25308158826E+03  0.16500000000E+03 0.  0.
   -5000001    1    1    2    0    0 -0.74678120655E+02  0.29006739008E+01 -0.15251454870E+03  0.23679299647E+03  0.16500000000E+03 0.  0.
<mgrwt>
<rscale>  0 0.36271602E+03</rscale>
<asrwt>0</asrwt>
<pdfrwt beam="1">  1        2 0.63010591E-01 0.36271602E+03</pdfrwt>
<pdfrwt beam="2">  1       -2 0.12354729E-01 0.36271602E+03</pdfrwt>
<totfact> 0.36830402E+03</totfact>
</mgrwt>
</event>
<event>
 4    1  0.1573232E-005  0.5324052E+03  0.7818608E-02  0.1005650E+00
         -2   -1    0    0    0  501 -0.00000000000E+00  0.00000000000E+00  0.42065621075E+02  0.42065621153E+02  0.25500000000E-02 0. -1.
          2   -1    0    0  501    0  0.00000000000E+00 -0.00000000000E+00 -0.16846016793E+04  0.16846016793E+04  0.25500000000E-02 0.  1.
    5000001    1    1    2    0    0 -0.87120561157E+02  0.12805171828E+03 -0.12759054211E+04  0.12958189991E+04  0.16500000000E+03 0.  0.
   -5000001    1    1    2    0    0  0.87120561157E+02 -0.12805171828E+03 -0.36663063708E+03  0.43084830135E+03  0.16500000000E+03 0.  0.
<mgrwt>
<rscale>  0 0.53240517E+03</rscale>
<asrwt>0</asrwt>
<pdfrwt beam="1">  1        2 0.25916944E+00 0.53240517E+03</pdfrwt>
<pdfrwt beam="2">  1       -2 0.64716353E-02 0.53240517E+03</pdfrwt>
<totfact> 0.14133309E+03</totfact>
</mgrwt>
</event>
<event>
 4    1  0.1573232E-005  0.4065709E+03  0.7818608E-02  0.1041528E+00
          2   -1    0    0  501    0  0.00000000000E+00  0.00000000000E+00  0.56008904469E+03  0.56008904470E+03  0.25500000000E-02 0. -1.
         -2   -1    0    0    0  501 -0.00000000000E+00 -0.00000000000E+00 -0.73782874989E+02  0.73782875033E+02  0.25500000000E-02 0.  1.
    5000001    1    1    2    0    0 -0.32978899349E+02  0.11377854481E+03  0.25589697214E+03  0.32671306281E+03  0.16500000000E+03 0.  0.
   -5000001    1    1    2    0    0  0.32978899349E+02 -0.11377854481E+03  0.23040919757E+03  0.30715885692E+03  0.16500000000E+03 0.  0.
<mgrwt>
<rscale>  0 0.40657093E+03</rscale>
<asrwt>0</asrwt>
<pdfrwt beam="1">  1        2 0.86167546E-01 0.40657093E+03</pdfrwt>
<pdfrwt beam="2">  1       -2 0.11351212E-01 0.40657093E+03</pdfrwt>
<totfact> 0.29756345E+03</totfact>
</mgrwt>
</event>
<event>
 4    1  0.1573232E-005  0.4266195E+03  0.7818608E-02  0.1034933E+00
          2   -1    0    0  501    0  0.00000000000E+00  0.00000000000E+00  0.20402070173E+04  0.20402070173E+04  0.25500000000E-02 0.  1.
         -2   -1    0    0    0  501 -0.00000000000E+00 -0.00000000000E+00 -0.22302172765E+02  0.22302172910E+02  0.25500000000E-02 0. -1.
    5000001    1    1    2    0    0  0.11814831314E+03  0.38639856979E+02  0.12658656957E+04  0.12826117971E+04  0.16500000000E+03 0.  0.
   -5000001    1    1    2    0    0 -0.11814831314E+03 -0.38639856979E+02  0.75203914888E+03  0.77989739318E+03  0.16500000000E+03 0.  0.
<mgrwt>
<rscale>  0 0.42661950E+03</rscale>
<asrwt>0</asrwt>
<pdfrwt beam="1">  1        2 0.31387809E+00 0.42661950E+03</pdfrwt>
<pdfrwt beam="2">  1       -2 0.34311025E-02 0.42661950E+03</pdfrwt>
<totfact> 0.24312471E+03</totfact>
</mgrwt>
</event>
<event>
 4    1  0.1573232E-005  0.5662142E+03  0.7818608E-02  0.9978091E-01
          2   -1    0    0  501    0  0.00000000000E+00  0.00000000000E+00  0.13557577330E+03  0.13557577332E+03  0.25500000000E-02 0.  1.
         -2   -1    0    0    0  501 -0.00000000000E+00 -0.00000000000E+00 -0.59117949491E+03  0.59117949492E+03  0.25500000000E-02 0. -1.
    5000001    1    1    2    0    0  0.20828693058E+03  0.88565748519E+02 -0.17492274256E+03  0.33022765348E+03  0.16500000000E+03 0.  0.
   -5000001    1    1    2    0    0 -0.20828693058E+03 -0.88565748519E+02 -0.28068097905E+03  0.39652761475E+03  0.16500000000E+03 0.  0.
<mgrwt>
<rscale>  0 0.56621415E+03</rscale>
<asrwt>0</asrwt>
<pdfrwt beam="1">  1        2 0.20857812E-01 0.56621415E+03</pdfrwt>
<pdfrwt beam="2">  1       -2 0.90950690E-01 0.56621415E+03</pdfrwt>
<totfact> 0.28221677E+02</totfact>
</mgrwt>
</event>
<event>
 4    1  0.1573232E-005  0.7075729E+03  0.7818608E-02  0.9704369E-01
         -2   -1    0    0    0  501 -0.00000000000E+00  0.00000000000E+00  0.13970042793E+03  0.13970042796E+03  0.25500000000E-02 0. -1.
          2   -1    0    0  501    0  0.00000000000E+00 -0.00000000000E+00 -0.89595172718E+03  0.89595172719E+03  0.25500000000E-02 0.  1.
    5000001    1    1    2    0    0 -0.10636159151E+02  0.16688294592E+03 -0.76531175618E+03  0.80055613774E+03  0.16500000000E+03 0.  0.
   -5000001    1    1    2    0    0  0.10636159151E+02 -0.16688294592E+03  0.90604569313E+01  0.23509601740E+03  0.16500000000E+03 0.  0.
<mgrwt>
<rscale>  0 0.70757286E+03</rscale>
<asrwt>0</asrwt>
<pdfrwt beam="1">  1        2 0.13783872E+00 0.70757286E+03</pdfrwt>
<pdfrwt beam="2">  1       -2 0.21492374E-01 0.70757286E+03</pdfrwt>
<totfact> 0.55801084E+02</totfact>
</mgrwt>
</event>
<event>
 4    1  0.1573232E-005  0.3905117E+03  0.7818608E-02  0.1047116E+00
         -2   -1    0    0    0  501 -0.00000000000E+00  0.00000000000E+00  0.26520604167E+02  0.26520604290E+02  0.25500000000E-02 0. -1.
          2   -1    0    0  501    0  0.00000000000E+00 -0.00000000000E+00 -0.14375560148E+04  0.14375560148E+04  0.25500000000E-02 0.  1.
    5000001    1    1    2    0    0  0.27350643848E+02 -0.65319188873E+02 -0.41790350383E+03  0.45484392122E+03  0.16500000000E+03 0.  0.
   -5000001    1    1    2    0    0 -0.27350643848E+02  0.65319188873E+02 -0.99313190684E+03  0.10092326979E+04  0.16500000000E+03 0.  0.
<mgrwt>
<rscale>  0 0.39051174E+03</rscale>
<asrwt>0</asrwt>
<pdfrwt beam="1">  1        2 0.22116240E+00 0.39051174E+03</pdfrwt>
<pdfrwt beam="2">  1       -2 0.40800941E-02 0.39051174E+03</pdfrwt>
<totfact> 0.39408876E+03</totfact>
</mgrwt>
</event>
<event>
 4    1  0.1573232E-005  0.4939047E+03  0.7818608E-02  0.1015382E+00
          2   -1    0    0  501    0  0.00000000000E+00  0.00000000000E+00  0.10167948022E+03  0.10167948025E+03  0.25500000000E-02 0.  1.
         -2   -1    0    0    0  501 -0.00000000000E+00 -0.00000000000E+00 -0.59978131387E+03  0.59978131387E+03  0.25500000000E-02 0. -1.
    5000001    1    1    2    0    0 -0.65893282852E+02 -0.86829771222E+02 -0.38975520608E+02  0.20155749825E+03  0.16500000000E+03 0.  0.
   -5000001    1    1    2    0    0  0.65893282852E+02  0.86829771222E+02 -0.45912631304E+03  0.49990329587E+03  0.16500000000E+03 0.  0.
<mgrwt>
<rscale>  0 0.49390466E+03</rscale>
<asrwt>0</asrwt>
<pdfrwt beam="1">  1        2 0.15642997E-01 0.49390466E+03</pdfrwt>
<pdfrwt beam="2">  1       -2 0.92274046E-01 0.49390466E+03</pdfrwt>
<totfact> 0.38414595E+02</totfact>
</mgrwt>
</event>
<event>
 4    1  0.1573232E-005  0.5586424E+03  0.7818608E-02  0.9995131E-01
         -2   -1    0    0    0  501 -0.00000000000E+00  0.00000000000E+00  0.66771226645E+02  0.66771226693E+02  0.25500000000E-02 0. -1.
          2   -1    0    0  501    0  0.00000000000E+00 -0.00000000000E+00 -0.11684722873E+04  0.11684722873E+04  0.25500000000E-02 0.  1.
    5000001    1    1    2    0    0  0.21623411665E+03  0.63478151806E+02 -0.54434395567E+03  0.61181860959E+03  0.16500000000E+03 0.  0.
   -5000001    1    1    2    0    0 -0.21623411665E+03 -0.63478151806E+02 -0.55735710499E+03  0.62342490442E+03  0.16500000000E+03 0.  0.
<mgrwt>
<rscale>  0 0.55864238E+03</rscale>
<asrwt>0</asrwt>
<pdfrwt beam="1">  1        2 0.17976495E+00 0.55864238E+03</pdfrwt>
<pdfrwt beam="2">  1       -2 0.10272497E-01 0.55864238E+03</pdfrwt>
<totfact> 0.13144763E+03</totfact>
</mgrwt>
</event>
<event>
 4    1  0.1573232E-005  0.3948626E+03  0.7818608E-02  0.1045573E+00
          2   -1    0    0  501    0  0.00000000000E+00  0.00000000000E+00  0.23137355458E+03  0.23137355459E+03  0.25500000000E-02 0. -1.
         -2   -1    0    0    0  501 -0.00000000000E+00 -0.00000000000E+00 -0.16846836197E+03  0.16846836199E+03  0.25500000000E-02 0.  1.
    5000001    1    1    2    0    0  0.10193894856E+03  0.35918366139E+02  0.40071419445E+02  0.20127691600E+03  0.16500000000E+03 0.  0.
   -5000001    1    1    2    0    0 -0.10193894856E+03 -0.35918366139E+02  0.22833773156E+02  0.19856500058E+03  0.16500000000E+03 0.  0.
<mgrwt>
<rscale>  0 0.39486263E+03</rscale>
<asrwt>0</asrwt>
<pdfrwt beam="1">  1        2 0.35595931E-01 0.39486263E+03</pdfrwt>
<pdfrwt beam="2">  1       -2 0.25918210E-01 0.39486263E+03</pdfrwt>
<totfact> 0.19479170E+03</totfact>
</mgrwt>
</event>
<event>
 4    1  0.1573232E-005  0.4949556E+03  0.7818608E-02  0.1015104E+00
          2   -1    0    0  501    0  0.00000000000E+00  0.00000000000E+00  0.83133035997E+02  0.83133036036E+02  0.25500000000E-02 0.  1.
         -2   -1    0    0    0  501 -0.00000000000E+00 -0.00000000000E+00 -0.73671395392E+03  0.73671395392E+03  0.25500000000E-02 0. -1.
    5000001    1    1    2    0    0  0.95865261178E+01  0.14295186407E+03 -0.51919836206E+03  0.56331081660E+03  0.16500000000E+03 0.  0.
   -5000001    1    1    2    0    0 -0.95865261178E+01 -0.14295186407E+03 -0.13438255586E+03  0.25653617336E+03  0.16500000000E+03 0.  0.
<mgrwt>
<rscale>  0 0.49495562E+03</rscale>
<asrwt>0</asrwt>
<pdfrwt beam="1">  1        2 0.12789698E-01 0.49495562E+03</pdfrwt>
<pdfrwt beam="2">  1       -2 0.11334060E+00 0.49495562E+03</pdfrwt>
<totfact> 0.30180339E+02</totfact>
</mgrwt>
</event>
<event>
 4    1  0.1573232E-005  0.5153188E+03  0.7818608E-02  0.1009856E+00
         -2   -1    0    0    0  501 -0.00000000000E+00  0.00000000000E+00  0.18134126898E+03  0.18134126900E+03  0.25500000000E-02 0. -1.
          2   -1    0    0  501    0  0.00000000000E+00 -0.00000000000E+00 -0.36609629312E+03  0.36609629313E+03  0.25500000000E-02 0.  1.
    5000001    1    1    2    0    0  0.18975502655E+03  0.50505063066E+02 -0.11852103110E+03  0.28254197265E+03  0.16500000000E+03 0.  0.
   -5000001    1    1    2    0    0 -0.18975502655E+03 -0.50505063066E+02 -0.66233993039E+02  0.26489558948E+03  0.16500000000E+03 0.  0.
<mgrwt>
<rscale>  0 0.51531880E+03</rscale>
<asrwt>0</asrwt>
<pdfrwt beam="1">  1        2 0.56322506E-01 0.51531880E+03</pdfrwt>
<pdfrwt beam="2">  1       -2 0.27898657E-01 0.51531880E+03</pdfrwt>
<totfact> 0.10322883E+03</totfact>
</mgrwt>
</event>
<event>
 4    1  0.1573232E-005  0.4282720E+03  0.7818608E-02  0.1034407E+00
          2   -1    0    0  501    0  0.00000000000E+00  0.00000000000E+00  0.60828346217E+03  0.60828346217E+03  0.25500000000E-02 0.  1.
         -2   -1    0    0    0  501 -0.00000000000E+00 -0.00000000000E+00 -0.75382975400E+02  0.75382975443E+02  0.25500000000E-02 0. -1.
    5000001    1    1    2    0    0  0.73945276440E+02  0.10639554818E+03  0.19795080961E+03  0.28843966372E+03  0.16500000000E+03 0.  0.
   -5000001    1    1    2    0    0 -0.73945276440E+02 -0.10639554818E+03  0.33494967716E+03  0.39522677390E+03  0.16500000000E+03 0.  0.
<mgrwt>
<rscale>  0 0.42827196E+03</rscale>
<asrwt>0</asrwt>
<pdfrwt beam="1">  1        2 0.93582074E-01 0.42827196E+03</pdfrwt>
<pdfrwt beam="2">  1       -2 0.11597381E-01 0.42827196E+03</pdfrwt>
<totfact> 0.26095405E+03</totfact>
</mgrwt>
</event>
<event>
 4    1  0.1573232E-005  0.5311619E+03  0.7818608E-02  0.1005951E+00
          2   -1    0    0  501    0  0.00000000000E+00  0.00000000000E+00  0.39412863338E+03  0.39412863339E+03  0.25500000000E-02 0.  1.
         -2   -1    0    0    0  501 -0.00000000000E+00 -0.00000000000E+00 -0.17895995846E+03  0.17895995848E+03  0.25500000000E-02 0. -1.
    5000001    1    1    2    0    0 -0.12030335311E+03 -0.13643247737E+03 -0.14975671238E+01  0.24558900700E+03  0.16500000000E+03 0.  0.
   -5000001    1    1    2    0    0  0.12030335311E+03  0.13643247737E+03  0.21666624204E+03  0.32749958487E+03  0.16500000000E+03 0.  0.
<mgrwt>
<rscale>  0 0.53116191E+03</rscale>
<asrwt>0</asrwt>
<pdfrwt beam="1">  1        2 0.60635173E-01 0.53116191E+03</pdfrwt>
<pdfrwt beam="2">  1       -2 0.27532302E-01 0.53116191E+03</pdfrwt>
<totfact> 0.97425559E+02</totfact>
</mgrwt>
</event>
<event>
 4    1  0.1573232E-005  0.3769320E+03  0.7818608E-02  0.1052074E+00
         -2   -1    0    0    0  501 -0.00000000000E+00  0.00000000000E+00  0.26202908025E+03  0.26202908026E+03  0.25500000000E-02 0. -1.
          2   -1    0    0  501    0  0.00000000000E+00 -0.00000000000E+00 -0.13555532698E+03  0.13555532700E+03  0.25500000000E-02 0.  1.
    5000001    1    1    2    0    0 -0.69105634142E+02 -0.46513746863E+02  0.10206865546E+03  0.21114480279E+03  0.16500000000E+03 0.  0.
   -5000001    1    1    2    0    0  0.69105634142E+02  0.46513746863E+02  0.24405097806E+02  0.18643960447E+03  0.16500000000E+03 0.  0.
<mgrwt>
<rscale>  0 0.37693202E+03</rscale>
<asrwt>0</asrwt>
<pdfrwt beam="1">  1        2 0.20854666E-01 0.37693202E+03</pdfrwt>
<pdfrwt beam="2">  1       -2 0.40312166E-01 0.37693202E+03</pdfrwt>
<totfact> 0.15628036E+03</totfact>
</mgrwt>
</event>
<event>
 4    1  0.1573232E-005  0.4670106E+03  0.7818608E-02  0.1022767E+00
         -2   -1    0    0    0  501 -0.00000000000E+00  0.00000000000E+00  0.69291629199E+02  0.69291629246E+02  0.25500000000E-02 0. -1.
          2   -1    0    0  501    0  0.00000000000E+00 -0.00000000000E+00 -0.78688747566E+03  0.78688747567E+03  0.25500000000E-02 0.  1.
    5000001    1    1    2    0    0 -0.15132804344E+03  0.28667396737E+02 -0.46845610234E+03  0.51999818864E+03  0.16500000000E+03 0.  0.
   -5000001    1    1    2    0    0  0.15132804344E+03 -0.28667396737E+02 -0.24913974412E+03  0.33618091628E+03  0.16500000000E+03 0.  0.
<mgrwt>
<rscale>  0 0.46701056E+03</rscale>
<asrwt>0</asrwt>
<pdfrwt beam="1">  1        2 0.12105961E+00 0.46701056E+03</pdfrwt>
<pdfrwt beam="2">  1       -2 0.10660251E-01 0.46701056E+03</pdfrwt>
<totfact> 0.21776361E+03</totfact>
</mgrwt>
</event>
<event>
 4    1  0.1573232E-005  0.1529388E+04  0.7818608E-02  0.8865142E-01
          2   -1    0    0  501    0  0.00000000000E+00  0.00000000000E+00  0.18542055243E+04  0.18542055243E+04  0.25500000000E-02 0.  1.
         -2   -1    0    0    0  501 -0.00000000000E+00 -0.00000000000E+00 -0.31536779261E+03  0.31536779262E+03  0.25500000000E-02 0. -1.
    5000001    1    1    2    0    0 -0.36629003488E+02 -0.74554096554E+03  0.79628561957E+03  0.11038427438E+04  0.16500000000E+03 0.  0.
   -5000001    1    1    2    0    0  0.36629003488E+02  0.74554096554E+03  0.74255211217E+03  0.10657305731E+04  0.16500000000E+03 0.  0.
<mgrwt>
<rscale>  0 0.15293877E+04</rscale>
<asrwt>0</asrwt>
<pdfrwt beam="1">  1        2 0.28526239E+00 0.15293877E+04</pdfrwt>
<pdfrwt beam="2">  1       -2 0.48518122E-01 0.15293877E+04</pdfrwt>
<totfact> 0.31230433E+01</totfact>
</mgrwt>
</event>
<event>
 4    1  0.1573232E-005  0.3725188E+03  0.7818608E-02  0.1053734E+00
          2   -1    0    0  501    0  0.00000000000E+00  0.00000000000E+00  0.79608477681E+03  0.79608477681E+03  0.25500000000E-02 0.  1.
         -2   -1    0    0    0  501 -0.00000000000E+00 -0.00000000000E+00 -0.43578971450E+02  0.43578971525E+02  0.25500000000E-02 0. -1.
    5000001    1    1    2    0    0  0.52091075832E+02 -0.41723660818E+02  0.25252373672E+03  0.30894592028E+03  0.16500000000E+03 0.  0.
   -5000001    1    1    2    0    0 -0.52091075832E+02  0.41723660818E+02  0.49998206864E+03  0.53071782805E+03  0.16500000000E+03 0.  0.
<mgrwt>
<rscale>  0 0.37251876E+03</rscale>
<asrwt>0</asrwt>
<pdfrwt beam="1">  1        2 0.12247457E+00 0.37251876E+03</pdfrwt>
<pdfrwt beam="2">  1       -2 0.67044579E-02 0.37251876E+03</pdfrwt>
<totfact> 0.44708311E+03</totfact>
</mgrwt>
</event>
<event>
 4    1  0.1573232E-005  0.4654734E+03  0.7818608E-02  0.1023206E+00
         -2   -1    0    0    0  501 -0.00000000000E+00  0.00000000000E+00  0.47180538997E+02  0.47180539066E+02  0.25500000000E-02 0. -1.
          2   -1    0    0  501    0  0.00000000000E+00 -0.00000000000E+00 -0.11480662067E+04  0.11480662067E+04  0.25500000000E-02 0.  1.
    5000001    1    1    2    0    0 -0.46248995548E+02 -0.15333945033E+03 -0.45823648056E+03  0.51269642941E+03  0.16500000000E+03 0.  0.
   -5000001    1    1    2    0    0  0.46248995548E+02  0.15333945033E+03 -0.64264918713E+03  0.68255031634E+03  0.16500000000E+03 0.  0.
<mgrwt>
<rscale>  0 0.46547345E+03</rscale>
<asrwt>0</asrwt>
<pdfrwt beam="1">  1        2 0.17662555E+00 0.46547345E+03</pdfrwt>
<pdfrwt beam="2">  1       -2 0.72585453E-02 0.46547345E+03</pdfrwt>
<totfact> 0.23583451E+03</totfact>
</mgrwt>
</event>
<event>
 4    1  0.1573232E-005  0.4944134E+03  0.7818608E-02  0.1015247E+00
          2   -1    0    0  501    0  0.00000000000E+00  0.00000000000E+00  0.38393418448E+03  0.38393418448E+03  0.25500000000E-02 0.  1.
         -2   -1    0    0    0  501 -0.00000000000E+00 -0.00000000000E+00 -0.15917088563E+03  0.15917088565E+03  0.25500000000E-02 0. -1.
    5000001    1    1    2    0    0 -0.14049053493E+03  0.92628227024E+02  0.19435360828E+03  0.30547651939E+03  0.16500000000E+03 0.  0.
   -5000001    1    1    2    0    0  0.14049053493E+03 -0.92628227024E+02  0.30409690565E+02  0.23762855074E+03  0.16500000000E+03 0.  0.
<mgrwt>
<rscale>  0 0.49441337E+03</rscale>
<asrwt>0</asrwt>
<pdfrwt beam="1">  1        2 0.59066797E-01 0.49441337E+03</pdfrwt>
<pdfrwt beam="2">  1       -2 0.24487829E-01 0.49441337E+03</pdfrwt>
<totfact> 0.12387800E+03</totfact>
</mgrwt>
</event>
<event>
 4    1  0.1573232E-005  0.4473518E+03  0.7818608E-02  0.1028515E+00
          2   -1    0    0  501    0  0.00000000000E+00  0.00000000000E+00  0.15409069810E+04  0.15409069810E+04  0.25500000000E-02 0.  1.
         -2   -1    0    0    0  501 -0.00000000000E+00 -0.00000000000E+00 -0.32468476962E+02  0.32468477062E+02  0.25500000000E-02 0. -1.
    5000001    1    1    2    0    0  0.38288377410E+02 -0.11102103761E+03  0.10881432085E+04  0.11068298482E+04  0.16500000000E+03 0.  0.
   -5000001    1    1    2    0    0 -0.38288377410E+02  0.11102103761E+03  0.42029529546E+03  0.46654560980E+03  0.16500000000E+03 0.  0.
<mgrwt>
<rscale>  0 0.44735178E+03</rscale>
<asrwt>0</asrwt>
<pdfrwt beam="1">  1        2 0.23706258E+00 0.44735178E+03</pdfrwt>
<pdfrwt beam="2">  1       -2 0.49951510E-02 0.44735178E+03</pdfrwt>
<totfact> 0.25370655E+03</totfact>
</mgrwt>
</event>
<event>
 4    1  0.1573232E-005  0.5166184E+03  0.7818608E-02  0.1009530E+00
         -2   -1    0    0    0  501 -0.00000000000E+00  0.00000000000E+00  0.96124763735E+02  0.96124763768E+02  0.25500000000E-02 0. -1.
          2   -1    0    0  501    0  0.00000000000E+00 -0.00000000000E+00 -0.69413584746E+03  0.69413584747E+03  0.25500000000E-02 0.  1.
    5000001    1    1    2    0    0  0.59491882529E+02 -0.12702704901E+03 -0.51437817064E+03  0.55810846410E+03  0.16500000000E+03 0.  0.
   -5000001    1    1    2    0    0 -0.59491882529E+02  0.12702704901E+03 -0.83632913087E+02  0.23215214714E+03  0.16500000000E+03 0.  0.
<mgrwt>
<rscale>  0 0.51661841E+03</rscale>
<asrwt>0</asrwt>
<pdfrwt beam="1">  1        2 0.10679013E+00 0.51661841E+03</pdfrwt>
<pdfrwt beam="2">  1       -2 0.14788426E-01 0.51661841E+03</pdfrwt>
<totfact> 0.14887329E+03</totfact>
</mgrwt>
</event>
<event>
 4    1  0.1573232E-005  0.3620873E+03  0.7818608E-02  0.1057760E+00
          2   -1    0    0  501    0  0.00000000000E+00  0.00000000000E+00  0.45290943484E+03  0.45290943485E+03  0.25500000000E-02 0.  1.
         -2   -1    0    0    0  501 -0.00000000000E+00 -0.00000000000E+00 -0.72369458982E+02  0.72369459027E+02  0.25500000000E-02 0. -1.
    5000001    1    1    2    0    0  0.58174698257E+02  0.85644427206E+01  0.25665684635E+03  0.31073361900E+03  0.16500000000E+03 0.  0.
   -5000001    1    1    2    0    0 -0.58174698257E+02 -0.85644427206E+01  0.12388312951E+03  0.21454527488E+03  0.16500000000E+03 0.  0.
<mgrwt>
<rscale>  0 0.36208734E+03</rscale>
<asrwt>0</asrwt>
<pdfrwt beam="1">  1        2 0.69678374E-01 0.36208734E+03</pdfrwt>
<pdfrwt beam="2">  1       -2 0.11133763E-01 0.36208734E+03</pdfrwt>
<totfact> 0.39009852E+03</totfact>
</mgrwt>
</event>
<event>
 4    1  0.1573232E-005  0.4849273E+03  0.7818608E-02  0.1017790E+00
          2   -1    0    0  501    0  0.00000000000E+00  0.00000000000E+00  0.81901820961E+03  0.81901820961E+03  0.25500000000E-02 0.  1.
         -2   -1    0    0    0  501 -0.00000000000E+00 -0.00000000000E+00 -0.71779371309E+02  0.71779371355E+02  0.25500000000E-02 0. -1.
    5000001    1    1    2    0    0 -0.13029102181E+03 -0.20329724516E+02  0.15491513724E+03  0.26194035162E+03  0.16500000000E+03 0.  0.
   -5000001    1    1    2    0    0  0.13029102181E+03  0.20329724516E+02  0.59232370106E+03  0.62885722934E+03  0.16500000000E+03 0.  0.
<mgrwt>
<rscale>  0 0.48492726E+03</rscale>
<asrwt>0</asrwt>
<pdfrwt beam="1">  1        2 0.12600280E+00 0.48492726E+03</pdfrwt>
<pdfrwt beam="2">  1       -2 0.11042981E-01 0.48492726E+03</pdfrwt>
<totfact> 0.19518185E+03</totfact>
</mgrwt>
</event>
<event>
 4    1  0.1573232E-005  0.7226316E+03  0.7818608E-02  0.9679293E-01
         -2   -1    0    0    0  501 -0.00000000000E+00  0.00000000000E+00  0.12538969604E+03  0.12538969607E+03  0.25500000000E-02 0. -1.
          2   -1    0    0  501    0  0.00000000000E+00 -0.00000000000E+00 -0.10411471262E+04  0.10411471262E+04  0.25500000000E-02 0.  1.
    5000001    1    1    2    0    0 -0.31585804425E+03 -0.53279815124E+02 -0.41459049304E+03  0.54928619111E+03  0.16500000000E+03 0.  0.
   -5000001    1    1    2    0    0  0.31585804425E+03  0.53279815124E+02 -0.50116693712E+03  0.61725063117E+03  0.16500000000E+03 0.  0.
<mgrwt>
<rscale>  0 0.72263164E+03</rscale>
<asrwt>0</asrwt>
<pdfrwt beam="1">  1        2 0.16017648E+00 0.72263164E+03</pdfrwt>
<pdfrwt beam="2">  1       -2 0.19290723E-01 0.72263164E+03</pdfrwt>
<totfact> 0.54277428E+02</totfact>
</mgrwt>
</event>
<event>
 4    1  0.1573232E-005  0.4441043E+03  0.7818608E-02  0.1029495E+00
         -2   -1    0    0    0  501 -0.00000000000E+00  0.00000000000E+00  0.62038493231E+02  0.62038493283E+02  0.25500000000E-02 0. -1.
          2   -1    0    0  501    0  0.00000000000E+00 -0.00000000000E+00 -0.79478337553E+03  0.79478337553E+03  0.25500000000E-02 0.  1.
    5000001    1    1    2    0    0 -0.17139685830E+02 -0.14628698367E+03 -0.32834403453E+03  0.39588944850E+03  0.16500000000E+03 0.  0.
   -5000001    1    1    2    0    0  0.17139685830E+02  0.14628698367E+03 -0.40440084776E+03  0.46093242031E+03  0.16500000000E+03 0.  0.
<mgrwt>
<rscale>  0 0.44410433E+03</rscale>
<asrwt>0</asrwt>
<pdfrwt beam="1">  1        2 0.12227436E+00 0.44410433E+03</pdfrwt>
<pdfrwt beam="2">  1       -2 0.95443842E-02 0.44410433E+03</pdfrwt>
<totfact> 0.25687307E+03</totfact>
</mgrwt>
</event>
<event>
 4    1  0.1573232E-005  0.5540303E+03  0.7818608E-02  0.1000565E+00
          2   -1    0    0  501    0  0.00000000000E+00  0.00000000000E+00  0.70558862449E+03  0.70558862450E+03  0.25500000000E-02 0.  1.
         -2   -1    0    0    0  501 -0.00000000000E+00 -0.00000000000E+00 -0.10875655746E+03  0.10875655749E+03  0.25500000000E-02 0. -1.
    5000001    1    1    2    0    0  0.14861026281E+03 -0.95344524358E+02  0.49745440662E+03  0.55304744390E+03  0.16500000000E+03 0.  0.
   -5000001    1    1    2    0    0 -0.14861026281E+03  0.95344524358E+02  0.99377660411E+02  0.26129773808E+03  0.16500000000E+03 0.  0.
<mgrwt>
<rscale>  0 0.55403029E+03</rscale>
<asrwt>0</asrwt>
<pdfrwt beam="1">  1        2 0.10855209E+00 0.55403029E+03</pdfrwt>
<pdfrwt beam="2">  1       -2 0.16731779E-01 0.55403029E+03</pdfrwt>
<totfact> 0.11836931E+03</totfact>
</mgrwt>
</event>
<event>
 4    1  0.1573232E-005  0.1012411E+04  0.7818608E-02  0.9295036E-01
          2   -1    0    0  501    0  0.00000000000E+00  0.00000000000E+00  0.11854564601E+04  0.11854564601E+04  0.25500000000E-02 0.  1.
         -2   -1    0    0    0  501 -0.00000000000E+00 -0.00000000000E+00 -0.21615640631E+03  0.21615640632E+03  0.25500000000E-02 0. -1.
    5000001    1    1    2    0    0  0.37006484707E+03  0.30337041090E+03  0.49311783562E+03  0.70666243501E+03  0.16500000000E+03 0.  0.
   -5000001    1    1    2    0    0 -0.37006484707E+03 -0.30337041090E+03  0.47618221822E+03  0.69495043146E+03  0.16500000000E+03 0.  0.
<mgrwt>
<rscale>  0 0.10124110E+04</rscale>
<asrwt>0</asrwt>
<pdfrwt beam="1">  1        2 0.18237792E+00 0.10124110E+04</pdfrwt>
<pdfrwt beam="2">  1       -2 0.33254832E-01 0.10124110E+04</pdfrwt>
<totfact> 0.16263378E+02</totfact>
</mgrwt>
</event>
<event>
 4    1  0.1573232E-005  0.6799619E+03  0.7818608E-02  0.9752127E-01
          2   -1    0    0  501    0  0.00000000000E+00  0.00000000000E+00  0.16092696934E+04  0.16092696934E+04  0.25500000000E-02 0.  1.
         -2   -1    0    0    0  501 -0.00000000000E+00 -0.00000000000E+00 -0.71825774994E+02  0.71825775040E+02  0.25500000000E-02 0. -1.
    5000001    1    1    2    0    0 -0.25272168913E+03  0.99226230661E+02  0.46949813484E+03  0.56689293136E+03  0.16500000000E+03 0.  0.
   -5000001    1    1    2    0    0  0.25272168913E+03 -0.99226230661E+02  0.10679457836E+04  0.11142025371E+04  0.16500000000E+03 0.  0.
<mgrwt>
<rscale>  0 0.67996189E+03</rscale>
<asrwt>0</asrwt>
<pdfrwt beam="1">  1        2 0.24757995E+00 0.67996189E+03</pdfrwt>
<pdfrwt beam="2">  1       -2 0.11050119E-01 0.67996189E+03</pdfrwt>
<totfact> 0.65422433E+02</totfact>
</mgrwt>
</event>
<event>
 4    1  0.1573232E-005  0.5006055E+03  0.7818608E-02  0.1013621E+00
          2   -1    0    0  501    0  0.00000000000E+00  0.00000000000E+00  0.43998432915E+03  0.43998432916E+03  0.25500000000E-02 0.  1.
         -2   -1    0    0    0  501 -0.00000000000E+00 -0.00000000000E+00 -0.14239476006E+03  0.14239476008E+03  0.25500000000E-02 0. -1.
    5000001    1    1    2    0    0 -0.26180200182E+02 -0.15079877183E+03  0.27623752344E+03  0.35631143936E+03  0.16500000000E+03 0.  0.
   -5000001    1    1    2    0    0  0.26180200182E+02  0.15079877183E+03  0.21352045651E+02  0.22606764988E+03  0.16500000000E+03 0.  0.
<mgrwt>
<rscale>  0 0.50060549E+03</rscale>
<asrwt>0</asrwt>
<pdfrwt beam="1">  1        2 0.67689896E-01 0.50060549E+03</pdfrwt>
<pdfrwt beam="2">  1       -2 0.21906886E-01 0.50060549E+03</pdfrwt>
<totfact> 0.12960599E+03</totfact>
</mgrwt>
</event>
<event>
 4    1  0.1573232E-005  0.7759951E+03  0.7818608E-02  0.9595428E-01
         -2   -1    0    0    0  501 -0.00000000000E+00  0.00000000000E+00  0.19193846512E+03  0.19193846513E+03  0.25500000000E-02 0. -1.
          2   -1    0    0  501    0  0.00000000000E+00 -0.00000000000E+00 -0.78432486117E+03  0.78432486117E+03  0.25500000000E-02 0.  1.
    5000001    1    1    2    0    0  0.20118513526E+03 -0.11883404819E+03 -0.62599265468E+03  0.68825053097E+03  0.16500000000E+03 0.  0.
   -5000001    1    1    2    0    0 -0.20118513526E+03  0.11883404819E+03  0.33606258634E+02  0.28801279534E+03  0.16500000000E+03 0.  0.
<mgrwt>
<rscale>  0 0.77599513E+03</rscale>
<asrwt>0</asrwt>
<pdfrwt beam="1">  1        2 0.12066536E+00 0.77599513E+03</pdfrwt>
<pdfrwt beam="2">  1       -2 0.29528995E-01 0.77599513E+03</pdfrwt>
<totfact> 0.37528429E+02</totfact>
</mgrwt>
</event>
<event>
 4    1  0.1573232E-005  0.4843061E+03  0.7818608E-02  0.1017958E+00
          2   -1    0    0  501    0  0.00000000000E+00  0.00000000000E+00  0.80707801104E+03  0.80707801104E+03  0.25500000000E-02 0.  1.
         -2   -1    0    0    0  501 -0.00000000000E+00 -0.00000000000E+00 -0.72654824667E+02  0.72654824712E+02  0.25500000000E-02 0. -1.
    5000001    1    1    2    0    0  0.27573160763E+02  0.14116588396E+03  0.17909375277E+03  0.28282089433E+03  0.16500000000E+03 0.  0.
   -5000001    1    1    2    0    0 -0.27573160763E+02 -0.14116588396E+03  0.55532943361E+03  0.59691194143E+03  0.16500000000E+03 0.  0.
<mgrwt>
<rscale>  0 0.48430615E+03</rscale>
<asrwt>0</asrwt>
<pdfrwt beam="1">  1        2 0.12416586E+00 0.48430615E+03</pdfrwt>
<pdfrwt beam="2">  1       -2 0.11177664E-01 0.48430615E+03</pdfrwt>
<totfact> 0.19509324E+03</totfact>
</mgrwt>
</event>
<event>
 4    1  0.1573232E-005  0.4765612E+03  0.7818608E-02  0.1020085E+00
          2   -1    0    0  501    0  0.00000000000E+00  0.00000000000E+00  0.55800203869E+03  0.55800203870E+03  0.25500000000E-02 0.  1.
         -2   -1    0    0    0  501 -0.00000000000E+00 -0.00000000000E+00 -0.10175169073E+03  0.10175169076E+03  0.25500000000E-02 0. -1.
    5000001    1    1    2    0    0 -0.17033043745E+03 -0.10890704626E+02  0.19969981327E+03  0.31021940750E+03  0.16500000000E+03 0.  0.
   -5000001    1    1    2    0    0  0.17033043745E+03  0.10890704626E+02  0.25655053470E+03  0.34953432196E+03  0.16500000000E+03 0.  0.
<mgrwt>
<rscale>  0 0.47656123E+03</rscale>
<asrwt>0</asrwt>
<pdfrwt beam="1">  1        2 0.85846471E-01 0.47656123E+03</pdfrwt>
<pdfrwt beam="2">  1       -2 0.15654106E-01 0.47656123E+03</pdfrwt>
<totfact> 0.17593272E+03</totfact>
</mgrwt>
</event>
<event>
 4    1  0.1573232E-005  0.7322353E+03  0.7818608E-02  0.9663640E-01
         -2   -1    0    0    0  501 -0.00000000000E+00  0.00000000000E+00  0.14492636374E+03  0.14492636376E+03  0.25500000000E-02 0. -1.
          2   -1    0    0  501    0  0.00000000000E+00 -0.00000000000E+00 -0.92489826628E+03  0.92489826629E+03  0.25500000000E-02 0.  1.
    5000001    1    1    2    0    0 -0.25143565595E+03 -0.12507410475E+03 -0.14570942502E+03  0.35681880178E+03  0.16500000000E+03 0.  0.
   -5000001    1    1    2    0    0  0.25143565595E+03  0.12507410475E+03 -0.63426247752E+03  0.71300582827E+03  0.16500000000E+03 0.  0.
<mgrwt>
<rscale>  0 0.73223532E+03</rscale>
<asrwt>0</asrwt>
<pdfrwt beam="1">  1        2 0.14229204E+00 0.73223532E+03</pdfrwt>
<pdfrwt beam="2">  1       -2 0.22296364E-01 0.73223532E+03</pdfrwt>
<totfact> 0.49968046E+02</totfact>
</mgrwt>
</event>
<event>
 4    1  0.1573232E-005  0.6057469E+03  0.7818608E-02  0.9893554E-01
          2   -1    0    0  501    0  0.00000000000E+00  0.00000000000E+00  0.18655254498E+03  0.18655254500E+03  0.25500000000E-02 0.  1.
         -2   -1    0    0    0  501 -0.00000000000E+00 -0.00000000000E+00 -0.49172376799E+03  0.49172376800E+03  0.25500000000E-02 0. -1.
    5000001    1    1    2    0    0 -0.22934333487E+03  0.13982873734E+02 -0.31398177640E+02  0.28461330181E+03  0.16500000000E+03 0.  0.
   -5000001    1    1    2    0    0  0.22934333487E+03 -0.13982873734E+02 -0.27377304537E+03  0.39366301119E+03  0.16500000000E+03 0.  0.
<mgrwt>
<rscale>  0 0.60574688E+03</rscale>
<asrwt>0</asrwt>
<pdfrwt beam="1">  1        2 0.28700392E-01 0.60574688E+03</pdfrwt>
<pdfrwt beam="2">  1       -2 0.75649810E-01 0.60574688E+03</pdfrwt>
<totfact> 0.29630900E+02</totfact>
</mgrwt>
</event>
<event>
 4    1  0.1573232E-005  0.8853768E+03  0.7818608E-02  0.9444048E-01
         -2   -1    0    0    0  501 -0.00000000000E+00  0.00000000000E+00  0.49547133327E+02  0.49547133392E+02  0.25500000000E-02 0. -1.
          2   -1    0    0  501    0  0.00000000000E+00 -0.00000000000E+00 -0.39552847052E+04  0.39552847052E+04  0.25500000000E-02 0.  1.
    5000001    1    1    2    0    0 -0.34087574315E+03 -0.54032359567E+02 -0.29605847359E+04  0.29851972710E+04  0.16500000000E+03 0.  0.
   -5000001    1    1    2    0    0  0.34087574315E+03  0.54032359567E+02 -0.94515283600E+03  0.10196345677E+04  0.16500000000E+03 0.  0.
<mgrwt>
<rscale>  0 0.88537680E+03</rscale>
<asrwt>0</asrwt>
<pdfrwt beam="1">  1        2 0.60850509E+00 0.88537680E+03</pdfrwt>
<pdfrwt beam="2">  1       -2 0.76226390E-02 0.88537680E+03</pdfrwt>
<totfact> 0.42518177E+01</totfact>
</mgrwt>
</event>
<event>
 4    1  0.1573232E-005  0.5381659E+03  0.7818608E-02  0.1004271E+00
         -2   -1    0    0    0  501 -0.00000000000E+00  0.00000000000E+00  0.19002286095E+03  0.19002286097E+03  0.25500000000E-02 0. -1.
          2   -1    0    0  501    0  0.00000000000E+00 -0.00000000000E+00 -0.38103638998E+03  0.38103638999E+03  0.25500000000E-02 0.  1.
    5000001    1    1    2    0    0  0.12113454854E+03 -0.14716039501E+03  0.43224978875E+01  0.25213774945E+03  0.16500000000E+03 0.  0.
   -5000001    1    1    2    0    0 -0.12113454854E+03  0.14716039501E+03 -0.19533602692E+03  0.31892150151E+03  0.16500000000E+03 0.  0.
<mgrwt>
<rscale>  0 0.53816587E+03</rscale>
<asrwt>0</asrwt>
<pdfrwt beam="1">  1        2 0.58620983E-01 0.53816587E+03</pdfrwt>
<pdfrwt beam="2">  1       -2 0.29234286E-01 0.53816587E+03</pdfrwt>
<totfact> 0.90645700E+02</totfact>
</mgrwt>
</event>
<event>
 4    1  0.1573232E-005  0.4704242E+03  0.7818608E-02  0.1021801E+00
         -2   -1    0    0    0  501 -0.00000000000E+00  0.00000000000E+00  0.22132592155E+03  0.22132592157E+03  0.25500000000E-02 0. -1.
          2   -1    0    0  501    0  0.00000000000E+00 -0.00000000000E+00 -0.24996954106E+03  0.24996954107E+03  0.25500000000E-02 0.  1.
    5000001    1    1    2    0    0 -0.10980760862E+03 -0.12424221603E+03  0.10338811410E+02  0.23414894870E+03  0.16500000000E+03 0.  0.
   -5000001    1    1    2    0    0  0.10980760862E+03  0.12424221603E+03 -0.38982430920E+02  0.23714651394E+03  0.16500000000E+03 0.  0.
<mgrwt>
<rscale>  0 0.47042423E+03</rscale>
<asrwt>0</asrwt>
<pdfrwt beam="1">  1        2 0.38456852E-01 0.47042423E+03</pdfrwt>
<pdfrwt beam="2">  1       -2 0.34050142E-01 0.47042423E+03</pdfrwt>
<totfact> 0.10864498E+03</totfact>
</mgrwt>
</event>
<event>
 4    1  0.1573232E-005  0.6088413E+03  0.7818608E-02  0.9887231E-01
         -2   -1    0    0    0  501 -0.00000000000E+00  0.00000000000E+00  0.90281801704E+02  0.90281801740E+02  0.25500000000E-02 0. -1.
          2   -1    0    0  501    0  0.00000000000E+00 -0.00000000000E+00 -0.10264739696E+04  0.10264739696E+04  0.25500000000E-02 0.  1.
    5000001    1    1    2    0    0 -0.14837668059E+02  0.21887340048E+03 -0.22669284737E+03  0.35600613601E+03  0.16500000000E+03 0.  0.
   -5000001    1    1    2    0    0  0.14837668059E+02 -0.21887340048E+03 -0.70949932053E+03  0.76074963534E+03  0.16500000000E+03 0.  0.
<mgrwt>
<rscale>  0 0.60884126E+03</rscale>
<asrwt>0</asrwt>
<pdfrwt beam="1">  1        2 0.15791906E+00 0.60884126E+03</pdfrwt>
<pdfrwt beam="2">  1       -2 0.13889509E-01 0.60884126E+03</pdfrwt>
<totfact> 0.97440295E+02</totfact>
</mgrwt>
</event>
<event>
 4    1  0.1573232E-005  0.4524275E+03  0.7818608E-02  0.1027001E+00
         -2   -1    0    0    0  501 -0.00000000000E+00  0.00000000000E+00  0.98101557598E+02  0.98101557631E+02  0.25500000000E-02 0. -1.
          2   -1    0    0  501    0  0.00000000000E+00 -0.00000000000E+00 -0.52162939442E+03  0.52162939443E+03  0.25500000000E-02 0.  1.
    5000001    1    1    2    0    0 -0.45460152206E+01  0.15462078977E+03 -0.20573042802E+03  0.30574215263E+03  0.16500000000E+03 0.  0.
   -5000001    1    1    2    0    0  0.45460152206E+01 -0.15462078977E+03 -0.21779740881E+03  0.31398879943E+03  0.16500000000E+03 0.  0.
<mgrwt>
<rscale>  0 0.45242748E+03</rscale>
<asrwt>0</asrwt>
<pdfrwt beam="1">  1        2 0.80250674E-01 0.45242748E+03</pdfrwt>
<pdfrwt beam="2">  1       -2 0.15092548E-01 0.45242748E+03</pdfrwt>
<totfact> 0.20220573E+03</totfact>
</mgrwt>
</event>
<event>
 4    1  0.1573232E-005  0.4075102E+03  0.7818608E-02  0.1041210E+00
         -2   -1    0    0    0  501 -0.00000000000E+00  0.00000000000E+00  0.19627724237E+03  0.19627724239E+03  0.25500000000E-02 0. -1.
          2   -1    0    0  501    0  0.00000000000E+00 -0.00000000000E+00 -0.21151784110E+03  0.21151784111E+03  0.25500000000E-02 0.  1.
    5000001    1    1    2    0    0  0.25009847182E+02 -0.56914436560E+02 -0.10980139598E+03  0.20771637418E+03  0.16500000000E+03 0.  0.
   -5000001    1    1    2    0    0 -0.25009847182E+02  0.56914436560E+02  0.94560797251E+02  0.20007870932E+03  0.16500000000E+03 0.  0.
<mgrwt>
<rscale>  0 0.40751019E+03</rscale>
<asrwt>0</asrwt>
<pdfrwt beam="1">  1        2 0.32541206E-01 0.40751019E+03</pdfrwt>
<pdfrwt beam="2">  1       -2 0.30196499E-01 0.40751019E+03</pdfrwt>
<totfact> 0.16309949E+03</totfact>
</mgrwt>
</event>
<event>
 4    1  0.1573232E-005  0.5240195E+03  0.7818608E-02  0.1007693E+00
          2   -1    0    0  501    0  0.00000000000E+00  0.00000000000E+00  0.14496246613E+03  0.14496246616E+03  0.25500000000E-02 0.  1.
         -2   -1    0    0    0  501 -0.00000000000E+00 -0.00000000000E+00 -0.47356479812E+03  0.47356479812E+03  0.25500000000E-02 0. -1.
    5000001    1    1    2    0    0 -0.32072115583E+02 -0.13576122858E+03  0.10631505017E+02  0.21632790084E+03  0.16500000000E+03 0.  0.
   -5000001    1    1    2    0    0  0.32072115583E+02  0.13576122858E+03 -0.33923383700E+03  0.40219936344E+03  0.16500000000E+03 0.  0.
<mgrwt>
<rscale>  0 0.52401955E+03</rscale>
<asrwt>0</asrwt>
<pdfrwt beam="1">  1        2 0.22301918E-01 0.52401955E+03</pdfrwt>
<pdfrwt beam="2">  1       -2 0.72856122E-01 0.52401955E+03</pdfrwt>
<totfact> 0.42994377E+02</totfact>
</mgrwt>
</event>
<event>
 4    1  0.1573232E-005  0.4088517E+03  0.7818608E-02  0.1040757E+00
          2   -1    0    0  501    0  0.00000000000E+00  0.00000000000E+00  0.35133901461E+03  0.35133901462E+03  0.25500000000E-02 0.  1.
         -2   -1    0    0    0  501 -0.00000000000E+00 -0.00000000000E+00 -0.11894471744E+03  0.11894471747E+03  0.25500000000E-02 0. -1.
    5000001    1    1    2    0    0 -0.24936536049E+02  0.84502119971E+02  0.21327377842E+02  0.18826124443E+03  0.16500000000E+03 0.  0.
   -5000001    1    1    2    0    0  0.24936536049E+02 -0.84502119971E+02  0.21106691932E+03  0.28202248765E+03  0.16500000000E+03 0.  0.
<mgrwt>
<rscale>  0 0.40885166E+03</rscale>
<asrwt>0</asrwt>
<pdfrwt beam="1">  1        2 0.54052155E-01 0.40885166E+03</pdfrwt>
<pdfrwt beam="2">  1       -2 0.18299188E-01 0.40885166E+03</pdfrwt>
<totfact> 0.22679912E+03</totfact>
</mgrwt>
</event>
<event>
 4    1  0.1573232E-005  0.4489001E+03  0.7818608E-02  0.1028051E+00
         -2   -1    0    0    0  501 -0.00000000000E+00  0.00000000000E+00  0.32996620923E+02  0.32996621022E+02  0.25500000000E-02 0. -1.
          2   -1    0    0  501    0  0.00000000000E+00 -0.00000000000E+00 -0.15267571383E+04  0.15267571383E+04  0.25500000000E-02 0.  1.
    5000001    1    1    2    0    0 -0.93986485310E+01 -0.17841414853E+02 -0.12709155416E+04  0.12817402095E+04  0.16500000000E+03 0.  0.
   -5000001    1    1    2    0    0  0.93986485310E+01  0.17841414853E+02 -0.22284497579E+03  0.27801354988E+03  0.16500000000E+03 0.  0.
<mgrwt>
<rscale>  0 0.44890011E+03</rscale>
<asrwt>0</asrwt>
<pdfrwt beam="1">  1        2 0.23488566E+00 0.44890011E+03</pdfrwt>
<pdfrwt beam="2">  1       -2 0.50764044E-02 0.44890011E+03</pdfrwt>
<totfact> 0.25189220E+03</totfact>
</mgrwt>
</event>
<event>
 4    1  0.1573232E-005  0.4563767E+03  0.7818608E-02  0.1025837E+00
         -2   -1    0    0    0  501 -0.00000000000E+00  0.00000000000E+00  0.14683149001E+02  0.14683149223E+02  0.25500000000E-02 0. -1.
          2   -1    0    0  501    0  0.00000000000E+00 -0.00000000000E+00 -0.35462360013E+04  0.35462360013E+04  0.25500000000E-02 0.  1.
    5000001    1    1    2    0    0 -0.13487357035E+03 -0.48884001793E+02 -0.22753031534E+04  0.22857843217E+04  0.16500000000E+03 0.  0.
   -5000001    1    1    2    0    0  0.13487357035E+03  0.48884001793E+02 -0.12562496989E+04  0.12751348288E+04  0.16500000000E+03 0.  0.
<mgrwt>
<rscale>  0 0.45637665E+03</rscale>
<asrwt>0</asrwt>
<pdfrwt beam="1">  1        2 0.54557409E+00 0.45637665E+03</pdfrwt>
<pdfrwt beam="2">  1       -2 0.22589488E-02 0.45637665E+03</pdfrwt>
<totfact> 0.58822849E+02</totfact>
</mgrwt>
</event>
<event>
 4    1  0.1573232E-005  0.4515347E+03  0.7818608E-02  0.1027265E+00
         -2   -1    0    0    0  501 -0.00000000000E+00  0.00000000000E+00  0.68761472890E+02  0.68761472937E+02  0.25500000000E-02 0. -1.
          2   -1    0    0  501    0  0.00000000000E+00 -0.00000000000E+00 -0.74127103658E+03  0.74127103658E+03  0.25500000000E-02 0.  1.
    5000001    1    1    2    0    0 -0.43677936466E+02 -0.13490929067E+03 -0.22805674333E+03  0.31518749503E+03  0.16500000000E+03 0.  0.
   -5000001    1    1    2    0    0  0.43677936466E+02  0.13490929067E+03 -0.44445282035E+03  0.49484501449E+03  0.16500000000E+03 0.  0.
<mgrwt>
<rscale>  0 0.45153466E+03</rscale>
<asrwt>0</asrwt>
<pdfrwt beam="1">  1        2 0.11404169E+00 0.45153466E+03</pdfrwt>
<pdfrwt beam="2">  1       -2 0.10578689E-01 0.45153466E+03</pdfrwt>
<totfact> 0.23795573E+03</totfact>
</mgrwt>
</event>
<event>
 4    1  0.1573232E-005  0.4803248E+03  0.7818608E-02  0.1019046E+00
         -2   -1    0    0    0  501 -0.00000000000E+00  0.00000000000E+00  0.78485601940E+02  0.78485601981E+02  0.25500000000E-02 0. -1.
          2   -1    0    0  501    0  0.00000000000E+00 -0.00000000000E+00 -0.73488612837E+03  0.73488612837E+03  0.25500000000E-02 0.  1.
    5000001    1    1    2    0    0 -0.12688145597E+03 -0.15275880289E+02 -0.52942554090E+03  0.56907702444E+03  0.16500000000E+03 0.  0.
   -5000001    1    1    2    0    0  0.12688145597E+03  0.15275880289E+02 -0.12697498552E+03  0.24429470591E+03  0.16500000000E+03 0.  0.
<mgrwt>
<rscale>  0 0.48032481E+03</rscale>
<asrwt>0</asrwt>
<pdfrwt beam="1">  1        2 0.11305940E+00 0.48032481E+03</pdfrwt>
<pdfrwt beam="2">  1       -2 0.12074708E-01 0.48032481E+03</pdfrwt>
<totfact> 0.19398158E+03</totfact>
</mgrwt>
</event>
<event>
 4    1  0.1573232E-005  0.5228796E+03  0.7818608E-02  0.1007974E+00
         -2   -1    0    0    0  501 -0.00000000000E+00  0.00000000000E+00  0.67942882320E+02  0.67942882368E+02  0.25500000000E-02 0. -1.
          2   -1    0    0  501    0  0.00000000000E+00 -0.00000000000E+00 -0.10060034842E+04  0.10060034842E+04  0.25500000000E-02 0.  1.
    5000001    1    1    2    0    0  0.15532013238E+03 -0.11676899548E+03 -0.34986057012E+03  0.43288192426E+03  0.16500000000E+03 0.  0.
   -5000001    1    1    2    0    0 -0.15532013238E+03  0.11676899548E+03 -0.58820003174E+03  0.64106444229E+03  0.16500000000E+03 0.  0.
<mgrwt>
<rscale>  0 0.52287963E+03</rscale>
<asrwt>0</asrwt>
<pdfrwt beam="1">  1        2 0.15476976E+00 0.52287963E+03</pdfrwt>
<pdfrwt beam="2">  1       -2 0.10452752E-01 0.52287963E+03</pdfrwt>
<totfact> 0.16056760E+03</totfact>
</mgrwt>
</event>
<event>
 4    1  0.1573232E-005  0.8012517E+03  0.7818608E-02  0.9558207E-01
         -2   -1    0    0    0  501 -0.00000000000E+00  0.00000000000E+00  0.92201387548E+02  0.92201387583E+02  0.25500000000E-02 0. -1.
          2   -1    0    0  501    0  0.00000000000E+00 -0.00000000000E+00 -0.17407661945E+04  0.17407661945E+04  0.25500000000E-02 0.  1.
    5000001    1    1    2    0    0  0.16531190685E+03  0.85724109087E+02 -0.10595407468E+03  0.27042173612E+03  0.16500000000E+03 0.  0.
   -5000001    1    1    2    0    0 -0.16531190685E+03 -0.85724109087E+02 -0.15426107323E+04  0.15625458460E+04  0.16500000000E+03 0.  0.
<mgrwt>
<rscale>  0 0.80125167E+03</rscale>
<asrwt>0</asrwt>
<pdfrwt beam="1">  1        2 0.26781016E+00 0.80125167E+03</pdfrwt>
<pdfrwt beam="2">  1       -2 0.14184830E-01 0.80125167E+03</pdfrwt>
<totfact> 0.36338181E+02</totfact>
</mgrwt>
</event>
<event>
 4    1  0.1573232E-005  0.5152675E+03  0.7818608E-02  0.1009869E+00
         -2   -1    0    0    0  501 -0.00000000000E+00  0.00000000000E+00  0.22613216223E+02  0.22613216367E+02  0.25500000000E-02 0. -1.
          2   -1    0    0  501    0  0.00000000000E+00 -0.00000000000E+00 -0.29352370934E+04  0.29352370934E+04  0.25500000000E-02 0.  1.
    5000001    1    1    2    0    0 -0.18146499230E+03 -0.47867363860E+02 -0.10964778391E+04  0.11245930284E+04  0.16500000000E+03 0.  0.
   -5000001    1    1    2    0    0  0.18146499230E+03  0.47867363860E+02 -0.18161460381E+04  0.18332572814E+04  0.16500000000E+03 0.  0.
<mgrwt>
<rscale>  0 0.51526751E+03</rscale>
<asrwt>0</asrwt>
<pdfrwt beam="1">  1        2 0.45157464E+00 0.51526751E+03</pdfrwt>
<pdfrwt beam="2">  1       -2 0.34789587E-02 0.51526751E+03</pdfrwt>
<totfact> 0.74404813E+02</totfact>
</mgrwt>
</event>
<event>
 4    1  0.1573232E-005  0.5052924E+03  0.7818608E-02  0.1012407E+00
          2   -1    0    0  501    0  0.00000000000E+00  0.00000000000E+00  0.28911268640E+03  0.28911268641E+03  0.25500000000E-02 0.  1.
         -2   -1    0    0    0  501 -0.00000000000E+00 -0.00000000000E+00 -0.22077929627E+03  0.22077929628E+03  0.25500000000E-02 0. -1.
    5000001    1    1    2    0    0  0.18312727498E+03  0.54493899285E+02  0.44253259977E+02  0.25629774662E+03  0.16500000000E+03 0.  0.
   -5000001    1    1    2    0    0 -0.18312727498E+03 -0.54493899285E+02  0.24080130156E+02  0.25359423607E+03  0.16500000000E+03 0.  0.
<mgrwt>
<rscale>  0 0.50529237E+03</rscale>
<asrwt>0</asrwt>
<pdfrwt beam="1">  1        2 0.44478875E-01 0.50529237E+03</pdfrwt>
<pdfrwt beam="2">  1       -2 0.33966046E-01 0.50529237E+03</pdfrwt>
<totfact> 0.93032528E+02</totfact>
</mgrwt>
</event>
<event>
 4    1  0.1573232E-005  0.3624744E+03  0.7818608E-02  0.1057608E+00
         -2   -1    0    0    0  501 -0.00000000000E+00  0.00000000000E+00  0.21636288150E+02  0.21636288300E+02  0.25500000000E-02 0. -1.
          2   -1    0    0  501    0  0.00000000000E+00 -0.00000000000E+00 -0.15181401303E+04  0.15181401303E+04  0.25500000000E-02 0.  1.
    5000001    1    1    2    0    0 -0.35026741731E+02 -0.18059382654E+02 -0.47728326731E+03  0.50653462981E+03  0.16500000000E+03 0.  0.
   -5000001    1    1    2    0    0  0.35026741731E+02  0.18059382654E+02 -0.10192205748E+04  0.10332417888E+04  0.16500000000E+03 0.  0.
<mgrwt>
<rscale>  0 0.36247437E+03</rscale>
<asrwt>0</asrwt>
<pdfrwt beam="1">  1        2 0.23355994E+00 0.36247437E+03</pdfrwt>
<pdfrwt beam="2">  1       -2 0.33286609E-02 0.36247437E+03</pdfrwt>
<totfact> 0.48473339E+03</totfact>
</mgrwt>
</event>
<event>
 4    1  0.1573232E-005  0.4168089E+03  0.7818608E-02  0.1038110E+00
         -2   -1    0    0    0  501 -0.00000000000E+00  0.00000000000E+00  0.56139255274E+03  0.56139255274E+03  0.25500000000E-02 0. -1.
          2   -1    0    0  501    0  0.00000000000E+00 -0.00000000000E+00 -0.77365515499E+02  0.77365515541E+02  0.25500000000E-02 0.  1.
    5000001    1    1    2    0    0 -0.77213650017E+02 -0.49473968357E+02  0.10668619394E+03  0.21683303547E+03  0.16500000000E+03 0.  0.
   -5000001    1    1    2    0    0  0.77213650017E+02  0.49473968357E+02  0.37734084330E+03  0.42192503281E+03  0.16500000000E+03 0.  0.
<mgrwt>
<rscale>  0 0.41680895E+03</rscale>
<asrwt>0</asrwt>
<pdfrwt beam="1">  1        2 0.11902387E-01 0.41680895E+03</pdfrwt>
<pdfrwt beam="2">  1       -2 0.86368087E-01 0.41680895E+03</pdfrwt>
<totfact> 0.62330756E+02</totfact>
</mgrwt>
</event>
<event>
 4    1  0.1573232E-005  0.6466983E+03  0.7818608E-02  0.9812994E-01
         -2   -1    0    0    0  501 -0.00000000000E+00  0.00000000000E+00  0.50382935793E+03  0.50382935793E+03  0.25500000000E-02 0. -1.
          2   -1    0    0  501    0  0.00000000000E+00 -0.00000000000E+00 -0.20751999053E+03  0.20751999054E+03  0.25500000000E-02 0.  1.
    5000001    1    1    2    0    0 -0.27252576797E+03  0.29754642362E+02  0.19944248348E+03  0.37703837625E+03  0.16500000000E+03 0.  0.
   -5000001    1    1    2    0    0  0.27252576797E+03 -0.29754642362E+02  0.96866883924E+02  0.33431097223E+03  0.16500000000E+03 0.  0.
<mgrwt>
<rscale>  0 0.64669827E+03</rscale>
<asrwt>0</asrwt>
<pdfrwt beam="1">  1        2 0.31926153E-01 0.64669827E+03</pdfrwt>
<pdfrwt beam="2">  1       -2 0.77512207E-01 0.64669827E+03</pdfrwt>
<totfact> 0.24875166E+02</totfact>
</mgrwt>
</event>
<event>
 4    1  0.1573232E-005  0.4388879E+03  0.7818608E-02  0.1031089E+00
          2   -1    0    0  501    0  0.00000000000E+00  0.00000000000E+00  0.21133954009E+04  0.21133954009E+04  0.25500000000E-02 0.  1.
         -2   -1    0    0    0  501 -0.00000000000E+00 -0.00000000000E+00 -0.22785912532E+02  0.22785912675E+02  0.25500000000E-02 0. -1.
    5000001    1    1    2    0    0 -0.11648270109E+03  0.43800577567E+02  0.68618366668E+03  0.71663082174E+03  0.16500000000E+03 0.  0.
   -5000001    1    1    2    0    0  0.11648270109E+03 -0.43800577567E+02  0.14044258217E+04  0.14195504918E+04  0.16500000000E+03 0.  0.
<mgrwt>
<rscale>  0 0.43888788E+03</rscale>
<asrwt>0</asrwt>
<pdfrwt beam="1">  1        2 0.32513781E+00 0.43888788E+03</pdfrwt>
<pdfrwt beam="2">  1       -2 0.35055244E-02 0.43888788E+03</pdfrwt>
<totfact> 0.21484286E+03</totfact>
</mgrwt>
</event>
<event>
 4    1  0.1573232E-005  0.6994288E+03  0.7818608E-02  0.9718209E-01
         -2   -1    0    0    0  501 -0.00000000000E+00  0.00000000000E+00  0.98523605902E+02  0.98523605935E+02  0.25500000000E-02 0. -1.
          2   -1    0    0  501    0  0.00000000000E+00 -0.00000000000E+00 -0.12413286334E+04  0.12413286334E+04  0.25500000000E-02 0.  1.
    5000001    1    1    2    0    0  0.16591955094E+03  0.17888077263E+03 -0.93257792889E+03  0.97798477578E+03  0.16500000000E+03 0.  0.
   -5000001    1    1    2    0    0 -0.16591955094E+03 -0.17888077263E+03 -0.21022709862E+03  0.36186746357E+03  0.16500000000E+03 0.  0.
<mgrwt>
<rscale>  0 0.69942883E+03</rscale>
<asrwt>0</asrwt>
<pdfrwt beam="1">  1        2 0.19097362E+00 0.69942883E+03</pdfrwt>
<pdfrwt beam="2">  1       -2 0.15157479E-01 0.69942883E+03</pdfrwt>
<totfact> 0.62228878E+02</totfact>
</mgrwt>
</event>
<event>
 4    1  0.1573232E-005  0.5133179E+03  0.7818608E-02  0.1010360E+00
          2   -1    0    0  501    0  0.00000000000E+00  0.00000000000E+00  0.12497063853E+03  0.12497063856E+03  0.25500000000E-02 0.  1.
         -2   -1    0    0    0  501 -0.00000000000E+00 -0.00000000000E+00 -0.52711441429E+03  0.52711441429E+03  0.25500000000E-02 0. -1.
    5000001    1    1    2    0    0  0.16078411153E+03  0.36661245507E+02 -0.65120973790E+02  0.24220098817E+03  0.16500000000E+03 0.  0.
   -5000001    1    1    2    0    0 -0.16078411153E+03 -0.36661245507E+02 -0.33702280196E+03  0.40988406469E+03  0.16500000000E+03 0.  0.
<mgrwt>
<rscale>  0 0.51331793E+03</rscale>
<asrwt>0</asrwt>
<pdfrwt beam="1">  1        2 0.19226252E-01 0.51331793E+03</pdfrwt>
<pdfrwt beam="2">  1       -2 0.81094524E-01 0.51331793E+03</pdfrwt>
<totfact> 0.40310659E+02</totfact>
</mgrwt>
</event>
<event>
 4    1  0.1573232E-005  0.7129048E+03  0.7818608E-02  0.9695414E-01
          2   -1    0    0  501    0  0.00000000000E+00  0.00000000000E+00  0.11991087564E+04  0.11991087564E+04  0.25500000000E-02 0.  1.
         -2   -1    0    0    0  501 -0.00000000000E+00 -0.00000000000E+00 -0.10596062383E+03  0.10596062386E+03  0.25500000000E-02 0. -1.
    5000001    1    1    2    0    0  0.13148834618E+03 -0.15372526204E+03  0.10224326579E+03  0.28035571471E+03  0.16500000000E+03 0.  0.
   -5000001    1    1    2    0    0 -0.13148834618E+03  0.15372526204E+03  0.99090486679E+03  0.10247136656E+04  0.16500000000E+03 0.  0.
<mgrwt>
<rscale>  0 0.71290480E+03</rscale>
<asrwt>0</asrwt>
<pdfrwt beam="1">  1        2 0.18447827E+00 0.71290480E+03</pdfrwt>
<pdfrwt beam="2">  1       -2 0.16301634E-01 0.71290480E+03</pdfrwt>
<totfact> 0.58190509E+02</totfact>
</mgrwt>
</event>
<event>
 4    1  0.1573232E-005  0.8526472E+03  0.7818608E-02  0.9486791E-01
          2   -1    0    0  501    0  0.00000000000E+00  0.00000000000E+00  0.11731726175E+04  0.11731726175E+04  0.25500000000E-02 0.  1.
         -2   -1    0    0    0  501 -0.00000000000E+00 -0.00000000000E+00 -0.15492332391E+03  0.15492332393E+03  0.25500000000E-02 0. -1.
    5000001    1    1    2    0    0 -0.21476908817E+03  0.32866915226E+03  0.53939325924E+03  0.68725487338E+03  0.16500000000E+03 0.  0.
   -5000001    1    1    2    0    0  0.21476908817E+03 -0.32866915226E+03  0.47885603438E+03  0.64084106809E+03  0.16500000000E+03 0.  0.
<mgrwt>
<rscale>  0 0.85264718E+03</rscale>
<asrwt>0</asrwt>
<pdfrwt beam="1">  1        2 0.18048809E+00 0.85264718E+03</pdfrwt>
<pdfrwt beam="2">  1       -2 0.23834358E-01 0.85264718E+03</pdfrwt>
<totfact> 0.30826694E+02</totfact>
</mgrwt>
</event>
<event>
 4    1  0.1573232E-005  0.3790212E+03  0.7818608E-02  0.1051296E+00
         -2   -1    0    0    0  501 -0.00000000000E+00  0.00000000000E+00  0.38502845062E+03  0.38502845063E+03  0.25500000000E-02 0. -1.
          2   -1    0    0  501    0  0.00000000000E+00 -0.00000000000E+00 -0.93276938913E+02  0.93276938948E+02  0.25500000000E-02 0.  1.
    5000001    1    1    2    0    0  0.43454837708E+02 -0.80195449324E+02  0.17013808763E+03  0.25395196766E+03  0.16500000000E+03 0.  0.
   -5000001    1    1    2    0    0 -0.43454837708E+02  0.80195449324E+02  0.12161342407E+03  0.22435342192E+03  0.16500000000E+03 0.  0.
<mgrwt>
<rscale>  0 0.37902124E+03</rscale>
<asrwt>0</asrwt>
<pdfrwt beam="1">  1        2 0.14350298E-01 0.37902124E+03</pdfrwt>
<pdfrwt beam="2">  1       -2 0.59235147E-01 0.37902124E+03</pdfrwt>
<totfact> 0.11236210E+03</totfact>
</mgrwt>
</event>
<event>
 4    1  0.1573232E-005  0.4670122E+03  0.7818608E-02  0.1022767E+00
         -2   -1    0    0    0  501 -0.00000000000E+00  0.00000000000E+00  0.54412443566E+02  0.54412443626E+02  0.25500000000E-02 0. -1.
          2   -1    0    0  501    0  0.00000000000E+00 -0.00000000000E+00 -0.10020703341E+04  0.10020703341E+04  0.25500000000E-02 0.  1.
    5000001    1    1    2    0    0 -0.13092307209E+03 -0.49937085109E+02 -0.27576502699E+03  0.35057939669E+03  0.16500000000E+03 0.  0.
   -5000001    1    1    2    0    0  0.13092307209E+03  0.49937085109E+02 -0.67189286351E+03  0.70590338100E+03  0.16500000000E+03 0.  0.
<mgrwt>
<rscale>  0 0.46701219E+03</rscale>
<asrwt>0</asrwt>
<pdfrwt beam="1">  1        2 0.15416465E+00 0.46701219E+03</pdfrwt>
<pdfrwt beam="2">  1       -2 0.83711459E-02 0.46701219E+03</pdfrwt>
<totfact> 0.23081956E+03</totfact>
</mgrwt>
</event>
<event>
 4    1  0.1573232E-005  0.4514730E+03  0.7818608E-02  0.1027284E+00
         -2   -1    0    0    0  501 -0.00000000000E+00  0.00000000000E+00  0.29570278169E+03  0.29570278170E+03  0.25500000000E-02 0. -1.
          2   -1    0    0  501    0  0.00000000000E+00 -0.00000000000E+00 -0.17232495545E+03  0.17232495547E+03  0.25500000000E-02 0.  1.
    5000001    1    1    2    0    0  0.11031827880E+03 -0.70016657721E+02  0.14628710128E+03  0.25631498395E+03  0.16500000000E+03 0.  0.
   -5000001    1    1    2    0    0 -0.11031827880E+03  0.70016657721E+02 -0.22909275038E+02  0.21171275323E+03  0.16500000000E+03 0.  0.
<mgrwt>
<rscale>  0 0.45147301E+03</rscale>
<asrwt>0</asrwt>
<pdfrwt beam="1">  1        2 0.26511531E-01 0.45147301E+03</pdfrwt>
<pdfrwt beam="2">  1       -2 0.45492736E-01 0.45147301E+03</pdfrwt>
<totfact> 0.94016167E+02</totfact>
</mgrwt>
</event>
<event>
 4    1  0.1573232E-005  0.3591382E+03  0.7818608E-02  0.1058926E+00
          2   -1    0    0  501    0  0.00000000000E+00  0.00000000000E+00  0.27172280013E+04  0.27172280013E+04  0.25500000000E-02 0.  1.
         -2   -1    0    0    0  501 -0.00000000000E+00 -0.00000000000E+00 -0.11866894353E+02  0.11866894627E+02  0.25500000000E-02 0. -1.
    5000001    1    1    2    0    0 -0.17154239869E+02  0.42454939066E+02  0.94181586299E+03  0.95725587466E+03  0.16500000000E+03 0.  0.
   -5000001    1    1    2    0    0  0.17154239869E+02 -0.42454939066E+02  0.17635452440E+04  0.17718390213E+04  0.16500000000E+03 0.  0.
<mgrwt>
<rscale>  0 0.35913818E+03</rscale>
<asrwt>0</asrwt>
<pdfrwt beam="1">  1        2 0.41803484E+00 0.35913818E+03</pdfrwt>
<pdfrwt beam="2">  1       -2 0.18256771E-02 0.35913818E+03</pdfrwt>
<totfact> 0.26654894E+03</totfact>
</mgrwt>
</event>
<event>
 4    1  0.1573232E-005  0.5115254E+03  0.7818608E-02  0.1010814E+00
         -2   -1    0    0    0  501 -0.00000000000E+00  0.00000000000E+00  0.26290959788E+03  0.26290959789E+03  0.25500000000E-02 0.  1.
          2   -1    0    0  501    0  0.00000000000E+00 -0.00000000000E+00 -0.24881005986E+03  0.24881005987E+03  0.25500000000E-02 0. -1.
    5000001    1    1    2    0    0 -0.55812974296E+02 -0.16069163507E+03  0.10327706710E+03  0.25851120338E+03  0.16500000000E+03 0.  0.
   -5000001    1    1    2    0    0  0.55812974296E+02  0.16069163507E+03 -0.89177529084E+02  0.25320845439E+03  0.16500000000E+03 0.  0.
<mgrwt>
<rscale>  0 0.51152538E+03</rscale>
<asrwt>0</asrwt>
<pdfrwt beam="1">  1        2 0.38278471E-01 0.51152538E+03</pdfrwt>
<pdfrwt beam="2">  1       -2 0.40447630E-01 0.51152538E+03</pdfrwt>
<totfact> 0.78620703E+02</totfact>
</mgrwt>
</event>
<event>
 4    1  0.1573232E-005  0.4458595E+03  0.7818608E-02  0.1028964E+00
          2   -1    0    0  501    0  0.00000000000E+00  0.00000000000E+00  0.14086978379E+04  0.14086978379E+04  0.25500000000E-02 0.  1.
         -2   -1    0    0    0  501 -0.00000000000E+00 -0.00000000000E+00 -0.35279161560E+02  0.35279161652E+02  0.25500000000E-02 0. -1.
    5000001    1    1    2    0    0  0.84637273422E+02 -0.79929578598E+02  0.38082575296E+03  0.43105157430E+03  0.16500000000E+03 0.  0.
   -5000001    1    1    2    0    0 -0.84637273422E+02  0.79929578598E+02  0.99259292337E+03  0.10129254252E+04  0.16500000000E+03 0.  0.
<mgrwt>
<rscale>  0 0.44585952E+03</rscale>
<asrwt>0</asrwt>
<pdfrwt beam="1">  1        2 0.21672271E+00 0.44585952E+03</pdfrwt>
<pdfrwt beam="2">  1       -2 0.54275641E-02 0.44585952E+03</pdfrwt>
<totfact> 0.26373738E+03</totfact>
</mgrwt>
</event>
<event>
 4    1  0.1573232E-005  0.6821874E+03  0.7818608E-02  0.9748189E-01
         -2   -1    0    0    0  501 -0.00000000000E+00  0.00000000000E+00  0.79223654878E+02  0.79223654919E+02  0.25500000000E-02 0. -1.
          2   -1    0    0  501    0  0.00000000000E+00 -0.00000000000E+00 -0.14685627390E+04  0.14685627390E+04  0.25500000000E-02 0.  1.
    5000001    1    1    2    0    0  0.16335673428E+03  0.12729218141E+03 -0.20683240909E+03  0.33599608261E+03  0.16500000000E+03 0.  0.
   -5000001    1    1    2    0    0 -0.16335673428E+03 -0.12729218141E+03 -0.11825066751E+04  0.12117903113E+04  0.16500000000E+03 0.  0.
<mgrwt>
<rscale>  0 0.68218739E+03</rscale>
<asrwt>0</asrwt>
<pdfrwt beam="1">  1        2 0.22593271E+00 0.68218739E+03</pdfrwt>
<pdfrwt beam="2">  1       -2 0.12188256E-01 0.68218739E+03</pdfrwt>
<totfact> 0.66582720E+02</totfact>
</mgrwt>
</event>
<event>
 4    1  0.1573232E-005  0.9933109E+03  0.7818608E-02  0.9315912E-01
          2   -1    0    0  501    0  0.00000000000E+00  0.00000000000E+00  0.30157900861E+03  0.30157900863E+03  0.25500000000E-02 0.  1.
         -2   -1    0    0    0  501 -0.00000000000E+00 -0.00000000000E+00 -0.81791707954E+03  0.81791707954E+03  0.25500000000E-02 0. -1.
    5000001    1    1    2    0    0 -0.91754588945E+02  0.93430102408E+01  0.25945228136E+03  0.32100885149E+03  0.16500000000E+03 0.  0.
   -5000001    1    1    2    0    0  0.91754588945E+02 -0.93430102408E+01 -0.77579035229E+03  0.79848723668E+03  0.16500000000E+03 0.  0.
<mgrwt>
<rscale>  0 0.99331087E+03</rscale>
<asrwt>0</asrwt>
<pdfrwt beam="1">  1        2 0.46396771E-01 0.99331087E+03</pdfrwt>
<pdfrwt beam="2">  1       -2 0.12583340E+00 0.99331087E+03</pdfrwt>
<totfact> 0.51373429E+01</totfact>
</mgrwt>
</event>
<event>
 4    1  0.1573232E-005  0.3662054E+03  0.7818608E-02  0.1056153E+00
         -2   -1    0    0    0  501 -0.00000000000E+00  0.00000000000E+00  0.14671641320E+02  0.14671641542E+02  0.25500000000E-02 0. -1.
          2   -1    0    0  501    0  0.00000000000E+00 -0.00000000000E+00 -0.22851291462E+04  0.22851291462E+04  0.25500000000E-02 0.  1.
    5000001    1    1    2    0    0  0.77057894940E+02  0.14960947791E+02 -0.10609625820E+04  0.10765817895E+04  0.16500000000E+03 0.  0.
   -5000001    1    1    2    0    0 -0.77057894940E+02 -0.14960947791E+02 -0.12094949229E+04  0.12232189982E+04  0.16500000000E+03 0.  0.
<mgrwt>
<rscale>  0 0.36620538E+03</rscale>
<asrwt>0</asrwt>
<pdfrwt beam="1">  1        2 0.35155805E+00 0.36620538E+03</pdfrwt>
<pdfrwt beam="2">  1       -2 0.22571774E-02 0.36620538E+03</pdfrwt>
<totfact> 0.33754159E+03</totfact>
</mgrwt>
</event>
<event>
 4    1  0.1573232E-005  0.7368905E+03  0.7818608E-02  0.9656145E-01
         -2   -1    0    0    0  501 -0.00000000000E+00  0.00000000000E+00  0.12039511963E+03  0.12039511966E+03  0.25500000000E-02 0. -1.
          2   -1    0    0  501    0  0.00000000000E+00 -0.00000000000E+00 -0.11275530953E+04  0.11275530953E+04  0.25500000000E-02 0.  1.
    5000001    1    1    2    0    0 -0.25071662019E+02 -0.30087992311E+03 -0.72677591079E+03  0.80410542896E+03  0.16500000000E+03 0.  0.
   -5000001    1    1    2    0    0  0.25071662019E+02  0.30087992311E+03 -0.28038206484E+03  0.44384278597E+03  0.16500000000E+03 0.  0.
<mgrwt>
<rscale>  0 0.73689047E+03</rscale>
<asrwt>0</asrwt>
<pdfrwt beam="1">  1        2 0.17346970E+00 0.73689047E+03</pdfrwt>
<pdfrwt beam="2">  1       -2 0.18522327E-01 0.73689047E+03</pdfrwt>
<totfact> 0.51507060E+02</totfact>
</mgrwt>
</event>
<event>
 4    1  0.1573232E-005  0.5343105E+03  0.7818608E-02  0.1005192E+00
         -2   -1    0    0    0  501 -0.00000000000E+00  0.00000000000E+00  0.27111824037E+03  0.27111824038E+03  0.25500000000E-02 0. -1.
          2   -1    0    0  501    0  0.00000000000E+00 -0.00000000000E+00 -0.26325017910E+03  0.26325017911E+03  0.25500000000E-02 0.  1.
    5000001    1    1    2    0    0  0.77072857865E+02 -0.13694181746E+03  0.14342545318E+03  0.26923808684E+03  0.16500000000E+03 0.  0.
   -5000001    1    1    2    0    0 -0.77072857865E+02  0.13694181746E+03 -0.13555739191E+03  0.26513033265E+03  0.16500000000E+03 0.  0.
<mgrwt>
<rscale>  0 0.53431049E+03</rscale>
<asrwt>0</asrwt>
<pdfrwt beam="1">  1        2 0.40500028E-01 0.53431049E+03</pdfrwt>
<pdfrwt beam="2">  1       -2 0.41710498E-01 0.53431049E+03</pdfrwt>
<totfact> 0.69573897E+02</totfact>
</mgrwt>
</event>
<event>
 4    1  0.1573232E-005  0.3757647E+03  0.7818608E-02  0.1052510E+00
          2   -1    0    0  501    0  0.00000000000E+00  0.00000000000E+00  0.55961085628E+03  0.55961085629E+03  0.25500000000E-02 0.  1.
         -2   -1    0    0    0  501 -0.00000000000E+00 -0.00000000000E+00 -0.63079141780E+02  0.63079141831E+02  0.25500000000E-02 0. -1.
    5000001    1    1    2    0    0  0.50374356065E+02 -0.73481354177E+02  0.22882107681E+03  0.29583977142E+03  0.16500000000E+03 0.  0.
   -5000001    1    1    2    0    0 -0.50374356065E+02  0.73481354177E+02  0.26771063770E+03  0.32685022670E+03  0.16500000000E+03 0.  0.
<mgrwt>
<rscale>  0 0.37576467E+03</rscale>
<asrwt>0</asrwt>
<pdfrwt beam="1">  1        2 0.86093983E-01 0.37576467E+03</pdfrwt>
<pdfrwt beam="2">  1       -2 0.97044827E-02 0.37576467E+03</pdfrwt>
<totfact> 0.38296056E+03</totfact>
</mgrwt>
</event>
<event>
 4    1  0.1573232E-005  0.6336264E+03  0.7818608E-02  0.9837998E-01
         -2   -1    0    0    0  501 -0.00000000000E+00  0.00000000000E+00  0.63088158019E+02  0.63088158071E+02  0.25500000000E-02 0. -1.
          2   -1    0    0  501    0  0.00000000000E+00 -0.00000000000E+00 -0.15909577500E+04  0.15909577500E+04  0.25500000000E-02 0.  1.
    5000001    1    1    2    0    0  0.25273789044E+03  0.11872199209E+02 -0.10133408411E+04  0.10574034474E+04  0.16500000000E+03 0.  0.
   -5000001    1    1    2    0    0 -0.25273789044E+03 -0.11872199209E+02 -0.51452875092E+03  0.59664246069E+03  0.16500000000E+03 0.  0.
<mgrwt>
<rscale>  0 0.63362637E+03</rscale>
<asrwt>0</asrwt>
<pdfrwt beam="1">  1        2 0.24476270E+00 0.63362637E+03</pdfrwt>
<pdfrwt beam="2">  1       -2 0.97058717E-02 0.63362637E+03</pdfrwt>
<totfact> 0.82916986E+02</totfact>
</mgrwt>
</event>
<event>
 4    1  0.1573232E-005  0.6641155E+03  0.7818608E-02  0.9780647E-01
         -2   -1    0    0    0  501 -0.00000000000E+00  0.00000000000E+00  0.92457088332E+03  0.92457088333E+03  0.25500000000E-02 0. -1.
          2   -1    0    0  501    0  0.00000000000E+00 -0.00000000000E+00 -0.11925787245E+03  0.11925787248E+03  0.25500000000E-02 0.  1.
    5000001    1    1    2    0    0  0.47764569204E+02  0.22761591349E+03  0.13524096366E+03  0.31560351138E+03  0.16500000000E+03 0.  0.
   -5000001    1    1    2    0    0 -0.47764569204E+02 -0.22761591349E+03  0.67007204722E+03  0.72822524442E+03  0.16500000000E+03 0.  0.
<mgrwt>
<rscale>  0 0.66411552E+03</rscale>
<asrwt>0</asrwt>
<pdfrwt beam="1">  1        2 0.18347364E-01 0.66411552E+03</pdfrwt>
<pdfrwt beam="2">  1       -2 0.14224168E+00 0.66411552E+03</pdfrwt>
<totfact> 0.10993202E+02</totfact>
</mgrwt>
</event>
<event>
 4    1  0.1573232E-005  0.6149973E+03  0.7818608E-02  0.9874771E-01
         -2   -1    0    0    0  501 -0.00000000000E+00  0.00000000000E+00  0.12045396623E+03  0.12045396626E+03  0.25500000000E-02 0. -1.
          2   -1    0    0  501    0  0.00000000000E+00 -0.00000000000E+00 -0.78499216283E+03  0.78499216283E+03  0.25500000000E-02 0.  1.
    5000001    1    1    2    0    0  0.69180342830E+02  0.17851499844E+03 -0.74402490195E+02  0.26346585177E+03  0.16500000000E+03 0.  0.
   -5000001    1    1    2    0    0 -0.69180342830E+02 -0.17851499844E+03 -0.59013570640E+03  0.64198027732E+03  0.16500000000E+03 0.  0.
<mgrwt>
<rscale>  0 0.61499730E+03</rscale>
<asrwt>0</asrwt>
<pdfrwt beam="1">  1        2 0.12076802E+00 0.61499730E+03</pdfrwt>
<pdfrwt beam="2">  1       -2 0.18531380E-01 0.61499730E+03</pdfrwt>
<totfact> 0.86597741E+02</totfact>
</mgrwt>
</event>
<event>
 4    1  0.1573232E-005  0.6029600E+03  0.7818608E-02  0.9899284E-01
          2   -1    0    0  501    0  0.00000000000E+00  0.00000000000E+00  0.18784827751E+04  0.18784827751E+04  0.25500000000E-02 0.  1.
         -2   -1    0    0    0  501 -0.00000000000E+00 -0.00000000000E+00 -0.48384895578E+02  0.48384895645E+02  0.25500000000E-02 0. -1.
    5000001    1    1    2    0    0  0.17222395596E+03  0.16861234258E+03  0.11536355578E+04  0.11900383243E+04  0.16500000000E+03 0.  0.
   -5000001    1    1    2    0    0 -0.17222395596E+03 -0.16861234258E+03  0.67646232165E+03  0.73682934638E+03  0.16500000000E+03 0.  0.
<mgrwt>
<rscale>  0 0.60296001E+03</rscale>
<asrwt>0</asrwt>
<pdfrwt beam="1">  1        2 0.28899730E+00 0.60296001E+03</pdfrwt>
<pdfrwt beam="2">  1       -2 0.74438315E-02 0.60296001E+03</pdfrwt>
<totfact> 0.88681704E+02</totfact>
</mgrwt>
</event>
<event>
 4    1  0.1573232E-005  0.4505326E+03  0.7818608E-02  0.1027563E+00
          2   -1    0    0  501    0  0.00000000000E+00  0.00000000000E+00  0.22977992130E+03  0.22977992131E+03  0.25500000000E-02 0.  1.
         -2   -1    0    0    0  501 -0.00000000000E+00 -0.00000000000E+00 -0.22084131214E+03  0.22084131215E+03  0.25500000000E-02 0. -1.
    5000001    1    1    2    0    0 -0.12371770439E+03 -0.35067553350E+02 -0.79118043728E+02  0.22365256207E+03  0.16500000000E+03 0.  0.
   -5000001    1    1    2    0    0  0.12371770439E+03  0.35067553350E+02  0.88056652889E+02  0.22696867140E+03  0.16500000000E+03 0.  0.
<mgrwt>
<rscale>  0 0.45053257E+03</rscale>
<asrwt>0</asrwt>
<pdfrwt beam="1">  1        2 0.35350757E-01 0.45053257E+03</pdfrwt>
<pdfrwt beam="2">  1       -2 0.33975587E-01 0.45053257E+03</pdfrwt>
<totfact> 0.11968457E+03</totfact>
</mgrwt>
</event>
<event>
 4    1  0.1573232E-005  0.1653817E+04  0.7818608E-02  0.8788152E-01
         -2   -1    0    0    0  501 -0.00000000000E+00  0.00000000000E+00  0.94915950692E+03  0.94915950692E+03  0.25500000000E-02 0. -1.
          2   -1    0    0  501    0  0.00000000000E+00 -0.00000000000E+00 -0.72040293406E+03  0.72040293406E+03  0.25500000000E-02 0.  1.
    5000001    1    1    2    0    0 -0.23308755707E+03 -0.77370807809E+03  0.17493519189E+03  0.84307847839E+03  0.16500000000E+03 0.  0.
   -5000001    1    1    2    0    0  0.23308755707E+03  0.77370807809E+03  0.53821380971E+02  0.82648396259E+03  0.16500000000E+03 0.  0.
<mgrwt>
<rscale>  0 0.16538165E+04</rscale>
<asrwt>0</asrwt>
<pdfrwt beam="1">  1        2 0.11083122E+00 0.16538165E+04</pdfrwt>
<pdfrwt beam="2">  1       -2 0.14602454E+00 0.16538165E+04</pdfrwt>
<totfact> 0.12127656E+01</totfact>
</mgrwt>
</event>
<event>
 4    1  0.1573232E-005  0.5514151E+03  0.7818608E-02  0.1001167E+00
         -2   -1    0    0    0  501 -0.00000000000E+00  0.00000000000E+00  0.19044321361E+03  0.19044321363E+03  0.25500000000E-02 0. -1.
          2   -1    0    0  501    0  0.00000000000E+00 -0.00000000000E+00 -0.39914600865E+03  0.39914600865E+03  0.25500000000E-02 0.  1.
    5000001    1    1    2    0    0 -0.18070053199E+03 -0.12171114575E+03 -0.65454904818E+02  0.28102603051E+03  0.16500000000E+03 0.  0.
   -5000001    1    1    2    0    0  0.18070053199E+03  0.12171114575E+03 -0.14324789022E+03  0.30856319177E+03  0.16500000000E+03 0.  0.
<mgrwt>
<rscale>  0 0.55141508E+03</rscale>
<asrwt>0</asrwt>
<pdfrwt beam="1">  1        2 0.61407078E-01 0.55141508E+03</pdfrwt>
<pdfrwt beam="2">  1       -2 0.29298956E-01 0.55141508E+03</pdfrwt>
<totfact> 0.85723302E+02</totfact>
</mgrwt>
</event>
<event>
 4    1  0.1573232E-005  0.7664661E+03  0.7818608E-02  0.9609866E-01
         -2   -1    0    0    0  501 -0.00000000000E+00  0.00000000000E+00  0.15797990472E+03  0.15797990474E+03  0.25500000000E-02 0. -1.
          2   -1    0    0  501    0  0.00000000000E+00 -0.00000000000E+00 -0.92965971601E+03  0.92965971602E+03  0.25500000000E-02 0.  1.
    5000001    1    1    2    0    0  0.19522046296E+03  0.26830872604E+03 -0.24722475482E+03  0.44547242454E+03  0.16500000000E+03 0.  0.
   -5000001    1    1    2    0    0 -0.19522046296E+03 -0.26830872604E+03 -0.52445505648E+03  0.64216719621E+03  0.16500000000E+03 0.  0.
<mgrwt>
<rscale>  0 0.76646606E+03</rscale>
<asrwt>0</asrwt>
<pdfrwt beam="1">  1        2 0.14302457E+00 0.76646606E+03</pdfrwt>
<pdfrwt beam="2">  1       -2 0.24304601E-01 0.76646606E+03</pdfrwt>
<totfact> 0.42468274E+02</totfact>
</mgrwt>
</event>
<event>
 4    1  0.1573232E-005  0.5756945E+03  0.7818608E-02  0.9957156E-01
         -2   -1    0    0    0  501 -0.00000000000E+00  0.00000000000E+00  0.93763945296E+02  0.93763945331E+02  0.25500000000E-02 0. -1.
          2   -1    0    0  501    0  0.00000000000E+00 -0.00000000000E+00 -0.88366629947E+03  0.88366629947E+03  0.25500000000E-02 0.  1.
    5000001    1    1    2    0    0  0.23334859794E+03  0.12679410392E+02 -0.44914096882E+03  0.53250816471E+03  0.16500000000E+03 0.  0.
   -5000001    1    1    2    0    0 -0.23334859794E+03 -0.12679410392E+02 -0.34076138535E+03  0.44492208009E+03  0.16500000000E+03 0.  0.
<mgrwt>
<rscale>  0 0.57569450E+03</rscale>
<asrwt>0</asrwt>
<pdfrwt beam="1">  1        2 0.13594866E+00 0.57569450E+03</pdfrwt>
<pdfrwt beam="2">  1       -2 0.14425223E-01 0.57569450E+03</pdfrwt>
<totfact> 0.11326882E+03</totfact>
</mgrwt>
</event>
<event>
 4    1  0.1573232E-005  0.5159112E+03  0.7818608E-02  0.1009707E+00
          2   -1    0    0  501    0  0.00000000000E+00  0.00000000000E+00  0.20848725676E+03  0.20848725678E+03  0.25500000000E-02 0.  1.
         -2   -1    0    0    0  501 -0.00000000000E+00 -0.00000000000E+00 -0.31916141065E+03  0.31916141066E+03  0.25500000000E-02 0. -1.
    5000001    1    1    2    0    0 -0.66539617360E+02  0.17501830473E+03 -0.12206841848E+03  0.27782121312E+03  0.16500000000E+03 0.  0.
   -5000001    1    1    2    0    0  0.66539617360E+02 -0.17501830473E+03  0.11394264587E+02  0.24982745433E+03  0.16500000000E+03 0.  0.
<mgrwt>
<rscale>  0 0.51591118E+03</rscale>
<asrwt>0</asrwt>
<pdfrwt beam="1">  1        2 0.32074963E-01 0.51591118E+03</pdfrwt>
<pdfrwt beam="2">  1       -2 0.49101755E-01 0.51591118E+03</pdfrwt>
<totfact> 0.65200150E+02</totfact>
</mgrwt>
</event>
<event>
 4    1  0.1573232E-005  0.5964061E+03  0.7818608E-02  0.9912890E-01
          2   -1    0    0  501    0  0.00000000000E+00  0.00000000000E+00  0.36866375107E+03  0.36866375108E+03  0.25500000000E-02 0.  1.
         -2   -1    0    0    0  501 -0.00000000000E+00 -0.00000000000E+00 -0.24120914830E+03  0.24120914831E+03  0.25500000000E-02 0. -1.
    5000001    1    1    2    0    0 -0.17502751744E+03  0.19927286594E+02  0.24280535834E+03  0.34236116989E+03  0.16500000000E+03 0.  0.
   -5000001    1    1    2    0    0  0.17502751744E+03 -0.19927286594E+02 -0.11535075556E+03  0.26751172950E+03  0.16500000000E+03 0.  0.
<mgrwt>
<rscale>  0 0.59640613E+03</rscale>
<asrwt>0</asrwt>
<pdfrwt beam="1">  1        2 0.56717500E-01 0.59640613E+03</pdfrwt>
<pdfrwt beam="2">  1       -2 0.37109100E-01 0.59640613E+03</pdfrwt>
<totfact> 0.60080505E+02</totfact>
</mgrwt>
</event>
<event>
 4    1  0.1573232E-005  0.4107138E+03  0.7818608E-02  0.1040132E+00
          2   -1    0    0  501    0  0.00000000000E+00  0.00000000000E+00  0.11583567734E+04  0.11583567734E+04  0.25500000000E-02 0.  1.
         -2   -1    0    0    0  501 -0.00000000000E+00 -0.00000000000E+00 -0.36406267276E+02  0.36406267365E+02  0.25500000000E-02 0. -1.
    5000001    1    1    2    0    0 -0.11367993897E+03 -0.54079754653E+01  0.69087637821E+03  0.71936607140E+03  0.16500000000E+03 0.  0.
   -5000001    1    1    2    0    0  0.11367993897E+03  0.54079754653E+01  0.43107412794E+03  0.47539696939E+03  0.16500000000E+03 0.  0.
<mgrwt>
<rscale>  0 0.41071375E+03</rscale>
<asrwt>0</asrwt>
<pdfrwt beam="1">  1        2 0.17820872E+00 0.41071375E+03</pdfrwt>
<pdfrwt beam="2">  1       -2 0.56009648E-02 0.41071375E+03</pdfrwt>
<totfact> 0.34854730E+03</totfact>
</mgrwt>
</event>
<event>
 4    1  0.1573232E-005  0.4855077E+03  0.7818608E-02  0.1017632E+00
          2   -1    0    0  501    0  0.00000000000E+00  0.00000000000E+00  0.14611312959E+04  0.14611312959E+04  0.25500000000E-02 0.  1.
         -2   -1    0    0    0  501 -0.00000000000E+00 -0.00000000000E+00 -0.40331369126E+02  0.40331369207E+02  0.25500000000E-02 0. -1.
    5000001    1    1    2    0    0  0.42326516770E+02 -0.17191102993E+03  0.65176434357E+03  0.69524578084E+03  0.16500000000E+03 0.  0.
   -5000001    1    1    2    0    0 -0.42326516770E+02  0.17191102993E+03  0.76903558317E+03  0.80621688423E+03  0.16500000000E+03 0.  0.
<mgrwt>
<rscale>  0 0.48550768E+03</rscale>
<asrwt>0</asrwt>
<pdfrwt beam="1">  1        2 0.22478944E+00 0.48550768E+03</pdfrwt>
<pdfrwt beam="2">  1       -2 0.62048257E-02 0.48550768E+03</pdfrwt>
<totfact> 0.20021001E+03</totfact>
</mgrwt>
</event>
<event>
 4    1  0.1573232E-005  0.6328888E+03  0.7818608E-02  0.9839428E-01
          2   -1    0    0  501    0  0.00000000000E+00  0.00000000000E+00  0.15440608351E+04  0.15440608351E+04  0.25500000000E-02 0.  1.
         -2   -1    0    0    0  501 -0.00000000000E+00 -0.00000000000E+00 -0.64853053150E+02  0.64853053200E+02  0.25500000000E-02 0. -1.
    5000001    1    1    2    0    0  0.24954668451E+03  0.82555789105E+02  0.58241908293E+03  0.65994393264E+03  0.16500000000E+03 0.  0.
   -5000001    1    1    2    0    0 -0.24954668451E+03 -0.82555789105E+02  0.89678869905E+03  0.94896995570E+03  0.16500000000E+03 0.  0.
<mgrwt>
<rscale>  0 0.63288880E+03</rscale>
<asrwt>0</asrwt>
<pdfrwt beam="1">  1        2 0.23754780E+00 0.63288880E+03</pdfrwt>
<pdfrwt beam="2">  1       -2 0.99773937E-02 0.63288880E+03</pdfrwt>
<totfact> 0.84140260E+02</totfact>
</mgrwt>
</event>
<event>
 4    1  0.1573232E-005  0.1008310E+04  0.7818608E-02  0.9299478E-01
          2   -1    0    0  501    0  0.00000000000E+00  0.00000000000E+00  0.18203942767E+04  0.18203942767E+04  0.25500000000E-02 0.  1.
         -2   -1    0    0    0  501 -0.00000000000E+00 -0.00000000000E+00 -0.13962475584E+03  0.13962475586E+03  0.25500000000E-02 0. -1.
    5000001    1    1    2    0    0  0.11646203766E+03  0.44270516666E+03  0.10967676256E+04  0.11998647821E+04  0.16500000000E+03 0.  0.
   -5000001    1    1    2    0    0 -0.11646203766E+03 -0.44270516666E+03  0.58400189527E+03  0.76015425045E+03  0.16500000000E+03 0.  0.
<mgrwt>
<rscale>  0 0.10083097E+04</rscale>
<asrwt>0</asrwt>
<pdfrwt beam="1">  1        2 0.28006066E+00 0.10083097E+04</pdfrwt>
<pdfrwt beam="2">  1       -2 0.21480732E-01 0.10083097E+04</pdfrwt>
<totfact> 0.15828628E+02</totfact>
</mgrwt>
</event>
<event>
 4    1  0.1573232E-005  0.6339876E+03  0.7818608E-02  0.9837298E-01
          2   -1    0    0  501    0  0.00000000000E+00  0.00000000000E+00  0.60290942169E+03  0.60290942169E+03  0.25500000000E-02 0.  1.
         -2   -1    0    0    0  501 -0.00000000000E+00 -0.00000000000E+00 -0.16666692894E+03  0.16666692895E+03  0.25500000000E-02 0. -1.
    5000001    1    1    2    0    0  0.98415786447E+02  0.24597924261E+03  0.28536339723E+03  0.42290509963E+03  0.16500000000E+03 0.  0.
   -5000001    1    1    2    0    0 -0.98415786447E+02 -0.24597924261E+03  0.15087909552E+03  0.34667125102E+03  0.16500000000E+03 0.  0.
<mgrwt>
<rscale>  0 0.63398758E+03</rscale>
<asrwt>0</asrwt>
<pdfrwt beam="1">  1        2 0.92755295E-01 0.63398758E+03</pdfrwt>
<pdfrwt beam="2">  1       -2 0.25641066E-01 0.63398758E+03</pdfrwt>
<totfact> 0.67873448E+02</totfact>
</mgrwt>
</event>
<event>
 4    1  0.1573232E-005  0.4289919E+03  0.7818608E-02  0.1034179E+00
          2   -1    0    0  501    0  0.00000000000E+00  0.00000000000E+00  0.26148914306E+03  0.26148914307E+03  0.25500000000E-02 0.  1.
         -2   -1    0    0    0  501 -0.00000000000E+00 -0.00000000000E+00 -0.17594807024E+03  0.17594807026E+03  0.25500000000E-02 0. -1.
    5000001    1    1    2    0    0 -0.12321095569E+03 -0.53698424002E+02  0.70113533935E+02  0.22406554394E+03  0.16500000000E+03 0.  0.
   -5000001    1    1    2    0    0  0.12321095569E+03  0.53698424002E+02  0.15427538883E+02  0.21337166939E+03  0.16500000000E+03 0.  0.
<mgrwt>
<rscale>  0 0.42899189E+03</rscale>
<asrwt>0</asrwt>
<pdfrwt beam="1">  1        2 0.40229099E-01 0.42899189E+03</pdfrwt>
<pdfrwt beam="2">  1       -2 0.27068934E-01 0.42899189E+03</pdfrwt>
<totfact> 0.15767386E+03</totfact>
</mgrwt>
</event>
<event>
 4    1  0.1573232E-005  0.3888395E+03  0.7818608E-02  0.1047714E+00
         -2   -1    0    0    0  501 -0.00000000000E+00  0.00000000000E+00  0.80878771638E+02  0.80878771678E+02  0.25500000000E-02 0. -1.
          2   -1    0    0  501    0  0.00000000000E+00 -0.00000000000E+00 -0.46735418784E+03  0.46735418785E+03  0.25500000000E-02 0.  1.
    5000001    1    1    2    0    0  0.25090756229E+02  0.96893031551E+02 -0.15998547246E+03  0.25067540168E+03  0.16500000000E+03 0.  0.
   -5000001    1    1    2    0    0 -0.25090756229E+02 -0.96893031551E+02 -0.22648994374E+03  0.29755755784E+03  0.16500000000E+03 0.  0.
<mgrwt>
<rscale>  0 0.38883947E+03</rscale>
<asrwt>0</asrwt>
<pdfrwt beam="1">  1        2 0.71900643E-01 0.38883947E+03</pdfrwt>
<pdfrwt beam="2">  1       -2 0.12442888E-01 0.38883947E+03</pdfrwt>
<totfact> 0.31477787E+03</totfact>
</mgrwt>
</event>
<event>
 4    1  0.1573232E-005  0.5051678E+03  0.7818608E-02  0.1012439E+00
          2   -1    0    0  501    0  0.00000000000E+00  0.00000000000E+00  0.10775529937E+04  0.10775529937E+04  0.25500000000E-02 0.  1.
         -2   -1    0    0    0  501 -0.00000000000E+00 -0.00000000000E+00 -0.59206961310E+02  0.59206961365E+02  0.25500000000E-02 0. -1.
    5000001    1    1    2    0    0  0.74068311401E+02  0.17619561587E+03  0.49448091938E+03  0.55521832591E+03  0.16500000000E+03 0.  0.
   -5000001    1    1    2    0    0 -0.74068311401E+02 -0.17619561587E+03  0.52386511301E+03  0.58154162915E+03  0.16500000000E+03 0.  0.
<mgrwt>
<rscale>  0 0.50516785E+03</rscale>
<asrwt>0</asrwt>
<pdfrwt beam="1">  1        2 0.16577737E+00 0.50516785E+03</pdfrwt>
<pdfrwt beam="2">  1       -2 0.91087641E-02 0.50516785E+03</pdfrwt>
<totfact> 0.18112981E+03</totfact>
</mgrwt>
</event>
<event>
 4    1  0.1573232E-005  0.3916112E+03  0.7818608E-02  0.1046724E+00
         -2   -1    0    0    0  501 -0.00000000000E+00  0.00000000000E+00  0.12486331950E+03  0.12486331953E+03  0.25500000000E-02 0. -1.
          2   -1    0    0  501    0  0.00000000000E+00 -0.00000000000E+00 -0.30705440348E+03  0.30705440349E+03  0.25500000000E-02 0.  1.
    5000001    1    1    2    0    0  0.27440423166E+01  0.81302239685E+02 -0.16505936518E+03  0.24715820436E+03  0.16500000000E+03 0.  0.
   -5000001    1    1    2    0    0 -0.27440423166E+01 -0.81302239685E+02 -0.17131718791E+02  0.18475951866E+03  0.16500000000E+03 0.  0.
<mgrwt>
<rscale>  0 0.39161120E+03</rscale>
<asrwt>0</asrwt>
<pdfrwt beam="1">  1        2 0.47239139E-01 0.39161120E+03</pdfrwt>
<pdfrwt beam="2">  1       -2 0.19209742E-01 0.39161120E+03</pdfrwt>
<totfact> 0.24164381E+03</totfact>
</mgrwt>
</event>
<event>
 4    1  0.1573232E-005  0.5408876E+03  0.7818608E-02  0.1003625E+00
          2   -1    0    0  501    0  0.00000000000E+00  0.00000000000E+00  0.18648768903E+03  0.18648768905E+03  0.25500000000E-02 0.  1.
         -2   -1    0    0    0  501 -0.00000000000E+00 -0.00000000000E+00 -0.39219670886E+03  0.39219670887E+03  0.25500000000E-02 0. -1.
    5000001    1    1    2    0    0  0.76807413981E+02 -0.11134075747E+03  0.74947413243E+02  0.22613769670E+03  0.16500000000E+03 0.  0.
   -5000001    1    1    2    0    0 -0.76807413981E+02  0.11134075747E+03 -0.28065643308E+03  0.35254670122E+03  0.16500000000E+03 0.  0.
<mgrwt>
<rscale>  0 0.54088763E+03</rscale>
<asrwt>0</asrwt>
<pdfrwt beam="1">  1        2 0.28690414E-01 0.54088763E+03</pdfrwt>
<pdfrwt beam="2">  1       -2 0.60337955E-01 0.54088763E+03</pdfrwt>
<totfact> 0.48330942E+02</totfact>
</mgrwt>
</event>
<event>
 4    1  0.1573232E-005  0.7549949E+03  0.7818608E-02  0.9627546E-01
         -2   -1    0    0    0  501 -0.00000000000E+00  0.00000000000E+00  0.24222384879E+03  0.24222384881E+03  0.25500000000E-02 0. -1.
          2   -1    0    0  501    0  0.00000000000E+00 -0.00000000000E+00 -0.58831673048E+03  0.58831673048E+03  0.25500000000E-02 0.  1.
    5000001    1    1    2    0    0 -0.17235712111E+03  0.28838421936E+03 -0.22701570794E+03  0.43775971357E+03  0.16500000000E+03 0.  0.
   -5000001    1    1    2    0    0  0.17235712111E+03 -0.28838421936E+03 -0.11907717375E+03  0.39278086572E+03  0.16500000000E+03 0.  0.
<mgrwt>
<rscale>  0 0.75499495E+03</rscale>
<asrwt>0</asrwt>
<pdfrwt beam="1">  1        2 0.90510265E-01 0.75499495E+03</pdfrwt>
<pdfrwt beam="2">  1       -2 0.37265208E-01 0.75499495E+03</pdfrwt>
<totfact> 0.34711163E+02</totfact>
</mgrwt>
</event>
<event>
 4    1  0.1573232E-005  0.4292461E+03  0.7818608E-02  0.1034098E+00
          2   -1    0    0  501    0  0.00000000000E+00  0.00000000000E+00  0.21657586262E+03  0.21657586263E+03  0.25500000000E-02 0.  1.
         -2   -1    0    0    0  501 -0.00000000000E+00 -0.00000000000E+00 -0.21268785396E+03  0.21268785397E+03  0.25500000000E-02 0. -1.
    5000001    1    1    2    0    0  0.56572106725E+02  0.93713646778E+02  0.84744771432E+02  0.21538181710E+03  0.16500000000E+03 0.  0.
   -5000001    1    1    2    0    0 -0.56572106725E+02 -0.93713646778E+02 -0.80856762771E+02  0.21388189951E+03  0.16500000000E+03 0.  0.
<mgrwt>
<rscale>  0 0.42924611E+03</rscale>
<asrwt>0</asrwt>
<pdfrwt beam="1">  1        2 0.33319363E-01 0.42924611E+03</pdfrwt>
<pdfrwt beam="2">  1       -2 0.32721208E-01 0.42924611E+03</pdfrwt>
<totfact> 0.13703688E+03</totfact>
</mgrwt>
</event>
<event>
 4    1  0.1573232E-005  0.5009121E+03  0.7818608E-02  0.1013541E+00
         -2   -1    0    0    0  501 -0.00000000000E+00  0.00000000000E+00  0.24172670408E+02  0.24172670543E+02  0.25500000000E-02 0. -1.
          2   -1    0    0  501    0  0.00000000000E+00 -0.00000000000E+00 -0.25950063803E+04  0.25950063803E+04  0.25500000000E-02 0.  1.
    5000001    1    1    2    0    0  0.17621746279E+03 -0.62968344276E+02 -0.11701895730E+04  0.11964891321E+04  0.16500000000E+03 0.  0.
   -5000001    1    1    2    0    0 -0.17621746279E+03  0.62968344276E+02 -0.14006441370E+04  0.14226899188E+04  0.16500000000E+03 0.  0.
<mgrwt>
<rscale>  0 0.50091210E+03</rscale>
<asrwt>0</asrwt>
<pdfrwt beam="1">  1        2 0.39923153E+00 0.50091210E+03</pdfrwt>
<pdfrwt beam="2">  1       -2 0.37188744E-02 0.50091210E+03</pdfrwt>
<totfact> 0.10614025E+03</totfact>
</mgrwt>
</event>
<event>
 4    1  0.1573232E-005  0.7880163E+03  0.7818608E-02  0.9577527E-01
         -2   -1    0    0    0  501 -0.00000000000E+00  0.00000000000E+00  0.71308668390E+02  0.71308668435E+02  0.25500000000E-02 0. -1.
          2   -1    0    0  501    0  0.00000000000E+00 -0.00000000000E+00 -0.21770484558E+04  0.21770484558E+04  0.25500000000E-02 0.  1.
    5000001    1    1    2    0    0  0.39580793629E+02  0.21702204050E+03 -0.24914090641E+03  0.37143155027E+03  0.16500000000E+03 0.  0.
   -5000001    1    1    2    0    0 -0.39580793629E+02 -0.21702204050E+03 -0.18565988810E+04  0.18769255740E+04  0.16500000000E+03 0.  0.
<mgrwt>
<rscale>  0 0.78801631E+03</rscale>
<asrwt>0</asrwt>
<pdfrwt beam="1">  1        2 0.33493048E+00 0.78801631E+03</pdfrwt>
<pdfrwt beam="2">  1       -2 0.10970566E-01 0.78801631E+03</pdfrwt>
<totfact> 0.32172954E+02</totfact>
</mgrwt>
</event>
<event>
 4    1  0.1573232E-005  0.5143173E+03  0.7818608E-02  0.1010108E+00
          2   -1    0    0  501    0  0.00000000000E+00  0.00000000000E+00  0.63295181924E+03  0.63295181924E+03  0.25500000000E-02 0.  1.
         -2   -1    0    0    0  501 -0.00000000000E+00 -0.00000000000E+00 -0.10447964710E+03  0.10447964713E+03  0.25500000000E-02 0. -1.
    5000001    1    1    2    0    0 -0.73041070439E+02  0.90930295841E+02  0.49230715794E+03  0.53216036533E+03  0.16500000000E+03 0.  0.
   -5000001    1    1    2    0    0  0.73041070439E+02 -0.90930295841E+02  0.36165014196E+02  0.20527110105E+03  0.16500000000E+03 0.  0.
<mgrwt>
<rscale>  0 0.51431734E+03</rscale>
<asrwt>0</asrwt>
<pdfrwt beam="1">  1        2 0.97377203E-01 0.51431734E+03</pdfrwt>
<pdfrwt beam="2">  1       -2 0.16073792E-01 0.51431734E+03</pdfrwt>
<totfact> 0.14487013E+03</totfact>
</mgrwt>
</event>
<event>
 4    1  0.1573232E-005  0.5461126E+03  0.7818608E-02  0.1002398E+00
         -2   -1    0    0    0  501 -0.00000000000E+00  0.00000000000E+00  0.23120929351E+03  0.23120929352E+03  0.25500000000E-02 0. -1.
          2   -1    0    0  501    0  0.00000000000E+00 -0.00000000000E+00 -0.32247725801E+03  0.32247725802E+03  0.25500000000E-02 0.  1.
    5000001    1    1    2    0    0  0.15757140068E+03 -0.88868682970E+02  0.76907286010E+02  0.25664395525E+03  0.16500000000E+03 0.  0.
   -5000001    1    1    2    0    0 -0.15757140068E+03  0.88868682970E+02 -0.16817525052E+03  0.29704259629E+03  0.16500000000E+03 0.  0.
<mgrwt>
<rscale>  0 0.54611259E+03</rscale>
<asrwt>0</asrwt>
<pdfrwt beam="1">  1        2 0.49611886E-01 0.54611259E+03</pdfrwt>
<pdfrwt beam="2">  1       -2 0.35570660E-01 0.54611259E+03</pdfrwt>
<totfact> 0.75587825E+02</totfact>
</mgrwt>
</event>
<event>
 4    1  0.1573232E-005  0.6058785E+03  0.7818608E-02  0.9893285E-01
          2   -1    0    0  501    0  0.00000000000E+00  0.00000000000E+00  0.12214338318E+04  0.12214338318E+04  0.25500000000E-02 0.  1.
         -2   -1    0    0    0  501 -0.00000000000E+00 -0.00000000000E+00 -0.75134805309E+02  0.75134805352E+02  0.25500000000E-02 0. -1.
    5000001    1    1    2    0    0  0.11060693782E+03 -0.20865634823E+03  0.77362163342E+03  0.82552213662E+03  0.16500000000E+03 0.  0.
   -5000001    1    1    2    0    0 -0.11060693782E+03  0.20865634823E+03  0.37267739304E+03  0.47104650050E+03  0.16500000000E+03 0.  0.
<mgrwt>
<rscale>  0 0.60587851E+03</rscale>
<asrwt>0</asrwt>
<pdfrwt beam="1">  1        2 0.18791289E+00 0.60587851E+03</pdfrwt>
<pdfrwt beam="2">  1       -2 0.11559201E-01 0.60587851E+03</pdfrwt>
<totfact> 0.10077085E+03</totfact>
</mgrwt>
</event>
<event>
 4    1  0.1573232E-005  0.3422832E+03  0.7818608E-02  0.1065828E+00
         -2   -1    0    0    0  501 -0.00000000000E+00  0.00000000000E+00  0.15585916469E+02  0.15585916677E+02  0.25500000000E-02 0. -1.
          2   -1    0    0  501    0  0.00000000000E+00 -0.00000000000E+00 -0.18792248539E+04  0.18792248539E+04  0.25500000000E-02 0.  1.
    5000001    1    1    2    0    0  0.38146770078E+02  0.21530014521E+02 -0.99864557377E+03  0.10131321235E+04  0.16500000000E+03 0.  0.
   -5000001    1    1    2    0    0 -0.38146770078E+02 -0.21530014521E+02 -0.86499336365E+03  0.88167864710E+03  0.16500000000E+03 0.  0.
<mgrwt>
<rscale>  0 0.34228317E+03</rscale>
<asrwt>0</asrwt>
<pdfrwt beam="1">  1        2 0.28911134E+00 0.34228317E+03</pdfrwt>
<pdfrwt beam="2">  1       -2 0.23978348E-02 0.34228317E+03</pdfrwt>
<totfact> 0.50845818E+03</totfact>
</mgrwt>
</event>
<event>
 4    1  0.1573232E-005  0.4803234E+03  0.7818608E-02  0.1019046E+00
         -2   -1    0    0    0  501 -0.00000000000E+00  0.00000000000E+00  0.31510860872E+02  0.31510860975E+02  0.25500000000E-02 0. -1.
          2   -1    0    0  501    0  0.00000000000E+00 -0.00000000000E+00 -0.18304049536E+04  0.18304049536E+04  0.25500000000E-02 0.  1.
    5000001    1    1    2    0    0  0.36663913837E+02  0.15442010704E+03 -0.11806602696E+04  0.12026526864E+04  0.16500000000E+03 0.  0.
   -5000001    1    1    2    0    0 -0.36663913837E+02 -0.15442010704E+03 -0.61823382314E+03  0.65926312813E+03  0.16500000000E+03 0.  0.
<mgrwt>
<rscale>  0 0.48032337E+03</rscale>
<asrwt>0</asrwt>
<pdfrwt beam="1">  1        2 0.28160068E+00 0.48032337E+03</pdfrwt>
<pdfrwt beam="2">  1       -2 0.48478262E-02 0.48032337E+03</pdfrwt>
<totfact> 0.18527952E+03</totfact>
</mgrwt>
</event>
<event>
 4    1  0.1573232E-005  0.6423644E+03  0.7818608E-02  0.9821213E-01
          2   -1    0    0  501    0  0.00000000000E+00  0.00000000000E+00  0.69417439247E+03  0.69417439247E+03  0.25500000000E-02 0.  1.
         -2   -1    0    0    0  501 -0.00000000000E+00 -0.00000000000E+00 -0.14860532286E+03  0.14860532288E+03  0.25500000000E-02 0. -1.
    5000001    1    1    2    0    0  0.26434963098E+03  0.73250947051E+02  0.23840670019E+03  0.39913554507E+03  0.16500000000E+03 0.  0.
   -5000001    1    1    2    0    0 -0.26434963098E+03 -0.73250947051E+02  0.30716236942E+03  0.44364417029E+03  0.16500000000E+03 0.  0.
<mgrwt>
<rscale>  0 0.64236441E+03</rscale>
<asrwt>0</asrwt>
<pdfrwt beam="1">  1        2 0.10679606E+00 0.64236441E+03</pdfrwt>
<pdfrwt beam="2">  1       -2 0.22862357E-01 0.64236441E+03</pdfrwt>
<totfact> 0.70104308E+02</totfact>
</mgrwt>
</event>
<event>
 4    1  0.1573232E-005  0.6189893E+03  0.7818608E-02  0.9866774E-01
          2   -1    0    0  501    0  0.00000000000E+00  0.00000000000E+00  0.27689693380E+04  0.27689693380E+04  0.25500000000E-02 0.  1.
         -2   -1    0    0    0  501 -0.00000000000E+00 -0.00000000000E+00 -0.34592995417E+02  0.34592995511E+02  0.25500000000E-02 0. -1.
    5000001    1    1    2    0    0 -0.43963571032E+02 -0.19660530014E+03  0.21247464059E+04  0.21406444658E+04  0.16500000000E+03 0.  0.
   -5000001    1    1    2    0    0  0.43963571032E+02  0.19660530014E+03  0.60962993671E+03  0.66291786773E+03  0.16500000000E+03 0.  0.
<mgrwt>
<rscale>  0 0.61898932E+03</rscale>
<asrwt>0</asrwt>
<pdfrwt beam="1">  1        2 0.42599521E+00 0.61898932E+03</pdfrwt>
<pdfrwt beam="2">  1       -2 0.53220002E-02 0.61898932E+03</pdfrwt>
<totfact> 0.47962332E+02</totfact>
</mgrwt>
</event>
<event>
 4    1  0.1573232E-005  0.4169559E+03  0.7818608E-02  0.1038062E+00
          2   -1    0    0  501    0  0.00000000000E+00  0.00000000000E+00  0.24017473508E+04  0.24017473508E+04  0.25500000000E-02 0.  1.
         -2   -1    0    0    0  501 -0.00000000000E+00 -0.00000000000E+00 -0.18096432932E+02  0.18096433111E+02  0.25500000000E-02 0. -1.
    5000001    1    1    2    0    0 -0.77894493821E+02 -0.25669499275E+02  0.17578348341E+04  0.17674656374E+04  0.16500000000E+03 0.  0.
   -5000001    1    1    2    0    0  0.77894493821E+02  0.25669499275E+02  0.62581608370E+03  0.65237814646E+03  0.16500000000E+03 0.  0.
<mgrwt>
<rscale>  0 0.41695592E+03</rscale>
<asrwt>0</asrwt>
<pdfrwt beam="1">  1        2 0.36949949E+00 0.41695592E+03</pdfrwt>
<pdfrwt beam="2">  1       -2 0.27840674E-02 0.41695592E+03</pdfrwt>
<totfact> 0.21236048E+03</totfact>
</mgrwt>
</event>
<event>
 4    1  0.1573232E-005  0.1041179E+04  0.7818608E-02  0.9264499E-01
         -2   -1    0    0    0  501 -0.00000000000E+00  0.00000000000E+00  0.58434075161E+03  0.58434075162E+03  0.25500000000E-02 0. -1.
          2   -1    0    0  501    0  0.00000000000E+00 -0.00000000000E+00 -0.46379310353E+03  0.46379310354E+03  0.25500000000E-02 0.  1.
    5000001    1    1    2    0    0 -0.40441498463E+03 -0.28322964297E+03  0.56038550689E+02  0.52357982162E+03  0.16500000000E+03 0.  0.
   -5000001    1    1    2    0    0  0.40441498463E+03  0.28322964297E+03  0.64509097395E+02  0.52455403353E+03  0.16500000000E+03 0.  0.
<mgrwt>
<rscale>  0 0.10411786E+04</rscale>
<asrwt>0</asrwt>
<pdfrwt beam="1">  1        2 0.71352785E-01 0.10411786E+04</pdfrwt>
<pdfrwt beam="2">  1       -2 0.89898577E-01 0.10411786E+04</pdfrwt>
<totfact> 0.70946975E+01</totfact>
</mgrwt>
</event>
<event>
 4    1  0.1573232E-005  0.7688022E+03  0.7818608E-02  0.9606306E-01
          2   -1    0    0  501    0  0.00000000000E+00  0.00000000000E+00  0.91180363724E+03  0.91180363725E+03  0.25500000000E-02 0.  1.
         -2   -1    0    0    0  501 -0.00000000000E+00 -0.00000000000E+00 -0.16205703990E+03  0.16205703992E+03  0.25500000000E-02 0. -1.
    5000001    1    1    2    0    0  0.33760256369E+03 -0.31622143673E+02  0.47906113929E+03  0.60967206444E+03  0.16500000000E+03 0.  0.
   -5000001    1    1    2    0    0 -0.33760256369E+03  0.31622143673E+02  0.27068545805E+03  0.46418861272E+03  0.16500000000E+03 0.  0.
<mgrwt>
<rscale>  0 0.76880218E+03</rscale>
<asrwt>0</asrwt>
<pdfrwt beam="1">  1        2 0.14027748E+00 0.76880218E+03</pdfrwt>
<pdfrwt beam="2">  1       -2 0.24931852E-01 0.76880218E+03</pdfrwt>
<totfact> 0.41684635E+02</totfact>
</mgrwt>
</event>
<event>
 4    1  0.1573232E-005  0.5330265E+03  0.7818608E-02  0.1005501E+00
          2   -1    0    0  501    0  0.00000000000E+00  0.00000000000E+00  0.19357102319E+04  0.19357102319E+04  0.25500000000E-02 0.  1.
         -2   -1    0    0    0  501 -0.00000000000E+00 -0.00000000000E+00 -0.36694187730E+02  0.36694187819E+02  0.25500000000E-02 0. -1.
    5000001    1    1    2    0    0 -0.27333772388E+02 -0.34649793202E+02  0.19245031553E+03  0.25731278093E+03  0.16500000000E+03 0.  0.
   -5000001    1    1    2    0    0  0.27333772388E+02  0.34649793202E+02  0.17065657287E+04  0.17150916388E+04  0.16500000000E+03 0.  0.
<mgrwt>
<rscale>  0 0.53302651E+03</rscale>
<asrwt>0</asrwt>
<pdfrwt beam="1">  1        2 0.29780158E+00 0.53302651E+03</pdfrwt>
<pdfrwt beam="2">  1       -2 0.56452595E-02 0.53302651E+03</pdfrwt>
<totfact> 0.12810352E+03</totfact>
</mgrwt>
</event>
<event>
 4    1  0.1573232E-005  0.1329612E+04  0.7818608E-02  0.9006407E-01
          2   -1    0    0  501    0  0.00000000000E+00  0.00000000000E+00  0.36952767303E+04  0.36952767303E+04  0.25500000000E-02 0.  1.
         -2   -1    0    0    0  501 -0.00000000000E+00 -0.00000000000E+00 -0.11960320850E+03  0.11960320853E+03  0.25500000000E-02 0. -1.
    5000001    1    1    2    0    0  0.59848719117E+03  0.22153302278E+03  0.20359518720E+04  0.21399973886E+04  0.16500000000E+03 0.  0.
   -5000001    1    1    2    0    0 -0.59848719117E+03 -0.22153302278E+03  0.15397216498E+04  0.16748825503E+04  0.16500000000E+03 0.  0.
<mgrwt>
<rscale>  0 0.13296119E+04</rscale>
<asrwt>0</asrwt>
<pdfrwt beam="1">  1        2 0.56850404E+00 0.13296119E+04</pdfrwt>
<pdfrwt beam="2">  1       -2 0.18400496E-01 0.13296119E+04</pdfrwt>
<totfact> 0.14580632E+01</totfact>
</mgrwt>
</event>
<event>
 4    1  0.1573232E-005  0.5029053E+03  0.7818608E-02  0.1013023E+00
          2   -1    0    0  501    0  0.00000000000E+00  0.00000000000E+00  0.49300154550E+03  0.49300154550E+03  0.25500000000E-02 0.  1.
         -2   -1    0    0    0  501 -0.00000000000E+00 -0.00000000000E+00 -0.12825198729E+03  0.12825198732E+03  0.25500000000E-02 0. -1.
    5000001    1    1    2    0    0  0.12849611669E+03  0.26518121913E+02  0.35170485938E+03  0.41004362074E+03  0.16500000000E+03 0.  0.
   -5000001    1    1    2    0    0 -0.12849611669E+03 -0.26518121913E+02  0.13044698824E+02  0.21120991208E+03  0.16500000000E+03 0.  0.
<mgrwt>
<rscale>  0 0.50290527E+03</rscale>
<asrwt>0</asrwt>
<pdfrwt beam="1">  1        2 0.75846392E-01 0.50290527E+03</pdfrwt>
<pdfrwt beam="2">  1       -2 0.19731075E-01 0.50290527E+03</pdfrwt>
<totfact> 0.13674486E+03</totfact>
</mgrwt>
</event>
<event>
 4    1  0.1573232E-005  0.5990981E+03  0.7818608E-02  0.9907279E-01
         -2   -1    0    0    0  501 -0.00000000000E+00  0.00000000000E+00  0.30978995224E+02  0.30978995329E+02  0.25500000000E-02 0. -1.
          2   -1    0    0  501    0  0.00000000000E+00 -0.00000000000E+00 -0.28964669927E+04  0.28964669927E+04  0.25500000000E-02 0.  1.
    5000001    1    1    2    0    0 -0.78086217995E+02  0.23748444678E+03 -0.14468363803E+04  0.14775171171E+04  0.16500000000E+03 0.  0.
   -5000001    1    1    2    0    0  0.78086217995E+02 -0.23748444678E+03 -0.14186516171E+04  0.14499288709E+04  0.16500000000E+03 0.  0.
<mgrwt>
<rscale>  0 0.59909811E+03</rscale>
<asrwt>0</asrwt>
<pdfrwt beam="1">  1        2 0.44561009E+00 0.59909811E+03</pdfrwt>
<pdfrwt beam="2">  1       -2 0.47660015E-02 0.59909811E+03</pdfrwt>
<totfact> 0.47961581E+02</totfact>
</mgrwt>
</event>
<event>
 4    1  0.1573232E-005  0.1090799E+04  0.7818608E-02  0.9214206E-01
         -2   -1    0    0    0  501 -0.00000000000E+00  0.00000000000E+00  0.30598772938E+03  0.30598772939E+03  0.25500000000E-02 0. -1.
          2   -1    0    0  501    0  0.00000000000E+00 -0.00000000000E+00 -0.97213252285E+03  0.97213252286E+03  0.25500000000E-02 0.  1.
    5000001    1    1    2    0    0 -0.39904932600E+03  0.32932383410E+03 -0.39213810045E+03  0.66984464028E+03  0.16500000000E+03 0.  0.
   -5000001    1    1    2    0    0  0.39904932600E+03 -0.32932383410E+03 -0.27400669302E+03  0.60827561196E+03  0.16500000000E+03 0.  0.
<mgrwt>
<rscale>  0 0.10907990E+04</rscale>
<asrwt>0</asrwt>
<pdfrwt beam="1">  1        2 0.14955885E+00 0.10907990E+04</pdfrwt>
<pdfrwt beam="2">  1       -2 0.47075036E-01 0.10907990E+04</pdfrwt>
<totfact> 0.11153194E+02</totfact>
</mgrwt>
</event>
<event>
 4    1  0.1573232E-005  0.5837313E+03  0.7818608E-02  0.9939745E-01
          2   -1    0    0  501    0  0.00000000000E+00  0.00000000000E+00  0.11468718132E+04  0.11468718132E+04  0.25500000000E-02 0.  1.
         -2   -1    0    0    0  501 -0.00000000000E+00 -0.00000000000E+00 -0.74276449242E+02  0.74276449286E+02  0.25500000000E-02 0. -1.
    5000001    1    1    2    0    0 -0.21052538250E+03 -0.59843097062E+02  0.74610496489E+03  0.79485832170E+03  0.16500000000E+03 0.  0.
   -5000001    1    1    2    0    0  0.21052538250E+03  0.59843097062E+02  0.32649039912E+03  0.42628994084E+03  0.16500000000E+03 0.  0.
<mgrwt>
<rscale>  0 0.58373133E+03</rscale>
<asrwt>0</asrwt>
<pdfrwt beam="1">  1        2 0.17644181E+00 0.58373133E+03</pdfrwt>
<pdfrwt beam="2">  1       -2 0.11427147E-01 0.58373133E+03</pdfrwt>
<totfact> 0.11371651E+03</totfact>
</mgrwt>
</event>
<event>
 4    1  0.1573232E-005  0.4770067E+03  0.7818608E-02  0.1019961E+00
          2   -1    0    0  501    0  0.00000000000E+00  0.00000000000E+00  0.64880529332E+03  0.64880529332E+03  0.25500000000E-02 0.  1.
         -2   -1    0    0    0  501 -0.00000000000E+00 -0.00000000000E+00 -0.87674746201E+02  0.87674746238E+02  0.25500000000E-02 0. -1.
    5000001    1    1    2    0    0  0.10012943437E+03  0.13038284095E+03  0.20133655530E+03  0.30787497031E+03  0.16500000000E+03 0.  0.
   -5000001    1    1    2    0    0 -0.10012943437E+03 -0.13038284095E+03  0.35979399181E+03  0.42860506925E+03  0.16500000000E+03 0.  0.
<mgrwt>
<rscale>  0 0.47700666E+03</rscale>
<asrwt>0</asrwt>
<pdfrwt beam="1">  1        2 0.99816199E-01 0.47700666E+03</pdfrwt>
<pdfrwt beam="2">  1       -2 0.13488423E-01 0.47700666E+03</pdfrwt>
<totfact> 0.18855928E+03</totfact>
</mgrwt>
</event>
<event>
 4    1  0.1573232E-005  0.5012930E+03  0.7818608E-02  0.1013442E+00
         -2   -1    0    0    0  501 -0.00000000000E+00  0.00000000000E+00  0.14542087220E+03  0.14542087222E+03  0.25500000000E-02 0. -1.
          2   -1    0    0  501    0  0.00000000000E+00 -0.00000000000E+00 -0.43201268933E+03  0.43201268934E+03  0.25500000000E-02 0.  1.
    5000001    1    1    2    0    0 -0.16849523566E+03  0.84789901504E+02 -0.14827577842E+03  0.29118838972E+03  0.16500000000E+03 0.  0.
   -5000001    1    1    2    0    0  0.16849523566E+03 -0.84789901504E+02 -0.13831603871E+03  0.28624517184E+03  0.16500000000E+03 0.  0.
<mgrwt>
<rscale>  0 0.50129298E+03</rscale>
<asrwt>0</asrwt>
<pdfrwt beam="1">  1        2 0.66463490E-01 0.50129298E+03</pdfrwt>
<pdfrwt beam="2">  1       -2 0.22372442E-01 0.50129298E+03</pdfrwt>
<totfact> 0.12748846E+03</totfact>
</mgrwt>
</event>
<event>
 4    1  0.1573232E-005  0.4743194E+03  0.7818608E-02  0.1020708E+00
          2   -1    0    0  501    0  0.00000000000E+00  0.00000000000E+00  0.42958049053E+03  0.42958049054E+03  0.25500000000E-02 0.  1.
         -2   -1    0    0    0  501 -0.00000000000E+00 -0.00000000000E+00 -0.13092942766E+03  0.13092942768E+03  0.25500000000E-02 0. -1.
    5000001    1    1    2    0    0  0.10004326915E+03  0.78264330428E+02  0.28346838102E+03  0.35172899249E+03  0.16500000000E+03 0.  0.
   -5000001    1    1    2    0    0 -0.10004326915E+03 -0.78264330428E+02  0.15182681854E+02  0.20878092573E+03  0.16500000000E+03 0.  0.
<mgrwt>
<rscale>  0 0.47431942E+03</rscale>
<asrwt>0</asrwt>
<pdfrwt beam="1">  1        2 0.66089306E-01 0.47431942E+03</pdfrwt>
<pdfrwt beam="2">  1       -2 0.20142989E-01 0.47431942E+03</pdfrwt>
<totfact> 0.15412216E+03</totfact>
</mgrwt>
</event>
<event>
 4    1  0.1573232E-005  0.6269819E+03  0.7818608E-02  0.9850956E-01
          2   -1    0    0  501    0  0.00000000000E+00  0.00000000000E+00  0.14218073602E+04  0.14218073602E+04  0.25500000000E-02 0.  1.
         -2   -1    0    0    0  501 -0.00000000000E+00 -0.00000000000E+00 -0.69120873195E+02  0.69120873242E+02  0.25500000000E-02 0. -1.
    5000001    1    1    2    0    0 -0.78240988095E+02  0.19818863450E+03  0.10571945273E+04  0.10910021336E+04  0.16500000000E+03 0.  0.
   -5000001    1    1    2    0    0  0.78240988095E+02 -0.19818863450E+03  0.29549195977E+03  0.39992609986E+03  0.16500000000E+03 0.  0.
<mgrwt>
<rscale>  0 0.62698187E+03</rscale>
<asrwt>0</asrwt>
<pdfrwt beam="1">  1        2 0.21873957E+00 0.62698187E+03</pdfrwt>
<pdfrwt beam="2">  1       -2 0.10633982E-01 0.62698187E+03</pdfrwt>
<totfact> 0.88701707E+02</totfact>
</mgrwt>
</event>
<event>
 4    1  0.1573232E-005  0.5230327E+03  0.7818608E-02  0.1007936E+00
          2   -1    0    0  501    0  0.00000000000E+00  0.00000000000E+00  0.23669379038E+04  0.23669379038E+04  0.25500000000E-02 0.  1.
         -2   -1    0    0    0  501 -0.00000000000E+00 -0.00000000000E+00 -0.28894204663E+02  0.28894204776E+02  0.25500000000E-02 0. -1.
    5000001    1    1    2    0    0 -0.18916351261E+03 -0.63127298562E+02  0.99775814804E+03  0.10307833004E+04  0.16500000000E+03 0.  0.
   -5000001    1    1    2    0    0  0.18916351261E+03  0.63127298562E+02  0.13402855511E+04  0.13650488083E+04  0.16500000000E+03 0.  0.
<mgrwt>
<rscale>  0 0.52303265E+03</rscale>
<asrwt>0</asrwt>
<pdfrwt beam="1">  1        2 0.36414424E+00 0.52303265E+03</pdfrwt>
<pdfrwt beam="2">  1       -2 0.44452629E-02 0.52303265E+03</pdfrwt>
<totfact> 0.10811826E+03</totfact>
</mgrwt>
</event>
<event>
 4    1  0.1573232E-005  0.3920674E+03  0.7818608E-02  0.1046562E+00
          2   -1    0    0  501    0  0.00000000000E+00  0.00000000000E+00  0.20717077656E+04  0.20717077656E+04  0.25500000000E-02 0.  1.
         -2   -1    0    0    0  501 -0.00000000000E+00 -0.00000000000E+00 -0.18549529011E+02  0.18549529186E+02  0.25500000000E-02 0. -1.
    5000001    1    1    2    0    0 -0.72395962348E+01  0.92577808452E+02  0.12974391561E+04  0.13111813094E+04  0.16500000000E+03 0.  0.
   -5000001    1    1    2    0    0  0.72395962348E+01 -0.92577808452E+02  0.75571908047E+03  0.77907598536E+03  0.16500000000E+03 0.  0.
<mgrwt>
<rscale>  0 0.39206736E+03</rscale>
<asrwt>0</asrwt>
<pdfrwt beam="1">  1        2 0.31872444E+00 0.39206736E+03</pdfrwt>
<pdfrwt beam="2">  1       -2 0.28537722E-02 0.39206736E+03</pdfrwt>
<totfact> 0.30925314E+03</totfact>
</mgrwt>
</event>
<event>
 4    1  0.1573232E-005  0.1410917E+04  0.7818608E-02  0.8945954E-01
         -2   -1    0    0    0  501 -0.00000000000E+00  0.00000000000E+00  0.73321048331E+03  0.73321048331E+03  0.25500000000E-02 0. -1.
          2   -1    0    0  501    0  0.00000000000E+00 -0.00000000000E+00 -0.67875670206E+03  0.67875670206E+03  0.25500000000E-02 0.  1.
    5000001    1    1    2    0    0 -0.38270781850E+02  0.67490682528E+03 -0.88974387409E+02  0.70150218615E+03  0.16500000000E+03 0.  0.
   -5000001    1    1    2    0    0  0.38270781850E+02 -0.67490682528E+03  0.14342816866E+03  0.71046499922E+03  0.16500000000E+03 0.  0.
<mgrwt>
<rscale>  0 0.14109168E+04</rscale>
<asrwt>0</asrwt>
<pdfrwt beam="1">  1        2 0.10442411E+00 0.14109168E+04</pdfrwt>
<pdfrwt beam="2">  1       -2 0.11280161E+00 0.14109168E+04</pdfrwt>
<totfact> 0.25606019E+01</totfact>
</mgrwt>
</event>
<event>
 4    1  0.1573232E-005  0.3743490E+03  0.7818608E-02  0.1053042E+00
         -2   -1    0    0    0  501 -0.00000000000E+00  0.00000000000E+00  0.17086916835E+02  0.17086917025E+02  0.25500000000E-02 0. -1.
          2   -1    0    0  501    0  0.00000000000E+00 -0.00000000000E+00 -0.20503573610E+04  0.20503573610E+04  0.25500000000E-02 0.  1.
    5000001    1    1    2    0    0 -0.25740725666E+02 -0.84536940743E+02 -0.10191455056E+04  0.10361909288E+04  0.16500000000E+03 0.  0.
   -5000001    1    1    2    0    0  0.25740725666E+02  0.84536940743E+02 -0.10141249386E+04  0.10312533493E+04  0.16500000000E+03 0.  0.
<mgrwt>
<rscale>  0 0.37434896E+03</rscale>
<asrwt>0</asrwt>
<pdfrwt beam="1">  1        2 0.31543940E+00 0.37434896E+03</pdfrwt>
<pdfrwt beam="2">  1       -2 0.26287581E-02 0.37434896E+03</pdfrwt>
<totfact> 0.35931560E+03</totfact>
</mgrwt>
</event>
<event>
 4    1  0.1573232E-005  0.3747440E+03  0.7818608E-02  0.1052894E+00
          2   -1    0    0  501    0  0.00000000000E+00  0.00000000000E+00  0.78096288124E+03  0.78096288124E+03  0.25500000000E-02 0.  1.
         -2   -1    0    0    0  501 -0.00000000000E+00 -0.00000000000E+00 -0.44955090711E+02  0.44955090784E+02  0.25500000000E-02 0. -1.
    5000001    1    1    2    0    0 -0.62966851185E+02  0.49074694847E+02  0.28235807541E+03  0.33663664799E+03  0.16500000000E+03 0.  0.
   -5000001    1    1    2    0    0  0.62966851185E+02 -0.49074694847E+02  0.45364971512E+03  0.48928132404E+03  0.16500000000E+03 0.  0.
<mgrwt>
<rscale>  0 0.37474395E+03</rscale>
<asrwt>0</asrwt>
<pdfrwt beam="1">  1        2 0.12014813E+00 0.37474395E+03</pdfrwt>
<pdfrwt beam="2">  1       -2 0.69161678E-02 0.37474395E+03</pdfrwt>
<totfact> 0.43657289E+03</totfact>
</mgrwt>
</event>
<event>
 4    1  0.1573232E-005  0.5694728E+03  0.7818608E-02  0.9970846E-01
         -2   -1    0    0    0  501 -0.00000000000E+00  0.00000000000E+00  0.72971951432E+02  0.72971951476E+02  0.25500000000E-02 0.  1.
          2   -1    0    0  501    0  0.00000000000E+00 -0.00000000000E+00 -0.11110407294E+04  0.11110407294E+04  0.25500000000E-02 0. -1.
    5000001    1    1    2    0    0 -0.11993425407E+03  0.11996164250E+03 -0.84826638365E+03  0.88065650432E+03  0.16500000000E+03 0.  0.
   -5000001    1    1    2    0    0  0.11993425407E+03 -0.11996164250E+03 -0.18980239433E+03  0.30335617657E+03  0.16500000000E+03 0.  0.
<mgrwt>
<rscale>  0 0.56947277E+03</rscale>
<asrwt>0</asrwt>
<pdfrwt beam="1">  1        2 0.17092933E+00 0.56947277E+03</pdfrwt>
<pdfrwt beam="2">  1       -2 0.11226455E-01 0.56947277E+03</pdfrwt>
<totfact> 0.12305304E+03</totfact>
</mgrwt>
</event>
<event>
 4    1  0.1573232E-005  0.6449475E+03  0.7818608E-02  0.9816306E-01
         -2   -1    0    0    0  501 -0.00000000000E+00  0.00000000000E+00  0.15413770669E+03  0.15413770671E+03  0.25500000000E-02 0. -1.
          2   -1    0    0  501    0  0.00000000000E+00 -0.00000000000E+00 -0.67465200965E+03  0.67465200965E+03  0.25500000000E-02 0.  1.
    5000001    1    1    2    0    0  0.24490084227E+03  0.12946094208E+03 -0.25348705766E+03  0.41014295858E+03  0.16500000000E+03 0.  0.
   -5000001    1    1    2    0    0 -0.24490084227E+03 -0.12946094208E+03 -0.26702724529E+03  0.41864675778E+03  0.16500000000E+03 0.  0.
<mgrwt>
<rscale>  0 0.64494748E+03</rscale>
<asrwt>0</asrwt>
<pdfrwt beam="1">  1        2 0.10379261E+00 0.64494748E+03</pdfrwt>
<pdfrwt beam="2">  1       -2 0.23713494E-01 0.64494748E+03</pdfrwt>
<totfact> 0.68060201E+02</totfact>
</mgrwt>
</event>
<event>
 4    1  0.1573232E-005  0.8986611E+03  0.7818608E-02  0.9427257E-01
          2   -1    0    0  501    0  0.00000000000E+00  0.00000000000E+00  0.75142405274E+03  0.75142405275E+03  0.25500000000E-02 0. -1.
         -2   -1    0    0    0  501 -0.00000000000E+00 -0.00000000000E+00 -0.26868711277E+03  0.26868711278E+03  0.25500000000E-02 0.  1.
    5000001    1    1    2    0    0 -0.37104391208E+03  0.59376579005E+02  0.33683998385E+02  0.41177515050E+03  0.16500000000E+03 0.  0.
   -5000001    1    1    2    0    0  0.37104391208E+03 -0.59376579005E+02  0.44905294159E+03  0.60833601502E+03  0.16500000000E+03 0.  0.
<mgrwt>
<rscale>  0 0.89866114E+03</rscale>
<asrwt>0</asrwt>
<pdfrwt beam="1">  1        2 0.11560370E+00 0.89866114E+03</pdfrwt>
<pdfrwt beam="2">  1       -2 0.41336479E-01 0.89866114E+03</pdfrwt>
<totfact> 0.20791002E+02</totfact>
</mgrwt>
</event>
<event>
 4    1  0.1573232E-005  0.5018382E+03  0.7818608E-02  0.1013300E+00
         -2   -1    0    0    0  501 -0.00000000000E+00  0.00000000000E+00  0.17397156087E+02  0.17397156274E+02  0.25500000000E-02 0. -1.
          2   -1    0    0  501    0  0.00000000000E+00 -0.00000000000E+00 -0.36190048078E+04  0.36190048078E+04  0.25500000000E-02 0.  1.
    5000001    1    1    2    0    0  0.15010669302E+03 -0.18617639805E+02 -0.26224292675E+04  0.26319648361E+04  0.16500000000E+03 0.  0.
   -5000001    1    1    2    0    0 -0.15010669302E+03  0.18617639805E+02 -0.97917838422E+03  0.10044371279E+04  0.16500000000E+03 0.  0.
<mgrwt>
<rscale>  0 0.50183819E+03</rscale>
<asrwt>0</asrwt>
<pdfrwt beam="1">  1        2 0.55676937E+00 0.50183819E+03</pdfrwt>
<pdfrwt beam="2">  1       -2 0.26764884E-02 0.50183819E+03</pdfrwt>
<totfact> 0.40331575E+02</totfact>
</mgrwt>
</event>
<event>
 4    1  0.1573232E-005  0.3792212E+03  0.7818608E-02  0.1051222E+00
          2   -1    0    0  501    0  0.00000000000E+00  0.00000000000E+00  0.16295543911E+03  0.16295543913E+03  0.25500000000E-02 0.  1.
         -2   -1    0    0    0  501 -0.00000000000E+00 -0.00000000000E+00 -0.22062585019E+03  0.22062585020E+03  0.25500000000E-02 0. -1.
    5000001    1    1    2    0    0 -0.31527891588E+02  0.49232857200E+01 -0.11764523201E+03  0.20514299234E+03  0.16500000000E+03 0.  0.
   -5000001    1    1    2    0    0  0.31527891588E+02 -0.49232857200E+01  0.59974820924E+02  0.17843829700E+03  0.16500000000E+03 0.  0.
<mgrwt>
<rscale>  0 0.37922121E+03</rscale>
<asrwt>0</asrwt>
<pdfrwt beam="1">  1        2 0.25070068E-01 0.37922121E+03</pdfrwt>
<pdfrwt beam="2">  1       -2 0.33942438E-01 0.37922121E+03</pdfrwt>
<totfact> 0.17558219E+03</totfact>
</mgrwt>
</event>
<event>
 4    1  0.1573232E-005  0.4836214E+03  0.7818608E-02  0.1018145E+00
          2   -1    0    0  501    0  0.00000000000E+00  0.00000000000E+00  0.28042803546E+04  0.28042803546E+04  0.25500000000E-02 0.  1.
         -2   -1    0    0    0  501 -0.00000000000E+00 -0.00000000000E+00 -0.20851126231E+02  0.20851126386E+02  0.25500000000E-02 0. -1.
    5000001    1    1    2    0    0 -0.60593375018E+02 -0.16593363751E+03  0.13539131003E+04  0.13753222213E+04  0.16500000000E+03 0.  0.
   -5000001    1    1    2    0    0  0.60593375018E+02  0.16593363751E+03  0.14295161281E+04  0.14498092597E+04  0.16500000000E+03 0.  0.
<mgrwt>
<rscale>  0 0.48362136E+03</rscale>
<asrwt>0</asrwt>
<pdfrwt beam="1">  1        2 0.43142808E+00 0.48362136E+03</pdfrwt>
<pdfrwt beam="2">  1       -2 0.32078631E-02 0.48362136E+03</pdfrwt>
<totfact> 0.10091258E+03</totfact>
</mgrwt>
</event>
<event>
 4    1  0.1573232E-005  0.8132758E+03  0.7818608E-02  0.9540997E-01
         -2   -1    0    0    0  501 -0.00000000000E+00  0.00000000000E+00  0.80108381378E+02  0.80108381418E+02  0.25500000000E-02 0. -1.
          2   -1    0    0  501    0  0.00000000000E+00 -0.00000000000E+00 -0.20641334144E+04  0.20641334145E+04  0.25500000000E-02 0.  1.
    5000001    1    1    2    0    0 -0.14663506280E+03 -0.29847369908E+03 -0.55446449645E+03  0.66726626508E+03  0.16500000000E+03 0.  0.
   -5000001    1    1    2    0    0  0.14663506280E+03  0.29847369908E+03 -0.14295605366E+04  0.14769755308E+04  0.16500000000E+03 0.  0.
<mgrwt>
<rscale>  0 0.81327581E+03</rscale>
<asrwt>0</asrwt>
<pdfrwt beam="1">  1        2 0.31755895E+00 0.81327581E+03</pdfrwt>
<pdfrwt beam="2">  1       -2 0.12324368E-01 0.81327581E+03</pdfrwt>
<totfact> 0.30568185E+02</totfact>
</mgrwt>
</event>
<event>
 4    1  0.1573232E-005  0.5349386E+03  0.7818608E-02  0.1005041E+00
         -2   -1    0    0    0  501 -0.00000000000E+00  0.00000000000E+00  0.12216029169E+03  0.12216029171E+03  0.25500000000E-02 0. -1.
          2   -1    0    0  501    0  0.00000000000E+00 -0.00000000000E+00 -0.58562256504E+03  0.58562256504E+03  0.25500000000E-02 0.  1.
    5000001    1    1    2    0    0  0.18152748133E+03 -0.25973299147E+02 -0.36851788388E+03  0.44346056137E+03  0.16500000000E+03 0.  0.
   -5000001    1    1    2    0    0 -0.18152748133E+03  0.25973299147E+02 -0.94944389466E+02  0.26432229539E+03  0.16500000000E+03 0.  0.
<mgrwt>
<rscale>  0 0.53493859E+03</rscale>
<asrwt>0</asrwt>
<pdfrwt beam="1">  1        2 0.90095778E-01 0.53493859E+03</pdfrwt>
<pdfrwt beam="2">  1       -2 0.18793891E-01 0.53493859E+03</pdfrwt>
<totfact> 0.12173428E+03</totfact>
</mgrwt>
</event>
<event>
 4    1  0.1573232E-005  0.4718625E+03  0.7818608E-02  0.1021396E+00
          2   -1    0    0  501    0  0.00000000000E+00  0.00000000000E+00  0.10975884960E+04  0.10975884960E+04  0.25500000000E-02 0.  1.
         -2   -1    0    0    0  501 -0.00000000000E+00 -0.00000000000E+00 -0.50714406571E+02  0.50714406635E+02  0.25500000000E-02 0. -1.
    5000001    1    1    2    0    0  0.83003196158E+02 -0.14072604415E+03  0.62510018534E+03  0.66683475599E+03  0.16500000000E+03 0.  0.
   -5000001    1    1    2    0    0 -0.83003196158E+02  0.14072604415E+03  0.42177390412E+03  0.48146814669E+03  0.16500000000E+03 0.  0.
<mgrwt>
<rscale>  0 0.47186248E+03</rscale>
<asrwt>0</asrwt>
<pdfrwt beam="1">  1        2 0.16885976E+00 0.47186248E+03</pdfrwt>
<pdfrwt beam="2">  1       -2 0.78022170E-02 0.47186248E+03</pdfrwt>
<totfact> 0.22550275E+03</totfact>
</mgrwt>
</event>
<event>
 4    1  0.1573232E-005  0.4126744E+03  0.7818608E-02  0.1039477E+00
          2   -1    0    0  501    0  0.00000000000E+00  0.00000000000E+00  0.12350949554E+03  0.12350949556E+03  0.25500000000E-02 0.  1.
         -2   -1    0    0    0  501 -0.00000000000E+00 -0.00000000000E+00 -0.34471066355E+03  0.34471066356E+03  0.25500000000E-02 0. -1.
    5000001    1    1    2    0    0  0.76014156170E+02  0.77087872280E+02 -0.17895347633E+03  0.26640202455E+03  0.16500000000E+03 0.  0.
   -5000001    1    1    2    0    0 -0.76014156170E+02 -0.77087872280E+02 -0.42247691676E+02  0.20181813457E+03  0.16500000000E+03 0.  0.
<mgrwt>
<rscale>  0 0.41267440E+03</rscale>
<asrwt>0</asrwt>
<pdfrwt beam="1">  1        2 0.19001461E-01 0.41267440E+03</pdfrwt>
<pdfrwt beam="2">  1       -2 0.53032409E-01 0.41267440E+03</pdfrwt>
<totfact> 0.10121976E+03</totfact>
</mgrwt>
</event>
<event>
 4    1  0.1573232E-005  0.4489916E+03  0.7818608E-02  0.1028023E+00
          2   -1    0    0  501    0  0.00000000000E+00  0.00000000000E+00  0.35480260998E+03  0.35480260999E+03  0.25500000000E-02 0.  1.
         -2   -1    0    0    0  501 -0.00000000000E+00 -0.00000000000E+00 -0.14204619213E+03  0.14204619215E+03  0.25500000000E-02 0. -1.
    5000001    1    1    2    0    0  0.10676826767E+03  0.37642158936E+02  0.21899477910E+03  0.29664812217E+03  0.16500000000E+03 0.  0.
   -5000001    1    1    2    0    0 -0.10676826767E+03 -0.37642158936E+02 -0.62383612482E+01  0.20020067997E+03  0.16500000000E+03 0.  0.
<mgrwt>
<rscale>  0 0.44899158E+03</rscale>
<asrwt>0</asrwt>
<pdfrwt beam="1">  1        2 0.54585016E-01 0.44899158E+03</pdfrwt>
<pdfrwt beam="2">  1       -2 0.21853261E-01 0.44899158E+03</pdfrwt>
<totfact> 0.16520128E+03</totfact>
</mgrwt>
</event>
<event>
 4    1  0.1573232E-005  0.3874058E+03  0.7818608E-02  0.1048230E+00
          2   -1    0    0  501    0  0.00000000000E+00  0.00000000000E+00  0.77434532045E+03  0.77434532046E+03  0.25500000000E-02 0.  1.
         -2   -1    0    0    0  501 -0.00000000000E+00 -0.00000000000E+00 -0.48454889064E+02  0.48454889131E+02  0.25500000000E-02 0. -1.
    5000001    1    1    2    0    0  0.88328692953E+02  0.48958372955E+02  0.38385606077E+03  0.42984806115E+03  0.16500000000E+03 0.  0.
   -5000001    1    1    2    0    0 -0.88328692953E+02 -0.48958372955E+02  0.34203437062E+03  0.39295214844E+03  0.16500000000E+03 0.  0.
<mgrwt>
<rscale>  0 0.38740582E+03</rscale>
<asrwt>0</asrwt>
<pdfrwt beam="1">  1        2 0.11913003E+00 0.38740582E+03</pdfrwt>
<pdfrwt beam="2">  1       -2 0.74545995E-02 0.38740582E+03</pdfrwt>
<totfact> 0.39265551E+03</totfact>
</mgrwt>
</event>
<event>
 4    1  0.1573232E-005  0.2006279E+04  0.7818608E-02  0.8603691E-01
          2   -1    0    0  501    0  0.00000000000E+00  0.00000000000E+00  0.24734121594E+04  0.24734121594E+04  0.25500000000E-02 0.  1.
         -2   -1    0    0    0  501 -0.00000000000E+00 -0.00000000000E+00 -0.40684232992E+03  0.40684232993E+03  0.25500000000E-02 0. -1.
    5000001    1    1    2    0    0  0.37003203957E+03 -0.31980165870E+03 -0.20157123703E+03  0.55412342922E+03  0.16500000000E+03 0.  0.
   -5000001    1    1    2    0    0 -0.37003203957E+03  0.31980165870E+03  0.22681410665E+04  0.23261310601E+04  0.16500000000E+03 0.  0.
<mgrwt>
<rscale>  0 0.20062789E+04</rscale>
<asrwt>0</asrwt>
<pdfrwt beam="1">  1        2 0.38052495E+00 0.20062789E+04</pdfrwt>
<pdfrwt beam="2">  1       -2 0.62591127E-01 0.20062789E+04</pdfrwt>
<totfact> 0.79322003E+00</totfact>
</mgrwt>
</event>
<event>
 4    1  0.1573232E-005  0.9083357E+03  0.7818608E-02  0.9415221E-01
         -2   -1    0    0    0  501 -0.00000000000E+00  0.00000000000E+00  0.64522963627E+02  0.64522963677E+02  0.25500000000E-02 0. -1.
          2   -1    0    0  501    0  0.00000000000E+00 -0.00000000000E+00 -0.31968218458E+04  0.31968218458E+04  0.25500000000E-02 0.  1.
    5000001    1    1    2    0    0 -0.30008607779E+03  0.58411845358E+02 -0.26165042801E+04  0.26394664699E+04  0.16500000000E+03 0.  0.
   -5000001    1    1    2    0    0  0.30008607779E+03 -0.58411845358E+02 -0.51579460211E+03  0.62187833965E+03  0.16500000000E+03 0.  0.
<mgrwt>
<rscale>  0 0.90833566E+03</rscale>
<asrwt>0</asrwt>
<pdfrwt beam="1">  1        2 0.49181862E+00 0.90833566E+03</pdfrwt>
<pdfrwt beam="2">  1       -2 0.99266123E-02 0.90833566E+03</pdfrwt>
<totfact> 0.94379703E+01</totfact>
</mgrwt>
</event>
<event>
 4    1  0.1573232E-005  0.4600230E+03  0.7818608E-02  0.1024775E+00
          2   -1    0    0  501    0  0.00000000000E+00  0.00000000000E+00  0.22335864834E+04  0.22335864834E+04  0.25500000000E-02 0.  1.
         -2   -1    0    0    0  501 -0.00000000000E+00 -0.00000000000E+00 -0.23686247864E+02  0.23686248001E+02  0.25500000000E-02 0. -1.
    5000001    1    1    2    0    0 -0.68726232375E+02  0.13092621984E+03  0.80186150958E+03  0.83190855904E+03  0.16500000000E+03 0.  0.
   -5000001    1    1    2    0    0  0.68726232375E+02 -0.13092621984E+03  0.14080387259E+04  0.14253641723E+04  0.16500000000E+03 0.  0.
<mgrwt>
<rscale>  0 0.46002297E+03</rscale>
<asrwt>0</asrwt>
<pdfrwt beam="1">  1        2 0.34362878E+00 0.46002297E+03</pdfrwt>
<pdfrwt beam="2">  1       -2 0.36440372E-02 0.46002297E+03</pdfrwt>
<totfact> 0.17417841E+03</totfact>
</mgrwt>
</event>
<event>
 4    1  0.1573232E-005  0.4571299E+03  0.7818608E-02  0.1025617E+00
          2   -1    0    0  501    0  0.00000000000E+00  0.00000000000E+00  0.20586568875E+04  0.20586568875E+04  0.25500000000E-02 0. -1.
         -2   -1    0    0    0  501 -0.00000000000E+00 -0.00000000000E+00 -0.25376704543E+02  0.25376704672E+02  0.25500000000E-02 0.  1.
    5000001    1    1    2    0    0 -0.13809837287E+03 -0.38197240703E+02  0.71126720492E+03  0.74408079305E+03  0.16500000000E+03 0.  0.
   -5000001    1    1    2    0    0  0.13809837287E+03  0.38197240703E+02  0.13220129780E+04  0.13399527991E+04  0.16500000000E+03 0.  0.
<mgrwt>
<rscale>  0 0.45712986E+03</rscale>
<asrwt>0</asrwt>
<pdfrwt beam="1">  1        2 0.31671658E+00 0.45712986E+03</pdfrwt>
<pdfrwt beam="2">  1       -2 0.39041067E-02 0.45712986E+03</pdfrwt>
<totfact> 0.19498615E+03</totfact>
</mgrwt>
</event>
<event>
 4    1  0.1573232E-005  0.5565253E+03  0.7818608E-02  0.9999948E-01
         -2   -1    0    0    0  501 -0.00000000000E+00  0.00000000000E+00  0.53480755667E+02  0.53480755728E+02  0.25500000000E-02 0. -1.
          2   -1    0    0  501    0  0.00000000000E+00 -0.00000000000E+00 -0.14478121870E+04  0.14478121870E+04  0.25500000000E-02 0.  1.
    5000001    1    1    2    0    0 -0.19868694556E+03  0.88244453897E+02 -0.84347277431E+03  0.88652969888E+03  0.16500000000E+03 0.  0.
   -5000001    1    1    2    0    0  0.19868694556E+03 -0.88244453897E+02 -0.55085865702E+03  0.61476324385E+03  0.16500000000E+03 0.  0.
<mgrwt>
<rscale>  0 0.55652526E+03</rscale>
<asrwt>0</asrwt>
<pdfrwt beam="1">  1        2 0.22274031E+00 0.55652526E+03</pdfrwt>
<pdfrwt beam="2">  1       -2 0.82278097E-02 0.55652526E+03</pdfrwt>
<totfact> 0.13014009E+03</totfact>
</mgrwt>
</event>
<event>
 4    1  0.1573232E-005  0.3964427E+03  0.7818608E-02  0.1045018E+00
          2   -1    0    0  501    0  0.00000000000E+00  0.00000000000E+00  0.23169081624E+04  0.23169081624E+04  0.25500000000E-02 0.  1.
         -2   -1    0    0    0  501 -0.00000000000E+00 -0.00000000000E+00 -0.16958682302E+02  0.16958682494E+02  0.25500000000E-02 0. -1.
    5000001    1    1    2    0    0 -0.65838556279E+02 -0.25397706360E+02  0.16455679199E+04  0.16553242999E+04  0.16500000000E+03 0.  0.
   -5000001    1    1    2    0    0  0.65838556279E+02  0.25397706360E+02  0.65438156021E+03  0.67854254496E+03  0.16500000000E+03 0.  0.
<mgrwt>
<rscale>  0 0.39644273E+03</rscale>
<asrwt>0</asrwt>
<pdfrwt beam="1">  1        2 0.35644743E+00 0.39644273E+03</pdfrwt>
<pdfrwt beam="2">  1       -2 0.26090279E-02 0.39644273E+03</pdfrwt>
<totfact> 0.26085522E+03</totfact>
</mgrwt>
</event>
<event>
 4    1  0.1573232E-005  0.4394446E+03  0.7818608E-02  0.1030917E+00
         -2   -1    0    0    0  501 -0.00000000000E+00  0.00000000000E+00  0.24612455805E+02  0.24612455937E+02  0.25500000000E-02 0. -1.
          2   -1    0    0  501    0  0.00000000000E+00 -0.00000000000E+00 -0.19615223091E+04  0.19615223091E+04  0.25500000000E-02 0.  1.
    5000001    1    1    2    0    0 -0.11320384739E+02 -0.73048854547E+02 -0.15327523973E+04  0.15433791490E+04  0.16500000000E+03 0.  0.
   -5000001    1    1    2    0    0  0.11320384739E+02  0.73048854547E+02 -0.40415745598E+03  0.44275561598E+03  0.16500000000E+03 0.  0.
<mgrwt>
<rscale>  0 0.43944456E+03</rscale>
<asrwt>0</asrwt>
<pdfrwt beam="1">  1        2 0.30177254E+00 0.43944456E+03</pdfrwt>
<pdfrwt beam="2">  1       -2 0.37865332E-02 0.43944456E+03</pdfrwt>
<totfact> 0.23052610E+03</totfact>
</mgrwt>
</event>
<event>
 4    1  0.1573232E-005  0.5225669E+03  0.7818608E-02  0.1008051E+00
          2   -1    0    0  501    0  0.00000000000E+00  0.00000000000E+00  0.34683200541E+04  0.34683200541E+04  0.25500000000E-02 0.  1.
         -2   -1    0    0    0  501 -0.00000000000E+00 -0.00000000000E+00 -0.19683601571E+02  0.19683601736E+02  0.25500000000E-02 0. -1.
    5000001    1    1    2    0    0 -0.52719407052E+02 -0.18911100413E+03  0.13904657179E+04  0.14139173315E+04  0.16500000000E+03 0.  0.
   -5000001    1    1    2    0    0  0.52719407052E+02  0.18911100413E+03  0.20581707347E+04  0.20740863243E+04  0.16500000000E+03 0.  0.
<mgrwt>
<rscale>  0 0.52256686E+03</rscale>
<asrwt>0</asrwt>
<pdfrwt beam="1">  1        2 0.53358744E+00 0.52256686E+03</pdfrwt>
<pdfrwt beam="2">  1       -2 0.30282479E-02 0.52256686E+03</pdfrwt>
<totfact> 0.42280520E+02</totfact>
</mgrwt>
</event>
<event>
 4    1  0.1573232E-005  0.6270150E+03  0.7818608E-02  0.9850891E-01
          2   -1    0    0  501    0  0.00000000000E+00  0.00000000000E+00  0.55817997361E+03  0.55817997361E+03  0.25500000000E-02 0.  1.
         -2   -1    0    0    0  501 -0.00000000000E+00 -0.00000000000E+00 -0.17608472216E+03  0.17608472218E+03  0.25500000000E-02 0. -1.
    5000001    1    1    2    0    0 -0.21869471479E+03  0.41395615458E+02  0.19254487126E+02  0.27773496455E+03  0.16500000000E+03 0.  0.
   -5000001    1    1    2    0    0  0.21869471479E+03 -0.41395615458E+02  0.36284076432E+03  0.45652973124E+03  0.16500000000E+03 0.  0.
<mgrwt>
<rscale>  0 0.62701504E+03</rscale>
<asrwt>0</asrwt>
<pdfrwt beam="1">  1        2 0.85873841E-01 0.62701504E+03</pdfrwt>
<pdfrwt beam="2">  1       -2 0.27089958E-01 0.62701504E+03</pdfrwt>
<totfact> 0.67353649E+02</totfact>
</mgrwt>
</event>
<event>
 4    1  0.1573232E-005  0.4981672E+03  0.7818608E-02  0.1014258E+00
          2   -1    0    0  501    0  0.00000000000E+00  0.00000000000E+00  0.12479420948E+04  0.12479420948E+04  0.25500000000E-02 0.  1.
         -2   -1    0    0    0  501 -0.00000000000E+00 -0.00000000000E+00 -0.49715963834E+02  0.49715963899E+02  0.25500000000E-02 0. -1.
    5000001    1    1    2    0    0  0.96243534520E+02  0.15252297178E+03  0.72380880504E+03  0.76397006558E+03  0.16500000000E+03 0.  0.
   -5000001    1    1    2    0    0 -0.96243534520E+02 -0.15252297178E+03  0.47441732591E+03  0.53368799310E+03  0.16500000000E+03 0.  0.
<mgrwt>
<rscale>  0 0.49816722E+03</rscale>
<asrwt>0</asrwt>
<pdfrwt beam="1">  1        2 0.19199110E+00 0.49816722E+03</pdfrwt>
<pdfrwt beam="2">  1       -2 0.76486097E-02 0.49816722E+03</pdfrwt>
<totfact> 0.18980075E+03</totfact>
</mgrwt>
</event>
<event>
 4    1  0.1573232E-005  0.4423449E+03  0.7818608E-02  0.1030030E+00
         -2   -1    0    0    0  501 -0.00000000000E+00  0.00000000000E+00  0.47502018270E+02  0.47502018338E+02  0.25500000000E-02 0. -1.
          2   -1    0    0  501    0  0.00000000000E+00 -0.00000000000E+00 -0.10297933326E+04  0.10297933326E+04  0.25500000000E-02 0.  1.
    5000001    1    1    2    0    0  0.59341234022E+02  0.12079927583E+03 -0.34545924369E+03  0.40580898973E+03  0.16500000000E+03 0.  0.
   -5000001    1    1    2    0    0 -0.59341234022E+02 -0.12079927583E+03 -0.63683207068E+03  0.67148636125E+03  0.16500000000E+03 0.  0.
<mgrwt>
<rscale>  0 0.44234494E+03</rscale>
<asrwt>0</asrwt>
<pdfrwt beam="1">  1        2 0.15842973E+00 0.44234494E+03</pdfrwt>
<pdfrwt beam="2">  1       -2 0.73080036E-02 0.44234494E+03</pdfrwt>
<totfact> 0.27501004E+03</totfact>
</mgrwt>
</event>
<event>
 4    1  0.1573232E-005  0.7414440E+03  0.7818608E-02  0.9648870E-01
          2   -1    0    0  501    0  0.00000000000E+00  0.00000000000E+00  0.15682928270E+04  0.15682928270E+04  0.25500000000E-02 0.  1.
         -2   -1    0    0    0  501 -0.00000000000E+00 -0.00000000000E+00 -0.87633385594E+02  0.87633385631E+02  0.25500000000E-02 0. -1.
    5000001    1    1    2    0    0 -0.31847759891E+02  0.18966131652E+03  0.13597811759E+03  0.28757736917E+03  0.16500000000E+03 0.  0.
   -5000001    1    1    2    0    0  0.31847759891E+02 -0.18966131652E+03  0.13446813238E+04  0.13683488434E+04  0.16500000000E+03 0.  0.
<mgrwt>
<rscale>  0 0.74144402E+03</rscale>
<asrwt>0</asrwt>
<pdfrwt beam="1">  1        2 0.24127581E+00 0.74144402E+03</pdfrwt>
<pdfrwt beam="2">  1       -2 0.13482060E-01 0.74144402E+03</pdfrwt>
<totfact> 0.49404479E+02</totfact>
</mgrwt>
</event>
<event>
 4    1  0.1573232E-005  0.4164253E+03  0.7818608E-02  0.1038236E+00
          2   -1    0    0  501    0  0.00000000000E+00  0.00000000000E+00  0.43479493812E+03  0.43479493812E+03  0.25500000000E-02 0.  1.
         -2   -1    0    0    0  501 -0.00000000000E+00 -0.00000000000E+00 -0.99707936679E+02  0.99707936712E+02  0.25500000000E-02 0. -1.
    5000001    1    1    2    0    0 -0.55899810434E+02  0.10831066023E+03  0.12177420359E+03  0.23855805286E+03  0.16500000000E+03 0.  0.
   -5000001    1    1    2    0    0  0.55899810434E+02 -0.10831066023E+03  0.21331279785E+03  0.29594482197E+03  0.16500000000E+03 0.  0.
<mgrwt>
<rscale>  0 0.41642529E+03</rscale>
<asrwt>0</asrwt>
<pdfrwt beam="1">  1        2 0.66891528E-01 0.41642529E+03</pdfrwt>
<pdfrwt beam="2">  1       -2 0.15339683E-01 0.41642529E+03</pdfrwt>
<totfact> 0.24160995E+03</totfact>
</mgrwt>
</event>
<event>
 4    1  0.1573232E-005  0.4822102E+03  0.7818608E-02  0.1018530E+00
          2   -1    0    0  501    0  0.00000000000E+00  0.00000000000E+00  0.27944410020E+03  0.27944410022E+03  0.25500000000E-02 0.  1.
         -2   -1    0    0    0  501 -0.00000000000E+00 -0.00000000000E+00 -0.20802609453E+03  0.20802609455E+03  0.25500000000E-02 0. -1.
    5000001    1    1    2    0    0 -0.10709159290E+03 -0.14709031025E+01  0.17664240282E+03  0.26438288768E+03  0.16500000000E+03 0.  0.
   -5000001    1    1    2    0    0  0.10709159290E+03  0.14709031025E+01 -0.10522439715E+03  0.22308730708E+03  0.16500000000E+03 0.  0.
<mgrwt>
<rscale>  0 0.48221018E+03</rscale>
<asrwt>0</asrwt>
<pdfrwt beam="1">  1        2 0.42991400E-01 0.48221018E+03</pdfrwt>
<pdfrwt beam="2">  1       -2 0.32004015E-01 0.48221018E+03</pdfrwt>
<totfact> 0.10793472E+03</totfact>
</mgrwt>
</event>
<event>
 4    1  0.1573232E-005  0.5740741E+03  0.7818608E-02  0.9960703E-01
         -2   -1    0    0    0  501 -0.00000000000E+00  0.00000000000E+00  0.75741337114E+03  0.75741337114E+03  0.25500000000E-02 0. -1.
          2   -1    0    0  501    0  0.00000000000E+00 -0.00000000000E+00 -0.10877848116E+03  0.10877848119E+03  0.25500000000E-02 0.  1.
    5000001    1    1    2    0    0 -0.46079276548E+02 -0.14163699768E+03  0.59833451383E+03  0.63828953405E+03  0.16500000000E+03 0.  0.
   -5000001    1    1    2    0    0  0.46079276548E+02  0.14163699768E+03  0.50300376147E+02  0.22790231829E+03  0.16500000000E+03 0.  0.
<mgrwt>
<rscale>  0 0.57407413E+03</rscale>
<asrwt>0</asrwt>
<pdfrwt beam="1">  1        2 0.16735152E-01 0.57407413E+03</pdfrwt>
<pdfrwt beam="2">  1       -2 0.11652513E+00 0.57407413E+03</pdfrwt>
<totfact> 0.20326967E+02</totfact>
</mgrwt>
</event>
<event>
 4    1  0.1573232E-005  0.3721044E+03  0.7818608E-02  0.1053891E+00
          2   -1    0    0  501    0  0.00000000000E+00  0.00000000000E+00  0.85298849889E+03  0.85298849889E+03  0.25500000000E-02 0.  1.
         -2   -1    0    0    0  501 -0.00000000000E+00 -0.00000000000E+00 -0.40581350437E+02  0.40581350517E+02  0.25500000000E-02 0. -1.
    5000001    1    1    2    0    0 -0.61292586617E+02  0.47980582369E+02  0.31857706158E+03  0.36711750384E+03  0.16500000000E+03 0.  0.
   -5000001    1    1    2    0    0  0.61292586617E+02 -0.47980582369E+02  0.49383008687E+03  0.52645234557E+03  0.16500000000E+03 0.  0.
<mgrwt>
<rscale>  0 0.37210442E+03</rscale>
<asrwt>0</asrwt>
<pdfrwt beam="1">  1        2 0.13122898E+00 0.37210442E+03</pdfrwt>
<pdfrwt beam="2">  1       -2 0.62432858E-02 0.37210442E+03</pdfrwt>
<totfact> 0.45640040E+03</totfact>
</mgrwt>
</event>
<event>
 4    1  0.1573232E-005  0.1296529E+04  0.7818608E-02  0.9032323E-01
         -2   -1    0    0    0  501 -0.00000000000E+00  0.00000000000E+00  0.55138297560E+03  0.55138297561E+03  0.25500000000E-02 0. -1.
          2   -1    0    0  501    0  0.00000000000E+00 -0.00000000000E+00 -0.76216819505E+03  0.76216819505E+03  0.25500000000E-02 0.  1.
    5000001    1    1    2    0    0  0.45109262731E+03 -0.40918450766E+03  0.45237100224E+02  0.63260407441E+03  0.16500000000E+03 0.  0.
   -5000001    1    1    2    0    0 -0.45109262731E+03  0.40918450766E+03 -0.25602231967E+03  0.68094709625E+03  0.16500000000E+03 0.  0.
<mgrwt>
<rscale>  0 0.12965285E+04</rscale>
<asrwt>0</asrwt>
<pdfrwt beam="1">  1        2 0.11725665E+00 0.12965285E+04</pdfrwt>
<pdfrwt beam="2">  1       -2 0.84828150E-01 0.12965285E+04</pdfrwt>
<totfact> 0.43597716E+01</totfact>
</mgrwt>
</event>
<event>
 4    1  0.1573232E-005  0.9285231E+03  0.7818608E-02  0.9390612E-01
          2   -1    0    0  501    0  0.00000000000E+00  0.00000000000E+00  0.10662363057E+04  0.10662363057E+04  0.25500000000E-02 0.  1.
         -2   -1    0    0    0  501 -0.00000000000E+00 -0.00000000000E+00 -0.20214918776E+03  0.20214918778E+03  0.25500000000E-02 0. -1.
    5000001    1    1    2    0    0 -0.24103617206E+03 -0.31935809345E+03  0.20254420072E+03  0.47784639931E+03  0.16500000000E+03 0.  0.
   -5000001    1    1    2    0    0  0.24103617206E+03  0.31935809345E+03  0.66154291726E+03  0.79053909420E+03  0.16500000000E+03 0.  0.
<mgrwt>
<rscale>  0 0.92852314E+03</rscale>
<asrwt>0</asrwt>
<pdfrwt beam="1">  1        2 0.16403635E+00 0.92852314E+03</pdfrwt>
<pdfrwt beam="2">  1       -2 0.31099875E-01 0.92852314E+03</pdfrwt>
<totfact> 0.21919163E+02</totfact>
</mgrwt>
</event>
<event>
 4    1  0.1573232E-005  0.4862733E+03  0.7818608E-02  0.1017425E+00
          2   -1    0    0  501    0  0.00000000000E+00  0.00000000000E+00  0.60630661639E+03  0.60630661640E+03  0.25500000000E-02 0.  1.
         -2   -1    0    0    0  501 -0.00000000000E+00 -0.00000000000E+00 -0.97500869386E+02  0.97500869419E+02  0.25500000000E-02 0. -1.
    5000001    1    1    2    0    0  0.13236814891E+03  0.11981806834E+03  0.25956605538E+03  0.35563637813E+03  0.16500000000E+03 0.  0.
   -5000001    1    1    2    0    0 -0.13236814891E+03 -0.11981806834E+03  0.24923969163E+03  0.34817110769E+03  0.16500000000E+03 0.  0.
<mgrwt>
<rscale>  0 0.48627327E+03</rscale>
<asrwt>0</asrwt>
<pdfrwt beam="1">  1        2 0.93277941E-01 0.48627327E+03</pdfrwt>
<pdfrwt beam="2">  1       -2 0.15000134E-01 0.48627327E+03</pdfrwt>
<totfact> 0.17138087E+03</totfact>
</mgrwt>
</event>
<event>
 4    1  0.1573232E-005  0.5301091E+03  0.7818608E-02  0.1006206E+00
         -2   -1    0    0    0  501 -0.00000000000E+00  0.00000000000E+00  0.35858170764E+03  0.35858170765E+03  0.25500000000E-02 0. -1.
          2   -1    0    0  501    0  0.00000000000E+00 -0.00000000000E+00 -0.19592166425E+03  0.19592166427E+03  0.25500000000E-02 0.  1.
    5000001    1    1    2    0    0 -0.20695853680E+03 -0.67845854400E+01  0.68473860272E+02  0.27348041263E+03  0.16500000000E+03 0.  0.
   -5000001    1    1    2    0    0  0.20695853680E+03  0.67845854400E+01  0.94186183120E+02  0.28102295928E+03  0.16500000000E+03 0.  0.
<mgrwt>
<rscale>  0 0.53010914E+03</rscale>
<asrwt>0</asrwt>
<pdfrwt beam="1">  1        2 0.30141795E-01 0.53010914E+03</pdfrwt>
<pdfrwt beam="2">  1       -2 0.55166417E-01 0.53010914E+03</pdfrwt>
<totfact> 0.55112863E+02</totfact>
</mgrwt>
</event>
<event>
 4    1  0.1573232E-005  0.4150814E+03  0.7818608E-02  0.1038679E+00
          2   -1    0    0  501    0  0.00000000000E+00  0.00000000000E+00  0.29151828702E+03  0.29151828703E+03  0.25500000000E-02 0.  1.
         -2   -1    0    0    0  501 -0.00000000000E+00 -0.00000000000E+00 -0.14775453105E+03  0.14775453107E+03  0.25500000000E-02 0. -1.
    5000001    1    1    2    0    0 -0.12399298967E+03 -0.20184996801E+02  0.80508797896E+02  0.22245979889E+03  0.16500000000E+03 0.  0.
   -5000001    1    1    2    0    0  0.12399298967E+03  0.20184996801E+02  0.63254958073E+02  0.21681301922E+03  0.16500000000E+03 0.  0.
<mgrwt>
<rscale>  0 0.41508143E+03</rscale>
<asrwt>0</asrwt>
<pdfrwt beam="1">  1        2 0.44848968E-01 0.41508143E+03</pdfrwt>
<pdfrwt beam="2">  1       -2 0.22731466E-01 0.41508143E+03</pdfrwt>
<totfact> 0.19103324E+03</totfact>
</mgrwt>
</event>
<event>
 4    1  0.1573232E-005  0.4235966E+03  0.7818608E-02  0.1035902E+00
         -2   -1    0    0    0  501 -0.00000000000E+00  0.00000000000E+00  0.13287547683E+02  0.13287547928E+02  0.25500000000E-02 0. -1.
          2   -1    0    0  501    0  0.00000000000E+00 -0.00000000000E+00 -0.33759814658E+04  0.33759814658E+04  0.25500000000E-02 0.  1.
    5000001    1    1    2    0    0 -0.12831329945E+03  0.31913801450E+02 -0.17795763210E+04  0.17920936571E+04  0.16500000000E+03 0.  0.
   -5000001    1    1    2    0    0  0.12831329945E+03 -0.31913801450E+02 -0.15831175972E+04  0.15971753567E+04  0.16500000000E+03 0.  0.
<mgrwt>
<rscale>  0 0.42359658E+03</rscale>
<asrwt>0</asrwt>
<pdfrwt beam="1">  1        2 0.51938108E+00 0.42359658E+03</pdfrwt>
<pdfrwt beam="2">  1       -2 0.20442408E-02 0.42359658E+03</pdfrwt>
<totfact> 0.89082659E+02</totfact>
</mgrwt>
</event>
<event>
 4    1  0.1573232E-005  0.1113632E+04  0.7818608E-02  0.9192006E-01
          2   -1    0    0  501    0  0.00000000000E+00  0.00000000000E+00  0.61728928170E+03  0.61728928170E+03  0.25500000000E-02 0. -1.
         -2   -1    0    0    0  501 -0.00000000000E+00 -0.00000000000E+00 -0.50226686879E+03  0.50226686879E+03  0.25500000000E-02 0.  1.
    5000001    1    1    2    0    0 -0.16506868944E+03 -0.40250602686E+03  0.36501450359E+03  0.59137074811E+03  0.16500000000E+03 0.  0.
   -5000001    1    1    2    0    0  0.16506868944E+03  0.40250602686E+03 -0.24999209069E+03  0.52818540239E+03  0.16500000000E+03 0.  0.
<mgrwt>
<rscale>  0 0.11136318E+04</rscale>
<asrwt>0</asrwt>
<pdfrwt beam="1">  1        2 0.94967582E-01 0.11136318E+04</pdfrwt>
<pdfrwt beam="2">  1       -2 0.77271826E-01 0.11136318E+04</pdfrwt>
<totfact> 0.71062856E+01</totfact>
</mgrwt>
</event>
<event>
 4    1  0.1573232E-005  0.1495208E+04  0.7818608E-02  0.8887646E-01
          2   -1    0    0  501    0  0.00000000000E+00  0.00000000000E+00  0.42536633045E+03  0.42536633045E+03  0.25500000000E-02 0.  1.
         -2   -1    0    0    0  501 -0.00000000000E+00 -0.00000000000E+00 -0.13139538581E+04  0.13139538581E+04  0.25500000000E-02 0. -1.
    5000001    1    1    2    0    0  0.56242621730E+03  0.37176104587E+00  0.95544695629E+02  0.59386629554E+03  0.16500000000E+03 0.  0.
   -5000001    1    1    2    0    0 -0.56242621730E+03 -0.37176104587E+00 -0.98413222324E+03  0.11454538930E+04  0.16500000000E+03 0.  0.
<mgrwt>
<rscale>  0 0.14952080E+04</rscale>
<asrwt>0</asrwt>
<pdfrwt beam="1">  1        2 0.65440974E-01 0.14952080E+04</pdfrwt>
<pdfrwt beam="2">  1       -2 0.20214675E+00 0.14952080E+04</pdfrwt>
<totfact> 0.92207464E+00</totfact>
</mgrwt>
</event>
<event>
 4    1  0.1573232E-005  0.5256097E+03  0.7818608E-02  0.1007302E+00
          2   -1    0    0  501    0  0.00000000000E+00  0.00000000000E+00  0.57851690389E+03  0.57851690389E+03  0.25500000000E-02 0.  1.
         -2   -1    0    0    0  501 -0.00000000000E+00 -0.00000000000E+00 -0.11938527930E+03  0.11938527933E+03  0.25500000000E-02 0. -1.
    5000001    1    1    2    0    0  0.11468833697E+03  0.16853145704E+03  0.25198690641E+03  0.36370134403E+03  0.16500000000E+03 0.  0.
   -5000001    1    1    2    0    0 -0.11468833697E+03 -0.16853145704E+03  0.20714471818E+03  0.33420083919E+03  0.16500000000E+03 0.  0.
<mgrwt>
<rscale>  0 0.52560975E+03</rscale>
<asrwt>0</asrwt>
<pdfrwt beam="1">  1        2 0.89002600E-01 0.52560975E+03</pdfrwt>
<pdfrwt beam="2">  1       -2 0.18366966E-01 0.52560975E+03</pdfrwt>
<totfact> 0.12849763E+03</totfact>
</mgrwt>
</event>
<event>
 4    1  0.1573232E-005  0.5385046E+03  0.7818608E-02  0.1004190E+00
          2   -1    0    0  501    0  0.00000000000E+00  0.00000000000E+00  0.75194561151E+03  0.75194561151E+03  0.25500000000E-02 0.  1.
         -2   -1    0    0    0  501 -0.00000000000E+00 -0.00000000000E+00 -0.96412292854E+02  0.96412292888E+02  0.25500000000E-02 0. -1.
    5000001    1    1    2    0    0 -0.18014406441E+03 -0.10987376711E+03  0.28468968221E+03  0.39089300812E+03  0.16500000000E+03 0.  0.
   -5000001    1    1    2    0    0  0.18014406441E+03  0.10987376711E+03  0.37084363645E+03  0.45746489628E+03  0.16500000000E+03 0.  0.
<mgrwt>
<rscale>  0 0.53850460E+03</rscale>
<asrwt>0</asrwt>
<pdfrwt beam="1">  1        2 0.11568394E+00 0.53850460E+03</pdfrwt>
<pdfrwt beam="2">  1       -2 0.14832661E-01 0.53850460E+03</pdfrwt>
<totfact> 0.13389713E+03</totfact>
</mgrwt>
</event>
<event>
 4    1  0.1573232E-005  0.3722444E+03  0.7818608E-02  0.1053838E+00
         -2   -1    0    0    0  501 -0.00000000000E+00  0.00000000000E+00  0.22446038355E+02  0.22446038500E+02  0.25500000000E-02 0. -1.
          2   -1    0    0  501    0  0.00000000000E+00 -0.00000000000E+00 -0.15433227163E+04  0.15433227163E+04  0.25500000000E-02 0.  1.
    5000001    1    1    2    0    0 -0.42494284005E+02  0.10392185774E+01 -0.44539755826E+03  0.47687611499E+03  0.16500000000E+03 0.  0.
   -5000001    1    1    2    0    0  0.42494284005E+02 -0.10392185774E+01 -0.10754791197E+04  0.10888926398E+04  0.16500000000E+03 0.  0.
<mgrwt>
<rscale>  0 0.37224444E+03</rscale>
<asrwt>0</asrwt>
<pdfrwt beam="1">  1        2 0.23743418E+00 0.37224444E+03</pdfrwt>
<pdfrwt beam="2">  1       -2 0.34532379E-02 0.37224444E+03</pdfrwt>
<totfact> 0.44448745E+03</totfact>
</mgrwt>
</event>
<event>
 4    1  0.1573232E-005  0.5882342E+03  0.7818608E-02  0.9930122E-01
          2   -1    0    0  501    0  0.00000000000E+00  0.00000000000E+00  0.85372635283E+02  0.85372635321E+02  0.25500000000E-02 0.  1.
         -2   -1    0    0    0  501 -0.00000000000E+00 -0.00000000000E+00 -0.10132621544E+04  0.10132621544E+04  0.25500000000E-02 0. -1.
    5000001    1    1    2    0    0 -0.65563707164E+02 -0.14898296210E+03 -0.12576864691E+03  0.26369921358E+03  0.16500000000E+03 0.  0.
   -5000001    1    1    2    0    0  0.65563707164E+02  0.14898296210E+03 -0.80212087216E+03  0.83493557611E+03  0.16500000000E+03 0.  0.
<mgrwt>
<rscale>  0 0.58823417E+03</rscale>
<asrwt>0</asrwt>
<pdfrwt beam="1">  1        2 0.13134252E-01 0.58823417E+03</pdfrwt>
<pdfrwt beam="2">  1       -2 0.15588648E+00 0.58823417E+03</pdfrwt>
<totfact> 0.12986010E+02</totfact>
</mgrwt>
</event>
<event>
 4    1  0.1573232E-005  0.5213265E+03  0.7818608E-02  0.1008358E+00
         -2   -1    0    0    0  501 -0.00000000000E+00  0.00000000000E+00  0.28344179838E+02  0.28344179952E+02  0.25500000000E-02 0. -1.
          2   -1    0    0  501    0  0.00000000000E+00 -0.00000000000E+00 -0.23971529514E+04  0.23971529514E+04  0.25500000000E-02 0.  1.
    5000001    1    1    2    0    0  0.13025483097E+03  0.60007047771E+02 -0.52391991841E+03  0.56770084347E+03  0.16500000000E+03 0.  0.
   -5000001    1    1    2    0    0 -0.13025483097E+03 -0.60007047771E+02 -0.18448888532E+04  0.18577962879E+04  0.16500000000E+03 0.  0.
<mgrwt>
<rscale>  0 0.52132652E+03</rscale>
<asrwt>0</asrwt>
<pdfrwt beam="1">  1        2 0.36879260E+00 0.52132652E+03</pdfrwt>
<pdfrwt beam="2">  1       -2 0.43606449E-02 0.52132652E+03</pdfrwt>
<totfact> 0.10717094E+03</totfact>
</mgrwt>
</event>
<event>
 4    1  0.1573232E-005  0.8572638E+03  0.7818608E-02  0.9480639E-01
          2   -1    0    0  501    0  0.00000000000E+00  0.00000000000E+00  0.98286587928E+03  0.98286587928E+03  0.25500000000E-02 0.  1.
         -2   -1    0    0    0  501 -0.00000000000E+00 -0.00000000000E+00 -0.18692816227E+03  0.18692816229E+03  0.25500000000E-02 0. -1.
    5000001    1    1    2    0    0 -0.35992122671E+03  0.12801438367E+03  0.53825632136E+03  0.68034979191E+03  0.16500000000E+03 0.  0.
   -5000001    1    1    2    0    0  0.35992122671E+03 -0.12801438367E+03  0.25768139565E+03  0.48944424966E+03  0.16500000000E+03 0.  0.
<mgrwt>
<rscale>  0 0.85726382E+03</rscale>
<asrwt>0</asrwt>
<pdfrwt beam="1">  1        2 0.15121014E+00 0.85726382E+03</pdfrwt>
<pdfrwt beam="2">  1       -2 0.28758178E-01 0.85726382E+03</pdfrwt>
<totfact> 0.28737911E+02</totfact>
</mgrwt>
</event>
<event>
 4    1  0.1573232E-005  0.3822639E+03  0.7818608E-02  0.1050100E+00
          2   -1    0    0  501    0  0.00000000000E+00  0.00000000000E+00  0.25563916339E+03  0.25563916341E+03  0.25500000000E-02 0.  1.
         -2   -1    0    0    0  501 -0.00000000000E+00 -0.00000000000E+00 -0.14290227942E+03  0.14290227944E+03  0.25500000000E-02 0. -1.
    5000001    1    1    2    0    0  0.83924115660E+02  0.28608299642E+01  0.10587712113E+03  0.21327542361E+03  0.16500000000E+03 0.  0.
   -5000001    1    1    2    0    0 -0.83924115660E+02 -0.28608299642E+01  0.68597628515E+01  0.18526601924E+03  0.16500000000E+03 0.  0.
<mgrwt>
<rscale>  0 0.38226388E+03</rscale>
<asrwt>0</asrwt>
<pdfrwt beam="1">  1        2 0.39329102E-01 0.38226388E+03</pdfrwt>
<pdfrwt beam="2">  1       -2 0.21984966E-01 0.38226388E+03</pdfrwt>
<totfact> 0.23348506E+03</totfact>
</mgrwt>
</event>
<event>
 4    1  0.1573232E-005  0.4016060E+03  0.7818608E-02  0.1043225E+00
          2   -1    0    0  501    0  0.00000000000E+00  0.00000000000E+00  0.26125887372E+04  0.26125887372E+04  0.25500000000E-02 0.  1.
         -2   -1    0    0    0  501 -0.00000000000E+00 -0.00000000000E+00 -0.15433674848E+02  0.15433675059E+02  0.25500000000E-02 0. -1.
    5000001    1    1    2    0    0 -0.82106005888E+02 -0.25169456713E+02  0.17935725259E+04  0.18031922536E+04  0.16500000000E+03 0.  0.
   -5000001    1    1    2    0    0  0.82106005888E+02  0.25169456713E+02  0.80358253637E+03  0.82483015859E+03  0.16500000000E+03 0.  0.
<mgrwt>
<rscale>  0 0.40160600E+03</rscale>
<asrwt>0</asrwt>
<pdfrwt beam="1">  1        2 0.40193643E+00 0.40160600E+03</pdfrwt>
<pdfrwt beam="2">  1       -2 0.23744133E-02 0.40160600E+03</pdfrwt>
<totfact> 0.20598246E+03</totfact>
</mgrwt>
</event>
<event>
 4    1  0.1573232E-005  0.6949461E+03  0.7818608E-02  0.9725914E-01
         -2   -1    0    0    0  501 -0.00000000000E+00  0.00000000000E+00  0.68784543162E+02  0.68784543210E+02  0.25500000000E-02 0. -1.
          2   -1    0    0  501    0  0.00000000000E+00 -0.00000000000E+00 -0.17553004236E+04  0.17553004236E+04  0.25500000000E-02 0.  1.
    5000001    1    1    2    0    0  0.21124605061E+03 -0.18967211509E+03 -0.54499939137E+03  0.63627803807E+03  0.16500000000E+03 0.  0.
   -5000001    1    1    2    0    0 -0.21124605061E+03  0.18967211509E+03 -0.11415164890E+04  0.11878069287E+04  0.16500000000E+03 0.  0.
<mgrwt>
<rscale>  0 0.69494615E+03</rscale>
<asrwt>0</asrwt>
<pdfrwt beam="1">  1        2 0.27004619E+00 0.69494615E+03</pdfrwt>
<pdfrwt beam="2">  1       -2 0.10582239E-01 0.69494615E+03</pdfrwt>
<totfact> 0.58384468E+02</totfact>
</mgrwt>
</event>
<event>
 4    1  0.1573232E-005  0.4640198E+03  0.7818608E-02  0.1023622E+00
         -2   -1    0    0    0  501 -0.00000000000E+00  0.00000000000E+00  0.71738859841E+02  0.71738859886E+02  0.25500000000E-02 0.  1.
          2   -1    0    0  501    0  0.00000000000E+00 -0.00000000000E+00 -0.75034067247E+03  0.75034067247E+03  0.25500000000E-02 0. -1.
    5000001    1    1    2    0    0  0.16055228424E+03 -0.27105271970E+02 -0.35628033672E+03  0.42505577290E+03  0.16500000000E+03 0.  0.
   -5000001    1    1    2    0    0 -0.16055228424E+03  0.27105271970E+02 -0.32232147590E+03  0.39702375946E+03  0.16500000000E+03 0.  0.
<mgrwt>
<rscale>  0 0.46401976E+03</rscale>
<asrwt>0</asrwt>
<pdfrwt beam="1">  1        2 0.11543702E+00 0.46401976E+03</pdfrwt>
<pdfrwt beam="2">  1       -2 0.11036748E-01 0.46401976E+03</pdfrwt>
<totfact> 0.21877361E+03</totfact>
</mgrwt>
</event>
<event>
 4    1  0.1573232E-005  0.8224564E+03  0.7818608E-02  0.9528069E-01
         -2   -1    0    0    0  501 -0.00000000000E+00  0.00000000000E+00  0.24873857481E+03  0.24873857482E+03  0.25500000000E-02 0. -1.
          2   -1    0    0  501    0  0.00000000000E+00 -0.00000000000E+00 -0.67986489313E+03  0.67986489314E+03  0.25500000000E-02 0.  1.
    5000001    1    1    2    0    0 -0.36219453089E+03 -0.26603836759E+01 -0.33230866581E+03  0.51850362122E+03  0.16500000000E+03 0.  0.
   -5000001    1    1    2    0    0  0.36219453089E+03  0.26603836759E+01 -0.98817652516E+02  0.41009984674E+03  0.16500000000E+03 0.  0.
<mgrwt>
<rscale>  0 0.82245638E+03</rscale>
<asrwt>0</asrwt>
<pdfrwt beam="1">  1        2 0.10459460E+00 0.82245638E+03</pdfrwt>
<pdfrwt beam="2">  1       -2 0.38267473E-01 0.82245638E+03</pdfrwt>
<totfact> 0.27549187E+02</totfact>
</mgrwt>
</event>
<event>
 4    1  0.1573232E-005  0.5267090E+03  0.7818608E-02  0.1007033E+00
          2   -1    0    0  501    0  0.00000000000E+00  0.00000000000E+00  0.12957866537E+04  0.12957866537E+04  0.25500000000E-02 0.  1.
         -2   -1    0    0    0  501 -0.00000000000E+00 -0.00000000000E+00 -0.53523936346E+02  0.53523936407E+02  0.25500000000E-02 0. -1.
    5000001    1    1    2    0    0 -0.96905002826E+02  0.12287676251E+03  0.96138810768E+03  0.98791769491E+03  0.16500000000E+03 0.  0.
   -5000001    1    1    2    0    0  0.96905002826E+02 -0.12287676251E+03  0.28087460967E+03  0.36139289519E+03  0.16500000000E+03 0.  0.
<mgrwt>
<rscale>  0 0.52670904E+03</rscale>
<asrwt>0</asrwt>
<pdfrwt beam="1">  1        2 0.19935179E+00 0.52670904E+03</pdfrwt>
<pdfrwt beam="2">  1       -2 0.82344520E-02 0.52670904E+03</pdfrwt>
<totfact> 0.15837950E+03</totfact>
</mgrwt>
</event>
<event>
 4    1  0.1573232E-005  0.7423418E+03  0.7818608E-02  0.9647442E-01
          2   -1    0    0  501    0  0.00000000000E+00  0.00000000000E+00  0.23147782772E+04  0.23147782772E+04  0.25500000000E-02 0.  1.
         -2   -1    0    0    0  501 -0.00000000000E+00 -0.00000000000E+00 -0.59516638823E+02  0.59516638878E+02  0.25500000000E-02 0. -1.
    5000001    1    1    2    0    0  0.14228967457E+03  0.13570771396E+03  0.27013015681E+03  0.37263686980E+03  0.16500000000E+03 0.  0.
   -5000001    1    1    2    0    0 -0.14228967457E+03 -0.13570771396E+03  0.19851314816E+04  0.20016580463E+04  0.16500000000E+03 0.  0.
<mgrwt>
<rscale>  0 0.74234176E+03</rscale>
<asrwt>0</asrwt>
<pdfrwt beam="1">  1        2 0.35611975E+00 0.74234176E+03</pdfrwt>
<pdfrwt beam="2">  1       -2 0.91564056E-02 0.74234176E+03</pdfrwt>
<totfact> 0.36373554E+02</totfact>
</mgrwt>
</event>
<event>
 4    1  0.1573232E-005  0.6666384E+03  0.7818608E-02  0.9776050E-01
         -2   -1    0    0    0  501 -0.00000000000E+00  0.00000000000E+00  0.36766130189E+02  0.36766130278E+02  0.25500000000E-02 0. -1.
          2   -1    0    0  501    0  0.00000000000E+00 -0.00000000000E+00 -0.30218493150E+04  0.30218493150E+04  0.25500000000E-02 0.  1.
    5000001    1    1    2    0    0 -0.11509148297E+03  0.16133264446E+03 -0.24615193266E+04  0.24749902357E+04  0.16500000000E+03 0.  0.
   -5000001    1    1    2    0    0  0.11509148297E+03 -0.16133264446E+03 -0.52356385820E+03  0.58362520957E+03  0.16500000000E+03 0.  0.
<mgrwt>
<rscale>  0 0.66663845E+03</rscale>
<asrwt>0</asrwt>
<pdfrwt beam="1">  1        2 0.46489970E+00 0.66663845E+03</pdfrwt>
<pdfrwt beam="2">  1       -2 0.56563301E-02 0.66663845E+03</pdfrwt>
<totfact> 0.30629221E+02</totfact>
</mgrwt>
</event>
<event>
 4    1  0.1573232E-005  0.8154083E+03  0.7818608E-02  0.9537978E-01
         -2   -1    0    0    0  501 -0.00000000000E+00  0.00000000000E+00  0.72238324159E+02  0.72238324204E+02  0.25500000000E-02 0. -1.
          2   -1    0    0  501    0  0.00000000000E+00 -0.00000000000E+00 -0.23010316108E+04  0.23010316108E+04  0.25500000000E-02 0.  1.
    5000001    1    1    2    0    0  0.13836671984E+03 -0.34492397661E+03 -0.10280677326E+04  0.11055614690E+04  0.16500000000E+03 0.  0.
   -5000001    1    1    2    0    0 -0.13836671984E+03  0.34492397661E+03 -0.12007255540E+04  0.12677084660E+04  0.16500000000E+03 0.  0.
<mgrwt>
<rscale>  0 0.81540828E+03</rscale>
<asrwt>0</asrwt>
<pdfrwt beam="1">  1        2 0.35400481E+00 0.81540828E+03</pdfrwt>
<pdfrwt beam="2">  1       -2 0.11113590E-01 0.81540828E+03</pdfrwt>
<totfact> 0.26828584E+02</totfact>
</mgrwt>
</event>
<event>
 4    1  0.1573232E-005  0.4913123E+03  0.7818608E-02  0.1016072E+00
          2   -1    0    0  501    0  0.00000000000E+00  0.00000000000E+00  0.16568301277E+04  0.16568301277E+04  0.25500000000E-02 0.  1.
         -2   -1    0    0    0  501 -0.00000000000E+00 -0.00000000000E+00 -0.36423133252E+02  0.36423133342E+02  0.25500000000E-02 0. -1.
    5000001    1    1    2    0    0 -0.11754263514E+03  0.41843221228E+02  0.12668314062E+04  0.12836097296E+04  0.16500000000E+03 0.  0.
   -5000001    1    1    2    0    0  0.11754263514E+03 -0.41843221228E+02  0.35357558829E+03  0.40964353147E+03  0.16500000000E+03 0.  0.
<mgrwt>
<rscale>  0 0.49131230E+03</rscale>
<asrwt>0</asrwt>
<pdfrwt beam="1">  1        2 0.25489688E+00 0.49131230E+03</pdfrwt>
<pdfrwt beam="2">  1       -2 0.56035604E-02 0.49131230E+03</pdfrwt>
<totfact> 0.18351655E+03</totfact>
</mgrwt>
</event>
<event>
 4    1  0.1573232E-005  0.6086775E+03  0.7818608E-02  0.9887565E-01
         -2   -1    0    0    0  501 -0.00000000000E+00  0.00000000000E+00  0.18661381023E+03  0.18661381025E+03  0.25500000000E-02 0. -1.
          2   -1    0    0  501    0  0.00000000000E+00 -0.00000000000E+00 -0.49633017452E+03  0.49633017453E+03  0.25500000000E-02 0.  1.
    5000001    1    1    2    0    0 -0.46362238340E+02  0.19720922557E+03  0.20248207394E+02  0.26206091982E+03  0.16500000000E+03 0.  0.
   -5000001    1    1    2    0    0  0.46362238340E+02 -0.19720922557E+03 -0.32996457169E+03  0.42088306495E+03  0.16500000000E+03 0.  0.
<mgrwt>
<rscale>  0 0.60867747E+03</rscale>
<asrwt>0</asrwt>
<pdfrwt beam="1">  1        2 0.76358488E-01 0.60867747E+03</pdfrwt>
<pdfrwt beam="2">  1       -2 0.28709817E-01 0.60867747E+03</pdfrwt>
<totfact> 0.69477723E+02</totfact>
</mgrwt>
</event>
<event>
 4    1  0.1573232E-005  0.6562994E+03  0.7818608E-02  0.9795030E-01
         -2   -1    0    0    0  501 -0.00000000000E+00  0.00000000000E+00  0.46746345606E+03  0.46746345607E+03  0.25500000000E-02 0. -1.
          2   -1    0    0  501    0  0.00000000000E+00 -0.00000000000E+00 -0.23035434474E+03  0.23035434475E+03  0.25500000000E-02 0.  1.
    5000001    1    1    2    0    0 -0.16191498505E+03  0.17384985002E+03 -0.46223524674E+02  0.29291952303E+03  0.16500000000E+03 0.  0.
   -5000001    1    1    2    0    0  0.16191498505E+03 -0.17384985002E+03  0.28333263600E+03  0.40489827779E+03  0.16500000000E+03 0.  0.
<mgrwt>
<rscale>  0 0.65629944E+03</rscale>
<asrwt>0</asrwt>
<pdfrwt beam="1">  1        2 0.35439130E-01 0.65629944E+03</pdfrwt>
<pdfrwt beam="2">  1       -2 0.71917455E-01 0.65629944E+03</pdfrwt>
<totfact> 0.26108971E+02</totfact>
</mgrwt>
</event>
<event>
 4    1  0.1573232E-005  0.5368823E+03  0.7818608E-02  0.1004577E+00
          2   -1    0    0  501    0  0.00000000000E+00  0.00000000000E+00  0.53453210267E+03  0.53453210268E+03  0.25500000000E-02 0.  1.
         -2   -1    0    0    0  501 -0.00000000000E+00 -0.00000000000E+00 -0.13481072654E+03  0.13481072657E+03  0.25500000000E-02 0. -1.
    5000001    1    1    2    0    0 -0.68832592220E+01 -0.20967311618E+03  0.16404121832E+03  0.31328057108E+03  0.16500000000E+03 0.  0.
   -5000001    1    1    2    0    0  0.68832592220E+01  0.20967311618E+03  0.23568015781E+03  0.35606225817E+03  0.16500000000E+03 0.  0.
<mgrwt>
<rscale>  0 0.53688234E+03</rscale>
<asrwt>0</asrwt>
<pdfrwt beam="1">  1        2 0.82235707E-01 0.53688234E+03</pdfrwt>
<pdfrwt beam="2">  1       -2 0.20740112E-01 0.53688234E+03</pdfrwt>
<totfact> 0.11420227E+03</totfact>
</mgrwt>
</event>
<event>
 4    1  0.1573232E-005  0.3490557E+03  0.7818608E-02  0.1063003E+00
         -2   -1    0    0    0  501 -0.00000000000E+00  0.00000000000E+00  0.86492406559E+01  0.86492410318E+01  0.25500000000E-02 0. -1.
          2   -1    0    0  501    0  0.00000000000E+00 -0.00000000000E+00 -0.35216923903E+04  0.35216923903E+04  0.25500000000E-02 0.  1.
    5000001    1    1    2    0    0  0.35357711591E+02  0.12528359143E+02 -0.13241163847E+04  0.13348843874E+04  0.16500000000E+03 0.  0.
   -5000001    1    1    2    0    0 -0.35357711591E+02 -0.12528359143E+02 -0.21889267649E+04  0.21954572439E+04  0.16500000000E+03 0.  0.
<mgrwt>
<rscale>  0 0.34905567E+03</rscale>
<asrwt>0</asrwt>
<pdfrwt beam="1">  1        2 0.54179768E+00 0.34905567E+03</pdfrwt>
<pdfrwt beam="2">  1       -2 0.13306552E-02 0.34905567E+03</pdfrwt>
<totfact> 0.13619850E+03</totfact>
</mgrwt>
</event>
<event>
 4    1  0.1573232E-005  0.1328827E+04  0.7818608E-02  0.9007013E-01
         -2   -1    0    0    0  501 -0.00000000000E+00  0.00000000000E+00  0.34150230907E+03  0.34150230908E+03  0.25500000000E-02 0. -1.
          2   -1    0    0  501    0  0.00000000000E+00 -0.00000000000E+00 -0.12926558818E+04  0.12926558818E+04  0.25500000000E-02 0.  1.
    5000001    1    1    2    0    0 -0.56024866886E+03  0.29781122564E+03 -0.60831206928E+03  0.89433700064E+03  0.16500000000E+03 0.  0.
   -5000001    1    1    2    0    0  0.56024866886E+03 -0.29781122564E+03 -0.34284150348E+03  0.73982119027E+03  0.16500000000E+03 0.  0.
<mgrwt>
<rscale>  0 0.13288265E+04</rscale>
<asrwt>0</asrwt>
<pdfrwt beam="1">  1        2 0.19887013E+00 0.13288265E+04</pdfrwt>
<pdfrwt beam="2">  1       -2 0.52538818E-01 0.13288265E+04</pdfrwt>
<totfact> 0.55817856E+01</totfact>
</mgrwt>
</event>
<event>
 4    1  0.1573232E-005  0.5091856E+03  0.7818608E-02  0.1011409E+00
         -2   -1    0    0    0  501 -0.00000000000E+00  0.00000000000E+00  0.25325385500E+02  0.25325385628E+02  0.25500000000E-02 0. -1.
          2   -1    0    0  501    0  0.00000000000E+00 -0.00000000000E+00 -0.25593885313E+04  0.25593885313E+04  0.25500000000E-02 0.  1.
    5000001    1    1    2    0    0  0.18640537105E+03  0.27322187480E+02 -0.14995976664E+04  0.15203656223E+04  0.16500000000E+03 0.  0.
   -5000001    1    1    2    0    0 -0.18640537105E+03 -0.27322187480E+02 -0.10344654793E+04  0.10643482946E+04  0.16500000000E+03 0.  0.
<mgrwt>
<rscale>  0 0.50918563E+03</rscale>
<asrwt>0</asrwt>
<pdfrwt beam="1">  1        2 0.39375188E+00 0.50918563E+03</pdfrwt>
<pdfrwt beam="2">  1       -2 0.38962152E-02 0.50918563E+03</pdfrwt>
<totfact> 0.10346751E+03</totfact>
</mgrwt>
</event>
<event>
 4    1  0.1573232E-005  0.1601592E+04  0.7818608E-02  0.8819570E-01
          2   -1    0    0  501    0  0.00000000000E+00  0.00000000000E+00  0.16075043976E+04  0.16075043976E+04  0.25500000000E-02 0. -1.
         -2   -1    0    0    0  501 -0.00000000000E+00 -0.00000000000E+00 -0.39892540388E+03  0.39892540388E+03  0.25500000000E-02 0.  1.
    5000001    1    1    2    0    0 -0.66163047119E+03  0.60363208392E+02  0.11248320877E+04  0.13167652877E+04  0.16500000000E+03 0.  0.
   -5000001    1    1    2    0    0  0.66163047119E+03 -0.60363208392E+02  0.83746906032E+02  0.68966451381E+03  0.16500000000E+03 0.  0.
<mgrwt>
<rscale>  0 0.16015921E+04</rscale>
<asrwt>0</asrwt>
<pdfrwt beam="1">  1        2 0.24730837E+00 0.16015921E+04</pdfrwt>
<pdfrwt beam="2">  1       -2 0.61373138E-01 0.16015921E+04</pdfrwt>
<totfact> 0.26137539E+01</totfact>
</mgrwt>
</event>
<event>
 4    1  0.1573232E-005  0.4259343E+03  0.7818608E-02  0.1035152E+00
         -2   -1    0    0    0  501 -0.00000000000E+00  0.00000000000E+00  0.16497408342E+02  0.16497408539E+02  0.25500000000E-02 0. -1.
          2   -1    0    0  501    0  0.00000000000E+00 -0.00000000000E+00 -0.27492199454E+04  0.27492199454E+04  0.25500000000E-02 0.  1.
    5000001    1    1    2    0    0  0.85128766768E+02 -0.86554762216E+02 -0.17445014379E+04  0.17564876603E+04  0.16500000000E+03 0.  0.
   -5000001    1    1    2    0    0 -0.85128766768E+02  0.86554762216E+02 -0.98822109912E+03  0.10092296936E+04  0.16500000000E+03 0.  0.
<mgrwt>
<rscale>  0 0.42593429E+03</rscale>
<asrwt>0</asrwt>
<pdfrwt beam="1">  1        2 0.42295655E+00 0.42593429E+03</pdfrwt>
<pdfrwt beam="2">  1       -2 0.25380650E-02 0.42593429E+03</pdfrwt>
<totfact> 0.15549561E+03</totfact>
</mgrwt>
</event>
<event>
 4    1  0.1573232E-005  0.4981057E+03  0.7818608E-02  0.1014275E+00
         -2   -1    0    0    0  501 -0.00000000000E+00  0.00000000000E+00  0.13329868265E+03  0.13329868267E+03  0.25500000000E-02 0. -1.
          2   -1    0    0  501    0  0.00000000000E+00 -0.00000000000E+00 -0.46532579860E+03  0.46532579861E+03  0.25500000000E-02 0.  1.
    5000001    1    1    2    0    0 -0.12851061534E+03  0.13253092018E+03 -0.19832601366E+03  0.31723434674E+03  0.16500000000E+03 0.  0.
   -5000001    1    1    2    0    0  0.12851061534E+03 -0.13253092018E+03 -0.13370110230E+03  0.28139013454E+03  0.16500000000E+03 0.  0.
<mgrwt>
<rscale>  0 0.49810568E+03</rscale>
<asrwt>0</asrwt>
<pdfrwt beam="1">  1        2 0.71588584E-01 0.49810568E+03</pdfrwt>
<pdfrwt beam="2">  1       -2 0.20507490E-01 0.49810568E+03</pdfrwt>
<totfact> 0.13656369E+03</totfact>
</mgrwt>
</event>
<event>
 4    1  0.1573232E-005  0.5230846E+03  0.7818608E-02  0.1007923E+00
         -2   -1    0    0    0  501 -0.00000000000E+00  0.00000000000E+00  0.86044891013E+02  0.86044891051E+02  0.25500000000E-02 0. -1.
          2   -1    0    0  501    0  0.00000000000E+00 -0.00000000000E+00 -0.79498482443E+03  0.79498482444E+03  0.25500000000E-02 0.  1.
    5000001    1    1    2    0    0 -0.19650861338E+03 -0.49574652201E+01 -0.26959794022E+03  0.37222071538E+03  0.16500000000E+03 0.  0.
   -5000001    1    1    2    0    0  0.19650861338E+03  0.49574652201E+01 -0.43934199321E+03  0.50880900010E+03  0.16500000000E+03 0.  0.
<mgrwt>
<rscale>  0 0.52308463E+03</rscale>
<asrwt>0</asrwt>
<pdfrwt beam="1">  1        2 0.12230535E+00 0.52308463E+03</pdfrwt>
<pdfrwt beam="2">  1       -2 0.13237676E-01 0.52308463E+03</pdfrwt>
<totfact> 0.15067243E+03</totfact>
</mgrwt>
</event>
<event>
 4    1  0.1573232E-005  0.6497540E+03  0.7818608E-02  0.9807241E-01
         -2   -1    0    0    0  501 -0.00000000000E+00  0.00000000000E+00  0.21325496701E+03  0.21325496703E+03  0.25500000000E-02 0.  1.
          2   -1    0    0  501    0  0.00000000000E+00 -0.00000000000E+00 -0.49492428170E+03  0.49492428170E+03  0.25500000000E-02 0. -1.
    5000001    1    1    2    0    0 -0.21028947471E+03  0.18171372043E+03 -0.10504077970E+03  0.33985306349E+03  0.16500000000E+03 0.  0.
   -5000001    1    1    2    0    0  0.21028947471E+03 -0.18171372043E+03 -0.17662853499E+03  0.36832618524E+03  0.16500000000E+03 0.  0.
<mgrwt>
<rscale>  0 0.64975399E+03</rscale>
<asrwt>0</asrwt>
<pdfrwt beam="1">  1        2 0.76142197E-01 0.64975399E+03</pdfrwt>
<pdfrwt beam="2">  1       -2 0.32808457E-01 0.64975399E+03</pdfrwt>
<totfact> 0.54358245E+02</totfact>
</mgrwt>
</event>
<event>
 4    1  0.1573232E-005  0.4291582E+03  0.7818608E-02  0.1034126E+00
          2   -1    0    0  501    0  0.00000000000E+00  0.00000000000E+00  0.45177138983E+03  0.45177138984E+03  0.25500000000E-02 0.  1.
         -2   -1    0    0    0  501 -0.00000000000E+00 -0.00000000000E+00 -0.10191920911E+03  0.10191920914E+03  0.25500000000E-02 0. -1.
    5000001    1    1    2    0    0  0.13497585137E+03  0.19734634770E+02  0.19367795803E+03  0.28869376108E+03  0.16500000000E+03 0.  0.
   -5000001    1    1    2    0    0 -0.13497585137E+03 -0.19734634770E+02  0.15617422269E+03  0.26499683789E+03  0.16500000000E+03 0.  0.
<mgrwt>
<rscale>  0 0.42915817E+03</rscale>
<asrwt>0</asrwt>
<pdfrwt beam="1">  1        2 0.69503290E-01 0.42915817E+03</pdfrwt>
<pdfrwt beam="2">  1       -2 0.15679879E-01 0.42915817E+03</pdfrwt>
<totfact> 0.22319216E+03</totfact>
</mgrwt>
</event>
<event>
 4    1  0.1573232E-005  0.6491753E+03  0.7818608E-02  0.9808328E-01
          2   -1    0    0  501    0  0.00000000000E+00  0.00000000000E+00  0.18669197076E+04  0.18669197076E+04  0.25500000000E-02 0.  1.
         -2   -1    0    0    0  501 -0.00000000000E+00 -0.00000000000E+00 -0.56433669367E+02  0.56433669424E+02  0.25500000000E-02 0. -1.
    5000001    1    1    2    0    0  0.27194825432E+03 -0.56812117747E+02  0.81398892105E+03  0.87577761637E+03  0.16500000000E+03 0.  0.
   -5000001    1    1    2    0    0 -0.27194825432E+03  0.56812117747E+02  0.99649711719E+03  0.10475757607E+04  0.16500000000E+03 0.  0.
<mgrwt>
<rscale>  0 0.64917526E+03</rscale>
<asrwt>0</asrwt>
<pdfrwt beam="1">  1        2 0.28721846E+00 0.64917526E+03</pdfrwt>
<pdfrwt beam="2">  1       -2 0.86821018E-02 0.64917526E+03</pdfrwt>
<totfact> 0.70169628E+02</totfact>
</mgrwt>
</event>
<event>
 4    1  0.1573232E-005  0.8062901E+03  0.7818608E-02  0.9550957E-01
         -2   -1    0    0    0  501 -0.00000000000E+00  0.00000000000E+00  0.29275147744E+03  0.29275147745E+03  0.25500000000E-02 0.  1.
          2   -1    0    0  501    0  0.00000000000E+00 -0.00000000000E+00 -0.55516684747E+03  0.55516684747E+03  0.25500000000E-02 0. -1.
    5000001    1    1    2    0    0  0.94072536321E+02 -0.29575448068E+03  0.76420712606E+02  0.35970193251E+03  0.16500000000E+03 0.  0.
   -5000001    1    1    2    0    0 -0.94072536321E+02  0.29575448068E+03 -0.33883608263E+03  0.48821639242E+03  0.16500000000E+03 0.  0.
<mgrwt>
<rscale>  0 0.80629006E+03</rscale>
<asrwt>0</asrwt>
<pdfrwt beam="1">  1        2 0.85410285E-01 0.80629006E+03</pdfrwt>
<pdfrwt beam="2">  1       -2 0.45038689E-01 0.80629006E+03</pdfrwt>
<totfact> 0.25615558E+02</totfact>
</mgrwt>
</event>
<event>
 4    1  0.1573232E-005  0.8445633E+03  0.7818608E-02  0.9497663E-01
         -2   -1    0    0    0  501 -0.00000000000E+00  0.00000000000E+00  0.18488873256E+03  0.18488873258E+03  0.25500000000E-02 0. -1.
          2   -1    0    0  501    0  0.00000000000E+00 -0.00000000000E+00 -0.96448160164E+03  0.96448160164E+03  0.25500000000E-02 0.  1.
    5000001    1    1    2    0    0  0.98811582920E+02  0.18228071701E+03  0.57663631089E+02  0.27118274846E+03  0.16500000000E+03 0.  0.
   -5000001    1    1    2    0    0 -0.98811582920E+02 -0.18228071701E+03 -0.83725650017E+03  0.87818758576E+03  0.16500000000E+03 0.  0.
<mgrwt>
<rscale>  0 0.84456327E+03</rscale>
<asrwt>0</asrwt>
<pdfrwt beam="1">  1        2 0.14838178E+00 0.84456327E+03</pdfrwt>
<pdfrwt beam="2">  1       -2 0.28444421E-01 0.84456327E+03</pdfrwt>
<totfact> 0.30159742E+02</totfact>
</mgrwt>
</event>
<event>
 4    1  0.1573232E-005  0.6429823E+03  0.7818608E-02  0.9820037E-01
          2   -1    0    0  501    0  0.00000000000E+00  0.00000000000E+00  0.55600150862E+03  0.55600150862E+03  0.25500000000E-02 0.  1.
         -2   -1    0    0    0  501 -0.00000000000E+00 -0.00000000000E+00 -0.18589257262E+03  0.18589257263E+03  0.25500000000E-02 0. -1.
    5000001    1    1    2    0    0  0.12831984637E+03  0.24426229664E+03  0.18646681308E+03  0.37165161766E+03  0.16500000000E+03 0.  0.
   -5000001    1    1    2    0    0 -0.12831984637E+03 -0.24426229664E+03  0.18364212292E+03  0.37024246359E+03  0.16500000000E+03 0.  0.
<mgrwt>
<rscale>  0 0.64298227E+03</rscale>
<asrwt>0</asrwt>
<pdfrwt beam="1">  1        2 0.85538693E-01 0.64298227E+03</pdfrwt>
<pdfrwt beam="2">  1       -2 0.28598857E-01 0.64298227E+03</pdfrwt>
<totfact> 0.61258135E+02</totfact>
</mgrwt>
</event>
<event>
 4    1  0.1573232E-005  0.4839045E+03  0.7818608E-02  0.1018068E+00
          2   -1    0    0  501    0  0.00000000000E+00  0.00000000000E+00  0.31342827467E+03  0.31342827468E+03  0.25500000000E-02 0.  1.
         -2   -1    0    0    0  501 -0.00000000000E+00 -0.00000000000E+00 -0.18677601877E+03  0.18677601879E+03  0.25500000000E-02 0. -1.
    5000001    1    1    2    0    0 -0.13560668677E+03 -0.68209126372E+02  0.15735289191E+03  0.27390982277E+03  0.16500000000E+03 0.  0.
   -5000001    1    1    2    0    0  0.13560668677E+03  0.68209126372E+02 -0.30700636024E+02  0.22629447070E+03  0.16500000000E+03 0.  0.
<mgrwt>
<rscale>  0 0.48390448E+03</rscale>
<asrwt>0</asrwt>
<pdfrwt beam="1">  1        2 0.48219734E-01 0.48390448E+03</pdfrwt>
<pdfrwt beam="2">  1       -2 0.28734772E-01 0.48390448E+03</pdfrwt>
<totfact> 0.11607351E+03</totfact>
</mgrwt>
</event>
<event>
 4    1  0.1573232E-005  0.7508332E+03  0.7818608E-02  0.9634044E-01
          2   -1    0    0  501    0  0.00000000000E+00  0.00000000000E+00  0.41726344041E+03  0.41726344042E+03  0.25500000000E-02 0.  1.
         -2   -1    0    0    0  501 -0.00000000000E+00 -0.00000000000E+00 -0.33776651021E+03  0.33776651022E+03  0.25500000000E-02 0. -1.
    5000001    1    1    2    0    0 -0.22743545536E+03  0.23132165022E+03  0.13232838690E+03  0.38726269404E+03  0.16500000000E+03 0.  0.
   -5000001    1    1    2    0    0  0.22743545536E+03 -0.23132165022E+03 -0.52831456697E+02  0.36776725660E+03  0.16500000000E+03 0.  0.
<mgrwt>
<rscale>  0 0.75083318E+03</rscale>
<asrwt>0</asrwt>
<pdfrwt beam="1">  1        2 0.64194375E-01 0.75083318E+03</pdfrwt>
<pdfrwt beam="2">  1       -2 0.51964078E-01 0.75083318E+03</pdfrwt>
<totfact> 0.26732289E+02</totfact>
</mgrwt>
</event>
<event>
 4    1  0.1573232E-005  0.4337178E+03  0.7818608E-02  0.1032692E+00
         -2   -1    0    0    0  501 -0.00000000000E+00  0.00000000000E+00  0.30447461309E+02  0.30447461416E+02  0.25500000000E-02 0. -1.
          2   -1    0    0  501    0  0.00000000000E+00 -0.00000000000E+00 -0.15445548026E+04  0.15445548026E+04  0.25500000000E-02 0.  1.
    5000001    1    1    2    0    0  0.35652921041E+02  0.11732921054E+03 -0.50636879149E+03  0.54650857946E+03  0.16500000000E+03 0.  0.
   -5000001    1    1    2    0    0 -0.35652921041E+02 -0.11732921054E+03 -0.10077385498E+04  0.10284936845E+04  0.16500000000E+03 0.  0.
<mgrwt>
<rscale>  0 0.43371775E+03</rscale>
<asrwt>0</asrwt>
<pdfrwt beam="1">  1        2 0.23762376E+00 0.43371775E+03</pdfrwt>
<pdfrwt beam="2">  1       -2 0.46842260E-02 0.43371775E+03</pdfrwt>
<totfact> 0.27887302E+03</totfact>
</mgrwt>
</event>
<event>
 4    1  0.1573232E-005  0.6003434E+03  0.7818608E-02  0.9904694E-01
         -2   -1    0    0    0  501 -0.00000000000E+00  0.00000000000E+00  0.26550079874E+02  0.26550079996E+02  0.25500000000E-02 0. -1.
          2   -1    0    0  501    0  0.00000000000E+00 -0.00000000000E+00 -0.33937021514E+04  0.33937021514E+04  0.25500000000E-02 0.  1.
    5000001    1    1    2    0    0 -0.11875459757E+03 -0.16518734143E+03 -0.25187211187E+04  0.25323053896E+04  0.16500000000E+03 0.  0.
   -5000001    1    1    2    0    0  0.11875459757E+03  0.16518734143E+03 -0.84843095284E+03  0.88794684185E+03  0.16500000000E+03 0.  0.
<mgrwt>
<rscale>  0 0.60034345E+03</rscale>
<asrwt>0</asrwt>
<pdfrwt beam="1">  1        2 0.52210768E+00 0.60034345E+03</pdfrwt>
<pdfrwt beam="2">  1       -2 0.40846304E-02 0.60034345E+03</pdfrwt>
<totfact> 0.29694589E+02</totfact>
</mgrwt>
</event>
<event>
 4    1  0.1573232E-005  0.5864551E+03  0.7818608E-02  0.9933913E-01
          2   -1    0    0  501    0  0.00000000000E+00  0.00000000000E+00  0.10970769465E+03  0.10970769468E+03  0.25500000000E-02 0.  1.
         -2   -1    0    0    0  501 -0.00000000000E+00 -0.00000000000E+00 -0.78374092412E+03  0.78374092412E+03  0.25500000000E-02 0. -1.
    5000001    1    1    2    0    0 -0.22625793352E+03 -0.53340485537E+02 -0.23235556631E+03  0.36776618805E+03  0.16500000000E+03 0.  0.
   -5000001    1    1    2    0    0  0.22625793352E+03  0.53340485537E+02 -0.44167766316E+03  0.52568243076E+03  0.16500000000E+03 0.  0.
<mgrwt>
<rscale>  0 0.58645515E+03</rscale>
<asrwt>0</asrwt>
<pdfrwt beam="1">  1        2 0.16878107E-01 0.58645515E+03</pdfrwt>
<pdfrwt beam="2">  1       -2 0.12057552E+00 0.58645515E+03</pdfrwt>
<totfact> 0.18495216E+02</totfact>
</mgrwt>
</event>
<event>
 4    1  0.1573232E-005  0.4036768E+03  0.7818608E-02  0.1042514E+00
          2   -1    0    0  501    0  0.00000000000E+00  0.00000000000E+00  0.50814071678E+02  0.50814071742E+02  0.25500000000E-02 0.  1.
         -2   -1    0    0    0  501 -0.00000000000E+00 -0.00000000000E+00 -0.80172144717E+03  0.80172144718E+03  0.25500000000E-02 0. -1.
    5000001    1    1    2    0    0  0.84469448191E+02 -0.78363336205E+02 -0.40802332663E+03  0.45495487162E+03  0.16500000000E+03 0.  0.
   -5000001    1    1    2    0    0 -0.84469448191E+02  0.78363336205E+02 -0.34288404887E+03  0.39758064730E+03  0.16500000000E+03 0.  0.
<mgrwt>
<rscale>  0 0.40367676E+03</rscale>
<asrwt>0</asrwt>
<pdfrwt beam="1">  1        2 0.78175501E-02 0.40367676E+03</pdfrwt>
<pdfrwt beam="2">  1       -2 0.12334175E+00 0.40367676E+03</pdfrwt>
<totfact> 0.45702705E+02</totfact>
</mgrwt>
</event>
<event>
 4    1  0.1573232E-005  0.5943754E+03  0.7818608E-02  0.9917145E-01
         -2   -1    0    0    0  501 -0.00000000000E+00  0.00000000000E+00  0.57527479999E+03  0.57527480000E+03  0.25500000000E-02 0. -1.
          2   -1    0    0  501    0  0.00000000000E+00 -0.00000000000E+00 -0.15352752718E+03  0.15352752721E+03  0.25500000000E-02 0.  1.
    5000001    1    1    2    0    0  0.30224457865E+02  0.24512147673E+03  0.22297864340E+03  0.37140615453E+03  0.16500000000E+03 0.  0.
   -5000001    1    1    2    0    0 -0.30224457865E+02 -0.24512147673E+03  0.19876862941E+03  0.35739617268E+03  0.16500000000E+03 0.  0.
<mgrwt>
<rscale>  0 0.59437536E+03</rscale>
<asrwt>0</asrwt>
<pdfrwt beam="1">  1        2 0.23619620E-01 0.59437536E+03</pdfrwt>
<pdfrwt beam="2">  1       -2 0.88503815E-01 0.59437536E+03</pdfrwt>
<totfact> 0.25999158E+02</totfact>
</mgrwt>
</event>
<event>
 4    1  0.1573232E-005  0.5282017E+03  0.7818608E-02  0.1006669E+00
          2   -1    0    0  501    0  0.00000000000E+00  0.00000000000E+00  0.38504952368E+03  0.38504952369E+03  0.25500000000E-02 0.  1.
         -2   -1    0    0    0  501 -0.00000000000E+00 -0.00000000000E+00 -0.18114362067E+03  0.18114362069E+03  0.25500000000E-02 0. -1.
    5000001    1    1    2    0    0  0.17379367684E+03 -0.96587198134E+02  0.16057599303E+03  0.30420877451E+03  0.16500000000E+03 0.  0.
   -5000001    1    1    2    0    0 -0.17379367684E+03  0.96587198134E+02  0.43329909981E+02  0.26198436986E+03  0.16500000000E+03 0.  0.
<mgrwt>
<rscale>  0 0.52820172E+03</rscale>
<asrwt>0</asrwt>
<pdfrwt beam="1">  1        2 0.59238388E-01 0.52820172E+03</pdfrwt>
<pdfrwt beam="2">  1       -2 0.27868249E-01 0.52820172E+03</pdfrwt>
<totfact> 0.97800606E+02</totfact>
</mgrwt>
</event>
<event>
 4    1  0.1573232E-005  0.3429186E+03  0.7818608E-02  0.1065560E+00
         -2   -1    0    0    0  501 -0.00000000000E+00  0.00000000000E+00  0.39762486784E+02  0.39762486866E+02  0.25500000000E-02 0. -1.
          2   -1    0    0  501    0  0.00000000000E+00 -0.00000000000E+00 -0.73934749451E+03  0.73934749451E+03  0.25500000000E-02 0.  1.
    5000001    1    1    2    0    0 -0.34937595409E+02  0.15652341547E+02 -0.28935296488E+03  0.33528460993E+03  0.16500000000E+03 0.  0.
   -5000001    1    1    2    0    0  0.34937595409E+02 -0.15652341547E+02 -0.41023204284E+03  0.44382537145E+03  0.16500000000E+03 0.  0.
<mgrwt>
<rscale>  0 0.34291862E+03</rscale>
<asrwt>0</asrwt>
<pdfrwt beam="1">  1        2 0.11374576E+00 0.34291862E+03</pdfrwt>
<pdfrwt beam="2">  1       -2 0.61173062E-02 0.34291862E+03</pdfrwt>
<totfact> 0.56522370E+03</totfact>
</mgrwt>
</event>
<event>
 4    1  0.1573232E-005  0.3950654E+03  0.7818608E-02  0.1045502E+00
         -2   -1    0    0    0  501 -0.00000000000E+00  0.00000000000E+00  0.19231678505E+02  0.19231678674E+02  0.25500000000E-02 0. -1.
          2   -1    0    0  501    0  0.00000000000E+00 -0.00000000000E+00 -0.20289006042E+04  0.20289006042E+04  0.25500000000E-02 0.  1.
    5000001    1    1    2    0    0  0.10611511175E+03 -0.16441229074E+02 -0.10889787063E+04  0.11066301793E+04  0.16500000000E+03 0.  0.
   -5000001    1    1    2    0    0 -0.10611511175E+03  0.16441229074E+02 -0.92069021947E+03  0.94150210365E+03  0.16500000000E+03 0.  0.
<mgrwt>
<rscale>  0 0.39506538E+03</rscale>
<asrwt>0</asrwt>
<pdfrwt beam="1">  1        2 0.31213839E+00 0.39506538E+03</pdfrwt>
<pdfrwt beam="2">  1       -2 0.29587214E-02 0.39506538E+03</pdfrwt>
<totfact> 0.30872611E+03</totfact>
</mgrwt>
</event>
<event>
 4    1  0.1573232E-005  0.4330360E+03  0.7818608E-02  0.1032905E+00
         -2   -1    0    0    0  501 -0.00000000000E+00  0.00000000000E+00  0.95000012573E+02  0.95000012607E+02  0.25500000000E-02 0. -1.
          2   -1    0    0  501    0  0.00000000000E+00 -0.00000000000E+00 -0.49347408021E+03  0.49347408022E+03  0.25500000000E-02 0.  1.
    5000001    1    1    2    0    0 -0.68345953629E+01 -0.12229367139E+03 -0.10654322175E+03  0.23147119013E+03  0.16500000000E+03 0.  0.
   -5000001    1    1    2    0    0  0.68345953629E+01  0.12229367139E+03 -0.29193084588E+03  0.35700290270E+03  0.16500000000E+03 0.  0.
<mgrwt>
<rscale>  0 0.43303600E+03</rscale>
<asrwt>0</asrwt>
<pdfrwt beam="1">  1        2 0.75919088E-01 0.43303600E+03</pdfrwt>
<pdfrwt beam="2">  1       -2 0.14615387E-01 0.43303600E+03</pdfrwt>
<totfact> 0.22725461E+03</totfact>
</mgrwt>
</event>
<event>
 4    1  0.1573232E-005  0.5114941E+03  0.7818608E-02  0.1010822E+00
         -2   -1    0    0    0  501 -0.00000000000E+00  0.00000000000E+00  0.14903420017E+03  0.14903420019E+03  0.25500000000E-02 0. -1.
          2   -1    0    0  501    0  0.00000000000E+00 -0.00000000000E+00 -0.43886949688E+03  0.43886949689E+03  0.25500000000E-02 0.  1.
    5000001    1    1    2    0    0  0.16384667689E+03  0.94182352422E+02 -0.87846135093E+02  0.26581571151E+03  0.16500000000E+03 0.  0.
   -5000001    1    1    2    0    0 -0.16384667689E+03 -0.94182352422E+02 -0.20198916161E+03  0.32208798557E+03  0.16500000000E+03 0.  0.
<mgrwt>
<rscale>  0 0.51149414E+03</rscale>
<asrwt>0</asrwt>
<pdfrwt beam="1">  1        2 0.67518383E-01 0.51149414E+03</pdfrwt>
<pdfrwt beam="2">  1       -2 0.22928339E-01 0.51149414E+03</pdfrwt>
<totfact> 0.11994208E+03</totfact>
</mgrwt>
</event>
<event>
 4    1  0.1573232E-005  0.5570121E+03  0.7818608E-02  0.9998838E-01
         -2   -1    0    0    0  501 -0.00000000000E+00  0.00000000000E+00  0.74914227664E+02  0.74914227707E+02  0.25500000000E-02 0. -1.
          2   -1    0    0  501    0  0.00000000000E+00 -0.00000000000E+00 -0.10353924794E+04  0.10353924794E+04  0.25500000000E-02 0.  1.
    5000001    1    1    2    0    0  0.58660542209E+02 -0.20508812779E+03 -0.61889251149E+03  0.67509639323E+03  0.16500000000E+03 0.  0.
   -5000001    1    1    2    0    0 -0.58660542209E+02  0.20508812779E+03 -0.34158574026E+03  0.43521031390E+03  0.16500000000E+03 0.  0.
<mgrwt>
<rscale>  0 0.55701213E+03</rscale>
<asrwt>0</asrwt>
<pdfrwt beam="1">  1        2 0.15929114E+00 0.55701213E+03</pdfrwt>
<pdfrwt beam="2">  1       -2 0.11525266E-01 0.55701213E+03</pdfrwt>
<totfact> 0.13117429E+03</totfact>
</mgrwt>
</event>
<event>
 4    1  0.1573232E-005  0.7632187E+03  0.7818608E-02  0.9614837E-01
          2   -1    0    0  501    0  0.00000000000E+00  0.00000000000E+00  0.53883810103E+03  0.53883810104E+03  0.25500000000E-02 0.  1.
         -2   -1    0    0    0  501 -0.00000000000E+00 -0.00000000000E+00 -0.27025875122E+03  0.27025875124E+03  0.25500000000E-02 0. -1.
    5000001    1    1    2    0    0  0.22787239015E+03  0.23341635295E+03  0.18200500544E+02  0.36601267497E+03  0.16500000000E+03 0.  0.
   -5000001    1    1    2    0    0 -0.22787239015E+03 -0.23341635295E+03  0.25037884926E+03  0.44308417730E+03  0.16500000000E+03 0.  0.
<mgrwt>
<rscale>  0 0.76321874E+03</rscale>
<asrwt>0</asrwt>
<pdfrwt beam="1">  1        2 0.82898169E-01 0.76321874E+03</pdfrwt>
<pdfrwt beam="2">  1       -2 0.41578270E-01 0.76321874E+03</pdfrwt>
<totfact> 0.31134232E+02</totfact>
</mgrwt>
</event>
<event>
 4    1  0.1573232E-005  0.4618197E+03  0.7818608E-02  0.1024255E+00
         -2   -1    0    0    0  501 -0.00000000000E+00  0.00000000000E+00  0.45424249598E+03  0.45424249599E+03  0.25500000000E-02 0. -1.
          2   -1    0    0  501    0  0.00000000000E+00 -0.00000000000E+00 -0.11738081107E+03  0.11738081110E+03  0.25500000000E-02 0.  1.
    5000001    1    1    2    0    0 -0.12358540506E+03 -0.48628734095E+02  0.28225286946E+03  0.35288778449E+03  0.16500000000E+03 0.  0.
   -5000001    1    1    2    0    0  0.12358540506E+03  0.48628734095E+02  0.54608815451E+02  0.21873552260E+03  0.16500000000E+03 0.  0.
<mgrwt>
<rscale>  0 0.46181967E+03</rscale>
<asrwt>0</asrwt>
<pdfrwt beam="1">  1        2 0.18058586E-01 0.46181967E+03</pdfrwt>
<pdfrwt beam="2">  1       -2 0.69883462E-01 0.46181967E+03</pdfrwt>
<totfact> 0.60234152E+02</totfact>
</mgrwt>
</event>
<event>
 4    1  0.1573232E-005  0.5210464E+03  0.7818608E-02  0.1008427E+00
         -2   -1    0    0    0  501 -0.00000000000E+00  0.00000000000E+00  0.53628633906E+02  0.53628633967E+02  0.25500000000E-02 0.  1.
          2   -1    0    0  501    0  0.00000000000E+00 -0.00000000000E+00 -0.12655989640E+04  0.12655989640E+04  0.25500000000E-02 0. -1.
    5000001    1    1    2    0    0  0.12648804971E+03  0.82108217866E+01 -0.20903094225E+03  0.29493317740E+03  0.16500000000E+03 0.  0.
   -5000001    1    1    2    0    0 -0.12648804971E+03 -0.82108217866E+01 -0.10029393878E+04  0.10242944206E+04  0.16500000000E+03 0.  0.
<mgrwt>
<rscale>  0 0.52104642E+03</rscale>
<asrwt>0</asrwt>
<pdfrwt beam="1">  1        2 0.19470751E+00 0.52104642E+03</pdfrwt>
<pdfrwt beam="2">  1       -2 0.82505601E-02 0.52104642E+03</pdfrwt>
<totfact> 0.16431365E+03</totfact>
</mgrwt>
</event>
<event>
 4    1  0.1573232E-005  0.5143025E+03  0.7818608E-02  0.1010112E+00
          2   -1    0    0  501    0  0.00000000000E+00  0.00000000000E+00  0.10983413213E+04  0.10983413213E+04  0.25500000000E-02 0.  1.
         -2   -1    0    0    0  501 -0.00000000000E+00 -0.00000000000E+00 -0.60206029000E+02  0.60206029054E+02  0.25500000000E-02 0. -1.
    5000001    1    1    2    0    0 -0.70330724665E+02  0.14627203649E+03  0.26661067612E+03  0.35305548022E+03  0.16500000000E+03 0.  0.
   -5000001    1    1    2    0    0  0.70330724665E+02 -0.14627203649E+03  0.77152461615E+03  0.80549187011E+03  0.16500000000E+03 0.  0.
<mgrwt>
<rscale>  0 0.51430252E+03</rscale>
<asrwt>0</asrwt>
<pdfrwt beam="1">  1        2 0.16897557E+00 0.51430252E+03</pdfrwt>
<pdfrwt beam="2">  1       -2 0.92624668E-02 0.51430252E+03</pdfrwt>
<totfact> 0.17126160E+03</totfact>
</mgrwt>
</event>
<event>
 4    1  0.1573232E-005  0.4037052E+03  0.7818608E-02  0.1042504E+00
          2   -1    0    0  501    0  0.00000000000E+00  0.00000000000E+00  0.73972136567E+02  0.73972136611E+02  0.25500000000E-02 0.  1.
         -2   -1    0    0    0  501 -0.00000000000E+00 -0.00000000000E+00 -0.55080836032E+03  0.55080836033E+03  0.25500000000E-02 0. -1.
    5000001    1    1    2    0    0 -0.34132339363E+02  0.10232057285E+03 -0.17122672207E+03  0.26110937664E+03  0.16500000000E+03 0.  0.
   -5000001    1    1    2    0    0  0.34132339363E+02 -0.10232057285E+03 -0.30560950168E+03  0.36367112030E+03  0.16500000000E+03 0.  0.
<mgrwt>
<rscale>  0 0.40370520E+03</rscale>
<asrwt>0</asrwt>
<pdfrwt beam="1">  1        2 0.11380329E-01 0.40370520E+03</pdfrwt>
<pdfrwt beam="2">  1       -2 0.84739745E-01 0.40370520E+03</pdfrwt>
<totfact> 0.68768971E+02</totfact>
</mgrwt>
</event>
<event>
 4    1  0.1573232E-005  0.6698893E+03  0.7818608E-02  0.9770158E-01
          2   -1    0    0  501    0  0.00000000000E+00  0.00000000000E+00  0.82191348154E+03  0.82191348154E+03  0.25500000000E-02 0.  1.
         -2   -1    0    0    0  501 -0.00000000000E+00 -0.00000000000E+00 -0.13649601658E+03  0.13649601660E+03  0.25500000000E-02 0. -1.
    5000001    1    1    2    0    0 -0.24043930594E+03  0.13153274237E+03  0.20070881196E+03  0.37765188912E+03  0.16500000000E+03 0.  0.
   -5000001    1    1    2    0    0  0.24043930594E+03 -0.13153274237E+03  0.48470865300E+03  0.58075760903E+03  0.16500000000E+03 0.  0.
<mgrwt>
<rscale>  0 0.66988929E+03</rscale>
<asrwt>0</asrwt>
<pdfrwt beam="1">  1        2 0.12644823E+00 0.66988929E+03</pdfrwt>
<pdfrwt beam="2">  1       -2 0.20999387E-01 0.66988929E+03</pdfrwt>
<totfact> 0.65449336E+02</totfact>
</mgrwt>
</event>
<event>
 4    1  0.1573232E-005  0.3499388E+03  0.7818608E-02  0.1062640E+00
         -2   -1    0    0    0  501 -0.00000000000E+00  0.00000000000E+00  0.20540234678E+02  0.20540234836E+02  0.25500000000E-02 0. -1.
          2   -1    0    0  501    0  0.00000000000E+00 -0.00000000000E+00 -0.14904544595E+04  0.14904544595E+04  0.25500000000E-02 0.  1.
    5000001    1    1    2    0    0  0.56316694884E+02  0.27325808280E+01 -0.67234819735E+03  0.69459062447E+03  0.16500000000E+03 0.  0.
   -5000001    1    1    2    0    0 -0.56316694884E+02 -0.27325808280E+01 -0.79756602744E+03  0.81640406983E+03  0.16500000000E+03 0.  0.
<mgrwt>
<rscale>  0 0.34993876E+03</rscale>
<asrwt>0</asrwt>
<pdfrwt beam="1">  1        2 0.22930060E+00 0.34993876E+03</pdfrwt>
<pdfrwt beam="2">  1       -2 0.31600373E-02 0.34993876E+03</pdfrwt>
<totfact> 0.54247552E+03</totfact>
</mgrwt>
</event>
<event>
 4    1  0.1573232E-005  0.3942080E+03  0.7818608E-02  0.1045804E+00
         -2   -1    0    0    0  501 -0.00000000000E+00  0.00000000000E+00  0.18371190549E+02  0.18371190726E+02  0.25500000000E-02 0. -1.
          2   -1    0    0  501    0  0.00000000000E+00 -0.00000000000E+00 -0.21147234154E+04  0.21147234154E+04  0.25500000000E-02 0.  1.
    5000001    1    1    2    0    0  0.92412752579E+02  0.52353897661E+02 -0.11485280490E+04  0.11651706857E+04  0.16500000000E+03 0.  0.
   -5000001    1    1    2    0    0 -0.92412752579E+02 -0.52353897661E+02 -0.94782417589E+03  0.96792392048E+03  0.16500000000E+03 0.  0.
<mgrwt>
<rscale>  0 0.39420800E+03</rscale>
<asrwt>0</asrwt>
<pdfrwt beam="1">  1        2 0.32534187E+00 0.39420800E+03</pdfrwt>
<pdfrwt beam="2">  1       -2 0.28263387E-02 0.39420800E+03</pdfrwt>
<totfact> 0.29753289E+03</totfact>
</mgrwt>
</event>
<event>
 4    1  0.1573232E-005  0.6488683E+03  0.7818608E-02  0.9808905E-01
          2   -1    0    0  501    0  0.00000000000E+00  0.00000000000E+00  0.45664916824E+03  0.45664916825E+03  0.25500000000E-02 0.  1.
         -2   -1    0    0    0  501 -0.00000000000E+00 -0.00000000000E+00 -0.23049976160E+03  0.23049976161E+03  0.25500000000E-02 0. -1.
    5000001    1    1    2    0    0  0.37632529422E+02 -0.26683381111E+03  0.19101014663E+03  0.36922400536E+03  0.16500000000E+03 0.  0.
   -5000001    1    1    2    0    0 -0.37632529422E+02  0.26683381111E+03  0.35139260014E+02  0.31792492449E+03  0.16500000000E+03 0.  0.
<mgrwt>
<rscale>  0 0.64886832E+03</rscale>
<asrwt>0</asrwt>
<pdfrwt beam="1">  1        2 0.70253718E-01 0.64886832E+03</pdfrwt>
<pdfrwt beam="2">  1       -2 0.35461502E-01 0.64886832E+03</pdfrwt>
<totfact> 0.51461592E+02</totfact>
</mgrwt>
</event>
<event>
 4    1  0.1573232E-005  0.6780304E+03  0.7818608E-02  0.9755559E-01
         -2   -1    0    0    0  501 -0.00000000000E+00  0.00000000000E+00  0.27663565658E+03  0.27663565660E+03  0.25500000000E-02 0. -1.
          2   -1    0    0  501    0  0.00000000000E+00 -0.00000000000E+00 -0.41546087226E+03  0.41546087227E+03  0.25500000000E-02 0.  1.
    5000001    1    1    2    0    0  0.19886727618E+03 -0.14883898477E+03  0.95193677653E+02  0.31303046687E+03  0.16500000000E+03 0.  0.
   -5000001    1    1    2    0    0 -0.19886727618E+03  0.14883898477E+03 -0.23401889333E+03  0.37906606200E+03  0.16500000000E+03 0.  0.
<mgrwt>
<rscale>  0 0.67803036E+03</rscale>
<asrwt>0</asrwt>
<pdfrwt beam="1">  1        2 0.63917057E-01 0.67803036E+03</pdfrwt>
<pdfrwt beam="2">  1       -2 0.42559332E-01 0.67803036E+03</pdfrwt>
<totfact> 0.40206952E+02</totfact>
</mgrwt>
</event>
<event>
 4    1  0.1573232E-005  0.3901733E+03  0.7818608E-02  0.1047236E+00
         -2   -1    0    0    0  501 -0.00000000000E+00  0.00000000000E+00  0.26046157334E+03  0.26046157335E+03  0.25500000000E-02 0. -1.
          2   -1    0    0  501    0  0.00000000000E+00 -0.00000000000E+00 -0.14612059602E+03  0.14612059605E+03  0.25500000000E-02 0.  1.
    5000001    1    1    2    0    0 -0.75746214265E+02 -0.62784265736E+02  0.21764408323E+02  0.19333401788E+03  0.16500000000E+03 0.  0.
   -5000001    1    1    2    0    0  0.75746214265E+02  0.62784265736E+02  0.92576568989E+02  0.21324815152E+03  0.16500000000E+03 0.  0.
<mgrwt>
<rscale>  0 0.39017330E+03</rscale>
<asrwt>0</asrwt>
<pdfrwt beam="1">  1        2 0.22480092E-01 0.39017330E+03</pdfrwt>
<pdfrwt beam="2">  1       -2 0.40071011E-01 0.39017330E+03</pdfrwt>
<totfact> 0.14511685E+03</totfact>
</mgrwt>
</event>
<event>
 4    1  0.1573232E-005  0.4151736E+03  0.7818608E-02  0.1038649E+00
          2   -1    0    0  501    0  0.00000000000E+00  0.00000000000E+00  0.12337458105E+03  0.12337458108E+03  0.25500000000E-02 0.  1.
         -2   -1    0    0    0  501 -0.00000000000E+00 -0.00000000000E+00 -0.34927997494E+03  0.34927997495E+03  0.25500000000E-02 0. -1.
    5000001    1    1    2    0    0  0.48069333595E+02 -0.15294065784E+02 -0.24435721850E+03  0.29913211047E+03  0.16500000000E+03 0.  0.
   -5000001    1    1    2    0    0 -0.48069333595E+02  0.15294065784E+02  0.18451824611E+02  0.17352244556E+03  0.16500000000E+03 0.  0.
<mgrwt>
<rscale>  0 0.41517356E+03</rscale>
<asrwt>0</asrwt>
<pdfrwt beam="1">  1        2 0.18980705E-01 0.41517356E+03</pdfrwt>
<pdfrwt beam="2">  1       -2 0.53735380E-01 0.41517356E+03</pdfrwt>
<totfact> 0.98666123E+02</totfact>
</mgrwt>
</event>
<event>
 4    1  0.1573232E-005  0.4046066E+03  0.7818608E-02  0.1042196E+00
         -2   -1    0    0    0  501 -0.00000000000E+00  0.00000000000E+00  0.27819156541E+03  0.27819156542E+03  0.25500000000E-02 0. -1.
          2   -1    0    0  501    0  0.00000000000E+00 -0.00000000000E+00 -0.14711671535E+03  0.14711671537E+03  0.25500000000E-02 0.  1.
    5000001    1    1    2    0    0 -0.31327087593E+02  0.78283769389E+02  0.15088201061E+03  0.23895630582E+03  0.16500000000E+03 0.  0.
   -5000001    1    1    2    0    0  0.31327087593E+02 -0.78283769389E+02 -0.19807160547E+02  0.18635197497E+03  0.16500000000E+03 0.  0.
<mgrwt>
<rscale>  0 0.40460662E+03</rscale>
<asrwt>0</asrwt>
<pdfrwt beam="1">  1        2 0.22633341E-01 0.40460662E+03</pdfrwt>
<pdfrwt beam="2">  1       -2 0.42798702E-01 0.40460662E+03</pdfrwt>
<totfact> 0.12678483E+03</totfact>
</mgrwt>
</event>
<event>
 4    1  0.1573232E-005  0.3881422E+03  0.7818608E-02  0.1047965E+00
          2   -1    0    0  501    0  0.00000000000E+00  0.00000000000E+00  0.43526144474E+03  0.43526144475E+03  0.25500000000E-02 0.  1.
         -2   -1    0    0    0  501 -0.00000000000E+00 -0.00000000000E+00 -0.86530961910E+02  0.86530961948E+02  0.25500000000E-02 0. -1.
    5000001    1    1    2    0    0 -0.87527539089E+02 -0.49061345991E+02  0.14848881121E+03  0.24360216096E+03  0.16500000000E+03 0.  0.
   -5000001    1    1    2    0    0  0.87527539089E+02  0.49061345991E+02  0.20024167162E+03  0.27819024573E+03  0.16500000000E+03 0.  0.
<mgrwt>
<rscale>  0 0.38814220E+03</rscale>
<asrwt>0</asrwt>
<pdfrwt beam="1">  1        2 0.66963301E-01 0.38814220E+03</pdfrwt>
<pdfrwt beam="2">  1       -2 0.13312455E-01 0.38814220E+03</pdfrwt>
<totfact> 0.30504316E+03</totfact>
</mgrwt>
</event>
<event>
 4    1  0.1573232E-005  0.6962341E+03  0.7818608E-02  0.9723694E-01
          2   -1    0    0  501    0  0.00000000000E+00  0.00000000000E+00  0.83501718800E+03  0.83501718801E+03  0.25500000000E-02 0.  1.
         -2   -1    0    0    0  501 -0.00000000000E+00 -0.00000000000E+00 -0.14512932718E+03  0.14512932720E+03  0.25500000000E-02 0. -1.
    5000001    1    1    2    0    0 -0.17428640589E+03  0.16198065952E+03  0.61700321483E+03  0.68156544253E+03  0.16500000000E+03 0.  0.
   -5000001    1    1    2    0    0  0.17428640589E+03 -0.16198065952E+03  0.72884645990E+02  0.29858107267E+03  0.16500000000E+03 0.  0.
<mgrwt>
<rscale>  0 0.69623411E+03</rscale>
<asrwt>0</asrwt>
<pdfrwt beam="1">  1        2 0.12846418E+00 0.69623411E+03</pdfrwt>
<pdfrwt beam="2">  1       -2 0.22327589E-01 0.69623411E+03</pdfrwt>
<totfact> 0.57453515E+02</totfact>
</mgrwt>
</event>
<event>
 4    1  0.1573232E-005  0.8755500E+03  0.7818608E-02  0.9456672E-01
          2   -1    0    0  501    0  0.00000000000E+00  0.00000000000E+00  0.89579496944E+03  0.89579496944E+03  0.25500000000E-02 0.  1.
         -2   -1    0    0    0  501 -0.00000000000E+00 -0.00000000000E+00 -0.21394063887E+03  0.21394063888E+03  0.25500000000E-02 0. -1.
    5000001    1    1    2    0    0  0.39392168728E+03  0.78960829296E+02  0.27135643031E+03  0.51212149002E+03  0.16500000000E+03 0.  0.
   -5000001    1    1    2    0    0 -0.39392168728E+03 -0.78960829296E+02  0.41049790026E+03  0.59761411830E+03  0.16500000000E+03 0.  0.
<mgrwt>
<rscale>  0 0.87554999E+03</rscale>
<asrwt>0</asrwt>
<pdfrwt beam="1">  1        2 0.13781461E+00 0.87554999E+03</pdfrwt>
<pdfrwt beam="2">  1       -2 0.32913945E-01 0.87554999E+03</pdfrwt>
<totfact> 0.25479403E+02</totfact>
</mgrwt>
</event>
<event>
 4    1  0.1573232E-005  0.5779631E+03  0.7818608E-02  0.9952211E-01
          2   -1    0    0  501    0  0.00000000000E+00  0.00000000000E+00  0.66775732190E+03  0.66775732191E+03  0.25500000000E-02 0.  1.
         -2   -1    0    0    0  501 -0.00000000000E+00 -0.00000000000E+00 -0.12506089069E+03  0.12506089071E+03  0.25500000000E-02 0. -1.
    5000001    1    1    2    0    0 -0.19672996814E+03 -0.12885980204E+03  0.31424233683E+03  0.42577080126E+03  0.16500000000E+03 0.  0.
   -5000001    1    1    2    0    0  0.19672996814E+03  0.12885980204E+03  0.22845409439E+03  0.36704741137E+03  0.16500000000E+03 0.  0.
<mgrwt>
<rscale>  0 0.57796306E+03</rscale>
<asrwt>0</asrwt>
<pdfrwt beam="1">  1        2 0.10273190E+00 0.57796306E+03</pdfrwt>
<pdfrwt beam="2">  1       -2 0.19240137E-01 0.57796306E+03</pdfrwt>
<totfact> 0.99697372E+02</totfact>
</mgrwt>
</event>
<event>
 4    1  0.1573232E-005  0.6386898E+03  0.7818608E-02  0.9828237E-01
          2   -1    0    0  501    0  0.00000000000E+00  0.00000000000E+00  0.11988428650E+03  0.11988428653E+03  0.25500000000E-02 0. -1.
         -2   -1    0    0    0  501 -0.00000000000E+00 -0.00000000000E+00 -0.85066319213E+03  0.85066319213E+03  0.25500000000E-02 0.  1.
    5000001    1    1    2    0    0 -0.19564347876E+03 -0.77061134716E+02 -0.63095456977E+03  0.68523241194E+03  0.16500000000E+03 0.  0.
   -5000001    1    1    2    0    0  0.19564347876E+03  0.77061134716E+02 -0.99824335855E+02  0.28531506671E+03  0.16500000000E+03 0.  0.
<mgrwt>
<rscale>  0 0.63868975E+03</rscale>
<asrwt>0</asrwt>
<pdfrwt beam="1">  1        2 0.18443737E-01 0.63868975E+03</pdfrwt>
<pdfrwt beam="2">  1       -2 0.13087126E+00 0.63868975E+03</pdfrwt>
<totfact> 0.13534953E+02</totfact>
</mgrwt>
</event>
<event>
 4    1  0.1573232E-005  0.3600712E+03  0.7818608E-02  0.1058556E+00
         -2   -1    0    0    0  501 -0.00000000000E+00  0.00000000000E+00  0.46954681295E+03  0.46954681296E+03  0.25500000000E-02 0. -1.
          2   -1    0    0  501    0  0.00000000000E+00 -0.00000000000E+00 -0.69029984113E+02  0.69029984161E+02  0.25500000000E-02 0.  1.
    5000001    1    1    2    0    0  0.18914194709E+00 -0.67017732194E+02  0.23973028492E+03  0.29864196241E+03  0.16500000000E+03 0.  0.
   -5000001    1    1    2    0    0 -0.18914194709E+00  0.67017732194E+02  0.16078654392E+03  0.23993483472E+03  0.16500000000E+03 0.  0.
<mgrwt>
<rscale>  0 0.36007115E+03</rscale>
<asrwt>0</asrwt>
<pdfrwt beam="1">  1        2 0.10619997E-01 0.36007115E+03</pdfrwt>
<pdfrwt beam="2">  1       -2 0.72237972E-01 0.36007115E+03</pdfrwt>
<totfact> 0.10653036E+03</totfact>
</mgrwt>
</event>
<event>
 4    1  0.1573232E-005  0.3739306E+03  0.7818608E-02  0.1053200E+00
         -2   -1    0    0    0  501 -0.00000000000E+00  0.00000000000E+00  0.20582282707E+02  0.20582282865E+02  0.25500000000E-02 0. -1.
          2   -1    0    0  501    0  0.00000000000E+00 -0.00000000000E+00 -0.16983553025E+04  0.16983553025E+04  0.25500000000E-02 0.  1.
    5000001    1    1    2    0    0 -0.69236281268E+02  0.31931397706E+02 -0.10401964978E+04  0.10559578736E+04  0.16500000000E+03 0.  0.
   -5000001    1    1    2    0    0  0.69236281268E+02 -0.31931397706E+02 -0.63757652198E+03  0.66297971174E+03  0.16500000000E+03 0.  0.
<mgrwt>
<rscale>  0 0.37393063E+03</rscale>
<asrwt>0</asrwt>
<pdfrwt beam="1">  1        2 0.26128532E+00 0.37393063E+03</pdfrwt>
<pdfrwt beam="2">  1       -2 0.31665064E-02 0.37393063E+03</pdfrwt>
<totfact> 0.41829180E+03</totfact>
</mgrwt>
</event>
<event>
 4    1  0.1573232E-005  0.3574768E+03  0.7818608E-02  0.1059587E+00
         -2   -1    0    0    0  501 -0.00000000000E+00  0.00000000000E+00  0.66622094765E+02  0.66622094814E+02  0.25500000000E-02 0. -1.
          2   -1    0    0  501    0  0.00000000000E+00 -0.00000000000E+00 -0.47953178102E+03  0.47953178103E+03  0.25500000000E-02 0.  1.
    5000001    1    1    2    0    0 -0.47489367799E+02 -0.18242076542E+01 -0.13061912796E+03  0.21574272728E+03  0.16500000000E+03 0.  0.
   -5000001    1    1    2    0    0  0.47489367799E+02  0.18242076542E+01 -0.28229055830E+03  0.33041114856E+03  0.16500000000E+03 0.  0.
<mgrwt>
<rscale>  0 0.35747678E+03</rscale>
<asrwt>0</asrwt>
<pdfrwt beam="1">  1        2 0.73774118E-01 0.35747678E+03</pdfrwt>
<pdfrwt beam="2">  1       -2 0.10249553E-01 0.35747678E+03</pdfrwt>
<totfact> 0.41799304E+03</totfact>
</mgrwt>
</event>
<event>
 4    1  0.1573232E-005  0.4660882E+03  0.7818608E-02  0.1023030E+00
          2   -1    0    0  501    0  0.00000000000E+00  0.00000000000E+00  0.15429060423E+04  0.15429060423E+04  0.25500000000E-02 0.  1.
         -2   -1    0    0    0  501 -0.00000000000E+00 -0.00000000000E+00 -0.35199520091E+02  0.35199520184E+02  0.25500000000E-02 0. -1.
    5000001    1    1    2    0    0  0.10944413389E+03 -0.81279426720E+02  0.10660168362E+04  0.10872907885E+04  0.16500000000E+03 0.  0.
   -5000001    1    1    2    0    0 -0.10944413389E+03  0.81279426720E+02  0.44168968597E+03  0.49081477396E+03  0.16500000000E+03 0.  0.
<mgrwt>
<rscale>  0 0.46608820E+03</rscale>
<asrwt>0</asrwt>
<pdfrwt beam="1">  1        2 0.23737017E+00 0.46608820E+03</pdfrwt>
<pdfrwt beam="2">  1       -2 0.54153105E-02 0.46608820E+03</pdfrwt>
<totfact> 0.22327994E+03</totfact>
</mgrwt>
</event>
<event>
 4    1  0.1573232E-005  0.7552517E+03  0.7818608E-02  0.9627147E-01
         -2   -1    0    0    0  501 -0.00000000000E+00  0.00000000000E+00  0.10363896855E+03  0.10363896858E+03  0.25500000000E-02 0. -1.
          2   -1    0    0  501    0  0.00000000000E+00 -0.00000000000E+00 -0.13759428275E+04  0.13759428275E+04  0.25500000000E-02 0.  1.
    5000001    1    1    2    0    0 -0.29996559939E+03  0.12920719260E+03 -0.45339760276E+03  0.58263903545E+03  0.16500000000E+03 0.  0.
   -5000001    1    1    2    0    0  0.29996559939E+03 -0.12920719260E+03 -0.81890625622E+03  0.89694276067E+03  0.16500000000E+03 0.  0.
<mgrwt>
<rscale>  0 0.75525173E+03</rscale>
<asrwt>0</asrwt>
<pdfrwt beam="1">  1        2 0.21168350E+00 0.75525173E+03</pdfrwt>
<pdfrwt beam="2">  1       -2 0.15944458E-01 0.75525173E+03</pdfrwt>
<totfact> 0.47651934E+02</totfact>
</mgrwt>
</event>
<event>
 4    1  0.1573232E-005  0.4347942E+03  0.7818608E-02  0.1032356E+00
         -2   -1    0    0    0  501 -0.00000000000E+00  0.00000000000E+00  0.69379828441E+02  0.69379828488E+02  0.25500000000E-02 0. -1.
          2   -1    0    0  501    0  0.00000000000E+00 -0.00000000000E+00 -0.68119956618E+03  0.68119956618E+03  0.25500000000E-02 0.  1.
    5000001    1    1    2    0    0  0.80865003261E+02 -0.79781042593E+02 -0.45170030582E+03  0.49412784762E+03  0.16500000000E+03 0.  0.
   -5000001    1    1    2    0    0 -0.80865003261E+02  0.79781042593E+02 -0.16011943191E+03  0.25645154705E+03  0.16500000000E+03 0.  0.
<mgrwt>
<rscale>  0 0.43479425E+03</rscale>
<asrwt>0</asrwt>
<pdfrwt beam="1">  1        2 0.10479993E+00 0.43479425E+03</pdfrwt>
<pdfrwt beam="2">  1       -2 0.10673820E-01 0.43479425E+03</pdfrwt>
<totfact> 0.26049369E+03</totfact>
</mgrwt>
</event>
<event>
 4    1  0.1573232E-005  0.9378488E+03  0.7818608E-02  0.9379467E-01
          2   -1    0    0  501    0  0.00000000000E+00  0.00000000000E+00  0.66203964962E+03  0.66203964963E+03  0.25500000000E-02 0.  1.
         -2   -1    0    0    0  501 -0.00000000000E+00 -0.00000000000E+00 -0.33214037074E+03  0.33214037074E+03  0.25500000000E-02 0. -1.
    5000001    1    1    2    0    0 -0.34191958587E+03 -0.26980229837E+03  0.10724852566E+03  0.47794301926E+03  0.16500000000E+03 0.  0.
   -5000001    1    1    2    0    0  0.34191958587E+03  0.26980229837E+03  0.22265075323E+03  0.51623700111E+03  0.16500000000E+03 0.  0.
<mgrwt>
<rscale>  0 0.93784880E+03</rscale>
<asrwt>0</asrwt>
<pdfrwt beam="1">  1        2 0.10185225E+00 0.93784880E+03</pdfrwt>
<pdfrwt beam="2">  1       -2 0.51098519E-01 0.93784880E+03</pdfrwt>
<totfact> 0.15933713E+02</totfact>
</mgrwt>
</event>
<event>
 4    1  0.1573232E-005  0.4940785E+03  0.7818608E-02  0.1015336E+00
          2   -1    0    0  501    0  0.00000000000E+00  0.00000000000E+00  0.20974446089E+04  0.20974446089E+04  0.25500000000E-02 0.  1.
         -2   -1    0    0    0  501 -0.00000000000E+00 -0.00000000000E+00 -0.29096548937E+02  0.29096549049E+02  0.25500000000E-02 0. -1.
    5000001    1    1    2    0    0 -0.11596887350E+03  0.11944102000E+03  0.13700134253E+04  0.13899196819E+04  0.16500000000E+03 0.  0.
   -5000001    1    1    2    0    0  0.11596887350E+03 -0.11944102000E+03  0.69833463471E+03  0.73662147601E+03  0.16500000000E+03 0.  0.
<mgrwt>
<rscale>  0 0.49407854E+03</rscale>
<asrwt>0</asrwt>
<pdfrwt beam="1">  1        2 0.32268368E+00 0.49407854E+03</pdfrwt>
<pdfrwt beam="2">  1       -2 0.44763936E-02 0.49407854E+03</pdfrwt>
<totfact> 0.15038356E+03</totfact>
</mgrwt>
</event>
<event>
 4    1  0.1573232E-005  0.9145991E+03  0.7818608E-02  0.9407514E-01
         -2   -1    0    0    0  501 -0.00000000000E+00  0.00000000000E+00  0.31559815816E+03  0.31559815817E+03  0.25500000000E-02 0. -1.
          2   -1    0    0  501    0  0.00000000000E+00 -0.00000000000E+00 -0.66262384440E+03  0.66262384440E+03  0.25500000000E-02 0.  1.
    5000001    1    1    2    0    0  0.30630018196E+03  0.29007369097E+03 -0.10641685665E+03  0.46530860194E+03  0.16500000000E+03 0.  0.
   -5000001    1    1    2    0    0 -0.30630018196E+03 -0.29007369097E+03 -0.24060882960E+03  0.51291340063E+03  0.16500000000E+03 0.  0.
<mgrwt>
<rscale>  0 0.91459907E+03</rscale>
<asrwt>0</asrwt>
<pdfrwt beam="1">  1        2 0.10194213E+00 0.91459907E+03</pdfrwt>
<pdfrwt beam="2">  1       -2 0.48553563E-01 0.91459907E+03</pdfrwt>
<totfact> 0.17681695E+02</totfact>
</mgrwt>
</event>
<event>
 4    1  0.1573232E-005  0.8162739E+03  0.7818608E-02  0.9536756E-01
          2   -1    0    0  501    0  0.00000000000E+00  0.00000000000E+00  0.22639707730E+04  0.22639707730E+04  0.25500000000E-02 0.  1.
         -2   -1    0    0    0  501 -0.00000000000E+00 -0.00000000000E+00 -0.73576816021E+02  0.73576816065E+02  0.25500000000E-02 0. -1.
    5000001    1    1    2    0    0  0.34901268364E+03  0.10050218214E+03  0.84818533459E+03  0.93731206317E+03  0.16500000000E+03 0.  0.
   -5000001    1    1    2    0    0 -0.34901268364E+03 -0.10050218214E+03  0.13422086224E+04  0.14002355259E+04  0.16500000000E+03 0.  0.
<mgrwt>
<rscale>  0 0.81627388E+03</rscale>
<asrwt>0</asrwt>
<pdfrwt beam="1">  1        2 0.34830316E+00 0.81627388E+03</pdfrwt>
<pdfrwt beam="2">  1       -2 0.11319511E-01 0.81627388E+03</pdfrwt>
<totfact> 0.27292856E+02</totfact>
</mgrwt>
</event>
<event>
 4    1  0.1573232E-005  0.7342865E+03  0.7818608E-02  0.9660330E-01
         -2   -1    0    0    0  501 -0.00000000000E+00  0.00000000000E+00  0.10016058615E+03  0.10016058618E+03  0.25500000000E-02 0. -1.
          2   -1    0    0  501    0  0.00000000000E+00 -0.00000000000E+00 -0.13457806146E+04  0.13457806146E+04  0.25500000000E-02 0.  1.
    5000001    1    1    2    0    0  0.13739615434E+03  0.29491931067E+03 -0.70433666981E+03  0.79320252614E+03  0.16500000000E+03 0.  0.
   -5000001    1    1    2    0    0 -0.13739615434E+03 -0.29491931067E+03 -0.54128335866E+03  0.65273867466E+03  0.16500000000E+03 0.  0.
<mgrwt>
<rscale>  0 0.73428653E+03</rscale>
<asrwt>0</asrwt>
<pdfrwt beam="1">  1        2 0.20704316E+00 0.73428653E+03</pdfrwt>
<pdfrwt beam="2">  1       -2 0.15409322E-01 0.73428653E+03</pdfrwt>
<totfact> 0.52590575E+02</totfact>
</mgrwt>
</event>
<event>
 4    1  0.1573232E-005  0.7265174E+03  0.7818608E-02  0.9672929E-01
          2   -1    0    0  501    0  0.00000000000E+00  0.00000000000E+00  0.14462628368E+04  0.14462628368E+04  0.25500000000E-02 0.  1.
         -2   -1    0    0    0  501 -0.00000000000E+00 -0.00000000000E+00 -0.91239907294E+02  0.91239907329E+02  0.25500000000E-02 0. -1.
    5000001    1    1    2    0    0 -0.11349557077E+03 -0.29904453573E+03  0.57334034830E+03  0.67694389274E+03  0.16500000000E+03 0.  0.
   -5000001    1    1    2    0    0  0.11349557077E+03  0.29904453573E+03  0.78168258118E+03  0.86055885136E+03  0.16500000000E+03 0.  0.
<mgrwt>
<rscale>  0 0.72651741E+03</rscale>
<asrwt>0</asrwt>
<pdfrwt beam="1">  1        2 0.22250195E+00 0.72651741E+03</pdfrwt>
<pdfrwt beam="2">  1       -2 0.14036910E-01 0.72651741E+03</pdfrwt>
<totfact> 0.54030376E+02</totfact>
</mgrwt>
</event>
<event>
 4    1  0.1573232E-005  0.6257061E+03  0.7818608E-02  0.9853464E-01
         -2   -1    0    0    0  501 -0.00000000000E+00  0.00000000000E+00  0.15069800662E+03  0.15069800664E+03  0.25500000000E-02 0. -1.
          2   -1    0    0  501    0  0.00000000000E+00 -0.00000000000E+00 -0.64949117669E+03  0.64949117670E+03  0.25500000000E-02 0.  1.
    5000001    1    1    2    0    0 -0.25215858181E+03 -0.83953529407E+02 -0.24369451738E+03  0.39654024169E+03  0.16500000000E+03 0.  0.
   -5000001    1    1    2    0    0  0.25215858181E+03  0.83953529407E+02 -0.25509865270E+03  0.40364894164E+03  0.16500000000E+03 0.  0.
<mgrwt>
<rscale>  0 0.62570608E+03</rscale>
<asrwt>0</asrwt>
<pdfrwt beam="1">  1        2 0.99921718E-01 0.62570608E+03</pdfrwt>
<pdfrwt beam="2">  1       -2 0.23184309E-01 0.62570608E+03</pdfrwt>
<totfact> 0.74289551E+02</totfact>
</mgrwt>
</event>
<event>
 4    1  0.1573232E-005  0.7421491E+03  0.7818608E-02  0.9647748E-01
         -2   -1    0    0    0  501 -0.00000000000E+00  0.00000000000E+00  0.17101188478E+03  0.17101188480E+03  0.25500000000E-02 0. -1.
          2   -1    0    0  501    0  0.00000000000E+00 -0.00000000000E+00 -0.80518560890E+03  0.80518560890E+03  0.25500000000E-02 0.  1.
    5000001    1    1    2    0    0 -0.22551975956E+03 -0.10050517510E+02  0.37953595406E+01  0.27964187742E+03  0.16500000000E+03 0.  0.
   -5000001    1    1    2    0    0  0.22551975956E+03  0.10050517510E+02 -0.63796908366E+03  0.69655561628E+03  0.16500000000E+03 0.  0.
<mgrwt>
<rscale>  0 0.74214906E+03</rscale>
<asrwt>0</asrwt>
<pdfrwt beam="1">  1        2 0.12387471E+00 0.74214906E+03</pdfrwt>
<pdfrwt beam="2">  1       -2 0.26309521E-01 0.74214906E+03</pdfrwt>
<totfact> 0.44855845E+02</totfact>
</mgrwt>
</event>
<event>
 4    1  0.1573232E-005  0.5075025E+03  0.7818608E-02  0.1011839E+00
          2   -1    0    0  501    0  0.00000000000E+00  0.00000000000E+00  0.19774043608E+03  0.19774043609E+03  0.25500000000E-02 0.  1.
         -2   -1    0    0    0  501 -0.00000000000E+00 -0.00000000000E+00 -0.32562734434E+03  0.32562734435E+03  0.25500000000E-02 0. -1.
    5000001    1    1    2    0    0  0.14792515169E+03  0.83466438227E+02  0.30100563663E+02  0.23870387669E+03  0.16500000000E+03 0.  0.
   -5000001    1    1    2    0    0 -0.14792515169E+03 -0.83466438227E+02 -0.15798747192E+03  0.28466390375E+03  0.16500000000E+03 0.  0.
<mgrwt>
<rscale>  0 0.50750249E+03</rscale>
<asrwt>0</asrwt>
<pdfrwt beam="1">  1        2 0.30421606E-01 0.50750249E+03</pdfrwt>
<pdfrwt beam="2">  1       -2 0.50096514E-01 0.50750249E+03</pdfrwt>
<totfact> 0.66430016E+02</totfact>
</mgrwt>
</event>
<event>
 4    1  0.1573232E-005  0.4069576E+03  0.7818608E-02  0.1041397E+00
         -2   -1    0    0    0  501 -0.00000000000E+00  0.00000000000E+00  0.15464011606E+03  0.15464011608E+03  0.25500000000E-02 0. -1.
          2   -1    0    0  501    0  0.00000000000E+00 -0.00000000000E+00 -0.26774176676E+03  0.26774176678E+03  0.25500000000E-02 0.  1.
    5000001    1    1    2    0    0  0.51773323412E+02  0.10166590023E+03 -0.21167887767E+02  0.20171641421E+03  0.16500000000E+03 0.  0.
   -5000001    1    1    2    0    0 -0.51773323412E+02 -0.10166590023E+03 -0.91933762937E+02  0.22066546865E+03  0.16500000000E+03 0.  0.
<mgrwt>
<rscale>  0 0.40695758E+03</rscale>
<asrwt>0</asrwt>
<pdfrwt beam="1">  1        2 0.41191041E-01 0.40695758E+03</pdfrwt>
<pdfrwt beam="2">  1       -2 0.23790787E-01 0.40695758E+03</pdfrwt>
<totfact> 0.19340550E+03</totfact>
</mgrwt>
</event>
<event>
 4    1  0.1573232E-005  0.4065926E+03  0.7818608E-02  0.1041521E+00
          2   -1    0    0  501    0  0.00000000000E+00  0.00000000000E+00  0.81275857588E+02  0.81275857628E+02  0.25500000000E-02 0.  1.
         -2   -1    0    0    0  501 -0.00000000000E+00 -0.00000000000E+00 -0.50850751042E+03  0.50850751043E+03  0.25500000000E-02 0. -1.
    5000001    1    1    2    0    0  0.60902076432E+02 -0.99349933739E+02 -0.18038231637E+03  0.27081774740E+03  0.16500000000E+03 0.  0.
   -5000001    1    1    2    0    0 -0.60902076432E+02  0.99349933739E+02 -0.24684933646E+03  0.31896562065E+03  0.16500000000E+03 0.  0.
<mgrwt>
<rscale>  0 0.40659259E+03</rscale>
<asrwt>0</asrwt>
<pdfrwt beam="1">  1        2 0.12503978E-01 0.40659259E+03</pdfrwt>
<pdfrwt beam="2">  1       -2 0.78231923E-01 0.40659259E+03</pdfrwt>
<totfact> 0.73187820E+02</totfact>
</mgrwt>
</event>
<event>
 4    1  0.1573232E-005  0.3979994E+03  0.7818608E-02  0.1044475E+00
          2   -1    0    0  501    0  0.00000000000E+00  0.00000000000E+00  0.19670434387E+04  0.19670434387E+04  0.25500000000E-02 0.  1.
         -2   -1    0    0    0  501 -0.00000000000E+00 -0.00000000000E+00 -0.20132183382E+02  0.20132183543E+02  0.25500000000E-02 0. -1.
    5000001    1    1    2    0    0 -0.75848147040E+02  0.76450870854E+02  0.11127392657E+04  0.11300492691E+04  0.16500000000E+03 0.  0.
   -5000001    1    1    2    0    0  0.75848147040E+02 -0.76450870854E+02  0.83417198953E+03  0.85712635310E+03  0.16500000000E+03 0.  0.
<mgrwt>
<rscale>  0 0.39799939E+03</rscale>
<asrwt>0</asrwt>
<pdfrwt beam="1">  1        2 0.30262199E+00 0.39799939E+03</pdfrwt>
<pdfrwt beam="2">  1       -2 0.30972598E-02 0.39799939E+03</pdfrwt>
<totfact> 0.31089891E+03</totfact>
</mgrwt>
</event>
<event>
 4    1  0.1573232E-005  0.3635470E+03  0.7818608E-02  0.1057188E+00
          2   -1    0    0  501    0  0.00000000000E+00  0.00000000000E+00  0.46543351504E+02  0.46543351574E+02  0.25500000000E-02 0.  1.
         -2   -1    0    0    0  501 -0.00000000000E+00 -0.00000000000E+00 -0.70991039603E+03  0.70991039603E+03  0.25500000000E-02 0. -1.
    5000001    1    1    2    0    0 -0.14217159685E+02  0.58144487016E+02 -0.23334261221E+03  0.29198747178E+03  0.16500000000E+03 0.  0.
   -5000001    1    1    2    0    0  0.14217159685E+02 -0.58144487016E+02 -0.43002443231E+03  0.46446627583E+03  0.16500000000E+03 0.  0.
<mgrwt>
<rscale>  0 0.36354702E+03</rscale>
<asrwt>0</asrwt>
<pdfrwt beam="1">  1        2 0.71605162E-02 0.36354702E+03</pdfrwt>
<pdfrwt beam="2">  1       -2 0.10921698E+00 0.36354702E+03</pdfrwt>
<totfact> 0.68697735E+02</totfact>
</mgrwt>
</event>
<event>
 4    1  0.1573232E-005  0.4277765E+03  0.7818608E-02  0.1034565E+00
         -2   -1    0    0    0  501 -0.00000000000E+00  0.00000000000E+00  0.50611043987E+02  0.50611044052E+02  0.25500000000E-02 0. -1.
          2   -1    0    0  501    0  0.00000000000E+00 -0.00000000000E+00 -0.90391701323E+03  0.90391701323E+03  0.25500000000E-02 0.  1.
    5000001    1    1    2    0    0 -0.10269620920E+02  0.12524399072E+03 -0.31002971597E+03  0.37300797191E+03  0.16500000000E+03 0.  0.
   -5000001    1    1    2    0    0  0.10269620920E+02 -0.12524399072E+03 -0.54327625327E+03  0.58152008537E+03  0.16500000000E+03 0.  0.
<mgrwt>
<rscale>  0 0.42777650E+03</rscale>
<asrwt>0</asrwt>
<pdfrwt beam="1">  1        2 0.13906414E+00 0.42777650E+03</pdfrwt>
<pdfrwt beam="2">  1       -2 0.77863151E-02 0.42777650E+03</pdfrwt>
<totfact> 0.29919561E+03</totfact>
</mgrwt>
</event>
<event>
 4    1  0.1573232E-005  0.4563755E+03  0.7818608E-02  0.1025838E+00
         -2   -1    0    0    0  501 -0.00000000000E+00  0.00000000000E+00  0.21968938577E+03  0.21968938578E+03  0.25500000000E-02 0. -1.
          2   -1    0    0  501    0  0.00000000000E+00 -0.00000000000E+00 -0.23701487832E+03  0.23701487834E+03  0.25500000000E-02 0.  1.
    5000001    1    1    2    0    0 -0.62403104346E+02  0.12073511123E+03  0.71229206504E+02  0.22532135801E+03  0.16500000000E+03 0.  0.
   -5000001    1    1    2    0    0  0.62403104346E+02 -0.12073511123E+03 -0.88554699062E+02  0.23138290611E+03  0.16500000000E+03 0.  0.
<mgrwt>
<rscale>  0 0.45637552E+03</rscale>
<asrwt>0</asrwt>
<pdfrwt beam="1">  1        2 0.36463827E-01 0.45637552E+03</pdfrwt>
<pdfrwt beam="2">  1       -2 0.33798367E-01 0.45637552E+03</pdfrwt>
<totfact> 0.11680758E+03</totfact>
</mgrwt>
</event>
<event>
 4    1  0.1573232E-005  0.6716470E+03  0.7818608E-02  0.9766987E-01
          2   -1    0    0  501    0  0.00000000000E+00  0.00000000000E+00  0.53556609832E+03  0.53556609833E+03  0.25500000000E-02 0.  1.
         -2   -1    0    0    0  501 -0.00000000000E+00 -0.00000000000E+00 -0.21057611257E+03  0.21057611259E+03  0.25500000000E-02 0. -1.
    5000001    1    1    2    0    0 -0.11531764334E+03 -0.24830096488E+03  0.48114524338E+02  0.32325150499E+03  0.16500000000E+03 0.  0.
   -5000001    1    1    2    0    0  0.11531764334E+03  0.24830096488E+03  0.27687546141E+03  0.42289070593E+03  0.16500000000E+03 0.  0.
<mgrwt>
<rscale>  0 0.67164701E+03</rscale>
<asrwt>0</asrwt>
<pdfrwt beam="1">  1        2 0.82394782E-01 0.67164701E+03</pdfrwt>
<pdfrwt beam="2">  1       -2 0.32396326E-01 0.67164701E+03</pdfrwt>
<totfact> 0.50755689E+02</totfact>
</mgrwt>
</event>
<event>
 4    1  0.1573232E-005  0.3821786E+03  0.7818608E-02  0.1050131E+00
          2   -1    0    0  501    0  0.00000000000E+00  0.00000000000E+00  0.39769342019E+04  0.39769342019E+04  0.25500000000E-02 0.  1.
         -2   -1    0    0    0  501 -0.00000000000E+00 -0.00000000000E+00 -0.91817237014E+01  0.91817240555E+01  0.25500000000E-02 0. -1.
    5000001    1    1    2    0    0  0.16443510962E+02 -0.94342369819E+02  0.18699839105E+04  0.18796903195E+04  0.16500000000E+03 0.  0.
   -5000001    1    1    2    0    0 -0.16443510962E+02  0.94342369819E+02  0.20977685677E+04  0.21064256064E+04  0.16500000000E+03 0.  0.
<mgrwt>
<rscale>  0 0.38217855E+03</rscale>
<asrwt>0</asrwt>
<pdfrwt beam="1">  1        2 0.61183854E+00 0.38217855E+03</pdfrwt>
<pdfrwt beam="2">  1       -2 0.14125671E-02 0.38217855E+03</pdfrwt>
<totfact> 0.58499514E+02</totfact>
</mgrwt>
</event>
<event>
 4    1  0.1573232E-005  0.6158155E+03  0.7818608E-02  0.9873126E-01
          2   -1    0    0  501    0  0.00000000000E+00  0.00000000000E+00  0.34272402972E+03  0.34272402973E+03  0.25500000000E-02 0.  1.
         -2   -1    0    0    0  501 -0.00000000000E+00 -0.00000000000E+00 -0.27662835768E+03  0.27662835769E+03  0.25500000000E-02 0. -1.
    5000001    1    1    2    0    0 -0.62596226195E+02  0.17587374624E+03  0.21500770257E+03  0.32909447627E+03  0.16500000000E+03 0.  0.
   -5000001    1    1    2    0    0  0.62596226195E+02 -0.17587374624E+03 -0.14891203053E+03  0.29025791115E+03  0.16500000000E+03 0.  0.
<mgrwt>
<rscale>  0 0.61581551E+03</rscale>
<asrwt>0</asrwt>
<pdfrwt beam="1">  1        2 0.52726774E-01 0.61581551E+03</pdfrwt>
<pdfrwt beam="2">  1       -2 0.42558209E-01 0.61581551E+03</pdfrwt>
<totfact> 0.49925133E+02</totfact>
</mgrwt>
</event>
<event>
 4    1  0.1573232E-005  0.5005509E+03  0.7818608E-02  0.1013635E+00
         -2   -1    0    0    0  501 -0.00000000000E+00  0.00000000000E+00  0.10411658988E+03  0.10411658992E+03  0.25500000000E-02 0. -1.
          2   -1    0    0  501    0  0.00000000000E+00 -0.00000000000E+00 -0.60161203344E+03  0.60161203345E+03  0.25500000000E-02 0.  1.
    5000001    1    1    2    0    0 -0.11032679404E+02 -0.18355922578E+03 -0.19240298053E+03  0.31314472102E+03  0.16500000000E+03 0.  0.
   -5000001    1    1    2    0    0  0.11032679404E+02  0.18355922578E+03 -0.30509246303E+03  0.39258390235E+03  0.16500000000E+03 0.  0.
<mgrwt>
<rscale>  0 0.50055087E+03</rscale>
<asrwt>0</asrwt>
<pdfrwt beam="1">  1        2 0.92555695E-01 0.50055087E+03</pdfrwt>
<pdfrwt beam="2">  1       -2 0.16017937E-01 0.50055087E+03</pdfrwt>
<totfact> 0.15488693E+03</totfact>
</mgrwt>
</event>
<event>
 4    1  0.1573232E-005  0.4461091E+03  0.7818608E-02  0.1028889E+00
         -2   -1    0    0    0  501 -0.00000000000E+00  0.00000000000E+00  0.31278860986E+02  0.31278861090E+02  0.25500000000E-02 0. -1.
          2   -1    0    0  501    0  0.00000000000E+00 -0.00000000000E+00 -0.15906377363E+04  0.15906377363E+04  0.25500000000E-02 0.  1.
    5000001    1    1    2    0    0 -0.98845597395E+02  0.63387772484E+02 -0.11195707189E+04  0.11377398896E+04  0.16500000000E+03 0.  0.
   -5000001    1    1    2    0    0  0.98845597395E+02 -0.63387772484E+02 -0.43978815644E+03  0.48417670780E+03  0.16500000000E+03 0.  0.
<mgrwt>
<rscale>  0 0.44610912E+03</rscale>
<asrwt>0</asrwt>
<pdfrwt beam="1">  1        2 0.24471344E+00 0.44610912E+03</pdfrwt>
<pdfrwt beam="2">  1       -2 0.48121337E-02 0.44610912E+03</pdfrwt>
<totfact> 0.25253695E+03</totfact>
</mgrwt>
</event>
<event>
 4    1  0.1573232E-005  0.3792872E+03  0.7818608E-02  0.1051198E+00
          2   -1    0    0  501    0  0.00000000000E+00  0.00000000000E+00  0.29866273853E+03  0.29866273854E+03  0.25500000000E-02 0.  1.
         -2   -1    0    0    0  501 -0.00000000000E+00 -0.00000000000E+00 -0.12041907713E+03  0.12041907716E+03  0.25500000000E-02 0. -1.
    5000001    1    1    2    0    0 -0.66945525096E+02 -0.19900941221E+02  0.15778651776E+03  0.23874533708E+03  0.16500000000E+03 0.  0.
   -5000001    1    1    2    0    0  0.66945525096E+02  0.19900941221E+02  0.20457143637E+02  0.18033647861E+03  0.16500000000E+03 0.  0.
<mgrwt>
<rscale>  0 0.37928718E+03</rscale>
<asrwt>0</asrwt>
<pdfrwt beam="1">  1        2 0.45948113E-01 0.37928718E+03</pdfrwt>
<pdfrwt beam="2">  1       -2 0.18526012E-01 0.37928718E+03</pdfrwt>
<totfact> 0.26485265E+03</totfact>
</mgrwt>
</event>
<event>
 4    1  0.1573232E-005  0.1398022E+04  0.7818608E-02  0.8955252E-01
         -2   -1    0    0    0  501 -0.00000000000E+00  0.00000000000E+00  0.12930401337E+03  0.12930401340E+03  0.25500000000E-02 0. -1.
          2   -1    0    0  501    0  0.00000000000E+00 -0.00000000000E+00 -0.37788159429E+04  0.37788159429E+04  0.25500000000E-02 0.  1.
    5000001    1    1    2    0    0  0.29809086936E+03  0.59341267976E+03 -0.22239723319E+04  0.23268594087E+04  0.16500000000E+03 0.  0.
   -5000001    1    1    2    0    0 -0.29809086936E+03 -0.59341267976E+03 -0.14255395976E+04  0.15812605476E+04  0.16500000000E+03 0.  0.
<mgrwt>
<rscale>  0 0.13980216E+04</rscale>
<asrwt>0</asrwt>
<pdfrwt beam="1">  1        2 0.58135622E+00 0.13980216E+04</pdfrwt>
<pdfrwt beam="2">  1       -2 0.19892928E-01 0.13980216E+04</pdfrwt>
<totfact> 0.10954549E+01</totfact>
</mgrwt>
</event>
<event>
 4    1  0.1573232E-005  0.8864795E+03  0.7818608E-02  0.9442642E-01
         -2   -1    0    0    0  501 -0.00000000000E+00  0.00000000000E+00  0.18873925942E+03  0.18873925944E+03  0.25500000000E-02 0. -1.
          2   -1    0    0  501    0  0.00000000000E+00 -0.00000000000E+00 -0.10409146889E+04  0.10409146889E+04  0.25500000000E-02 0.  1.
    5000001    1    1    2    0    0 -0.40460445814E+02 -0.33766774950E+03 -0.10500626580E+03  0.39231093865E+03  0.16500000000E+03 0.  0.
   -5000001    1    1    2    0    0  0.40460445814E+02  0.33766774950E+03 -0.74716916372E+03  0.83734300973E+03  0.16500000000E+03 0.  0.
<mgrwt>
<rscale>  0 0.88647948E+03</rscale>
<asrwt>0</asrwt>
<pdfrwt beam="1">  1        2 0.16014072E+00 0.88647948E+03</pdfrwt>
<pdfrwt beam="2">  1       -2 0.29036810E-01 0.88647948E+03</pdfrwt>
<totfact> 0.25887786E+02</totfact>
</mgrwt>
</event>
<event>
 4    1  0.1573232E-005  0.5420499E+03  0.7818608E-02  0.1003351E+00
          2   -1    0    0  501    0  0.00000000000E+00  0.00000000000E+00  0.91444785480E+02  0.91444785515E+02  0.25500000000E-02 0.  1.
         -2   -1    0    0    0  501 -0.00000000000E+00 -0.00000000000E+00 -0.80326642771E+03  0.80326642771E+03  0.25500000000E-02 0. -1.
    5000001    1    1    2    0    0  0.36779912143E+02 -0.13176593577E+03 -0.62970514187E+03  0.66518312476E+03  0.16500000000E+03 0.  0.
   -5000001    1    1    2    0    0 -0.36779912143E+02  0.13176593577E+03 -0.82116500359E+02  0.22952808847E+03  0.16500000000E+03 0.  0.
<mgrwt>
<rscale>  0 0.54204991E+03</rscale>
<asrwt>0</asrwt>
<pdfrwt beam="1">  1        2 0.14068429E-01 0.54204991E+03</pdfrwt>
<pdfrwt beam="2">  1       -2 0.12357945E+00 0.54204991E+03</pdfrwt>
<totfact> 0.21705934E+02</totfact>
</mgrwt>
</event>
<event>
 4    1  0.1573232E-005  0.1963928E+04  0.7818608E-02  0.8623674E-01
          2   -1    0    0  501    0  0.00000000000E+00  0.00000000000E+00  0.11538181055E+04  0.11538181055E+04  0.25500000000E-02 0.  1.
         -2   -1    0    0    0  501 -0.00000000000E+00 -0.00000000000E+00 -0.83570619130E+03  0.83570619130E+03  0.25500000000E-02 0. -1.
    5000001    1    1    2    0    0 -0.87280788113E+03 -0.39013205866E+03  0.53172855874E+01  0.97018034101E+03  0.16500000000E+03 0.  0.
   -5000001    1    1    2    0    0  0.87280788113E+03  0.39013205866E+03  0.31279462863E+03  0.10193439558E+04  0.16500000000E+03 0.  0.
<mgrwt>
<rscale>  0 0.19639276E+04</rscale>
<asrwt>0</asrwt>
<pdfrwt beam="1">  1        2 0.17751048E+00 0.19639276E+04</pdfrwt>
<pdfrwt beam="2">  1       -2 0.12857018E+00 0.19639276E+04</pdfrwt>
<totfact> 0.84050324E+00</totfact>
</mgrwt>
</event>
<event>
 4    1  0.1573232E-005  0.5339043E+03  0.7818608E-02  0.1005290E+00
         -2   -1    0    0    0  501 -0.00000000000E+00  0.00000000000E+00  0.26406864272E+03  0.26406864273E+03  0.25500000000E-02 0. -1.
          2   -1    0    0  501    0  0.00000000000E+00 -0.00000000000E+00 -0.26986709793E+03  0.26986709794E+03  0.25500000000E-02 0.  1.
    5000001    1    1    2    0    0  0.18755543969E+03  0.51044995087E+02 -0.81997531386E+02  0.26782686504E+03  0.16500000000E+03 0.  0.
   -5000001    1    1    2    0    0 -0.18755543969E+03 -0.51044995087E+02  0.76199076181E+02  0.26610887564E+03  0.16500000000E+03 0.  0.
<mgrwt>
<rscale>  0 0.53390425E+03</rscale>
<asrwt>0</asrwt>
<pdfrwt beam="1">  1        2 0.41518015E-01 0.53390425E+03</pdfrwt>
<pdfrwt beam="2">  1       -2 0.40625945E-01 0.53390425E+03</pdfrwt>
<totfact> 0.71262587E+02</totfact>
</mgrwt>
</event>
<event>
 4    1  0.1573232E-005  0.6605611E+03  0.7818608E-02  0.9787161E-01
         -2   -1    0    0    0  501 -0.00000000000E+00  0.00000000000E+00  0.82408559934E+02  0.82408559973E+02  0.25500000000E-02 0. -1.
          2   -1    0    0  501    0  0.00000000000E+00 -0.00000000000E+00 -0.13237124191E+04  0.13237124191E+04  0.25500000000E-02 0.  1.
    5000001    1    1    2    0    0  0.27503448369E+03 -0.61677686019E+02 -0.72519856735E+03  0.79535279358E+03  0.16500000000E+03 0.  0.
   -5000001    1    1    2    0    0 -0.27503448369E+03  0.61677686019E+02 -0.51610529182E+03  0.61076818550E+03  0.16500000000E+03 0.  0.
<mgrwt>
<rscale>  0 0.66056108E+03</rscale>
<asrwt>0</asrwt>
<pdfrwt beam="1">  1        2 0.20364805E+00 0.66056108E+03</pdfrwt>
<pdfrwt beam="2">  1       -2 0.12678241E-01 0.66056108E+03</pdfrwt>
<totfact> 0.75356767E+02</totfact>
</mgrwt>
</event>
<event>
 4    1  0.1573232E-005  0.3830858E+03  0.7818608E-02  0.1049799E+00
         -2   -1    0    0    0  501 -0.00000000000E+00  0.00000000000E+00  0.32829397934E+03  0.32829397935E+03  0.25500000000E-02 0. -1.
          2   -1    0    0  501    0  0.00000000000E+00 -0.00000000000E+00 -0.11175558359E+03  0.11175558362E+03  0.25500000000E-02 0.  1.
    5000001    1    1    2    0    0  0.54773204520E+02  0.79050116465E+02  0.12509909664E+03  0.22830639244E+03  0.16500000000E+03 0.  0.
   -5000001    1    1    2    0    0 -0.54773204520E+02 -0.79050116465E+02  0.91439299111E+02  0.21174317054E+03  0.16500000000E+03 0.  0.
<mgrwt>
<rscale>  0 0.38308581E+03</rscale>
<asrwt>0</asrwt>
<pdfrwt beam="1">  1        2 0.17193167E-01 0.38308581E+03</pdfrwt>
<pdfrwt beam="2">  1       -2 0.50506766E-01 0.38308581E+03</pdfrwt>
<totfact> 0.12555604E+03</totfact>
</mgrwt>
</event>
<event>
 4    1  0.1573232E-005  0.4222416E+03  0.7818608E-02  0.1036339E+00
         -2   -1    0    0    0  501 -0.00000000000E+00  0.00000000000E+00  0.21132899993E+03  0.21132899994E+03  0.25500000000E-02 0. -1.
          2   -1    0    0  501    0  0.00000000000E+00 -0.00000000000E+00 -0.21091281413E+03  0.21091281415E+03  0.25500000000E-02 0.  1.
    5000001    1    1    2    0    0  0.76239907017E+02  0.10602847363E+03  0.17308786753E+02  0.21113776247E+03  0.16500000000E+03 0.  0.
   -5000001    1    1    2    0    0 -0.76239907017E+02 -0.10602847363E+03 -0.16892600960E+02  0.21110405162E+03  0.16500000000E+03 0.  0.
<mgrwt>
<rscale>  0 0.42224161E+03</rscale>
<asrwt>0</asrwt>
<pdfrwt beam="1">  1        2 0.32448125E-01 0.42224161E+03</pdfrwt>
<pdfrwt beam="2">  1       -2 0.32512154E-01 0.42224161E+03</pdfrwt>
<totfact> 0.14278948E+03</totfact>
</mgrwt>
</event>
<event>
 4    1  0.1573232E-005  0.5193587E+03  0.7818608E-02  0.1008846E+00
         -2   -1    0    0    0  501 -0.00000000000E+00  0.00000000000E+00  0.24089090564E+03  0.24089090566E+03  0.25500000000E-02 0. -1.
          2   -1    0    0  501    0  0.00000000000E+00 -0.00000000000E+00 -0.27993321868E+03  0.27993321869E+03  0.25500000000E-02 0.  1.
    5000001    1    1    2    0    0  0.10703399379E+03  0.13830776158E+03  0.78852798778E+02  0.25303769801E+03  0.16500000000E+03 0.  0.
   -5000001    1    1    2    0    0 -0.10703399379E+03 -0.13830776158E+03 -0.11789511181E+03  0.26778642634E+03  0.16500000000E+03 0.  0.
<mgrwt>
<rscale>  0 0.51935871E+03</rscale>
<asrwt>0</asrwt>
<pdfrwt beam="1">  1        2 0.43066649E-01 0.51935871E+03</pdfrwt>
<pdfrwt beam="2">  1       -2 0.37060139E-01 0.51935871E+03</pdfrwt>
<totfact> 0.81707997E+02</totfact>
</mgrwt>
</event>
<event>
 4    1  0.1573232E-005  0.4507674E+03  0.7818608E-02  0.1027493E+00
          2   -1    0    0  501    0  0.00000000000E+00  0.00000000000E+00  0.74425379747E+03  0.74425379747E+03  0.25500000000E-02 0.  1.
         -2   -1    0    0    0  501 -0.00000000000E+00 -0.00000000000E+00 -0.68253352380E+02  0.68253352428E+02  0.25500000000E-02 0. -1.
    5000001    1    1    2    0    0  0.14946944878E+03  0.28486774768E+02  0.37494941067E+03  0.43699504919E+03  0.16500000000E+03 0.  0.
   -5000001    1    1    2    0    0 -0.14946944878E+03 -0.28486774768E+02  0.30105103441E+03  0.37551210071E+03  0.16500000000E+03 0.  0.
<mgrwt>
<rscale>  0 0.45076742E+03</rscale>
<asrwt>0</asrwt>
<pdfrwt beam="1">  1        2 0.11450059E+00 0.45076742E+03</pdfrwt>
<pdfrwt beam="2">  1       -2 0.10500515E-01 0.45076742E+03</pdfrwt>
<totfact> 0.23960640E+03</totfact>
</mgrwt>
</event>
<event>
 4    1  0.1573232E-005  0.6151561E+03  0.7818608E-02  0.9874451E-01
         -2   -1    0    0    0  501 -0.00000000000E+00  0.00000000000E+00  0.22377074251E+03  0.22377074253E+03  0.25500000000E-02 0. -1.
          2   -1    0    0  501    0  0.00000000000E+00 -0.00000000000E+00 -0.42277317677E+03  0.42277317677E+03  0.25500000000E-02 0.  1.
    5000001    1    1    2    0    0 -0.22484133850E+03 -0.12660624961E+03 -0.12916352567E+03  0.33240184461E+03  0.16500000000E+03 0.  0.
   -5000001    1    1    2    0    0  0.22484133850E+03  0.12660624961E+03 -0.69838908584E+02  0.31414207469E+03  0.16500000000E+03 0.  0.
<mgrwt>
<rscale>  0 0.61515614E+03</rscale>
<asrwt>0</asrwt>
<pdfrwt beam="1">  1        2 0.65042027E-01 0.61515614E+03</pdfrwt>
<pdfrwt beam="2">  1       -2 0.34426268E-01 0.61515614E+03</pdfrwt>
<totfact> 0.59445830E+02</totfact>
</mgrwt>
</event>
<event>
 4    1  0.1573232E-005  0.4478134E+03  0.7818608E-02  0.1028376E+00
          2   -1    0    0  501    0  0.00000000000E+00  0.00000000000E+00  0.23429024868E+04  0.23429024868E+04  0.25500000000E-02 0.  1.
         -2   -1    0    0    0  501 -0.00000000000E+00 -0.00000000000E+00 -0.21398337273E+02  0.21398337425E+02  0.25500000000E-02 0. -1.
    5000001    1    1    2    0    0  0.75348382895E+01  0.89694518692E+02  0.51829502168E+03  0.55132260064E+03  0.16500000000E+03 0.  0.
   -5000001    1    1    2    0    0 -0.75348382895E+01 -0.89694518692E+02  0.18032091279E+04  0.18129782236E+04  0.16500000000E+03 0.  0.
<mgrwt>
<rscale>  0 0.44781343E+03</rscale>
<asrwt>0</asrwt>
<pdfrwt beam="1">  1        2 0.36044643E+00 0.44781343E+03</pdfrwt>
<pdfrwt beam="2">  1       -2 0.32920528E-02 0.44781343E+03</pdfrwt>
<totfact> 0.17727476E+03</totfact>
</mgrwt>
</event>
<event>
 4    1  0.1573232E-005  0.6181715E+03  0.7818608E-02  0.9868407E-01
          2   -1    0    0  501    0  0.00000000000E+00  0.00000000000E+00  0.84232325804E+03  0.84232325805E+03  0.25500000000E-02 0.  1.
         -2   -1    0    0    0  501 -0.00000000000E+00 -0.00000000000E+00 -0.11341726618E+03  0.11341726620E+03  0.25500000000E-02 0. -1.
    5000001    1    1    2    0    0  0.11020664047E+02 -0.25779264542E+03  0.42876863454E+03  0.52692128922E+03  0.16500000000E+03 0.  0.
   -5000001    1    1    2    0    0 -0.11020664047E+02  0.25779264542E+03  0.30013735732E+03  0.42881923503E+03  0.16500000000E+03 0.  0.
<mgrwt>
<rscale>  0 0.61817150E+03</rscale>
<asrwt>0</asrwt>
<pdfrwt beam="1">  1        2 0.12958819E+00 0.61817150E+03</pdfrwt>
<pdfrwt beam="2">  1       -2 0.17448810E-01 0.61817150E+03</pdfrwt>
<totfact> 0.87472269E+02</totfact>
</mgrwt>
</event>
<event>
 4    1  0.1573232E-005  0.6088581E+03  0.7818608E-02  0.9887197E-01
         -2   -1    0    0    0  501 -0.00000000000E+00  0.00000000000E+00  0.78970690808E+02  0.78970690850E+02  0.25500000000E-02 0. -1.
          2   -1    0    0  501    0  0.00000000000E+00 -0.00000000000E+00 -0.11735624593E+04  0.11735624593E+04  0.25500000000E-02 0.  1.
    5000001    1    1    2    0    0  0.97105318047E+02 -0.69959598847E+02 -0.82134532457E+02  0.21976093758E+03  0.16500000000E+03 0.  0.
   -5000001    1    1    2    0    0 -0.97105318047E+02  0.69959598847E+02 -0.10124572360E+04  0.10327722126E+04  0.16500000000E+03 0.  0.
<mgrwt>
<rscale>  0 0.60885807E+03</rscale>
<asrwt>0</asrwt>
<pdfrwt beam="1">  1        2 0.18054806E+00 0.60885807E+03</pdfrwt>
<pdfrwt beam="2">  1       -2 0.12149338E-01 0.60885807E+03</pdfrwt>
<totfact> 0.99048482E+02</totfact>
</mgrwt>
</event>
<event>
 4    1  0.1573232E-005  0.6498947E+03  0.7818608E-02  0.9806977E-01
         -2   -1    0    0    0  501 -0.00000000000E+00  0.00000000000E+00  0.42045498333E+02  0.42045498410E+02  0.25500000000E-02 0. -1.
          2   -1    0    0  501    0  0.00000000000E+00 -0.00000000000E+00 -0.25113457493E+04  0.25113457493E+04  0.25500000000E-02 0.  1.
    5000001    1    1    2    0    0 -0.13608167402E+03  0.23801323391E+03 -0.10124913450E+04  0.10618532126E+04  0.16500000000E+03 0.  0.
   -5000001    1    1    2    0    0  0.13608167402E+03 -0.23801323391E+03 -0.14568089060E+04  0.14915380351E+04  0.16500000000E+03 0.  0.
<mgrwt>
<rscale>  0 0.64989471E+03</rscale>
<asrwt>0</asrwt>
<pdfrwt beam="1">  1        2 0.38636077E+00 0.64989471E+03</pdfrwt>
<pdfrwt beam="2">  1       -2 0.64685402E-02 0.64989471E+03</pdfrwt>
<totfact> 0.49536179E+02</totfact>
</mgrwt>
</event>
<event>
 4    1  0.1573232E-005  0.5543541E+03  0.7818608E-02  0.1000491E+00
          2   -1    0    0  501    0  0.00000000000E+00  0.00000000000E+00  0.13307567206E+04  0.13307567206E+04  0.25500000000E-02 0.  1.
         -2   -1    0    0    0  501 -0.00000000000E+00 -0.00000000000E+00 -0.57731910830E+02  0.57731910887E+02  0.25500000000E-02 0. -1.
    5000001    1    1    2    0    0 -0.12489894949E+03 -0.18439347116E+03  0.63950609706E+03  0.69698905871E+03  0.16500000000E+03 0.  0.
   -5000001    1    1    2    0    0  0.12489894949E+03  0.18439347116E+03  0.63351871269E+03  0.69149957275E+03  0.16500000000E+03 0.  0.
<mgrwt>
<rscale>  0 0.55435414E+03</rscale>
<asrwt>0</asrwt>
<pdfrwt beam="1">  1        2 0.20473182E+00 0.55435414E+03</pdfrwt>
<pdfrwt beam="2">  1       -2 0.88818317E-02 0.55435414E+03</pdfrwt>
<totfact> 0.13394446E+03</totfact>
</mgrwt>
</event>
<event>
 4    1  0.1573232E-005  0.4301852E+03  0.7818608E-02  0.1033801E+00
         -2   -1    0    0    0  501 -0.00000000000E+00  0.00000000000E+00  0.96178343500E+02  0.96178343534E+02  0.25500000000E-02 0. -1.
          2   -1    0    0  501    0  0.00000000000E+00 -0.00000000000E+00 -0.48103174284E+03  0.48103174285E+03  0.25500000000E-02 0.  1.
    5000001    1    1    2    0    0 -0.56472114553E+02  0.83763598426E+02 -0.31854172581E+03  0.37269192536E+03  0.16500000000E+03 0.  0.
   -5000001    1    1    2    0    0  0.56472114553E+02 -0.83763598426E+02 -0.66311673531E+02  0.20451816103E+03  0.16500000000E+03 0.  0.
<mgrwt>
<rscale>  0 0.43018524E+03</rscale>
<asrwt>0</asrwt>
<pdfrwt beam="1">  1        2 0.74004882E-01 0.43018524E+03</pdfrwt>
<pdfrwt beam="2">  1       -2 0.14796669E-01 0.43018524E+03</pdfrwt>
<totfact> 0.22915952E+03</totfact>
</mgrwt>
</event>
<event>
 4    1  0.1573232E-005  0.7010849E+03  0.7818608E-02  0.9715379E-01
         -2   -1    0    0    0  501 -0.00000000000E+00  0.00000000000E+00  0.11967868097E+03  0.11967868099E+03  0.25500000000E-02 0. -1.
          2   -1    0    0  501    0  0.00000000000E+00 -0.00000000000E+00 -0.10267494871E+04  0.10267494871E+04  0.25500000000E-02 0.  1.
    5000001    1    1    2    0    0 -0.70987602486E+02 -0.27916300919E+03 -0.26937303858E+03  0.42750211616E+03  0.16500000000E+03 0.  0.
   -5000001    1    1    2    0    0  0.70987602486E+02  0.27916300919E+03 -0.63769776754E+03  0.71892605192E+03  0.16500000000E+03 0.  0.
<mgrwt>
<rscale>  0 0.70108494E+03</rscale>
<asrwt>0</asrwt>
<pdfrwt beam="1">  1        2 0.15796145E+00 0.70108494E+03</pdfrwt>
<pdfrwt beam="2">  1       -2 0.18412105E-01 0.70108494E+03</pdfrwt>
<totfact> 0.60137525E+02</totfact>
</mgrwt>
</event>
<event>
 4    1  0.1573232E-005  0.1272515E+04  0.7818608E-02  0.9051649E-01
         -2   -1    0    0    0  501 -0.00000000000E+00  0.00000000000E+00  0.19991705207E+03  0.19991705209E+03  0.25500000000E-02 0. -1.
          2   -1    0    0  501    0  0.00000000000E+00 -0.00000000000E+00 -0.20249580666E+04  0.20249580666E+04  0.25500000000E-02 0.  1.
    5000001    1    1    2    0    0  0.21501278087E+03 -0.55528118016E+03 -0.11778580781E+04  0.13300911011E+04  0.16500000000E+03 0.  0.
   -5000001    1    1    2    0    0 -0.21501278087E+03  0.55528118016E+03 -0.64718293639E+03  0.89478401759E+03  0.16500000000E+03 0.  0.
<mgrwt>
<rscale>  0 0.12725151E+04</rscale>
<asrwt>0</asrwt>
<pdfrwt beam="1">  1        2 0.31153200E+00 0.12725151E+04</pdfrwt>
<pdfrwt beam="2">  1       -2 0.30756471E-01 0.12725151E+04</pdfrwt>
<totfact> 0.62262961E+01</totfact>
</mgrwt>
</event>
<event>
 4    1  0.1573232E-005  0.7966727E+03  0.7818608E-02  0.9564846E-01
         -2   -1    0    0    0  501 -0.00000000000E+00  0.00000000000E+00  0.17583418207E+03  0.17583418208E+03  0.25500000000E-02 0. -1.
          2   -1    0    0  501    0  0.00000000000E+00 -0.00000000000E+00 -0.90239485606E+03  0.90239485607E+03  0.25500000000E-02 0.  1.
    5000001    1    1    2    0    0  0.21737618168E+03 -0.25651532532E+03 -0.17972237255E+03  0.41542465945E+03  0.16500000000E+03 0.  0.
   -5000001    1    1    2    0    0 -0.21737618168E+03  0.25651532532E+03 -0.54683830145E+03  0.66280437870E+03  0.16500000000E+03 0.  0.
<mgrwt>
<rscale>  0 0.79667273E+03</rscale>
<asrwt>0</asrwt>
<pdfrwt beam="1">  1        2 0.13882998E+00 0.79667273E+03</pdfrwt>
<pdfrwt beam="2">  1       -2 0.27051413E-01 0.79667273E+03</pdfrwt>
<totfact> 0.36430533E+02</totfact>
</mgrwt>
</event>
<event>
 4    1  0.1573232E-005  0.3781177E+03  0.7818608E-02  0.1051632E+00
          2   -1    0    0  501    0  0.00000000000E+00  0.00000000000E+00  0.33905043682E+04  0.33905043682E+04  0.25500000000E-02 0.  1.
         -2   -1    0    0    0  501 -0.00000000000E+00 -0.00000000000E+00 -0.10542163944E+02  0.10542164252E+02  0.25500000000E-02 0. -1.
    5000001    1    1    2    0    0  0.20009211624E+02  0.88075336225E+02  0.18607899876E+04  0.18702732451E+04  0.16500000000E+03 0.  0.
   -5000001    1    1    2    0    0 -0.20009211624E+02 -0.88075336225E+02  0.15191722167E+04  0.15307732874E+04  0.16500000000E+03 0.  0.
<mgrwt>
<rscale>  0 0.37811772E+03</rscale>
<asrwt>0</asrwt>
<pdfrwt beam="1">  1        2 0.52161554E+00 0.37811772E+03</pdfrwt>
<pdfrwt beam="2">  1       -2 0.16218730E-02 0.37811772E+03</pdfrwt>
<totfact> 0.12370063E+03</totfact>
</mgrwt>
</event>
<event>
 4    1  0.1573232E-005  0.6456280E+03  0.7818608E-02  0.9815018E-01
         -2   -1    0    0    0  501 -0.00000000000E+00  0.00000000000E+00  0.18602468715E+03  0.18602468717E+03  0.25500000000E-02 0. -1.
          2   -1    0    0  501    0  0.00000000000E+00 -0.00000000000E+00 -0.56018851562E+03  0.56018851562E+03  0.25500000000E-02 0.  1.
    5000001    1    1    2    0    0  0.11296435122E+03 -0.25341852857E+03 -0.18544814978E+03  0.37228740447E+03  0.16500000000E+03 0.  0.
   -5000001    1    1    2    0    0 -0.11296435122E+03  0.25341852857E+03 -0.18871567869E+03  0.37392579832E+03  0.16500000000E+03 0.  0.
<mgrwt>
<rscale>  0 0.64562805E+03</rscale>
<asrwt>0</asrwt>
<pdfrwt beam="1">  1        2 0.86182848E-01 0.64562805E+03</pdfrwt>
<pdfrwt beam="2">  1       -2 0.28619183E-01 0.64562805E+03</pdfrwt>
<totfact> 0.60634965E+02</totfact>
</mgrwt>
</event>
<event>
 4    1  0.1573232E-005  0.5211560E+03  0.7818608E-02  0.1008400E+00
          2   -1    0    0  501    0  0.00000000000E+00  0.00000000000E+00  0.31085837779E+03  0.31085837780E+03  0.25500000000E-02 0.  1.
         -2   -1    0    0    0  501 -0.00000000000E+00 -0.00000000000E+00 -0.21843030809E+03  0.21843030810E+03  0.25500000000E-02 0. -1.
    5000001    1    1    2    0    0  0.15843786254E+03 -0.72891518105E+02  0.14908717032E+03  0.28260876500E+03  0.16500000000E+03 0.  0.
   -5000001    1    1    2    0    0 -0.15843786254E+03  0.72891518105E+02 -0.56659100613E+02  0.24667992091E+03  0.16500000000E+03 0.  0.
<mgrwt>
<rscale>  0 0.52115599E+03</rscale>
<asrwt>0</asrwt>
<pdfrwt beam="1">  1        2 0.47824365E-01 0.52115599E+03</pdfrwt>
<pdfrwt beam="2">  1       -2 0.33604663E-01 0.52115599E+03</pdfrwt>
<totfact> 0.87641032E+02</totfact>
</mgrwt>
</event>
<event>
 4    1  0.1573232E-005  0.5514767E+03  0.7818608E-02  0.1001153E+00
         -2   -1    0    0    0  501 -0.00000000000E+00  0.00000000000E+00  0.66829523590E+02  0.66829523639E+02  0.25500000000E-02 0. -1.
          2   -1    0    0  501    0  0.00000000000E+00 -0.00000000000E+00 -0.11376955279E+04  0.11376955279E+04  0.25500000000E-02 0.  1.
    5000001    1    1    2    0    0 -0.16134077101E+02  0.17411713944E+03 -0.83033435676E+03  0.86444041478E+03  0.16500000000E+03 0.  0.
   -5000001    1    1    2    0    0  0.16134077101E+02 -0.17411713944E+03 -0.24053164756E+03  0.34008463677E+03  0.16500000000E+03 0.  0.
<mgrwt>
<rscale>  0 0.55147675E+03</rscale>
<asrwt>0</asrwt>
<pdfrwt beam="1">  1        2 0.17503007E+00 0.55147675E+03</pdfrwt>
<pdfrwt beam="2">  1       -2 0.10281466E-01 0.55147675E+03</pdfrwt>
<totfact> 0.13693174E+03</totfact>
</mgrwt>
</event>
<event>
 4    1  0.1573232E-005  0.6324854E+03  0.7818608E-02  0.9840211E-01
          2   -1    0    0  501    0  0.00000000000E+00  0.00000000000E+00  0.42173434452E+03  0.42173434453E+03  0.25500000000E-02 0.  1.
         -2   -1    0    0    0  501 -0.00000000000E+00 -0.00000000000E+00 -0.23713846061E+03  0.23713846062E+03  0.25500000000E-02 0. -1.
    5000001    1    1    2    0    0 -0.11404556803E+03  0.23285957158E+03  0.14660344469E+02  0.30768473697E+03  0.16500000000E+03 0.  0.
   -5000001    1    1    2    0    0  0.11404556803E+03 -0.23285957158E+03  0.16993553945E+03  0.35118806818E+03  0.16500000000E+03 0.  0.
<mgrwt>
<rscale>  0 0.63248536E+03</rscale>
<asrwt>0</asrwt>
<pdfrwt beam="1">  1        2 0.64882206E-01 0.63248536E+03</pdfrwt>
<pdfrwt beam="2">  1       -2 0.36482841E-01 0.63248536E+03</pdfrwt>
<totfact> 0.53363410E+02</totfact>
</mgrwt>
</event>
<event>
 4    1  0.1573232E-005  0.7221974E+03  0.7818608E-02  0.9680007E-01
         -2   -1    0    0    0  501 -0.00000000000E+00  0.00000000000E+00  0.80214462054E+02  0.80214462094E+02  0.25500000000E-02 0. -1.
          2   -1    0    0  501    0  0.00000000000E+00 -0.00000000000E+00 -0.16255457823E+04  0.16255457823E+04  0.25500000000E-02 0.  1.
    5000001    1    1    2    0    0 -0.93944515207E+02 -0.30694305426E+03 -0.74597824559E+03  0.82870269300E+03  0.16500000000E+03 0.  0.
   -5000001    1    1    2    0    0  0.93944515207E+02  0.30694305426E+03 -0.79935307466E+03  0.87705755140E+03  0.16500000000E+03 0.  0.
<mgrwt>
<rscale>  0 0.72219743E+03</rscale>
<asrwt>0</asrwt>
<pdfrwt beam="1">  1        2 0.25008394E+00 0.72219743E+03</pdfrwt>
<pdfrwt beam="2">  1       -2 0.12340688E-01 0.72219743E+03</pdfrwt>
<totfact> 0.53293492E+02</totfact>
</mgrwt>
</event>
<event>
 4    1  0.1573232E-005  0.3626372E+03  0.7818608E-02  0.1057544E+00
         -2   -1    0    0    0  501 -0.00000000000E+00  0.00000000000E+00  0.49328299967E+02  0.49328300033E+02  0.25500000000E-02 0. -1.
          2   -1    0    0  501    0  0.00000000000E+00 -0.00000000000E+00 -0.66648223521E+03  0.66648223521E+03  0.25500000000E-02 0.  1.
    5000001    1    1    2    0    0 -0.47409347517E+02 -0.57633744294E+02 -0.32646676995E+03  0.37332940763E+03  0.16500000000E+03 0.  0.
   -5000001    1    1    2    0    0  0.47409347517E+02  0.57633744294E+02 -0.29068716528E+03  0.34248112762E+03  0.16500000000E+03 0.  0.
<mgrwt>
<rscale>  0 0.36263721E+03</rscale>
<asrwt>0</asrwt>
<pdfrwt beam="1">  1        2 0.10253572E+00 0.36263721E+03</pdfrwt>
<pdfrwt beam="2">  1       -2 0.75889697E-02 0.36263721E+03</pdfrwt>
<totfact> 0.45945378E+03</totfact>
</mgrwt>
</event>
<event>
 4    1  0.1573232E-005  0.3511058E+03  0.7818608E-02  0.1062162E+00
          2   -1    0    0  501    0  0.00000000000E+00  0.00000000000E+00  0.16282128487E+03  0.16282128489E+03  0.25500000000E-02 0.  1.
         -2   -1    0    0    0  501 -0.00000000000E+00 -0.00000000000E+00 -0.18928002974E+03  0.18928002976E+03  0.25500000000E-02 0. -1.
    5000001    1    1    2    0    0 -0.15203413905E+02  0.56146766609E+02  0.13105118748E+01  0.17495805393E+03  0.16500000000E+03 0.  0.
   -5000001    1    1    2    0    0  0.15203413905E+02 -0.56146766609E+02 -0.27769256745E+02  0.17714326071E+03  0.16500000000E+03 0.  0.
<mgrwt>
<rscale>  0 0.35110578E+03</rscale>
<asrwt>0</asrwt>
<pdfrwt beam="1">  1        2 0.25049429E-01 0.35110578E+03</pdfrwt>
<pdfrwt beam="2">  1       -2 0.29120004E-01 0.35110578E+03</pdfrwt>
<totfact> 0.23281225E+03</totfact>
</mgrwt>
</event>
<event>
 4    1  0.1573232E-005  0.3929226E+03  0.7818608E-02  0.1046258E+00
          2   -1    0    0  501    0  0.00000000000E+00  0.00000000000E+00  0.89526130836E+03  0.89526130837E+03  0.25500000000E-02 0.  1.
         -2   -1    0    0    0  501 -0.00000000000E+00 -0.00000000000E+00 -0.43112603305E+02  0.43112603381E+02  0.25500000000E-02 0. -1.
    5000001    1    1    2    0    0 -0.98051826833E+02 -0.36356649288E+02  0.37620296202E+03  0.42389814263E+03  0.16500000000E+03 0.  0.
   -5000001    1    1    2    0    0  0.98051826833E+02  0.36356649288E+02  0.47594574304E+03  0.51447576912E+03  0.16500000000E+03 0.  0.
<mgrwt>
<rscale>  0 0.39292262E+03</rscale>
<asrwt>0</asrwt>
<pdfrwt beam="1">  1        2 0.13773251E+00 0.39292262E+03</pdfrwt>
<pdfrwt beam="2">  1       -2 0.66327084E-02 0.39292262E+03</pdfrwt>
<totfact> 0.38959567E+03</totfact>
</mgrwt>
</event>
<event>
 4    1  0.1573232E-005  0.4514847E+03  0.7818608E-02  0.1027280E+00
         -2   -1    0    0    0  501 -0.00000000000E+00  0.00000000000E+00  0.74277773744E+02  0.74277773788E+02  0.25500000000E-02 0. -1.
          2   -1    0    0  501    0  0.00000000000E+00 -0.00000000000E+00 -0.68606813308E+03  0.68606813309E+03  0.25500000000E-02 0.  1.
    5000001    1    1    2    0    0  0.11907567930E+03 -0.83895625377E+02 -0.22140229589E+03  0.31218819642E+03  0.16500000000E+03 0.  0.
   -5000001    1    1    2    0    0 -0.11907567930E+03  0.83895625377E+02 -0.39038806345E+03  0.44815771046E+03  0.16500000000E+03 0.  0.
<mgrwt>
<rscale>  0 0.45148472E+03</rscale>
<asrwt>0</asrwt>
<pdfrwt beam="1">  1        2 0.10554894E+00 0.45148472E+03</pdfrwt>
<pdfrwt beam="2">  1       -2 0.11427350E-01 0.45148472E+03</pdfrwt>
<totfact> 0.23120824E+03</totfact>
</mgrwt>
</event>
<event>
 4    1  0.1573232E-005  0.4540963E+03  0.7818608E-02  0.1026507E+00
          2   -1    0    0  501    0  0.00000000000E+00  0.00000000000E+00  0.21397329314E+04  0.21397329314E+04  0.25500000000E-02 0.  1.
         -2   -1    0    0    0  501 -0.00000000000E+00 -0.00000000000E+00 -0.24092190338E+02  0.24092190473E+02  0.25500000000E-02 0. -1.
    5000001    1    1    2    0    0  0.29888827671E+02  0.15292480323E+03  0.10903196856E+04  0.11136881764E+04  0.16500000000E+03 0.  0.
   -5000001    1    1    2    0    0 -0.29888827671E+02 -0.15292480323E+03  0.10253210554E+04  0.10501369454E+04  0.16500000000E+03 0.  0.
<mgrwt>
<rscale>  0 0.45409626E+03</rscale>
<asrwt>0</asrwt>
<pdfrwt beam="1">  1        2 0.32918959E+00 0.45409626E+03</pdfrwt>
<pdfrwt beam="2">  1       -2 0.37064918E-02 0.45409626E+03</pdfrwt>
<totfact> 0.19088169E+03</totfact>
</mgrwt>
</event>
<event>
 4    1  0.1573232E-005  0.3958657E+03  0.7818608E-02  0.1045221E+00
         -2   -1    0    0    0  501 -0.00000000000E+00  0.00000000000E+00  0.78390448718E+02  0.78390448760E+02  0.25500000000E-02 0. -1.
          2   -1    0    0  501    0  0.00000000000E+00 -0.00000000000E+00 -0.49977290060E+03  0.49977290061E+03  0.25500000000E-02 0.  1.
    5000001    1    1    2    0    0 -0.62677052505E+02 -0.89318584061E+02 -0.20076414306E+03  0.28184652474E+03  0.16500000000E+03 0.  0.
   -5000001    1    1    2    0    0  0.62677052505E+02  0.89318584061E+02 -0.22061830882E+03  0.29631682463E+03  0.16500000000E+03 0.  0.
<mgrwt>
<rscale>  0 0.39586574E+03</rscale>
<asrwt>0</asrwt>
<pdfrwt beam="1">  1        2 0.76888137E-01 0.39586574E+03</pdfrwt>
<pdfrwt beam="2">  1       -2 0.12060069E-01 0.39586574E+03</pdfrwt>
<totfact> 0.30719517E+03</totfact>
</mgrwt>
</event>
<event>
 4    1  0.1573232E-005  0.3954375E+03  0.7818608E-02  0.1045371E+00
         -2   -1    0    0    0  501 -0.00000000000E+00  0.00000000000E+00  0.24279013892E+02  0.24279014026E+02  0.25500000000E-02 0. -1.
          2   -1    0    0  501    0  0.00000000000E+00 -0.00000000000E+00 -0.16101436815E+04  0.16101436816E+04  0.25500000000E-02 0.  1.
    5000001    1    1    2    0    0 -0.76932203118E+02 -0.27950709423E+02 -0.49580446629E+03  0.52891102733E+03  0.16500000000E+03 0.  0.
   -5000001    1    1    2    0    0  0.76932203118E+02  0.27950709423E+02 -0.10900602014E+04  0.11055116682E+04  0.16500000000E+03 0.  0.
<mgrwt>
<rscale>  0 0.39543748E+03</rscale>
<asrwt>0</asrwt>
<pdfrwt beam="1">  1        2 0.24771433E+00 0.39543748E+03</pdfrwt>
<pdfrwt beam="2">  1       -2 0.37352342E-02 0.39543748E+03</pdfrwt>
<totfact> 0.36327466E+03</totfact>
</mgrwt>
</event>
<event>
 4    1  0.1573232E-005  0.4879397E+03  0.7818608E-02  0.1016976E+00
          2   -1    0    0  501    0  0.00000000000E+00  0.00000000000E+00  0.35669997160E+04  0.35669997160E+04  0.25500000000E-02 0.  1.
         -2   -1    0    0    0  501 -0.00000000000E+00 -0.00000000000E+00 -0.16686654885E+02  0.16686655080E+02  0.25500000000E-02 0. -1.
    5000001    1    1    2    0    0  0.85630620186E+02  0.15748057012E+03  0.16812268074E+04  0.16987881889E+04  0.16500000000E+03 0.  0.
   -5000001    1    1    2    0    0 -0.85630620186E+02 -0.15748057012E+03  0.18690862537E+04  0.18848981821E+04  0.16500000000E+03 0.  0.
<mgrwt>
<rscale>  0 0.48793972E+03</rscale>
<asrwt>0</asrwt>
<pdfrwt beam="1">  1        2 0.54876934E+00 0.48793972E+03</pdfrwt>
<pdfrwt beam="2">  1       -2 0.25671770E-02 0.48793972E+03</pdfrwt>
<totfact> 0.46751623E+02</totfact>
</mgrwt>
</event>
<event>
 4    1  0.1573232E-005  0.4802856E+03  0.7818608E-02  0.1019057E+00
         -2   -1    0    0    0  501 -0.00000000000E+00  0.00000000000E+00  0.27113458745E+02  0.27113458865E+02  0.25500000000E-02 0. -1.
          2   -1    0    0  501    0  0.00000000000E+00 -0.00000000000E+00 -0.21269347718E+04  0.21269347718E+04  0.25500000000E-02 0.  1.
    5000001    1    1    2    0    0  0.17136890527E+03 -0.31336038233E+01 -0.90344914440E+03  0.93424968702E+03  0.16500000000E+03 0.  0.
   -5000001    1    1    2    0    0 -0.17136890527E+03  0.31336038233E+01 -0.11963721686E+04  0.12197985436E+04  0.16500000000E+03 0.  0.
<mgrwt>
<rscale>  0 0.48028557E+03</rscale>
<asrwt>0</asrwt>
<pdfrwt beam="1">  1        2 0.32722060E+00 0.48028557E+03</pdfrwt>
<pdfrwt beam="2">  1       -2 0.41713030E-02 0.48028557E+03</pdfrwt>
<totfact> 0.16168647E+03</totfact>
</mgrwt>
</event>
<event>
 4    1  0.1573232E-005  0.4451441E+03  0.7818608E-02  0.1029180E+00
         -2   -1    0    0    0  501 -0.00000000000E+00  0.00000000000E+00  0.12540273739E+03  0.12540273742E+03  0.25500000000E-02 0. -1.
          2   -1    0    0  501    0  0.00000000000E+00 -0.00000000000E+00 -0.39503375261E+03  0.39503375261E+03  0.25500000000E-02 0.  1.
    5000001    1    1    2    0    0 -0.81033209537E+02  0.10934931225E+03 -0.62842889125E+02  0.22293021745E+03  0.16500000000E+03 0.  0.
   -5000001    1    1    2    0    0  0.81033209537E+02 -0.10934931225E+03 -0.20678812609E+03  0.29750627259E+03  0.16500000000E+03 0.  0.
<mgrwt>
<rscale>  0 0.44514408E+03</rscale>
<asrwt>0</asrwt>
<pdfrwt beam="1">  1        2 0.60774423E-01 0.44514408E+03</pdfrwt>
<pdfrwt beam="2">  1       -2 0.19292729E-01 0.44514408E+03</pdfrwt>
<totfact> 0.18221185E+03</totfact>
</mgrwt>
</event>
<event>
 4    1  0.1573232E-005  0.8736289E+03  0.7818608E-02  0.9459161E-01
          2   -1    0    0  501    0  0.00000000000E+00  0.00000000000E+00  0.12286968502E+04  0.12286968502E+04  0.25500000000E-02 0.  1.
         -2   -1    0    0    0  501 -0.00000000000E+00 -0.00000000000E+00 -0.15529205275E+03  0.15529205277E+03  0.25500000000E-02 0. -1.
    5000001    1    1    2    0    0  0.33375670648E+03 -0.95716224591E+02  0.86530784053E+03  0.94685679681E+03  0.16500000000E+03 0.  0.
   -5000001    1    1    2    0    0 -0.33375670648E+03  0.95716224591E+02  0.20809695692E+03  0.43713210617E+03  0.16500000000E+03 0.  0.
<mgrwt>
<rscale>  0 0.87362888E+03</rscale>
<asrwt>0</asrwt>
<pdfrwt beam="1">  1        2 0.18903028E+00 0.87362888E+03</pdfrwt>
<pdfrwt beam="2">  1       -2 0.23891085E-01 0.87362888E+03</pdfrwt>
<totfact> 0.28418336E+02</totfact>
</mgrwt>
</event>
<event>
 4    1  0.1573232E-005  0.5922792E+03  0.7818608E-02  0.9921555E-01
          2   -1    0    0  501    0  0.00000000000E+00  0.00000000000E+00  0.97537567679E+03  0.97537567679E+03  0.25500000000E-02 0.  1.
         -2   -1    0    0    0  501 -0.00000000000E+00 -0.00000000000E+00 -0.89912689008E+02  0.89912689044E+02  0.25500000000E-02 0. -1.
    5000001    1    1    2    0    0  0.10768627643E+03  0.14653361818E+03  0.74048531092E+03  0.78013584143E+03  0.16500000000E+03 0.  0.
   -5000001    1    1    2    0    0 -0.10768627643E+03 -0.14653361818E+03  0.14497767686E+03  0.28515252441E+03  0.16500000000E+03 0.  0.
<mgrwt>
<rscale>  0 0.59227916E+03</rscale>
<asrwt>0</asrwt>
<pdfrwt beam="1">  1        2 0.15005779E+00 0.59227916E+03</pdfrwt>
<pdfrwt beam="2">  1       -2 0.13832722E-01 0.59227916E+03</pdfrwt>
<totfact> 0.10574349E+03</totfact>
</mgrwt>
</event>
<event>
 4    1  0.1573232E-005  0.7060090E+03  0.7818608E-02  0.9707011E-01
          2   -1    0    0  501    0  0.00000000000E+00  0.00000000000E+00  0.19196864543E+04  0.19196864543E+04  0.25500000000E-02 0.  1.
         -2   -1    0    0    0  501 -0.00000000000E+00 -0.00000000000E+00 -0.64912772036E+02  0.64912772086E+02  0.25500000000E-02 0. -1.
    5000001    1    1    2    0    0 -0.12810216839E+03 -0.23180998997E+03  0.46343257637E+03  0.55869561465E+03  0.16500000000E+03 0.  0.
   -5000001    1    1    2    0    0  0.12810216839E+03  0.23180998997E+03  0.13913411059E+04  0.14259036117E+04  0.16500000000E+03 0.  0.
<mgrwt>
<rscale>  0 0.70600898E+03</rscale>
<asrwt>0</asrwt>
<pdfrwt beam="1">  1        2 0.29533634E+00 0.70600898E+03</pdfrwt>
<pdfrwt beam="2">  1       -2 0.99865816E-02 0.70600898E+03</pdfrwt>
<totfact> 0.52189295E+02</totfact>
</mgrwt>
</event>
<event>
 4    1  0.1573232E-005  0.4263510E+03  0.7818608E-02  0.1035019E+00
         -2   -1    0    0    0  501 -0.00000000000E+00  0.00000000000E+00  0.94182646990E+02  0.94182647025E+02  0.25500000000E-02 0. -1.
          2   -1    0    0  501    0  0.00000000000E+00 -0.00000000000E+00 -0.48250699168E+03  0.48250699169E+03  0.25500000000E-02 0.  1.
    5000001    1    1    2    0    0  0.94773145504E+02 -0.78199681516E+02 -0.26973518822E+03  0.33923326939E+03  0.16500000000E+03 0.  0.
   -5000001    1    1    2    0    0 -0.94773145504E+02  0.78199681516E+02 -0.11858915647E+03  0.23745636932E+03  0.16500000000E+03 0.  0.
<mgrwt>
<rscale>  0 0.42635096E+03</rscale>
<asrwt>0</asrwt>
<pdfrwt beam="1">  1        2 0.74231843E-01 0.42635096E+03</pdfrwt>
<pdfrwt beam="2">  1       -2 0.14489638E-01 0.42635096E+03</pdfrwt>
<totfact> 0.23646977E+03</totfact>
</mgrwt>
</event>
<event>
 4    1  0.1573232E-005  0.3672269E+03  0.7818608E-02  0.1055758E+00
         -2   -1    0    0    0  501 -0.00000000000E+00  0.00000000000E+00  0.10123635948E+02  0.10123636269E+02  0.25500000000E-02 0. -1.
          2   -1    0    0  501    0  0.00000000000E+00 -0.00000000000E+00 -0.33302156650E+04  0.33302156650E+04  0.25500000000E-02 0.  1.
    5000001    1    1    2    0    0  0.34781524078E+01 -0.63601712535E+02 -0.12115034551E+04  0.12243459058E+04  0.16500000000E+03 0.  0.
   -5000001    1    1    2    0    0 -0.34781524078E+01  0.63601712535E+02 -0.21085885740E+04  0.21159933955E+04  0.16500000000E+03 0.  0.
<mgrwt>
<rscale>  0 0.36722686E+03</rscale>
<asrwt>0</asrwt>
<pdfrwt beam="1">  1        2 0.51234000E+00 0.36722686E+03</pdfrwt>
<pdfrwt beam="2">  1       -2 0.15574851E-02 0.36722686E+03</pdfrwt>
<totfact> 0.14387532E+03</totfact>
</mgrwt>
</event>
<event>
 4    1  0.1573232E-005  0.5045319E+03  0.7818608E-02  0.1012603E+00
          2   -1    0    0  501    0  0.00000000000E+00  0.00000000000E+00  0.19691899950E+03  0.19691899952E+03  0.25500000000E-02 0.  1.
         -2   -1    0    0    0  501 -0.00000000000E+00 -0.00000000000E+00 -0.32316892698E+03  0.32316892699E+03  0.25500000000E-02 0. -1.
    5000001    1    1    2    0    0  0.89083632355E+01  0.20418708359E+02 -0.25848561849E+03  0.30746723005E+03  0.16500000000E+03 0.  0.
   -5000001    1    1    2    0    0 -0.89083632355E+01 -0.20418708359E+02  0.13223569101E+03  0.21262069646E+03  0.16500000000E+03 0.  0.
<mgrwt>
<rscale>  0 0.50453187E+03</rscale>
<asrwt>0</asrwt>
<pdfrwt beam="1">  1        2 0.30295231E-01 0.50453187E+03</pdfrwt>
<pdfrwt beam="2">  1       -2 0.49718296E-01 0.50453187E+03</pdfrwt>
<totfact> 0.67771090E+02</totfact>
</mgrwt>
</event>
<event>
 4    1  0.1573232E-005  0.6430999E+03  0.7818608E-02  0.9819813E-01
         -2   -1    0    0    0  501 -0.00000000000E+00  0.00000000000E+00  0.16789015997E+03  0.16789015999E+03  0.25500000000E-02 0. -1.
          2   -1    0    0  501    0  0.00000000000E+00 -0.00000000000E+00 -0.61584541634E+03  0.61584541635E+03  0.25500000000E-02 0.  1.
    5000001    1    1    2    0    0 -0.24899258519E+03 -0.76934233706E+02 -0.33469157075E+03  0.45514792247E+03  0.16500000000E+03 0.  0.
   -5000001    1    1    2    0    0  0.24899258519E+03  0.76934233706E+02 -0.11326368562E+03  0.32858765387E+03  0.16500000000E+03 0.  0.
<mgrwt>
<rscale>  0 0.64309995E+03</rscale>
<asrwt>0</asrwt>
<pdfrwt beam="1">  1        2 0.94745448E-01 0.64309995E+03</pdfrwt>
<pdfrwt beam="2">  1       -2 0.25829256E-01 0.64309995E+03</pdfrwt>
<totfact> 0.65276146E+02</totfact>
</mgrwt>
</event>
<event>
 4    1  0.1573232E-005  0.5844962E+03  0.7818608E-02  0.9938104E-01
          2   -1    0    0  501    0  0.00000000000E+00  0.00000000000E+00  0.98334909937E+03  0.98334909937E+03  0.25500000000E-02 0.  1.
         -2   -1    0    0    0  501 -0.00000000000E+00 -0.00000000000E+00 -0.86855174706E+02  0.86855174743E+02  0.25500000000E-02 0. -1.
    5000001    1    1    2    0    0 -0.19119232901E+03  0.14521679035E+03  0.40563826775E+03  0.49940947842E+03  0.16500000000E+03 0.  0.
   -5000001    1    1    2    0    0  0.19119232901E+03 -0.14521679035E+03  0.49085565692E+03  0.57079479570E+03  0.16500000000E+03 0.  0.
<mgrwt>
<rscale>  0 0.58449622E+03</rscale>
<asrwt>0</asrwt>
<pdfrwt beam="1">  1        2 0.15128448E+00 0.58449622E+03</pdfrwt>
<pdfrwt beam="2">  1       -2 0.13362335E-01 0.58449622E+03</pdfrwt>
<totfact> 0.11073582E+03</totfact>
</mgrwt>
</event>
<event>
 4    1  0.1573232E-005  0.5093934E+03  0.7818608E-02  0.1011356E+00
         -2   -1    0    0    0  501 -0.00000000000E+00  0.00000000000E+00  0.17545358893E+03  0.17545358895E+03  0.25500000000E-02 0. -1.
          2   -1    0    0  501    0  0.00000000000E+00 -0.00000000000E+00 -0.36972977399E+03  0.36972977399E+03  0.25500000000E-02 0.  1.
    5000001    1    1    2    0    0  0.15380831248E+03 -0.88542351479E+02 -0.13215309306E+02  0.24268578325E+03  0.16500000000E+03 0.  0.
   -5000001    1    1    2    0    0 -0.15380831248E+03  0.88542351479E+02 -0.18106087575E+03  0.30249757969E+03  0.16500000000E+03 0.  0.
<mgrwt>
<rscale>  0 0.50939343E+03</rscale>
<asrwt>0</asrwt>
<pdfrwt beam="1">  1        2 0.56881503E-01 0.50939343E+03</pdfrwt>
<pdfrwt beam="2">  1       -2 0.26992860E-01 0.50939343E+03</pdfrwt>
<totfact> 0.10841660E+03</totfact>
</mgrwt>
</event>
<event>
 4    1  0.1573232E-005  0.1365108E+04  0.7818608E-02  0.8979470E-01
          2   -1    0    0  501    0  0.00000000000E+00  0.00000000000E+00  0.91828509082E+03  0.91828509082E+03  0.25500000000E-02 0. -1.
         -2   -1    0    0    0  501 -0.00000000000E+00 -0.00000000000E+00 -0.50733692348E+03  0.50733692349E+03  0.25500000000E-02 0.  1.
    5000001    1    1    2    0    0  0.40560285605E+03  0.32663765684E+03  0.63281925433E+03  0.83599703609E+03  0.16500000000E+03 0.  0.
   -5000001    1    1    2    0    0 -0.40560285605E+03 -0.32663765684E+03 -0.22187108698E+03  0.58962497822E+03  0.16500000000E+03 0.  0.
<mgrwt>
<rscale>  0 0.13651080E+04</rscale>
<asrwt>0</asrwt>
<pdfrwt beam="1">  1        2 0.14127463E+00 0.13651080E+04</pdfrwt>
<pdfrwt beam="2">  1       -2 0.78051835E-01 0.13651080E+04</pdfrwt>
<totfact> 0.40641534E+01</totfact>
</mgrwt>
</event>
<event>
 4    1  0.1573232E-005  0.4230994E+03  0.7818608E-02  0.1036062E+00
          2   -1    0    0  501    0  0.00000000000E+00  0.00000000000E+00  0.28487574697E+03  0.28487574698E+03  0.25500000000E-02 0.  1.
         -2   -1    0    0    0  501 -0.00000000000E+00 -0.00000000000E+00 -0.15709750903E+03  0.15709750905E+03  0.25500000000E-02 0. -1.
    5000001    1    1    2    0    0  0.12630559848E+03 -0.18598463238E+02  0.10051398520E+03  0.23157518922E+03  0.16500000000E+03 0.  0.
   -5000001    1    1    2    0    0 -0.12630559848E+03  0.18598463238E+02  0.27264252743E+02  0.21039806682E+03  0.16500000000E+03 0.  0.
<mgrwt>
<rscale>  0 0.42309937E+03</rscale>
<asrwt>0</asrwt>
<pdfrwt beam="1">  1        2 0.43827038E-01 0.42309937E+03</pdfrwt>
<pdfrwt beam="2">  1       -2 0.24168848E-01 0.42309937E+03</pdfrwt>
<totfact> 0.17582984E+03</totfact>
</mgrwt>
</event>
<event>
 4    1  0.1573232E-005  0.3796047E+03  0.7818608E-02  0.1051080E+00
         -2   -1    0    0    0  501 -0.00000000000E+00  0.00000000000E+00  0.83970657622E+02  0.83970657661E+02  0.25500000000E-02 0. -1.
          2   -1    0    0  501    0  0.00000000000E+00 -0.00000000000E+00 -0.42901807329E+03  0.42901807330E+03  0.25500000000E-02 0.  1.
    5000001    1    1    2    0    0 -0.61918748383E+02 -0.29558035267E+01 -0.26767116276E+03  0.32049262012E+03  0.16500000000E+03 0.  0.
   -5000001    1    1    2    0    0  0.61918748383E+02  0.29558035267E+01 -0.77376252912E+02  0.19249611085E+03  0.16500000000E+03 0.  0.
<mgrwt>
<rscale>  0 0.37960469E+03</rscale>
<asrwt>0</asrwt>
<pdfrwt beam="1">  1        2 0.66002779E-01 0.37960469E+03</pdfrwt>
<pdfrwt beam="2">  1       -2 0.12918563E-01 0.37960469E+03</pdfrwt>
<totfact> 0.32554131E+03</totfact>
</mgrwt>
</event>
<event>
 4    1  0.1573232E-005  0.4349431E+03  0.7818608E-02  0.1032310E+00
          2   -1    0    0  501    0  0.00000000000E+00  0.00000000000E+00  0.31132683385E+03  0.31132683386E+03  0.25500000000E-02 0.  1.
         -2   -1    0    0    0  501 -0.00000000000E+00 -0.00000000000E+00 -0.15191072100E+03  0.15191072102E+03  0.25500000000E-02 0. -1.
    5000001    1    1    2    0    0  0.68675739057E+02 -0.11699501891E+03  0.12316290588E+03  0.24657309863E+03  0.16500000000E+03 0.  0.
   -5000001    1    1    2    0    0 -0.68675739057E+02  0.11699501891E+03  0.36253206975E+02  0.21666445625E+03  0.16500000000E+03 0.  0.
<mgrwt>
<rscale>  0 0.43494314E+03</rscale>
<asrwt>0</asrwt>
<pdfrwt beam="1">  1        2 0.47896435E-01 0.43494314E+03</pdfrwt>
<pdfrwt beam="2">  1       -2 0.23370880E-01 0.43494314E+03</pdfrwt>
<totfact> 0.16938082E+03</totfact>
</mgrwt>
</event>
<event>
 4    1  0.1573232E-005  0.4132828E+03  0.7818608E-02  0.1039275E+00
          2   -1    0    0  501    0  0.00000000000E+00  0.00000000000E+00  0.32482857422E+03  0.32482857423E+03  0.25500000000E-02 0.  1.
         -2   -1    0    0    0  501 -0.00000000000E+00 -0.00000000000E+00 -0.13145599044E+03  0.13145599046E+03  0.25500000000E-02 0. -1.
    5000001    1    1    2    0    0  0.69499202942E+02  0.10252995099E+03  0.10942512173E+03  0.23354097569E+03  0.16500000000E+03 0.  0.
   -5000001    1    1    2    0    0 -0.69499202942E+02 -0.10252995099E+03  0.83947462051E+02  0.22274358901E+03  0.16500000000E+03 0.  0.
<mgrwt>
<rscale>  0 0.41328277E+03</rscale>
<asrwt>0</asrwt>
<pdfrwt beam="1">  1        2 0.49973626E-01 0.41328277E+03</pdfrwt>
<pdfrwt beam="2">  1       -2 0.20223999E-01 0.41328277E+03</pdfrwt>
<totfact> 0.20811799E+03</totfact>
</mgrwt>
</event>
<event>
 4    1  0.1573232E-005  0.4529164E+03  0.7818608E-02  0.1026856E+00
          2   -1    0    0  501    0  0.00000000000E+00  0.00000000000E+00  0.72743874925E+03  0.72743874926E+03  0.25500000000E-02 0.  1.
         -2   -1    0    0    0  501 -0.00000000000E+00 -0.00000000000E+00 -0.70498478207E+02  0.70498478254E+02  0.25500000000E-02 0. -1.
    5000001    1    1    2    0    0 -0.64296018051E+02  0.14069407796E+03  0.30841966201E+03  0.38246109531E+03  0.16500000000E+03 0.  0.
   -5000001    1    1    2    0    0  0.64296018051E+02 -0.14069407796E+03  0.34852060904E+03  0.41547613221E+03  0.16500000000E+03 0.  0.
<mgrwt>
<rscale>  0 0.45291644E+03</rscale>
<asrwt>0</asrwt>
<pdfrwt beam="1">  1        2 0.11191365E+00 0.45291644E+03</pdfrwt>
<pdfrwt beam="2">  1       -2 0.10845920E-01 0.45291644E+03</pdfrwt>
<totfact> 0.23402071E+03</totfact>
</mgrwt>
</event>
<event>
 4    1  0.1573232E-005  0.4510852E+03  0.7818608E-02  0.1027399E+00
          2   -1    0    0  501    0  0.00000000000E+00  0.00000000000E+00  0.16536063442E+04  0.16536063443E+04  0.25500000000E-02 0.  1.
         -2   -1    0    0    0  501 -0.00000000000E+00 -0.00000000000E+00 -0.30762735363E+02  0.30762735469E+02  0.25500000000E-02 0. -1.
    5000001    1    1    2    0    0 -0.15345390863E+03 -0.24494854766E+01  0.84691528357E+03  0.87638153769E+03  0.16500000000E+03 0.  0.
   -5000001    1    1    2    0    0  0.15345390863E+03  0.24494854766E+01  0.77592832531E+03  0.80798754203E+03  0.16500000000E+03 0.  0.
<mgrwt>
<rscale>  0 0.45108516E+03</rscale>
<asrwt>0</asrwt>
<pdfrwt beam="1">  1        2 0.25440090E+00 0.45108516E+03</pdfrwt>
<pdfrwt beam="2">  1       -2 0.47327298E-02 0.45108516E+03</pdfrwt>
<totfact> 0.23953970E+03</totfact>
</mgrwt>
</event>
<event>
 4    1  0.1573232E-005  0.5493385E+03  0.7818608E-02  0.1001647E+00
         -2   -1    0    0    0  501 -0.00000000000E+00  0.00000000000E+00  0.17669323597E+03  0.17669323599E+03  0.25500000000E-02 0. -1.
          2   -1    0    0  501    0  0.00000000000E+00 -0.00000000000E+00 -0.42697272360E+03  0.42697272360E+03  0.25500000000E-02 0.  1.
    5000001    1    1    2    0    0  0.12989871878E+03 -0.17503855787E+03 -0.15433852014E+03  0.31393877218E+03  0.16500000000E+03 0.  0.
   -5000001    1    1    2    0    0 -0.12989871878E+03  0.17503855787E+03 -0.95940967493E+02  0.28972718741E+03  0.16500000000E+03 0.  0.
<mgrwt>
<rscale>  0 0.54933848E+03</rscale>
<asrwt>0</asrwt>
<pdfrwt beam="1">  1        2 0.65688111E-01 0.54933848E+03</pdfrwt>
<pdfrwt beam="2">  1       -2 0.27183575E-01 0.54933848E+03</pdfrwt>
<totfact> 0.91164038E+02</totfact>
</mgrwt>
</event>
<event>
 4    1  0.1573232E-005  0.5338988E+03  0.7818608E-02  0.1005291E+00
         -2   -1    0    0    0  501 -0.00000000000E+00  0.00000000000E+00  0.10300202310E+03  0.10300202313E+03  0.25500000000E-02 0. -1.
          2   -1    0    0  501    0  0.00000000000E+00 -0.00000000000E+00 -0.69185035592E+03  0.69185035593E+03  0.25500000000E-02 0.  1.
    5000001    1    1    2    0    0 -0.13604074445E+03 -0.15352282691E+03 -0.36034563500E+03  0.44626261237E+03  0.16500000000E+03 0.  0.
   -5000001    1    1    2    0    0  0.13604074445E+03  0.15352282691E+03 -0.22850269782E+03  0.34858976669E+03  0.16500000000E+03 0.  0.
<mgrwt>
<rscale>  0 0.53389882E+03</rscale>
<asrwt>0</asrwt>
<pdfrwt beam="1">  1        2 0.10643851E+00 0.53389882E+03</pdfrwt>
<pdfrwt beam="2">  1       -2 0.15846466E-01 0.53389882E+03</pdfrwt>
<totfact> 0.13305401E+03</totfact>
</mgrwt>
</event>
<event>
 4    1  0.1573232E-005  0.6549789E+03  0.7818608E-02  0.9797481E-01
         -2   -1    0    0    0  501 -0.00000000000E+00  0.00000000000E+00  0.26621123639E+03  0.26621123640E+03  0.25500000000E-02 0. -1.
          2   -1    0    0  501    0  0.00000000000E+00 -0.00000000000E+00 -0.40287304019E+03  0.40287304019E+03  0.25500000000E-02 0.  1.
    5000001    1    1    2    0    0 -0.14734058546E+03 -0.18940428419E+03 -0.22136055599E+03  0.36579875169E+03  0.16500000000E+03 0.  0.
   -5000001    1    1    2    0    0  0.14734058546E+03  0.18940428419E+03  0.84698752190E+02  0.30328552490E+03  0.16500000000E+03 0.  0.
<mgrwt>
<rscale>  0 0.65497887E+03</rscale>
<asrwt>0</asrwt>
<pdfrwt beam="1">  1        2 0.61980468E-01 0.65497887E+03</pdfrwt>
<pdfrwt beam="2">  1       -2 0.40955575E-01 0.65497887E+03</pdfrwt>
<totfact> 0.44905532E+02</totfact>
</mgrwt>
</event>
<event>
 4    1  0.1573232E-005  0.4124270E+03  0.7818608E-02  0.1039560E+00
         -2   -1    0    0    0  501 -0.00000000000E+00  0.00000000000E+00  0.14492513915E+02  0.14492514139E+02  0.25500000000E-02 0. -1.
          2   -1    0    0  501    0  0.00000000000E+00 -0.00000000000E+00 -0.29342055105E+04  0.29342055105E+04  0.25500000000E-02 0.  1.
    5000001    1    1    2    0    0 -0.86683342705E+02 -0.33700083064E+02 -0.20428607124E+04  0.20516224281E+04  0.16500000000E+03 0.  0.
   -5000001    1    1    2    0    0  0.86683342705E+02  0.33700083064E+02 -0.87685228417E+03  0.89707559645E+03  0.16500000000E+03 0.  0.
<mgrwt>
<rscale>  0 0.41242703E+03</rscale>
<asrwt>0</asrwt>
<pdfrwt beam="1">  1        2 0.45141576E+00 0.41242703E+03</pdfrwt>
<pdfrwt beam="2">  1       -2 0.22296199E-02 0.41242703E+03</pdfrwt>
<totfact> 0.14734862E+03</totfact>
</mgrwt>
</event>
<event>
 4    1  0.1573232E-005  0.3779165E+03  0.7818608E-02  0.1051707E+00
          2   -1    0    0  501    0  0.00000000000E+00  0.00000000000E+00  0.18129668217E+04  0.18129668217E+04  0.25500000000E-02 0.  1.
         -2   -1    0    0    0  501 -0.00000000000E+00 -0.00000000000E+00 -0.19694355259E+02  0.19694355424E+02  0.25500000000E-02 0. -1.
    5000001    1    1    2    0    0 -0.61311269724E+02 -0.64543238482E+02  0.78236033079E+03  0.80451077595E+03  0.16500000000E+03 0.  0.
   -5000001    1    1    2    0    0  0.61311269724E+02  0.64543238482E+02  0.10109121357E+04  0.10281504012E+04  0.16500000000E+03 0.  0.
<mgrwt>
<rscale>  0 0.37791646E+03</rscale>
<asrwt>0</asrwt>
<pdfrwt beam="1">  1        2 0.27891792E+00 0.37791646E+03</pdfrwt>
<pdfrwt beam="2">  1       -2 0.30299014E-02 0.37791646E+03</pdfrwt>
<totfact> 0.38836709E+03</totfact>
</mgrwt>
</event>
<event>
 4    1  0.1573232E-005  0.5435752E+03  0.7818608E-02  0.1002992E+00
          2   -1    0    0  501    0  0.00000000000E+00  0.00000000000E+00  0.91452715352E+03  0.91452715352E+03  0.25500000000E-02 0.  1.
         -2   -1    0    0    0  501 -0.00000000000E+00 -0.00000000000E+00 -0.80772331049E+02  0.80772331090E+02  0.25500000000E-02 0. -1.
    5000001    1    1    2    0    0  0.54439237650E+02  0.18258613368E+03  0.23066875486E+03  0.34166416446E+03  0.16500000000E+03 0.  0.
   -5000001    1    1    2    0    0 -0.54439237650E+02 -0.18258613368E+03  0.60308606761E+03  0.65363532015E+03  0.16500000000E+03 0.  0.
<mgrwt>
<rscale>  0 0.54357517E+03</rscale>
<asrwt>0</asrwt>
<pdfrwt beam="1">  1        2 0.14069648E+00 0.54357517E+03</pdfrwt>
<pdfrwt beam="2">  1       -2 0.12426513E-01 0.54357517E+03</pdfrwt>
<totfact> 0.13851186E+03</totfact>
</mgrwt>
</event>
<event>
 4    1  0.1573232E-005  0.3915194E+03  0.7818608E-02  0.1046756E+00
          2   -1    0    0  501    0  0.00000000000E+00  0.00000000000E+00  0.20683640791E+04  0.20683640791E+04  0.25500000000E-02 0.  1.
         -2   -1    0    0    0  501 -0.00000000000E+00 -0.00000000000E+00 -0.18527619369E+02  0.18527619545E+02  0.25500000000E-02 0. -1.
    5000001    1    1    2    0    0  0.35539831471E+01 -0.61633539871E+02  0.56995380309E+03  0.59655985592E+03  0.16500000000E+03 0.  0.
   -5000001    1    1    2    0    0 -0.35539831471E+01  0.61633539871E+02  0.14798826567E+04  0.14903318427E+04  0.16500000000E+03 0.  0.
<mgrwt>
<rscale>  0 0.39151941E+03</rscale>
<asrwt>0</asrwt>
<pdfrwt beam="1">  1        2 0.31820963E+00 0.39151941E+03</pdfrwt>
<pdfrwt beam="2">  1       -2 0.28504050E-02 0.39151941E+03</pdfrwt>
<totfact> 0.31108854E+03</totfact>
</mgrwt>
</event>
<event>
 4    1  0.1573232E-005  0.4986636E+03  0.7818608E-02  0.1014128E+00
          2   -1    0    0  501    0  0.00000000000E+00  0.00000000000E+00  0.16933005149E+04  0.16933005149E+04  0.25500000000E-02 0.  1.
         -2   -1    0    0    0  501 -0.00000000000E+00 -0.00000000000E+00 -0.36713124417E+02  0.36713124505E+02  0.25500000000E-02 0. -1.
    5000001    1    1    2    0    0 -0.41016670374E+02  0.17229731441E+03  0.10356586190E+04  0.10635706403E+04  0.16500000000E+03 0.  0.
   -5000001    1    1    2    0    0  0.41016670374E+02 -0.17229731441E+03  0.62092877145E+03  0.66644299908E+03  0.16500000000E+03 0.  0.
<mgrwt>
<rscale>  0 0.49866362E+03</rscale>
<asrwt>0</asrwt>
<pdfrwt beam="1">  1        2 0.26050777E+00 0.49866362E+03</pdfrwt>
<pdfrwt beam="2">  1       -2 0.56481729E-02 0.49866362E+03</pdfrwt>
<totfact> 0.17317995E+03</totfact>
</mgrwt>
</event>
<event>
 4    1  0.1573232E-005  0.6020728E+03  0.7818608E-02  0.9901115E-01
          2   -1    0    0  501    0  0.00000000000E+00  0.00000000000E+00  0.12760003110E+03  0.12760003112E+03  0.25500000000E-02 0.  1.
         -2   -1    0    0    0  501 -0.00000000000E+00 -0.00000000000E+00 -0.71021072037E+03  0.71021072037E+03  0.25500000000E-02 0. -1.
    5000001    1    1    2    0    0  0.30806514525E+02  0.24650501886E+03 -0.23419870716E+03  0.37919361822E+03  0.16500000000E+03 0.  0.
   -5000001    1    1    2    0    0 -0.30806514525E+02 -0.24650501886E+03 -0.34841198211E+03  0.45861713328E+03  0.16500000000E+03 0.  0.
<mgrwt>
<rscale>  0 0.60207279E+03</rscale>
<asrwt>0</asrwt>
<pdfrwt beam="1">  1        2 0.19630774E-01 0.60207279E+03</pdfrwt>
<pdfrwt beam="2">  1       -2 0.10926319E+00 0.60207279E+03</pdfrwt>
<totfact> 0.19644290E+02</totfact>
</mgrwt>
</event>
<event>
 4    1  0.1573232E-005  0.4284572E+03  0.7818608E-02  0.1034348E+00
          2   -1    0    0  501    0  0.00000000000E+00  0.00000000000E+00  0.31828263910E+04  0.31828263910E+04  0.25500000000E-02 0.  1.
         -2   -1    0    0    0  501 -0.00000000000E+00 -0.00000000000E+00 -0.14419226421E+02  0.14419226646E+02  0.25500000000E-02 0. -1.
    5000001    1    1    2    0    0  0.50007227017E+02  0.11569670610E+02  0.63928639344E+03  0.66222856542E+03  0.16500000000E+03 0.  0.
   -5000001    1    1    2    0    0 -0.50007227017E+02 -0.11569670610E+02  0.25291207712E+04  0.25350170523E+04  0.16500000000E+03 0.  0.
<mgrwt>
<rscale>  0 0.42845721E+03</rscale>
<asrwt>0</asrwt>
<pdfrwt beam="1">  1        2 0.48966618E+00 0.42845721E+03</pdfrwt>
<pdfrwt beam="2">  1       -2 0.22183399E-02 0.42845721E+03</pdfrwt>
<totfact> 0.10461980E+03</totfact>
</mgrwt>
</event>
<event>
 4    1  0.1573232E-005  0.4380708E+03  0.7818608E-02  0.1031340E+00
          2   -1    0    0  501    0  0.00000000000E+00  0.00000000000E+00  0.15864568968E+04  0.15864568968E+04  0.25500000000E-02 0.  1.
         -2   -1    0    0    0  501 -0.00000000000E+00 -0.00000000000E+00 -0.30241292154E+02  0.30241292262E+02  0.25500000000E-02 0. -1.
    5000001    1    1    2    0    0  0.12978221051E+03 -0.56479234192E+02  0.87700897942E+03  0.90355026204E+03  0.16500000000E+03 0.  0.
   -5000001    1    1    2    0    0 -0.12978221051E+03  0.56479234192E+02  0.67920662522E+03  0.71314792701E+03  0.16500000000E+03 0.  0.
<mgrwt>
<rscale>  0 0.43807080E+03</rscale>
<asrwt>0</asrwt>
<pdfrwt beam="1">  1        2 0.24407031E+00 0.43807080E+03</pdfrwt>
<pdfrwt beam="2">  1       -2 0.46525062E-02 0.43807080E+03</pdfrwt>
<totfact> 0.26741490E+03</totfact>
</mgrwt>
</event>
<event>
 4    1  0.1573232E-005  0.3564587E+03  0.7818608E-02  0.1059995E+00
         -2   -1    0    0    0  501 -0.00000000000E+00  0.00000000000E+00  0.93520309614E+01  0.93520313090E+01  0.25500000000E-02 0. -1.
          2   -1    0    0  501    0  0.00000000000E+00 -0.00000000000E+00 -0.33966631322E+04  0.33966631322E+04  0.25500000000E-02 0.  1.
    5000001    1    1    2    0    0  0.64106801519E+02  0.12548815741E+01 -0.14956442602E+04  0.15060836662E+04  0.16500000000E+03 0.  0.
   -5000001    1    1    2    0    0 -0.64106801519E+02 -0.12548815741E+01 -0.18916668411E+04  0.18999314973E+04  0.16500000000E+03 0.  0.
<mgrwt>
<rscale>  0 0.35645869E+03</rscale>
<asrwt>0</asrwt>
<pdfrwt beam="1">  1        2 0.52256257E+00 0.35645869E+03</pdfrwt>
<pdfrwt beam="2">  1       -2 0.14387767E-02 0.35645869E+03</pdfrwt>
<totfact> 0.14670455E+03</totfact>
</mgrwt>
</event>
<event>
 4    1  0.1573232E-005  0.9120873E+03  0.7818608E-02  0.9410597E-01
          2   -1    0    0  501    0  0.00000000000E+00  0.00000000000E+00  0.76732494255E+03  0.76732494256E+03  0.25500000000E-02 0.  1.
         -2   -1    0    0    0  501 -0.00000000000E+00 -0.00000000000E+00 -0.27104008048E+03  0.27104008049E+03  0.25500000000E-02 0. -1.
    5000001    1    1    2    0    0  0.36200084254E+03  0.18559854828E+03  0.38877377469E+03  0.58639703189E+03  0.16500000000E+03 0.  0.
   -5000001    1    1    2    0    0 -0.36200084254E+03 -0.18559854828E+03  0.10751108739E+03  0.45196799116E+03  0.16500000000E+03 0.  0.
<mgrwt>
<rscale>  0 0.91208731E+03</rscale>
<asrwt>0</asrwt>
<pdfrwt beam="1">  1        2 0.11804999E+00 0.91208731E+03</pdfrwt>
<pdfrwt beam="2">  1       -2 0.41698473E-01 0.91208731E+03</pdfrwt>
<totfact> 0.19874264E+02</totfact>
</mgrwt>
</event>
<event>
 4    1  0.1573232E-005  0.5470407E+03  0.7818608E-02  0.1002181E+00
          2   -1    0    0  501    0  0.00000000000E+00  0.00000000000E+00  0.44947046957E+03  0.44947046958E+03  0.25500000000E-02 0.  1.
         -2   -1    0    0    0  501 -0.00000000000E+00 -0.00000000000E+00 -0.16644781542E+03  0.16644781544E+03  0.25500000000E-02 0. -1.
    5000001    1    1    2    0    0  0.88601905787E+02  0.16199532074E+03  0.27230884611E+03  0.36806234434E+03  0.16500000000E+03 0.  0.
   -5000001    1    1    2    0    0 -0.88601905787E+02 -0.16199532074E+03  0.10713808036E+02  0.24785594068E+03  0.16500000000E+03 0.  0.
<mgrwt>
<rscale>  0 0.54704069E+03</rscale>
<asrwt>0</asrwt>
<pdfrwt beam="1">  1        2 0.69149304E-01 0.54704069E+03</pdfrwt>
<pdfrwt beam="2">  1       -2 0.25607356E-01 0.54704069E+03</pdfrwt>
<totfact> 0.95850850E+02</totfact>
</mgrwt>
</event>
<event>
 4    1  0.1573232E-005  0.6545181E+03  0.7818608E-02  0.9798338E-01
          2   -1    0    0  501    0  0.00000000000E+00  0.00000000000E+00  0.49460245348E+03  0.49460245348E+03  0.25500000000E-02 0.  1.
         -2   -1    0    0    0  501 -0.00000000000E+00 -0.00000000000E+00 -0.21653450756E+03  0.21653450757E+03  0.25500000000E-02 0. -1.
    5000001    1    1    2    0    0  0.77541042413E+02  0.27157679076E+03  0.15026930107E+03  0.35996170543E+03  0.16500000000E+03 0.  0.
   -5000001    1    1    2    0    0 -0.77541042413E+02 -0.27157679076E+03  0.12779864485E+03  0.35117525562E+03  0.16500000000E+03 0.  0.
<mgrwt>
<rscale>  0 0.65451814E+03</rscale>
<asrwt>0</asrwt>
<pdfrwt beam="1">  1        2 0.76092685E-01 0.65451814E+03</pdfrwt>
<pdfrwt beam="2">  1       -2 0.33313001E-01 0.65451814E+03</pdfrwt>
<totfact> 0.52853680E+02</totfact>
</mgrwt>
</event>
<event>
 4    1  0.1573232E-005  0.6255058E+03  0.7818608E-02  0.9853858E-01
         -2   -1    0    0    0  501 -0.00000000000E+00  0.00000000000E+00  0.36401425639E+02  0.36401425729E+02  0.25500000000E-02 0. -1.
          2   -1    0    0  501    0  0.00000000000E+00 -0.00000000000E+00 -0.26871029429E+04  0.26871029429E+04  0.25500000000E-02 0.  1.
    5000001    1    1    2    0    0 -0.44265810554E+02  0.21308548773E+03 -0.19888949230E+04  0.20075589410E+04  0.16500000000E+03 0.  0.
   -5000001    1    1    2    0    0  0.44265810554E+02 -0.21308548773E+03 -0.66180659427E+03  0.71594542759E+03  0.16500000000E+03 0.  0.
<mgrwt>
<rscale>  0 0.62550581E+03</rscale>
<asrwt>0</asrwt>
<pdfrwt beam="1">  1        2 0.41340030E+00 0.62550581E+03</pdfrwt>
<pdfrwt beam="2">  1       -2 0.56002215E-02 0.62550581E+03</pdfrwt>
<totfact> 0.49396705E+02</totfact>
</mgrwt>
</event>
<event>
 4    1  0.1573232E-005  0.4089564E+03  0.7818608E-02  0.1040722E+00
         -2   -1    0    0    0  501 -0.00000000000E+00  0.00000000000E+00  0.27278626391E+02  0.27278626511E+02  0.25500000000E-02 0. -1.
          2   -1    0    0  501    0  0.00000000000E+00 -0.00000000000E+00 -0.15327507981E+04  0.15327507981E+04  0.25500000000E-02 0.  1.
    5000001    1    1    2    0    0  0.83063219335E+02 -0.87663710487E+02 -0.75801070538E+03  0.78510486816E+03  0.16500000000E+03 0.  0.
   -5000001    1    1    2    0    0 -0.83063219335E+02  0.87663710487E+02 -0.74746146633E+03  0.77492455645E+03  0.16500000000E+03 0.  0.
<mgrwt>
<rscale>  0 0.40895641E+03</rscale>
<asrwt>0</asrwt>
<pdfrwt beam="1">  1        2 0.23580775E+00 0.40895641E+03</pdfrwt>
<pdfrwt beam="2">  1       -2 0.41967130E-02 0.40895641E+03</pdfrwt>
<totfact> 0.33498014E+03</totfact>
</mgrwt>
</event>
<event>
 4    1  0.1573232E-005  0.4375045E+03  0.7818608E-02  0.1031515E+00
          2   -1    0    0  501    0  0.00000000000E+00  0.00000000000E+00  0.14559306773E+03  0.14559306776E+03  0.25500000000E-02 0.  1.
         -2   -1    0    0    0  501 -0.00000000000E+00 -0.00000000000E+00 -0.32867320411E+03  0.32867320412E+03  0.25500000000E-02 0. -1.
    5000001    1    1    2    0    0  0.46678160413E+02  0.12844153178E+03 -0.43652825311E+02  0.21864731167E+03  0.16500000000E+03 0.  0.
   -5000001    1    1    2    0    0 -0.46678160413E+02 -0.12844153178E+03 -0.13942731107E+03  0.25561896020E+03  0.16500000000E+03 0.  0.
<mgrwt>
<rscale>  0 0.43750447E+03</rscale>
<asrwt>0</asrwt>
<pdfrwt beam="1">  1        2 0.22398934E-01 0.43750447E+03</pdfrwt>
<pdfrwt beam="2">  1       -2 0.50565108E-01 0.43750447E+03</pdfrwt>
<totfact> 0.92191734E+02</totfact>
</mgrwt>
</event>
<event>
 4    1  0.1573232E-005  0.5667624E+03  0.7818608E-02  0.9976869E-01
         -2   -1    0    0    0  501 -0.00000000000E+00  0.00000000000E+00  0.62361889063E+02  0.62361889115E+02  0.25500000000E-02 0. -1.
          2   -1    0    0  501    0  0.00000000000E+00 -0.00000000000E+00 -0.12877241644E+04  0.12877241644E+04  0.25500000000E-02 0.  1.
    5000001    1    1    2    0    0 -0.10198387455E+03  0.15881668159E+03 -0.29795086262E+03  0.38938819391E+03  0.16500000000E+03 0.  0.
   -5000001    1    1    2    0    0  0.10198387455E+03 -0.15881668159E+03 -0.92741141273E+03  0.96069785963E+03  0.16500000000E+03 0.  0.
<mgrwt>
<rscale>  0 0.56676242E+03</rscale>
<asrwt>0</asrwt>
<pdfrwt beam="1">  1        2 0.19811139E+00 0.56676242E+03</pdfrwt>
<pdfrwt beam="2">  1       -2 0.95941377E-02 0.56676242E+03</pdfrwt>
<totfact> 0.12512284E+03</totfact>
</mgrwt>
</event>
<event>
 4    1  0.1573232E-005  0.5543621E+03  0.7818608E-02  0.1000489E+00
          2   -1    0    0  501    0  0.00000000000E+00  0.00000000000E+00  0.24338732731E+03  0.24338732733E+03  0.25500000000E-02 0.  1.
         -2   -1    0    0    0  501 -0.00000000000E+00 -0.00000000000E+00 -0.31566697349E+03  0.31566697350E+03  0.25500000000E-02 0. -1.
    5000001    1    1    2    0    0  0.21035291029E+03  0.53936973699E+02 -0.86023609757E+02  0.28597658197E+03  0.16500000000E+03 0.  0.
   -5000001    1    1    2    0    0 -0.21035291029E+03 -0.53936973699E+02  0.13743963579E+02  0.27307771885E+03  0.16500000000E+03 0.  0.
<mgrwt>
<rscale>  0 0.55436212E+03</rscale>
<asrwt>0</asrwt>
<pdfrwt beam="1">  1        2 0.37444204E-01 0.55436212E+03</pdfrwt>
<pdfrwt beam="2">  1       -2 0.48564150E-01 0.55436212E+03</pdfrwt>
<totfact> 0.56107894E+02</totfact>
</mgrwt>
</event>
<event>
 4    1  0.1573232E-005  0.6406369E+03  0.7818608E-02  0.9824509E-01
         -2   -1    0    0    0  501 -0.00000000000E+00  0.00000000000E+00  0.87952801396E+02  0.87952801433E+02  0.25500000000E-02 0. -1.
          2   -1    0    0  501    0  0.00000000000E+00 -0.00000000000E+00 -0.11665791980E+04  0.11665791980E+04  0.25500000000E-02 0.  1.
    5000001    1    1    2    0    0 -0.14273119668E+03 -0.64271257471E+02 -0.98101170498E+03  0.10070312579E+04  0.16500000000E+03 0.  0.
   -5000001    1    1    2    0    0  0.14273119668E+03  0.64271257471E+02 -0.97614691596E+02  0.24750074153E+03  0.16500000000E+03 0.  0.
<mgrwt>
<rscale>  0 0.64063690E+03</rscale>
<asrwt>0</asrwt>
<pdfrwt beam="1">  1        2 0.17947371E+00 0.64063690E+03</pdfrwt>
<pdfrwt beam="2">  1       -2 0.13531201E-01 0.64063690E+03</pdfrwt>
<totfact> 0.83536710E+02</totfact>
</mgrwt>
</event>
<event>
 4    1  0.1573232E-005  0.4356055E+03  0.7818608E-02  0.1032104E+00
          2   -1    0    0  501    0  0.00000000000E+00  0.00000000000E+00  0.15183248437E+04  0.15183248437E+04  0.25500000000E-02 0.  1.
         -2   -1    0    0    0  501 -0.00000000000E+00 -0.00000000000E+00 -0.31243661973E+02  0.31243662077E+02  0.25500000000E-02 0. -1.
    5000001    1    1    2    0    0 -0.66972568438E+02 -0.76051197016E+02  0.38881195023E+03  0.43436026767E+03  0.16500000000E+03 0.  0.
   -5000001    1    1    2    0    0  0.66972568438E+02  0.76051197016E+02  0.10982692315E+04  0.11152082381E+04  0.16500000000E+03 0.  0.
<mgrwt>
<rscale>  0 0.43560546E+03</rscale>
<asrwt>0</asrwt>
<pdfrwt beam="1">  1        2 0.23358846E+00 0.43560546E+03</pdfrwt>
<pdfrwt beam="2">  1       -2 0.48067167E-02 0.43560546E+03</pdfrwt>
<totfact> 0.27696996E+03</totfact>
</mgrwt>
</event>
<event>
 4    1  0.1573232E-005  0.5585155E+03  0.7818608E-02  0.9995419E-01
          2   -1    0    0  501    0  0.00000000000E+00  0.00000000000E+00  0.31765951829E+03  0.31765951830E+03  0.25500000000E-02 0.  1.
         -2   -1    0    0    0  501 -0.00000000000E+00 -0.00000000000E+00 -0.24549840440E+03  0.24549840442E+03  0.25500000000E-02 0. -1.
    5000001    1    1    2    0    0 -0.27671203766E+02  0.21136004922E+03 -0.37471907680E+02  0.27215420222E+03  0.16500000000E+03 0.  0.
   -5000001    1    1    2    0    0  0.27671203766E+02 -0.21136004922E+03  0.10963302156E+03  0.29100372049E+03  0.16500000000E+03 0.  0.
<mgrwt>
<rscale>  0 0.55851555E+03</rscale>
<asrwt>0</asrwt>
<pdfrwt beam="1">  1        2 0.48870695E-01 0.55851555E+03</pdfrwt>
<pdfrwt beam="2">  1       -2 0.37768985E-01 0.55851555E+03</pdfrwt>
<totfact> 0.68533036E+02</totfact>
</mgrwt>
</event>
<event>
 4    1  0.1573232E-005  0.3554126E+03  0.7818608E-02  0.1060415E+00
          2   -1    0    0  501    0  0.00000000000E+00  0.00000000000E+00  0.17652587837E+04  0.17652587837E+04  0.25500000000E-02 0.  1.
         -2   -1    0    0    0  501 -0.00000000000E+00 -0.00000000000E+00 -0.17889465300E+02  0.17889465482E+02  0.25500000000E-02 0. -1.
    5000001    1    1    2    0    0 -0.59361143429E+02 -0.12285060838E+02  0.10045024578E+04  0.10197670596E+04  0.16500000000E+03 0.  0.
   -5000001    1    1    2    0    0  0.59361143429E+02  0.12285060838E+02  0.74286686058E+03  0.76338118959E+03  0.16500000000E+03 0.  0.
<mgrwt>
<rscale>  0 0.35541264E+03</rscale>
<asrwt>0</asrwt>
<pdfrwt beam="1">  1        2 0.27157822E+00 0.35541264E+03</pdfrwt>
<pdfrwt beam="2">  1       -2 0.27522260E-02 0.35541264E+03</pdfrwt>
<totfact> 0.47567432E+03</totfact>
</mgrwt>
</event>
<event>
 4    1  0.1573232E-005  0.5238923E+03  0.7818608E-02  0.1007724E+00
          2   -1    0    0  501    0  0.00000000000E+00  0.00000000000E+00  0.10220256905E+04  0.10220256905E+04  0.25500000000E-02 0.  1.
         -2   -1    0    0    0  501 -0.00000000000E+00 -0.00000000000E+00 -0.67137043236E+02  0.67137043285E+02  0.25500000000E-02 0. -1.
    5000001    1    1    2    0    0  0.12038551028E+03  0.13871287561E+03  0.29552625483E+03  0.38509050915E+03  0.16500000000E+03 0.  0.
   -5000001    1    1    2    0    0 -0.12038551028E+03 -0.13871287561E+03  0.65936239247E+03  0.70407222467E+03  0.16500000000E+03 0.  0.
<mgrwt>
<rscale>  0 0.52389229E+03</rscale>
<asrwt>0</asrwt>
<pdfrwt beam="1">  1        2 0.15723472E+00 0.52389229E+03</pdfrwt>
<pdfrwt beam="2">  1       -2 0.10328776E-01 0.52389229E+03</pdfrwt>
<totfact> 0.15996653E+03</totfact>
</mgrwt>
</event>
<event>
 4    1  0.1573232E-005  0.4281997E+03  0.7818608E-02  0.1034430E+00
          2   -1    0    0  501    0  0.00000000000E+00  0.00000000000E+00  0.33922767517E+03  0.33922767518E+03  0.25500000000E-02 0. -1.
         -2   -1    0    0    0  501 -0.00000000000E+00 -0.00000000000E+00 -0.13512677248E+03  0.13512677251E+03  0.25500000000E-02 0.  1.
    5000001    1    1    2    0    0 -0.12502374561E+03 -0.22464943866E+02  0.46903856198E+02  0.21344925017E+03  0.16500000000E+03 0.  0.
   -5000001    1    1    2    0    0  0.12502374561E+03  0.22464943866E+02  0.15719704649E+03  0.26090519753E+03  0.16500000000E+03 0.  0.
<mgrwt>
<rscale>  0 0.42819968E+03</rscale>
<asrwt>0</asrwt>
<pdfrwt beam="1">  1        2 0.52188873E-01 0.42819968E+03</pdfrwt>
<pdfrwt beam="2">  1       -2 0.20788734E-01 0.42819968E+03</pdfrwt>
<totfact> 0.18927820E+03</totfact>
</mgrwt>
</event>
<event>
 4    1  0.1573232E-005  0.3732265E+03  0.7818608E-02  0.1053466E+00
          2   -1    0    0  501    0  0.00000000000E+00  0.00000000000E+00  0.73113375542E+02  0.73113375587E+02  0.25500000000E-02 0.  1.
         -2   -1    0    0    0  501 -0.00000000000E+00 -0.00000000000E+00 -0.47630824713E+03  0.47630824714E+03  0.25500000000E-02 0. -1.
    5000001    1    1    2    0    0 -0.58026865835E+02  0.47941705695E+02 -0.26633542586E+03  0.32221899908E+03  0.16500000000E+03 0.  0.
   -5000001    1    1    2    0    0  0.58026865835E+02 -0.47941705695E+02 -0.13685944573E+03  0.22720262364E+03  0.16500000000E+03 0.  0.
<mgrwt>
<rscale>  0 0.37322649E+03</rscale>
<asrwt>0</asrwt>
<pdfrwt beam="1">  1        2 0.11248212E-01 0.37322649E+03</pdfrwt>
<pdfrwt beam="2">  1       -2 0.73278190E-01 0.37322649E+03</pdfrwt>
<totfact> 0.96195826E+02</totfact>
</mgrwt>
</event>
<event>
 4    1  0.1573232E-005  0.5698000E+03  0.7818608E-02  0.9970121E-01
         -2   -1    0    0    0  501 -0.00000000000E+00  0.00000000000E+00  0.19522750843E+03  0.19522750845E+03  0.25500000000E-02 0. -1.
          2   -1    0    0  501    0  0.00000000000E+00 -0.00000000000E+00 -0.41576106386E+03  0.41576106387E+03  0.25500000000E-02 0.  1.
    5000001    1    1    2    0    0  0.46259808646E+02  0.22758880123E+03 -0.11297188740E+03  0.30647068324E+03  0.16500000000E+03 0.  0.
   -5000001    1    1    2    0    0 -0.46259808646E+02 -0.22758880123E+03 -0.10756166803E+03  0.30451788908E+03  0.16500000000E+03 0.  0.
<mgrwt>
<rscale>  0 0.56979995E+03</rscale>
<asrwt>0</asrwt>
<pdfrwt beam="1">  1        2 0.63963240E-01 0.56979995E+03</pdfrwt>
<pdfrwt beam="2">  1       -2 0.30035001E-01 0.56979995E+03</pdfrwt>
<totfact> 0.78226799E+02</totfact>
</mgrwt>
</event>
<event>
 4    1  0.1573232E-005  0.1420267E+04  0.7818608E-02  0.8939278E-01
          2   -1    0    0  501    0  0.00000000000E+00  0.00000000000E+00  0.30741064542E+04  0.30741064542E+04  0.25500000000E-02 0.  1.
         -2   -1    0    0    0  501 -0.00000000000E+00 -0.00000000000E+00 -0.16404417085E+03  0.16404417087E+03  0.25500000000E-02 0. -1.
    5000001    1    1    2    0    0 -0.62766082077E+03  0.28398767268E+03  0.15680477240E+04  0.17206410924E+04  0.16500000000E+03 0.  0.
   -5000001    1    1    2    0    0  0.62766082077E+03 -0.28398767268E+03  0.13420145593E+04  0.15175095326E+04  0.16500000000E+03 0.  0.
<mgrwt>
<rscale>  0 0.14202665E+04</rscale>
<asrwt>0</asrwt>
<pdfrwt beam="1">  1        2 0.47293941E+00 0.14202665E+04</pdfrwt>
<pdfrwt beam="2">  1       -2 0.25237567E-01 0.14202665E+04</pdfrwt>
<totfact> 0.21633858E+01</totfact>
</mgrwt>
</event>
<event>
 4    1  0.1573232E-005  0.4832619E+03  0.7818608E-02  0.1018243E+00
         -2   -1    0    0    0  501 -0.00000000000E+00  0.00000000000E+00  0.13519070295E+04  0.13519070295E+04  0.25500000000E-02 0. -1.
          2   -1    0    0  501    0  0.00000000000E+00 -0.00000000000E+00 -0.43187521639E+02  0.43187521714E+02  0.25500000000E-02 0.  1.
    5000001    1    1    2    0    0  0.16883331615E+03  0.37665405703E+02  0.55282119547E+03  0.60229531427E+03  0.16500000000E+03 0.  0.
   -5000001    1    1    2    0    0 -0.16883331615E+03 -0.37665405703E+02  0.75589831237E+03  0.79279923693E+03  0.16500000000E+03 0.  0.
<mgrwt>
<rscale>  0 0.48326189E+03</rscale>
<asrwt>0</asrwt>
<pdfrwt beam="1">  1        2 0.66442349E-02 0.48326189E+03</pdfrwt>
<pdfrwt beam="2">  1       -2 0.20798567E+00 0.48326189E+03</pdfrwt>
<totfact> 0.13762120E+02</totfact>
</mgrwt>
</event>
<event>
 4    1  0.1573232E-005  0.3987768E+03  0.7818608E-02  0.1044204E+00
          2   -1    0    0  501    0  0.00000000000E+00  0.00000000000E+00  0.17183574456E+04  0.17183574456E+04  0.25500000000E-02 0.  1.
         -2   -1    0    0    0  501 -0.00000000000E+00 -0.00000000000E+00 -0.23135890063E+02  0.23135890204E+02  0.25500000000E-02 0. -1.
    5000001    1    1    2    0    0  0.10617731593E+03 -0.27977740393E+02  0.94272438394E+03  0.96333308905E+03  0.16500000000E+03 0.  0.
   -5000001    1    1    2    0    0 -0.10617731593E+03  0.27977740393E+02  0.75249717156E+03  0.77816024672E+03  0.16500000000E+03 0.  0.
<mgrwt>
<rscale>  0 0.39877678E+03</rscale>
<asrwt>0</asrwt>
<pdfrwt beam="1">  1        2 0.26436271E+00 0.39877678E+03</pdfrwt>
<pdfrwt beam="2">  1       -2 0.35593673E-02 0.39877678E+03</pdfrwt>
<totfact> 0.34195060E+03</totfact>
</mgrwt>
</event>
<event>
 4    1  0.1573232E-005  0.6633692E+03  0.7818608E-02  0.9782011E-01
         -2   -1    0    0    0  501 -0.00000000000E+00  0.00000000000E+00  0.80242689741E+02  0.80242689782E+02  0.25500000000E-02 0. -1.
          2   -1    0    0  501    0  0.00000000000E+00 -0.00000000000E+00 -0.13710244113E+04  0.13710244113E+04  0.25500000000E-02 0.  1.
    5000001    1    1    2    0    0 -0.27463420892E+03 -0.31453360691E+02 -0.82008591574E+03  0.88101031311E+03  0.16500000000E+03 0.  0.
   -5000001    1    1    2    0    0  0.27463420892E+03  0.31453360691E+02 -0.47069580579E+03  0.57025678795E+03  0.16500000000E+03 0.  0.
<mgrwt>
<rscale>  0 0.66336924E+03</rscale>
<asrwt>0</asrwt>
<pdfrwt beam="1">  1        2 0.21092682E+00 0.66336924E+03</pdfrwt>
<pdfrwt beam="2">  1       -2 0.12345030E-01 0.66336924E+03</pdfrwt>
<totfact> 0.74017814E+02</totfact>
</mgrwt>
</event>
<event>
 4    1  0.1573232E-005  0.4528104E+03  0.7818608E-02  0.1026887E+00
          2   -1    0    0  501    0  0.00000000000E+00  0.00000000000E+00  0.62427137370E+03  0.62427137371E+03  0.25500000000E-02 0.  1.
         -2   -1    0    0    0  501 -0.00000000000E+00 -0.00000000000E+00 -0.82110610804E+02  0.82110610843E+02  0.25500000000E-02 0. -1.
    5000001    1    1    2    0    0  0.56136424621E+02 -0.12744639264E+03  0.37734826622E+03  0.43475348784E+03  0.16500000000E+03 0.  0.
   -5000001    1    1    2    0    0 -0.56136424621E+02  0.12744639264E+03  0.16481249668E+03  0.27162849671E+03  0.16500000000E+03 0.  0.
<mgrwt>
<rscale>  0 0.45281035E+03</rscale>
<asrwt>0</asrwt>
<pdfrwt beam="1">  1        2 0.96041747E-01 0.45281035E+03</pdfrwt>
<pdfrwt beam="2">  1       -2 0.12632402E-01 0.45281035E+03</pdfrwt>
<totfact> 0.22006232E+03</totfact>
</mgrwt>
</event>
<event>
 4    1  0.1573232E-005  0.5666375E+03  0.7818608E-02  0.9977147E-01
         -2   -1    0    0    0  501 -0.00000000000E+00  0.00000000000E+00  0.13683076683E+03  0.13683076686E+03  0.25500000000E-02 0.  1.
          2   -1    0    0  501    0  0.00000000000E+00 -0.00000000000E+00 -0.58663341579E+03  0.58663341579E+03  0.25500000000E-02 0. -1.
    5000001    1    1    2    0    0  0.91639488452E+02 -0.20516205314E+03 -0.16036157282E+03  0.32160550046E+03  0.16500000000E+03 0.  0.
   -5000001    1    1    2    0    0 -0.91639488452E+02  0.20516205314E+03 -0.28944107614E+03  0.40185868218E+03  0.16500000000E+03 0.  0.
<mgrwt>
<rscale>  0 0.56663745E+03</rscale>
<asrwt>0</asrwt>
<pdfrwt beam="1">  1        2 0.90251294E-01 0.56663745E+03</pdfrwt>
<pdfrwt beam="2">  1       -2 0.21050887E-01 0.56663745E+03</pdfrwt>
<totfact> 0.99715653E+02</totfact>
</mgrwt>
</event>
<event>
 4    1  0.1573232E-005  0.5329483E+03  0.7818608E-02  0.1005520E+00
         -2   -1    0    0    0  501 -0.00000000000E+00  0.00000000000E+00  0.49547029614E+02  0.49547029680E+02  0.25500000000E-02 0.  1.
          2   -1    0    0  501    0  0.00000000000E+00 -0.00000000000E+00 -0.14331529297E+04  0.14331529297E+04  0.25500000000E-02 0. -1.
    5000001    1    1    2    0    0 -0.13266542391E+03  0.13808485245E+03 -0.45711865960E+03  0.52235046677E+03  0.16500000000E+03 0.  0.
   -5000001    1    1    2    0    0  0.13266542391E+03 -0.13808485245E+03 -0.92648724046E+03  0.96034949259E+03  0.16500000000E+03 0.  0.
<mgrwt>
<rscale>  0 0.53294829E+03</rscale>
<asrwt>0</asrwt>
<pdfrwt beam="1">  1        2 0.22048503E+00 0.53294829E+03</pdfrwt>
<pdfrwt beam="2">  1       -2 0.76226210E-02 0.53294829E+03</pdfrwt>
<totfact> 0.14986024E+03</totfact>
</mgrwt>
</event>
<event>
 4    1  0.1573232E-005  0.6469489E+03  0.7818608E-02  0.9812521E-01
         -2   -1    0    0    0  501 -0.00000000000E+00  0.00000000000E+00  0.41644964075E+03  0.41644964076E+03  0.25500000000E-02 0. -1.
          2   -1    0    0  501    0  0.00000000000E+00 -0.00000000000E+00 -0.25125656789E+03  0.25125656790E+03  0.25500000000E-02 0.  1.
    5000001    1    1    2    0    0  0.23434082982E+03  0.70898122635E+01 -0.72026251821E+02  0.29559883442E+03  0.16500000000E+03 0.  0.
   -5000001    1    1    2    0    0 -0.23434082982E+03 -0.70898122635E+01  0.23721932469E+03  0.37210737424E+03  0.16500000000E+03 0.  0.
<mgrwt>
<rscale>  0 0.64694886E+03</rscale>
<asrwt>0</asrwt>
<pdfrwt beam="1">  1        2 0.38654857E-01 0.64694886E+03</pdfrwt>
<pdfrwt beam="2">  1       -2 0.64069175E-01 0.64694886E+03</pdfrwt>
<totfact> 0.30440200E+02</totfact>
</mgrwt>
</event>
<event>
 4    1  0.1573232E-005  0.5522865E+03  0.7818608E-02  0.1000966E+00
          2   -1    0    0  501    0  0.00000000000E+00  0.00000000000E+00  0.10988920299E+04  0.10988920299E+04  0.25500000000E-02 0.  1.
         -2   -1    0    0    0  501 -0.00000000000E+00 -0.00000000000E+00 -0.69392697646E+02  0.69392697693E+02  0.25500000000E-02 0. -1.
    5000001    1    1    2    0    0 -0.76858957204E+02 -0.20642539923E+03  0.56258383093E+03  0.62629410949E+03  0.16500000000E+03 0.  0.
   -5000001    1    1    2    0    0  0.76858957204E+02  0.20642539923E+03  0.46691550133E+03  0.54199061812E+03  0.16500000000E+03 0.  0.
<mgrwt>
<rscale>  0 0.55228646E+03</rscale>
<asrwt>0</asrwt>
<pdfrwt beam="1">  1        2 0.16906031E+00 0.55228646E+03</pdfrwt>
<pdfrwt beam="2">  1       -2 0.10675799E-01 0.55228646E+03</pdfrwt>
<totfact> 0.13591300E+03</totfact>
</mgrwt>
</event>
<event>
 4    1  0.1573232E-005  0.1223670E+04  0.7818608E-02  0.9092387E-01
          2   -1    0    0  501    0  0.00000000000E+00  0.00000000000E+00  0.16785885927E+04  0.16785885927E+04  0.25500000000E-02 0.  1.
         -2   -1    0    0    0  501 -0.00000000000E+00 -0.00000000000E+00 -0.22301014233E+03  0.22301014235E+03  0.25500000000E-02 0. -1.
    5000001    1    1    2    0    0 -0.54470415387E+03 -0.10473842069E+03  0.10364261124E+04  0.11870454239E+04  0.16500000000E+03 0.  0.
   -5000001    1    1    2    0    0  0.54470415387E+03  0.10473842069E+03  0.41915233797E+03  0.71455331112E+03  0.16500000000E+03 0.  0.
<mgrwt>
<rscale>  0 0.12236703E+04</rscale>
<asrwt>0</asrwt>
<pdfrwt beam="1">  1        2 0.25824440E+00 0.12236703E+04</pdfrwt>
<pdfrwt beam="2">  1       -2 0.34309252E-01 0.12236703E+04</pdfrwt>
<totfact> 0.79018083E+01</totfact>
</mgrwt>
</event>
<event>
 4    1  0.1573232E-005  0.6694821E+03  0.7818608E-02  0.9770894E-01
          2   -1    0    0  501    0  0.00000000000E+00  0.00000000000E+00  0.10628394749E+04  0.10628394749E+04  0.25500000000E-02 0.  1.
         -2   -1    0    0    0  501 -0.00000000000E+00 -0.00000000000E+00 -0.10542660373E+03  0.10542660376E+03  0.25500000000E-02 0. -1.
    5000001    1    1    2    0    0  0.23130899271E+03 -0.10431666570E+03  0.22921759495E+03  0.37967291540E+03  0.16500000000E+03 0.  0.
   -5000001    1    1    2    0    0 -0.23130899271E+03  0.10431666570E+03  0.72819527618E+03  0.78859316324E+03  0.16500000000E+03 0.  0.
<mgrwt>
<rscale>  0 0.66948206E+03</rscale>
<asrwt>0</asrwt>
<pdfrwt beam="1">  1        2 0.16351378E+00 0.66948206E+03</pdfrwt>
<pdfrwt beam="2">  1       -2 0.16219476E-01 0.66948206E+03</pdfrwt>
<totfact> 0.71060916E+02</totfact>
</mgrwt>
</event>
<event>
 4    1  0.1573232E-005  0.8020737E+03  0.7818608E-02  0.9557020E-01
         -2   -1    0    0    0  501 -0.00000000000E+00  0.00000000000E+00  0.23673481692E+03  0.23673481693E+03  0.25500000000E-02 0. -1.
          2   -1    0    0  501    0  0.00000000000E+00 -0.00000000000E+00 -0.67937009290E+03  0.67937009290E+03  0.25500000000E-02 0.  1.
    5000001    1    1    2    0    0 -0.31799103813E+03  0.16148900945E+03 -0.12988295536E+03  0.41387387281E+03  0.16500000000E+03 0.  0.
   -5000001    1    1    2    0    0  0.31799103813E+03 -0.16148900945E+03 -0.31275232061E+03  0.50223103703E+03  0.16500000000E+03 0.  0.
<mgrwt>
<rscale>  0 0.80207370E+03</rscale>
<asrwt>0</asrwt>
<pdfrwt beam="1">  1        2 0.10451848E+00 0.80207370E+03</pdfrwt>
<pdfrwt beam="2">  1       -2 0.36420741E-01 0.80207370E+03</pdfrwt>
<totfact> 0.30356827E+02</totfact>
</mgrwt>
</event>
<event>
 4    1  0.1573232E-005  0.1113654E+04  0.7818608E-02  0.9191985E-01
         -2   -1    0    0    0  501 -0.00000000000E+00  0.00000000000E+00  0.14584739436E+04  0.14584739436E+04  0.25500000000E-02 0. -1.
          2   -1    0    0  501    0  0.00000000000E+00 -0.00000000000E+00 -0.21258948460E+03  0.21258948461E+03  0.25500000000E-02 0.  1.
    5000001    1    1    2    0    0 -0.20724091478E+03  0.20939734835E+03  0.12873117768E+04  0.13308616220E+04  0.16500000000E+03 0.  0.
   -5000001    1    1    2    0    0  0.20724091478E+03 -0.20939734835E+03 -0.41427317838E+02  0.34020180617E+03  0.16500000000E+03 0.  0.
<mgrwt>
<rscale>  0 0.11136538E+04</rscale>
<asrwt>0</asrwt>
<pdfrwt beam="1">  1        2 0.32706074E-01 0.11136538E+04</pdfrwt>
<pdfrwt beam="2">  1       -2 0.22438061E+00 0.11136538E+04</pdfrwt>
<totfact> 0.14880827E+01</totfact>
</mgrwt>
</event>
<event>
 4    1  0.1573232E-005  0.5831191E+03  0.7818608E-02  0.9941061E-01
          2   -1    0    0  501    0  0.00000000000E+00  0.00000000000E+00  0.13130357896E+04  0.13130357896E+04  0.25500000000E-02 0.  1.
         -2   -1    0    0    0  501 -0.00000000000E+00 -0.00000000000E+00 -0.64740777776E+02  0.64740777826E+02  0.25500000000E-02 0. -1.
    5000001    1    1    2    0    0  0.75560980052E+01 -0.23892016957E+03  0.68401548150E+03  0.74312994892E+03  0.16500000000E+03 0.  0.
   -5000001    1    1    2    0    0 -0.75560980052E+01  0.23892016957E+03  0.56427953033E+03  0.63464661852E+03  0.16500000000E+03 0.  0.
<mgrwt>
<rscale>  0 0.58311906E+03</rscale>
<asrwt>0</asrwt>
<pdfrwt beam="1">  1        2 0.20200549E+00 0.58311906E+03</pdfrwt>
<pdfrwt beam="2">  1       -2 0.99601203E-02 0.58311906E+03</pdfrwt>
<totfact> 0.11385069E+03</totfact>
</mgrwt>
</event>
<event>
 4    1  0.1573232E-005  0.6944293E+03  0.7818608E-02  0.9726806E-01
         -2   -1    0    0    0  501 -0.00000000000E+00  0.00000000000E+00  0.10626343747E+03  0.10626343750E+03  0.25500000000E-02 0. -1.
          2   -1    0    0  501    0  0.00000000000E+00 -0.00000000000E+00 -0.11345202359E+04  0.11345202359E+04  0.25500000000E-02 0.  1.
    5000001    1    1    2    0    0 -0.16694091280E+03  0.24238501272E+03 -0.66052623983E+03  0.74171401244E+03  0.16500000000E+03 0.  0.
   -5000001    1    1    2    0    0  0.16694091280E+03 -0.24238501272E+03 -0.36773055859E+03  0.49906966094E+03  0.16500000000E+03 0.  0.
<mgrwt>
<rscale>  0 0.69442932E+03</rscale>
<asrwt>0</asrwt>
<pdfrwt beam="1">  1        2 0.17454157E+00 0.69442932E+03</pdfrwt>
<pdfrwt beam="2">  1       -2 0.16348222E-01 0.69442932E+03</pdfrwt>
<totfact> 0.63331003E+02</totfact>
</mgrwt>
</event>
<event>
 4    1  0.1573232E-005  0.5979864E+03  0.7818608E-02  0.9909592E-01
         -2   -1    0    0    0  501 -0.00000000000E+00  0.00000000000E+00  0.21463016226E+03  0.21463016227E+03  0.25500000000E-02 0. -1.
          2   -1    0    0  501    0  0.00000000000E+00 -0.00000000000E+00 -0.41651623967E+03  0.41651623968E+03  0.25500000000E-02 0.  1.
    5000001    1    1    2    0    0  0.16224725007E+03  0.18229924943E+03 -0.15491333705E+03  0.33283678957E+03  0.16500000000E+03 0.  0.
   -5000001    1    1    2    0    0 -0.16224725007E+03 -0.18229924943E+03 -0.46972740361E+02  0.29830961238E+03  0.16500000000E+03 0.  0.
<mgrwt>
<rscale>  0 0.59798645E+03</rscale>
<asrwt>0</asrwt>
<pdfrwt beam="1">  1        2 0.64079421E-01 0.59798645E+03</pdfrwt>
<pdfrwt beam="2">  1       -2 0.33020025E-01 0.59798645E+03</pdfrwt>
<totfact> 0.65415466E+02</totfact>
</mgrwt>
</event>
<event>
 4    1  0.1573232E-005  0.5597765E+03  0.7818608E-02  0.9992560E-01
          2   -1    0    0  501    0  0.00000000000E+00  0.00000000000E+00  0.15160001074E+04  0.15160001074E+04  0.25500000000E-02 0.  1.
         -2   -1    0    0    0  501 -0.00000000000E+00 -0.00000000000E+00 -0.51673768595E+02  0.51673768658E+02  0.25500000000E-02 0. -1.
    5000001    1    1    2    0    0 -0.19006327867E+03  0.12089827172E+03  0.78617770353E+03  0.83429061096E+03  0.16500000000E+03 0.  0.
   -5000001    1    1    2    0    0  0.19006327867E+03 -0.12089827172E+03  0.67814863524E+03  0.73338326507E+03  0.16500000000E+03 0.  0.
<mgrwt>
<rscale>  0 0.55977652E+03</rscale>
<asrwt>0</asrwt>
<pdfrwt beam="1">  1        2 0.23323075E+00 0.55977652E+03</pdfrwt>
<pdfrwt beam="2">  1       -2 0.79498116E-02 0.55977652E+03</pdfrwt>
<totfact> 0.12602753E+03</totfact>
</mgrwt>
</event>
<event>
 4    1  0.1573232E-005  0.4919576E+03  0.7818608E-02  0.1015900E+00
         -2   -1    0    0    0  501 -0.00000000000E+00  0.00000000000E+00  0.10832179156E+03  0.10832179159E+03  0.25500000000E-02 0. -1.
          2   -1    0    0  501    0  0.00000000000E+00 -0.00000000000E+00 -0.55857250195E+03  0.55857250195E+03  0.25500000000E-02 0.  1.
    5000001    1    1    2    0    0 -0.99478499632E+02 -0.12998628380E+03 -0.33431724059E+03  0.40716756160E+03  0.16500000000E+03 0.  0.
   -5000001    1    1    2    0    0  0.99478499632E+02  0.12998628380E+03 -0.11593346980E+03  0.25972673194E+03  0.16500000000E+03 0.  0.
<mgrwt>
<rscale>  0 0.49195762E+03</rscale>
<asrwt>0</asrwt>
<pdfrwt beam="1">  1        2 0.85934229E-01 0.49195762E+03</pdfrwt>
<pdfrwt beam="2">  1       -2 0.16664891E-01 0.49195762E+03</pdfrwt>
<totfact> 0.15810660E+03</totfact>
</mgrwt>
</event>
<event>
 4    1  0.1573232E-005  0.5108990E+03  0.7818608E-02  0.1010973E+00
          2   -1    0    0  501    0  0.00000000000E+00  0.00000000000E+00  0.48065386759E+03  0.48065386760E+03  0.25500000000E-02 0.  1.
         -2   -1    0    0    0  501 -0.00000000000E+00 -0.00000000000E+00 -0.13576182120E+03  0.13576182123E+03  0.25500000000E-02 0. -1.
    5000001    1    1    2    0    0  0.14548960945E+03  0.11526840934E+03  0.24459026506E+03  0.34857342184E+03  0.16500000000E+03 0.  0.
   -5000001    1    1    2    0    0 -0.14548960945E+03 -0.11526840934E+03  0.10030178133E+03  0.26784226699E+03  0.16500000000E+03 0.  0.
<mgrwt>
<rscale>  0 0.51089899E+03</rscale>
<asrwt>0</asrwt>
<pdfrwt beam="1">  1        2 0.73946748E-01 0.51089899E+03</pdfrwt>
<pdfrwt beam="2">  1       -2 0.20886434E-01 0.51089899E+03</pdfrwt>
<totfact> 0.12749133E+03</totfact>
</mgrwt>
</event>
<event>
 4    1  0.1573232E-005  0.6810181E+03  0.7818608E-02  0.9750256E-01
         -2   -1    0    0    0  501 -0.00000000000E+00  0.00000000000E+00  0.49324297829E+02  0.49324297895E+02  0.25500000000E-02 0. -1.
          2   -1    0    0  501    0  0.00000000000E+00 -0.00000000000E+00 -0.23506953916E+04  0.23506953916E+04  0.25500000000E-02 0.  1.
    5000001    1    1    2    0    0 -0.30753177588E+02 -0.27715034465E+03 -0.15196864109E+04  0.15538435761E+04  0.16500000000E+03 0.  0.
   -5000001    1    1    2    0    0  0.30753177588E+02  0.27715034465E+03 -0.78168468286E+03  0.84617611340E+03  0.16500000000E+03 0.  0.
<mgrwt>
<rscale>  0 0.68101806E+03</rscale>
<asrwt>0</asrwt>
<pdfrwt beam="1">  1        2 0.36164536E+00 0.68101806E+03</pdfrwt>
<pdfrwt beam="2">  1       -2 0.75883553E-02 0.68101806E+03</pdfrwt>
<totfact> 0.47200368E+02</totfact>
</mgrwt>
</event>
<event>
 4    1  0.1573232E-005  0.9812884E+03  0.7818608E-02  0.9329309E-01
          2   -1    0    0  501    0  0.00000000000E+00  0.00000000000E+00  0.20623982540E+04  0.20623982540E+04  0.25500000000E-02 0.  1.
         -2   -1    0    0    0  501 -0.00000000000E+00 -0.00000000000E+00 -0.11672418267E+03  0.11672418270E+03  0.25500000000E-02 0. -1.
    5000001    1    1    2    0    0 -0.39942927412E+03  0.18701416577E+03  0.12788449440E+04  0.13627866429E+04  0.16500000000E+03 0.  0.
   -5000001    1    1    2    0    0  0.39942927412E+03 -0.18701416577E+03  0.66682912732E+03  0.81633579381E+03  0.16500000000E+03 0.  0.
<mgrwt>
<rscale>  0 0.98128844E+03</rscale>
<asrwt>0</asrwt>
<pdfrwt beam="1">  1        2 0.31729206E+00 0.98128844E+03</pdfrwt>
<pdfrwt beam="2">  1       -2 0.17957566E-01 0.98128844E+03</pdfrwt>
<totfact> 0.15979307E+02</totfact>
</mgrwt>
</event>
<event>
 4    1  0.1573232E-005  0.6605321E+03  0.7818608E-02  0.9787215E-01
          2   -1    0    0  501    0  0.00000000000E+00  0.00000000000E+00  0.86171341458E+03  0.86171341459E+03  0.25500000000E-02 0.  1.
         -2   -1    0    0    0  501 -0.00000000000E+00 -0.00000000000E+00 -0.12657997318E+03  0.12657997321E+03  0.25500000000E-02 0. -1.
    5000001    1    1    2    0    0 -0.20223239510E+03 -0.20146464112E+03  0.39614067687E+03  0.51540118269E+03  0.16500000000E+03 0.  0.
   -5000001    1    1    2    0    0  0.20223239510E+03  0.20146464112E+03  0.33899276453E+03  0.47289220511E+03  0.16500000000E+03 0.  0.
<mgrwt>
<rscale>  0 0.66053209E+03</rscale>
<asrwt>0</asrwt>
<pdfrwt beam="1">  1        2 0.13257129E+00 0.66053209E+03</pdfrwt>
<pdfrwt beam="2">  1       -2 0.19473843E-01 0.66053209E+03</pdfrwt>
<totfact> 0.70086765E+02</totfact>
</mgrwt>
</event>
<event>
 4    1  0.1573232E-005  0.5779562E+03  0.7818608E-02  0.9952226E-01
          2   -1    0    0  501    0  0.00000000000E+00  0.00000000000E+00  0.91289515296E+03  0.91289515296E+03  0.25500000000E-02 0. -1.
         -2   -1    0    0    0  501 -0.00000000000E+00 -0.00000000000E+00 -0.91476368446E+02  0.91476368482E+02  0.25500000000E-02 0.  1.
    5000001    1    1    2    0    0 -0.16920249739E+03 -0.12322405200E+03  0.21665335321E+03  0.34347827816E+03  0.16500000000E+03 0.  0.
   -5000001    1    1    2    0    0  0.16920249739E+03  0.12322405200E+03  0.60476543131E+03  0.66089324328E+03  0.16500000000E+03 0.  0.
<mgrwt>
<rscale>  0 0.57795617E+03</rscale>
<asrwt>0</asrwt>
<pdfrwt beam="1">  1        2 0.14044541E+00 0.57795617E+03</pdfrwt>
<pdfrwt beam="2">  1       -2 0.14073287E-01 0.57795617E+03</pdfrwt>
<totfact> 0.11286057E+03</totfact>
</mgrwt>
</event>
<event>
 4    1  0.1573232E-005  0.1153926E+04  0.7818608E-02  0.9154169E-01
         -2   -1    0    0    0  501 -0.00000000000E+00  0.00000000000E+00  0.10339312237E+04  0.10339312237E+04  0.25500000000E-02 0. -1.
          2   -1    0    0  501    0  0.00000000000E+00 -0.00000000000E+00 -0.32196181195E+03  0.32196181196E+03  0.25500000000E-02 0.  1.
    5000001    1    1    2    0    0 -0.26756517747E+03 -0.48374575014E+03  0.36510878359E+03  0.68273750360E+03  0.16500000000E+03 0.  0.
   -5000001    1    1    2    0    0  0.26756517747E+03  0.48374575014E+03  0.34686062817E+03  0.67315553206E+03  0.16500000000E+03 0.  0.
<mgrwt>
<rscale>  0 0.11539261E+04</rscale>
<asrwt>0</asrwt>
<pdfrwt beam="1">  1        2 0.49532586E-01 0.11539261E+04</pdfrwt>
<pdfrwt beam="2">  1       -2 0.15906634E+00 0.11539261E+04</pdfrwt>
<totfact> 0.25668561E+01</totfact>
</mgrwt>
</event>
<event>
 4    1  0.1573232E-005  0.4566756E+03  0.7818608E-02  0.1025750E+00
          2   -1    0    0  501    0  0.00000000000E+00  0.00000000000E+00  0.15492322288E+04  0.15492322288E+04  0.25500000000E-02 0.  1.
         -2   -1    0    0    0  501 -0.00000000000E+00 -0.00000000000E+00 -0.33654191447E+02  0.33654191544E+02  0.25500000000E-02 0. -1.
    5000001    1    1    2    0    0 -0.53715682455E+02 -0.11724501814E+03  0.44236590447E+03  0.48943269431E+03  0.16500000000E+03 0.  0.
   -5000001    1    1    2    0    0  0.53715682455E+02  0.11724501814E+03  0.10732121329E+04  0.10934537260E+04  0.16500000000E+03 0.  0.
<mgrwt>
<rscale>  0 0.45667563E+03</rscale>
<asrwt>0</asrwt>
<pdfrwt beam="1">  1        2 0.23834350E+00 0.45667563E+03</pdfrwt>
<pdfrwt beam="2">  1       -2 0.51775663E-02 0.45667563E+03</pdfrwt>
<totfact> 0.23750468E+03</totfact>
</mgrwt>
</event>
<event>
 4    1  0.1573232E-005  0.4587860E+03  0.7818608E-02  0.1025134E+00
          2   -1    0    0  501    0  0.00000000000E+00  0.00000000000E+00  0.18864762928E+04  0.18864762928E+04  0.25500000000E-02 0.  1.
         -2   -1    0    0    0  501 -0.00000000000E+00 -0.00000000000E+00 -0.27893885044E+02  0.27893885161E+02  0.25500000000E-02 0. -1.
    5000001    1    1    2    0    0 -0.71551832931E+02 -0.13242845644E+03  0.11476783079E+04  0.11692080479E+04  0.16500000000E+03 0.  0.
   -5000001    1    1    2    0    0  0.71551832931E+02  0.13242845644E+03  0.71090409983E+03  0.74516213003E+03  0.16500000000E+03 0.  0.
<mgrwt>
<rscale>  0 0.45878602E+03</rscale>
<asrwt>0</asrwt>
<pdfrwt beam="1">  1        2 0.29022705E+00 0.45878602E+03</pdfrwt>
<pdfrwt beam="2">  1       -2 0.42913681E-02 0.45878602E+03</pdfrwt>
<totfact> 0.20871571E+03</totfact>
</mgrwt>
</event>
<event>
 4    1  0.1573232E-005  0.4554782E+03  0.7818608E-02  0.1026101E+00
         -2   -1    0    0    0  501 -0.00000000000E+00  0.00000000000E+00  0.31608031983E+02  0.31608032086E+02  0.25500000000E-02 0. -1.
          2   -1    0    0  501    0  0.00000000000E+00 -0.00000000000E+00 -0.16408833611E+04  0.16408833611E+04  0.25500000000E-02 0.  1.
    5000001    1    1    2    0    0  0.45893591472E+02  0.12938576921E+03 -0.52515467564E+03  0.56732647775E+03  0.16500000000E+03 0.  0.
   -5000001    1    1    2    0    0 -0.45893591472E+02 -0.12938576921E+03 -0.10841206534E+04  0.11051649154E+04  0.16500000000E+03 0.  0.
<mgrwt>
<rscale>  0 0.45547818E+03</rscale>
<asrwt>0</asrwt>
<pdfrwt beam="1">  1        2 0.25244353E+00 0.45547818E+03</pdfrwt>
<pdfrwt beam="2">  1       -2 0.48627754E-02 0.45547818E+03</pdfrwt>
<totfact> 0.23338110E+03</totfact>
</mgrwt>
</event>
<event>
 4    1  0.1573232E-005  0.4362657E+03  0.7818608E-02  0.1031899E+00
          2   -1    0    0  501    0  0.00000000000E+00  0.00000000000E+00  0.29245020699E+04  0.29245020699E+04  0.25500000000E-02 0.  1.
         -2   -1    0    0    0  501 -0.00000000000E+00 -0.00000000000E+00 -0.16270100669E+02  0.16270100869E+02  0.25500000000E-02 0. -1.
    5000001    1    1    2    0    0  0.10445135309E+03 -0.83323511273E+02  0.17914280331E+04  0.18039657121E+04  0.16500000000E+03 0.  0.
   -5000001    1    1    2    0    0 -0.10445135309E+03  0.83323511273E+02  0.11168039361E+04  0.11368064586E+04  0.16500000000E+03 0.  0.
<mgrwt>
<rscale>  0 0.43626571E+03</rscale>
<asrwt>0</asrwt>
<pdfrwt beam="1">  1        2 0.44992389E+00 0.43626571E+03</pdfrwt>
<pdfrwt beam="2">  1       -2 0.25030897E-02 0.43626571E+03</pdfrwt>
<totfact> 0.12526242E+03</totfact>
</mgrwt>
</event>
<event>
 4    1  0.1573232E-005  0.5955179E+03  0.7818608E-02  0.9914749E-01
          2   -1    0    0  501    0  0.00000000000E+00  0.00000000000E+00  0.18763767061E+03  0.18763767063E+03  0.25500000000E-02 0.  1.
         -2   -1    0    0    0  501 -0.00000000000E+00 -0.00000000000E+00 -0.47250844936E+03  0.47250844937E+03  0.25500000000E-02 0. -1.
    5000001    1    1    2    0    0 -0.18003223485E+03  0.16075486019E+03 -0.79907789735E+02  0.30309072160E+03  0.16500000000E+03 0.  0.
   -5000001    1    1    2    0    0  0.18003223485E+03 -0.16075486019E+03 -0.20496298901E+03  0.35705539840E+03  0.16500000000E+03 0.  0.
<mgrwt>
<rscale>  0 0.59551787E+03</rscale>
<asrwt>0</asrwt>
<pdfrwt beam="1">  1        2 0.28867334E-01 0.59551787E+03</pdfrwt>
<pdfrwt beam="2">  1       -2 0.72693607E-01 0.59551787E+03</pdfrwt>
<totfact> 0.32146480E+02</totfact>
</mgrwt>
</event>
<event>
 4    1  0.1573232E-005  0.4902327E+03  0.7818608E-02  0.1016360E+00
         -2   -1    0    0    0  501 -0.00000000000E+00  0.00000000000E+00  0.24477470705E+03  0.24477470707E+03  0.25500000000E-02 0. -1.
          2   -1    0    0  501    0  0.00000000000E+00 -0.00000000000E+00 -0.24545846345E+03  0.24545846347E+03  0.25500000000E-02 0.  1.
    5000001    1    1    2    0    0 -0.13058937061E+03  0.24973478453E+02  0.12286443121E+03  0.24494474234E+03  0.16500000000E+03 0.  0.
   -5000001    1    1    2    0    0  0.13058937061E+03 -0.24973478453E+02 -0.12354818761E+03  0.24528842819E+03  0.16500000000E+03 0.  0.
<mgrwt>
<rscale>  0 0.49023269E+03</rscale>
<asrwt>0</asrwt>
<pdfrwt beam="1">  1        2 0.37762841E-01 0.49023269E+03</pdfrwt>
<pdfrwt beam="2">  1       -2 0.37657647E-01 0.49023269E+03</pdfrwt>
<totfact> 0.91593911E+02</totfact>
</mgrwt>
</event>
<event>
 4    1  0.1573232E-005  0.5576028E+03  0.7818608E-02  0.9997493E-01
          2   -1    0    0  501    0  0.00000000000E+00  0.00000000000E+00  0.21121184153E+04  0.21121184153E+04  0.25500000000E-02 0.  1.
         -2   -1    0    0    0  501 -0.00000000000E+00 -0.00000000000E+00 -0.36802017194E+02  0.36802017282E+02  0.25500000000E-02 0. -1.
    5000001    1    1    2    0    0  0.10696587586E+03 -0.53403657292E+02  0.17710213223E+04  0.17827044548E+04  0.16500000000E+03 0.  0.
   -5000001    1    1    2    0    0 -0.10696587586E+03  0.53403657292E+02  0.30429507583E+03  0.36621597779E+03  0.16500000000E+03 0.  0.
<mgrwt>
<rscale>  0 0.55760279E+03</rscale>
<asrwt>0</asrwt>
<pdfrwt beam="1">  1        2 0.32494141E+00 0.55760279E+03</pdfrwt>
<pdfrwt beam="2">  1       -2 0.56618468E-02 0.55760279E+03</pdfrwt>
<totfact> 0.10221955E+03</totfact>
</mgrwt>
</event>
<event>
 4    1  0.1573232E-005  0.6552816E+03  0.7818608E-02  0.9796919E-01
          2   -1    0    0  501    0  0.00000000000E+00  0.00000000000E+00  0.13928851008E+04  0.13928851008E+04  0.25500000000E-02 0.  1.
         -2   -1    0    0    0  501 -0.00000000000E+00 -0.00000000000E+00 -0.77069167528E+02  0.77069167570E+02  0.25500000000E-02 0. -1.
    5000001    1    1    2    0    0  0.16753827227E+03  0.21564677331E+03  0.82503904858E+03  0.88458297247E+03  0.16500000000E+03 0.  0.
   -5000001    1    1    2    0    0 -0.16753827227E+03 -0.21564677331E+03  0.49077688470E+03  0.58537129590E+03  0.16500000000E+03 0.  0.
<mgrwt>
<rscale>  0 0.65528160E+03</rscale>
<asrwt>0</asrwt>
<pdfrwt beam="1">  1        2 0.21429000E+00 0.65528160E+03</pdfrwt>
<pdfrwt beam="2">  1       -2 0.11856796E-01 0.65528160E+03</pdfrwt>
<totfact> 0.76930572E+02</totfact>
</mgrwt>
</event>
<event>
 4    1  0.1573232E-005  0.4294773E+03  0.7818608E-02  0.1034025E+00
         -2   -1    0    0    0  501 -0.00000000000E+00  0.00000000000E+00  0.45385130825E+02  0.45385130896E+02  0.25500000000E-02 0. -1.
          2   -1    0    0  501    0  0.00000000000E+00 -0.00000000000E+00 -0.10160309524E+04  0.10160309524E+04  0.25500000000E-02 0.  1.
    5000001    1    1    2    0    0 -0.33780492117E+02 -0.11709352962E+03 -0.64232442478E+03  0.67428308817E+03  0.16500000000E+03 0.  0.
   -5000001    1    1    2    0    0  0.33780492117E+02  0.11709352962E+03 -0.32832139682E+03  0.38713299515E+03  0.16500000000E+03 0.  0.
<mgrwt>
<rscale>  0 0.42947735E+03</rscale>
<asrwt>0</asrwt>
<pdfrwt beam="1">  1        2 0.15631244E+00 0.42947735E+03</pdfrwt>
<pdfrwt beam="2">  1       -2 0.69823286E-02 0.42947735E+03</pdfrwt>
<totfact> 0.30125649E+03</totfact>
</mgrwt>
</event>
<event>
 4    1  0.1573232E-005  0.7425118E+03  0.7818608E-02  0.9647172E-01
          2   -1    0    0  501    0  0.00000000000E+00  0.00000000000E+00  0.88885857262E+03  0.88885857262E+03  0.25500000000E-02 0.  1.
         -2   -1    0    0    0  501 -0.00000000000E+00 -0.00000000000E+00 -0.15506509324E+03  0.15506509326E+03  0.25500000000E-02 0. -1.
    5000001    1    1    2    0    0  0.18126433584E+03  0.21506420200E+02  0.75775351033E+03  0.79670237101E+03  0.16500000000E+03 0.  0.
   -5000001    1    1    2    0    0 -0.18126433584E+03 -0.21506420200E+02 -0.23960030950E+02  0.24722129487E+03  0.16500000000E+03 0.  0.
<mgrwt>
<rscale>  0 0.74251178E+03</rscale>
<asrwt>0</asrwt>
<pdfrwt beam="1">  1        2 0.13674747E+00 0.74251178E+03</pdfrwt>
<pdfrwt beam="2">  1       -2 0.23856169E-01 0.74251178E+03</pdfrwt>
<totfact> 0.46805414E+02</totfact>
</mgrwt>
</event>
<event>
 4    1  0.1573232E-005  0.7744999E+03  0.7818608E-02  0.9597679E-01
          2   -1    0    0  501    0  0.00000000000E+00  0.00000000000E+00  0.28027923659E+04  0.28027923659E+04  0.25500000000E-02 0.  1.
         -2   -1    0    0    0  501 -0.00000000000E+00 -0.00000000000E+00 -0.53504685747E+02  0.53504685808E+02  0.25500000000E-02 0. -1.
    5000001    1    1    2    0    0  0.50431383249E+02 -0.33375674203E+03  0.17206143424E+04  0.17611574611E+04  0.16500000000E+03 0.  0.
   -5000001    1    1    2    0    0 -0.50431383249E+02  0.33375674203E+03  0.10286733377E+04  0.10951395906E+04  0.16500000000E+03 0.  0.
<mgrwt>
<rscale>  0 0.77449990E+03</rscale>
<asrwt>0</asrwt>
<pdfrwt beam="1">  1        2 0.43119886E+00 0.77449990E+03</pdfrwt>
<pdfrwt beam="2">  1       -2 0.82314895E-02 0.77449990E+03</pdfrwt>
<totfact> 0.22635531E+02</totfact>
</mgrwt>
</event>
<event>
 4    1  0.1573232E-005  0.4629500E+03  0.7818608E-02  0.1023929E+00
         -2   -1    0    0    0  501 -0.00000000000E+00  0.00000000000E+00  0.27348703115E+02  0.27348703234E+02  0.25500000000E-02 0. -1.
          2   -1    0    0  501    0  0.00000000000E+00 -0.00000000000E+00 -0.19591672417E+04  0.19591672417E+04  0.25500000000E-02 0.  1.
    5000001    1    1    2    0    0  0.10227137272E+03 -0.11542263178E+03 -0.74821305246E+03  0.78155587738E+03  0.16500000000E+03 0.  0.
   -5000001    1    1    2    0    0 -0.10227137272E+03  0.11542263178E+03 -0.11836054861E+04  0.12049600676E+04  0.16500000000E+03 0.  0.
<mgrwt>
<rscale>  0 0.46295003E+03</rscale>
<asrwt>0</asrwt>
<pdfrwt beam="1">  1        2 0.30141024E+00 0.46295003E+03</pdfrwt>
<pdfrwt beam="2">  1       -2 0.42074943E-02 0.46295003E+03</pdfrwt>
<totfact> 0.19662538E+03</totfact>
</mgrwt>
</event>
<event>
 4    1  0.1573232E-005  0.6925897E+03  0.7818608E-02  0.9729989E-01
          2   -1    0    0  501    0  0.00000000000E+00  0.00000000000E+00  0.19321141157E+04  0.19321141157E+04  0.25500000000E-02 0.  1.
         -2   -1    0    0    0  501 -0.00000000000E+00 -0.00000000000E+00 -0.62066785812E+02  0.62066785864E+02  0.25500000000E-02 0. -1.
    5000001    1    1    2    0    0  0.28925767732E+03 -0.33386459611E+02  0.11911116673E+04  0.12372375130E+04  0.16500000000E+03 0.  0.
   -5000001    1    1    2    0    0 -0.28925767732E+03  0.33386459611E+02  0.67893566258E+03  0.75694338857E+03  0.16500000000E+03 0.  0.
<mgrwt>
<rscale>  0 0.69258967E+03</rscale>
<asrwt>0</asrwt>
<pdfrwt beam="1">  1        2 0.29724831E+00 0.69258967E+03</pdfrwt>
<pdfrwt beam="2">  1       -2 0.95487369E-02 0.69258967E+03</pdfrwt>
<totfact> 0.55314082E+02</totfact>
</mgrwt>
</event>
<event>
 4    1  0.1573232E-005  0.5266854E+03  0.7818608E-02  0.1007039E+00
         -2   -1    0    0    0  501 -0.00000000000E+00  0.00000000000E+00  0.36316241689E+02  0.36316241778E+02  0.25500000000E-02 0. -1.
          2   -1    0    0  501    0  0.00000000000E+00 -0.00000000000E+00 -0.19095965957E+04  0.19095965957E+04  0.25500000000E-02 0.  1.
    5000001    1    1    2    0    0 -0.18137122719E+03  0.80850991401E+02 -0.11283334913E+04  0.11574946533E+04  0.16500000000E+03 0.  0.
   -5000001    1    1    2    0    0  0.18137122719E+03 -0.80850991401E+02 -0.74494686277E+03  0.78841818423E+03  0.16500000000E+03 0.  0.
<mgrwt>
<rscale>  0 0.52668538E+03</rscale>
<asrwt>0</asrwt>
<pdfrwt beam="1">  1        2 0.29378401E+00 0.52668538E+03</pdfrwt>
<pdfrwt beam="2">  1       -2 0.55871156E-02 0.52668538E+03</pdfrwt>
<totfact> 0.13451818E+03</totfact>
</mgrwt>
</event>
<event>
 4    1  0.1573232E-005  0.1213813E+04  0.7818608E-02  0.9100851E-01
         -2   -1    0    0    0  501 -0.00000000000E+00  0.00000000000E+00  0.41815789584E+03  0.41815789584E+03  0.25500000000E-02 0. -1.
          2   -1    0    0  501    0  0.00000000000E+00 -0.00000000000E+00 -0.88085256730E+03  0.88085256731E+03  0.25500000000E-02 0.  1.
    5000001    1    1    2    0    0  0.20688590043E+03 -0.52340998099E+03 -0.64347375899E+02  0.59002149858E+03  0.16500000000E+03 0.  0.
   -5000001    1    1    2    0    0 -0.20688590043E+03  0.52340998099E+03 -0.39834729557E+03  0.70898896457E+03  0.16500000000E+03 0.  0.
<mgrwt>
<rscale>  0 0.12138129E+04</rscale>
<asrwt>0</asrwt>
<pdfrwt beam="1">  1        2 0.13551578E+00 0.12138129E+04</pdfrwt>
<pdfrwt beam="2">  1       -2 0.64331984E-01 0.12138129E+04</pdfrwt>
<totfact> 0.66514232E+01</totfact>
</mgrwt>
</event>
<event>
 4    1  0.1573232E-005  0.3862661E+03  0.7818608E-02  0.1048642E+00
          2   -1    0    0  501    0  0.00000000000E+00  0.00000000000E+00  0.23485556300E+02  0.23485556438E+02  0.25500000000E-02 0.  1.
         -2   -1    0    0    0  501 -0.00000000000E+00 -0.00000000000E+00 -0.15882262116E+04  0.15882262116E+04  0.25500000000E-02 0. -1.
    5000001    1    1    2    0    0  0.70450409360E+02 -0.71383398176E+02 -0.79933288523E+03  0.82232409129E+03  0.16500000000E+03 0.  0.
   -5000001    1    1    2    0    0 -0.70450409360E+02  0.71383398176E+02 -0.76540777010E+03  0.78938767678E+03  0.16500000000E+03 0.  0.
<mgrwt>
<rscale>  0 0.38626611E+03</rscale>
<asrwt>0</asrwt>
<pdfrwt beam="1">  1        2 0.36131638E-02 0.38626611E+03</pdfrwt>
<pdfrwt beam="2">  1       -2 0.24434241E+00 0.38626611E+03</pdfrwt>
<totfact> 0.18756670E+02</totfact>
</mgrwt>
</event>
<event>
 4    1  0.1573232E-005  0.6852402E+03  0.7818608E-02  0.9742812E-01
          2   -1    0    0  501    0  0.00000000000E+00  0.00000000000E+00  0.15442083712E+04  0.15442083712E+04  0.25500000000E-02 0.  1.
         -2   -1    0    0    0  501 -0.00000000000E+00 -0.00000000000E+00 -0.76018585428E+02  0.76018585471E+02  0.25500000000E-02 0. -1.
    5000001    1    1    2    0    0  0.29674442729E+03  0.45837319159E+02  0.72869216797E+03  0.80521772870E+03  0.16500000000E+03 0.  0.
   -5000001    1    1    2    0    0 -0.29674442729E+03 -0.45837319159E+02  0.73949761784E+03  0.81500922801E+03  0.16500000000E+03 0.  0.
<mgrwt>
<rscale>  0 0.68524021E+03</rscale>
<asrwt>0</asrwt>
<pdfrwt beam="1">  1        2 0.23757052E+00 0.68524021E+03</pdfrwt>
<pdfrwt beam="2">  1       -2 0.11695167E-01 0.68524021E+03</pdfrwt>
<totfact> 0.64703524E+02</totfact>
</mgrwt>
</event>
<event>
 4    1  0.1573232E-005  0.5149219E+03  0.7818608E-02  0.1009956E+00
          2   -1    0    0  501    0  0.00000000000E+00  0.00000000000E+00  0.58335629010E+03  0.58335629010E+03  0.25500000000E-02 0.  1.
         -2   -1    0    0    0  501 -0.00000000000E+00 -0.00000000000E+00 -0.11362891814E+03  0.11362891817E+03  0.25500000000E-02 0. -1.
    5000001    1    1    2    0    0  0.66829273735E+02  0.72289764879E+02  0.46683170524E+03  0.50482551734E+03  0.16500000000E+03 0.  0.
   -5000001    1    1    2    0    0 -0.66829273735E+02 -0.72289764879E+02  0.28956667184E+01  0.19215969093E+03  0.16500000000E+03 0.  0.
<mgrwt>
<rscale>  0 0.51492191E+03</rscale>
<asrwt>0</asrwt>
<pdfrwt beam="1">  1        2 0.89747121E-01 0.51492191E+03</pdfrwt>
<pdfrwt beam="2">  1       -2 0.17481372E-01 0.51492191E+03</pdfrwt>
<totfact> 0.13848453E+03</totfact>
</mgrwt>
</event>
<event>
 4    1  0.1573232E-005  0.4207980E+03  0.7818608E-02  0.1036807E+00
         -2   -1    0    0    0  501 -0.00000000000E+00  0.00000000000E+00  0.24385673420E+02  0.24385673553E+02  0.25500000000E-02 0. -1.
          2   -1    0    0  501    0  0.00000000000E+00 -0.00000000000E+00 -0.18153178543E+04  0.18153178543E+04  0.25500000000E-02 0.  1.
    5000001    1    1    2    0    0  0.98762502570E+02  0.23229337056E+02 -0.53629818220E+03  0.57020555438E+03  0.16500000000E+03 0.  0.
   -5000001    1    1    2    0    0 -0.98762502570E+02 -0.23229337056E+02 -0.12546339986E+04  0.12694979734E+04  0.16500000000E+03 0.  0.
<mgrwt>
<rscale>  0 0.42079804E+03</rscale>
<asrwt>0</asrwt>
<pdfrwt beam="1">  1        2 0.27927956E+00 0.42079804E+03</pdfrwt>
<pdfrwt beam="2">  1       -2 0.37516435E-02 0.42079804E+03</pdfrwt>
<totfact> 0.28007572E+03</totfact>
</mgrwt>
</event>
<event>
 4    1  0.1573232E-005  0.5616651E+03  0.7818608E-02  0.9988294E-01
          2   -1    0    0  501    0  0.00000000000E+00  0.00000000000E+00  0.18824810471E+04  0.18824810471E+04  0.25500000000E-02 0.  1.
         -2   -1    0    0    0  501 -0.00000000000E+00 -0.00000000000E+00 -0.41895204653E+02  0.41895204730E+02  0.25500000000E-02 0. -1.
    5000001    1    1    2    0    0  0.17949830347E+03  0.13741505845E+03  0.99986556656E+03  0.10382960514E+04  0.16500000000E+03 0.  0.
   -5000001    1    1    2    0    0 -0.17949830347E+03 -0.13741505845E+03  0.84072027585E+03  0.88608020036E+03  0.16500000000E+03 0.  0.
<mgrwt>
<rscale>  0 0.56166513E+03</rscale>
<asrwt>0</asrwt>
<pdfrwt beam="1">  1        2 0.28961242E+00 0.56166513E+03</pdfrwt>
<pdfrwt beam="2">  1       -2 0.64454171E-02 0.56166513E+03</pdfrwt>
<totfact> 0.11104779E+03</totfact>
</mgrwt>
</event>
<event>
 4    1  0.1573232E-005  0.5042285E+03  0.7818608E-02  0.1012681E+00
          2   -1    0    0  501    0  0.00000000000E+00  0.00000000000E+00  0.22632766751E+04  0.22632766751E+04  0.25500000000E-02 0.  1.
         -2   -1    0    0    0  501 -0.00000000000E+00 -0.00000000000E+00 -0.28083886777E+02  0.28083886893E+02  0.25500000000E-02 0. -1.
    5000001    1    1    2    0    0  0.13355904820E+03 -0.11521442194E+03  0.78914063032E+03  0.82527590344E+03  0.16500000000E+03 0.  0.
   -5000001    1    1    2    0    0 -0.13355904820E+03  0.11521442194E+03  0.14460521580E+04  0.14660846585E+04  0.16500000000E+03 0.  0.
<mgrwt>
<rscale>  0 0.50422854E+03</rscale>
<asrwt>0</asrwt>
<pdfrwt beam="1">  1        2 0.34819635E+00 0.50422854E+03</pdfrwt>
<pdfrwt beam="2">  1       -2 0.43205987E-02 0.50422854E+03</pdfrwt>
<totfact> 0.12896131E+03</totfact>
</mgrwt>
</event>
<event>
 4    1  0.1573232E-005  0.9342010E+03  0.7818608E-02  0.9383810E-01
          2   -1    0    0  501    0  0.00000000000E+00  0.00000000000E+00  0.14994309639E+03  0.14994309641E+03  0.25500000000E-02 0.  1.
         -2   -1    0    0    0  501 -0.00000000000E+00 -0.00000000000E+00 -0.14551044094E+04  0.14551044094E+04  0.25500000000E-02 0. -1.
    5000001    1    1    2    0    0  0.30078770558E+03  0.11572002699E+03 -0.14554274603E+03  0.39022052662E+03  0.16500000000E+03 0.  0.
   -5000001    1    1    2    0    0 -0.30078770558E+03 -0.11572002699E+03 -0.11596185670E+04  0.12148269792E+04  0.16500000000E+03 0.  0.
<mgrwt>
<rscale>  0 0.93420096E+03</rscale>
<asrwt>0</asrwt>
<pdfrwt beam="1">  1        2 0.23068170E-01 0.93420096E+03</pdfrwt>
<pdfrwt beam="2">  1       -2 0.22386221E+00 0.93420096E+03</pdfrwt>
<totfact> 0.22643619E+01</totfact>
</mgrwt>
</event>
<event>
 4    1  0.1573232E-005  0.4921199E+03  0.7818608E-02  0.1015856E+00
         -2   -1    0    0    0  501 -0.00000000000E+00  0.00000000000E+00  0.22144334387E+03  0.22144334389E+03  0.25500000000E-02 0. -1.
          2   -1    0    0  501    0  0.00000000000E+00 -0.00000000000E+00 -0.27341300120E+03  0.27341300122E+03  0.25500000000E-02 0.  1.
    5000001    1    1    2    0    0  0.12436041335E+03 -0.12376983625E+03 -0.76623611563E+02  0.25274624156E+03  0.16500000000E+03 0.  0.
   -5000001    1    1    2    0    0 -0.12436041335E+03  0.12376983625E+03  0.24653954231E+02  0.24211010354E+03  0.16500000000E+03 0.  0.
<mgrwt>
<rscale>  0 0.49211986E+03</rscale>
<asrwt>0</asrwt>
<pdfrwt beam="1">  1        2 0.42063539E-01 0.49211986E+03</pdfrwt>
<pdfrwt beam="2">  1       -2 0.34068207E-01 0.49211986E+03</pdfrwt>
<totfact> 0.98361792E+02</totfact>
</mgrwt>
</event>
<event>
 4    1  0.1573232E-005  0.4790643E+03  0.7818608E-02  0.1019393E+00
          2   -1    0    0  501    0  0.00000000000E+00  0.00000000000E+00  0.39709511654E+03  0.39709511655E+03  0.25500000000E-02 0.  1.
         -2   -1    0    0    0  501 -0.00000000000E+00 -0.00000000000E+00 -0.14448841090E+03  0.14448841092E+03  0.25500000000E-02 0. -1.
    5000001    1    1    2    0    0 -0.52786535985E+02  0.12291348716E+03  0.11464286144E+01  0.21241576685E+03  0.16500000000E+03 0.  0.
   -5000001    1    1    2    0    0  0.52786535985E+02 -0.12291348716E+03  0.25146027703E+03  0.32916776062E+03  0.16500000000E+03 0.  0.
<mgrwt>
<rscale>  0 0.47906426E+03</rscale>
<asrwt>0</asrwt>
<pdfrwt beam="1">  1        2 0.61091556E-01 0.47906426E+03</pdfrwt>
<pdfrwt beam="2">  1       -2 0.22228986E-01 0.47906426E+03</pdfrwt>
<totfact> 0.14163230E+03</totfact>
</mgrwt>
</event>
<event>
 4    1  0.1573232E-005  0.7452987E+03  0.7818608E-02  0.9642755E-01
         -2   -1    0    0    0  501 -0.00000000000E+00  0.00000000000E+00  0.14189819556E+04  0.14189819556E+04  0.25500000000E-02 0. -1.
          2   -1    0    0  501    0  0.00000000000E+00 -0.00000000000E+00 -0.97864206461E+02  0.97864206495E+02  0.25500000000E-02 0.  1.
    5000001    1    1    2    0    0 -0.20832336945E+02 -0.29001920146E+03  0.99558226840E+03  0.10502162523E+04  0.16500000000E+03 0.  0.
   -5000001    1    1    2    0    0  0.20832336945E+02  0.29001920146E+03  0.32553548073E+03  0.46662990977E+03  0.16500000000E+03 0.  0.
<mgrwt>
<rscale>  0 0.74529871E+03</rscale>
<asrwt>0</asrwt>
<pdfrwt beam="1">  1        2 0.15056031E-01 0.74529871E+03</pdfrwt>
<pdfrwt beam="2">  1       -2 0.21830492E+00 0.74529871E+03</pdfrwt>
<totfact> 0.41291566E+01</totfact>
</mgrwt>
</event>
<event>
 4    1  0.1573232E-005  0.4162042E+03  0.7818608E-02  0.1038309E+00
         -2   -1    0    0    0  501 -0.00000000000E+00  0.00000000000E+00  0.74764158100E+03  0.74764158101E+03  0.25500000000E-02 0. -1.
          2   -1    0    0  501    0  0.00000000000E+00 -0.00000000000E+00 -0.57924113121E+02  0.57924113178E+02  0.25500000000E-02 0.  1.
    5000001    1    1    2    0    0 -0.42319035088E+02  0.11643875894E+03  0.39724592418E+03  0.44763624696E+03  0.16500000000E+03 0.  0.
   -5000001    1    1    2    0    0  0.42319035088E+02 -0.11643875894E+03  0.29247154370E+03  0.35792944723E+03  0.16500000000E+03 0.  0.
<mgrwt>
<rscale>  0 0.41620416E+03</rscale>
<asrwt>0</asrwt>
<pdfrwt beam="1">  1        2 0.89114019E-02 0.41620416E+03</pdfrwt>
<pdfrwt beam="2">  1       -2 0.11502178E+00 0.41620416E+03</pdfrwt>
<totfact> 0.45828333E+02</totfact>
</mgrwt>
</event>
<event>
 4    1  0.1573232E-005  0.4882328E+03  0.7818608E-02  0.1016897E+00
          2   -1    0    0  501    0  0.00000000000E+00  0.00000000000E+00  0.95567758275E+03  0.95567758275E+03  0.25500000000E-02 0. -1.
         -2   -1    0    0    0  501 -0.00000000000E+00 -0.00000000000E+00 -0.62356616786E+02  0.62356616838E+02  0.25500000000E-02 0.  1.
    5000001    1    1    2    0    0  0.27478220548E+02  0.17711634960E+03  0.47913563509E+03  0.53751391677E+03  0.16500000000E+03 0.  0.
   -5000001    1    1    2    0    0 -0.27478220548E+02 -0.17711634960E+03  0.41418533087E+03  0.48052028283E+03  0.16500000000E+03 0.  0.
<mgrwt>
<rscale>  0 0.48823282E+03</rscale>
<asrwt>0</asrwt>
<pdfrwt beam="1">  1        2 0.14702732E+00 0.48823282E+03</pdfrwt>
<pdfrwt beam="2">  1       -2 0.95933254E-02 0.48823282E+03</pdfrwt>
<totfact> 0.19860357E+03</totfact>
</mgrwt>
</event>
<event>
 4    1  0.1573232E-005  0.5748271E+03  0.7818608E-02  0.9959053E-01
          2   -1    0    0  501    0  0.00000000000E+00  0.00000000000E+00  0.10904943625E+04  0.10904943625E+04  0.25500000000E-02 0.  1.
         -2   -1    0    0    0  501 -0.00000000000E+00 -0.00000000000E+00 -0.75751471638E+02  0.75751471681E+02  0.25500000000E-02 0. -1.
    5000001    1    1    2    0    0  0.22118169299E+03  0.70415703778E+02  0.58599717978E+03  0.65153465554E+03  0.16500000000E+03 0.  0.
   -5000001    1    1    2    0    0 -0.22118169299E+03 -0.70415703778E+02  0.42874571105E+03  0.51471117862E+03  0.16500000000E+03 0.  0.
<mgrwt>
<rscale>  0 0.57482711E+03</rscale>
<asrwt>0</asrwt>
<pdfrwt beam="1">  1        2 0.16776836E+00 0.57482711E+03</pdfrwt>
<pdfrwt beam="2">  1       -2 0.11654073E-01 0.57482711E+03</pdfrwt>
<totfact> 0.11909044E+03</totfact>
</mgrwt>
</event>
<event>
 4    1  0.1573232E-005  0.4383867E+03  0.7818608E-02  0.1031243E+00
          2   -1    0    0  501    0  0.00000000000E+00  0.00000000000E+00  0.13105252651E+03  0.13105252654E+03  0.25500000000E-02 0.  1.
         -2   -1    0    0    0  501 -0.00000000000E+00 -0.00000000000E+00 -0.36661431391E+03  0.36661431391E+03  0.25500000000E-02 0. -1.
    5000001    1    1    2    0    0 -0.13786788042E+03 -0.13560547929E+02 -0.16360359161E+03  0.27052278296E+03  0.16500000000E+03 0.  0.
   -5000001    1    1    2    0    0  0.13786788042E+03  0.13560547929E+02 -0.71958195785E+02  0.22714405749E+03  0.16500000000E+03 0.  0.
<mgrwt>
<rscale>  0 0.43838673E+03</rscale>
<asrwt>0</asrwt>
<pdfrwt beam="1">  1        2 0.20161927E-01 0.43838673E+03</pdfrwt>
<pdfrwt beam="2">  1       -2 0.56402202E-01 0.43838673E+03</pdfrwt>
<totfact> 0.83278815E+02</totfact>
</mgrwt>
</event>
<event>
 4    1  0.1573232E-005  0.8092997E+03  0.7818608E-02  0.9546653E-01
          2   -1    0    0  501    0  0.00000000000E+00  0.00000000000E+00  0.32627841381E+03  0.32627841382E+03  0.25500000000E-02 0.  1.
         -2   -1    0    0    0  501 -0.00000000000E+00 -0.00000000000E+00 -0.50184590494E+03  0.50184590494E+03  0.25500000000E-02 0. -1.
    5000001    1    1    2    0    0 -0.23837148632E+03 -0.27241132678E+03 -0.16358510305E+03  0.43013251724E+03  0.16500000000E+03 0.  0.
   -5000001    1    1    2    0    0  0.23837148632E+03  0.27241132678E+03 -0.11982388078E+02  0.39799180152E+03  0.16500000000E+03 0.  0.
<mgrwt>
<rscale>  0 0.80929966E+03</rscale>
<asrwt>0</asrwt>
<pdfrwt beam="1">  1        2 0.50196679E-01 0.80929966E+03</pdfrwt>
<pdfrwt beam="2">  1       -2 0.77207063E-01 0.80929966E+03</pdfrwt>
<totfact> 0.15074235E+02</totfact>
</mgrwt>
</event>
<event>
 4    1  0.1573232E-005  0.5684258E+03  0.7818608E-02  0.9973168E-01
          2   -1    0    0  501    0  0.00000000000E+00  0.00000000000E+00  0.90231029325E+03  0.90231029325E+03  0.25500000000E-02 0.  1.
         -2   -1    0    0    0  501 -0.00000000000E+00 -0.00000000000E+00 -0.89522395602E+02  0.89522395638E+02  0.25500000000E-02 0. -1.
    5000001    1    1    2    0    0 -0.12419961557E+03 -0.16609776894E+03  0.22727439091E+03  0.34913129638E+03  0.16500000000E+03 0.  0.
   -5000001    1    1    2    0    0  0.12419961557E+03  0.16609776894E+03  0.58551350674E+03  0.64270139251E+03  0.16500000000E+03 0.  0.
<mgrwt>
<rscale>  0 0.56842582E+03</rscale>
<asrwt>0</asrwt>
<pdfrwt beam="1">  1        2 0.13881697E+00 0.56842582E+03</pdfrwt>
<pdfrwt beam="2">  1       -2 0.13772676E-01 0.56842582E+03</pdfrwt>
<totfact> 0.11893491E+03</totfact>
</mgrwt>
</event>
<event>
 4    1  0.1573232E-005  0.9247798E+03  0.7818608E-02  0.9395125E-01
         -2   -1    0    0    0  501 -0.00000000000E+00  0.00000000000E+00  0.27316143239E+03  0.27316143240E+03  0.25500000000E-02 0. -1.
          2   -1    0    0  501    0  0.00000000000E+00 -0.00000000000E+00 -0.78270349663E+03  0.78270349663E+03  0.25500000000E-02 0.  1.
    5000001    1    1    2    0    0 -0.32272155817E+03  0.28563771155E+03 -0.22165441390E+03  0.51195096012E+03  0.16500000000E+03 0.  0.
   -5000001    1    1    2    0    0  0.32272155817E+03 -0.28563771155E+03 -0.28788765034E+03  0.54391396892E+03  0.16500000000E+03 0.  0.
<mgrwt>
<rscale>  0 0.92477978E+03</rscale>
<asrwt>0</asrwt>
<pdfrwt beam="1">  1        2 0.12041592E+00 0.92477978E+03</pdfrwt>
<pdfrwt beam="2">  1       -2 0.42024836E-01 0.92477978E+03</pdfrwt>
<totfact> 0.19055570E+02</totfact>
</mgrwt>
</event>
<event>
 4    1  0.1573232E-005  0.3666327E+03  0.7818608E-02  0.1055988E+00
         -2   -1    0    0    0  501 -0.00000000000E+00  0.00000000000E+00  0.16461840062E+02  0.16461840259E+02  0.25500000000E-02 0. -1.
          2   -1    0    0  501    0  0.00000000000E+00 -0.00000000000E+00 -0.20413806962E+04  0.20413806962E+04  0.25500000000E-02 0.  1.
    5000001    1    1    2    0    0 -0.50666170274E+02  0.59771403939E+02 -0.92546958838E+03  0.94332318988E+03  0.16500000000E+03 0.  0.
   -5000001    1    1    2    0    0  0.50666170274E+02 -0.59771403939E+02 -0.10994492677E+04  0.11145193466E+04  0.16500000000E+03 0.  0.
<mgrwt>
<rscale>  0 0.36663269E+03</rscale>
<asrwt>0</asrwt>
<pdfrwt beam="1">  1        2 0.31405837E+00 0.36663269E+03</pdfrwt>
<pdfrwt beam="2">  1       -2 0.25325924E-02 0.36663269E+03</pdfrwt>
<totfact> 0.38420531E+03</totfact>
</mgrwt>
</event>
<event>
 4    1  0.1573232E-005  0.3864544E+03  0.7818608E-02  0.1048574E+00
         -2   -1    0    0    0  501 -0.00000000000E+00  0.00000000000E+00  0.14547486335E+02  0.14547486559E+02  0.25500000000E-02 0. -1.
          2   -1    0    0  501    0  0.00000000000E+00 -0.00000000000E+00 -0.25665427205E+04  0.25665427205E+04  0.25500000000E-02 0.  1.
    5000001    1    1    2    0    0 -0.26815361337E+00  0.96936518949E+02 -0.10974091652E+04  0.11139697646E+04  0.16500000000E+03 0.  0.
   -5000001    1    1    2    0    0  0.26815361337E+00 -0.96936518949E+02 -0.14545860690E+04  0.14671204424E+04  0.16500000000E+03 0.  0.
<mgrwt>
<rscale>  0 0.38645437E+03</rscale>
<asrwt>0</asrwt>
<pdfrwt beam="1">  1        2 0.39485237E+00 0.38645437E+03</pdfrwt>
<pdfrwt beam="2">  1       -2 0.22380769E-02 0.38645437E+03</pdfrwt>
<totfact> 0.23908336E+03</totfact>
</mgrwt>
</event>
<event>
 4    1  0.1573232E-005  0.1016766E+04  0.7818608E-02  0.9290345E-01
         -2   -1    0    0    0  501 -0.00000000000E+00  0.00000000000E+00  0.19350403610E+03  0.19350403612E+03  0.25500000000E-02 0. -1.
          2   -1    0    0  501    0  0.00000000000E+00 -0.00000000000E+00 -0.13356476155E+04  0.13356476155E+04  0.25500000000E-02 0.  1.
    5000001    1    1    2    0    0  0.11178314796E+03 -0.39651658777E+03 -0.19808535943E+03  0.48598733128E+03  0.16500000000E+03 0.  0.
   -5000001    1    1    2    0    0 -0.11178314796E+03  0.39651658777E+03 -0.94405822002E+03  0.10431643204E+04  0.16500000000E+03 0.  0.
<mgrwt>
<rscale>  0 0.10167659E+04</rscale>
<asrwt>0</asrwt>
<pdfrwt beam="1">  1        2 0.20548424E+00 0.10167659E+04</pdfrwt>
<pdfrwt beam="2">  1       -2 0.29769853E-01 0.10167659E+04</pdfrwt>
<totfact> 0.16333805E+02</totfact>
</mgrwt>
</event>
<event>
 4    1  0.1573232E-005  0.4236807E+03  0.7818608E-02  0.1035875E+00
          2   -1    0    0  501    0  0.00000000000E+00  0.00000000000E+00  0.25435049579E+04  0.25435049579E+04  0.25500000000E-02 0.  1.
         -2   -1    0    0    0  501 -0.00000000000E+00 -0.00000000000E+00 -0.17643502691E+02  0.17643502875E+02  0.25500000000E-02 0. -1.
    5000001    1    1    2    0    0 -0.38900518779E+02  0.12656603916E+03  0.13289082518E+04  0.13456427291E+04  0.16500000000E+03 0.  0.
   -5000001    1    1    2    0    0  0.38900518779E+02 -0.12656603916E+03  0.11969532034E+04  0.12155057317E+04  0.16500000000E+03 0.  0.
<mgrwt>
<rscale>  0 0.42368071E+03</rscale>
<asrwt>0</asrwt>
<pdfrwt beam="1">  1        2 0.39130845E+00 0.42368071E+03</pdfrwt>
<pdfrwt beam="2">  1       -2 0.27143850E-02 0.42368071E+03</pdfrwt>
<totfact> 0.18397948E+03</totfact>
</mgrwt>
</event>
<event>
 4    1  0.1573232E-005  0.7260892E+03  0.7818608E-02  0.9673628E-01
          2   -1    0    0  501    0  0.00000000000E+00  0.00000000000E+00  0.11166012967E+04  0.11166012967E+04  0.25500000000E-02 0.  1.
         -2   -1    0    0    0  501 -0.00000000000E+00 -0.00000000000E+00 -0.11803799160E+03  0.11803799163E+03  0.25500000000E-02 0. -1.
    5000001    1    1    2    0    0 -0.24907681081E+03  0.17057551315E+03  0.69641845744E+03  0.77676182401E+03  0.16500000000E+03 0.  0.
   -5000001    1    1    2    0    0  0.24907681081E+03 -0.17057551315E+03  0.30214484768E+03  0.45787746434E+03  0.16500000000E+03 0.  0.
<mgrwt>
<rscale>  0 0.72608918E+03</rscale>
<asrwt>0</asrwt>
<pdfrwt beam="1">  1        2 0.17178481E+00 0.72608918E+03</pdfrwt>
<pdfrwt beam="2">  1       -2 0.18159692E-01 0.72608918E+03</pdfrwt>
<totfact> 0.54145727E+02</totfact>
</mgrwt>
</event>
<event>
 4    1  0.1573232E-005  0.4470279E+03  0.7818608E-02  0.1028612E+00
         -2   -1    0    0    0  501 -0.00000000000E+00  0.00000000000E+00  0.81267916384E+02  0.81267916424E+02  0.25500000000E-02 0. -1.
          2   -1    0    0  501    0  0.00000000000E+00 -0.00000000000E+00 -0.61473823909E+03  0.61473823910E+03  0.25500000000E-02 0.  1.
    5000001    1    1    2    0    0  0.83864122946E+02  0.10692239337E+03 -0.36845036115E+03  0.42596509007E+03  0.16500000000E+03 0.  0.
   -5000001    1    1    2    0    0 -0.83864122946E+02 -0.10692239337E+03 -0.16501996156E+03  0.27004106546E+03  0.16500000000E+03 0.  0.
<mgrwt>
<rscale>  0 0.44702794E+03</rscale>
<asrwt>0</asrwt>
<pdfrwt beam="1">  1        2 0.94575111E-01 0.44702794E+03</pdfrwt>
<pdfrwt beam="2">  1       -2 0.12502757E-01 0.44702794E+03</pdfrwt>
<totfact> 0.22796183E+03</totfact>
</mgrwt>
</event>
<event>
 4    1  0.1573232E-005  0.7243715E+03  0.7818608E-02  0.9676438E-01
          2   -1    0    0  501    0  0.00000000000E+00  0.00000000000E+00  0.35915681617E+04  0.35915681617E+04  0.25500000000E-02 0.  1.
         -2   -1    0    0    0  501 -0.00000000000E+00 -0.00000000000E+00 -0.36524023705E+02  0.36524023794E+02  0.25500000000E-02 0. -1.
    5000001    1    1    2    0    0 -0.18002440517E+03  0.25661065384E+03  0.21555211659E+04  0.21844345517E+04  0.16500000000E+03 0.  0.
   -5000001    1    1    2    0    0  0.18002440517E+03 -0.25661065384E+03  0.13995229721E+04  0.14436576338E+04  0.16500000000E+03 0.  0.
<mgrwt>
<rscale>  0 0.72437151E+03</rscale>
<asrwt>0</asrwt>
<pdfrwt beam="1">  1        2 0.55254887E+00 0.72437151E+03</pdfrwt>
<pdfrwt beam="2">  1       -2 0.56190814E-02 0.72437151E+03</pdfrwt>
<totfact> 0.13063757E+02</totfact>
</mgrwt>
</event>
<event>
 4    1  0.1573232E-005  0.6391579E+03  0.7818608E-02  0.9827339E-01
          2   -1    0    0  501    0  0.00000000000E+00  0.00000000000E+00  0.18793172758E+03  0.18793172760E+03  0.25500000000E-02 0.  1.
         -2   -1    0    0    0  501 -0.00000000000E+00 -0.00000000000E+00 -0.54344584049E+03  0.54344584049E+03  0.25500000000E-02 0. -1.
    5000001    1    1    2    0    0  0.26086808167E+03  0.13928568793E+02 -0.84376588788E+02  0.32029762690E+03  0.16500000000E+03 0.  0.
   -5000001    1    1    2    0    0 -0.26086808167E+03 -0.13928568793E+02 -0.27113752412E+03  0.41107994119E+03  0.16500000000E+03 0.  0.
<mgrwt>
<rscale>  0 0.63915793E+03</rscale>
<asrwt>0</asrwt>
<pdfrwt beam="1">  1        2 0.28912574E-01 0.63915793E+03</pdfrwt>
<pdfrwt beam="2">  1       -2 0.83607052E-01 0.63915793E+03</pdfrwt>
<totfact> 0.23471233E+02</totfact>
</mgrwt>
</event>
<event>
 4    1  0.1573232E-005  0.5293925E+03  0.7818608E-02  0.1006380E+00
          2   -1    0    0  501    0  0.00000000000E+00  0.00000000000E+00  0.19721167877E+03  0.19721167879E+03  0.25500000000E-02 0.  1.
         -2   -1    0    0    0  501 -0.00000000000E+00 -0.00000000000E+00 -0.35527361520E+03  0.35527361521E+03  0.25500000000E-02 0. -1.
    5000001    1    1    2    0    0 -0.13270088300E+03  0.15678255982E+02 -0.24398842628E+03  0.32343574975E+03  0.16500000000E+03 0.  0.
   -5000001    1    1    2    0    0  0.13270088300E+03 -0.15678255982E+02  0.85926489849E+02  0.22904954424E+03  0.16500000000E+03 0.  0.
<mgrwt>
<rscale>  0 0.52939250E+03</rscale>
<asrwt>0</asrwt>
<pdfrwt beam="1">  1        2 0.30340258E-01 0.52939250E+03</pdfrwt>
<pdfrwt beam="2">  1       -2 0.54657479E-01 0.52939250E+03</pdfrwt>
<totfact> 0.55764913E+02</totfact>
</mgrwt>
</event>
<event>
 4    1  0.1573232E-005  0.7371357E+03  0.7818608E-02  0.9655751E-01
         -2   -1    0    0    0  501 -0.00000000000E+00  0.00000000000E+00  0.11354943714E+03  0.11354943717E+03  0.25500000000E-02 0. -1.
          2   -1    0    0  501    0  0.00000000000E+00 -0.00000000000E+00 -0.11963270262E+04  0.11963270262E+04  0.25500000000E-02 0.  1.
    5000001    1    1    2    0    0 -0.20864748184E+01 -0.32403379436E+03 -0.43454790939E+03  0.56662080691E+03  0.16500000000E+03 0.  0.
   -5000001    1    1    2    0    0  0.20864748184E+01  0.32403379436E+03 -0.64822967969E+03  0.74325565648E+03  0.16500000000E+03 0.  0.
<mgrwt>
<rscale>  0 0.73713570E+03</rscale>
<asrwt>0</asrwt>
<pdfrwt beam="1">  1        2 0.18405030E+00 0.73713570E+03</pdfrwt>
<pdfrwt beam="2">  1       -2 0.17469145E-01 0.73713570E+03</pdfrwt>
<totfact> 0.51829469E+02</totfact>
</mgrwt>
</event>
<event>
 4    1  0.1573232E-005  0.4650656E+03  0.7818608E-02  0.1023322E+00
          2   -1    0    0  501    0  0.00000000000E+00  0.00000000000E+00  0.20479925609E+04  0.20479925609E+04  0.25500000000E-02 0.  1.
         -2   -1    0    0    0  501 -0.00000000000E+00 -0.00000000000E+00 -0.26402200775E+02  0.26402200898E+02  0.25500000000E-02 0. -1.
    5000001    1    1    2    0    0 -0.77467252016E+02 -0.70380861400E+02  0.15730907506E+04  0.15851795325E+04  0.16500000000E+03 0.  0.
   -5000001    1    1    2    0    0  0.77467252016E+02  0.70380861400E+02  0.44849960951E+03  0.48921522923E+03  0.16500000000E+03 0.  0.
<mgrwt>
<rscale>  0 0.46506563E+03</rscale>
<asrwt>0</asrwt>
<pdfrwt beam="1">  1        2 0.31507583E+00 0.46506563E+03</pdfrwt>
<pdfrwt beam="2">  1       -2 0.40618763E-02 0.46506563E+03</pdfrwt>
<totfact> 0.18590251E+03</totfact>
</mgrwt>
</event>
<event>
 4    1  0.1573232E-005  0.8758398E+03  0.7818608E-02  0.9456297E-01
         -2   -1    0    0    0  501 -0.00000000000E+00  0.00000000000E+00  0.14437068075E+03  0.14437068077E+03  0.25500000000E-02 0. -1.
          2   -1    0    0  501    0  0.00000000000E+00 -0.00000000000E+00 -0.13283433285E+04  0.13283433285E+04  0.25500000000E-02 0.  1.
    5000001    1    1    2    0    0  0.30307339376E+03  0.23285576659E+03 -0.36344285219E+03  0.55262192940E+03  0.16500000000E+03 0.  0.
   -5000001    1    1    2    0    0 -0.30307339376E+03 -0.23285576659E+03 -0.82052979551E+03  0.92009207983E+03  0.16500000000E+03 0.  0.
<mgrwt>
<rscale>  0 0.87583978E+03</rscale>
<asrwt>0</asrwt>
<pdfrwt beam="1">  1        2 0.20436050E+00 0.87583978E+03</pdfrwt>
<pdfrwt beam="2">  1       -2 0.22210875E-01 0.87583978E+03</pdfrwt>
<totfact> 0.28320556E+02</totfact>
</mgrwt>
</event>
<event>
 4    1  0.1573232E-005  0.4684972E+03  0.7818608E-02  0.1022345E+00
         -2   -1    0    0    0  501 -0.00000000000E+00  0.00000000000E+00  0.25883794085E+02  0.25883794211E+02  0.25500000000E-02 0. -1.
          2   -1    0    0  501    0  0.00000000000E+00 -0.00000000000E+00 -0.21199522856E+04  0.21199522856E+04  0.25500000000E-02 0.  1.
    5000001    1    1    2    0    0 -0.40504946379E+02  0.15961346313E+03 -0.11525094711E+04  0.11758487102E+04  0.16500000000E+03 0.  0.
   -5000001    1    1    2    0    0  0.40504946379E+02 -0.15961346313E+03 -0.94155902039E+03  0.96998736960E+03  0.16500000000E+03 0.  0.
<mgrwt>
<rscale>  0 0.46849721E+03</rscale>
<asrwt>0</asrwt>
<pdfrwt beam="1">  1        2 0.32614637E+00 0.46849721E+03</pdfrwt>
<pdfrwt beam="2">  1       -2 0.39821239E-02 0.46849721E+03</pdfrwt>
<totfact> 0.17521963E+03</totfact>
</mgrwt>
</event>
<event>
 4    1  0.1573232E-005  0.6140897E+03  0.7818608E-02  0.9876598E-01
          2   -1    0    0  501    0  0.00000000000E+00  0.00000000000E+00  0.29872877769E+03  0.29872877770E+03  0.25500000000E-02 0.  1.
         -2   -1    0    0    0  501 -0.00000000000E+00 -0.00000000000E+00 -0.31559244253E+03  0.31559244254E+03  0.25500000000E-02 0. -1.
    5000001    1    1    2    0    0  0.88367031792E+02  0.23168561250E+03 -0.83056128933E+02  0.30920911355E+03  0.16500000000E+03 0.  0.
   -5000001    1    1    2    0    0 -0.88367031792E+02 -0.23168561250E+03  0.66192464099E+02  0.30511210669E+03  0.16500000000E+03 0.  0.
<mgrwt>
<rscale>  0 0.61408972E+03</rscale>
<asrwt>0</asrwt>
<pdfrwt beam="1">  1        2 0.45958273E-01 0.61408972E+03</pdfrwt>
<pdfrwt beam="2">  1       -2 0.48552683E-01 0.61408972E+03</pdfrwt>
<totfact> 0.44715326E+02</totfact>
</mgrwt>
</event>
<event>
 4    1  0.1573232E-005  0.3966050E+03  0.7818608E-02  0.1044962E+00
         -2   -1    0    0    0  501 -0.00000000000E+00  0.00000000000E+00  0.32381288971E+02  0.32381289072E+02  0.25500000000E-02 0. -1.
          2   -1    0    0  501    0  0.00000000000E+00 -0.00000000000E+00 -0.12144012488E+04  0.12144012488E+04  0.25500000000E-02 0.  1.
    5000001    1    1    2    0    0 -0.93910622122E+02 -0.49494332876E+02 -0.68157643704E+03  0.70925336337E+03  0.16500000000E+03 0.  0.
   -5000001    1    1    2    0    0  0.93910622122E+02  0.49494332876E+02 -0.50044352279E+03  0.53752917450E+03  0.16500000000E+03 0.  0.
<mgrwt>
<rscale>  0 0.39660498E+03</rscale>
<asrwt>0</asrwt>
<pdfrwt beam="1">  1        2 0.18683093E+00 0.39660498E+03</pdfrwt>
<pdfrwt beam="2">  1       -2 0.49817377E-02 0.39660498E+03</pdfrwt>
<totfact> 0.38732873E+03</totfact>
</mgrwt>
</event>
<event>
 4    1  0.1573232E-005  0.7703078E+03  0.7818608E-02  0.9604019E-01
          2   -1    0    0  501    0  0.00000000000E+00  0.00000000000E+00  0.36622116255E+04  0.36622116255E+04  0.25500000000E-02 0.  1.
         -2   -1    0    0    0  501 -0.00000000000E+00 -0.00000000000E+00 -0.40506538498E+02  0.40506538578E+02  0.25500000000E-02 0. -1.
    5000001    1    1    2    0    0  0.27397023357E+03  0.14939055672E+03  0.25514948635E+04  0.25757966274E+04  0.16500000000E+03 0.  0.
   -5000001    1    1    2    0    0 -0.27397023357E+03 -0.14939055672E+03  0.10702102235E+04  0.11269215367E+04  0.16500000000E+03 0.  0.
<mgrwt>
<rscale>  0 0.77030777E+03</rscale>
<asrwt>0</asrwt>
<pdfrwt beam="1">  1        2 0.56341727E+00 0.77030777E+03</pdfrwt>
<pdfrwt beam="2">  1       -2 0.62317740E-02 0.77030777E+03</pdfrwt>
<totfact> 0.98382955E+01</totfact>
</mgrwt>
</event>
<event>
 4    1  0.1573232E-005  0.4284095E+03  0.7818608E-02  0.1034364E+00
         -2   -1    0    0    0  501 -0.00000000000E+00  0.00000000000E+00  0.22978113937E+03  0.22978113938E+03  0.25500000000E-02 0. -1.
          2   -1    0    0  501    0  0.00000000000E+00 -0.00000000000E+00 -0.19968429845E+03  0.19968429846E+03  0.25500000000E-02 0.  1.
    5000001    1    1    2    0    0  0.10934886583E+03 -0.80216458955E+02  0.31423639296E+02  0.21588029056E+03  0.16500000000E+03 0.  0.
   -5000001    1    1    2    0    0 -0.10934886583E+03  0.80216458955E+02 -0.13267983729E+01  0.21358514728E+03  0.16500000000E+03 0.  0.
<mgrwt>
<rscale>  0 0.42840955E+03</rscale>
<asrwt>0</asrwt>
<pdfrwt beam="1">  1        2 0.30720661E-01 0.42840955E+03</pdfrwt>
<pdfrwt beam="2">  1       -2 0.35350945E-01 0.42840955E+03</pdfrwt>
<totfact> 0.12972360E+03</totfact>
</mgrwt>
</event>
<event>
 4    1  0.1573232E-005  0.3708302E+03  0.7818608E-02  0.1054376E+00
         -2   -1    0    0    0  501 -0.00000000000E+00  0.00000000000E+00  0.48600000017E+03  0.48600000018E+03  0.25500000000E-02 0. -1.
          2   -1    0    0  501    0  0.00000000000E+00 -0.00000000000E+00 -0.70738176877E+02  0.70738176923E+02  0.25500000000E-02 0.  1.
    5000001    1    1    2    0    0  0.69896888078E+02  0.20838848514E+02  0.27192429829E+03  0.32632446517E+03  0.16500000000E+03 0.  0.
   -5000001    1    1    2    0    0 -0.69896888078E+02 -0.20838848514E+02  0.14333752501E+03  0.23041371193E+03  0.16500000000E+03 0.  0.
<mgrwt>
<rscale>  0 0.37083017E+03</rscale>
<asrwt>0</asrwt>
<pdfrwt beam="1">  1        2 0.10882796E-01 0.37083017E+03</pdfrwt>
<pdfrwt beam="2">  1       -2 0.74769233E-01 0.37083017E+03</pdfrwt>
<totfact> 0.95903201E+02</totfact>
</mgrwt>
</event>
<event>
 4    1  0.1573232E-005  0.6747887E+03  0.7818608E-02  0.9761346E-01
         -2   -1    0    0    0  501 -0.00000000000E+00  0.00000000000E+00  0.16449741159E+03  0.16449741161E+03  0.25500000000E-02 0. -1.
          2   -1    0    0  501    0  0.00000000000E+00 -0.00000000000E+00 -0.69201656342E+03  0.69201656342E+03  0.25500000000E-02 0.  1.
    5000001    1    1    2    0    0  0.11970012110E+03  0.28395591511E+02  0.75588424514E+02  0.21925564652E+03  0.16500000000E+03 0.  0.
   -5000001    1    1    2    0    0 -0.11970012110E+03 -0.28395591511E+02 -0.60310757635E+03  0.63725832851E+03  0.16500000000E+03 0.  0.
<mgrwt>
<rscale>  0 0.67478866E+03</rscale>
<asrwt>0</asrwt>
<pdfrwt beam="1">  1        2 0.10646409E+00 0.67478866E+03</pdfrwt>
<pdfrwt beam="2">  1       -2 0.25307294E-01 0.67478866E+03</pdfrwt>
<totfact> 0.58624953E+02</totfact>
</mgrwt>
</event>
<event>
 4    1  0.1573232E-005  0.4028113E+03  0.7818608E-02  0.1042811E+00
         -2   -1    0    0    0  501 -0.00000000000E+00  0.00000000000E+00  0.31214763322E+02  0.31214763426E+02  0.25500000000E-02 0. -1.
          2   -1    0    0  501    0  0.00000000000E+00 -0.00000000000E+00 -0.12995205408E+04  0.12995205408E+04  0.25500000000E-02 0.  1.
    5000001    1    1    2    0    0  0.11335376877E+03  0.18023308536E+02 -0.59167732262E+03  0.62488476589E+03  0.16500000000E+03 0.  0.
   -5000001    1    1    2    0    0 -0.11335376877E+03 -0.18023308536E+02 -0.67662845487E+03  0.70585053835E+03  0.16500000000E+03 0.  0.
<mgrwt>
<rscale>  0 0.40281125E+03</rscale>
<asrwt>0</asrwt>
<pdfrwt beam="1">  1        2 0.19992619E+00 0.40281125E+03</pdfrwt>
<pdfrwt beam="2">  1       -2 0.48022723E-02 0.40281125E+03</pdfrwt>
<totfact> 0.36654331E+03</totfact>
</mgrwt>
</event>
<event>
 4    1  0.1573232E-005  0.3810592E+03  0.7818608E-02  0.1050543E+00
          2   -1    0    0  501    0  0.00000000000E+00  0.00000000000E+00  0.49661153687E+02  0.49661153753E+02  0.25500000000E-02 0.  1.
         -2   -1    0    0    0  501 -0.00000000000E+00 -0.00000000000E+00 -0.73098457982E+03  0.73098457982E+03  0.25500000000E-02 0. -1.
    5000001    1    1    2    0    0  0.70013686325E+02 -0.58679560553E+02 -0.39606280498E+03  0.43867522450E+03  0.16500000000E+03 0.  0.
   -5000001    1    1    2    0    0 -0.70013686325E+02  0.58679560553E+02 -0.28526062115E+03  0.34197050908E+03  0.16500000000E+03 0.  0.
<mgrwt>
<rscale>  0 0.38105925E+03</rscale>
<asrwt>0</asrwt>
<pdfrwt beam="1">  1        2 0.76401780E-02 0.38105925E+03</pdfrwt>
<pdfrwt beam="2">  1       -2 0.11245916E+00 0.38105925E+03</pdfrwt>
<totfact> 0.58921611E+02</totfact>
</mgrwt>
</event>
<event>
 4    1  0.1573232E-005  0.5544678E+03  0.7818608E-02  0.1000465E+00
          2   -1    0    0  501    0  0.00000000000E+00  0.00000000000E+00  0.91428239198E+03  0.91428239198E+03  0.25500000000E-02 0. -1.
         -2   -1    0    0    0  501 -0.00000000000E+00 -0.00000000000E+00 -0.84064424944E+02  0.84064424983E+02  0.25500000000E-02 0.  1.
    5000001    1    1    2    0    0 -0.95279200202E+02 -0.17875400601E+03  0.58210940000E+03  0.63804974275E+03  0.16500000000E+03 0.  0.
   -5000001    1    1    2    0    0  0.95279200202E+02  0.17875400601E+03  0.24810856704E+03  0.36029707422E+03  0.16500000000E+03 0.  0.
<mgrwt>
<rscale>  0 0.55446776E+03</rscale>
<asrwt>0</asrwt>
<pdfrwt beam="1">  1        2 0.14065883E+00 0.55446776E+03</pdfrwt>
<pdfrwt beam="2">  1       -2 0.12932988E-01 0.55446776E+03</pdfrwt>
<totfact> 0.12968782E+03</totfact>
</mgrwt>
</event>
<event>
 4    1  0.1573232E-005  0.5731006E+03  0.7818608E-02  0.9962841E-01
          2   -1    0    0  501    0  0.00000000000E+00  0.00000000000E+00  0.64120937477E+03  0.64120937477E+03  0.25500000000E-02 0.  1.
         -2   -1    0    0    0  501 -0.00000000000E+00 -0.00000000000E+00 -0.12805655034E+03  0.12805655036E+03  0.25500000000E-02 0. -1.
    5000001    1    1    2    0    0  0.75645605991E+02 -0.11273262759E+03  0.29024930749E+00  0.21367261704E+03  0.16500000000E+03 0.  0.
   -5000001    1    1    2    0    0 -0.75645605991E+02  0.11273262759E+03  0.51286257513E+03  0.55559330809E+03  0.16500000000E+03 0.  0.
<mgrwt>
<rscale>  0 0.57310055E+03</rscale>
<asrwt>0</asrwt>
<pdfrwt beam="1">  1        2 0.98647595E-01 0.57310055E+03</pdfrwt>
<pdfrwt beam="2">  1       -2 0.19701008E-01 0.57310055E+03</pdfrwt>
<totfact> 0.10056928E+03</totfact>
</mgrwt>
</event>
<event>
 4    1  0.1573232E-005  0.4499089E+03  0.7818608E-02  0.1027749E+00
         -2   -1    0    0    0  501 -0.00000000000E+00  0.00000000000E+00  0.28522295212E+02  0.28522295326E+02  0.25500000000E-02 0. -1.
          2   -1    0    0  501    0  0.00000000000E+00 -0.00000000000E+00 -0.17742090737E+04  0.17742090737E+04  0.25500000000E-02 0.  1.
    5000001    1    1    2    0    0  0.11169180932E+03 -0.12541071700E+02 -0.12882310328E+04  0.13036090413E+04  0.16500000000E+03 0.  0.
   -5000001    1    1    2    0    0 -0.11169180932E+03  0.12541071700E+02 -0.45745574564E+03  0.49912232766E+03  0.16500000000E+03 0.  0.
<mgrwt>
<rscale>  0 0.44990895E+03</rscale>
<asrwt>0</asrwt>
<pdfrwt beam="1">  1        2 0.27295516E+00 0.44990895E+03</pdfrwt>
<pdfrwt beam="2">  1       -2 0.43880468E-02 0.44990895E+03</pdfrwt>
<totfact> 0.23174907E+03</totfact>
</mgrwt>
</event>
<event>
 4    1  0.1573232E-005  0.4378578E+03  0.7818608E-02  0.1031406E+00
         -2   -1    0    0    0  501 -0.00000000000E+00  0.00000000000E+00  0.68856591102E+02  0.68856591150E+02  0.25500000000E-02 0. -1.
          2   -1    0    0  501    0  0.00000000000E+00 -0.00000000000E+00 -0.69608246927E+03  0.69608246927E+03  0.25500000000E-02 0.  1.
    5000001    1    1    2    0    0  0.12430037970E+03  0.36675890880E+02 -0.20438455915E+03  0.29290570733E+03  0.16500000000E+03 0.  0.
   -5000001    1    1    2    0    0 -0.12430037970E+03 -0.36675890880E+02 -0.42284131902E+03  0.47203335310E+03  0.16500000000E+03 0.  0.
<mgrwt>
<rscale>  0 0.43785781E+03</rscale>
<asrwt>0</asrwt>
<pdfrwt beam="1">  1        2 0.10708961E+00 0.43785781E+03</pdfrwt>
<pdfrwt beam="2">  1       -2 0.10593322E-01 0.43785781E+03</pdfrwt>
<totfact> 0.25679040E+03</totfact>
</mgrwt>
</event>
<event>
 4    1  0.1573232E-005  0.4995679E+03  0.7818608E-02  0.1013892E+00
          2   -1    0    0  501    0  0.00000000000E+00  0.00000000000E+00  0.51351187183E+03  0.51351187183E+03  0.25500000000E-02 0.  1.
         -2   -1    0    0    0  501 -0.00000000000E+00 -0.00000000000E+00 -0.12150064770E+03  0.12150064773E+03  0.25500000000E-02 0. -1.
    5000001    1    1    2    0    0 -0.12450702783E+03  0.22723409538E+02  0.37190206353E+03  0.42609212405E+03  0.16500000000E+03 0.  0.
   -5000001    1    1    2    0    0  0.12450702783E+03 -0.22723409538E+02  0.20109160596E+02  0.20892039551E+03  0.16500000000E+03 0.  0.
<mgrwt>
<rscale>  0 0.49956791E+03</rscale>
<asrwt>0</asrwt>
<pdfrwt beam="1">  1        2 0.79001826E-01 0.49956791E+03</pdfrwt>
<pdfrwt beam="2">  1       -2 0.18692407E-01 0.49956791E+03</pdfrwt>
<totfact> 0.14327339E+03</totfact>
</mgrwt>
</event>
<event>
 4    1  0.1573232E-005  0.1178311E+04  0.7818608E-02  0.9132055E-01
          2   -1    0    0  501    0  0.00000000000E+00  0.00000000000E+00  0.10559361404E+04  0.10559361404E+04  0.25500000000E-02 0.  1.
         -2   -1    0    0    0  501 -0.00000000000E+00 -0.00000000000E+00 -0.32871710643E+03  0.32871710644E+03  0.25500000000E-02 0. -1.
    5000001    1    1    2    0    0  0.30066268439E+03  0.45727752179E+03  0.53136126840E+03  0.78042974012E+03  0.16500000000E+03 0.  0.
   -5000001    1    1    2    0    0 -0.30066268439E+03 -0.45727752179E+03  0.19585776555E+03  0.60422350670E+03  0.16500000000E+03 0.  0.
<mgrwt>
<rscale>  0 0.11783111E+04</rscale>
<asrwt>0</asrwt>
<pdfrwt beam="1">  1        2 0.16245171E+00 0.11783111E+04</pdfrwt>
<pdfrwt beam="2">  1       -2 0.50571862E-01 0.11783111E+04</pdfrwt>
<totfact> 0.84768709E+01</totfact>
</mgrwt>
</event>
<event>
 4    1  0.1573232E-005  0.4951796E+03  0.7818608E-02  0.1015045E+00
         -2   -1    0    0    0  501 -0.00000000000E+00  0.00000000000E+00  0.61150428935E+02  0.61150428989E+02  0.25500000000E-02 0. -1.
          2   -1    0    0  501    0  0.00000000000E+00 -0.00000000000E+00 -0.10024576980E+04  0.10024576980E+04  0.25500000000E-02 0.  1.
    5000001    1    1    2    0    0 -0.58561088506E+02  0.16840787169E+03 -0.36797690260E+03  0.44093379682E+03  0.16500000000E+03 0.  0.
   -5000001    1    1    2    0    0  0.58561088506E+02 -0.16840787169E+03 -0.57333036643E+03  0.62267433013E+03  0.16500000000E+03 0.  0.
<mgrwt>
<rscale>  0 0.49517964E+03</rscale>
<asrwt>0</asrwt>
<pdfrwt beam="1">  1        2 0.15422425E+00 0.49517964E+03</pdfrwt>
<pdfrwt beam="2">  1       -2 0.94077590E-02 0.49517964E+03</pdfrwt>
<totfact> 0.19138634E+03</totfact>
</mgrwt>
</event>
<event>
 4    1  0.1573232E-005  0.4591801E+03  0.7818608E-02  0.1025019E+00
          2   -1    0    0  501    0  0.00000000000E+00  0.00000000000E+00  0.17050835483E+03  0.17050835485E+03  0.25500000000E-02 0.  1.
         -2   -1    0    0    0  501 -0.00000000000E+00 -0.00000000000E+00 -0.30914376064E+03  0.30914376065E+03  0.25500000000E-02 0. -1.
    5000001    1    1    2    0    0 -0.76011154700E+02 -0.13917861486E+03 -0.50107253675E+02  0.23427359933E+03  0.16500000000E+03 0.  0.
   -5000001    1    1    2    0    0  0.76011154700E+02  0.13917861486E+03 -0.88528152138E+02  0.24537851617E+03  0.16500000000E+03 0.  0.
<mgrwt>
<rscale>  0 0.45918011E+03</rscale>
<asrwt>0</asrwt>
<pdfrwt beam="1">  1        2 0.26232055E-01 0.45918011E+03</pdfrwt>
<pdfrwt beam="2">  1       -2 0.47560579E-01 0.45918011E+03</pdfrwt>
<totfact> 0.87105410E+02</totfact>
</mgrwt>
</event>
<event>
 4    1  0.1573232E-005  0.5362772E+03  0.7818608E-02  0.1004721E+00
          2   -1    0    0  501    0  0.00000000000E+00  0.00000000000E+00  0.63155774066E+03  0.63155774067E+03  0.25500000000E-02 0.  1.
         -2   -1    0    0    0  501 -0.00000000000E+00 -0.00000000000E+00 -0.11384282422E+03  0.11384282425E+03  0.25500000000E-02 0. -1.
    5000001    1    1    2    0    0  0.10346048871E+03 -0.40397036847E+02  0.89078869903E+01  0.19909882913E+03  0.16500000000E+03 0.  0.
   -5000001    1    1    2    0    0 -0.10346048871E+03  0.40397036847E+02  0.50880702945E+03  0.54630173579E+03  0.16500000000E+03 0.  0.
<mgrwt>
<rscale>  0 0.53627723E+03</rscale>
<asrwt>0</asrwt>
<pdfrwt beam="1">  1        2 0.97162729E-01 0.53627723E+03</pdfrwt>
<pdfrwt beam="2">  1       -2 0.17514281E-01 0.53627723E+03</pdfrwt>
<totfact> 0.12551593E+03</totfact>
</mgrwt>
</event>
<event>
 4    1  0.1573232E-005  0.1215331E+04  0.7818608E-02  0.9099542E-01
          2   -1    0    0  501    0  0.00000000000E+00  0.00000000000E+00  0.41186310260E+03  0.41186310261E+03  0.25500000000E-02 0.  1.
         -2   -1    0    0    0  501 -0.00000000000E+00 -0.00000000000E+00 -0.89655360761E+03  0.89655360761E+03  0.25500000000E-02 0. -1.
    5000001    1    1    2    0    0  0.55226509529E+03  0.54410056075E+01 -0.35241653814E+02  0.57748880005E+03  0.16500000000E+03 0.  0.
   -5000001    1    1    2    0    0 -0.55226509529E+03 -0.54410056075E+01 -0.44944885119E+03  0.73092791017E+03  0.16500000000E+03 0.  0.
<mgrwt>
<rscale>  0 0.12153310E+04</rscale>
<asrwt>0</asrwt>
<pdfrwt beam="1">  1        2 0.63363555E-01 0.12153310E+04</pdfrwt>
<pdfrwt beam="2">  1       -2 0.13793132E+00 0.12153310E+04</pdfrwt>
<totfact> 0.28286881E+01</totfact>
</mgrwt>
</event>
<event>
 4    1  0.1573232E-005  0.6840887E+03  0.7818608E-02  0.9744836E-01
          2   -1    0    0  501    0  0.00000000000E+00  0.00000000000E+00  0.22406668380E+04  0.22406668380E+04  0.25500000000E-02 0.  1.
         -2   -1    0    0    0  501 -0.00000000000E+00 -0.00000000000E+00 -0.52214064423E+02  0.52214064485E+02  0.25500000000E-02 0. -1.
    5000001    1    1    2    0    0 -0.10519490206E+03 -0.21137305175E+03  0.47597254556E+03  0.55634467604E+03  0.16500000000E+03 0.  0.
   -5000001    1    1    2    0    0  0.10519490206E+03  0.21137305175E+03  0.17124802280E+04  0.17365362265E+04  0.16500000000E+03 0.  0.
<mgrwt>
<rscale>  0 0.68408866E+03</rscale>
<asrwt>0</asrwt>
<pdfrwt beam="1">  1        2 0.34471805E+00 0.68408866E+03</pdfrwt>
<pdfrwt beam="2">  1       -2 0.80329313E-02 0.68408866E+03</pdfrwt>
<totfact> 0.49578795E+02</totfact>
</mgrwt>
</event>
<event>
 4    1  0.1573232E-005  0.4190783E+03  0.7818608E-02  0.1037367E+00
          2   -1    0    0  501    0  0.00000000000E+00  0.00000000000E+00  0.29650334969E+04  0.29650334969E+04  0.25500000000E-02 0.  1.
         -2   -1    0    0    0  501 -0.00000000000E+00 -0.00000000000E+00 -0.14808146546E+02  0.14808146765E+02  0.25500000000E-02 0. -1.
    5000001    1    1    2    0    0 -0.87321503413E+02  0.74368837302E+02  0.18973259826E+04  0.19079378012E+04  0.16500000000E+03 0.  0.
   -5000001    1    1    2    0    0  0.87321503413E+02 -0.74368837302E+02  0.10528993677E+04  0.10719038425E+04  0.16500000000E+03 0.  0.
<mgrwt>
<rscale>  0 0.41907828E+03</rscale>
<asrwt>0</asrwt>
<pdfrwt beam="1">  1        2 0.45615878E+00 0.41907828E+03</pdfrwt>
<pdfrwt beam="2">  1       -2 0.22781775E-02 0.41907828E+03</pdfrwt>
<totfact> 0.13668107E+03</totfact>
</mgrwt>
</event>
<event>
 4    1  0.1573232E-005  0.5064185E+03  0.7818608E-02  0.1012117E+00
         -2   -1    0    0    0  501 -0.00000000000E+00  0.00000000000E+00  0.53368119886E+02  0.53368119947E+02  0.25500000000E-02 0. -1.
          2   -1    0    0  501    0  0.00000000000E+00 -0.00000000000E+00 -0.12013714517E+04  0.12013714517E+04  0.25500000000E-02 0.  1.
    5000001    1    1    2    0    0 -0.15530184370E+03 -0.83987927498E+02 -0.76134555226E+03  0.79877699301E+03  0.16500000000E+03 0.  0.
   -5000001    1    1    2    0    0  0.15530184370E+03  0.83987927498E+02 -0.38665777952E+03  0.45596257860E+03  0.16500000000E+03 0.  0.
<mgrwt>
<rscale>  0 0.50641855E+03</rscale>
<asrwt>0</asrwt>
<pdfrwt beam="1">  1        2 0.18482636E+00 0.50641855E+03</pdfrwt>
<pdfrwt beam="2">  1       -2 0.82104809E-02 0.50641855E+03</pdfrwt>
<totfact> 0.18043998E+03</totfact>
</mgrwt>
</event>
<event>
 4    1  0.1573232E-005  0.1377688E+04  0.7818608E-02  0.8970129E-01
         -2   -1    0    0    0  501 -0.00000000000E+00  0.00000000000E+00  0.61811955583E+03  0.61811955584E+03  0.25500000000E-02 0. -1.
          2   -1    0    0  501    0  0.00000000000E+00 -0.00000000000E+00 -0.76766039453E+03  0.76766039454E+03  0.25500000000E-02 0.  1.
    5000001    1    1    2    0    0  0.57787906884E+03 -0.31314264917E+03 -0.19910213071E+03  0.70630672897E+03  0.16500000000E+03 0.  0.
   -5000001    1    1    2    0    0 -0.57787906884E+03  0.31314264917E+03  0.49561292008E+02  0.67947322140E+03  0.16500000000E+03 0.  0.
<mgrwt>
<rscale>  0 0.13776878E+04</rscale>
<asrwt>0</asrwt>
<pdfrwt beam="1">  1        2 0.11810160E+00 0.13776878E+04</pdfrwt>
<pdfrwt beam="2">  1       -2 0.95095317E-01 0.13776878E+04</pdfrwt>
<totfact> 0.32984372E+01</totfact>
</mgrwt>
</event>
<event>
 4    1  0.1573232E-005  0.5577825E+03  0.7818608E-02  0.9997085E-01
          2   -1    0    0  501    0  0.00000000000E+00  0.00000000000E+00  0.40004116447E+03  0.40004116448E+03  0.25500000000E-02 0.  1.
         -2   -1    0    0    0  501 -0.00000000000E+00 -0.00000000000E+00 -0.19443080668E+03  0.19443080670E+03  0.25500000000E-02 0. -1.
    5000001    1    1    2    0    0  0.12153260309E+03 -0.16055045481E+03 -0.38189345581E+01  0.26035784300E+03  0.16500000000E+03 0.  0.
   -5000001    1    1    2    0    0 -0.12153260309E+03  0.16055045481E+03  0.20942929235E+03  0.33411412817E+03  0.16500000000E+03 0.  0.
<mgrwt>
<rscale>  0 0.55778249E+03</rscale>
<asrwt>0</asrwt>
<pdfrwt beam="1">  1        2 0.61544794E-01 0.55778249E+03</pdfrwt>
<pdfrwt beam="2">  1       -2 0.29912432E-01 0.55778249E+03</pdfrwt>
<totfact> 0.82302771E+02</totfact>
</mgrwt>
</event>
<event>
 4    1  0.1573232E-005  0.7981893E+03  0.7818608E-02  0.9562642E-01
         -2   -1    0    0    0  501 -0.00000000000E+00  0.00000000000E+00  0.74420449469E+02  0.74420449513E+02  0.25500000000E-02 0. -1.
          2   -1    0    0  501    0  0.00000000000E+00 -0.00000000000E+00 -0.21402252715E+04  0.21402252715E+04  0.25500000000E-02 0.  1.
    5000001    1    1    2    0    0 -0.36139816570E+03 -0.14248195687E+02 -0.11306010382E+04  0.11984554030E+04  0.16500000000E+03 0.  0.
   -5000001    1    1    2    0    0  0.36139816570E+03  0.14248195687E+02 -0.93520378375E+03  0.10161903180E+04  0.16500000000E+03 0.  0.
<mgrwt>
<rscale>  0 0.79818927E+03</rscale>
<asrwt>0</asrwt>
<pdfrwt beam="1">  1        2 0.32926538E+00 0.79818927E+03</pdfrwt>
<pdfrwt beam="2">  1       -2 0.11449302E-01 0.79818927E+03</pdfrwt>
<totfact> 0.31397703E+02</totfact>
</mgrwt>
</event>
<event>
 4    1  0.1573232E-005  0.5523006E+03  0.7818608E-02  0.1000963E+00
         -2   -1    0    0    0  501 -0.00000000000E+00  0.00000000000E+00  0.52652767702E+02  0.52652767764E+02  0.25500000000E-02 0. -1.
          2   -1    0    0  501    0  0.00000000000E+00 -0.00000000000E+00 -0.14483377190E+04  0.14483377190E+04  0.25500000000E-02 0.  1.
    5000001    1    1    2    0    0 -0.23972910413E+01  0.21678345302E+03 -0.57529905011E+03  0.63654914151E+03  0.16500000000E+03 0.  0.
   -5000001    1    1    2    0    0  0.23972910413E+01 -0.21678345302E+03 -0.82038590120E+03  0.86444134527E+03  0.16500000000E+03 0.  0.
<mgrwt>
<rscale>  0 0.55230060E+03</rscale>
<asrwt>0</asrwt>
<pdfrwt beam="1">  1        2 0.22282116E+00 0.55230060E+03</pdfrwt>
<pdfrwt beam="2">  1       -2 0.81004269E-02 0.55230060E+03</pdfrwt>
<totfact> 0.13334958E+03</totfact>
</mgrwt>
</event>
<event>
 4    1  0.1573232E-005  0.6861145E+03  0.7818608E-02  0.9741277E-01
         -2   -1    0    0    0  501 -0.00000000000E+00  0.00000000000E+00  0.62138057670E+02  0.62138057723E+02  0.25500000000E-02 0. -1.
          2   -1    0    0  501    0  0.00000000000E+00 -0.00000000000E+00 -0.18939806358E+04  0.18939806358E+04  0.25500000000E-02 0.  1.
    5000001    1    1    2    0    0 -0.26034311152E+03  0.99632030273E+02 -0.12379490563E+04  0.12796280488E+04  0.16500000000E+03 0.  0.
   -5000001    1    1    2    0    0  0.26034311152E+03 -0.99632030273E+02 -0.59389352174E+03  0.67649064468E+03  0.16500000000E+03 0.  0.
<mgrwt>
<rscale>  0 0.68611450E+03</rscale>
<asrwt>0</asrwt>
<pdfrwt beam="1">  1        2 0.29138159E+00 0.68611450E+03</pdfrwt>
<pdfrwt beam="2">  1       -2 0.95597026E-02 0.68611450E+03</pdfrwt>
<totfact> 0.57935295E+02</totfact>
</mgrwt>
</event>
<event>
 4    1  0.1573232E-005  0.4796483E+03  0.7818608E-02  0.1019232E+00
         -2   -1    0    0    0  501 -0.00000000000E+00  0.00000000000E+00  0.28094263453E+02  0.28094263569E+02  0.25500000000E-02 0. -1.
          2   -1    0    0  501    0  0.00000000000E+00 -0.00000000000E+00 -0.20472373284E+04  0.20472373284E+04  0.25500000000E-02 0.  1.
    5000001    1    1    2    0    0  0.71330128158E+02 -0.61242692236E+02 -0.16432926434E+04  0.16542292363E+04  0.16500000000E+03 0.  0.
   -5000001    1    1    2    0    0 -0.71330128158E+02  0.61242692236E+02 -0.37585042156E+03  0.42110235564E+03  0.16500000000E+03 0.  0.
<mgrwt>
<rscale>  0 0.47964831E+03</rscale>
<asrwt>0</asrwt>
<pdfrwt beam="1">  1        2 0.31495947E+00 0.47964831E+03</pdfrwt>
<pdfrwt beam="2">  1       -2 0.43221960E-02 0.47964831E+03</pdfrwt>
<totfact> 0.16905753E+03</totfact>
</mgrwt>
</event>
<event>
 4    1  0.1573232E-005  0.5695676E+03  0.7818608E-02  0.9970636E-01
         -2   -1    0    0    0  501 -0.00000000000E+00  0.00000000000E+00  0.65505215489E+02  0.65505215538E+02  0.25500000000E-02 0. -1.
          2   -1    0    0  501    0  0.00000000000E+00 -0.00000000000E+00 -0.12380971651E+04  0.12380971651E+04  0.25500000000E-02 0.  1.
    5000001    1    1    2    0    0  0.17854889691E+03  0.11530560300E+03 -0.37279361944E+03  0.45975555828E+03  0.16500000000E+03 0.  0.
   -5000001    1    1    2    0    0 -0.17854889691E+03 -0.11530560300E+03 -0.79979833019E+03  0.84384682239E+03  0.16500000000E+03 0.  0.
<mgrwt>
<rscale>  0 0.56956763E+03</rscale>
<asrwt>0</asrwt>
<pdfrwt beam="1">  1        2 0.19047647E+00 0.56956763E+03</pdfrwt>
<pdfrwt beam="2">  1       -2 0.10077726E-01 0.56956763E+03</pdfrwt>
<totfact> 0.12340666E+03</totfact>
</mgrwt>
</event>
<event>
 4    1  0.1573232E-005  0.6346105E+03  0.7818608E-02  0.9836093E-01
         -2   -1    0    0    0  501 -0.00000000000E+00  0.00000000000E+00  0.10696440731E+03  0.10696440734E+03  0.25500000000E-02 0. -1.
          2   -1    0    0  501    0  0.00000000000E+00 -0.00000000000E+00 -0.94127205101E+03  0.94127205102E+03  0.25500000000E-02 0.  1.
    5000001    1    1    2    0    0 -0.13343478662E+03  0.15516322240E+02 -0.80597864660E+03  0.83358993354E+03  0.16500000000E+03 0.  0.
   -5000001    1    1    2    0    0  0.13343478662E+03 -0.15516322240E+02 -0.28328997111E+02  0.21464652481E+03  0.16500000000E+03 0.  0.
<mgrwt>
<rscale>  0 0.63461045E+03</rscale>
<asrwt>0</asrwt>
<pdfrwt beam="1">  1        2 0.14481108E+00 0.63461045E+03</pdfrwt>
<pdfrwt beam="2">  1       -2 0.16456063E-01 0.63461045E+03</pdfrwt>
<totfact> 0.82910152E+02</totfact>
</mgrwt>
</event>
<event>
 4    1  0.1573232E-005  0.5735897E+03  0.7818608E-02  0.9961767E-01
         -2   -1    0    0    0  501 -0.00000000000E+00  0.00000000000E+00  0.33861553496E+03  0.33861553497E+03  0.25500000000E-02 0.  1.
          2   -1    0    0  501    0  0.00000000000E+00 -0.00000000000E+00 -0.24290460279E+03  0.24290460280E+03  0.25500000000E-02 0. -1.
    5000001    1    1    2    0    0 -0.99171704554E+02 -0.11073949334E+03  0.23182512016E+03  0.32103917005E+03  0.16500000000E+03 0.  0.
   -5000001    1    1    2    0    0  0.99171704554E+02  0.11073949334E+03 -0.13611418799E+03  0.26048096772E+03  0.16500000000E+03 0.  0.
<mgrwt>
<rscale>  0 0.57358965E+03</rscale>
<asrwt>0</asrwt>
<pdfrwt beam="1">  1        2 0.37369939E-01 0.57358965E+03</pdfrwt>
<pdfrwt beam="2">  1       -2 0.52094697E-01 0.57358965E+03</pdfrwt>
<totfact> 0.48760676E+02</totfact>
</mgrwt>
</event>
<event>
 4    1  0.1573232E-005  0.6374456E+03  0.7818608E-02  0.9830626E-01
          2   -1    0    0  501    0  0.00000000000E+00  0.00000000000E+00  0.84699249325E+03  0.84699249325E+03  0.25500000000E-02 0.  1.
         -2   -1    0    0    0  501 -0.00000000000E+00 -0.00000000000E+00 -0.11993521994E+03  0.11993521997E+03  0.25500000000E-02 0. -1.
    5000001    1    1    2    0    0 -0.12126021862E+03 -0.22555387305E+03  0.22138940383E+03  0.37658579155E+03  0.16500000000E+03 0.  0.
   -5000001    1    1    2    0    0  0.12126021862E+03  0.22555387305E+03  0.50566786947E+03  0.59034192167E+03  0.16500000000E+03 0.  0.
<mgrwt>
<rscale>  0 0.63744562E+03</rscale>
<asrwt>0</asrwt>
<pdfrwt beam="1">  1        2 0.13030654E+00 0.63744562E+03</pdfrwt>
<pdfrwt beam="2">  1       -2 0.18451573E-01 0.63744562E+03</pdfrwt>
<totfact> 0.78825375E+02</totfact>
</mgrwt>
</event>
<event>
 4    1  0.1573232E-005  0.5317592E+03  0.7818608E-02  0.1005806E+00
          2   -1    0    0  501    0  0.00000000000E+00  0.00000000000E+00  0.16968614639E+03  0.16968614641E+03  0.25500000000E-02 0.  1.
         -2   -1    0    0    0  501 -0.00000000000E+00 -0.00000000000E+00 -0.41660412961E+03  0.41660412962E+03  0.25500000000E-02 0. -1.
    5000001    1    1    2    0    0 -0.13886450973E+03  0.15274712908E+03 -0.15563965855E+03  0.30669812653E+03  0.16500000000E+03 0.  0.
   -5000001    1    1    2    0    0  0.13886450973E+03 -0.15274712908E+03 -0.91278324670E+02  0.27959214949E+03  0.16500000000E+03 0.  0.
<mgrwt>
<rscale>  0 0.53175915E+03</rscale>
<asrwt>0</asrwt>
<pdfrwt beam="1">  1        2 0.26105561E-01 0.53175915E+03</pdfrwt>
<pdfrwt beam="2">  1       -2 0.64092943E-01 0.53175915E+03</pdfrwt>
<totfact> 0.47335414E+02</totfact>
</mgrwt>
</event>
<event>
 4    1  0.1573232E-005  0.3676057E+03  0.7818608E-02  0.1055612E+00
         -2   -1    0    0    0  501 -0.00000000000E+00  0.00000000000E+00  0.13269368675E+02  0.13269368920E+02  0.25500000000E-02 0. -1.
          2   -1    0    0  501    0  0.00000000000E+00 -0.00000000000E+00 -0.25459753534E+04  0.25459753534E+04  0.25500000000E-02 0.  1.
    5000001    1    1    2    0    0 -0.41068291942E+02 -0.68053505486E+02 -0.11583641360E+04  0.11727533227E+04  0.16500000000E+03 0.  0.
   -5000001    1    1    2    0    0  0.41068291942E+02  0.68053505486E+02 -0.13743418487E+04  0.13864913997E+04  0.16500000000E+03 0.  0.
<mgrwt>
<rscale>  0 0.36760569E+03</rscale>
<asrwt>0</asrwt>
<pdfrwt beam="1">  1        2 0.39168813E+00 0.36760569E+03</pdfrwt>
<pdfrwt beam="2">  1       -2 0.20414434E-02 0.36760569E+03</pdfrwt>
<totfact> 0.28187007E+03</totfact>
</mgrwt>
</event>
<event>
 4    1  0.1573232E-005  0.4631638E+03  0.7818608E-02  0.1023868E+00
          2   -1    0    0  501    0  0.00000000000E+00  0.00000000000E+00  0.17693593926E+03  0.17693593928E+03  0.25500000000E-02 0. -1.
         -2   -1    0    0    0  501 -0.00000000000E+00 -0.00000000000E+00 -0.30310505596E+03  0.30310505597E+03  0.25500000000E-02 0.  1.
    5000001    1    1    2    0    0 -0.30435546630E+02  0.15388071670E+03 -0.19117305628E+02  0.22846458991E+03  0.16500000000E+03 0.  0.
   -5000001    1    1    2    0    0  0.30435546630E+02 -0.15388071670E+03 -0.10705181107E+03  0.25157640534E+03  0.16500000000E+03 0.  0.
<mgrwt>
<rscale>  0 0.46316381E+03</rscale>
<asrwt>0</asrwt>
<pdfrwt beam="1">  1        2 0.27220914E-01 0.46316381E+03</pdfrwt>
<pdfrwt beam="2">  1       -2 0.46631547E-01 0.46316381E+03</pdfrwt>
<totfact> 0.86893617E+02</totfact>
</mgrwt>
</event>
<event>
 4    1  0.1573232E-005  0.6214590E+03  0.7818608E-02  0.9861859E-01
          2   -1    0    0  501    0  0.00000000000E+00  0.00000000000E+00  0.21644324649E+04  0.21644324649E+04  0.25500000000E-02 0.  1.
         -2   -1    0    0    0  501 -0.00000000000E+00 -0.00000000000E+00 -0.44608842270E+02  0.44608842343E+02  0.25500000000E-02 0. -1.
    5000001    1    1    2    0    0  0.23671732378E+03  0.51314786858E+02  0.69291665848E+03  0.75234752231E+03  0.16500000000E+03 0.  0.
   -5000001    1    1    2    0    0 -0.23671732378E+03 -0.51314786858E+02  0.14269069641E+04  0.14566937849E+04  0.16500000000E+03 0.  0.
<mgrwt>
<rscale>  0 0.62145901E+03</rscale>
<asrwt>0</asrwt>
<pdfrwt beam="1">  1        2 0.33298955E+00 0.62145901E+03</pdfrwt>
<pdfrwt beam="2">  1       -2 0.68629001E-02 0.62145901E+03</pdfrwt>
<totfact> 0.70455427E+02</totfact>
</mgrwt>
</event>
<event>
 4    1  0.1573232E-005  0.4693426E+03  0.7818608E-02  0.1022106E+00
          2   -1    0    0  501    0  0.00000000000E+00  0.00000000000E+00  0.86648328193E+03  0.86648328193E+03  0.25500000000E-02 0.  1.
         -2   -1    0    0    0  501 -0.00000000000E+00 -0.00000000000E+00 -0.63556478523E+02  0.63556478574E+02  0.25500000000E-02 0. -1.
    5000001    1    1    2    0    0 -0.34234347909E+02  0.13589506047E+03  0.22195626603E+03  0.31004683850E+03  0.16500000000E+03 0.  0.
   -5000001    1    1    2    0    0  0.34234347909E+02 -0.13589506047E+03  0.58097053737E+03  0.61999292200E+03  0.16500000000E+03 0.  0.
<mgrwt>
<rscale>  0 0.46934263E+03</rscale>
<asrwt>0</asrwt>
<pdfrwt beam="1">  1        2 0.13330512E+00 0.46934263E+03</pdfrwt>
<pdfrwt beam="2">  1       -2 0.97779195E-02 0.46934263E+03</pdfrwt>
<totfact> 0.22047603E+03</totfact>
</mgrwt>
</event>
<event>
 4    1  0.1573232E-005  0.4872193E+03  0.7818608E-02  0.1017170E+00
         -2   -1    0    0    0  501 -0.00000000000E+00  0.00000000000E+00  0.25828089463E+03  0.25828089464E+03  0.25500000000E-02 0. -1.
          2   -1    0    0  501    0  0.00000000000E+00 -0.00000000000E+00 -0.22977175867E+03  0.22977175869E+03  0.25500000000E-02 0.  1.
    5000001    1    1    2    0    0  0.13265179667E+03 -0.83365966556E+02  0.10143372429E+03  0.24911881495E+03  0.16500000000E+03 0.  0.
   -5000001    1    1    2    0    0 -0.13265179667E+03  0.83365966556E+02 -0.72924588332E+02  0.23893383838E+03  0.16500000000E+03 0.  0.
<mgrwt>
<rscale>  0 0.48721927E+03</rscale>
<asrwt>0</asrwt>
<pdfrwt beam="1">  1        2 0.35349501E-01 0.48721927E+03</pdfrwt>
<pdfrwt beam="2">  1       -2 0.39735522E-01 0.48721927E+03</pdfrwt>
<totfact> 0.88860622E+02</totfact>
</mgrwt>
</event>
<event>
 4    1  0.1573232E-005  0.4742187E+03  0.7818608E-02  0.1020736E+00
          2   -1    0    0  501    0  0.00000000000E+00  0.00000000000E+00  0.60382616119E+03  0.60382616119E+03  0.25500000000E-02 0.  1.
         -2   -1    0    0    0  501 -0.00000000000E+00 -0.00000000000E+00 -0.93107677210E+02  0.93107677245E+02  0.25500000000E-02 0. -1.
    5000001    1    1    2    0    0 -0.13192711977E+03 -0.10744224024E+03  0.24525694326E+03  0.34106387691E+03  0.16500000000E+03 0.  0.
   -5000001    1    1    2    0    0  0.13192711977E+03  0.10744224024E+03  0.26546154072E+03  0.35586996153E+03  0.16500000000E+03 0.  0.
<mgrwt>
<rscale>  0 0.47421873E+03</rscale>
<asrwt>0</asrwt>
<pdfrwt beam="1">  1        2 0.92896332E-01 0.47421873E+03</pdfrwt>
<pdfrwt beam="2">  1       -2 0.14324258E-01 0.47421873E+03</pdfrwt>
<totfact> 0.18600564E+03</totfact>
</mgrwt>
</event>
<event>
 4    1  0.1573232E-005  0.6305573E+03  0.7818608E-02  0.9843962E-01
          2   -1    0    0  501    0  0.00000000000E+00  0.00000000000E+00  0.24586377101E+03  0.24586377103E+03  0.25500000000E-02 0.  1.
         -2   -1    0    0    0  501 -0.00000000000E+00 -0.00000000000E+00 -0.40429142648E+03  0.40429142649E+03  0.25500000000E-02 0. -1.
    5000001    1    1    2    0    0  0.21517425316E+03 -0.35054377367E+01 -0.24503311441E+03  0.36548389086E+03  0.16500000000E+03 0.  0.
   -5000001    1    1    2    0    0 -0.21517425316E+03  0.35054377367E+01  0.86605458941E+02  0.28467130666E+03  0.16500000000E+03 0.  0.
<mgrwt>
<rscale>  0 0.63055726E+03</rscale>
<asrwt>0</asrwt>
<pdfrwt beam="1">  1        2 0.37825196E-01 0.63055726E+03</pdfrwt>
<pdfrwt beam="2">  1       -2 0.62198681E-01 0.63055726E+03</pdfrwt>
<totfact> 0.33226655E+02</totfact>
</mgrwt>
</event>
<event>
 4    1  0.1573232E-005  0.4794361E+03  0.7818608E-02  0.1019290E+00
         -2   -1    0    0    0  501 -0.00000000000E+00  0.00000000000E+00  0.81576001659E+03  0.81576001659E+03  0.25500000000E-02 0. -1.
          2   -1    0    0  501    0  0.00000000000E+00 -0.00000000000E+00 -0.70443196708E+02  0.70443196754E+02  0.25500000000E-02 0.  1.
    5000001    1    1    2    0    0  0.10460565644E+03  0.12834505311E+02  0.11698212842E+03  0.22807210758E+03  0.16500000000E+03 0.  0.
   -5000001    1    1    2    0    0 -0.10460565644E+03 -0.12834505311E+02  0.62833469146E+03  0.65813110577E+03  0.16500000000E+03 0.  0.
<mgrwt>
<rscale>  0 0.47943610E+03</rscale>
<asrwt>0</asrwt>
<pdfrwt beam="1">  1        2 0.10837416E-01 0.47943610E+03</pdfrwt>
<pdfrwt beam="2">  1       -2 0.12550153E+00 0.47943610E+03</pdfrwt>
<totfact> 0.28880332E+02</totfact>
</mgrwt>
</event>
<event>
 4    1  0.1573232E-005  0.5812113E+03  0.7818608E-02  0.9945172E-01
          2   -1    0    0  501    0  0.00000000000E+00  0.00000000000E+00  0.28977425665E+04  0.28977425665E+04  0.25500000000E-02 0.  1.
         -2   -1    0    0    0  501 -0.00000000000E+00 -0.00000000000E+00 -0.29143942314E+02  0.29143942426E+02  0.25500000000E-02 0. -1.
    5000001    1    1    2    0    0  0.13756160154E+03  0.10484042628E+02  0.24184616787E+04  0.24280063840E+04  0.16500000000E+03 0.  0.
   -5000001    1    1    2    0    0 -0.13756160154E+03 -0.10484042628E+02  0.45013694553E+03  0.49888012498E+03  0.16500000000E+03 0.  0.
<mgrwt>
<rscale>  0 0.58121130E+03</rscale>
<asrwt>0</asrwt>
<pdfrwt beam="1">  1        2 0.44580671E+00 0.58121130E+03</pdfrwt>
<pdfrwt beam="2">  1       -2 0.44836818E-02 0.58121130E+03</pdfrwt>
<totfact> 0.52720039E+02</totfact>
</mgrwt>
</event>
<event>
 4    1  0.1573232E-005  0.4713115E+03  0.7818608E-02  0.1021551E+00
          2   -1    0    0  501    0  0.00000000000E+00  0.00000000000E+00  0.39038871917E+04  0.39038871917E+04  0.25500000000E-02 0.  1.
         -2   -1    0    0    0  501 -0.00000000000E+00 -0.00000000000E+00 -0.14225211480E+02  0.14225211709E+02  0.25500000000E-02 0. -1.
    5000001    1    1    2    0    0  0.10260283483E+03 -0.75522663325E+02  0.28584378335E+04  0.28660291105E+04  0.16500000000E+03 0.  0.
   -5000001    1    1    2    0    0 -0.10260283483E+03  0.75522663325E+02  0.10312241467E+04  0.10520832929E+04  0.16500000000E+03 0.  0.
<mgrwt>
<rscale>  0 0.47131145E+03</rscale>
<asrwt>0</asrwt>
<pdfrwt beam="1">  1        2 0.60059755E+00 0.47131145E+03</pdfrwt>
<pdfrwt beam="2">  1       -2 0.21884958E-02 0.47131145E+03</pdfrwt>
<totfact> 0.34113385E+02</totfact>
</mgrwt>
</event>
<event>
 4    1  0.1573232E-005  0.4988232E+03  0.7818608E-02  0.1014087E+00
         -2   -1    0    0    0  501 -0.00000000000E+00  0.00000000000E+00  0.85559594137E+02  0.85559594175E+02  0.25500000000E-02 0.  1.
          2   -1    0    0  501    0  0.00000000000E+00 -0.00000000000E+00 -0.72705051920E+03  0.72705051921E+03  0.25500000000E-02 0. -1.
    5000001    1    1    2    0    0 -0.12819345748E+03  0.12487837030E+03 -0.23222052273E+03  0.33642167154E+03  0.16500000000E+03 0.  0.
   -5000001    1    1    2    0    0  0.12819345748E+03 -0.12487837030E+03 -0.40927040234E+03  0.47618844184E+03  0.16500000000E+03 0.  0.
<mgrwt>
<rscale>  0 0.49882320E+03</rscale>
<asrwt>0</asrwt>
<pdfrwt beam="1">  1        2 0.11185392E+00 0.49882320E+03</pdfrwt>
<pdfrwt beam="2">  1       -2 0.13163015E-01 0.49882320E+03</pdfrwt>
<totfact> 0.17057082E+03</totfact>
</mgrwt>
</event>
<event>
 4    1  0.1573232E-005  0.3832479E+03  0.7818608E-02  0.1049740E+00
         -2   -1    0    0    0  501 -0.00000000000E+00  0.00000000000E+00  0.12549712593E+03  0.12549712595E+03  0.25500000000E-02 0. -1.
          2   -1    0    0  501    0  0.00000000000E+00 -0.00000000000E+00 -0.29259421003E+03  0.29259421004E+03  0.25500000000E-02 0.  1.
    5000001    1    1    2    0    0 -0.11777976149E+02  0.91341292038E+02 -0.11826608592E+03  0.22292110585E+03  0.16500000000E+03 0.  0.
   -5000001    1    1    2    0    0  0.11777976149E+02 -0.91341292038E+02 -0.48830998180E+02  0.19517023015E+03  0.16500000000E+03 0.  0.
<mgrwt>
<rscale>  0 0.38324787E+03</rscale>
<asrwt>0</asrwt>
<pdfrwt beam="1">  1        2 0.45014494E-01 0.38324787E+03</pdfrwt>
<pdfrwt beam="2">  1       -2 0.19307250E-01 0.38324787E+03</pdfrwt>
<totfact> 0.25238746E+03</totfact>
</mgrwt>
</event>
<event>
 4    1  0.1573232E-005  0.3746628E+03  0.7818608E-02  0.1052924E+00
          2   -1    0    0  501    0  0.00000000000E+00  0.00000000000E+00  0.11409170710E+04  0.11409170710E+04  0.25500000000E-02 0.  1.
         -2   -1    0    0    0  501 -0.00000000000E+00 -0.00000000000E+00 -0.30758637055E+02  0.30758637161E+02  0.25500000000E-02 0. -1.
    5000001    1    1    2    0    0  0.34358478761E+02  0.71126676976E+02  0.42887707734E+03  0.46626178988E+03  0.16500000000E+03 0.  0.
   -5000001    1    1    2    0    0 -0.34358478761E+02 -0.71126676976E+02  0.68128135659E+03  0.70541391826E+03  0.16500000000E+03 0.  0.
<mgrwt>
<rscale>  0 0.37466280E+03</rscale>
<asrwt>0</asrwt>
<pdfrwt beam="1">  1        2 0.17552567E+00 0.37466280E+03</pdfrwt>
<pdfrwt beam="2">  1       -2 0.47320989E-02 0.37466280E+03</pdfrwt>
<totfact> 0.46218718E+03</totfact>
</mgrwt>
</event>
<event>
 4    1  0.1573232E-005  0.3590865E+03  0.7818608E-02  0.1058946E+00
         -2   -1    0    0    0  501 -0.00000000000E+00  0.00000000000E+00  0.10519764805E+02  0.10519765114E+02  0.25500000000E-02 0. -1.
          2   -1    0    0  501    0  0.00000000000E+00 -0.00000000000E+00 -0.30643060237E+04  0.30643060237E+04  0.25500000000E-02 0.  1.
    5000001    1    1    2    0    0 -0.45759110968E+02 -0.20959195471E+02 -0.19531158468E+04  0.19607191781E+04  0.16500000000E+03 0.  0.
   -5000001    1    1    2    0    0  0.45759110968E+02  0.20959195471E+02 -0.11006704121E+04  0.11141066107E+04  0.16500000000E+03 0.  0.
<mgrwt>
<rscale>  0 0.35908650E+03</rscale>
<asrwt>0</asrwt>
<pdfrwt beam="1">  1        2 0.47143098E+00 0.35908650E+03</pdfrwt>
<pdfrwt beam="2">  1       -2 0.16184278E-02 0.35908650E+03</pdfrwt>
<totfact> 0.19927045E+03</totfact>
</mgrwt>
</event>
<event>
 4    1  0.1573232E-005  0.4452498E+03  0.7818608E-02  0.1029148E+00
         -2   -1    0    0    0  501 -0.00000000000E+00  0.00000000000E+00  0.19976092782E+02  0.19976092944E+02  0.25500000000E-02 0. -1.
          2   -1    0    0  501    0  0.00000000000E+00 -0.00000000000E+00 -0.24810575815E+04  0.24810575815E+04  0.25500000000E-02 0.  1.
    5000001    1    1    2    0    0  0.85510896967E+02 -0.81424558957E+02 -0.17452003730E+04  0.17569551543E+04  0.16500000000E+03 0.  0.
   -5000001    1    1    2    0    0 -0.85510896967E+02  0.81424558957E+02 -0.71588111574E+03  0.74407852017E+03  0.16500000000E+03 0.  0.
<mgrwt>
<rscale>  0 0.44524976E+03</rscale>
<asrwt>0</asrwt>
<pdfrwt beam="1">  1        2 0.38170092E+00 0.44524976E+03</pdfrwt>
<pdfrwt beam="2">  1       -2 0.30732470E-02 0.44524976E+03</pdfrwt>
<totfact> 0.16505680E+03</totfact>
</mgrwt>
</event>
<event>
 4    1  0.1573232E-005  0.5534898E+03  0.7818608E-02  0.1000689E+00
         -2   -1    0    0    0  501 -0.00000000000E+00  0.00000000000E+00  0.11213331497E+03  0.11213331499E+03  0.25500000000E-02 0. -1.
          2   -1    0    0  501    0  0.00000000000E+00 -0.00000000000E+00 -0.68300617868E+03  0.68300617868E+03  0.25500000000E-02 0.  1.
    5000001    1    1    2    0    0  0.17024477620E+03 -0.96180167642E+01 -0.49005363100E+03  0.54447529910E+03  0.16500000000E+03 0.  0.
   -5000001    1    1    2    0    0 -0.17024477620E+03  0.96180167642E+01 -0.80819232709E+02  0.25066419458E+03  0.16500000000E+03 0.  0.
<mgrwt>
<rscale>  0 0.55348983E+03</rscale>
<asrwt>0</asrwt>
<pdfrwt beam="1">  1        2 0.10507787E+00 0.55348983E+03</pdfrwt>
<pdfrwt beam="2">  1       -2 0.17251280E-01 0.55348983E+03</pdfrwt>
<totfact> 0.11700555E+03</totfact>
</mgrwt>
</event>
<event>
 4    1  0.1573232E-005  0.5690793E+03  0.7818608E-02  0.9971718E-01
          2   -1    0    0  501    0  0.00000000000E+00  0.00000000000E+00  0.11249095441E+04  0.11249095441E+04  0.25500000000E-02 0.  1.
         -2   -1    0    0    0  501 -0.00000000000E+00 -0.00000000000E+00 -0.71972720513E+02  0.71972720558E+02  0.25500000000E-02 0. -1.
    5000001    1    1    2    0    0  0.22293184241E+03 -0.58412487473E+02  0.57913959966E+03  0.64477771437E+03  0.16500000000E+03 0.  0.
   -5000001    1    1    2    0    0 -0.22293184241E+03  0.58412487473E+02  0.47379722394E+03  0.55210455031E+03  0.16500000000E+03 0.  0.
<mgrwt>
<rscale>  0 0.56907926E+03</rscale>
<asrwt>0</asrwt>
<pdfrwt beam="1">  1        2 0.17306299E+00 0.56907926E+03</pdfrwt>
<pdfrwt beam="2">  1       -2 0.11072727E-01 0.56907926E+03</pdfrwt>
<totfact> 0.12346320E+03</totfact>
</mgrwt>
</event>
<event>
 4    1  0.1573232E-005  0.5892972E+03  0.7818608E-02  0.9927863E-01
         -2   -1    0    0    0  501 -0.00000000000E+00  0.00000000000E+00  0.34753162963E+03  0.34753162964E+03  0.25500000000E-02 0. -1.
          2   -1    0    0  501    0  0.00000000000E+00 -0.00000000000E+00 -0.24981265043E+03  0.24981265044E+03  0.25500000000E-02 0.  1.
    5000001    1    1    2    0    0  0.20119039805E+03 -0.28344420384E+02  0.18602850735E+03  0.32111148840E+03  0.16500000000E+03 0.  0.
   -5000001    1    1    2    0    0 -0.20119039805E+03  0.28344420384E+02 -0.88309528156E+02  0.27623279168E+03  0.16500000000E+03 0.  0.
<mgrwt>
<rscale>  0 0.58929720E+03</rscale>
<asrwt>0</asrwt>
<pdfrwt beam="1">  1        2 0.38432716E-01 0.58929720E+03</pdfrwt>
<pdfrwt beam="2">  1       -2 0.53466404E-01 0.58929720E+03</pdfrwt>
<totfact> 0.44805702E+02</totfact>
</mgrwt>
</event>
<event>
 4    1  0.1573232E-005  0.5273914E+03  0.7818608E-02  0.1006867E+00
          2   -1    0    0  501    0  0.00000000000E+00  0.00000000000E+00  0.18628607511E+04  0.18628607511E+04  0.25500000000E-02 0.  1.
         -2   -1    0    0    0  501 -0.00000000000E+00 -0.00000000000E+00 -0.37327220935E+02  0.37327221022E+02  0.25500000000E-02 0. -1.
    5000001    1    1    2    0    0 -0.19791490816E+03  0.53961383950E+02  0.85833017721E+03  0.89779609876E+03  0.16500000000E+03 0.  0.
   -5000001    1    1    2    0    0  0.19791490816E+03 -0.53961383950E+02  0.96720335296E+03  0.10023918734E+04  0.16500000000E+03 0.  0.
<mgrwt>
<rscale>  0 0.52739137E+03</rscale>
<asrwt>0</asrwt>
<pdfrwt beam="1">  1        2 0.28659395E+00 0.52739137E+03</pdfrwt>
<pdfrwt beam="2">  1       -2 0.57426496E-02 0.52739137E+03</pdfrwt>
<totfact> 0.13657061E+03</totfact>
</mgrwt>
</event>
<event>
 4    1  0.1573232E-005  0.4741495E+03  0.7818608E-02  0.1020756E+00
          2   -1    0    0  501    0  0.00000000000E+00  0.00000000000E+00  0.61456621267E+03  0.61456621267E+03  0.25500000000E-02 0.  1.
         -2   -1    0    0    0  501 -0.00000000000E+00 -0.00000000000E+00 -0.91453832760E+02  0.91453832795E+02  0.25500000000E-02 0. -1.
    5000001    1    1    2    0    0 -0.13761645186E+03  0.33058496627E+02  0.40241097687E+03  0.45737374906E+03  0.16500000000E+03 0.  0.
   -5000001    1    1    2    0    0  0.13761645186E+03 -0.33058496627E+02  0.12070140304E+03  0.24864629641E+03  0.16500000000E+03 0.  0.
<mgrwt>
<rscale>  0 0.47414949E+03</rscale>
<asrwt>0</asrwt>
<pdfrwt beam="1">  1        2 0.94548652E-01 0.47414949E+03</pdfrwt>
<pdfrwt beam="2">  1       -2 0.14069820E-01 0.47414949E+03</pdfrwt>
<totfact> 0.18765472E+03</totfact>
</mgrwt>
</event>
<event>
 4    1  0.1573232E-005  0.6433859E+03  0.7818608E-02  0.9819270E-01
         -2   -1    0    0    0  501 -0.00000000000E+00  0.00000000000E+00  0.10808633604E+03  0.10808633607E+03  0.25500000000E-02 0. -1.
          2   -1    0    0  501    0  0.00000000000E+00 -0.00000000000E+00 -0.95744158231E+03  0.95744158232E+03  0.25500000000E-02 0.  1.
    5000001    1    1    2    0    0  0.26366307890E+03 -0.32946537233E+02 -0.30010813313E+03  0.43346693653E+03  0.16500000000E+03 0.  0.
   -5000001    1    1    2    0    0 -0.26366307890E+03  0.32946537233E+02 -0.54924711314E+03  0.63206098186E+03  0.16500000000E+03 0.  0.
<mgrwt>
<rscale>  0 0.64338590E+03</rscale>
<asrwt>0</asrwt>
<pdfrwt beam="1">  1        2 0.14729870E+00 0.64338590E+03</pdfrwt>
<pdfrwt beam="2">  1       -2 0.16628668E-01 0.64338590E+03</pdfrwt>
<totfact> 0.79477158E+02</totfact>
</mgrwt>
</event>
<event>
 4    1  0.1573232E-005  0.3757674E+03  0.7818608E-02  0.1052509E+00
          2   -1    0    0  501    0  0.00000000000E+00  0.00000000000E+00  0.14535165537E+04  0.14535165537E+04  0.25500000000E-02 0.  1.
         -2   -1    0    0    0  501 -0.00000000000E+00 -0.00000000000E+00 -0.24286120363E+02  0.24286120496E+02  0.25500000000E-02 0. -1.
    5000001    1    1    2    0    0  0.73214890989E+02  0.60511834257E+01  0.91814230311E+03  0.93573891970E+03  0.16500000000E+03 0.  0.
   -5000001    1    1    2    0    0 -0.73214890989E+02 -0.60511834257E+01  0.51108813027E+03  0.54206375454E+03  0.16500000000E+03 0.  0.
<mgrwt>
<rscale>  0 0.37576736E+03</rscale>
<asrwt>0</asrwt>
<pdfrwt beam="1">  1        2 0.22361799E+00 0.37576736E+03</pdfrwt>
<pdfrwt beam="2">  1       -2 0.37363253E-02 0.37576736E+03</pdfrwt>
<totfact> 0.44142883E+03</totfact>
</mgrwt>
</event>
<event>
 4    1  0.1573232E-005  0.4052806E+03  0.7818608E-02  0.1041966E+00
          2   -1    0    0  501    0  0.00000000000E+00  0.00000000000E+00  0.73539976051E+03  0.73539976052E+03  0.25500000000E-02 0.  1.
         -2   -1    0    0    0  501 -0.00000000000E+00 -0.00000000000E+00 -0.55837791991E+02  0.55837792050E+02  0.25500000000E-02 0. -1.
    5000001    1    1    2    0    0  0.98712944870E+02 -0.16832528985E+02  0.21926542475E+03  0.29211283095E+03  0.16500000000E+03 0.  0.
   -5000001    1    1    2    0    0 -0.98712944870E+02  0.16832528985E+02  0.46029654378E+03  0.49912472162E+03  0.16500000000E+03 0.  0.
<mgrwt>
<rscale>  0 0.40528064E+03</rscale>
<asrwt>0</asrwt>
<pdfrwt beam="1">  1        2 0.11313842E+00 0.40528064E+03</pdfrwt>
<pdfrwt beam="2">  1       -2 0.85904299E-02 0.40528064E+03</pdfrwt>
<totfact> 0.33526873E+03</totfact>
</mgrwt>
</event>
<event>
 4    1  0.1573232E-005  0.5257827E+03  0.7818608E-02  0.1007260E+00
          2   -1    0    0  501    0  0.00000000000E+00  0.00000000000E+00  0.10933550315E+04  0.10933550315E+04  0.25500000000E-02 0.  1.
         -2   -1    0    0    0  501 -0.00000000000E+00 -0.00000000000E+00 -0.63210822637E+02  0.63210822688E+02  0.25500000000E-02 0. -1.
    5000001    1    1    2    0    0  0.13223488051E+03 -0.14561423420E+03  0.39069057656E+03  0.46749726784E+03  0.16500000000E+03 0.  0.
   -5000001    1    1    2    0    0 -0.13223488051E+03  0.14561423420E+03  0.63945363228E+03  0.68906858633E+03  0.16500000000E+03 0.  0.
<mgrwt>
<rscale>  0 0.52578273E+03</rscale>
<asrwt>0</asrwt>
<pdfrwt beam="1">  1        2 0.16820846E+00 0.52578273E+03</pdfrwt>
<pdfrwt beam="2">  1       -2 0.97247421E-02 0.52578273E+03</pdfrwt>
<totfact> 0.15941457E+03</totfact>
</mgrwt>
</event>
<event>
 4    1  0.1573232E-005  0.5438722E+03  0.7818608E-02  0.1002922E+00
         -2   -1    0    0    0  501 -0.00000000000E+00  0.00000000000E+00  0.85566581656E+02  0.85566581694E+02  0.25500000000E-02 0. -1.
          2   -1    0    0  501    0  0.00000000000E+00 -0.00000000000E+00 -0.86423036583E+03  0.86423036583E+03  0.25500000000E-02 0.  1.
    5000001    1    1    2    0    0 -0.19866433287E+03  0.62301242263E+02 -0.49079042613E+03  0.55807634274E+03  0.16500000000E+03 0.  0.
   -5000001    1    1    2    0    0  0.19866433287E+03 -0.62301242263E+02 -0.28787335804E+03  0.39172060479E+03  0.16500000000E+03 0.  0.
<mgrwt>
<rscale>  0 0.54387218E+03</rscale>
<asrwt>0</asrwt>
<pdfrwt beam="1">  1        2 0.13295851E+00 0.54387218E+03</pdfrwt>
<pdfrwt beam="2">  1       -2 0.13164090E-01 0.54387218E+03</pdfrwt>
<totfact> 0.13606610E+03</totfact>
</mgrwt>
</event>
<event>
 4    1  0.1573232E-005  0.6131103E+03  0.7818608E-02  0.9878574E-01
         -2   -1    0    0    0  501 -0.00000000000E+00  0.00000000000E+00  0.65426569107E+02  0.65426569157E+02  0.25500000000E-02 0. -1.
          2   -1    0    0  501    0  0.00000000000E+00 -0.00000000000E+00 -0.14363591951E+04  0.14363591951E+04  0.25500000000E-02 0.  1.
    5000001    1    1    2    0    0 -0.22990352606E+02  0.25729551677E+03 -0.67410472065E+03  0.74052124457E+03  0.16500000000E+03 0.  0.
   -5000001    1    1    2    0    0  0.22990352606E+02 -0.25729551677E+03 -0.69682790531E+03  0.76126451966E+03  0.16500000000E+03 0.  0.
<mgrwt>
<rscale>  0 0.61311028E+03</rscale>
<asrwt>0</asrwt>
<pdfrwt beam="1">  1        2 0.22097831E+00 0.61311028E+03</pdfrwt>
<pdfrwt beam="2">  1       -2 0.10065627E-01 0.61311028E+03</pdfrwt>
<totfact> 0.95255223E+02</totfact>
</mgrwt>
</event>
<event>
 4    1  0.1573232E-005  0.6506897E+03  0.7818608E-02  0.9805486E-01
          2   -1    0    0  501    0  0.00000000000E+00  0.00000000000E+00  0.12817879550E+04  0.12817879550E+04  0.25500000000E-02 0.  1.
         -2   -1    0    0    0  501 -0.00000000000E+00 -0.00000000000E+00 -0.82579385185E+02  0.82579385224E+02  0.25500000000E-02 0. -1.
    5000001    1    1    2    0    0  0.24034841614E+03 -0.82080189827E+02  0.35044860439E+03  0.46318866893E+03  0.16500000000E+03 0.  0.
   -5000001    1    1    2    0    0 -0.24034841614E+03  0.82080189827E+02  0.84875996542E+03  0.90117867129E+03  0.16500000000E+03 0.  0.
<mgrwt>
<rscale>  0 0.65068967E+03</rscale>
<asrwt>0</asrwt>
<pdfrwt beam="1">  1        2 0.19719815E+00 0.65068967E+03</pdfrwt>
<pdfrwt beam="2">  1       -2 0.12704520E-01 0.65068967E+03</pdfrwt>
<totfact> 0.79408279E+02</totfact>
</mgrwt>
</event>
<event>
 4    1  0.1573232E-005  0.6960791E+03  0.7818608E-02  0.9723961E-01
          2   -1    0    0  501    0  0.00000000000E+00  0.00000000000E+00  0.45775967189E+03  0.45775967190E+03  0.25500000000E-02 0.  1.
         -2   -1    0    0    0  501 -0.00000000000E+00 -0.00000000000E+00 -0.26461815284E+03  0.26461815285E+03  0.25500000000E-02 0. -1.
    5000001    1    1    2    0    0  0.18734814679E+03 -0.23908835605E+03  0.54493256234E+02  0.34993868760E+03  0.16500000000E+03 0.  0.
   -5000001    1    1    2    0    0 -0.18734814679E+03  0.23908835605E+03  0.13864826282E+03  0.37243913716E+03  0.16500000000E+03 0.  0.
<mgrwt>
<rscale>  0 0.69607907E+03</rscale>
<asrwt>0</asrwt>
<pdfrwt beam="1">  1        2 0.70424565E-01 0.69607907E+03</pdfrwt>
<pdfrwt beam="2">  1       -2 0.40710485E-01 0.69607907E+03</pdfrwt>
<totfact> 0.39279530E+02</totfact>
</mgrwt>
</event>
<event>
 4    1  0.1573232E-005  0.3964219E+03  0.7818608E-02  0.1045026E+00
         -2   -1    0    0    0  501 -0.00000000000E+00  0.00000000000E+00  0.11605120302E+02  0.11605120582E+02  0.25500000000E-02 0. -1.
          2   -1    0    0  501    0  0.00000000000E+00 -0.00000000000E+00 -0.33853668914E+04  0.33853668914E+04  0.25500000000E-02 0.  1.
    5000001    1    1    2    0    0 -0.79092488601E+02 -0.73358358756E+02 -0.15101167122E+04  0.15229295962E+04  0.16500000000E+03 0.  0.
   -5000001    1    1    2    0    0  0.79092488601E+02  0.73358358756E+02 -0.18636450589E+04  0.18740424158E+04  0.16500000000E+03 0.  0.
<mgrwt>
<rscale>  0 0.39642195E+03</rscale>
<asrwt>0</asrwt>
<pdfrwt beam="1">  1        2 0.52082489E+00 0.39642195E+03</pdfrwt>
<pdfrwt beam="2">  1       -2 0.17854058E-02 0.39642195E+03</pdfrwt>
<totfact> 0.10784114E+03</totfact>
</mgrwt>
</event>
<event>
 4    1  0.1573232E-005  0.6388137E+03  0.7818608E-02  0.9827999E-01
          2   -1    0    0  501    0  0.00000000000E+00  0.00000000000E+00  0.25382986621E+03  0.25382986622E+03  0.25500000000E-02 0.  1.
         -2   -1    0    0    0  501 -0.00000000000E+00 -0.00000000000E+00 -0.40192562029E+03  0.40192562030E+03  0.25500000000E-02 0. -1.
    5000001    1    1    2    0    0  0.25449552119E+03  0.69714230535E+02 -0.25479834432E+00  0.31121232168E+03  0.16500000000E+03 0.  0.
   -5000001    1    1    2    0    0 -0.25449552119E+03 -0.69714230535E+02 -0.14784095574E+03  0.34454316484E+03  0.16500000000E+03 0.  0.
<mgrwt>
<rscale>  0 0.63881367E+03</rscale>
<asrwt>0</asrwt>
<pdfrwt beam="1">  1        2 0.39050749E-01 0.63881367E+03</pdfrwt>
<pdfrwt beam="2">  1       -2 0.61834711E-01 0.63881367E+03</pdfrwt>
<totfact> 0.32465227E+02</totfact>
</mgrwt>
</event>
<event>
 4    1  0.1573232E-005  0.8947219E+03  0.7818608E-02  0.9432204E-01
         -2   -1    0    0    0  501 -0.00000000000E+00  0.00000000000E+00  0.29784115645E+03  0.29784115646E+03  0.25500000000E-02 0. -1.
          2   -1    0    0  501    0  0.00000000000E+00 -0.00000000000E+00 -0.67194139562E+03  0.67194139562E+03  0.25500000000E-02 0.  1.
    5000001    1    1    2    0    0  0.25957404799E+02 -0.35771342441E+03  0.41016273133E+02  0.39691310828E+03  0.16500000000E+03 0.  0.
   -5000001    1    1    2    0    0 -0.25957404799E+02  0.35771342441E+03 -0.41511651230E+03  0.57286944381E+03  0.16500000000E+03 0.  0.
<mgrwt>
<rscale>  0 0.89472186E+03</rscale>
<asrwt>0</asrwt>
<pdfrwt beam="1">  1        2 0.10337560E+00 0.89472186E+03</pdfrwt>
<pdfrwt beam="2">  1       -2 0.45821716E-01 0.89472186E+03</pdfrwt>
<totfact> 0.19545071E+02</totfact>
</mgrwt>
</event>
<event>
 4    1  0.1573232E-005  0.7216474E+03  0.7818608E-02  0.9680912E-01
         -2   -1    0    0    0  501 -0.00000000000E+00  0.00000000000E+00  0.39473579177E+03  0.39473579178E+03  0.25500000000E-02 0. -1.
          2   -1    0    0  501    0  0.00000000000E+00 -0.00000000000E+00 -0.32982502675E+03  0.32982502676E+03  0.25500000000E-02 0.  1.
    5000001    1    1    2    0    0  0.27658312747E+03  0.15350814742E+03 -0.21667393557E+02  0.35743174687E+03  0.16500000000E+03 0.  0.
   -5000001    1    1    2    0    0 -0.27658312747E+03 -0.15350814742E+03  0.86578158581E+02  0.36712907167E+03  0.16500000000E+03 0.  0.
<mgrwt>
<rscale>  0 0.72164740E+03</rscale>
<asrwt>0</asrwt>
<pdfrwt beam="1">  1        2 0.50742312E-01 0.72164740E+03</pdfrwt>
<pdfrwt beam="2">  1       -2 0.60728584E-01 0.72164740E+03</pdfrwt>
<totfact> 0.25168711E+02</totfact>
</mgrwt>
</event>
<event>
 4    1  0.1573232E-005  0.8003134E+03  0.7818608E-02  0.9559564E-01
          2   -1    0    0  501    0  0.00000000000E+00  0.00000000000E+00  0.64341158771E+03  0.64341158772E+03  0.25500000000E-02 0.  1.
         -2   -1    0    0    0  501 -0.00000000000E+00 -0.00000000000E+00 -0.24886928658E+03  0.24886928659E+03  0.25500000000E-02 0. -1.
    5000001    1    1    2    0    0  0.52388754590E+02  0.18763027219E+03  0.54082161707E+03  0.59804909676E+03  0.16500000000E+03 0.  0.
   -5000001    1    1    2    0    0 -0.52388754590E+02 -0.18763027219E+03 -0.14627931593E+03  0.29423177755E+03  0.16500000000E+03 0.  0.
<mgrwt>
<rscale>  0 0.80031340E+03</rscale>
<asrwt>0</asrwt>
<pdfrwt beam="1">  1        2 0.98986398E-01 0.80031340E+03</pdfrwt>
<pdfrwt beam="2">  1       -2 0.38287583E-01 0.80031340E+03</pdfrwt>
<totfact> 0.29497445E+02</totfact>
</mgrwt>
</event>
<event>
 4    1  0.1573232E-005  0.4390670E+03  0.7818608E-02  0.1031033E+00
          2   -1    0    0  501    0  0.00000000000E+00  0.00000000000E+00  0.13891794388E+04  0.13891794388E+04  0.25500000000E-02 0.  1.
         -2   -1    0    0    0  501 -0.00000000000E+00 -0.00000000000E+00 -0.34693114837E+02  0.34693114931E+02  0.25500000000E-02 0. -1.
    5000001    1    1    2    0    0  0.78305640270E+02 -0.33439508919E+02  0.10570975655E+04  0.10732801298E+04  0.16500000000E+03 0.  0.
   -5000001    1    1    2    0    0 -0.78305640270E+02  0.33439508919E+02  0.29738875847E+03  0.35059242393E+03  0.16500000000E+03 0.  0.
<mgrwt>
<rscale>  0 0.43906702E+03</rscale>
<asrwt>0</asrwt>
<pdfrwt beam="1">  1        2 0.21371989E+00 0.43906702E+03</pdfrwt>
<pdfrwt beam="2">  1       -2 0.53374028E-02 0.43906702E+03</pdfrwt>
<totfact> 0.27751344E+03</totfact>
</mgrwt>
</event>
<event>
 4    1  0.1573232E-005  0.8129763E+03  0.7818608E-02  0.9541422E-01
          2   -1    0    0  501    0  0.00000000000E+00  0.00000000000E+00  0.12103613940E+04  0.12103613940E+04  0.25500000000E-02 0.  1.
         -2   -1    0    0    0  501 -0.00000000000E+00 -0.00000000000E+00 -0.13651510645E+03  0.13651510647E+03  0.25500000000E-02 0. -1.
    5000001    1    1    2    0    0 -0.19254129312E+02  0.34905117833E+03  0.74517109845E+03  0.83947150788E+03  0.16500000000E+03 0.  0.
   -5000001    1    1    2    0    0  0.19254129312E+02 -0.34905117833E+03  0.32867518913E+03  0.50740499262E+03  0.16500000000E+03 0.  0.
<mgrwt>
<rscale>  0 0.81297630E+03</rscale>
<asrwt>0</asrwt>
<pdfrwt beam="1">  1        2 0.18620944E+00 0.81297630E+03</pdfrwt>
<pdfrwt beam="2">  1       -2 0.21002325E-01 0.81297630E+03</pdfrwt>
<totfact> 0.36761400E+02</totfact>
</mgrwt>
</event>
<event>
 4    1  0.1573232E-005  0.2842616E+04  0.7818608E-02  0.8290159E-01
          2   -1    0    0  501    0  0.00000000000E+00  0.00000000000E+00  0.12987998254E+04  0.12987998254E+04  0.25500000000E-02 0.  1.
         -2   -1    0    0    0  501 -0.00000000000E+00 -0.00000000000E+00 -0.15553715892E+04  0.15553715892E+04  0.25500000000E-02 0. -1.
    5000001    1    1    2    0    0 -0.35916250695E+03  0.71383006409E+03 -0.12967779341E+04  0.15321256728E+04  0.16500000000E+03 0.  0.
   -5000001    1    1    2    0    0  0.35916250695E+03 -0.71383006409E+03  0.10402061703E+04  0.13220457418E+04  0.16500000000E+03 0.  0.
<mgrwt>
<rscale>  0 0.28426159E+04</rscale>
<asrwt>0</asrwt>
<pdfrwt beam="1">  1        2 0.19981536E+00 0.28426159E+04</pdfrwt>
<pdfrwt beam="2">  1       -2 0.23928793E+00 0.28426159E+04</pdfrwt>
<totfact> 0.10744496E+00</totfact>
</mgrwt>
</event>
<event>
 4    1  0.1573232E-005  0.4913993E+03  0.7818608E-02  0.1016049E+00
          2   -1    0    0  501    0  0.00000000000E+00  0.00000000000E+00  0.16490391298E+03  0.16490391300E+03  0.25500000000E-02 0.  1.
         -2   -1    0    0    0  501 -0.00000000000E+00 -0.00000000000E+00 -0.36608175175E+03  0.36608175176E+03  0.25500000000E-02 0. -1.
    5000001    1    1    2    0    0  0.15702322749E+03  0.89861602509E+02 -0.78658326263E+02  0.25718385227E+03  0.16500000000E+03 0.  0.
   -5000001    1    1    2    0    0 -0.15702322749E+03 -0.89861602509E+02 -0.12251951251E+03  0.27380181249E+03  0.16500000000E+03 0.  0.
<mgrwt>
<rscale>  0 0.49139928E+03</rscale>
<asrwt>0</asrwt>
<pdfrwt beam="1">  1        2 0.25369833E-01 0.49139928E+03</pdfrwt>
<pdfrwt beam="2">  1       -2 0.56320269E-01 0.49139928E+03</pdfrwt>
<totfact> 0.64161580E+02</totfact>
</mgrwt>
</event>
<event>
 4    1  0.1573232E-005  0.4643527E+03  0.7818608E-02  0.1023526E+00
          2   -1    0    0  501    0  0.00000000000E+00  0.00000000000E+00  0.36818233050E+04  0.36818233050E+04  0.25500000000E-02 0.  1.
         -2   -1    0    0    0  501 -0.00000000000E+00 -0.00000000000E+00 -0.14641078019E+02  0.14641078241E+02  0.25500000000E-02 0. -1.
    5000001    1    1    2    0    0  0.33457606847E+02  0.12482072640E+03  0.10382915861E+04  0.10592327615E+04  0.16500000000E+03 0.  0.
   -5000001    1    1    2    0    0 -0.33457606847E+02 -0.12482072640E+03  0.26288906408E+04  0.26372316217E+04  0.16500000000E+03 0.  0.
<mgrwt>
<rscale>  0 0.46435272E+03</rscale>
<asrwt>0</asrwt>
<pdfrwt beam="1">  1        2 0.56643436E+00 0.46435272E+03</pdfrwt>
<pdfrwt beam="2">  1       -2 0.22524735E-02 0.46435272E+03</pdfrwt>
<totfact> 0.47514318E+02</totfact>
</mgrwt>
</event>
<event>
 4    1  0.1573232E-005  0.4418543E+03  0.7818608E-02  0.1030179E+00
          2   -1    0    0  501    0  0.00000000000E+00  0.00000000000E+00  0.75586911292E+02  0.75586911335E+02  0.25500000000E-02 0.  1.
         -2   -1    0    0    0  501 -0.00000000000E+00 -0.00000000000E+00 -0.64573094175E+03  0.64573094175E+03  0.25500000000E-02 0. -1.
    5000001    1    1    2    0    0  0.92229678632E+02  0.98333151879E+02 -0.38037418746E+03  0.43598766595E+03  0.16500000000E+03 0.  0.
   -5000001    1    1    2    0    0 -0.92229678632E+02 -0.98333151879E+02 -0.18976984300E+03  0.28533018714E+03  0.16500000000E+03 0.  0.
<mgrwt>
<rscale>  0 0.44185431E+03</rscale>
<asrwt>0</asrwt>
<pdfrwt beam="1">  1        2 0.11628756E-01 0.44185431E+03</pdfrwt>
<pdfrwt beam="2">  1       -2 0.99343218E-01 0.44185431E+03</pdfrwt>
<totfact> 0.46495472E+02</totfact>
</mgrwt>
</event>
<event>
 4    1  0.1573232E-005  0.4921895E+03  0.7818608E-02  0.1015838E+00
          2   -1    0    0  501    0  0.00000000000E+00  0.00000000000E+00  0.33626912389E+03  0.33626912390E+03  0.25500000000E-02 0.  1.
         -2   -1    0    0    0  501 -0.00000000000E+00 -0.00000000000E+00 -0.18010167124E+03  0.18010167126E+03  0.25500000000E-02 0. -1.
    5000001    1    1    2    0    0 -0.17637938376E+03  0.22165574852E+02  0.12180402732E+03  0.27140784955E+03  0.16500000000E+03 0.  0.
   -5000001    1    1    2    0    0  0.17637938376E+03 -0.22165574852E+02  0.34363425321E+02  0.24496294561E+03  0.16500000000E+03 0.  0.
<mgrwt>
<rscale>  0 0.49218952E+03</rscale>
<asrwt>0</asrwt>
<pdfrwt beam="1">  1        2 0.51733710E-01 0.49218952E+03</pdfrwt>
<pdfrwt beam="2">  1       -2 0.27707950E-01 0.49218952E+03</pdfrwt>
<totfact> 0.11480821E+03</totfact>
</mgrwt>
</event>
<event>
 4    1  0.1573232E-005  0.4715356E+03  0.7818608E-02  0.1021488E+00
         -2   -1    0    0    0  501 -0.00000000000E+00  0.00000000000E+00  0.68599024716E+02  0.68599024763E+02  0.25500000000E-02 0.  1.
          2   -1    0    0  501    0  0.00000000000E+00 -0.00000000000E+00 -0.81030981075E+03  0.81030981075E+03  0.25500000000E-02 0. -1.
    5000001    1    1    2    0    0  0.13490776623E+03 -0.92722662173E+02 -0.44456582989E+03  0.50165862355E+03  0.16500000000E+03 0.  0.
   -5000001    1    1    2    0    0 -0.13490776623E+03  0.92722662173E+02 -0.29714495614E+03  0.37725021197E+03  0.16500000000E+03 0.  0.
<mgrwt>
<rscale>  0 0.47153563E+03</rscale>
<asrwt>0</asrwt>
<pdfrwt beam="1">  1        2 0.12466304E+00 0.47153563E+03</pdfrwt>
<pdfrwt beam="2">  1       -2 0.10553697E-01 0.47153563E+03</pdfrwt>
<totfact> 0.21304901E+03</totfact>
</mgrwt>
</event>
<event>
 4    1  0.1573232E-005  0.5283914E+03  0.7818608E-02  0.1006623E+00
          2   -1    0    0  501    0  0.00000000000E+00  0.00000000000E+00  0.17134963628E+03  0.17134963630E+03  0.25500000000E-02 0.  1.
         -2   -1    0    0    0  501 -0.00000000000E+00 -0.00000000000E+00 -0.40735057668E+03  0.40735057669E+03  0.25500000000E-02 0. -1.
    5000001    1    1    2    0    0 -0.49093887680E+02  0.16281952065E+03 -0.24597611033E+03  0.34154011911E+03  0.16500000000E+03 0.  0.
   -5000001    1    1    2    0    0  0.49093887680E+02 -0.16281952065E+03  0.99751699328E+01  0.23716009388E+03  0.16500000000E+03 0.  0.
<mgrwt>
<rscale>  0 0.52839142E+03</rscale>
<asrwt>0</asrwt>
<pdfrwt beam="1">  1        2 0.26361483E-01 0.52839142E+03</pdfrwt>
<pdfrwt beam="2">  1       -2 0.62669319E-01 0.52839142E+03</pdfrwt>
<totfact> 0.49102988E+02</totfact>
</mgrwt>
</event>
<event>
 4    1  0.1573232E-005  0.6937628E+03  0.7818608E-02  0.9727959E-01
         -2   -1    0    0    0  501 -0.00000000000E+00  0.00000000000E+00  0.10751934595E+04  0.10751934595E+04  0.25500000000E-02 0. -1.
          2   -1    0    0  501    0  0.00000000000E+00 -0.00000000000E+00 -0.11191167183E+03  0.11191167186E+03  0.25500000000E-02 0.  1.
    5000001    1    1    2    0    0 -0.16488382900E+03  0.11037493163E+03  0.87828069086E+03  0.91540770946E+03  0.16500000000E+03 0.  0.
   -5000001    1    1    2    0    0  0.16488382900E+03 -0.11037493163E+03  0.85001096784E+02  0.27169742187E+03  0.16500000000E+03 0.  0.
<mgrwt>
<rscale>  0 0.69376278E+03</rscale>
<asrwt>0</asrwt>
<pdfrwt beam="1">  1        2 0.17217179E-01 0.69376278E+03</pdfrwt>
<pdfrwt beam="2">  1       -2 0.16541439E+00 0.69376278E+03</pdfrwt>
<totfact> 0.79242229E+01</totfact>
</mgrwt>
</event>
<event>
 4    1  0.1573232E-005  0.5693710E+03  0.7818608E-02  0.9971072E-01
          2   -1    0    0  501    0  0.00000000000E+00  0.00000000000E+00  0.54138015111E+03  0.54138015112E+03  0.25500000000E-02 0.  1.
         -2   -1    0    0    0  501 -0.00000000000E+00 -0.00000000000E+00 -0.14970223804E+03  0.14970223806E+03  0.25500000000E-02 0. -1.
    5000001    1    1    2    0    0 -0.19819772155E+03 -0.61019829133E+02  0.69612885646E+02  0.27400129603E+03  0.16500000000E+03 0.  0.
   -5000001    1    1    2    0    0  0.19819772155E+03  0.61019829133E+02  0.32206502742E+03  0.41708109315E+03  0.16500000000E+03 0.  0.
<mgrwt>
<rscale>  0 0.56937095E+03</rscale>
<asrwt>0</asrwt>
<pdfrwt beam="1">  1        2 0.83289255E-01 0.56937095E+03</pdfrwt>
<pdfrwt beam="2">  1       -2 0.23031113E-01 0.56937095E+03</pdfrwt>
<totfact> 0.93540519E+02</totfact>
</mgrwt>
</event>
<event>
 4    1  0.1573232E-005  0.5462867E+03  0.7818608E-02  0.1002357E+00
         -2   -1    0    0    0  501 -0.00000000000E+00  0.00000000000E+00  0.16815519013E+03  0.16815519015E+03  0.25500000000E-02 0. -1.
          2   -1    0    0  501    0  0.00000000000E+00 -0.00000000000E+00 -0.44368115860E+03  0.44368115860E+03  0.25500000000E-02 0.  1.
    5000001    1    1    2    0    0  0.10675672651E+02  0.14777431075E+03  0.40843403493E+02  0.22548702959E+03  0.16500000000E+03 0.  0.
   -5000001    1    1    2    0    0 -0.10675672651E+02 -0.14777431075E+03 -0.31636937196E+03  0.38634931916E+03  0.16500000000E+03 0.  0.
<mgrwt>
<rscale>  0 0.54628670E+03</rscale>
<asrwt>0</asrwt>
<pdfrwt beam="1">  1        2 0.68258639E-01 0.54628670E+03</pdfrwt>
<pdfrwt beam="2">  1       -2 0.25870029E-01 0.54628670E+03</pdfrwt>
<totfact> 0.95493964E+02</totfact>
</mgrwt>
</event>
<event>
 4    1  0.1573232E-005  0.4484932E+03  0.7818608E-02  0.1028172E+00
          2   -1    0    0  501    0  0.00000000000E+00  0.00000000000E+00  0.14653134288E+03  0.14653134290E+03  0.25500000000E-02 0.  1.
         -2   -1    0    0    0  501 -0.00000000000E+00 -0.00000000000E+00 -0.34317932398E+03  0.34317932399E+03  0.25500000000E-02 0. -1.
    5000001    1    1    2    0    0 -0.77719871556E+02  0.12217487611E+03 -0.14829505264E+03  0.26492168923E+03  0.16500000000E+03 0.  0.
   -5000001    1    1    2    0    0  0.77719871556E+02 -0.12217487611E+03 -0.48352928460E+02  0.22478897766E+03  0.16500000000E+03 0.  0.
<mgrwt>
<rscale>  0 0.44849315E+03</rscale>
<asrwt>0</asrwt>
<pdfrwt beam="1">  1        2 0.22543284E-01 0.44849315E+03</pdfrwt>
<pdfrwt beam="2">  1       -2 0.52796819E-01 0.44849315E+03</pdfrwt>
<totfact> 0.83842929E+02</totfact>
</mgrwt>
</event>
<event>
 4    1  0.1573232E-005  0.5446469E+03  0.7818608E-02  0.1002741E+00
         -2   -1    0    0    0  501 -0.00000000000E+00  0.00000000000E+00  0.28630060366E+02  0.28630060480E+02  0.25500000000E-02 0. -1.
          2   -1    0    0  501    0  0.00000000000E+00 -0.00000000000E+00 -0.25902869342E+04  0.25902869342E+04  0.25500000000E-02 0.  1.
    5000001    1    1    2    0    0  0.76564599979E+02  0.19216521038E+03 -0.97123388097E+03  0.10066329309E+04  0.16500000000E+03 0.  0.
   -5000001    1    1    2    0    0 -0.76564599979E+02 -0.19216521038E+03 -0.15904229928E+04  0.16122840637E+04  0.16500000000E+03 0.  0.
<mgrwt>
<rscale>  0 0.54464694E+03</rscale>
<asrwt>0</asrwt>
<pdfrwt beam="1">  1        2 0.39850550E+00 0.54464694E+03</pdfrwt>
<pdfrwt beam="2">  1       -2 0.44046267E-02 0.54464694E+03</pdfrwt>
<totfact> 0.82076483E+02</totfact>
</mgrwt>
</event>
<event>
 4    1  0.1573232E-005  0.5885752E+03  0.7818608E-02  0.9929397E-01
          2   -1    0    0  501    0  0.00000000000E+00  0.00000000000E+00  0.44060299674E+04  0.44060299674E+04  0.25500000000E-02 0.  1.
         -2   -1    0    0    0  501 -0.00000000000E+00 -0.00000000000E+00 -0.19656059626E+02  0.19656059792E+02  0.25500000000E-02 0. -1.
    5000001    1    1    2    0    0 -0.93864480530E+02  0.21770453410E+03  0.17695358626E+04  0.17929550954E+04  0.16500000000E+03 0.  0.
   -5000001    1    1    2    0    0  0.93864480530E+02 -0.21770453410E+03  0.26168380451E+04  0.26327309318E+04  0.16500000000E+03 0.  0.
<mgrwt>
<rscale>  0 0.58857519E+03</rscale>
<asrwt>0</asrwt>
<pdfrwt beam="1">  1        2 0.67785138E+00 0.58857519E+03</pdfrwt>
<pdfrwt beam="2">  1       -2 0.30240064E-02 0.58857519E+03</pdfrwt>
<totfact> 0.78701996E+01</totfact>
</mgrwt>
</event>
<event>
 4    1  0.1573232E-005  0.4825831E+03  0.7818608E-02  0.1018428E+00
          2   -1    0    0  501    0  0.00000000000E+00  0.00000000000E+00  0.17538282632E+03  0.17538282633E+03  0.25500000000E-02 0.  1.
         -2   -1    0    0    0  501 -0.00000000000E+00 -0.00000000000E+00 -0.33196869954E+03  0.33196869955E+03  0.25500000000E-02 0. -1.
    5000001    1    1    2    0    0  0.87042559040E+02  0.14486766810E+03 -0.13015597333E+03  0.26968245353E+03  0.16500000000E+03 0.  0.
   -5000001    1    1    2    0    0 -0.87042559040E+02 -0.14486766810E+03 -0.26429899887E+02  0.23766907235E+03  0.16500000000E+03 0.  0.
<mgrwt>
<rscale>  0 0.48258309E+03</rscale>
<asrwt>0</asrwt>
<pdfrwt beam="1">  1        2 0.26981973E-01 0.48258309E+03</pdfrwt>
<pdfrwt beam="2">  1       -2 0.51072108E-01 0.48258309E+03</pdfrwt>
<totfact> 0.73110878E+02</totfact>
</mgrwt>
</event>
<event>
 4    1  0.1573232E-005  0.9049257E+03  0.7818608E-02  0.9419445E-01
         -2   -1    0    0    0  501 -0.00000000000E+00  0.00000000000E+00  0.10856630808E+03  0.10856630811E+03  0.25500000000E-02 0.  1.
          2   -1    0    0  501    0  0.00000000000E+00 -0.00000000000E+00 -0.18856921424E+04  0.18856921424E+04  0.25500000000E-02 0. -1.
    5000001    1    1    2    0    0 -0.30738047128E+03 -0.28715388116E+03 -0.94059869566E+03  0.10434994067E+04  0.16500000000E+03 0.  0.
   -5000001    1    1    2    0    0  0.30738047128E+03  0.28715388116E+03 -0.83652713865E+03  0.95075904376E+03  0.16500000000E+03 0.  0.
<mgrwt>
<rscale>  0 0.90492571E+03</rscale>
<asrwt>0</asrwt>
<pdfrwt beam="1">  1        2 0.29010646E+00 0.90492571E+03</pdfrwt>
<pdfrwt beam="2">  1       -2 0.16702510E-01 0.90492571E+03</pdfrwt>
<totfact> 0.22768686E+02</totfact>
</mgrwt>
</event>
<event>
 4    1  0.1573232E-005  0.5067641E+03  0.7818608E-02  0.1012028E+00
          2   -1    0    0  501    0  0.00000000000E+00  0.00000000000E+00  0.10851157444E+04  0.10851157444E+04  0.25500000000E-02 0.  1.
         -2   -1    0    0    0  501 -0.00000000000E+00 -0.00000000000E+00 -0.59166471738E+02  0.59166471793E+02  0.25500000000E-02 0. -1.
    5000001    1    1    2    0    0  0.61080497314E+02  0.17261995890E+03  0.64558376494E+03  0.69103681155E+03  0.16500000000E+03 0.  0.
   -5000001    1    1    2    0    0 -0.61080497314E+02 -0.17261995890E+03  0.38036550770E+03  0.45324540462E+03  0.16500000000E+03 0.  0.
<mgrwt>
<rscale>  0 0.50676413E+03</rscale>
<asrwt>0</asrwt>
<pdfrwt beam="1">  1        2 0.16694087E+00 0.50676413E+03</pdfrwt>
<pdfrwt beam="2">  1       -2 0.91025348E-02 0.50676413E+03</pdfrwt>
<totfact> 0.17941629E+03</totfact>
</mgrwt>
</event>
<event>
 4    1  0.1573232E-005  0.5706949E+03  0.7818608E-02  0.9968142E-01
         -2   -1    0    0    0  501 -0.00000000000E+00  0.00000000000E+00  0.27344875361E+02  0.27344875480E+02  0.25500000000E-02 0. -1.
          2   -1    0    0  501    0  0.00000000000E+00 -0.00000000000E+00 -0.29776390246E+04  0.29776390246E+04  0.25500000000E-02 0.  1.
    5000001    1    1    2    0    0  0.97949624865E+02 -0.12337456722E+03 -0.57256975777E+03  0.61634125318E+03  0.16500000000E+03 0.  0.
   -5000001    1    1    2    0    0 -0.97949624865E+02  0.12337456722E+03 -0.23777243914E+04  0.23886426469E+04  0.16500000000E+03 0.  0.
<mgrwt>
<rscale>  0 0.57069490E+03</rscale>
<asrwt>0</asrwt>
<pdfrwt beam="1">  1        2 0.45809805E+00 0.57069490E+03</pdfrwt>
<pdfrwt beam="2">  1       -2 0.42069063E-02 0.57069490E+03</pdfrwt>
<totfact> 0.52138211E+02</totfact>
</mgrwt>
</event>
<event>
 4    1  0.1573232E-005  0.5625644E+03  0.7818608E-02  0.9986269E-01
          2   -1    0    0  501    0  0.00000000000E+00  0.00000000000E+00  0.36321486144E+02  0.36321486234E+02  0.25500000000E-02 0.  1.
         -2   -1    0    0    0  501 -0.00000000000E+00 -0.00000000000E+00 -0.21783162143E+04  0.21783162143E+04  0.25500000000E-02 0. -1.
    5000001    1    1    2    0    0 -0.19747515075E+03  0.71106314236E+02 -0.14196136724E+04  0.14445000941E+04  0.16500000000E+03 0.  0.
   -5000001    1    1    2    0    0  0.19747515075E+03 -0.71106314236E+02 -0.72238105582E+03  0.77013760647E+03  0.16500000000E+03 0.  0.
<mgrwt>
<rscale>  0 0.56256442E+03</rscale>
<asrwt>0</asrwt>
<pdfrwt beam="1">  1        2 0.55879227E-02 0.56256442E+03</pdfrwt>
<pdfrwt beam="2">  1       -2 0.33512547E+00 0.56256442E+03</pdfrwt>
<totfact> 0.29457140E+01</totfact>
</mgrwt>
</event>
<event>
 4    1  0.1573232E-005  0.1136241E+04  0.7818608E-02  0.9170572E-01
         -2   -1    0    0    0  501 -0.00000000000E+00  0.00000000000E+00  0.33603068588E+03  0.33603068589E+03  0.25500000000E-02 0.  1.
          2   -1    0    0  501    0  0.00000000000E+00 -0.00000000000E+00 -0.96050940689E+03  0.96050940689E+03  0.25500000000E-02 0. -1.
    5000001    1    1    2    0    0 -0.47784067118E+03 -0.20926279792E+03 -0.13763933914E+03  0.56417392115E+03  0.16500000000E+03 0.  0.
   -5000001    1    1    2    0    0  0.47784067118E+03  0.20926279792E+03 -0.48683938186E+03  0.73236617164E+03  0.16500000000E+03 0.  0.
<mgrwt>
<rscale>  0 0.11362405E+04</rscale>
<asrwt>0</asrwt>
<pdfrwt beam="1">  1        2 0.14777068E+00 0.11362405E+04</pdfrwt>
<pdfrwt beam="2">  1       -2 0.51697029E-01 0.11362405E+04</pdfrwt>
<totfact> 0.93546941E+01</totfact>
</mgrwt>
</event>
<event>
 4    1  0.1573232E-005  0.8693832E+03  0.7818608E-02  0.9464685E-01
          2   -1    0    0  501    0  0.00000000000E+00  0.00000000000E+00  0.45365618521E+03  0.45365618521E+03  0.25500000000E-02 0.  1.
         -2   -1    0    0    0  501 -0.00000000000E+00 -0.00000000000E+00 -0.41651978844E+03  0.41651978844E+03  0.25500000000E-02 0. -1.
    5000001    1    1    2    0    0 -0.15130669328E+03 -0.39792576101E+02  0.38938493740E+03  0.45091328880E+03  0.16500000000E+03 0.  0.
   -5000001    1    1    2    0    0  0.15130669328E+03  0.39792576101E+02 -0.35224854063E+03  0.41926268486E+03  0.16500000000E+03 0.  0.
<mgrwt>
<rscale>  0 0.86938318E+03</rscale>
<asrwt>0</asrwt>
<pdfrwt beam="1">  1        2 0.69793260E-01 0.86938318E+03</pdfrwt>
<pdfrwt beam="2">  1       -2 0.64079967E-01 0.86938318E+03</pdfrwt>
<totfact> 0.15593209E+02</totfact>
</mgrwt>
</event>
<event>
 4    1  0.1573232E-005  0.7879813E+03  0.7818608E-02  0.9577579E-01
          2   -1    0    0  501    0  0.00000000000E+00  0.00000000000E+00  0.64735475610E+03  0.64735475611E+03  0.25500000000E-02 0.  1.
         -2   -1    0    0    0  501 -0.00000000000E+00 -0.00000000000E+00 -0.23978910361E+03  0.23978910363E+03  0.25500000000E-02 0. -1.
    5000001    1    1    2    0    0 -0.19057249838E+03 -0.84388532175E+02 -0.12361193798E+03  0.29316243400E+03  0.16500000000E+03 0.  0.
   -5000001    1    1    2    0    0  0.19057249838E+03  0.84388532175E+02  0.53117759046E+03  0.59398142573E+03  0.16500000000E+03 0.  0.
<mgrwt>
<rscale>  0 0.78798126E+03</rscale>
<asrwt>0</asrwt>
<pdfrwt beam="1">  1        2 0.99593039E-01 0.78798126E+03</pdfrwt>
<pdfrwt beam="2">  1       -2 0.36890631E-01 0.78798126E+03</pdfrwt>
<totfact> 0.31466957E+02</totfact>
</mgrwt>
</event>
<event>
 4    1  0.1573232E-005  0.6017974E+03  0.7818608E-02  0.9901684E-01
         -2   -1    0    0    0  501 -0.00000000000E+00  0.00000000000E+00  0.46960400592E+03  0.46960400593E+03  0.25500000000E-02 0. -1.
          2   -1    0    0  501    0  0.00000000000E+00 -0.00000000000E+00 -0.19280081801E+03  0.19280081802E+03  0.25500000000E-02 0.  1.
    5000001    1    1    2    0    0 -0.52566614488E+02 -0.22721368444E+03  0.24239241568E+03  0.37465769781E+03  0.16500000000E+03 0.  0.
   -5000001    1    1    2    0    0  0.52566614488E+02  0.22721368444E+03  0.34410772237E+02  0.28774712614E+03  0.16500000000E+03 0.  0.
<mgrwt>
<rscale>  0 0.60179743E+03</rscale>
<asrwt>0</asrwt>
<pdfrwt beam="1">  1        2 0.29661665E-01 0.60179743E+03</pdfrwt>
<pdfrwt beam="2">  1       -2 0.72246770E-01 0.60179743E+03</pdfrwt>
<totfact> 0.31597201E+02</totfact>
</mgrwt>
</event>
<event>
 4    1  0.1573232E-005  0.4318024E+03  0.7818608E-02  0.1033292E+00
         -2   -1    0    0    0  501 -0.00000000000E+00  0.00000000000E+00  0.10396203614E+03  0.10396203617E+03  0.25500000000E-02 0. -1.
          2   -1    0    0  501    0  0.00000000000E+00 -0.00000000000E+00 -0.44836868078E+03  0.44836868078E+03  0.25500000000E-02 0.  1.
    5000001    1    1    2    0    0 -0.93787436313E+02 -0.27714654256E+02 -0.45420225677E+02  0.19710956895E+03  0.16500000000E+03 0.  0.
   -5000001    1    1    2    0    0  0.93787436313E+02  0.27714654256E+02 -0.29898641896E+03  0.35522114801E+03  0.16500000000E+03 0.  0.
<mgrwt>
<rscale>  0 0.43180237E+03</rscale>
<asrwt>0</asrwt>
<pdfrwt beam="1">  1        2 0.68979796E-01 0.43180237E+03</pdfrwt>
<pdfrwt beam="2">  1       -2 0.15994160E-01 0.43180237E+03</pdfrwt>
<totfact> 0.21771768E+03</totfact>
</mgrwt>
</event>
<event>
 4    1  0.1573232E-005  0.3581383E+03  0.7818608E-02  0.1059323E+00
          2   -1    0    0  501    0  0.00000000000E+00  0.00000000000E+00  0.29248232034E+04  0.29248232034E+04  0.25500000000E-02 0.  1.
         -2   -1    0    0    0  501 -0.00000000000E+00 -0.00000000000E+00 -0.10963317886E+02  0.10963318183E+02  0.25500000000E-02 0. -1.
    5000001    1    1    2    0    0 -0.40908153064E+02  0.37037045536E+02  0.11095761228E+04  0.11231337374E+04  0.16500000000E+03 0.  0.
   -5000001    1    1    2    0    0  0.40908153064E+02 -0.37037045536E+02  0.18042837627E+04  0.18126527842E+04  0.16500000000E+03 0.  0.
<mgrwt>
<rscale>  0 0.35813834E+03</rscale>
<asrwt>0</asrwt>
<pdfrwt beam="1">  1        2 0.44997339E+00 0.35813834E+03</pdfrwt>
<pdfrwt beam="2">  1       -2 0.16866621E-02 0.35813834E+03</pdfrwt>
<totfact> 0.22716725E+03</totfact>
</mgrwt>
</event>
<event>
 4    1  0.1573232E-005  0.5337972E+03  0.7818608E-02  0.1005315E+00
         -2   -1    0    0    0  501 -0.00000000000E+00  0.00000000000E+00  0.14126541208E+03  0.14126541210E+03  0.25500000000E-02 0. -1.
          2   -1    0    0  501    0  0.00000000000E+00 -0.00000000000E+00 -0.50426257873E+03  0.50426257874E+03  0.25500000000E-02 0.  1.
    5000001    1    1    2    0    0 -0.11198345732E+03 -0.15974140761E+03 -0.88199078998E+02  0.27029925926E+03  0.16500000000E+03 0.  0.
   -5000001    1    1    2    0    0  0.11198345732E+03  0.15974140761E+03 -0.27479808766E+03  0.37522873158E+03  0.16500000000E+03 0.  0.
<mgrwt>
<rscale>  0 0.53379719E+03</rscale>
<asrwt>0</asrwt>
<pdfrwt beam="1">  1        2 0.77578857E-01 0.53379719E+03</pdfrwt>
<pdfrwt beam="2">  1       -2 0.21733141E-01 0.53379719E+03</pdfrwt>
<totfact> 0.11255713E+03</totfact>
</mgrwt>
</event>
<event>
 4    1  0.1573232E-005  0.4860633E+03  0.7818608E-02  0.1017482E+00
          2   -1    0    0  501    0  0.00000000000E+00  0.00000000000E+00  0.97844391995E+03  0.97844391996E+03  0.25500000000E-02 0.  1.
         -2   -1    0    0    0  501 -0.00000000000E+00 -0.00000000000E+00 -0.60365622951E+02  0.60365623005E+02  0.25500000000E-02 0. -1.
    5000001    1    1    2    0    0 -0.51858805050E+02 -0.16983852370E+03  0.42171981051E+03  0.48642271572E+03  0.16500000000E+03 0.  0.
   -5000001    1    1    2    0    0  0.51858805050E+02  0.16983852370E+03  0.49635848649E+03  0.55238682724E+03  0.16500000000E+03 0.  0.
<mgrwt>
<rscale>  0 0.48606327E+03</rscale>
<asrwt>0</asrwt>
<pdfrwt beam="1">  1        2 0.15052984E+00 0.48606327E+03</pdfrwt>
<pdfrwt beam="2">  1       -2 0.92870188E-02 0.48606327E+03</pdfrwt>
<totfact> 0.20235080E+03</totfact>
</mgrwt>
</event>
<event>
 4    1  0.1573232E-005  0.3659635E+03  0.7818608E-02  0.1056247E+00
          2   -1    0    0  501    0  0.00000000000E+00  0.00000000000E+00  0.28919870830E+03  0.28919870831E+03  0.25500000000E-02 0.  1.
         -2   -1    0    0    0  501 -0.00000000000E+00 -0.00000000000E+00 -0.11577619302E+03  0.11577619305E+03  0.25500000000E-02 0. -1.
    5000001    1    1    2    0    0  0.58256963592E+02 -0.35477524748E+02  0.13104152450E+03  0.22147101325E+03  0.16500000000E+03 0.  0.
   -5000001    1    1    2    0    0 -0.58256963592E+02  0.35477524748E+02  0.42380990781E+02  0.18350388810E+03  0.16500000000E+03 0.  0.
<mgrwt>
<rscale>  0 0.36596353E+03</rscale>
<asrwt>0</asrwt>
<pdfrwt beam="1">  1        2 0.44492108E-01 0.36596353E+03</pdfrwt>
<pdfrwt beam="2">  1       -2 0.17811722E-01 0.36596353E+03</pdfrwt>
<totfact> 0.29309150E+03</totfact>
</mgrwt>
</event>
<event>
 4    1  0.1573232E-005  0.4778671E+03  0.7818608E-02  0.1019723E+00
          2   -1    0    0  501    0  0.00000000000E+00  0.00000000000E+00  0.79951337818E+03  0.79951337819E+03  0.25500000000E-02 0.  1.
         -2   -1    0    0    0  501 -0.00000000000E+00 -0.00000000000E+00 -0.71404975996E+02  0.71404976042E+02  0.25500000000E-02 0. -1.
    5000001    1    1    2    0    0  0.11687787485E+03  0.12695239686E+03  0.38104221070E+03  0.44966155610E+03  0.16500000000E+03 0.  0.
   -5000001    1    1    2    0    0 -0.11687787485E+03 -0.12695239686E+03  0.34706619149E+03  0.42125679813E+03  0.16500000000E+03 0.  0.
<mgrwt>
<rscale>  0 0.47786707E+03</rscale>
<asrwt>0</asrwt>
<pdfrwt beam="1">  1        2 0.12300205E+00 0.47786707E+03</pdfrwt>
<pdfrwt beam="2">  1       -2 0.10985381E-01 0.47786707E+03</pdfrwt>
<totfact> 0.20316270E+03</totfact>
</mgrwt>
</event>
<event>
 4    1  0.1573232E-005  0.4921247E+03  0.7818608E-02  0.1015855E+00
          2   -1    0    0  501    0  0.00000000000E+00  0.00000000000E+00  0.96726813737E+03  0.96726813737E+03  0.25500000000E-02 0.  1.
         -2   -1    0    0    0  501 -0.00000000000E+00 -0.00000000000E+00 -0.62595544319E+02  0.62595544371E+02  0.25500000000E-02 0. -1.
    5000001    1    1    2    0    0  0.10614307617E+03 -0.89558425885E+02  0.20442016252E+03  0.29715259903E+03  0.16500000000E+03 0.  0.
   -5000001    1    1    2    0    0 -0.10614307617E+03  0.89558425885E+02  0.70025243053E+03  0.73271108272E+03  0.16500000000E+03 0.  0.
<mgrwt>
<rscale>  0 0.49212468E+03</rscale>
<asrwt>0</asrwt>
<pdfrwt beam="1">  1        2 0.14881047E+00 0.49212468E+03</pdfrwt>
<pdfrwt beam="2">  1       -2 0.96300843E-02 0.49212468E+03</pdfrwt>
<totfact> 0.19403623E+03</totfact>
</mgrwt>
</event>
<event>
 4    1  0.1573232E-005  0.7615214E+03  0.7818608E-02  0.9617446E-01
         -2   -1    0    0    0  501 -0.00000000000E+00  0.00000000000E+00  0.31785621488E+03  0.31785621489E+03  0.25500000000E-02 0. -1.
          2   -1    0    0  501    0  0.00000000000E+00 -0.00000000000E+00 -0.45611415692E+03  0.45611415693E+03  0.25500000000E-02 0.  1.
    5000001    1    1    2    0    0 -0.20078427717E+03  0.57897255479E+02  0.20751046992E+03  0.33756779064E+03  0.16500000000E+03 0.  0.
   -5000001    1    1    2    0    0  0.20078427717E+03 -0.57897255479E+02 -0.34576841196E+03  0.43640258118E+03  0.16500000000E+03 0.  0.
<mgrwt>
<rscale>  0 0.76152142E+03</rscale>
<asrwt>0</asrwt>
<pdfrwt beam="1">  1        2 0.70171409E-01 0.76152142E+03</pdfrwt>
<pdfrwt beam="2">  1       -2 0.48900956E-01 0.76152142E+03</pdfrwt>
<totfact> 0.27333683E+02</totfact>
</mgrwt>
</event>
<event>
 4    1  0.1573232E-005  0.4141403E+03  0.7818608E-02  0.1038990E+00
         -2   -1    0    0    0  501 -0.00000000000E+00  0.00000000000E+00  0.23983351046E+02  0.23983351181E+02  0.25500000000E-02 0. -1.
          2   -1    0    0  501    0  0.00000000000E+00 -0.00000000000E+00 -0.17878259182E+04  0.17878259182E+04  0.25500000000E-02 0.  1.
    5000001    1    1    2    0    0 -0.79024055757E+02 -0.59993795016E+02 -0.12153596877E+04  0.12305154316E+04  0.16500000000E+03 0.  0.
   -5000001    1    1    2    0    0  0.79024055757E+02  0.59993795016E+02 -0.54848287937E+03  0.58129383774E+03  0.16500000000E+03 0.  0.
<mgrwt>
<rscale>  0 0.41414035E+03</rscale>
<asrwt>0</asrwt>
<pdfrwt beam="1">  1        2 0.27505004E+00 0.41414035E+03</pdfrwt>
<pdfrwt beam="2">  1       -2 0.36897477E-02 0.41414035E+03</pdfrwt>
<totfact> 0.29717593E+03</totfact>
</mgrwt>
</event>
<event>
 4    1  0.1573232E-005  0.4973051E+03  0.7818608E-02  0.1014485E+00
         -2   -1    0    0    0  501 -0.00000000000E+00  0.00000000000E+00  0.28026390236E+02  0.28026390352E+02  0.25500000000E-02 0. -1.
          2   -1    0    0  501    0  0.00000000000E+00 -0.00000000000E+00 -0.22060671022E+04  0.22060671023E+04  0.25500000000E-02 0.  1.
    5000001    1    1    2    0    0 -0.14765231959E+03 -0.10647180098E+03 -0.91703442912E+03  0.94937589820E+03  0.16500000000E+03 0.  0.
   -5000001    1    1    2    0    0  0.14765231959E+03  0.10647180098E+03 -0.12610062829E+04  0.12847175944E+04  0.16500000000E+03 0.  0.
<mgrwt>
<rscale>  0 0.49730513E+03</rscale>
<asrwt>0</asrwt>
<pdfrwt beam="1">  1        2 0.33939480E+00 0.49730513E+03</pdfrwt>
<pdfrwt beam="2">  1       -2 0.43117541E-02 0.49730513E+03</pdfrwt>
<totfact> 0.13906873E+03</totfact>
</mgrwt>
</event>
<event>
 4    1  0.1573232E-005  0.7707662E+03  0.7818608E-02  0.9603323E-01
          2   -1    0    0  501    0  0.00000000000E+00  0.00000000000E+00  0.36190345754E+04  0.36190345754E+04  0.25500000000E-02 0.  1.
         -2   -1    0    0    0  501 -0.00000000000E+00 -0.00000000000E+00 -0.41038611153E+02  0.41038611232E+02  0.25500000000E-02 0. -1.
    5000001    1    1    2    0    0  0.26527521951E+03 -0.11307088850E+03  0.86162853439E+03  0.92346342602E+03  0.16500000000E+03 0.  0.
   -5000001    1    1    2    0    0 -0.26527521951E+03  0.11307088850E+03  0.27163674299E+04  0.27366097606E+04  0.16500000000E+03 0.  0.
<mgrwt>
<rscale>  0 0.77076625E+03</rscale>
<asrwt>0</asrwt>
<pdfrwt beam="1">  1        2 0.55677446E+00 0.77076625E+03</pdfrwt>
<pdfrwt beam="2">  1       -2 0.63136335E-02 0.77076625E+03</pdfrwt>
<totfact> 0.10340341E+02</totfact>
</mgrwt>
</event>
<event>
 4    1  0.1573232E-005  0.1028570E+04  0.7818608E-02  0.9277753E-01
         -2   -1    0    0    0  501 -0.00000000000E+00  0.00000000000E+00  0.39572309418E+03  0.39572309418E+03  0.25500000000E-02 0. -1.
          2   -1    0    0  501    0  0.00000000000E+00 -0.00000000000E+00 -0.66836961828E+03  0.66836961828E+03  0.25500000000E-02 0.  1.
    5000001    1    1    2    0    0  0.14871159271E+03  0.46346906143E+03 -0.11709134071E+03  0.52711866859E+03  0.16500000000E+03 0.  0.
   -5000001    1    1    2    0    0 -0.14871159271E+03 -0.46346906143E+03 -0.15555518339E+03  0.53697404387E+03  0.16500000000E+03 0.  0.
<mgrwt>
<rscale>  0 0.10285705E+04</rscale>
<asrwt>0</asrwt>
<pdfrwt beam="1">  1        2 0.10282610E+00 0.10285705E+04</pdfrwt>
<pdfrwt beam="2">  1       -2 0.60880476E-01 0.10285705E+04</pdfrwt>
<totfact> 0.10877860E+02</totfact>
</mgrwt>
</event>
<event>
 4    1  0.1573232E-005  0.5755092E+03  0.7818608E-02  0.9957561E-01
         -2   -1    0    0    0  501 -0.00000000000E+00  0.00000000000E+00  0.15003410503E+03  0.15003410505E+03  0.25500000000E-02 0. -1.
          2   -1    0    0  501    0  0.00000000000E+00 -0.00000000000E+00 -0.55189257250E+03  0.55189257250E+03  0.25500000000E-02 0.  1.
    5000001    1    1    2    0    0  0.10626455135E+03 -0.20567560313E+03 -0.14661523897E+03  0.31986815549E+03  0.16500000000E+03 0.  0.
   -5000001    1    1    2    0    0 -0.10626455135E+03  0.20567560313E+03 -0.25524322849E+03  0.38205852207E+03  0.16500000000E+03 0.  0.
<mgrwt>
<rscale>  0 0.57550919E+03</rscale>
<asrwt>0</asrwt>
<pdfrwt beam="1">  1        2 0.84906549E-01 0.57550919E+03</pdfrwt>
<pdfrwt beam="2">  1       -2 0.23082170E-01 0.57550919E+03</pdfrwt>
<totfact> 0.91092330E+02</totfact>
</mgrwt>
</event>
<event>
 4    1  0.1573232E-005  0.3679853E+03  0.7818608E-02  0.1055466E+00
          2   -1    0    0  501    0  0.00000000000E+00  0.00000000000E+00  0.22826470446E+04  0.22826470446E+04  0.25500000000E-02 0.  1.
         -2   -1    0    0    0  501 -0.00000000000E+00 -0.00000000000E+00 -0.14830719212E+02  0.14830719431E+02  0.25500000000E-02 0. -1.
    5000001    1    1    2    0    0  0.77645561122E+02  0.22796507737E+02  0.10781410795E+04  0.10936917762E+04  0.16500000000E+03 0.  0.
   -5000001    1    1    2    0    0 -0.77645561122E+02 -0.22796507737E+02  0.11896752458E+04  0.12037859878E+04  0.16500000000E+03 0.  0.
<mgrwt>
<rscale>  0 0.36798531E+03</rscale>
<asrwt>0</asrwt>
<pdfrwt beam="1">  1        2 0.35117660E+00 0.36798531E+03</pdfrwt>
<pdfrwt beam="2">  1       -2 0.22816483E-02 0.36798531E+03</pdfrwt>
<totfact> 0.33316460E+03</totfact>
</mgrwt>
</event>
<event>
 4    1  0.1573232E-005  0.5055313E+03  0.7818608E-02  0.1012345E+00
         -2   -1    0    0    0  501 -0.00000000000E+00  0.00000000000E+00  0.10361813116E+03  0.10361813119E+03  0.25500000000E-02 0. -1.
          2   -1    0    0  501    0  0.00000000000E+00 -0.00000000000E+00 -0.61659556800E+03  0.61659556801E+03  0.25500000000E-02 0.  1.
    5000001    1    1    2    0    0 -0.10662487277E+03  0.15898859093E+03 -0.26273859197E+03  0.36455836741E+03  0.16500000000E+03 0.  0.
   -5000001    1    1    2    0    0  0.10662487277E+03 -0.15898859093E+03 -0.25023884488E+03  0.35565533178E+03  0.16500000000E+03 0.  0.
<mgrwt>
<rscale>  0 0.50553133E+03</rscale>
<asrwt>0</asrwt>
<pdfrwt beam="1">  1        2 0.94860854E-01 0.50553133E+03</pdfrwt>
<pdfrwt beam="2">  1       -2 0.15941251E-01 0.50553133E+03</pdfrwt>
<totfact> 0.15162132E+03</totfact>
</mgrwt>
</event>
<event>
 4    1  0.1573232E-005  0.6932214E+03  0.7818608E-02  0.9728895E-01
          2   -1    0    0  501    0  0.00000000000E+00  0.00000000000E+00  0.82433315312E+02  0.82433315352E+02  0.25500000000E-02 0.  1.
         -2   -1    0    0    0  501 -0.00000000000E+00 -0.00000000000E+00 -0.14574081284E+04  0.14574081284E+04  0.25500000000E-02 0. -1.
    5000001    1    1    2    0    0 -0.26136130138E+03 -0.27836054260E+02 -0.10303820165E+04  0.10761025396E+04  0.16500000000E+03 0.  0.
   -5000001    1    1    2    0    0  0.26136130138E+03  0.27836054260E+02 -0.34459279657E+03  0.46373890415E+03  0.16500000000E+03 0.  0.
<mgrwt>
<rscale>  0 0.69322142E+03</rscale>
<asrwt>0</asrwt>
<pdfrwt beam="1">  1        2 0.12682050E-01 0.69322142E+03</pdfrwt>
<pdfrwt beam="2">  1       -2 0.22421662E+00 0.69322142E+03</pdfrwt>
<totfact> 0.47005132E+01</totfact>
</mgrwt>
</event>
<event>
 4    1  0.1573232E-005  0.4652035E+03  0.7818608E-02  0.1023283E+00
          2   -1    0    0  501    0  0.00000000000E+00  0.00000000000E+00  0.12188590828E+04  0.12188590828E+04  0.25500000000E-02 0.  1.
         -2   -1    0    0    0  501 -0.00000000000E+00 -0.00000000000E+00 -0.44388711138E+02  0.44388711211E+02  0.25500000000E-02 0. -1.
    5000001    1    1    2    0    0 -0.16032299872E+03  0.23117726644E+02  0.65596888339E+03  0.69552718795E+03  0.16500000000E+03 0.  0.
   -5000001    1    1    2    0    0  0.16032299872E+03 -0.23117726644E+02  0.51850148824E+03  0.56772060603E+03  0.16500000000E+03 0.  0.
<mgrwt>
<rscale>  0 0.46520354E+03</rscale>
<asrwt>0</asrwt>
<pdfrwt beam="1">  1        2 0.18751677E+00 0.46520354E+03</pdfrwt>
<pdfrwt beam="2">  1       -2 0.68290328E-02 0.46520354E+03</pdfrwt>
<totfact> 0.23598487E+03</totfact>
</mgrwt>
</event>
<event>
 4    1  0.1573232E-005  0.3961990E+03  0.7818608E-02  0.1045104E+00
         -2   -1    0    0    0  501 -0.00000000000E+00  0.00000000000E+00  0.15238942615E+03  0.15238942617E+03  0.25500000000E-02 0. -1.
          2   -1    0    0  501    0  0.00000000000E+00 -0.00000000000E+00 -0.25752050810E+03  0.25752050811E+03  0.25500000000E-02 0.  1.
    5000001    1    1    2    0    0  0.82757776677E+02  0.62607515687E+02 -0.89142229789E+02  0.21433592268E+03  0.16500000000E+03 0.  0.
   -5000001    1    1    2    0    0 -0.82757776677E+02 -0.62607515687E+02 -0.15988852161E+02  0.19557401160E+03  0.16500000000E+03 0.  0.
<mgrwt>
<rscale>  0 0.39619895E+03</rscale>
<asrwt>0</asrwt>
<pdfrwt beam="1">  1        2 0.39618540E-01 0.39619895E+03</pdfrwt>
<pdfrwt beam="2">  1       -2 0.23444527E-01 0.39619895E+03</pdfrwt>
<totfact> 0.20702263E+03</totfact>
</mgrwt>
</event>
<event>
 4    1  0.1573232E-005  0.4134335E+03  0.7818608E-02  0.1039225E+00
          2   -1    0    0  501    0  0.00000000000E+00  0.00000000000E+00  0.14502710264E+03  0.14502710266E+03  0.25500000000E-02 0.  1.
         -2   -1    0    0    0  501 -0.00000000000E+00 -0.00000000000E+00 -0.29464713489E+03  0.29464713490E+03  0.25500000000E-02 0. -1.
    5000001    1    1    2    0    0  0.94652631254E+02  0.76785273007E+02 -0.47660858433E+02  0.21059832901E+03  0.16500000000E+03 0.  0.
   -5000001    1    1    2    0    0 -0.94652631254E+02 -0.76785273007E+02 -0.10195917382E+03  0.22907590855E+03  0.16500000000E+03 0.  0.
<mgrwt>
<rscale>  0 0.41343353E+03</rscale>
<asrwt>0</asrwt>
<pdfrwt beam="1">  1        2 0.22311862E-01 0.41343353E+03</pdfrwt>
<pdfrwt beam="2">  1       -2 0.45330328E-01 0.41343353E+03</pdfrwt>
<totfact> 0.11515181E+03</totfact>
</mgrwt>
</event>
<event>
 4    1  0.1573232E-005  0.5072816E+03  0.7818608E-02  0.1011896E+00
         -2   -1    0    0    0  501 -0.00000000000E+00  0.00000000000E+00  0.48706362308E+03  0.48706362309E+03  0.25500000000E-02 0. -1.
          2   -1    0    0  501    0  0.00000000000E+00 -0.00000000000E+00 -0.13208469902E+03  0.13208469904E+03  0.25500000000E-02 0.  1.
    5000001    1    1    2    0    0 -0.17079634864E+03  0.21107345409E+01  0.68782097235E+02  0.24724850820E+03  0.16500000000E+03 0.  0.
   -5000001    1    1    2    0    0  0.17079634864E+03 -0.21107345409E+01  0.28619682683E+03  0.37189981392E+03  0.16500000000E+03 0.  0.
<mgrwt>
<rscale>  0 0.50728159E+03</rscale>
<asrwt>0</asrwt>
<pdfrwt beam="1">  1        2 0.20320723E-01 0.50728159E+03</pdfrwt>
<pdfrwt beam="2">  1       -2 0.74932866E-01 0.50728159E+03</pdfrwt>
<totfact> 0.45036229E+02</totfact>
</mgrwt>
</event>
<event>
 4    1  0.1573232E-005  0.3755866E+03  0.7818608E-02  0.1052577E+00
          2   -1    0    0  501    0  0.00000000000E+00  0.00000000000E+00  0.48131924638E+03  0.48131924638E+03  0.25500000000E-02 0.  1.
         -2   -1    0    0    0  501 -0.00000000000E+00 -0.00000000000E+00 -0.73270130222E+02  0.73270130267E+02  0.25500000000E-02 0. -1.
    5000001    1    1    2    0    0 -0.23975161257E+02 -0.85936868991E+02  0.21734423797E+03  0.28709488255E+03  0.16500000000E+03 0.  0.
   -5000001    1    1    2    0    0  0.23975161257E+02  0.85936868991E+02  0.19070487818E+03  0.26749449410E+03  0.16500000000E+03 0.  0.
<mgrwt>
<rscale>  0 0.37558660E+03</rscale>
<asrwt>0</asrwt>
<pdfrwt beam="1">  1        2 0.74049117E-01 0.37558660E+03</pdfrwt>
<pdfrwt beam="2">  1       -2 0.11272327E-01 0.37558660E+03</pdfrwt>
<totfact> 0.35742878E+03</totfact>
</mgrwt>
</event>
<event>
 4    1  0.1573232E-005  0.1123708E+04  0.7818608E-02  0.9182387E-01
         -2   -1    0    0    0  501 -0.00000000000E+00  0.00000000000E+00  0.12724571869E+03  0.12724571872E+03  0.25500000000E-02 0. -1.
          2   -1    0    0  501    0  0.00000000000E+00 -0.00000000000E+00 -0.24808700706E+04  0.24808700706E+04  0.25500000000E-02 0.  1.
    5000001    1    1    2    0    0  0.31609951659E+03 -0.41933252542E+03 -0.91528671275E+03  0.10680512337E+04  0.16500000000E+03 0.  0.
   -5000001    1    1    2    0    0 -0.31609951659E+03  0.41933252542E+03 -0.14383376392E+04  0.15400645556E+04  0.16500000000E+03 0.  0.
<mgrwt>
<rscale>  0 0.11237083E+04</rscale>
<asrwt>0</asrwt>
<pdfrwt beam="1">  1        2 0.38167228E+00 0.11237083E+04</pdfrwt>
<pdfrwt beam="2">  1       -2 0.19576266E-01 0.11237083E+04</pdfrwt>
<totfact> 0.79201039E+01</totfact>
</mgrwt>
</event>
<event>
 4    1  0.1573232E-005  0.1266321E+04  0.7818608E-02  0.9056708E-01
         -2   -1    0    0    0  501 -0.00000000000E+00  0.00000000000E+00  0.34643004255E+03  0.34643004256E+03  0.25500000000E-02 0. -1.
          2   -1    0    0  501    0  0.00000000000E+00 -0.00000000000E+00 -0.11572098478E+04  0.11572098478E+04  0.25500000000E-02 0.  1.
    5000001    1    1    2    0    0  0.49279461972E+03  0.20211717285E+03 -0.76155170786E+03  0.94386645906E+03  0.16500000000E+03 0.  0.
   -5000001    1    1    2    0    0 -0.49279461972E+03 -0.20211717285E+03 -0.49228097351E+02  0.55977343127E+03  0.16500000000E+03 0.  0.
<mgrwt>
<rscale>  0 0.12663211E+04</rscale>
<asrwt>0</asrwt>
<pdfrwt beam="1">  1        2 0.17803228E+00 0.12663211E+04</pdfrwt>
<pdfrwt beam="2">  1       -2 0.53296930E-01 0.12663211E+04</pdfrwt>
<totfact> 0.65519801E+01</totfact>
</mgrwt>
</event>
<event>
 4    1  0.1573232E-005  0.3642457E+03  0.7818608E-02  0.1056915E+00
          2   -1    0    0  501    0  0.00000000000E+00  0.00000000000E+00  0.27302119151E+03  0.27302119152E+03  0.25500000000E-02 0.  1.
         -2   -1    0    0    0  501 -0.00000000000E+00 -0.00000000000E+00 -0.12148775746E+03  0.12148775748E+03  0.25500000000E-02 0. -1.
    5000001    1    1    2    0    0  0.56358373055E+02  0.65564824551E+01  0.13229999000E+03  0.21896926960E+03  0.16500000000E+03 0.  0.
   -5000001    1    1    2    0    0 -0.56358373055E+02 -0.65564824551E+01  0.19233444055E+02  0.17553967941E+03  0.16500000000E+03 0.  0.
<mgrwt>
<rscale>  0 0.36424570E+03</rscale>
<asrwt>0</asrwt>
<pdfrwt beam="1">  1        2 0.42003260E-01 0.36424570E+03</pdfrwt>
<pdfrwt beam="2">  1       -2 0.18690424E-01 0.36424570E+03</pdfrwt>
<totfact> 0.28743729E+03</totfact>
</mgrwt>
</event>
<event>
 4    1  0.1573232E-005  0.3937635E+03  0.7818608E-02  0.1045961E+00
          2   -1    0    0  501    0  0.00000000000E+00  0.00000000000E+00  0.27499325600E+03  0.27499325601E+03  0.25500000000E-02 0.  1.
         -2   -1    0    0    0  501 -0.00000000000E+00 -0.00000000000E+00 -0.14095773029E+03  0.14095773031E+03  0.25500000000E-02 0. -1.
    5000001    1    1    2    0    0  0.82944839586E+02  0.65965777202E+02  0.48536364028E+02  0.20202007031E+03  0.16500000000E+03 0.  0.
   -5000001    1    1    2    0    0 -0.82944839586E+02 -0.65965777202E+02  0.85499161688E+02  0.21393091601E+03  0.16500000000E+03 0.  0.
<mgrwt>
<rscale>  0 0.39376351E+03</rscale>
<asrwt>0</asrwt>
<pdfrwt beam="1">  1        2 0.42306654E-01 0.39376351E+03</pdfrwt>
<pdfrwt beam="2">  1       -2 0.21685805E-01 0.39376351E+03</pdfrwt>
<totfact> 0.22094102E+03</totfact>
</mgrwt>
</event>
<event>
 4    1  0.1573232E-005  0.4271560E+03  0.7818608E-02  0.1034762E+00
          2   -1    0    0  501    0  0.00000000000E+00  0.00000000000E+00  0.73722601422E+03  0.73722601422E+03  0.25500000000E-02 0.  1.
         -2   -1    0    0    0  501 -0.00000000000E+00 -0.00000000000E+00 -0.61874603554E+02  0.61874603606E+02  0.25500000000E-02 0. -1.
    5000001    1    1    2    0    0  0.95662236403E+02  0.78418811848E+02  0.23368855358E+03  0.31166667066E+03  0.16500000000E+03 0.  0.
   -5000001    1    1    2    0    0 -0.95662236403E+02 -0.78418811848E+02  0.44166285709E+03  0.48743394717E+03  0.16500000000E+03 0.  0.
<mgrwt>
<rscale>  0 0.42715602E+03</rscale>
<asrwt>0</asrwt>
<pdfrwt beam="1">  1        2 0.11341939E+00 0.42715602E+03</pdfrwt>
<pdfrwt beam="2">  1       -2 0.95191697E-02 0.42715602E+03</pdfrwt>
<totfact> 0.28388792E+03</totfact>
</mgrwt>
</event>
<event>
 4    1  0.1573232E-005  0.8254301E+03  0.7818608E-02  0.9523920E-01
          2   -1    0    0  501    0  0.00000000000E+00  0.00000000000E+00  0.40559330447E+03  0.40559330447E+03  0.25500000000E-02 0.  1.
         -2   -1    0    0    0  501 -0.00000000000E+00 -0.00000000000E+00 -0.41996180196E+03  0.41996180197E+03  0.25500000000E-02 0. -1.
    5000001    1    1    2    0    0  0.60504322289E+02 -0.36586876959E+03 -0.81948268618E+02  0.41407879480E+03  0.16500000000E+03 0.  0.
   -5000001    1    1    2    0    0 -0.60504322289E+02  0.36586876959E+03  0.67579771123E+02  0.41147631164E+03  0.16500000000E+03 0.  0.
<mgrwt>
<rscale>  0 0.82543006E+03</rscale>
<asrwt>0</asrwt>
<pdfrwt beam="1">  1        2 0.62398970E-01 0.82543006E+03</pdfrwt>
<pdfrwt beam="2">  1       -2 0.64609508E-01 0.82543006E+03</pdfrwt>
<totfact> 0.17432341E+02</totfact>
</mgrwt>
</event>
<event>
 4    1  0.1573232E-005  0.3681004E+03  0.7818608E-02  0.1055422E+00
          2   -1    0    0  501    0  0.00000000000E+00  0.00000000000E+00  0.22561999052E+04  0.22561999052E+04  0.25500000000E-02 0.  1.
         -2   -1    0    0    0  501 -0.00000000000E+00 -0.00000000000E+00 -0.15013952976E+02  0.15013953192E+02  0.25500000000E-02 0. -1.
    5000001    1    1    2    0    0  0.62231497879E+02  0.51373121123E+02  0.11929496833E+04  0.12070070024E+04  0.16500000000E+03 0.  0.
   -5000001    1    1    2    0    0 -0.62231497879E+02 -0.51373121123E+02  0.10482362689E+04  0.10642068560E+04  0.16500000000E+03 0.  0.
<mgrwt>
<rscale>  0 0.36810042E+03</rscale>
<asrwt>0</asrwt>
<pdfrwt beam="1">  1        2 0.34710758E+00 0.36810042E+03</pdfrwt>
<pdfrwt beam="2">  1       -2 0.23098396E-02 0.36810042E+03</pdfrwt>
<totfact> 0.33807600E+03</totfact>
</mgrwt>
</event>
<event>
 4    1  0.1573232E-005  0.5631901E+03  0.7818608E-02  0.9984862E-01
         -2   -1    0    0    0  501 -0.00000000000E+00  0.00000000000E+00  0.37899951422E+02  0.37899951507E+02  0.25500000000E-02 0. -1.
          2   -1    0    0  501    0  0.00000000000E+00 -0.00000000000E+00 -0.20922395721E+04  0.20922395721E+04  0.25500000000E-02 0.  1.
    5000001    1    1    2    0    0 -0.18920956571E+02  0.17762134427E+03 -0.15642452192E+04  0.15830336226E+04  0.16500000000E+03 0.  0.
   -5000001    1    1    2    0    0  0.18920956571E+02 -0.17762134427E+03 -0.49009440146E+03  0.54710590097E+03  0.16500000000E+03 0.  0.
<mgrwt>
<rscale>  0 0.56319012E+03</rscale>
<asrwt>0</asrwt>
<pdfrwt beam="1">  1        2 0.32188292E+00 0.56319012E+03</pdfrwt>
<pdfrwt beam="2">  1       -2 0.58307634E-02 0.56319012E+03</pdfrwt>
<totfact> 0.10005432E+03</totfact>
</mgrwt>
</event>
<event>
 4    1  0.1573232E-005  0.6741002E+03  0.7818608E-02  0.9762579E-01
          2   -1    0    0  501    0  0.00000000000E+00  0.00000000000E+00  0.10485693555E+04  0.10485693556E+04  0.25500000000E-02 0.  1.
         -2   -1    0    0    0  501 -0.00000000000E+00 -0.00000000000E+00 -0.10834072800E+03  0.10834072803E+03  0.25500000000E-02 0. -1.
    5000001    1    1    2    0    0  0.29316183428E+03  0.18223077837E+02  0.45279606891E+03  0.56438038739E+03  0.16500000000E+03 0.  0.
   -5000001    1    1    2    0    0 -0.29316183428E+03 -0.18223077837E+02  0.48743255864E+03  0.59252969619E+03  0.16500000000E+03 0.  0.
<mgrwt>
<rscale>  0 0.67410019E+03</rscale>
<asrwt>0</asrwt>
<pdfrwt beam="1">  1        2 0.16131836E+00 0.67410019E+03</pdfrwt>
<pdfrwt beam="2">  1       -2 0.16667805E-01 0.67410019E+03</pdfrwt>
<totfact> 0.69217423E+02</totfact>
</mgrwt>
</event>
<event>
 4    1  0.1573232E-005  0.5264712E+03  0.7818608E-02  0.1007092E+00
         -2   -1    0    0    0  501 -0.00000000000E+00  0.00000000000E+00  0.38604509222E+03  0.38604509223E+03  0.25500000000E-02 0. -1.
          2   -1    0    0  501    0  0.00000000000E+00 -0.00000000000E+00 -0.17949451182E+03  0.17949451184E+03  0.25500000000E-02 0.  1.
    5000001    1    1    2    0    0 -0.15606307946E+03 -0.59865414739E+02 -0.24408352173E+02  0.23613623252E+03  0.16500000000E+03 0.  0.
   -5000001    1    1    2    0    0  0.15606307946E+03  0.59865414739E+02  0.23095893257E+03  0.32940337155E+03  0.16500000000E+03 0.  0.
<mgrwt>
<rscale>  0 0.52647118E+03</rscale>
<asrwt>0</asrwt>
<pdfrwt beam="1">  1        2 0.27614540E-01 0.52647118E+03</pdfrwt>
<pdfrwt beam="2">  1       -2 0.59391552E-01 0.52647118E+03</pdfrwt>
<totfact> 0.52170089E+02</totfact>
</mgrwt>
</event>
<event>
 4    1  0.1573232E-005  0.5110682E+03  0.7818608E-02  0.1010930E+00
         -2   -1    0    0    0  501 -0.00000000000E+00  0.00000000000E+00  0.77540545789E+02  0.77540545831E+02  0.25500000000E-02 0. -1.
          2   -1    0    0  501    0  0.00000000000E+00 -0.00000000000E+00 -0.84211011498E+03  0.84211011498E+03  0.25500000000E-02 0.  1.
    5000001    1    1    2    0    0  0.28638633099E+02 -0.16062186063E+03 -0.57486249291E+03  0.61992857586E+03  0.16500000000E+03 0.  0.
   -5000001    1    1    2    0    0 -0.28638633099E+02  0.16062186063E+03 -0.18970707628E+03  0.29972208495E+03  0.16500000000E+03 0.  0.
<mgrwt>
<rscale>  0 0.51106821E+03</rscale>
<asrwt>0</asrwt>
<pdfrwt beam="1">  1        2 0.12955540E+00 0.51106821E+03</pdfrwt>
<pdfrwt beam="2">  1       -2 0.11929315E-01 0.51106821E+03</pdfrwt>
<totfact> 0.16580520E+03</totfact>
</mgrwt>
</event>
<event>
 4    1  0.1573232E-005  0.5095836E+03  0.7818608E-02  0.1011307E+00
         -2   -1    0    0    0  501 -0.00000000000E+00  0.00000000000E+00  0.43874871860E+02  0.43874871934E+02  0.25500000000E-02 0. -1.
          2   -1    0    0  501    0  0.00000000000E+00 -0.00000000000E+00 -0.14796363766E+04  0.14796363766E+04  0.25500000000E-02 0.  1.
    5000001    1    1    2    0    0  0.75306306827E+02  0.16396849912E+03 -0.50359599741E+03  0.55981303768E+03  0.16500000000E+03 0.  0.
   -5000001    1    1    2    0    0 -0.75306306827E+02 -0.16396849912E+03 -0.93216550738E+03  0.96369821090E+03  0.16500000000E+03 0.  0.
<mgrwt>
<rscale>  0 0.50958358E+03</rscale>
<asrwt>0</asrwt>
<pdfrwt beam="1">  1        2 0.22763633E+00 0.50958358E+03</pdfrwt>
<pdfrwt beam="2">  1       -2 0.67499814E-02 0.50958358E+03</pdfrwt>
<totfact> 0.17126481E+03</totfact>
</mgrwt>
</event>
<event>
 4    1  0.1573232E-005  0.4681609E+03  0.7818608E-02  0.1022441E+00
         -2   -1    0    0    0  501 -0.00000000000E+00  0.00000000000E+00  0.35205857977E+03  0.35205857978E+03  0.25500000000E-02 0. -1.
          2   -1    0    0  501    0  0.00000000000E+00 -0.00000000000E+00 -0.15563791171E+03  0.15563791173E+03  0.25500000000E-02 0.  1.
    5000001    1    1    2    0    0  0.16002769807E+03  0.44257347282E+02  0.97080619461E+02  0.25341117500E+03  0.16500000000E+03 0.  0.
   -5000001    1    1    2    0    0 -0.16002769807E+03 -0.44257347282E+02  0.99340048595E+02  0.25428531651E+03  0.16500000000E+03 0.  0.
<mgrwt>
<rscale>  0 0.46816092E+03</rscale>
<asrwt>0</asrwt>
<pdfrwt beam="1">  1        2 0.23944294E-01 0.46816092E+03</pdfrwt>
<pdfrwt beam="2">  1       -2 0.54162858E-01 0.46816092E+03</pdfrwt>
<totfact> 0.74274852E+02</totfact>
</mgrwt>
</event>
<event>
 4    1  0.1573232E-005  0.9934714E+03  0.7818608E-02  0.9315734E-01
         -2   -1    0    0    0  501 -0.00000000000E+00  0.00000000000E+00  0.54962980215E+03  0.54962980216E+03  0.25500000000E-02 0. -1.
          2   -1    0    0  501    0  0.00000000000E+00 -0.00000000000E+00 -0.44893189309E+03  0.44893189310E+03  0.25500000000E-02 0.  1.
    5000001    1    1    2    0    0 -0.26313023053E+03  0.34996497201E+03  0.21796173604E+03  0.51618341530E+03  0.16500000000E+03 0.  0.
   -5000001    1    1    2    0    0  0.26313023053E+03 -0.34996497201E+03 -0.11726382697E+03  0.48237827996E+03  0.16500000000E+03 0.  0.
<mgrwt>
<rscale>  0 0.99347138E+03</rscale>
<asrwt>0</asrwt>
<pdfrwt beam="1">  1        2 0.69066445E-01 0.99347138E+03</pdfrwt>
<pdfrwt beam="2">  1       -2 0.84558431E-01 0.99347138E+03</pdfrwt>
<totfact> 0.84979030E+01</totfact>
</mgrwt>
</event>
<event>
 4    1  0.1573232E-005  0.4109099E+03  0.7818608E-02  0.1040066E+00
         -2   -1    0    0    0  501 -0.00000000000E+00  0.00000000000E+00  0.68372522112E+03  0.68372522113E+03  0.25500000000E-02 0. -1.
          2   -1    0    0  501    0  0.00000000000E+00 -0.00000000000E+00 -0.61737872487E+02  0.61737872540E+02  0.25500000000E-02 0.  1.
    5000001    1    1    2    0    0  0.87152571773E+02  0.39040933187E+02  0.44995266528E+03  0.48867388535E+03  0.16500000000E+03 0.  0.
   -5000001    1    1    2    0    0 -0.87152571773E+02 -0.39040933187E+02  0.17203468335E+03  0.25678920832E+03  0.16500000000E+03 0.  0.
<mgrwt>
<rscale>  0 0.41090992E+03</rscale>
<asrwt>0</asrwt>
<pdfrwt beam="1">  1        2 0.94981344E-02 0.41090992E+03</pdfrwt>
<pdfrwt beam="2">  1       -2 0.10518849E+00 0.41090992E+03</pdfrwt>
<totfact> 0.52348214E+02</totfact>
</mgrwt>
</event>
<event>
 4    1  0.1573232E-005  0.8363230E+03  0.7818608E-02  0.9508880E-01
          2   -1    0    0  501    0  0.00000000000E+00  0.00000000000E+00  0.23335525834E+04  0.23335525834E+04  0.25500000000E-02 0.  1.
         -2   -1    0    0    0  501 -0.00000000000E+00 -0.00000000000E+00 -0.74932556003E+02  0.74932556046E+02  0.25500000000E-02 0. -1.
    5000001    1    1    2    0    0  0.64059687950E+00  0.37994359322E+03  0.96446492732E+03  0.10496547720E+04  0.16500000000E+03 0.  0.
   -5000001    1    1    2    0    0 -0.64059687950E+00 -0.37994359322E+03  0.12941551001E+04  0.13588303675E+04  0.16500000000E+03 0.  0.
<mgrwt>
<rscale>  0 0.83632305E+03</rscale>
<asrwt>0</asrwt>
<pdfrwt beam="1">  1        2 0.35900807E+00 0.83632305E+03</pdfrwt>
<pdfrwt beam="2">  1       -2 0.11528086E-01 0.83632305E+03</pdfrwt>
<totfact> 0.24181262E+02</totfact>
</mgrwt>
</event>
<event>
 4    1  0.1573232E-005  0.4180321E+03  0.7818608E-02  0.1037709E+00
         -2   -1    0    0    0  501 -0.00000000000E+00  0.00000000000E+00  0.36484121256E+03  0.36484121257E+03  0.25500000000E-02 0. -1.
          2   -1    0    0  501    0  0.00000000000E+00 -0.00000000000E+00 -0.11974447514E+03  0.11974447517E+03  0.25500000000E-02 0.  1.
    5000001    1    1    2    0    0  0.95911330624E+02 -0.75973828285E+02  0.16732007261E+03  0.26493775236E+03  0.16500000000E+03 0.  0.
   -5000001    1    1    2    0    0 -0.95911330624E+02  0.75973828285E+02  0.77776664810E+02  0.21964793538E+03  0.16500000000E+03 0.  0.
<mgrwt>
<rscale>  0 0.41803215E+03</rscale>
<asrwt>0</asrwt>
<pdfrwt beam="1">  1        2 0.18422227E-01 0.41803215E+03</pdfrwt>
<pdfrwt beam="2">  1       -2 0.56129417E-01 0.41803215E+03</pdfrwt>
<totfact> 0.93435083E+02</totfact>
</mgrwt>
</event>
<event>
 4    1  0.1573232E-005  0.3718518E+03  0.7818608E-02  0.1053987E+00
         -2   -1    0    0    0  501 -0.00000000000E+00  0.00000000000E+00  0.17498909590E+02  0.17498909776E+02  0.25500000000E-02 0. -1.
          2   -1    0    0  501    0  0.00000000000E+00 -0.00000000000E+00 -0.19754620432E+04  0.19754620432E+04  0.25500000000E-02 0.  1.
    5000001    1    1    2    0    0 -0.61213650236E+02 -0.45093247951E+02 -0.11908651526E+04  0.12046432350E+04  0.16500000000E+03 0.  0.
   -5000001    1    1    2    0    0  0.61213650236E+02  0.45093247951E+02 -0.76709798098E+03  0.78831771794E+03  0.16500000000E+03 0.  0.
<mgrwt>
<rscale>  0 0.37185175E+03</rscale>
<asrwt>0</asrwt>
<pdfrwt beam="1">  1        2 0.30391706E+00 0.37185175E+03</pdfrwt>
<pdfrwt beam="2">  1       -2 0.26921415E-02 0.37185175E+03</pdfrwt>
<totfact> 0.38012028E+03</totfact>
</mgrwt>
</event>
<event>
 4    1  0.1573232E-005  0.4661800E+03  0.7818608E-02  0.1023004E+00
         -2   -1    0    0    0  501 -0.00000000000E+00  0.00000000000E+00  0.55541363390E+02  0.55541363448E+02  0.25500000000E-02 0. -1.
          2   -1    0    0  501    0  0.00000000000E+00 -0.00000000000E+00 -0.97820694431E+03  0.97820694431E+03  0.25500000000E-02 0.  1.
    5000001    1    1    2    0    0 -0.10095388770E+03  0.52862659914E+02 -0.72482964563E+03  0.75205662249E+03  0.16500000000E+03 0.  0.
   -5000001    1    1    2    0    0  0.10095388770E+03 -0.52862659914E+02 -0.19783593529E+03  0.28169168527E+03  0.16500000000E+03 0.  0.
<mgrwt>
<rscale>  0 0.46618000E+03</rscale>
<asrwt>0</asrwt>
<pdfrwt beam="1">  1        2 0.15049336E+00 0.46618000E+03</pdfrwt>
<pdfrwt beam="2">  1       -2 0.85448258E-02 0.46618000E+03</pdfrwt>
<totfact> 0.23126621E+03</totfact>
</mgrwt>
</event>
<event>
 4    1  0.1573232E-005  0.5246679E+03  0.7818608E-02  0.1007534E+00
         -2   -1    0    0    0  501 -0.00000000000E+00  0.00000000000E+00  0.10692840844E+03  0.10692840847E+03  0.25500000000E-02 0. -1.
          2   -1    0    0  501    0  0.00000000000E+00 -0.00000000000E+00 -0.64359985768E+03  0.64359985769E+03  0.25500000000E-02 0.  1.
    5000001    1    1    2    0    0 -0.18220824488E+03 -0.91201098922E+02 -0.28085743311E+03  0.38421788439E+03  0.16500000000E+03 0.  0.
   -5000001    1    1    2    0    0  0.18220824488E+03  0.91201098922E+02 -0.25581401613E+03  0.36631038177E+03  0.16500000000E+03 0.  0.
<mgrwt>
<rscale>  0 0.52466793E+03</rscale>
<asrwt>0</asrwt>
<pdfrwt beam="1">  1        2 0.99015360E-01 0.52466793E+03</pdfrwt>
<pdfrwt beam="2">  1       -2 0.16450525E-01 0.52466793E+03</pdfrwt>
<totfact> 0.13649926E+03</totfact>
</mgrwt>
</event>
<event>
 4    1  0.1573232E-005  0.7977515E+03  0.7818608E-02  0.9563277E-01
         -2   -1    0    0    0  501 -0.00000000000E+00  0.00000000000E+00  0.19428759312E+03  0.19428759314E+03  0.25500000000E-02 0.  1.
          2   -1    0    0  501    0  0.00000000000E+00 -0.00000000000E+00 -0.81889864071E+03  0.81889864072E+03  0.25500000000E-02 0. -1.
    5000001    1    1    2    0    0  0.33914946495E+03  0.12748800165E+03 -0.34344890451E+03  0.52579244969E+03  0.16500000000E+03 0.  0.
   -5000001    1    1    2    0    0 -0.33914946495E+03 -0.12748800165E+03 -0.28116214309E+03  0.48739378417E+03  0.16500000000E+03 0.  0.
<mgrwt>
<rscale>  0 0.79775145E+03</rscale>
<asrwt>0</asrwt>
<pdfrwt beam="1">  1        2 0.12598440E+00 0.79775145E+03</pdfrwt>
<pdfrwt beam="2">  1       -2 0.29890399E-01 0.79775145E+03</pdfrwt>
<totfact> 0.34619121E+02</totfact>
</mgrwt>
</event>
<event>
 4    1  0.1573232E-005  0.3843185E+03  0.7818608E-02  0.1049349E+00
         -2   -1    0    0    0  501 -0.00000000000E+00  0.00000000000E+00  0.98704256240E+02  0.98704256273E+02  0.25500000000E-02 0. -1.
          2   -1    0    0  501    0  0.00000000000E+00 -0.00000000000E+00 -0.37409923265E+03  0.37409923266E+03  0.25500000000E-02 0.  1.
    5000001    1    1    2    0    0 -0.80735965306E+02 -0.39994986619E+02 -0.88761025607E+02  0.20789760632E+03  0.16500000000E+03 0.  0.
   -5000001    1    1    2    0    0  0.80735965306E+02  0.39994986619E+02 -0.18663395081E+03  0.26490588261E+03  0.16500000000E+03 0.  0.
<mgrwt>
<rscale>  0 0.38431855E+03</rscale>
<asrwt>0</asrwt>
<pdfrwt beam="1">  1        2 0.57553727E-01 0.38431855E+03</pdfrwt>
<pdfrwt beam="2">  1       -2 0.15185270E-01 0.38431855E+03</pdfrwt>
<totfact> 0.28977851E+03</totfact>
</mgrwt>
</event>
<event>
 4    1  0.1573232E-005  0.6013137E+03  0.7818608E-02  0.9902684E-01
          2   -1    0    0  501    0  0.00000000000E+00  0.00000000000E+00  0.23739309244E+04  0.23739309244E+04  0.25500000000E-02 0. -1.
         -2   -1    0    0    0  501 -0.00000000000E+00 -0.00000000000E+00 -0.38078001580E+02  0.38078001665E+02  0.25500000000E-02 0.  1.
    5000001    1    1    2    0    0  0.77741140750E+01 -0.22937516480E+03  0.15788799406E+04  0.16039826277E+04  0.16500000000E+03 0.  0.
   -5000001    1    1    2    0    0 -0.77741140750E+01  0.22937516480E+03  0.75697298225E+03  0.80802629842E+03  0.16500000000E+03 0.  0.
<mgrwt>
<rscale>  0 0.60131371E+03</rscale>
<asrwt>0</asrwt>
<pdfrwt beam="1">  1        2 0.36522023E+00 0.60131371E+03</pdfrwt>
<pdfrwt beam="2">  1       -2 0.58581526E-02 0.60131371E+03</pdfrwt>
<totfact> 0.69392200E+02</totfact>
</mgrwt>
</event>
<event>
 4    1  0.1573232E-005  0.4385896E+03  0.7818608E-02  0.1031180E+00
         -2   -1    0    0    0  501 -0.00000000000E+00  0.00000000000E+00  0.14764225128E+03  0.14764225130E+03  0.25500000000E-02 0. -1.
          2   -1    0    0  501    0  0.00000000000E+00 -0.00000000000E+00 -0.32572112301E+03  0.32572112302E+03  0.25500000000E-02 0.  1.
    5000001    1    1    2    0    0 -0.50613598781E+02  0.13446485014E+03 -0.10514458945E+03  0.24274043132E+03  0.16500000000E+03 0.  0.
   -5000001    1    1    2    0    0  0.50613598781E+02 -0.13446485014E+03 -0.72934282283E+02  0.23062294300E+03  0.16500000000E+03 0.  0.
<mgrwt>
<rscale>  0 0.43858956E+03</rscale>
<asrwt>0</asrwt>
<pdfrwt beam="1">  1        2 0.50110942E-01 0.43858956E+03</pdfrwt>
<pdfrwt beam="2">  1       -2 0.22714193E-01 0.43858956E+03</pdfrwt>
<totfact> 0.16952545E+03</totfact>
</mgrwt>
</event>
<event>
 4    1  0.1573232E-005  0.6567018E+03  0.7818608E-02  0.9794284E-01
         -2   -1    0    0    0  501 -0.00000000000E+00  0.00000000000E+00  0.30771166670E+03  0.30771166671E+03  0.25500000000E-02 0. -1.
          2   -1    0    0  501    0  0.00000000000E+00 -0.00000000000E+00 -0.35037446013E+03  0.35037446014E+03  0.25500000000E-02 0.  1.
    5000001    1    1    2    0    0  0.19931700471E+03  0.19722555970E+03 -0.65743206757E+02  0.33192221830E+03  0.16500000000E+03 0.  0.
   -5000001    1    1    2    0    0 -0.19931700471E+03 -0.19722555970E+03  0.23080413330E+02  0.32616390855E+03  0.16500000000E+03 0.  0.
<mgrwt>
<rscale>  0 0.65670179E+03</rscale>
<asrwt>0</asrwt>
<pdfrwt beam="1">  1        2 0.53903763E-01 0.65670179E+03</pdfrwt>
<pdfrwt beam="2">  1       -2 0.47340256E-01 0.65670179E+03</pdfrwt>
<totfact> 0.39388916E+02</totfact>
</mgrwt>
</event>
<event>
 4    1  0.1573232E-005  0.6926969E+03  0.7818608E-02  0.9729804E-01
          2   -1    0    0  501    0  0.00000000000E+00  0.00000000000E+00  0.14544363473E+03  0.14544363475E+03  0.25500000000E-02 0.  1.
         -2   -1    0    0    0  501 -0.00000000000E+00 -0.00000000000E+00 -0.82476802801E+03  0.82476802801E+03  0.25500000000E-02 0. -1.
    5000001    1    1    2    0    0 -0.76158120549E+02 -0.28209076402E+03 -0.45979832854E+03  0.56922294525E+03  0.16500000000E+03 0.  0.
   -5000001    1    1    2    0    0  0.76158120549E+02  0.28209076402E+03 -0.21952606474E+03  0.40098871751E+03  0.16500000000E+03 0.  0.
<mgrwt>
<rscale>  0 0.69269693E+03</rscale>
<asrwt>0</asrwt>
<pdfrwt beam="1">  1        2 0.22375944E-01 0.69269693E+03</pdfrwt>
<pdfrwt beam="2">  1       -2 0.12688739E+00 0.69269693E+03</pdfrwt>
<totfact> 0.11638464E+02</totfact>
</mgrwt>
</event>
<event>
 4    1  0.1573232E-005  0.4202828E+03  0.7818608E-02  0.1036974E+00
         -2   -1    0    0    0  501 -0.00000000000E+00  0.00000000000E+00  0.11631624537E+03  0.11631624540E+03  0.25500000000E-02 0. -1.
          2   -1    0    0  501    0  0.00000000000E+00 -0.00000000000E+00 -0.37964948012E+03  0.37964948013E+03  0.25500000000E-02 0.  1.
    5000001    1    1    2    0    0 -0.12035524703E+03 -0.48992522997E+02 -0.12342724256E+03  0.24360816284E+03  0.16500000000E+03 0.  0.
   -5000001    1    1    2    0    0  0.12035524703E+03  0.48992522997E+02 -0.13990599219E+03  0.25235756269E+03  0.16500000000E+03 0.  0.
<mgrwt>
<rscale>  0 0.42028277E+03</rscale>
<asrwt>0</asrwt>
<pdfrwt beam="1">  1        2 0.58407612E-01 0.42028277E+03</pdfrwt>
<pdfrwt beam="2">  1       -2 0.17894807E-01 0.42028277E+03</pdfrwt>
<totfact> 0.21645039E+03</totfact>
</mgrwt>
</event>
<event>
 4    1  0.1573232E-005  0.6010982E+03  0.7818608E-02  0.9903130E-01
         -2   -1    0    0    0  501 -0.00000000000E+00  0.00000000000E+00  0.61969640927E+03  0.61969640928E+03  0.25500000000E-02 0. -1.
          2   -1    0    0  501    0  0.00000000000E+00 -0.00000000000E+00 -0.14576454025E+03  0.14576454027E+03  0.25500000000E-02 0.  1.
    5000001    1    1    2    0    0  0.21500852709E+03  0.12979745554E+03  0.24378994491E+03  0.38695553159E+03  0.16500000000E+03 0.  0.
   -5000001    1    1    2    0    0 -0.21500852709E+03 -0.12979745554E+03  0.23014192412E+03  0.37850541796E+03  0.16500000000E+03 0.  0.
<mgrwt>
<rscale>  0 0.60109820E+03</rscale>
<asrwt>0</asrwt>
<pdfrwt beam="1">  1        2 0.22425313E-01 0.60109820E+03</pdfrwt>
<pdfrwt beam="2">  1       -2 0.95337912E-01 0.60109820E+03</pdfrwt>
<totfact> 0.23243303E+02</totfact>
</mgrwt>
</event>
<event>
 4    1  0.1573232E-005  0.3645353E+03  0.7818608E-02  0.1056802E+00
          2   -1    0    0  501    0  0.00000000000E+00  0.00000000000E+00  0.19644111628E+03  0.19644111630E+03  0.25500000000E-02 0.  1.
         -2   -1    0    0    0  501 -0.00000000000E+00 -0.00000000000E+00 -0.16911678778E+03  0.16911678780E+03  0.25500000000E-02 0. -1.
    5000001    1    1    2    0    0  0.49081968961E+02 -0.38736188380E+02 -0.32149233646E+02  0.17935469102E+03  0.16500000000E+03 0.  0.
   -5000001    1    1    2    0    0 -0.49081968961E+02  0.38736188380E+02  0.59473562143E+02  0.18620321308E+03  0.16500000000E+03 0.  0.
<mgrwt>
<rscale>  0 0.36453527E+03</rscale>
<asrwt>0</asrwt>
<pdfrwt beam="1">  1        2 0.30221710E-01 0.36453527E+03</pdfrwt>
<pdfrwt beam="2">  1       -2 0.26017967E-01 0.36453527E+03</pdfrwt>
<totfact> 0.23144164E+03</totfact>
</mgrwt>
</event>
<event>
 4    1  0.1573232E-005  0.7958876E+03  0.7818608E-02  0.9565989E-01
         -2   -1    0    0    0  501 -0.00000000000E+00  0.00000000000E+00  0.12517351711E+03  0.12517351714E+03  0.25500000000E-02 0. -1.
          2   -1    0    0  501    0  0.00000000000E+00 -0.00000000000E+00 -0.12651179054E+04  0.12651179054E+04  0.25500000000E-02 0.  1.
    5000001    1    1    2    0    0 -0.13354687859E+03  0.33461363360E+03 -0.50618953468E+03  0.64284826949E+03  0.16500000000E+03 0.  0.
   -5000001    1    1    2    0    0  0.13354687859E+03 -0.33461363360E+03 -0.63375485363E+03  0.74744315307E+03  0.16500000000E+03 0.  0.
<mgrwt>
<rscale>  0 0.79588757E+03</rscale>
<asrwt>0</asrwt>
<pdfrwt beam="1">  1        2 0.19463352E+00 0.79588757E+03</pdfrwt>
<pdfrwt beam="2">  1       -2 0.19257465E-01 0.79588757E+03</pdfrwt>
<totfact> 0.39780364E+02</totfact>
</mgrwt>
</event>
<event>
 4    1  0.1573232E-005  0.3729872E+03  0.7818608E-02  0.1053557E+00
         -2   -1    0    0    0  501 -0.00000000000E+00  0.00000000000E+00  0.22724457826E+03  0.22724457827E+03  0.25500000000E-02 0. -1.
          2   -1    0    0  501    0  0.00000000000E+00 -0.00000000000E+00 -0.15305036752E+03  0.15305036754E+03  0.25500000000E-02 0.  1.
    5000001    1    1    2    0    0  0.33962616727E+02  0.63365774517E+02 -0.12708555438E+02  0.18043056309E+03  0.16500000000E+03 0.  0.
   -5000001    1    1    2    0    0 -0.33962616727E+02 -0.63365774517E+02  0.86902766172E+02  0.19986438273E+03  0.16500000000E+03 0.  0.
<mgrwt>
<rscale>  0 0.37298722E+03</rscale>
<asrwt>0</asrwt>
<pdfrwt beam="1">  1        2 0.23546210E-01 0.37298722E+03</pdfrwt>
<pdfrwt beam="2">  1       -2 0.34960704E-01 0.37298722E+03</pdfrwt>
<totfact> 0.17831227E+03</totfact>
</mgrwt>
</event>
<event>
 4    1  0.1573232E-005  0.9580107E+03  0.7818608E-02  0.9355836E-01
         -2   -1    0    0    0  501 -0.00000000000E+00  0.00000000000E+00  0.34905988349E+03  0.34905988350E+03  0.25500000000E-02 0. -1.
          2   -1    0    0  501    0  0.00000000000E+00 -0.00000000000E+00 -0.65732592388E+03  0.65732592388E+03  0.25500000000E-02 0.  1.
    5000001    1    1    2    0    0 -0.24641767066E+03  0.37566659468E+03 -0.17445003694E+03  0.50941620917E+03  0.16500000000E+03 0.  0.
   -5000001    1    1    2    0    0  0.24641767066E+03 -0.37566659468E+03 -0.13381600345E+03  0.49696959822E+03  0.16500000000E+03 0.  0.
<mgrwt>
<rscale>  0 0.95801067E+03</rscale>
<asrwt>0</asrwt>
<pdfrwt beam="1">  1        2 0.10112706E+00 0.95801067E+03</pdfrwt>
<pdfrwt beam="2">  1       -2 0.53701521E-01 0.95801067E+03</pdfrwt>
<totfact> 0.14498986E+02</totfact>
</mgrwt>
</event>
<event>
 4    1  0.1573232E-005  0.8136736E+03  0.7818608E-02  0.9540433E-01
         -2   -1    0    0    0  501 -0.00000000000E+00  0.00000000000E+00  0.12403402619E+03  0.12403402622E+03  0.25500000000E-02 0. -1.
          2   -1    0    0  501    0  0.00000000000E+00 -0.00000000000E+00 -0.13344418688E+04  0.13344418688E+04  0.25500000000E-02 0.  1.
    5000001    1    1    2    0    0 -0.26068619007E+03  0.10381508359E+03 -0.10426383855E+04  0.10922704172E+04  0.16500000000E+03 0.  0.
   -5000001    1    1    2    0    0  0.26068619007E+03 -0.10381508359E+03 -0.16776945709E+03  0.36620547785E+03  0.16500000000E+03 0.  0.
<mgrwt>
<rscale>  0 0.81367364E+03</rscale>
<asrwt>0</asrwt>
<pdfrwt beam="1">  1        2 0.20529874E+00 0.81367364E+03</pdfrwt>
<pdfrwt beam="2">  1       -2 0.19082159E-01 0.81367364E+03</pdfrwt>
<totfact> 0.36822568E+02</totfact>
</mgrwt>
</event>
<event>
 4    1  0.1573232E-005  0.5519042E+03  0.7818608E-02  0.1001054E+00
          2   -1    0    0  501    0  0.00000000000E+00  0.00000000000E+00  0.58526245867E+03  0.58526245867E+03  0.25500000000E-02 0.  1.
         -2   -1    0    0    0  501 -0.00000000000E+00 -0.00000000000E+00 -0.13011180891E+03  0.13011180894E+03  0.25500000000E-02 0. -1.
    5000001    1    1    2    0    0  0.10533496858E+03  0.18127708146E+03  0.13621697635E+03  0.29956117991E+03  0.16500000000E+03 0.  0.
   -5000001    1    1    2    0    0 -0.10533496858E+03 -0.18127708146E+03  0.31893367341E+03  0.41581308770E+03  0.16500000000E+03 0.  0.
<mgrwt>
<rscale>  0 0.55190418E+03</rscale>
<asrwt>0</asrwt>
<pdfrwt beam="1">  1        2 0.90040379E-01 0.55190418E+03</pdfrwt>
<pdfrwt beam="2">  1       -2 0.20017201E-01 0.55190418E+03</pdfrwt>
<totfact> 0.10920010E+03</totfact>
</mgrwt>
</event>
<event>
 4    1  0.1573232E-005  0.6027383E+03  0.7818608E-02  0.9899741E-01
         -2   -1    0    0    0  501 -0.00000000000E+00  0.00000000000E+00  0.13118663406E+03  0.13118663408E+03  0.25500000000E-02 0. -1.
          2   -1    0    0  501    0  0.00000000000E+00 -0.00000000000E+00 -0.69232171041E+03  0.69232171042E+03  0.25500000000E-02 0.  1.
    5000001    1    1    2    0    0  0.16509921367E+03 -0.12785743175E+03 -0.87379999860E+02  0.28011700696E+03  0.16500000000E+03 0.  0.
   -5000001    1    1    2    0    0 -0.16509921367E+03  0.12785743175E+03 -0.47375507650E+03  0.54339133754E+03  0.16500000000E+03 0.  0.
<mgrwt>
<rscale>  0 0.60273827E+03</rscale>
<asrwt>0</asrwt>
<pdfrwt beam="1">  1        2 0.10651103E+00 0.60273827E+03</pdfrwt>
<pdfrwt beam="2">  1       -2 0.20182559E-01 0.60273827E+03</pdfrwt>
<totfact> 0.87682611E+02</totfact>
</mgrwt>
</event>
<event>
 4    1  0.1573232E-005  0.4598012E+03  0.7818608E-02  0.1024839E+00
         -2   -1    0    0    0  501 -0.00000000000E+00  0.00000000000E+00  0.50579430686E+03  0.50579430687E+03  0.25500000000E-02 0. -1.
          2   -1    0    0  501    0  0.00000000000E+00 -0.00000000000E+00 -0.10449756974E+03  0.10449756977E+03  0.25500000000E-02 0.  1.
    5000001    1    1    2    0    0  0.31034175448E+02 -0.15030078402E+03  0.14017510078E+03  0.26538180910E+03  0.16500000000E+03 0.  0.
   -5000001    1    1    2    0    0 -0.31034175448E+02  0.15030078402E+03  0.26112163634E+03  0.34491006754E+03  0.16500000000E+03 0.  0.
<mgrwt>
<rscale>  0 0.45980116E+03</rscale>
<asrwt>0</asrwt>
<pdfrwt beam="1">  1        2 0.16076549E-01 0.45980116E+03</pdfrwt>
<pdfrwt beam="2">  1       -2 0.77814511E-01 0.45980116E+03</pdfrwt>
<totfact> 0.54644387E+02</totfact>
</mgrwt>
</event>
<event>
 4    1  0.1573232E-005  0.3955336E+03  0.7818608E-02  0.1045337E+00
          2   -1    0    0  501    0  0.00000000000E+00  0.00000000000E+00  0.14292002047E+04  0.14292002047E+04  0.25500000000E-02 0.  1.
         -2   -1    0    0    0  501 -0.00000000000E+00 -0.00000000000E+00 -0.27366144088E+02  0.27366144206E+02  0.25500000000E-02 0. -1.
    5000001    1    1    2    0    0  0.58185225680E+02 -0.85114164681E+02  0.83146575854E+03  0.85392637220E+03  0.16500000000E+03 0.  0.
   -5000001    1    1    2    0    0 -0.58185225680E+02  0.85114164681E+02  0.57036830208E+03  0.60263997671E+03  0.16500000000E+03 0.  0.
<mgrwt>
<rscale>  0 0.39553356E+03</rscale>
<asrwt>0</asrwt>
<pdfrwt beam="1">  1        2 0.21987697E+00 0.39553356E+03</pdfrwt>
<pdfrwt beam="2">  1       -2 0.42101757E-02 0.39553356E+03</pdfrwt>
<totfact> 0.37968675E+03</totfact>
</mgrwt>
</event>
<event>
 4    1  0.1573232E-005  0.6136601E+03  0.7818608E-02  0.9877464E-01
          2   -1    0    0  501    0  0.00000000000E+00  0.00000000000E+00  0.28122008565E+03  0.28122008567E+03  0.25500000000E-02 0.  1.
         -2   -1    0    0    0  501 -0.00000000000E+00 -0.00000000000E+00 -0.33477224221E+03  0.33477224222E+03  0.25500000000E-02 0. -1.
    5000001    1    1    2    0    0 -0.70740419162E+02  0.14295790329E+03 -0.23121283872E+03  0.32576916031E+03  0.16500000000E+03 0.  0.
   -5000001    1    1    2    0    0  0.70740419162E+02 -0.14295790329E+03  0.17766068216E+03  0.29022316758E+03  0.16500000000E+03 0.  0.
<mgrwt>
<rscale>  0 0.61366010E+03</rscale>
<asrwt>0</asrwt>
<pdfrwt beam="1">  1        2 0.43264629E-01 0.61366010E+03</pdfrwt>
<pdfrwt beam="2">  1       -2 0.51503421E-01 0.61366010E+03</pdfrwt>
<totfact> 0.42411566E+02</totfact>
</mgrwt>
</event>
<event>
 4    1  0.1573232E-005  0.5386942E+03  0.7818608E-02  0.1004145E+00
          2   -1    0    0  501    0  0.00000000000E+00  0.00000000000E+00  0.88529289322E+03  0.88529289322E+03  0.25500000000E-02 0.  1.
         -2   -1    0    0    0  501 -0.00000000000E+00 -0.00000000000E+00 -0.81947871541E+02  0.81947871580E+02  0.25500000000E-02 0. -1.
    5000001    1    1    2    0    0 -0.62880135167E+02 -0.18841760646E+03  0.26413266560E+03  0.36938620827E+03  0.16500000000E+03 0.  0.
   -5000001    1    1    2    0    0  0.62880135167E+02  0.18841760646E+03  0.53921235608E+03  0.59785455653E+03  0.16500000000E+03 0.  0.
<mgrwt>
<rscale>  0 0.53869423E+03</rscale>
<asrwt>0</asrwt>
<pdfrwt beam="1">  1        2 0.13619891E+00 0.53869423E+03</pdfrwt>
<pdfrwt beam="2">  1       -2 0.12607365E-01 0.53869423E+03</pdfrwt>
<totfact> 0.14145245E+03</totfact>
</mgrwt>
</event>
<event>
 4    1  0.1573232E-005  0.8154536E+03  0.7818608E-02  0.9537914E-01
         -2   -1    0    0    0  501 -0.00000000000E+00  0.00000000000E+00  0.14988242383E+03  0.14988242385E+03  0.25500000000E-02 0. -1.
          2   -1    0    0  501    0  0.00000000000E+00 -0.00000000000E+00 -0.11091436359E+04  0.11091436359E+04  0.25500000000E-02 0.  1.
    5000001    1    1    2    0    0 -0.10370014760E+02  0.37207984211E+03 -0.51293111388E+03  0.65488493164E+03  0.16500000000E+03 0.  0.
   -5000001    1    1    2    0    0  0.10370014760E+02 -0.37207984211E+03 -0.44633009817E+03  0.60414112808E+03  0.16500000000E+03 0.  0.
<mgrwt>
<rscale>  0 0.81545358E+03</rscale>
<asrwt>0</asrwt>
<pdfrwt beam="1">  1        2 0.17063748E+00 0.81545358E+03</pdfrwt>
<pdfrwt beam="2">  1       -2 0.23058835E-01 0.81545358E+03</pdfrwt>
<totfact> 0.35824725E+02</totfact>
</mgrwt>
</event>
<event>
 4    1  0.1573232E-005  0.4208833E+03  0.7818608E-02  0.1036779E+00
         -2   -1    0    0    0  501 -0.00000000000E+00  0.00000000000E+00  0.22371872046E+03  0.22371872048E+03  0.25500000000E-02 0. -1.
          2   -1    0    0  501    0  0.00000000000E+00 -0.00000000000E+00 -0.19795251159E+03  0.19795251160E+03  0.25500000000E-02 0.  1.
    5000001    1    1    2    0    0 -0.10888556260E+03  0.40968042471E+02  0.72376398444E+02  0.21447095211E+03  0.16500000000E+03 0.  0.
   -5000001    1    1    2    0    0  0.10888556260E+03 -0.40968042471E+02 -0.46610189571E+02  0.20720027997E+03  0.16500000000E+03 0.  0.
<mgrwt>
<rscale>  0 0.42088327E+03</rscale>
<asrwt>0</asrwt>
<pdfrwt beam="1">  1        2 0.30454233E-01 0.42088327E+03</pdfrwt>
<pdfrwt beam="2">  1       -2 0.34418265E-01 0.42088327E+03</pdfrwt>
<totfact> 0.13772833E+03</totfact>
</mgrwt>
</event>
<event>
 4    1  0.1573232E-005  0.4923245E+03  0.7818608E-02  0.1015802E+00
          2   -1    0    0  501    0  0.00000000000E+00  0.00000000000E+00  0.16409596926E+04  0.16409596926E+04  0.25500000000E-02 0.  1.
         -2   -1    0    0    0  501 -0.00000000000E+00 -0.00000000000E+00 -0.36927077828E+02  0.36927077916E+02  0.25500000000E-02 0. -1.
    5000001    1    1    2    0    0 -0.10681980237E+01  0.15124350293E+03  0.45287222547E+03  0.50516728994E+03  0.16500000000E+03 0.  0.
   -5000001    1    1    2    0    0  0.10681980237E+01 -0.15124350293E+03  0.11511603893E+04  0.11727194806E+04  0.16500000000E+03 0.  0.
<mgrwt>
<rscale>  0 0.49232447E+03</rscale>
<asrwt>0</asrwt>
<pdfrwt beam="1">  1        2 0.25245529E+00 0.49232447E+03</pdfrwt>
<pdfrwt beam="2">  1       -2 0.56810899E-02 0.49232447E+03</pdfrwt>
<totfact> 0.18321755E+03</totfact>
</mgrwt>
</event>
<event>
 4    1  0.1573232E-005  0.3856578E+03  0.7818608E-02  0.1048862E+00
          2   -1    0    0  501    0  0.00000000000E+00  0.00000000000E+00  0.17778064148E+03  0.17778064150E+03  0.25500000000E-02 0.  1.
         -2   -1    0    0    0  501 -0.00000000000E+00 -0.00000000000E+00 -0.20915093445E+03  0.20915093447E+03  0.25500000000E-02 0. -1.
    5000001    1    1    2    0    0 -0.40452352219E+02  0.90598638977E+02 -0.26373082265E+02  0.19433230728E+03  0.16500000000E+03 0.  0.
   -5000001    1    1    2    0    0  0.40452352219E+02 -0.90598638977E+02 -0.49972107099E+01  0.19259926869E+03  0.16500000000E+03 0.  0.
<mgrwt>
<rscale>  0 0.38565781E+03</rscale>
<asrwt>0</asrwt>
<pdfrwt beam="1">  1        2 0.27350868E-01 0.38565781E+03</pdfrwt>
<pdfrwt beam="2">  1       -2 0.32177067E-01 0.38565781E+03</pdfrwt>
<totfact> 0.17587429E+03</totfact>
</mgrwt>
</event>
<event>
 4    1  0.1573232E-005  0.3813946E+03  0.7818608E-02  0.1050420E+00
         -2   -1    0    0    0  501 -0.00000000000E+00  0.00000000000E+00  0.41041389557E+02  0.41041389637E+02  0.25500000000E-02 0. -1.
          2   -1    0    0  501    0  0.00000000000E+00 -0.00000000000E+00 -0.88606786568E+03  0.88606786568E+03  0.25500000000E-02 0.  1.
    5000001    1    1    2    0    0 -0.61529191699E+02  0.71629913851E+02 -0.45887607965E+03  0.49669803952E+03  0.16500000000E+03 0.  0.
   -5000001    1    1    2    0    0  0.61529191699E+02 -0.71629913851E+02 -0.38615039647E+03  0.43041121580E+03  0.16500000000E+03 0.  0.
<mgrwt>
<rscale>  0 0.38139458E+03</rscale>
<asrwt>0</asrwt>
<pdfrwt beam="1">  1        2 0.13631812E+00 0.38139458E+03</pdfrwt>
<pdfrwt beam="2">  1       -2 0.63140606E-02 0.38139458E+03</pdfrwt>
<totfact> 0.42638860E+03</totfact>
</mgrwt>
</event>
<event>
 4    1  0.1573232E-005  0.4431437E+03  0.7818608E-02  0.1029787E+00
          2   -1    0    0  501    0  0.00000000000E+00  0.00000000000E+00  0.64108557012E+03  0.64108557012E+03  0.25500000000E-02 0.  1.
         -2   -1    0    0    0  501 -0.00000000000E+00 -0.00000000000E+00 -0.76579599881E+02  0.76579599923E+02  0.25500000000E-02 0. -1.
    5000001    1    1    2    0    0 -0.13786173223E+03  0.20874676437E+02  0.20246196712E+03  0.29607002121E+03  0.16500000000E+03 0.  0.
   -5000001    1    1    2    0    0  0.13786173223E+03 -0.20874676437E+02  0.36204400312E+03  0.42159514884E+03  0.16500000000E+03 0.  0.
<mgrwt>
<rscale>  0 0.44314366E+03</rscale>
<asrwt>0</asrwt>
<pdfrwt beam="1">  1        2 0.98628546E-01 0.44314366E+03</pdfrwt>
<pdfrwt beam="2">  1       -2 0.11781477E-01 0.44314366E+03</pdfrwt>
<totfact> 0.23890711E+03</totfact>
</mgrwt>
</event>
<event>
 4    1  0.1573232E-005  0.4374693E+03  0.7818608E-02  0.1031526E+00
          2   -1    0    0  501    0  0.00000000000E+00  0.00000000000E+00  0.36692262736E+04  0.36692262736E+04  0.25500000000E-02 0.  1.
         -2   -1    0    0    0  501 -0.00000000000E+00 -0.00000000000E+00 -0.13039494232E+02  0.13039494482E+02  0.25500000000E-02 0. -1.
    5000001    1    1    2    0    0 -0.10770176665E+03  0.94154997632E+01  0.26235756858E+04  0.26309813191E+04  0.16500000000E+03 0.  0.
   -5000001    1    1    2    0    0  0.10770176665E+03 -0.94154997632E+01  0.10326110935E+04  0.10512844490E+04  0.16500000000E+03 0.  0.
<mgrwt>
<rscale>  0 0.43746934E+03</rscale>
<asrwt>0</asrwt>
<pdfrwt beam="1">  1        2 0.56449654E+00 0.43746934E+03</pdfrwt>
<pdfrwt beam="2">  1       -2 0.20060754E-02 0.43746934E+03</pdfrwt>
<totfact> 0.57920222E+02</totfact>
</mgrwt>
</event>
<event>
 4    1  0.1573232E-005  0.4887409E+03  0.7818608E-02  0.1016760E+00
         -2   -1    0    0    0  501 -0.00000000000E+00  0.00000000000E+00  0.12640788777E+03  0.12640788780E+03  0.25500000000E-02 0. -1.
          2   -1    0    0  501    0  0.00000000000E+00 -0.00000000000E+00 -0.47241445256E+03  0.47241445257E+03  0.25500000000E-02 0.  1.
    5000001    1    1    2    0    0  0.17405470056E+03 -0.45313453564E+02 -0.18768388868E+03  0.30789379651E+03  0.16500000000E+03 0.  0.
   -5000001    1    1    2    0    0 -0.17405470056E+03  0.45313453564E+02 -0.15832267611E+03  0.29092854386E+03  0.16500000000E+03 0.  0.
<mgrwt>
<rscale>  0 0.48874088E+03</rscale>
<asrwt>0</asrwt>
<pdfrwt beam="1">  1        2 0.72679146E-01 0.48874088E+03</pdfrwt>
<pdfrwt beam="2">  1       -2 0.19447368E-01 0.48874088E+03</pdfrwt>
<totfact> 0.14718896E+03</totfact>
</mgrwt>
</event>
<event>
 4    1  0.1573232E-005  0.4591096E+03  0.7818608E-02  0.1025040E+00
          2   -1    0    0  501    0  0.00000000000E+00  0.00000000000E+00  0.42345691834E+03  0.42345691834E+03  0.25500000000E-02 0.  1.
         -2   -1    0    0    0  501 -0.00000000000E+00 -0.00000000000E+00 -0.12444101244E+03  0.12444101247E+03  0.25500000000E-02 0. -1.
    5000001    1    1    2    0    0  0.14742599061E+03 -0.24686044935E+02  0.21623752505E+03  0.31036670369E+03  0.16500000000E+03 0.  0.
   -5000001    1    1    2    0    0 -0.14742599061E+03  0.24686044935E+02  0.82778380845E+02  0.23753122712E+03  0.16500000000E+03 0.  0.
<mgrwt>
<rscale>  0 0.45910961E+03</rscale>
<asrwt>0</asrwt>
<pdfrwt beam="1">  1        2 0.65147218E-01 0.45910961E+03</pdfrwt>
<pdfrwt beam="2">  1       -2 0.19144771E-01 0.45910961E+03</pdfrwt>
<totfact> 0.17096986E+03</totfact>
</mgrwt>
</event>
<event>
 4    1  0.1573232E-005  0.4912218E+03  0.7818608E-02  0.1016096E+00
         -2   -1    0    0    0  501 -0.00000000000E+00  0.00000000000E+00  0.17240330882E+02  0.17240331070E+02  0.25500000000E-02 0. -1.
          2   -1    0    0  501    0  0.00000000000E+00 -0.00000000000E+00 -0.34990458003E+04  0.34990458003E+04  0.25500000000E-02 0.  1.
    5000001    1    1    2    0    0 -0.17818258281E+03 -0.89713903222E+01 -0.19960205453E+04  0.20107591940E+04  0.16500000000E+03 0.  0.
   -5000001    1    1    2    0    0  0.17818258281E+03  0.89713903222E+01 -0.14857849241E+04  0.15055269374E+04  0.16500000000E+03 0.  0.
<mgrwt>
<rscale>  0 0.49122177E+03</rscale>
<asrwt>0</asrwt>
<pdfrwt beam="1">  1        2 0.53831418E+00 0.49122177E+03</pdfrwt>
<pdfrwt beam="2">  1       -2 0.26523614E-02 0.49122177E+03</pdfrwt>
<totfact> 0.49480417E+02</totfact>
</mgrwt>
</event>
<event>
 4    1  0.1573232E-005  0.4665234E+03  0.7818608E-02  0.1022906E+00
         -2   -1    0    0    0  501 -0.00000000000E+00  0.00000000000E+00  0.20890298872E+02  0.20890299028E+02  0.25500000000E-02 0. -1.
          2   -1    0    0  501    0  0.00000000000E+00 -0.00000000000E+00 -0.26046068085E+04  0.26046068085E+04  0.25500000000E-02 0.  1.
    5000001    1    1    2    0    0  0.12448217384E+03 -0.93095478014E+02 -0.98240969098E+03  0.10082243702E+04  0.16500000000E+03 0.  0.
   -5000001    1    1    2    0    0 -0.12448217384E+03  0.93095478014E+02 -0.16013068187E+04  0.16172727374E+04  0.16500000000E+03 0.  0.
<mgrwt>
<rscale>  0 0.46652338E+03</rscale>
<asrwt>0</asrwt>
<pdfrwt beam="1">  1        2 0.40070848E+00 0.46652338E+03</pdfrwt>
<pdfrwt beam="2">  1       -2 0.32138942E-02 0.46652338E+03</pdfrwt>
<totfact> 0.13126392E+03</totfact>
</mgrwt>
</event>
<event>
 4    1  0.1573232E-005  0.5165222E+03  0.7818608E-02  0.1009554E+00
          2   -1    0    0  501    0  0.00000000000E+00  0.00000000000E+00  0.26149186617E+03  0.26149186618E+03  0.25500000000E-02 0.  1.
         -2   -1    0    0    0  501 -0.00000000000E+00 -0.00000000000E+00 -0.25507020959E+03  0.25507020960E+03  0.25500000000E-02 0. -1.
    5000001    1    1    2    0    0  0.31169761896E+02  0.19305888368E+03 -0.31870344558E+02  0.25784492527E+03  0.16500000000E+03 0.  0.
   -5000001    1    1    2    0    0 -0.31169761896E+02 -0.19305888368E+03  0.38292001140E+02  0.25871715052E+03  0.16500000000E+03 0.  0.
<mgrwt>
<rscale>  0 0.51652216E+03</rscale>
<asrwt>0</asrwt>
<pdfrwt beam="1">  1        2 0.40229518E-01 0.51652216E+03</pdfrwt>
<pdfrwt beam="2">  1       -2 0.39241571E-01 0.51652216E+03</pdfrwt>
<totfact> 0.78913990E+02</totfact>
</mgrwt>
</event>
<event>
 4    1  0.1573232E-005  0.6385785E+03  0.7818608E-02  0.9828450E-01
         -2   -1    0    0    0  501 -0.00000000000E+00  0.00000000000E+00  0.54169281094E+02  0.54169281154E+02  0.25500000000E-02 0. -1.
          2   -1    0    0  501    0  0.00000000000E+00 -0.00000000000E+00 -0.18819820914E+04  0.18819820914E+04  0.25500000000E-02 0.  1.
    5000001    1    1    2    0    0 -0.18106077557E+03  0.19946861820E+03 -0.77332352569E+03  0.83535920986E+03  0.16500000000E+03 0.  0.
   -5000001    1    1    2    0    0  0.18106077557E+03 -0.19946861820E+03 -0.10544892846E+04  0.11007921627E+04  0.16500000000E+03 0.  0.
<mgrwt>
<rscale>  0 0.63857847E+03</rscale>
<asrwt>0</asrwt>
<pdfrwt beam="1">  1        2 0.28953566E+00 0.63857847E+03</pdfrwt>
<pdfrwt beam="2">  1       -2 0.83337370E-02 0.63857847E+03</pdfrwt>
<totfact> 0.73586564E+02</totfact>
</mgrwt>
</event>
<event>
 4    1  0.1573232E-005  0.7340583E+03  0.7818608E-02  0.9660698E-01
         -2   -1    0    0    0  501 -0.00000000000E+00  0.00000000000E+00  0.26967000309E+03  0.26967000311E+03  0.25500000000E-02 0. -1.
          2   -1    0    0  501    0  0.00000000000E+00 -0.00000000000E+00 -0.49953795798E+03  0.49953795799E+03  0.25500000000E-02 0.  1.
    5000001    1    1    2    0    0  0.32080116032E+03 -0.51982712040E+02 -0.69622040395E+02  0.37106308806E+03  0.16500000000E+03 0.  0.
   -5000001    1    1    2    0    0 -0.32080116032E+03  0.51982712040E+02 -0.16024591449E+03  0.39814487303E+03  0.16500000000E+03 0.  0.
<mgrwt>
<rscale>  0 0.73405832E+03</rscale>
<asrwt>0</asrwt>
<pdfrwt beam="1">  1        2 0.76851994E-01 0.73405832E+03</pdfrwt>
<pdfrwt beam="2">  1       -2 0.41487693E-01 0.73405832E+03</pdfrwt>
<totfact> 0.34194419E+02</totfact>
</mgrwt>
</event>
<event>
 4    1  0.1573232E-005  0.4692783E+03  0.7818608E-02  0.1022124E+00
         -2   -1    0    0    0  501 -0.00000000000E+00  0.00000000000E+00  0.28823114821E+02  0.28823114934E+02  0.25500000000E-02 0. -1.
          2   -1    0    0  501    0  0.00000000000E+00 -0.00000000000E+00 -0.19101174976E+04  0.19101174976E+04  0.25500000000E-02 0.  1.
    5000001    1    1    2    0    0  0.13442951963E+03 -0.16603355394E+02 -0.53828245112E+03  0.57906818627E+03  0.16500000000E+03 0.  0.
   -5000001    1    1    2    0    0 -0.13442951963E+03  0.16603355394E+02 -0.13430119317E+04  0.13598724263E+04  0.16500000000E+03 0.  0.
<mgrwt>
<rscale>  0 0.46927832E+03</rscale>
<asrwt>0</asrwt>
<pdfrwt beam="1">  1        2 0.29386413E+00 0.46927832E+03</pdfrwt>
<pdfrwt beam="2">  1       -2 0.44343269E-02 0.46927832E+03</pdfrwt>
<totfact> 0.19268893E+03</totfact>
</mgrwt>
</event>
<event>
 4    1  0.1573232E-005  0.5990099E+03  0.7818608E-02  0.9907462E-01
         -2   -1    0    0    0  501 -0.00000000000E+00  0.00000000000E+00  0.57923229392E+03  0.57923229393E+03  0.25500000000E-02 0. -1.
          2   -1    0    0  501    0  0.00000000000E+00 -0.00000000000E+00 -0.15486570998E+03  0.15486571000E+03  0.25500000000E-02 0.  1.
    5000001    1    1    2    0    0 -0.32472393727E+02 -0.94533645642E+02 -0.68584018706E+02  0.20474333722E+03  0.16500000000E+03 0.  0.
   -5000001    1    1    2    0    0  0.32472393727E+02  0.94533645642E+02  0.49295060265E+03  0.52935466671E+03  0.16500000000E+03 0.  0.
<mgrwt>
<rscale>  0 0.59900992E+03</rscale>
<asrwt>0</asrwt>
<pdfrwt beam="1">  1        2 0.23825494E-01 0.59900992E+03</pdfrwt>
<pdfrwt beam="2">  1       -2 0.89112661E-01 0.59900992E+03</pdfrwt>
<totfact> 0.25336755E+02</totfact>
</mgrwt>
</event>
<event>
 4    1  0.1573232E-005  0.5804566E+03  0.7818608E-02  0.9946803E-01
         -2   -1    0    0    0  501 -0.00000000000E+00  0.00000000000E+00  0.79176054498E+02  0.79176054540E+02  0.25500000000E-02 0. -1.
          2   -1    0    0  501    0  0.00000000000E+00 -0.00000000000E+00 -0.10638629917E+04  0.10638629917E+04  0.25500000000E-02 0.  1.
    5000001    1    1    2    0    0 -0.50409768645E+02  0.22699652041E+03 -0.38558941507E+03  0.47955475398E+03  0.16500000000E+03 0.  0.
   -5000001    1    1    2    0    0  0.50409768645E+02 -0.22699652041E+03 -0.59909752212E+03  0.66348429225E+03  0.16500000000E+03 0.  0.
<mgrwt>
<rscale>  0 0.58045663E+03</rscale>
<asrwt>0</asrwt>
<pdfrwt beam="1">  1        2 0.16367122E+00 0.58045663E+03</pdfrwt>
<pdfrwt beam="2">  1       -2 0.12180932E-01 0.58045663E+03</pdfrwt>
<totfact> 0.11495129E+03</totfact>
</mgrwt>
</event>
<event>
 4    1  0.1573232E-005  0.4576400E+03  0.7818608E-02  0.1025468E+00
         -2   -1    0    0    0  501 -0.00000000000E+00  0.00000000000E+00  0.32680704947E+02  0.32680705047E+02  0.25500000000E-02 0. -1.
          2   -1    0    0  501    0  0.00000000000E+00 -0.00000000000E+00 -0.16021258441E+04  0.16021258441E+04  0.25500000000E-02 0.  1.
    5000001    1    1    2    0    0  0.91880118878E+02 -0.12411396336E+03 -0.65655031220E+03  0.69435548863E+03  0.16500000000E+03 0.  0.
   -5000001    1    1    2    0    0 -0.91880118878E+02  0.12411396336E+03 -0.91289482696E+03  0.94045106052E+03  0.16500000000E+03 0.  0.
<mgrwt>
<rscale>  0 0.45764004E+03</rscale>
<asrwt>0</asrwt>
<pdfrwt beam="1">  1        2 0.24648084E+00 0.45764004E+03</pdfrwt>
<pdfrwt beam="2">  1       -2 0.50278020E-02 0.45764004E+03</pdfrwt>
<totfact> 0.23261751E+03</totfact>
</mgrwt>
</event>
<event>
 4    1  0.1573232E-005  0.3702997E+03  0.7818608E-02  0.1054578E+00
         -2   -1    0    0    0  501 -0.00000000000E+00  0.00000000000E+00  0.10676344072E+03  0.10676344075E+03  0.25500000000E-02 0. -1.
          2   -1    0    0  501    0  0.00000000000E+00 -0.00000000000E+00 -0.32108812409E+03  0.32108812410E+03  0.25500000000E-02 0.  1.
    5000001    1    1    2    0    0 -0.61855669410E+02  0.40699395073E+02 -0.61338506875E+02  0.19097114186E+03  0.16500000000E+03 0.  0.
   -5000001    1    1    2    0    0  0.61855669410E+02 -0.40699395073E+02 -0.15298617649E+03  0.23688042299E+03  0.16500000000E+03 0.  0.
<mgrwt>
<rscale>  0 0.37029973E+03</rscale>
<asrwt>0</asrwt>
<pdfrwt beam="1">  1        2 0.49398172E-01 0.37029973E+03</pdfrwt>
<pdfrwt beam="2">  1       -2 0.16425145E-01 0.37029973E+03</pdfrwt>
<totfact> 0.30002988E+03</totfact>
</mgrwt>
</event>
<event>
 4    1  0.1573232E-005  0.5662295E+03  0.7818608E-02  0.9978057E-01
         -2   -1    0    0    0  501 -0.00000000000E+00  0.00000000000E+00  0.81912828534E+02  0.81912828574E+02  0.25500000000E-02 0.  1.
          2   -1    0    0  501    0  0.00000000000E+00 -0.00000000000E+00 -0.97852741277E+03  0.97852741277E+03  0.25500000000E-02 0. -1.
    5000001    1    1    2    0    0  0.20573310486E+03  0.12649712907E+02 -0.63968999912E+03  0.69203643014E+03  0.16500000000E+03 0.  0.
   -5000001    1    1    2    0    0 -0.20573310486E+03 -0.12649712907E+02 -0.25692458512E+03  0.36840381121E+03  0.16500000000E+03 0.  0.
<mgrwt>
<rscale>  0 0.56622945E+03</rscale>
<asrwt>0</asrwt>
<pdfrwt beam="1">  1        2 0.15054267E+00 0.56622945E+03</pdfrwt>
<pdfrwt beam="2">  1       -2 0.12601974E-01 0.56622945E+03</pdfrwt>
<totfact> 0.12295271E+03</totfact>
</mgrwt>
</event>
<event>
 4    1  0.1573232E-005  0.5472722E+03  0.7818608E-02  0.1002127E+00
          2   -1    0    0  501    0  0.00000000000E+00  0.00000000000E+00  0.16792297311E+03  0.16792297312E+03  0.25500000000E-02 0.  1.
         -2   -1    0    0    0  501 -0.00000000000E+00 -0.00000000000E+00 -0.44589911942E+03  0.44589911943E+03  0.25500000000E-02 0. -1.
    5000001    1    1    2    0    0  0.21492232191E+03  0.21054835531E+01 -0.96195305937E+02  0.28753186676E+03  0.16500000000E+03 0.  0.
   -5000001    1    1    2    0    0 -0.21492232191E+03 -0.21054835531E+01 -0.18178084038E+03  0.32629022579E+03  0.16500000000E+03 0.  0.
<mgrwt>
<rscale>  0 0.54727217E+03</rscale>
<asrwt>0</asrwt>
<pdfrwt beam="1">  1        2 0.25834304E-01 0.54727217E+03</pdfrwt>
<pdfrwt beam="2">  1       -2 0.68599864E-01 0.54727217E+03</pdfrwt>
<totfact> 0.41394667E+02</totfact>
</mgrwt>
</event>
<event>
 4    1  0.1573232E-005  0.5287242E+03  0.7818608E-02  0.1006542E+00
         -2   -1    0    0    0  501 -0.00000000000E+00  0.00000000000E+00  0.35620118822E+03  0.35620118823E+03  0.25500000000E-02 0. -1.
          2   -1    0    0  501    0  0.00000000000E+00 -0.00000000000E+00 -0.19620184411E+03  0.19620184412E+03  0.25500000000E-02 0.  1.
    5000001    1    1    2    0    0 -0.17269314858E+02  0.18401524966E+03  0.17633816864E+03  0.30410523025E+03  0.16500000000E+03 0.  0.
   -5000001    1    1    2    0    0  0.17269314858E+02 -0.18401524966E+03 -0.16338824521E+02  0.24829780211E+03  0.16500000000E+03 0.  0.
<mgrwt>
<rscale>  0 0.52872424E+03</rscale>
<asrwt>0</asrwt>
<pdfrwt beam="1">  1        2 0.30184899E-01 0.52872424E+03</pdfrwt>
<pdfrwt beam="2">  1       -2 0.54800182E-01 0.52872424E+03</pdfrwt>
<totfact> 0.55786522E+02</totfact>
</mgrwt>
</event>
<event>
 4    1  0.1573232E-005  0.5679385E+03  0.7818608E-02  0.9974251E-01
          2   -1    0    0  501    0  0.00000000000E+00  0.00000000000E+00  0.13174304600E+04  0.13174304600E+04  0.25500000000E-02 0.  1.
         -2   -1    0    0    0  501 -0.00000000000E+00 -0.00000000000E+00 -0.61208939600E+02  0.61208939653E+02  0.25500000000E-02 0. -1.
    5000001    1    1    2    0    0  0.94746965573E+02  0.16172977008E+03  0.29991142910E+03  0.39026320775E+03  0.16500000000E+03 0.  0.
   -5000001    1    1    2    0    0 -0.94746965573E+02 -0.16172977008E+03  0.95631009129E+03  0.98837619191E+03  0.16500000000E+03 0.  0.
<mgrwt>
<rscale>  0 0.56793845E+03</rscale>
<asrwt>0</asrwt>
<pdfrwt beam="1">  1        2 0.20268160E+00 0.56793845E+03</pdfrwt>
<pdfrwt beam="2">  1       -2 0.94167606E-02 0.56793845E+03</pdfrwt>
<totfact> 0.12400615E+03</totfact>
</mgrwt>
</event>
<event>
 4    1  0.1573232E-005  0.3667191E+03  0.7818608E-02  0.1055955E+00
         -2   -1    0    0    0  501 -0.00000000000E+00  0.00000000000E+00  0.22505470067E+03  0.22505470068E+03  0.25500000000E-02 0. -1.
          2   -1    0    0  501    0  0.00000000000E+00 -0.00000000000E+00 -0.14938909055E+03  0.14938909057E+03  0.25500000000E-02 0.  1.
    5000001    1    1    2    0    0 -0.28874729123E+02  0.58202561741E+02 -0.97802180213E+01  0.17760050912E+03  0.16500000000E+03 0.  0.
   -5000001    1    1    2    0    0  0.28874729123E+02 -0.58202561741E+02  0.85445828142E+02  0.19684328214E+03  0.16500000000E+03 0.  0.
<mgrwt>
<rscale>  0 0.36671906E+03</rscale>
<asrwt>0</asrwt>
<pdfrwt beam="1">  1        2 0.22982937E-01 0.36671906E+03</pdfrwt>
<pdfrwt beam="2">  1       -2 0.34623800E-01 0.36671906E+03</pdfrwt>
<totfact> 0.18660205E+03</totfact>
</mgrwt>
</event>
<event>
 4    1  0.1573232E-005  0.3671155E+03  0.7818608E-02  0.1055801E+00
          2   -1    0    0  501    0  0.00000000000E+00  0.00000000000E+00  0.32310204495E+03  0.32310204496E+03  0.25500000000E-02 0.  1.
         -2   -1    0    0    0  501 -0.00000000000E+00 -0.00000000000E+00 -0.10428115129E+03  0.10428115133E+03  0.25500000000E-02 0. -1.
    5000001    1    1    2    0    0 -0.76092626876E+02 -0.24174520068E+02  0.98125969025E+02  0.20791392710E+03  0.16500000000E+03 0.  0.
   -5000001    1    1    2    0    0  0.76092626876E+02  0.24174520068E+02  0.12069492463E+03  0.21946926919E+03  0.16500000000E+03 0.  0.
<mgrwt>
<rscale>  0 0.36711553E+03</rscale>
<asrwt>0</asrwt>
<pdfrwt beam="1">  1        2 0.49708006E-01 0.36711553E+03</pdfrwt>
<pdfrwt beam="2">  1       -2 0.16043254E-01 0.36711553E+03</pdfrwt>
<totfact> 0.30995441E+03</totfact>
</mgrwt>
</event>
<event>
 4    1  0.1573232E-005  0.4985439E+03  0.7818608E-02  0.1014160E+00
         -2   -1    0    0    0  501 -0.00000000000E+00  0.00000000000E+00  0.30588666646E+02  0.30588666752E+02  0.25500000000E-02 0.  1.
          2   -1    0    0  501    0  0.00000000000E+00 -0.00000000000E+00 -0.20313573835E+04  0.20313573835E+04  0.25500000000E-02 0. -1.
    5000001    1    1    2    0    0 -0.13621427332E+03 -0.12786067023E+03 -0.10126776991E+04  0.10429016260E+04  0.16500000000E+03 0.  0.
   -5000001    1    1    2    0    0  0.13621427332E+03  0.12786067023E+03 -0.98809101777E+03  0.10190444243E+04  0.16500000000E+03 0.  0.
<mgrwt>
<rscale>  0 0.49854394E+03</rscale>
<asrwt>0</asrwt>
<pdfrwt beam="1">  1        2 0.31251641E+00 0.49854394E+03</pdfrwt>
<pdfrwt beam="2">  1       -2 0.47059503E-02 0.49854394E+03</pdfrwt>
<totfact> 0.15111806E+03</totfact>
</mgrwt>
</event>
<event>
 4    1  0.1573232E-005  0.4666101E+03  0.7818608E-02  0.1022881E+00
         -2   -1    0    0    0  501 -0.00000000000E+00  0.00000000000E+00  0.62589007887E+02  0.62589007939E+02  0.25500000000E-02 0. -1.
          2   -1    0    0  501    0  0.00000000000E+00 -0.00000000000E+00 -0.86966126697E+03  0.86966126698E+03  0.25500000000E-02 0.  1.
    5000001    1    1    2    0    0  0.99145459924E+02  0.10193902016E+03 -0.57051324895E+03  0.61068138442E+03  0.16500000000E+03 0.  0.
   -5000001    1    1    2    0    0 -0.99145459924E+02 -0.10193902016E+03 -0.23655901014E+03  0.32156889049E+03  0.16500000000E+03 0.  0.
<mgrwt>
<rscale>  0 0.46661006E+03</rscale>
<asrwt>0</asrwt>
<pdfrwt beam="1">  1        2 0.13379403E+00 0.46661006E+03</pdfrwt>
<pdfrwt beam="2">  1       -2 0.96290787E-02 0.46661006E+03</pdfrwt>
<totfact> 0.22486999E+03</totfact>
</mgrwt>
</event>
<event>
 4    1  0.1573232E-005  0.7133454E+03  0.7818608E-02  0.9694678E-01
          2   -1    0    0  501    0  0.00000000000E+00  0.00000000000E+00  0.36763831129E+04  0.36763831129E+04  0.25500000000E-02 0.  1.
         -2   -1    0    0    0  501 -0.00000000000E+00 -0.00000000000E+00 -0.34603415762E+02  0.34603415856E+02  0.25500000000E-02 0. -1.
    5000001    1    1    2    0    0  0.20212476979E+03  0.15909099396E+03  0.27776765639E+04  0.27944366983E+04  0.16500000000E+03 0.  0.
   -5000001    1    1    2    0    0 -0.20212476979E+03 -0.15909099396E+03  0.86410313325E+03  0.91654983051E+03  0.16500000000E+03 0.  0.
<mgrwt>
<rscale>  0 0.71334540E+03</rscale>
<asrwt>0</asrwt>
<pdfrwt beam="1">  1        2 0.56559763E+00 0.71334540E+03</pdfrwt>
<pdfrwt beam="2">  1       -2 0.53236003E-02 0.71334540E+03</pdfrwt>
<totfact> 0.12403990E+02</totfact>
</mgrwt>
</event>
<event>
 4    1  0.1573232E-005  0.5806333E+03  0.7818608E-02  0.9946421E-01
         -2   -1    0    0    0  501 -0.00000000000E+00  0.00000000000E+00  0.66220905961E+02  0.66220906010E+02  0.25500000000E-02 0. -1.
          2   -1    0    0  501    0  0.00000000000E+00 -0.00000000000E+00 -0.12727666001E+04  0.12727666001E+04  0.25500000000E-02 0.  1.
    5000001    1    1    2    0    0 -0.72262058642E+02  0.22528012383E+03 -0.67926226454E+03  0.73796691209E+03  0.16500000000E+03 0.  0.
   -5000001    1    1    2    0    0  0.72262058642E+02 -0.22528012383E+03 -0.52728342964E+03  0.60102059406E+03  0.16500000000E+03 0.  0.
<mgrwt>
<rscale>  0 0.58063330E+03</rscale>
<asrwt>0</asrwt>
<pdfrwt beam="1">  1        2 0.19581023E+00 0.58063330E+03</pdfrwt>
<pdfrwt beam="2">  1       -2 0.10187833E-01 0.58063330E+03</pdfrwt>
<totfact> 0.11574599E+03</totfact>
</mgrwt>
</event>
<event>
 4    1  0.1573232E-005  0.6414005E+03  0.7818608E-02  0.9823051E-01
         -2   -1    0    0    0  501 -0.00000000000E+00  0.00000000000E+00  0.66382360235E+02  0.66382360284E+02  0.25500000000E-02 0. -1.
          2   -1    0    0  501    0  0.00000000000E+00 -0.00000000000E+00 -0.15493368955E+04  0.15493368955E+04  0.25500000000E-02 0.  1.
    5000001    1    1    2    0    0  0.15097380694E+03  0.10348273019E+03 -0.12584771826E+04  0.12823773177E+04  0.16500000000E+03 0.  0.
   -5000001    1    1    2    0    0 -0.15097380694E+03 -0.10348273019E+03 -0.22447735268E+03  0.33334193810E+03  0.16500000000E+03 0.  0.
<mgrwt>
<rscale>  0 0.64140047E+03</rscale>
<asrwt>0</asrwt>
<pdfrwt beam="1">  1        2 0.23835950E+00 0.64140047E+03</pdfrwt>
<pdfrwt beam="2">  1       -2 0.10212672E-01 0.64140047E+03</pdfrwt>
<totfact> 0.80438268E+02</totfact>
</mgrwt>
</event>
<event>
 4    1  0.1573232E-005  0.3856820E+03  0.7818608E-02  0.1048853E+00
          2   -1    0    0  501    0  0.00000000000E+00  0.00000000000E+00  0.16333914475E+03  0.16333914477E+03  0.25500000000E-02 0.  1.
         -2   -1    0    0    0  501 -0.00000000000E+00 -0.00000000000E+00 -0.22767138128E+03  0.22767138130E+03  0.25500000000E-02 0. -1.
    5000001    1    1    2    0    0 -0.62629229437E+02  0.46216810366E+02  0.31181028094E+02  0.18508287455E+03  0.16500000000E+03 0.  0.
   -5000001    1    1    2    0    0  0.62629229437E+02 -0.46216810366E+02 -0.95513264622E+02  0.20592765152E+03  0.16500000000E+03 0.  0.
<mgrwt>
<rscale>  0 0.38568199E+03</rscale>
<asrwt>0</asrwt>
<pdfrwt beam="1">  1        2 0.25129099E-01 0.38568199E+03</pdfrwt>
<pdfrwt beam="2">  1       -2 0.35026366E-01 0.38568199E+03</pdfrwt>
<totfact> 0.16513689E+03</totfact>
</mgrwt>
</event>
<event>
 4    1  0.1573232E-005  0.4147114E+03  0.7818608E-02  0.1038801E+00
          2   -1    0    0  501    0  0.00000000000E+00  0.00000000000E+00  0.49535852202E+03  0.49535852203E+03  0.25500000000E-02 0.  1.
         -2   -1    0    0    0  501 -0.00000000000E+00 -0.00000000000E+00 -0.86798531510E+02  0.86798531548E+02  0.25500000000E-02 0. -1.
    5000001    1    1    2    0    0 -0.54726818456E+02  0.76892211643E+02  0.32058044311E+03  0.37269861466E+03  0.16500000000E+03 0.  0.
   -5000001    1    1    2    0    0  0.54726818456E+02 -0.76892211643E+02  0.87979547402E+02  0.20945843891E+03  0.16500000000E+03 0.  0.
<mgrwt>
<rscale>  0 0.41471143E+03</rscale>
<asrwt>0</asrwt>
<pdfrwt beam="1">  1        2 0.76209002E-01 0.41471143E+03</pdfrwt>
<pdfrwt beam="2">  1       -2 0.13353621E-01 0.41471143E+03</pdfrwt>
<totfact> 0.26270959E+03</totfact>
</mgrwt>
</event>
<event>
 4    1  0.1573232E-005  0.5891818E+03  0.7818608E-02  0.9928108E-01
          2   -1    0    0  501    0  0.00000000000E+00  0.00000000000E+00  0.80518516670E+03  0.80518516670E+03  0.25500000000E-02 0.  1.
         -2   -1    0    0    0  501 -0.00000000000E+00 -0.00000000000E+00 -0.10778115901E+03  0.10778115904E+03  0.25500000000E-02 0. -1.
    5000001    1    1    2    0    0 -0.11894783736E+03  0.20716970985E+03  0.27136545177E+03  0.39740669988E+03  0.16500000000E+03 0.  0.
   -5000001    1    1    2    0    0  0.11894783736E+03 -0.20716970985E+03  0.42603855592E+03  0.51555962587E+03  0.16500000000E+03 0.  0.
<mgrwt>
<rscale>  0 0.58918177E+03</rscale>
<asrwt>0</asrwt>
<pdfrwt beam="1">  1        2 0.12387464E+00 0.58918177E+03</pdfrwt>
<pdfrwt beam="2">  1       -2 0.16581716E-01 0.58918177E+03</pdfrwt>
<totfact> 0.10140037E+03</totfact>
</mgrwt>
</event>
<event>
 4    1  0.1573232E-005  0.4497954E+03  0.7818608E-02  0.1027783E+00
          2   -1    0    0  501    0  0.00000000000E+00  0.00000000000E+00  0.15804437864E+04  0.15804437864E+04  0.25500000000E-02 0.  1.
         -2   -1    0    0    0  501 -0.00000000000E+00 -0.00000000000E+00 -0.32003015252E+02  0.32003015354E+02  0.25500000000E-02 0. -1.
    5000001    1    1    2    0    0 -0.71887622354E+02 -0.13290659196E+03  0.85612247167E+03  0.88487438596E+03  0.16500000000E+03 0.  0.
   -5000001    1    1    2    0    0  0.71887622354E+02  0.13290659196E+03  0.69231829949E+03  0.72757241581E+03  0.16500000000E+03 0.  0.
<mgrwt>
<rscale>  0 0.44979536E+03</rscale>
<asrwt>0</asrwt>
<pdfrwt beam="1">  1        2 0.24314524E+00 0.44979536E+03</pdfrwt>
<pdfrwt beam="2">  1       -2 0.49235400E-02 0.44979536E+03</pdfrwt>
<totfact> 0.24689051E+03</totfact>
</mgrwt>
</event>
<event>
 4    1  0.1573232E-005  0.6824011E+03  0.7818608E-02  0.9747811E-01
          2   -1    0    0  501    0  0.00000000000E+00  0.00000000000E+00  0.12259467625E+04  0.12259467625E+04  0.25500000000E-02 0.  1.
         -2   -1    0    0    0  501 -0.00000000000E+00 -0.00000000000E+00 -0.94961550832E+02  0.94961550866E+02  0.25500000000E-02 0. -1.
    5000001    1    1    2    0    0 -0.25152269305E+03 -0.13043080299E+03  0.38270739689E+03  0.50395020698E+03  0.16500000000E+03 0.  0.
   -5000001    1    1    2    0    0  0.25152269305E+03  0.13043080299E+03  0.74827781475E+03  0.81695810635E+03  0.16500000000E+03 0.  0.
<mgrwt>
<rscale>  0 0.68240107E+03</rscale>
<asrwt>0</asrwt>
<pdfrwt beam="1">  1        2 0.18860718E+00 0.68240107E+03</pdfrwt>
<pdfrwt beam="2">  1       -2 0.14609471E-01 0.68240107E+03</pdfrwt>
<totfact> 0.67654773E+02</totfact>
</mgrwt>
</event>
<event>
 4    1  0.1573232E-005  0.4883760E+03  0.7818608E-02  0.1016858E+00
          2   -1    0    0  501    0  0.00000000000E+00  0.00000000000E+00  0.94279445185E+02  0.94279445220E+02  0.25500000000E-02 0.  1.
         -2   -1    0    0    0  501 -0.00000000000E+00 -0.00000000000E+00 -0.63245784329E+03  0.63245784330E+03  0.25500000000E-02 0. -1.
    5000001    1    1    2    0    0  0.63856507597E+02 -0.15735222429E+02 -0.51843528193E+03  0.54801951821E+03  0.16500000000E+03 0.  0.
   -5000001    1    1    2    0    0 -0.63856507597E+02  0.15735222429E+02 -0.19743116176E+02  0.17871777031E+03  0.16500000000E+03 0.  0.
<mgrwt>
<rscale>  0 0.48837598E+03</rscale>
<asrwt>0</asrwt>
<pdfrwt beam="1">  1        2 0.14504530E-01 0.48837598E+03</pdfrwt>
<pdfrwt beam="2">  1       -2 0.97301204E-01 0.48837598E+03</pdfrwt>
<totfact> 0.37213638E+02</totfact>
</mgrwt>
</event>
<event>
 4    1  0.1573232E-005  0.5083300E+03  0.7818608E-02  0.1011627E+00
         -2   -1    0    0    0  501 -0.00000000000E+00  0.00000000000E+00  0.22496953522E+02  0.22496953667E+02  0.25500000000E-02 0.  1.
          2   -1    0    0  501    0  0.00000000000E+00 -0.00000000000E+00 -0.28714936565E+04  0.28714936565E+04  0.25500000000E-02 0. -1.
    5000001    1    1    2    0    0  0.11020615093E+03 -0.11139308920E+03 -0.20691320761E+04  0.20816066786E+04  0.16500000000E+03 0.  0.
   -5000001    1    1    2    0    0 -0.11020615093E+03  0.11139308920E+03 -0.77986462690E+03  0.81238393160E+03  0.16500000000E+03 0.  0.
<mgrwt>
<rscale>  0 0.50833005E+03</rscale>
<asrwt>0</asrwt>
<pdfrwt beam="1">  1        2 0.44176797E+00 0.50833005E+03</pdfrwt>
<pdfrwt beam="2">  1       -2 0.34610721E-02 0.50833005E+03</pdfrwt>
<totfact> 0.81889630E+02</totfact>
</mgrwt>
</event>
<event>
 4    1  0.1573232E-005  0.4180724E+03  0.7818608E-02  0.1037696E+00
         -2   -1    0    0    0  501 -0.00000000000E+00  0.00000000000E+00  0.21143250463E+02  0.21143250617E+02  0.25500000000E-02 0.  1.
          2   -1    0    0  501    0  0.00000000000E+00 -0.00000000000E+00 -0.20666701378E+04  0.20666701378E+04  0.25500000000E-02 0. -1.
    5000001    1    1    2    0    0  0.72687170677E+02  0.77503579965E+02 -0.13822168555E+04  0.13960797489E+04  0.16500000000E+03 0.  0.
   -5000001    1    1    2    0    0 -0.72687170677E+02 -0.77503579965E+02 -0.66331003178E+03  0.69173363946E+03  0.16500000000E+03 0.  0.
<mgrwt>
<rscale>  0 0.41807236E+03</rscale>
<asrwt>0</asrwt>
<pdfrwt beam="1">  1        2 0.31794909E+00 0.41807236E+03</pdfrwt>
<pdfrwt beam="2">  1       -2 0.32528094E-02 0.41807236E+03</pdfrwt>
<totfact> 0.25519997E+03</totfact>
</mgrwt>
</event>
<event>
 4    1  0.1573232E-005  0.6368154E+03  0.7818608E-02  0.9831839E-01
          2   -1    0    0  501    0  0.00000000000E+00  0.00000000000E+00  0.22766042024E+03  0.22766042026E+03  0.25500000000E-02 0.  1.
         -2   -1    0    0    0  501 -0.00000000000E+00 -0.00000000000E+00 -0.44532758095E+03  0.44532758096E+03  0.25500000000E-02 0. -1.
    5000001    1    1    2    0    0  0.17555416816E+03 -0.13101466810E+03  0.62141082685E+02  0.28119499173E+03  0.16500000000E+03 0.  0.
   -5000001    1    1    2    0    0 -0.17555416816E+03  0.13101466810E+03 -0.27980824339E+03  0.39179300949E+03  0.16500000000E+03 0.  0.
<mgrwt>
<rscale>  0 0.63681540E+03</rscale>
<asrwt>0</asrwt>
<pdfrwt beam="1">  1        2 0.35024680E-01 0.63681540E+03</pdfrwt>
<pdfrwt beam="2">  1       -2 0.68511935E-01 0.63681540E+03</pdfrwt>
<totfact> 0.29417833E+02</totfact>
</mgrwt>
</event>
<event>
 4    1  0.1573232E-005  0.6172860E+03  0.7818608E-02  0.9870178E-01
         -2   -1    0    0    0  501 -0.00000000000E+00  0.00000000000E+00  0.21323650860E+03  0.21323650861E+03  0.25500000000E-02 0. -1.
          2   -1    0    0  501    0  0.00000000000E+00 -0.00000000000E+00 -0.44673640880E+03  0.44673640881E+03  0.25500000000E-02 0.  1.
    5000001    1    1    2    0    0  0.64016845044E+02  0.23343502800E+03 -0.22065839284E+03  0.36674949909E+03  0.16500000000E+03 0.  0.
   -5000001    1    1    2    0    0 -0.64016845044E+02 -0.23343502800E+03 -0.12841507363E+02  0.29322341833E+03  0.16500000000E+03 0.  0.
<mgrwt>
<rscale>  0 0.61728603E+03</rscale>
<asrwt>0</asrwt>
<pdfrwt beam="1">  1        2 0.68728678E-01 0.61728603E+03</pdfrwt>
<pdfrwt beam="2">  1       -2 0.32805617E-01 0.61728603E+03</pdfrwt>
<totfact> 0.61165882E+02</totfact>
</mgrwt>
</event>
<event>
 4    1  0.1573232E-005  0.1326364E+04  0.7818608E-02  0.9008916E-01
          2   -1    0    0  501    0  0.00000000000E+00  0.00000000000E+00  0.27882304609E+04  0.27882304609E+04  0.25500000000E-02 0.  1.
         -2   -1    0    0    0  501 -0.00000000000E+00 -0.00000000000E+00 -0.15773817456E+03  0.15773817458E+03  0.25500000000E-02 0. -1.
    5000001    1    1    2    0    0  0.11530526004E+03 -0.26784643471E+03  0.44077697634E+02  0.33794209417E+03  0.16500000000E+03 0.  0.
   -5000001    1    1    2    0    0 -0.11530526004E+03  0.26784643471E+03  0.25864145887E+04  0.26080265413E+04  0.16500000000E+03 0.  0.
<mgrwt>
<rscale>  0 0.13263640E+04</rscale>
<asrwt>0</asrwt>
<pdfrwt beam="1">  1        2 0.42895848E+00 0.13263640E+04</pdfrwt>
<pdfrwt beam="2">  1       -2 0.24267414E-01 0.13263640E+04</pdfrwt>
<totfact> 0.35092192E+01</totfact>
</mgrwt>
</event>
<event>
 4    1  0.1573232E-005  0.4914079E+03  0.7818608E-02  0.1016046E+00
         -2   -1    0    0    0  501 -0.00000000000E+00  0.00000000000E+00  0.68467684017E+02  0.68467684064E+02  0.25500000000E-02 0. -1.
          2   -1    0    0  501    0  0.00000000000E+00 -0.00000000000E+00 -0.88173628590E+03  0.88173628590E+03  0.25500000000E-02 0.  1.
    5000001    1    1    2    0    0 -0.70706733385E+02  0.15469108252E+03 -0.28107196478E+03  0.36763463186E+03  0.16500000000E+03 0.  0.
   -5000001    1    1    2    0    0  0.70706733385E+02 -0.15469108252E+03 -0.53219663711E+03  0.58256933811E+03  0.16500000000E+03 0.  0.
<mgrwt>
<rscale>  0 0.49140794E+03</rscale>
<asrwt>0</asrwt>
<pdfrwt beam="1">  1        2 0.13565173E+00 0.49140794E+03</pdfrwt>
<pdfrwt beam="2">  1       -2 0.10533490E-01 0.49140794E+03</pdfrwt>
<totfact> 0.19093100E+03</totfact>
</mgrwt>
</event>
<event>
 4    1  0.1573232E-005  0.5774087E+03  0.7818608E-02  0.9953417E-01
         -2   -1    0    0    0  501 -0.00000000000E+00  0.00000000000E+00  0.20102202341E+03  0.20102202342E+03  0.25500000000E-02 0. -1.
          2   -1    0    0  501    0  0.00000000000E+00 -0.00000000000E+00 -0.41463220978E+03  0.41463220978E+03  0.25500000000E-02 0.  1.
    5000001    1    1    2    0    0  0.90788093902E+02 -0.19776974765E+03 -0.69547101248E+01  0.27318257461E+03  0.16500000000E+03 0.  0.
   -5000001    1    1    2    0    0 -0.90788093902E+02  0.19776974765E+03 -0.20665547624E+03  0.34247165859E+03  0.16500000000E+03 0.  0.
<mgrwt>
<rscale>  0 0.57740871E+03</rscale>
<asrwt>0</asrwt>
<pdfrwt beam="1">  1        2 0.63789571E-01 0.57740871E+03</pdfrwt>
<pdfrwt beam="2">  1       -2 0.30926465E-01 0.57740871E+03</pdfrwt>
<totfact> 0.74322708E+02</totfact>
</mgrwt>
</event>
<event>
 4    1  0.1573232E-005  0.4792495E+03  0.7818608E-02  0.1019342E+00
         -2   -1    0    0    0  501 -0.00000000000E+00  0.00000000000E+00  0.49597269038E+03  0.49597269039E+03  0.25500000000E-02 0. -1.
          2   -1    0    0  501    0  0.00000000000E+00 -0.00000000000E+00 -0.11577256521E+03  0.11577256524E+03  0.25500000000E-02 0.  1.
    5000001    1    1    2    0    0 -0.12644926789E+03 -0.11047620734E+03  0.24719417248E+03  0.34135665900E+03  0.16500000000E+03 0.  0.
   -5000001    1    1    2    0    0  0.12644926789E+03  0.11047620734E+03  0.13300595269E+03  0.27038859663E+03  0.16500000000E+03 0.  0.
<mgrwt>
<rscale>  0 0.47924954E+03</rscale>
<asrwt>0</asrwt>
<pdfrwt beam="1">  1        2 0.17811164E-01 0.47924954E+03</pdfrwt>
<pdfrwt beam="2">  1       -2 0.76303490E-01 0.47924954E+03</pdfrwt>
<totfact> 0.50521378E+02</totfact>
</mgrwt>
</event>
<event>
 4    1  0.1573232E-005  0.5597624E+03  0.7818608E-02  0.9992592E-01
         -2   -1    0    0    0  501 -0.00000000000E+00  0.00000000000E+00  0.21778282079E+02  0.21778282229E+02  0.25500000000E-02 0. -1.
          2   -1    0    0  501    0  0.00000000000E+00 -0.00000000000E+00 -0.35968625793E+04  0.35968625793E+04  0.25500000000E-02 0.  1.
    5000001    1    1    2    0    0  0.21782229347E+03 -0.58046003689E+02 -0.16769619244E+04  0.17000712297E+04  0.16500000000E+03 0.  0.
   -5000001    1    1    2    0    0 -0.21782229347E+03  0.58046003689E+02 -0.18981223728E+04  0.19185696318E+04  0.16500000000E+03 0.  0.
<mgrwt>
<rscale>  0 0.55976241E+03</rscale>
<asrwt>0</asrwt>
<pdfrwt beam="1">  1        2 0.55336300E+00 0.55976241E+03</pdfrwt>
<pdfrwt beam="2">  1       -2 0.33505078E-02 0.55976241E+03</pdfrwt>
<totfact> 0.29469013E+02</totfact>
</mgrwt>
</event>
<event>
 4    1  0.1573232E-005  0.4220340E+03  0.7818608E-02  0.1036406E+00
          2   -1    0    0  501    0  0.00000000000E+00  0.00000000000E+00  0.58237774564E+03  0.58237774564E+03  0.25500000000E-02 0.  1.
         -2   -1    0    0    0  501 -0.00000000000E+00 -0.00000000000E+00 -0.76459249913E+02  0.76459249956E+02  0.25500000000E-02 0. -1.
    5000001    1    1    2    0    0 -0.12610350852E+03 -0.29080522972E+02  0.21616913268E+03  0.30116750422E+03  0.16500000000E+03 0.  0.
   -5000001    1    1    2    0    0  0.12610350852E+03  0.29080522972E+02  0.28974936305E+03  0.35766949138E+03  0.16500000000E+03 0.  0.
<mgrwt>
<rscale>  0 0.42203396E+03</rscale>
<asrwt>0</asrwt>
<pdfrwt beam="1">  1        2 0.89596578E-01 0.42203396E+03</pdfrwt>
<pdfrwt beam="2">  1       -2 0.11762961E-01 0.42203396E+03</pdfrwt>
<totfact> 0.26840373E+03</totfact>
</mgrwt>
</event>
<event>
 4    1  0.1573232E-005  0.5321009E+03  0.7818608E-02  0.1005724E+00
          2   -1    0    0  501    0  0.00000000000E+00  0.00000000000E+00  0.30655826047E+03  0.30655826048E+03  0.25500000000E-02 0.  1.
         -2   -1    0    0    0  501 -0.00000000000E+00 -0.00000000000E+00 -0.23089525829E+03  0.23089525831E+03  0.25500000000E-02 0. -1.
    5000001    1    1    2    0    0 -0.12838965805E+03 -0.13771758610E+03 -0.53117661025E+02  0.25592288629E+03  0.16500000000E+03 0.  0.
   -5000001    1    1    2    0    0  0.12838965805E+03  0.13771758610E+03  0.12878066320E+03  0.28153063249E+03  0.16500000000E+03 0.  0.
<mgrwt>
<rscale>  0 0.53210093E+03</rscale>
<asrwt>0</asrwt>
<pdfrwt beam="1">  1        2 0.47162809E-01 0.53210093E+03</pdfrwt>
<pdfrwt beam="2">  1       -2 0.35522348E-01 0.53210093E+03</pdfrwt>
<totfact> 0.80139775E+02</totfact>
</mgrwt>
</event>
<event>
 4    1  0.1573232E-005  0.6994705E+03  0.7818608E-02  0.9718138E-01
          2   -1    0    0  501    0  0.00000000000E+00  0.00000000000E+00  0.26684066630E+04  0.26684066630E+04  0.25500000000E-02 0.  1.
         -2   -1    0    0    0  501 -0.00000000000E+00 -0.00000000000E+00 -0.45838124461E+02  0.45838124532E+02  0.25500000000E-02 0. -1.
    5000001    1    1    2    0    0 -0.27751379844E+03  0.66694833366E+02  0.85829278522E+03  0.91943113624E+03  0.16500000000E+03 0.  0.
   -5000001    1    1    2    0    0  0.27751379844E+03 -0.66694833366E+02  0.17642757533E+04  0.17948136513E+04  0.16500000000E+03 0.  0.
<mgrwt>
<rscale>  0 0.69947053E+03</rscale>
<asrwt>0</asrwt>
<pdfrwt beam="1">  1        2 0.41052428E+00 0.69947053E+03</pdfrwt>
<pdfrwt beam="2">  1       -2 0.70520160E-02 0.69947053E+03</pdfrwt>
<totfact> 0.34978627E+02</totfact>
</mgrwt>
</event>
<event>
 4    1  0.1573232E-005  0.5396093E+03  0.7818608E-02  0.1003928E+00
         -2   -1    0    0    0  501 -0.00000000000E+00  0.00000000000E+00  0.77840796277E+02  0.77840796319E+02  0.25500000000E-02 0. -1.
          2   -1    0    0  501    0  0.00000000000E+00 -0.00000000000E+00 -0.93517233693E+03  0.93517233693E+03  0.25500000000E-02 0.  1.
    5000001    1    1    2    0    0  0.15228167714E+03  0.12305166949E+03 -0.58838198681E+03  0.64167732153E+03  0.16500000000E+03 0.  0.
   -5000001    1    1    2    0    0 -0.15228167714E+03 -0.12305166949E+03 -0.26894955384E+03  0.37133581172E+03  0.16500000000E+03 0.  0.
<mgrwt>
<rscale>  0 0.53960934E+03</rscale>
<asrwt>0</asrwt>
<pdfrwt beam="1">  1        2 0.14387266E+00 0.53960934E+03</pdfrwt>
<pdfrwt beam="2">  1       -2 0.11975508E-01 0.53960934E+03</pdfrwt>
<totfact> 0.14269429E+03</totfact>
</mgrwt>
</event>
<event>
 4    1  0.1573232E-005  0.4245595E+03  0.7818608E-02  0.1035593E+00
         -2   -1    0    0    0  501 -0.00000000000E+00  0.00000000000E+00  0.73098135108E+02  0.73098135153E+02  0.25500000000E-02 0. -1.
          2   -1    0    0  501    0  0.00000000000E+00 -0.00000000000E+00 -0.61646828452E+03  0.61646828452E+03  0.25500000000E-02 0.  1.
    5000001    1    1    2    0    0  0.71480069708E+02  0.11129886362E+03 -0.30167088393E+03  0.36841167140E+03  0.16500000000E+03 0.  0.
   -5000001    1    1    2    0    0 -0.71480069708E+02 -0.11129886362E+03 -0.24169926547E+03  0.32115474827E+03  0.16500000000E+03 0.  0.
<mgrwt>
<rscale>  0 0.42455945E+03</rscale>
<asrwt>0</asrwt>
<pdfrwt beam="1">  1        2 0.94841271E-01 0.42455945E+03</pdfrwt>
<pdfrwt beam="2">  1       -2 0.11245867E-01 0.42455945E+03</pdfrwt>
<totfact> 0.27000269E+03</totfact>
</mgrwt>
</event>
<event>
 4    1  0.1573232E-005  0.6208910E+03  0.7818608E-02  0.9862987E-01
         -2   -1    0    0    0  501 -0.00000000000E+00  0.00000000000E+00  0.54294070109E+02  0.54294070169E+02  0.25500000000E-02 0. -1.
          2   -1    0    0  501    0  0.00000000000E+00 -0.00000000000E+00 -0.17750814778E+04  0.17750814778E+04  0.25500000000E-02 0.  1.
    5000001    1    1    2    0    0  0.14822884178E+02 -0.20862529882E+03 -0.39075310548E+03  0.47292411933E+03  0.16500000000E+03 0.  0.
   -5000001    1    1    2    0    0 -0.14822884178E+02  0.20862529882E+03 -0.13300343022E+04  0.13564514286E+04  0.16500000000E+03 0.  0.
<mgrwt>
<rscale>  0 0.62089097E+03</rscale>
<asrwt>0</asrwt>
<pdfrwt beam="1">  1        2 0.27308941E+00 0.62089097E+03</pdfrwt>
<pdfrwt beam="2">  1       -2 0.83529352E-02 0.62089097E+03</pdfrwt>
<totfact> 0.83869315E+02</totfact>
</mgrwt>
</event>
<event>
 4    1  0.1573232E-005  0.4602955E+03  0.7818608E-02  0.1024696E+00
          2   -1    0    0  501    0  0.00000000000E+00  0.00000000000E+00  0.10218993303E+04  0.10218993303E+04  0.25500000000E-02 0.  1.
         -2   -1    0    0    0  501 -0.00000000000E+00 -0.00000000000E+00 -0.51832889052E+02  0.51832889115E+02  0.25500000000E-02 0. -1.
    5000001    1    1    2    0    0 -0.12805414904E+01  0.97940929359E+02  0.18859712162E+03  0.26905006916E+03  0.16500000000E+03 0.  0.
   -5000001    1    1    2    0    0  0.12805414904E+01 -0.97940929359E+02  0.78146931967E+03  0.80468215030E+03  0.16500000000E+03 0.  0.
<mgrwt>
<rscale>  0 0.46029553E+03</rscale>
<asrwt>0</asrwt>
<pdfrwt beam="1">  1        2 0.15721529E+00 0.46029553E+03</pdfrwt>
<pdfrwt beam="2">  1       -2 0.79742903E-02 0.46029553E+03</pdfrwt>
<totfact> 0.24232670E+03</totfact>
</mgrwt>
</event>
<event>
 4    1  0.1573232E-005  0.5650390E+03  0.7818608E-02  0.9980717E-01
         -2   -1    0    0    0  501 -0.00000000000E+00  0.00000000000E+00  0.11708638026E+03  0.11708638028E+03  0.25500000000E-02 0. -1.
          2   -1    0    0  501    0  0.00000000000E+00 -0.00000000000E+00 -0.68169561149E+03  0.68169561149E+03  0.25500000000E-02 0.  1.
    5000001    1    1    2    0    0  0.21481262275E+03 -0.72794718831E+02 -0.33021837544E+03  0.43325824800E+03  0.16500000000E+03 0.  0.
   -5000001    1    1    2    0    0 -0.21481262275E+03  0.72794718831E+02 -0.23439085580E+03  0.36552374378E+03  0.16500000000E+03 0.  0.
<mgrwt>
<rscale>  0 0.56503901E+03</rscale>
<asrwt>0</asrwt>
<pdfrwt beam="1">  1        2 0.10487625E+00 0.56503901E+03</pdfrwt>
<pdfrwt beam="2">  1       -2 0.18013290E-01 0.56503901E+03</pdfrwt>
<totfact> 0.10890069E+03</totfact>
</mgrwt>
</event>
<event>
 4    1  0.1573232E-005  0.6114312E+03  0.7818608E-02  0.9881970E-01
         -2   -1    0    0    0  501 -0.00000000000E+00  0.00000000000E+00  0.76488191814E+03  0.76488191815E+03  0.25500000000E-02 0. -1.
          2   -1    0    0  501    0  0.00000000000E+00 -0.00000000000E+00 -0.12219145648E+03  0.12219145651E+03  0.25500000000E-02 0.  1.
    5000001    1    1    2    0    0  0.20945193128E+03 -0.34127061987E+01  0.10442404813E+03  0.28637587173E+03  0.16500000000E+03 0.  0.
   -5000001    1    1    2    0    0 -0.20945193128E+03  0.34127061987E+01  0.53826641353E+03  0.60069750293E+03  0.16500000000E+03 0.  0.
<mgrwt>
<rscale>  0 0.61143122E+03</rscale>
<asrwt>0</asrwt>
<pdfrwt beam="1">  1        2 0.18798685E-01 0.61143122E+03</pdfrwt>
<pdfrwt beam="2">  1       -2 0.11767414E+00 0.61143122E+03</pdfrwt>
<totfact> 0.17264219E+02</totfact>
</mgrwt>
</event>
<event>
 4    1  0.1573232E-005  0.5018166E+03  0.7818608E-02  0.1013306E+00
          2   -1    0    0  501    0  0.00000000000E+00  0.00000000000E+00  0.14764612518E+04  0.14764612518E+04  0.25500000000E-02 0.  1.
         -2   -1    0    0    0  501 -0.00000000000E+00 -0.00000000000E+00 -0.42639096772E+02  0.42639096848E+02  0.25500000000E-02 0. -1.
    5000001    1    1    2    0    0 -0.18840274688E+03 -0.10567496100E+02  0.75044439777E+03  0.79120102448E+03  0.16500000000E+03 0.  0.
   -5000001    1    1    2    0    0  0.18840274688E+03  0.10567496100E+02  0.68337775728E+03  0.72789932419E+03  0.16500000000E+03 0.  0.
<mgrwt>
<rscale>  0 0.50181660E+03</rscale>
<asrwt>0</asrwt>
<pdfrwt beam="1">  1        2 0.22714787E+00 0.50181660E+03</pdfrwt>
<pdfrwt beam="2">  1       -2 0.65598614E-02 0.50181660E+03</pdfrwt>
<totfact> 0.17988978E+03</totfact>
</mgrwt>
</event>
<event>
 4    1  0.1573232E-005  0.5586852E+03  0.7818608E-02  0.9995034E-01
          2   -1    0    0  501    0  0.00000000000E+00  0.00000000000E+00  0.39009614570E+03  0.39009614571E+03  0.25500000000E-02 0.  1.
         -2   -1    0    0    0  501 -0.00000000000E+00 -0.00000000000E+00 -0.20003344297E+03  0.20003344299E+03  0.25500000000E-02 0. -1.
    5000001    1    1    2    0    0  0.48966329692E+01 -0.21234151891E+03  0.15323080925E+02  0.26939319679E+03  0.16500000000E+03 0.  0.
   -5000001    1    1    2    0    0 -0.48966329692E+01  0.21234151891E+03  0.17473962180E+03  0.32073639191E+03  0.16500000000E+03 0.  0.
<mgrwt>
<rscale>  0 0.55868515E+03</rscale>
<asrwt>0</asrwt>
<pdfrwt beam="1">  1        2 0.60014790E-01 0.55868515E+03</pdfrwt>
<pdfrwt beam="2">  1       -2 0.30774377E-01 0.55868515E+03</pdfrwt>
<totfact> 0.80313165E+02</totfact>
</mgrwt>
</event>
<event>
 4    1  0.1573232E-005  0.4055031E+03  0.7818608E-02  0.1041891E+00
         -2   -1    0    0    0  501 -0.00000000000E+00  0.00000000000E+00  0.67796032846E+02  0.67796032894E+02  0.25500000000E-02 0. -1.
          2   -1    0    0  501    0  0.00000000000E+00 -0.00000000000E+00 -0.60635084842E+03  0.60635084842E+03  0.25500000000E-02 0.  1.
    5000001    1    1    2    0    0  0.21046024735E+02 -0.10426168458E+03 -0.35355374826E+03  0.40439916782E+03  0.16500000000E+03 0.  0.
   -5000001    1    1    2    0    0 -0.21046024735E+02  0.10426168458E+03 -0.18500106731E+03  0.26974771349E+03  0.16500000000E+03 0.  0.
<mgrwt>
<rscale>  0 0.40550306E+03</rscale>
<asrwt>0</asrwt>
<pdfrwt beam="1">  1        2 0.93284743E-01 0.40550306E+03</pdfrwt>
<pdfrwt beam="2">  1       -2 0.10430159E-01 0.40550306E+03</pdfrwt>
<totfact> 0.31088570E+03</totfact>
</mgrwt>
</event>
<event>
 4    1  0.1573232E-005  0.6030631E+03  0.7818608E-02  0.9899071E-01
         -2   -1    0    0    0  501 -0.00000000000E+00  0.00000000000E+00  0.15009947596E+03  0.15009947598E+03  0.25500000000E-02 0. -1.
          2   -1    0    0  501    0  0.00000000000E+00 -0.00000000000E+00 -0.60574009922E+03  0.60574009923E+03  0.25500000000E-02 0.  1.
    5000001    1    1    2    0    0  0.12132749680E+03 -0.21397864135E+03 -0.15704242080E+03  0.33525295280E+03  0.16500000000E+03 0.  0.
   -5000001    1    1    2    0    0 -0.12132749680E+03  0.21397864135E+03 -0.29859820247E+03  0.42058662241E+03  0.16500000000E+03 0.  0.
<mgrwt>
<rscale>  0 0.60306309E+03</rscale>
<asrwt>0</asrwt>
<pdfrwt beam="1">  1        2 0.93190783E-01 0.60306309E+03</pdfrwt>
<pdfrwt beam="2">  1       -2 0.23092227E-01 0.60306309E+03</pdfrwt>
<totfact> 0.81463677E+02</totfact>
</mgrwt>
</event>
<event>
 4    1  0.1573232E-005  0.7379129E+03  0.7818608E-02  0.9654506E-01
          2   -1    0    0  501    0  0.00000000000E+00  0.00000000000E+00  0.12894254839E+04  0.12894254839E+04  0.25500000000E-02 0.  1.
         -2   -1    0    0    0  501 -0.00000000000E+00 -0.00000000000E+00 -0.10557327557E+03  0.10557327560E+03  0.25500000000E-02 0. -1.
    5000001    1    1    2    0    0  0.27372752834E+03  0.16258423554E+03  0.42773314403E+03  0.55815861179E+03  0.16500000000E+03 0.  0.
   -5000001    1    1    2    0    0 -0.27372752834E+03 -0.16258423554E+03  0.75611906426E+03  0.83684014768E+03  0.16500000000E+03 0.  0.
<mgrwt>
<rscale>  0 0.73791293E+03</rscale>
<asrwt>0</asrwt>
<pdfrwt beam="1">  1        2 0.19837316E+00 0.73791293E+03</pdfrwt>
<pdfrwt beam="2">  1       -2 0.16242041E-01 0.73791293E+03</pdfrwt>
<totfact> 0.51797561E+02</totfact>
</mgrwt>
</event>
<event>
 4    1  0.1573232E-005  0.4172342E+03  0.7818608E-02  0.1037970E+00
          2   -1    0    0  501    0  0.00000000000E+00  0.00000000000E+00  0.10731061349E+04  0.10731061349E+04  0.25500000000E-02 0.  1.
         -2   -1    0    0    0  501 -0.00000000000E+00 -0.00000000000E+00 -0.40556184198E+02  0.40556184279E+02  0.25500000000E-02 0. -1.
    5000001    1    1    2    0    0  0.68746783022E+02 -0.10427734455E+03  0.44584746637E+03  0.49153316066E+03  0.16500000000E+03 0.  0.
   -5000001    1    1    2    0    0 -0.68746783022E+02  0.10427734455E+03  0.58670248437E+03  0.62212915856E+03  0.16500000000E+03 0.  0.
<mgrwt>
<rscale>  0 0.41723418E+03</rscale>
<asrwt>0</asrwt>
<pdfrwt beam="1">  1        2 0.16509328E+00 0.41723418E+03</pdfrwt>
<pdfrwt beam="2">  1       -2 0.62394118E-02 0.41723418E+03</pdfrwt>
<totfact> 0.33134394E+03</totfact>
</mgrwt>
</event>
<event>
 4    1  0.1573232E-005  0.5763646E+03  0.7818608E-02  0.9955693E-01
         -2   -1    0    0    0  501 -0.00000000000E+00  0.00000000000E+00  0.78752284181E+03  0.78752284182E+03  0.25500000000E-02 0. -1.
          2   -1    0    0  501    0  0.00000000000E+00 -0.00000000000E+00 -0.10545602682E+03  0.10545602685E+03  0.25500000000E-02 0.  1.
    5000001    1    1    2    0    0  0.19158058430E+03  0.12941815948E+03  0.26557850139E+03  0.38885616966E+03  0.16500000000E+03 0.  0.
   -5000001    1    1    2    0    0 -0.19158058430E+03 -0.12941815948E+03  0.41648831360E+03  0.50412269900E+03  0.16500000000E+03 0.  0.
<mgrwt>
<rscale>  0 0.57636457E+03</rscale>
<asrwt>0</asrwt>
<pdfrwt beam="1">  1        2 0.16224004E-01 0.57636457E+03</pdfrwt>
<pdfrwt beam="2">  1       -2 0.12115736E+00 0.57636457E+03</pdfrwt>
<totfact> 0.19168137E+02</totfact>
</mgrwt>
</event>
<event>
 4    1  0.1573232E-005  0.3857761E+03  0.7818608E-02  0.1048819E+00
          2   -1    0    0  501    0  0.00000000000E+00  0.00000000000E+00  0.68189154792E+03  0.68189154792E+03  0.25500000000E-02 0.  1.
         -2   -1    0    0    0  501 -0.00000000000E+00 -0.00000000000E+00 -0.54562623198E+02  0.54562623258E+02  0.25500000000E-02 0. -1.
    5000001    1    1    2    0    0  0.10814170638E+02 -0.93853591035E+02  0.25164778967E+03  0.31539983019E+03  0.16500000000E+03 0.  0.
   -5000001    1    1    2    0    0 -0.10814170638E+02  0.93853591035E+02  0.37568113505E+03  0.42105434099E+03  0.16500000000E+03 0.  0.
<mgrwt>
<rscale>  0 0.38577606E+03</rscale>
<asrwt>0</asrwt>
<pdfrwt beam="1">  1        2 0.10490640E+00 0.38577606E+03</pdfrwt>
<pdfrwt beam="2">  1       -2 0.83942494E-02 0.38577606E+03</pdfrwt>
<totfact> 0.38160160E+03</totfact>
</mgrwt>
</event>
<event>
 4    1  0.1573232E-005  0.9532050E+03  0.7818608E-02  0.9361412E-01
          2   -1    0    0  501    0  0.00000000000E+00  0.00000000000E+00  0.27061193699E+04  0.27061193699E+04  0.25500000000E-02 0.  1.
         -2   -1    0    0    0  501 -0.00000000000E+00 -0.00000000000E+00 -0.83939370701E+02  0.83939370739E+02  0.25500000000E-02 0. -1.
    5000001    1    1    2    0    0  0.16382416476E+03  0.36950079428E+03  0.75145489545E+03  0.86906769232E+03  0.16500000000E+03 0.  0.
   -5000001    1    1    2    0    0 -0.16382416476E+03 -0.36950079428E+03  0.18707251037E+04  0.19209910483E+04  0.16500000000E+03 0.  0.
<mgrwt>
<rscale>  0 0.95320503E+03</rscale>
<asrwt>0</asrwt>
<pdfrwt beam="1">  1        2 0.41632603E+00 0.95320503E+03</pdfrwt>
<pdfrwt beam="2">  1       -2 0.12913750E-01 0.95320503E+03</pdfrwt>
<totfact> 0.12135560E+02</totfact>
</mgrwt>
</event>
<event>
 4    1  0.1573232E-005  0.3799752E+03  0.7818608E-02  0.1050943E+00
          2   -1    0    0  501    0  0.00000000000E+00  0.00000000000E+00  0.81644296017E+03  0.81644296017E+03  0.25500000000E-02 0.  1.
         -2   -1    0    0    0  501 -0.00000000000E+00 -0.00000000000E+00 -0.44210416578E+02  0.44210416651E+02  0.25500000000E-02 0. -1.
    5000001    1    1    2    0    0  0.43703384205E+02  0.64582439750E+02  0.50574319322E+03  0.53766351448E+03  0.16500000000E+03 0.  0.
   -5000001    1    1    2    0    0 -0.43703384205E+02 -0.64582439750E+02  0.26648935037E+03  0.32298986234E+03  0.16500000000E+03 0.  0.
<mgrwt>
<rscale>  0 0.37997518E+03</rscale>
<asrwt>0</asrwt>
<pdfrwt beam="1">  1        2 0.12560661E+00 0.37997518E+03</pdfrwt>
<pdfrwt beam="2">  1       -2 0.68016023E-02 0.37997518E+03</pdfrwt>
<totfact> 0.42322838E+03</totfact>
</mgrwt>
</event>
<event>
 4    1  0.1573232E-005  0.5304717E+03  0.7818608E-02  0.1006118E+00
          2   -1    0    0  501    0  0.00000000000E+00  0.00000000000E+00  0.10802039644E+04  0.10802039644E+04  0.25500000000E-02 0.  1.
         -2   -1    0    0    0  501 -0.00000000000E+00 -0.00000000000E+00 -0.65126634138E+02  0.65126634188E+02  0.25500000000E-02 0. -1.
    5000001    1    1    2    0    0 -0.18276010583E+03  0.50839107347E+02  0.32511013825E+03  0.41098354360E+03  0.16500000000E+03 0.  0.
   -5000001    1    1    2    0    0  0.18276010583E+03 -0.50839107347E+02  0.68996719201E+03  0.73434705499E+03  0.16500000000E+03 0.  0.
<mgrwt>
<rscale>  0 0.53047167E+03</rscale>
<asrwt>0</asrwt>
<pdfrwt beam="1">  1        2 0.16618522E+00 0.53047167E+03</pdfrwt>
<pdfrwt beam="2">  1       -2 0.10019482E-01 0.53047167E+03</pdfrwt>
<totfact> 0.15471183E+03</totfact>
</mgrwt>
</event>
<event>
 4    1  0.1573232E-005  0.5856863E+03  0.7818608E-02  0.9935556E-01
          2   -1    0    0  501    0  0.00000000000E+00  0.00000000000E+00  0.66378033097E+03  0.66378033097E+03  0.25500000000E-02 0.  1.
         -2   -1    0    0    0  501 -0.00000000000E+00 -0.00000000000E+00 -0.12919499477E+03  0.12919499479E+03  0.25500000000E-02 0. -1.
    5000001    1    1    2    0    0  0.17772844234E+03 -0.10694834952E+03  0.98693664007E+02  0.28282642733E+03  0.16500000000E+03 0.  0.
   -5000001    1    1    2    0    0 -0.17772844234E+03  0.10694834952E+03  0.43589167220E+03  0.51014889843E+03  0.16500000000E+03 0.  0.
<mgrwt>
<rscale>  0 0.58568625E+03</rscale>
<asrwt>0</asrwt>
<pdfrwt beam="1">  1        2 0.10212005E+00 0.58568625E+03</pdfrwt>
<pdfrwt beam="2">  1       -2 0.19876153E-01 0.58568625E+03</pdfrwt>
<totfact> 0.94906975E+02</totfact>
</mgrwt>
</event>
<event>
 4    1  0.1573232E-005  0.3936038E+03  0.7818608E-02  0.1046017E+00
          2   -1    0    0  501    0  0.00000000000E+00  0.00000000000E+00  0.23716379988E+04  0.23716379988E+04  0.25500000000E-02 0.  1.
         -2   -1    0    0    0  501 -0.00000000000E+00 -0.00000000000E+00 -0.16330904350E+02  0.16330904549E+02  0.25500000000E-02 0. -1.
    5000001    1    1    2    0    0  0.75079719263E+00 -0.10724850180E+03  0.11884872587E+04  0.12046699834E+04  0.16500000000E+03 0.  0.
   -5000001    1    1    2    0    0 -0.75079719263E+00  0.10724850180E+03  0.11668198357E+04  0.11832989199E+04  0.16500000000E+03 0.  0.
<mgrwt>
<rscale>  0 0.39360383E+03</rscale>
<asrwt>0</asrwt>
<pdfrwt beam="1">  1        2 0.36486723E+00 0.39360383E+03</pdfrwt>
<pdfrwt beam="2">  1       -2 0.25124479E-02 0.39360383E+03</pdfrwt>
<totfact> 0.25770733E+03</totfact>
</mgrwt>
</event>
<event>
 4    1  0.1573232E-005  0.5319885E+03  0.7818608E-02  0.1005751E+00
         -2   -1    0    0    0  501 -0.00000000000E+00  0.00000000000E+00  0.10667656121E+03  0.10667656124E+03  0.25500000000E-02 0. -1.
          2   -1    0    0  501    0  0.00000000000E+00 -0.00000000000E+00 -0.66324740431E+03  0.66324740431E+03  0.25500000000E-02 0.  1.
    5000001    1    1    2    0    0  0.11712759201E+03  0.70239735743E+02 -0.50654610391E+03  0.54996949795E+03  0.16500000000E+03 0.  0.
   -5000001    1    1    2    0    0 -0.11712759201E+03 -0.70239735743E+02 -0.50024739192E+02  0.21995446760E+03  0.16500000000E+03 0.  0.
<mgrwt>
<rscale>  0 0.53198854E+03</rscale>
<asrwt>0</asrwt>
<pdfrwt beam="1">  1        2 0.10203806E+00 0.53198854E+03</pdfrwt>
<pdfrwt beam="2">  1       -2 0.16411779E-01 0.53198854E+03</pdfrwt>
<totfact> 0.13209868E+03</totfact>
</mgrwt>
</event>
<event>
 4    1  0.1573232E-005  0.5471932E+03  0.7818608E-02  0.1002146E+00
         -2   -1    0    0    0  501 -0.00000000000E+00  0.00000000000E+00  0.32413370522E+02  0.32413370623E+02  0.25500000000E-02 0. -1.
          2   -1    0    0  501    0  0.00000000000E+00 -0.00000000000E+00 -0.23093893028E+04  0.23093893028E+04  0.25500000000E-02 0.  1.
    5000001    1    1    2    0    0  0.99300621521E+02  0.16502664750E+03 -0.69920841546E+03  0.74378210255E+03  0.16500000000E+03 0.  0.
   -5000001    1    1    2    0    0 -0.99300621521E+02 -0.16502664750E+03 -0.15777675168E+04  0.15980205708E+04  0.16500000000E+03 0.  0.
<mgrwt>
<rscale>  0 0.54719317E+03</rscale>
<asrwt>0</asrwt>
<pdfrwt beam="1">  1        2 0.35529053E+00 0.54719317E+03</pdfrwt>
<pdfrwt beam="2">  1       -2 0.49866742E-02 0.54719317E+03</pdfrwt>
<totfact> 0.97222871E+02</totfact>
</mgrwt>
</event>
<event>
 4    1  0.1573232E-005  0.9587619E+03  0.7818608E-02  0.9354967E-01
          2   -1    0    0  501    0  0.00000000000E+00  0.00000000000E+00  0.23387126303E+04  0.23387126304E+04  0.25500000000E-02 0.  1.
         -2   -1    0    0    0  501 -0.00000000000E+00 -0.00000000000E+00 -0.98261794428E+02  0.98261794461E+02  0.25500000000E-02 0. -1.
    5000001    1    1    2    0    0  0.60644356200E+02 -0.42825565433E+03  0.80377006817E+03  0.92755159743E+03  0.16500000000E+03 0.  0.
   -5000001    1    1    2    0    0 -0.60644356200E+02  0.42825565433E+03  0.14366807677E+04  0.15094228274E+04  0.16500000000E+03 0.  0.
<mgrwt>
<rscale>  0 0.95876191E+03</rscale>
<asrwt>0</asrwt>
<pdfrwt beam="1">  1        2 0.35980197E+00 0.95876191E+03</pdfrwt>
<pdfrwt beam="2">  1       -2 0.15117198E-01 0.95876191E+03</pdfrwt>
<totfact> 0.15102452E+02</totfact>
</mgrwt>
</event>
<event>
 4    1  0.1573232E-005  0.1856962E+04  0.7818608E-02  0.8676581E-01
          2   -1    0    0  501    0  0.00000000000E+00  0.00000000000E+00  0.39999145605E+04  0.39999145605E+04  0.25500000000E-02 0.  1.
         -2   -1    0    0    0  501 -0.00000000000E+00 -0.00000000000E+00 -0.21552389243E+03  0.21552389244E+03  0.25500000000E-02 0. -1.
    5000001    1    1    2    0    0  0.72653194440E+03 -0.52202527534E+02  0.31443997768E+04  0.32318800606E+04  0.16500000000E+03 0.  0.
   -5000001    1    1    2    0    0 -0.72653194440E+03  0.52202527534E+02  0.63999089127E+03  0.98355839228E+03  0.16500000000E+03 0.  0.
<mgrwt>
<rscale>  0 0.18569622E+04</rscale>
<asrwt>0</asrwt>
<pdfrwt beam="1">  1        2 0.61537140E+00 0.18569622E+04</pdfrwt>
<pdfrwt beam="2">  1       -2 0.33157526E-01 0.18569622E+04</pdfrwt>
<totfact> 0.27677674E+00</totfact>
</mgrwt>
</event>
<event>
 4    1  0.1573232E-005  0.4802296E+03  0.7818608E-02  0.1019072E+00
          2   -1    0    0  501    0  0.00000000000E+00  0.00000000000E+00  0.23314212177E+04  0.23314212178E+04  0.25500000000E-02 0.  1.
         -2   -1    0    0    0  501 -0.00000000000E+00 -0.00000000000E+00 -0.24729599813E+02  0.24729599944E+02  0.25500000000E-02 0. -1.
    5000001    1    1    2    0    0  0.98743890034E+02  0.12886378927E+03  0.84019150217E+03  0.87149468863E+03  0.16500000000E+03 0.  0.
   -5000001    1    1    2    0    0 -0.98743890034E+02 -0.12886378927E+03  0.14665001158E+04  0.14846561291E+04  0.16500000000E+03 0.  0.
<mgrwt>
<rscale>  0 0.48022959E+03</rscale>
<asrwt>0</asrwt>
<pdfrwt beam="1">  1        2 0.35868029E+00 0.48022959E+03</pdfrwt>
<pdfrwt beam="2">  1       -2 0.38045528E-02 0.48022959E+03</pdfrwt>
<totfact> 0.14401864E+03</totfact>
</mgrwt>
</event>
<event>
 4    1  0.1573232E-005  0.4685618E+03  0.7818608E-02  0.1022327E+00
          2   -1    0    0  501    0  0.00000000000E+00  0.00000000000E+00  0.27056597088E+04  0.27056597088E+04  0.25500000000E-02 0.  1.
         -2   -1    0    0    0  501 -0.00000000000E+00 -0.00000000000E+00 -0.20286191164E+02  0.20286191324E+02  0.25500000000E-02 0. -1.
    5000001    1    1    2    0    0 -0.52871467240E+02 -0.13818099344E+03  0.17847219664E+04  0.17984290023E+04  0.16500000000E+03 0.  0.
   -5000001    1    1    2    0    0  0.52871467240E+02  0.13818099344E+03  0.90065155129E+03  0.92751689787E+03  0.16500000000E+03 0.  0.
<mgrwt>
<rscale>  0 0.46856176E+03</rscale>
<asrwt>0</asrwt>
<pdfrwt beam="1">  1        2 0.41625507E+00 0.46856176E+03</pdfrwt>
<pdfrwt beam="2">  1       -2 0.31209546E-02 0.46856176E+03</pdfrwt>
<totfact> 0.12016053E+03</totfact>
</mgrwt>
</event>
<event>
 4    1  0.1573232E-005  0.4708160E+03  0.7818608E-02  0.1021690E+00
         -2   -1    0    0    0  501 -0.00000000000E+00  0.00000000000E+00  0.75111952216E+02  0.75111952259E+02  0.25500000000E-02 0. -1.
          2   -1    0    0  501    0  0.00000000000E+00 -0.00000000000E+00 -0.73779119422E+03  0.73779119422E+03  0.25500000000E-02 0.  1.
    5000001    1    1    2    0    0  0.16057190825E+03 -0.26180424078E+01 -0.41595533144E+03  0.47543036253E+03  0.16500000000E+03 0.  0.
   -5000001    1    1    2    0    0 -0.16057190825E+03  0.26180424078E+01 -0.24672391057E+03  0.33747278395E+03  0.16500000000E+03 0.  0.
<mgrwt>
<rscale>  0 0.47081604E+03</rscale>
<asrwt>0</asrwt>
<pdfrwt beam="1">  1        2 0.11350633E+00 0.47081604E+03</pdfrwt>
<pdfrwt beam="2">  1       -2 0.11555685E-01 0.47081604E+03</pdfrwt>
<totfact> 0.20739271E+03</totfact>
</mgrwt>
</event>
<event>
 4    1  0.1573232E-005  0.4747002E+03  0.7818608E-02  0.1020602E+00
         -2   -1    0    0    0  501 -0.00000000000E+00  0.00000000000E+00  0.14159422030E+02  0.14159422259E+02  0.25500000000E-02 0. -1.
          2   -1    0    0  501    0  0.00000000000E+00 -0.00000000000E+00 -0.39786274926E+04  0.39786274926E+04  0.25500000000E-02 0.  1.
    5000001    1    1    2    0    0  0.27612105413E+02 -0.10528835835E+03 -0.30873358260E+04  0.30936573128E+04  0.16500000000E+03 0.  0.
   -5000001    1    1    2    0    0 -0.27612105413E+02  0.10528835835E+03 -0.87713224460E+03  0.89912960206E+03  0.16500000000E+03 0.  0.
<mgrwt>
<rscale>  0 0.47470018E+03</rscale>
<asrwt>0</asrwt>
<pdfrwt beam="1">  1        2 0.61209565E+00 0.47470018E+03</pdfrwt>
<pdfrwt beam="2">  1       -2 0.21783758E-02 0.47470018E+03</pdfrwt>
<totfact> 0.30098963E+02</totfact>
</mgrwt>
</event>
<event>
 4    1  0.1573232E-005  0.6301081E+03  0.7818608E-02  0.9844838E-01
         -2   -1    0    0    0  501 -0.00000000000E+00  0.00000000000E+00  0.35191677717E+02  0.35191677810E+02  0.25500000000E-02 0. -1.
          2   -1    0    0  501    0  0.00000000000E+00 -0.00000000000E+00 -0.28205260541E+04  0.28205260541E+04  0.25500000000E-02 0.  1.
    5000001    1    1    2    0    0  0.11678235556E+03  0.23629943088E+03 -0.16219087317E+04  0.16514504151E+04  0.16500000000E+03 0.  0.
   -5000001    1    1    2    0    0 -0.11678235556E+03 -0.23629943088E+03 -0.11634256447E+04  0.12042673168E+04  0.16500000000E+03 0.  0.
<mgrwt>
<rscale>  0 0.63010807E+03</rscale>
<asrwt>0</asrwt>
<pdfrwt beam="1">  1        2 0.43392691E+00 0.63010807E+03</pdfrwt>
<pdfrwt beam="2">  1       -2 0.54141065E-02 0.63010807E+03</pdfrwt>
<totfact> 0.43501923E+02</totfact>
</mgrwt>
</event>
<event>
 4    1  0.1573232E-005  0.4705885E+03  0.7818608E-02  0.1021754E+00
          2   -1    0    0  501    0  0.00000000000E+00  0.00000000000E+00  0.51478107713E+03  0.51478107714E+03  0.25500000000E-02 0.  1.
         -2   -1    0    0    0  501 -0.00000000000E+00 -0.00000000000E+00 -0.10754745547E+03  0.10754745550E+03  0.25500000000E-02 0. -1.
    5000001    1    1    2    0    0 -0.11162528929E+03  0.98283802685E+02  0.30621079885E+03  0.37829877664E+03  0.16500000000E+03 0.  0.
   -5000001    1    1    2    0    0  0.11162528929E+03 -0.98283802685E+02  0.10102282282E+03  0.24402975599E+03  0.16500000000E+03 0.  0.
<mgrwt>
<rscale>  0 0.47058855E+03</rscale>
<asrwt>0</asrwt>
<pdfrwt beam="1">  1        2 0.79197086E-01 0.47058855E+03</pdfrwt>
<pdfrwt beam="2">  1       -2 0.16545763E-01 0.47058855E+03</pdfrwt>
<totfact> 0.17589952E+03</totfact>
</mgrwt>
</event>
<event>
 4    1  0.1573232E-005  0.6030415E+03  0.7818608E-02  0.9899116E-01
          2   -1    0    0  501    0  0.00000000000E+00  0.00000000000E+00  0.98002331558E+03  0.98002331558E+03  0.25500000000E-02 0.  1.
         -2   -1    0    0    0  501 -0.00000000000E+00 -0.00000000000E+00 -0.92767949710E+02  0.92767949745E+02  0.25500000000E-02 0. -1.
    5000001    1    1    2    0    0  0.10545422599E+03 -0.18442922432E+03  0.68595299259E+03  0.73681153670E+03  0.16500000000E+03 0.  0.
   -5000001    1    1    2    0    0 -0.10545422599E+03  0.18442922432E+03  0.20130237327E+03  0.33597972863E+03  0.16500000000E+03 0.  0.
<mgrwt>
<rscale>  0 0.60304147E+03</rscale>
<asrwt>0</asrwt>
<pdfrwt beam="1">  1        2 0.15077282E+00 0.60304147E+03</pdfrwt>
<pdfrwt beam="2">  1       -2 0.14271992E-01 0.60304147E+03</pdfrwt>
<totfact> 0.99641715E+02</totfact>
</mgrwt>
</event>
<event>
 4    1  0.1573232E-005  0.9570569E+03  0.7818608E-02  0.9356940E-01
          2   -1    0    0  501    0  0.00000000000E+00  0.00000000000E+00  0.17569297823E+03  0.17569297825E+03  0.25500000000E-02 0.  1.
         -2   -1    0    0    0  501 -0.00000000000E+00 -0.00000000000E+00 -0.13033501195E+04  0.13033501195E+04  0.25500000000E-02 0. -1.
    5000001    1    1    2    0    0 -0.34685333170E+03  0.24420771637E+03 -0.33554814059E+03  0.56547519584E+03  0.16500000000E+03 0.  0.
   -5000001    1    1    2    0    0  0.34685333170E+03 -0.24420771637E+03 -0.79210900068E+03  0.91356790191E+03  0.16500000000E+03 0.  0.
<mgrwt>
<rscale>  0 0.95705687E+03</rscale>
<asrwt>0</asrwt>
<pdfrwt beam="1">  1        2 0.27029690E-01 0.95705687E+03</pdfrwt>
<pdfrwt beam="2">  1       -2 0.20051540E+00 0.95705687E+03</pdfrwt>
<totfact> 0.26525682E+01</totfact>
</mgrwt>
</event>
<event>
 4    1  0.1573232E-005  0.5702022E+03  0.7818608E-02  0.9969231E-01
         -2   -1    0    0    0  501 -0.00000000000E+00  0.00000000000E+00  0.38582920412E+02  0.38582920496E+02  0.25500000000E-02 0. -1.
          2   -1    0    0  501    0  0.00000000000E+00 -0.00000000000E+00 -0.21067003009E+04  0.21067003009E+04  0.25500000000E-02 0.  1.
    5000001    1    1    2    0    0  0.14979515877E+03 -0.14953909168E+03 -0.67207110693E+03  0.72367472134E+03  0.16500000000E+03 0.  0.
   -5000001    1    1    2    0    0 -0.14979515877E+03  0.14953909168E+03 -0.13960462736E+04  0.14216085001E+04  0.16500000000E+03 0.  0.
<mgrwt>
<rscale>  0 0.57020225E+03</rscale>
<asrwt>0</asrwt>
<pdfrwt beam="1">  1        2 0.32410765E+00 0.57020225E+03</pdfrwt>
<pdfrwt beam="2">  1       -2 0.59358356E-02 0.57020225E+03</pdfrwt>
<totfact> 0.95510910E+02</totfact>
</mgrwt>
</event>
<event>
 4    1  0.1573232E-005  0.4455157E+03  0.7818608E-02  0.1029068E+00
          2   -1    0    0  501    0  0.00000000000E+00  0.00000000000E+00  0.83264898283E+03  0.83264898283E+03  0.25500000000E-02 0.  1.
         -2   -1    0    0    0  501 -0.00000000000E+00 -0.00000000000E+00 -0.59594207994E+02  0.59594208048E+02  0.25500000000E-02 0. -1.
    5000001    1    1    2    0    0  0.12378202869E+03 -0.63141790036E+02  0.27525145348E+03  0.34971022135E+03  0.16500000000E+03 0.  0.
   -5000001    1    1    2    0    0 -0.12378202869E+03  0.63141790036E+02  0.49780332135E+03  0.54253296953E+03  0.16500000000E+03 0.  0.
<mgrwt>
<rscale>  0 0.44551569E+03</rscale>
<asrwt>0</asrwt>
<pdfrwt beam="1">  1        2 0.12809983E+00 0.44551569E+03</pdfrwt>
<pdfrwt beam="2">  1       -2 0.91683404E-02 0.44551569E+03</pdfrwt>
<totfact> 0.25777237E+03</totfact>
</mgrwt>
</event>
<event>
 4    1  0.1573232E-005  0.5502205E+03  0.7818608E-02  0.1001443E+00
         -2   -1    0    0    0  501 -0.00000000000E+00  0.00000000000E+00  0.68429252733E+02  0.68429252781E+02  0.25500000000E-02 0. -1.
          2   -1    0    0  501    0  0.00000000000E+00 -0.00000000000E+00 -0.11060424021E+04  0.11060424021E+04  0.25500000000E-02 0.  1.
    5000001    1    1    2    0    0 -0.38654540650E+02 -0.21639541390E+03 -0.54401831712E+03  0.60950970298E+03  0.16500000000E+03 0.  0.
   -5000001    1    1    2    0    0  0.38654540650E+02  0.21639541390E+03 -0.49359483222E+03  0.56496195187E+03  0.16500000000E+03 0.  0.
<mgrwt>
<rscale>  0 0.55022052E+03</rscale>
<asrwt>0</asrwt>
<pdfrwt beam="1">  1        2 0.17016036E+00 0.55022052E+03</pdfrwt>
<pdfrwt beam="2">  1       -2 0.10527578E-01 0.55022052E+03</pdfrwt>
<totfact> 0.13766887E+03</totfact>
</mgrwt>
</event>
<event>
 4    1  0.1573232E-005  0.5126034E+03  0.7818608E-02  0.1010541E+00
         -2   -1    0    0    0  501 -0.00000000000E+00  0.00000000000E+00  0.70189060697E+02  0.70189060743E+02  0.25500000000E-02 0. -1.
          2   -1    0    0  501    0  0.00000000000E+00 -0.00000000000E+00 -0.93590879077E+03  0.93590879077E+03  0.25500000000E-02 0.  1.
    5000001    1    1    2    0    0 -0.11172422595E+03 -0.14136654791E+03 -0.58487587345E+03  0.63385455025E+03  0.16500000000E+03 0.  0.
   -5000001    1    1    2    0    0  0.11172422595E+03  0.14136654791E+03 -0.28084385662E+03  0.37224330126E+03  0.16500000000E+03 0.  0.
<mgrwt>
<rscale>  0 0.51260339E+03</rscale>
<asrwt>0</asrwt>
<pdfrwt beam="1">  1        2 0.14398596E+00 0.51260339E+03</pdfrwt>
<pdfrwt beam="2">  1       -2 0.10798318E-01 0.51260339E+03</pdfrwt>
<totfact> 0.16886722E+03</totfact>
</mgrwt>
</event>
<event>
 4    1  0.1573232E-005  0.4799425E+03  0.7818608E-02  0.1019151E+00
         -2   -1    0    0    0  501 -0.00000000000E+00  0.00000000000E+00  0.56860090132E+02  0.56860090189E+02  0.25500000000E-02 0. -1.
          2   -1    0    0  501    0  0.00000000000E+00 -0.00000000000E+00 -0.10127701640E+04  0.10127701640E+04  0.25500000000E-02 0.  1.
    5000001    1    1    2    0    0 -0.17281613364E+03 -0.61607937754E+01 -0.43026833843E+03  0.49219834872E+03  0.16500000000E+03 0.  0.
   -5000001    1    1    2    0    0  0.17281613364E+03  0.61607937754E+01 -0.52564173548E+03  0.57743190552E+03  0.16500000000E+03 0.  0.
<mgrwt>
<rscale>  0 0.47994251E+03</rscale>
<asrwt>0</asrwt>
<pdfrwt beam="1">  1        2 0.15581078E+00 0.47994251E+03</pdfrwt>
<pdfrwt beam="2">  1       -2 0.87477069E-02 0.47994251E+03</pdfrwt>
<totfact> 0.21189063E+03</totfact>
</mgrwt>
</event>
<event>
 4    1  0.1573232E-005  0.5723744E+03  0.7818608E-02  0.9964438E-01
          2   -1    0    0  501    0  0.00000000000E+00  0.00000000000E+00  0.29251178525E+04  0.29251178525E+04  0.25500000000E-02 0.  1.
         -2   -1    0    0    0  501 -0.00000000000E+00 -0.00000000000E+00 -0.27999933055E+02  0.27999933171E+02  0.25500000000E-02 0. -1.
    5000001    1    1    2    0    0 -0.33584079214E+02  0.21229137346E+03  0.19237461704E+04  0.19427351455E+04  0.16500000000E+03 0.  0.
   -5000001    1    1    2    0    0  0.33584079214E+02 -0.21229137346E+03  0.97337174901E+03  0.10103826401E+04  0.16500000000E+03 0.  0.
<mgrwt>
<rscale>  0 0.57237437E+03</rscale>
<asrwt>0</asrwt>
<pdfrwt beam="1">  1        2 0.45001789E+00 0.57237437E+03</pdfrwt>
<pdfrwt beam="2">  1       -2 0.43076844E-02 0.57237437E+03</pdfrwt>
<totfact> 0.54056944E+02</totfact>
</mgrwt>
</event>
<event>
 4    1  0.1573232E-005  0.9681350E+03  0.7818608E-02  0.9344201E-01
         -2   -1    0    0    0  501 -0.00000000000E+00  0.00000000000E+00  0.17388099318E+03  0.17388099320E+03  0.25500000000E-02 0. -1.
          2   -1    0    0  501    0  0.00000000000E+00 -0.00000000000E+00 -0.13475961906E+04  0.13475961906E+04  0.25500000000E-02 0.  1.
    5000001    1    1    2    0    0  0.44081888856E+03  0.83857946601E+02 -0.70595320773E+03  0.85261267831E+03  0.16500000000E+03 0.  0.
   -5000001    1    1    2    0    0 -0.44081888856E+03 -0.83857946601E+02 -0.46776198974E+03  0.66886450553E+03  0.16500000000E+03 0.  0.
<mgrwt>
<rscale>  0 0.96813504E+03</rscale>
<asrwt>0</asrwt>
<pdfrwt beam="1">  1        2 0.20732248E+00 0.96813504E+03</pdfrwt>
<pdfrwt beam="2">  1       -2 0.26750923E-01 0.96813504E+03</pdfrwt>
<totfact> 0.19638644E+02</totfact>
</mgrwt>
</event>
<event>
 4    1  0.1573232E-005  0.4204860E+03  0.7818608E-02  0.1036908E+00
         -2   -1    0    0    0  501 -0.00000000000E+00  0.00000000000E+00  0.48703842925E+02  0.48703842992E+02  0.25500000000E-02 0. -1.
          2   -1    0    0  501    0  0.00000000000E+00 -0.00000000000E+00 -0.90756927965E+03  0.90756927965E+03  0.25500000000E-02 0.  1.
    5000001    1    1    2    0    0  0.12402278991E+03  0.43720804113E+01 -0.51972611018E+03  0.55923250720E+03  0.16500000000E+03 0.  0.
   -5000001    1    1    2    0    0 -0.12402278991E+03 -0.43720804113E+01 -0.33913932654E+03  0.39704061544E+03  0.16500000000E+03 0.  0.
<mgrwt>
<rscale>  0 0.42048596E+03</rscale>
<asrwt>0</asrwt>
<pdfrwt beam="1">  1        2 0.13962603E+00 0.42048596E+03</pdfrwt>
<pdfrwt beam="2">  1       -2 0.74928996E-02 0.42048596E+03</pdfrwt>
<totfact> 0.31609357E+03</totfact>
</mgrwt>
</event>
<event>
 4    1  0.1573232E-005  0.4193230E+03  0.7818608E-02  0.1037287E+00
          2   -1    0    0  501    0  0.00000000000E+00  0.00000000000E+00  0.29000719911E+03  0.29000719912E+03  0.25500000000E-02 0.  1.
         -2   -1    0    0    0  501 -0.00000000000E+00 -0.00000000000E+00 -0.15157538235E+03  0.15157538237E+03  0.25500000000E-02 0. -1.
    5000001    1    1    2    0    0 -0.50923657801E+02  0.78199939016E+02  0.16355078303E+03  0.25036435053E+03  0.16500000000E+03 0.  0.
   -5000001    1    1    2    0    0  0.50923657801E+02 -0.78199939016E+02 -0.25118966265E+02  0.19121823096E+03  0.16500000000E+03 0.  0.
<mgrwt>
<rscale>  0 0.41932304E+03</rscale>
<asrwt>0</asrwt>
<pdfrwt beam="1">  1        2 0.44616492E-01 0.41932304E+03</pdfrwt>
<pdfrwt beam="2">  1       -2 0.23319289E-01 0.41932304E+03</pdfrwt>
<totfact> 0.18369032E+03</totfact>
</mgrwt>
</event>
<event>
 4    1  0.1573232E-005  0.5707789E+03  0.7818608E-02  0.9967956E-01
          2   -1    0    0  501    0  0.00000000000E+00  0.00000000000E+00  0.38799695657E+04  0.38799695657E+04  0.25500000000E-02 0.  1.
         -2   -1    0    0    0  501 -0.00000000000E+00 -0.00000000000E+00 -0.20991695508E+02  0.20991695663E+02  0.25500000000E-02 0. -1.
    5000001    1    1    2    0    0  0.12096499619E+03 -0.15780322853E+03  0.27577769357E+04  0.27698543313E+04  0.16500000000E+03 0.  0.
   -5000001    1    1    2    0    0 -0.12096499619E+03  0.15780322853E+03  0.11012009345E+04  0.11311069301E+04  0.16500000000E+03 0.  0.
<mgrwt>
<rscale>  0 0.57077891E+03</rscale>
<asrwt>0</asrwt>
<pdfrwt beam="1">  1        2 0.59691875E+00 0.57077891E+03</pdfrwt>
<pdfrwt beam="2">  1       -2 0.32294897E-02 0.57077891E+03</pdfrwt>
<totfact> 0.19425121E+02</totfact>
</mgrwt>
</event>
<event>
 4    1  0.1573232E-005  0.6238726E+03  0.7818608E-02  0.9857079E-01
         -2   -1    0    0    0  501 -0.00000000000E+00  0.00000000000E+00  0.30606503538E+03  0.30606503539E+03  0.25500000000E-02 0. -1.
          2   -1    0    0  501    0  0.00000000000E+00 -0.00000000000E+00 -0.31792023968E+03  0.31792023969E+03  0.25500000000E-02 0.  1.
    5000001    1    1    2    0    0 -0.13267116341E+03 -0.22019628999E+03 -0.69115155625E+02  0.31319314881E+03  0.16500000000E+03 0.  0.
   -5000001    1    1    2    0    0  0.13267116341E+03  0.22019628999E+03  0.57259951325E+02  0.31079212627E+03  0.16500000000E+03 0.  0.
<mgrwt>
<rscale>  0 0.62387265E+03</rscale>
<asrwt>0</asrwt>
<pdfrwt beam="1">  1        2 0.48910806E-01 0.62387265E+03</pdfrwt>
<pdfrwt beam="2">  1       -2 0.47086929E-01 0.62387265E+03</pdfrwt>
<totfact> 0.44383494E+02</totfact>
</mgrwt>
</event>
<event>
 4    1  0.1573232E-005  0.6062266E+03  0.7818608E-02  0.9892571E-01
         -2   -1    0    0    0  501 -0.00000000000E+00  0.00000000000E+00  0.42034664485E+02  0.42034664563E+02  0.25500000000E-02 0. -1.
          2   -1    0    0  501    0  0.00000000000E+00 -0.00000000000E+00 -0.21857596036E+04  0.21857596036E+04  0.25500000000E-02 0.  1.
    5000001    1    1    2    0    0 -0.22029297860E+03  0.97785957540E+02 -0.13695388446E+04  0.14003402218E+04  0.16500000000E+03 0.  0.
   -5000001    1    1    2    0    0  0.22029297860E+03 -0.97785957540E+02 -0.77418609455E+03  0.82745404640E+03  0.16500000000E+03 0.  0.
<mgrwt>
<rscale>  0 0.60622660E+03</rscale>
<asrwt>0</asrwt>
<pdfrwt beam="1">  1        2 0.33627062E+00 0.60622660E+03</pdfrwt>
<pdfrwt beam="2">  1       -2 0.64668732E-02 0.60622660E+03</pdfrwt>
<totfact> 0.75413390E+02</totfact>
</mgrwt>
</event>
<event>
 4    1  0.1573232E-005  0.4139930E+03  0.7818608E-02  0.1039039E+00
          2   -1    0    0  501    0  0.00000000000E+00  0.00000000000E+00  0.27589311017E+03  0.27589311018E+03  0.25500000000E-02 0.  1.
         -2   -1    0    0    0  501 -0.00000000000E+00 -0.00000000000E+00 -0.15530490234E+03  0.15530490236E+03  0.25500000000E-02 0. -1.
    5000001    1    1    2    0    0  0.51388144914E+02  0.83049816420E+02 -0.20951072816E+02  0.19287809854E+03  0.16500000000E+03 0.  0.
   -5000001    1    1    2    0    0 -0.51388144914E+02 -0.83049816420E+02  0.14153928064E+03  0.23831991400E+03  0.16500000000E+03 0.  0.
<mgrwt>
<rscale>  0 0.41399301E+03</rscale>
<asrwt>0</asrwt>
<pdfrwt beam="1">  1        2 0.42445094E-01 0.41399301E+03</pdfrwt>
<pdfrwt beam="2">  1       -2 0.23893062E-01 0.41399301E+03</pdfrwt>
<totfact> 0.18579444E+03</totfact>
</mgrwt>
</event>
<event>
 4    1  0.1573232E-005  0.3895409E+03  0.7818608E-02  0.1047463E+00
         -2   -1    0    0    0  501 -0.00000000000E+00  0.00000000000E+00  0.46394967893E+02  0.46394967963E+02  0.25500000000E-02 0. -1.
          2   -1    0    0  501    0  0.00000000000E+00 -0.00000000000E+00 -0.81766464065E+03  0.81766464065E+03  0.25500000000E-02 0.  1.
    5000001    1    1    2    0    0 -0.70432590933E+02 -0.74315773056E+02 -0.35221941495E+03  0.40220280986E+03  0.16500000000E+03 0.  0.
   -5000001    1    1    2    0    0  0.70432590933E+02  0.74315773056E+02 -0.41905025780E+03  0.46185679875E+03  0.16500000000E+03 0.  0.
<mgrwt>
<rscale>  0 0.38954088E+03</rscale>
<asrwt>0</asrwt>
<pdfrwt beam="1">  1        2 0.12579455E+00 0.38954088E+03</pdfrwt>
<pdfrwt beam="2">  1       -2 0.71376880E-02 0.38954088E+03</pdfrwt>
<totfact> 0.39186088E+03</totfact>
</mgrwt>
</event>
<event>
 4    1  0.1573232E-005  0.4683861E+03  0.7818608E-02  0.1022377E+00
         -2   -1    0    0    0  501 -0.00000000000E+00  0.00000000000E+00  0.49167110536E+02  0.49167110602E+02  0.25500000000E-02 0. -1.
          2   -1    0    0  501    0  0.00000000000E+00 -0.00000000000E+00 -0.11155098135E+04  0.11155098135E+04  0.25500000000E-02 0.  1.
    5000001    1    1    2    0    0 -0.15872426267E+03  0.35767123310E+02 -0.44889461532E+03  0.50517725041E+03  0.16500000000E+03 0.  0.
   -5000001    1    1    2    0    0  0.15872426267E+03 -0.35767123310E+02 -0.61744808768E+03  0.65949967373E+03  0.16500000000E+03 0.  0.
<mgrwt>
<rscale>  0 0.46838614E+03</rscale>
<asrwt>0</asrwt>
<pdfrwt beam="1">  1        2 0.17161688E+00 0.46838614E+03</pdfrwt>
<pdfrwt beam="2">  1       -2 0.75641717E-02 0.46838614E+03</pdfrwt>
<totfact> 0.23104288E+03</totfact>
</mgrwt>
</event>
<event>
 4    1  0.1573232E-005  0.5944325E+03  0.7818608E-02  0.9917025E-01
          2   -1    0    0  501    0  0.00000000000E+00  0.00000000000E+00  0.18364613119E+04  0.18364613119E+04  0.25500000000E-02 0.  1.
         -2   -1    0    0    0  501 -0.00000000000E+00 -0.00000000000E+00 -0.48102018543E+02  0.48102018610E+02  0.25500000000E-02 0. -1.
    5000001    1    1    2    0    0  0.96830454224E+02  0.19624687253E+03  0.12587503843E+04  0.12882416318E+04  0.16500000000E+03 0.  0.
   -5000001    1    1    2    0    0 -0.96830454224E+02 -0.19624687253E+03  0.52960890906E+03  0.59632169874E+03  0.16500000000E+03 0.  0.
<mgrwt>
<rscale>  0 0.59443249E+03</rscale>
<asrwt>0</asrwt>
<pdfrwt beam="1">  1        2 0.28253251E+00 0.59443249E+03</pdfrwt>
<pdfrwt beam="2">  1       -2 0.74003107E-02 0.59443249E+03</pdfrwt>
<totfact> 0.94367479E+02</totfact>
</mgrwt>
</event>
<event>
 4    1  0.1573232E-005  0.6437624E+03  0.7818608E-02  0.9818555E-01
         -2   -1    0    0    0  501 -0.00000000000E+00  0.00000000000E+00  0.42443925312E+03  0.42443925313E+03  0.25500000000E-02 0. -1.
          2   -1    0    0  501    0  0.00000000000E+00 -0.00000000000E+00 -0.24410440405E+03  0.24410440406E+03  0.25500000000E-02 0.  1.
    5000001    1    1    2    0    0  0.88375950492E+02  0.21735422866E+03  0.24183499158E+03  0.37518306531E+03  0.16500000000E+03 0.  0.
   -5000001    1    1    2    0    0 -0.88375950492E+02 -0.21735422866E+03 -0.61500142509E+02  0.29336059188E+03  0.16500000000E+03 0.  0.
<mgrwt>
<rscale>  0 0.64376235E+03</rscale>
<asrwt>0</asrwt>
<pdfrwt beam="1">  1        2 0.37554524E-01 0.64376235E+03</pdfrwt>
<pdfrwt beam="2">  1       -2 0.65298347E-01 0.64376235E+03</pdfrwt>
<totfact> 0.30183192E+02</totfact>
</mgrwt>
</event>
<event>
 4    1  0.1573232E-005  0.3795267E+03  0.7818608E-02  0.1051109E+00
         -2   -1    0    0    0  501 -0.00000000000E+00  0.00000000000E+00  0.13334060215E+03  0.13334060217E+03  0.25500000000E-02 0. -1.
          2   -1    0    0  501    0  0.00000000000E+00 -0.00000000000E+00 -0.27006120716E+03  0.27006120718E+03  0.25500000000E-02 0.  1.
    5000001    1    1    2    0    0 -0.47219032987E+02 -0.80964988706E+02 -0.68782150142E+02  0.20184387692E+03  0.16500000000E+03 0.  0.
   -5000001    1    1    2    0    0  0.47219032987E+02  0.80964988706E+02 -0.67938454876E+02  0.20155793242E+03  0.16500000000E+03 0.  0.
<mgrwt>
<rscale>  0 0.37952667E+03</rscale>
<asrwt>0</asrwt>
<pdfrwt beam="1">  1        2 0.41547878E-01 0.37952667E+03</pdfrwt>
<pdfrwt beam="2">  1       -2 0.20513939E-01 0.37952667E+03</pdfrwt>
<totfact> 0.24803263E+03</totfact>
</mgrwt>
</event>
<event>
 4    1  0.1573232E-005  0.6499017E+03  0.7818608E-02  0.9806964E-01
          2   -1    0    0  501    0  0.00000000000E+00  0.00000000000E+00  0.45124360148E+03  0.45124360148E+03  0.25500000000E-02 0.  1.
         -2   -1    0    0    0  501 -0.00000000000E+00 -0.00000000000E+00 -0.23400453608E+03  0.23400453609E+03  0.25500000000E-02 0. -1.
    5000001    1    1    2    0    0 -0.24380031383E+03 -0.11173379685E+02  0.25320757997E+03  0.38846173041E+03  0.16500000000E+03 0.  0.
   -5000001    1    1    2    0    0  0.24380031383E+03  0.11173379685E+02 -0.35968514571E+02  0.29678640717E+03  0.16500000000E+03 0.  0.
<mgrwt>
<rscale>  0 0.64990168E+03</rscale>
<asrwt>0</asrwt>
<pdfrwt beam="1">  1        2 0.69422092E-01 0.64990168E+03</pdfrwt>
<pdfrwt beam="2">  1       -2 0.36000698E-01 0.64990168E+03</pdfrwt>
<totfact> 0.50683607E+02</totfact>
</mgrwt>
</event>
<event>
 4    1  0.1573232E-005  0.6205786E+03  0.7818608E-02  0.9863608E-01
         -2   -1    0    0    0  501 -0.00000000000E+00  0.00000000000E+00  0.78817687899E+02  0.78817687941E+02  0.25500000000E-02 0. -1.
          2   -1    0    0  501    0  0.00000000000E+00 -0.00000000000E+00 -0.12215463179E+04  0.12215463179E+04  0.25500000000E-02 0.  1.
    5000001    1    1    2    0    0  0.20120115090E+03  0.74420520662E+02 -0.25334454076E+03  0.37071386992E+03  0.16500000000E+03 0.  0.
   -5000001    1    1    2    0    0 -0.20120115090E+03 -0.74420520662E+02 -0.88938408927E+03  0.92965013595E+03  0.16500000000E+03 0.  0.
<mgrwt>
<rscale>  0 0.62057862E+03</rscale>
<asrwt>0</asrwt>
<pdfrwt beam="1">  1        2 0.18793019E+00 0.62057862E+03</pdfrwt>
<pdfrwt beam="2">  1       -2 0.12125799E-01 0.62057862E+03</pdfrwt>
<totfact> 0.93074370E+02</totfact>
</mgrwt>
</event>
<event>
 4    1  0.1573232E-005  0.6848698E+03  0.7818608E-02  0.9743462E-01
         -2   -1    0    0    0  501 -0.00000000000E+00  0.00000000000E+00  0.69602846926E+02  0.69602846973E+02  0.25500000000E-02 0. -1.
          2   -1    0    0  501    0  0.00000000000E+00 -0.00000000000E+00 -0.16847251599E+04  0.16847251599E+04  0.25500000000E-02 0.  1.
    5000001    1    1    2    0    0  0.20823864787E+03 -0.21442111685E+03 -0.73993830224E+03  0.81490701367E+03  0.16500000000E+03 0.  0.
   -5000001    1    1    2    0    0 -0.20823864787E+03  0.21442111685E+03 -0.87518401075E+03  0.93942099321E+03  0.16500000000E+03 0.  0.
<mgrwt>
<rscale>  0 0.68486982E+03</rscale>
<asrwt>0</asrwt>
<pdfrwt beam="1">  1        2 0.25918845E+00 0.68486982E+03</pdfrwt>
<pdfrwt beam="2">  1       -2 0.10708132E-01 0.68486982E+03</pdfrwt>
<totfact> 0.62611443E+02</totfact>
</mgrwt>
</event>
<event>
 4    1  0.1573232E-005  0.7581080E+03  0.7818608E-02  0.9622715E-01
         -2   -1    0    0    0  501 -0.00000000000E+00  0.00000000000E+00  0.29790736203E+03  0.29790736204E+03  0.25500000000E-02 0. -1.
          2   -1    0    0  501    0  0.00000000000E+00 -0.00000000000E+00 -0.48230411986E+03  0.48230411986E+03  0.25500000000E-02 0.  1.
    5000001    1    1    2    0    0  0.26102257498E+03 -0.21929426309E+03 -0.10794781527E+03  0.39382799456E+03  0.16500000000E+03 0.  0.
   -5000001    1    1    2    0    0 -0.26102257498E+03  0.21929426309E+03 -0.76448942557E+02  0.38638348735E+03  0.16500000000E+03 0.  0.
<mgrwt>
<rscale>  0 0.75810803E+03</rscale>
<asrwt>0</asrwt>
<pdfrwt beam="1">  1        2 0.74200634E-01 0.75810803E+03</pdfrwt>
<pdfrwt beam="2">  1       -2 0.45831902E-01 0.75810803E+03</pdfrwt>
<totfact> 0.29212285E+02</totfact>
</mgrwt>
</event>
<event>
 4    1  0.1573232E-005  0.6772088E+03  0.7818608E-02  0.9757022E-01
          2   -1    0    0  501    0  0.00000000000E+00  0.00000000000E+00  0.24134340655E+03  0.24134340657E+03  0.25500000000E-02 0.  1.
         -2   -1    0    0    0  501 -0.00000000000E+00 -0.00000000000E+00 -0.47506142254E+03  0.47506142255E+03  0.25500000000E-02 0. -1.
    5000001    1    1    2    0    0 -0.38820610942E+02  0.25909336032E+03 -0.26187537174E+03  0.40551216938E+03  0.16500000000E+03 0.  0.
   -5000001    1    1    2    0    0  0.38820610942E+02 -0.25909336032E+03  0.28157355746E+02  0.31089265974E+03  0.16500000000E+03 0.  0.
<mgrwt>
<rscale>  0 0.67720881E+03</rscale>
<asrwt>0</asrwt>
<pdfrwt beam="1">  1        2 0.37129755E-01 0.67720881E+03</pdfrwt>
<pdfrwt beam="2">  1       -2 0.73086372E-01 0.67720881E+03</pdfrwt>
<totfact> 0.23910974E+02</totfact>
</mgrwt>
</event>
<event>
 4    1  0.1573232E-005  0.5153611E+03  0.7818608E-02  0.1009845E+00
          2   -1    0    0  501    0  0.00000000000E+00  0.00000000000E+00  0.23240737581E+03  0.23240737583E+03  0.25500000000E-02 0.  1.
         -2   -1    0    0    0  501 -0.00000000000E+00 -0.00000000000E+00 -0.28570201777E+03  0.28570201778E+03  0.25500000000E-02 0. -1.
    5000001    1    1    2    0    0  0.57126583621E+01  0.19437940543E+03 -0.63698555070E+02  0.26286592331E+03  0.16500000000E+03 0.  0.
   -5000001    1    1    2    0    0 -0.57126583621E+01 -0.19437940543E+03  0.10403913112E+02  0.25524347029E+03  0.16500000000E+03 0.  0.
<mgrwt>
<rscale>  0 0.51536106E+03</rscale>
<asrwt>0</asrwt>
<pdfrwt beam="1">  1        2 0.35754981E-01 0.51536106E+03</pdfrwt>
<pdfrwt beam="2">  1       -2 0.43954156E-01 0.51536106E+03</pdfrwt>
<totfact> 0.72056256E+02</totfact>
</mgrwt>
</event>
<event>
 4    1  0.1573232E-005  0.6840493E+03  0.7818608E-02  0.9744906E-01
          2   -1    0    0  501    0  0.00000000000E+00  0.00000000000E+00  0.13505669798E+03  0.13505669800E+03  0.25500000000E-02 0.  1.
         -2   -1    0    0    0  501 -0.00000000000E+00 -0.00000000000E+00 -0.86616108772E+03  0.86616108772E+03  0.25500000000E-02 0. -1.
    5000001    1    1    2    0    0  0.12989150417E+03 -0.26478582730E+03 -0.44262096818E+03  0.55688567827E+03  0.16500000000E+03 0.  0.
   -5000001    1    1    2    0    0 -0.12989150417E+03  0.26478582730E+03 -0.28848342156E+03  0.44433210745E+03  0.16500000000E+03 0.  0.
<mgrwt>
<rscale>  0 0.68404929E+03</rscale>
<asrwt>0</asrwt>
<pdfrwt beam="1">  1        2 0.20777954E-01 0.68404929E+03</pdfrwt>
<pdfrwt beam="2">  1       -2 0.13325555E+00 0.68404929E+03</pdfrwt>
<totfact> 0.11217163E+02</totfact>
</mgrwt>
</event>
<event>
 4    1  0.1573232E-005  0.1093261E+04  0.7818608E-02  0.9211785E-01
         -2   -1    0    0    0  501 -0.00000000000E+00  0.00000000000E+00  0.29157391487E+03  0.29157391488E+03  0.25500000000E-02 0. -1.
          2   -1    0    0  501    0  0.00000000000E+00 -0.00000000000E+00 -0.10248002745E+04  0.10248002745E+04  0.25500000000E-02 0.  1.
    5000001    1    1    2    0    0  0.51455826018E+03 -0.82015539734E+02 -0.35562525487E+03  0.65206677095E+03  0.16500000000E+03 0.  0.
   -5000001    1    1    2    0    0 -0.51455826018E+03  0.82015539734E+02 -0.37760110477E+03  0.66430741845E+03  0.16500000000E+03 0.  0.
<mgrwt>
<rscale>  0 0.10932612E+04</rscale>
<asrwt>0</asrwt>
<pdfrwt beam="1">  1        2 0.15766158E+00 0.10932612E+04</pdfrwt>
<pdfrwt beam="2">  1       -2 0.44857526E-01 0.10932612E+04</pdfrwt>
<totfact> 0.11362606E+02</totfact>
</mgrwt>
</event>
<event>
 4    1  0.1573232E-005  0.6037454E+03  0.7818608E-02  0.9897666E-01
         -2   -1    0    0    0  501 -0.00000000000E+00  0.00000000000E+00  0.76126634060E+02  0.76126634103E+02  0.25500000000E-02 0. -1.
          2   -1    0    0  501    0  0.00000000000E+00 -0.00000000000E+00 -0.11970466681E+04  0.11970466681E+04  0.25500000000E-02 0.  1.
    5000001    1    1    2    0    0  0.23481024571E+03 -0.86504465294E+02 -0.63600244633E+03  0.70309528923E+03  0.16500000000E+03 0.  0.
   -5000001    1    1    2    0    0 -0.23481024571E+03  0.86504465294E+02 -0.48491758774E+03  0.57007801300E+03  0.16500000000E+03 0.  0.
<mgrwt>
<rscale>  0 0.60374542E+03</rscale>
<asrwt>0</asrwt>
<pdfrwt beam="1">  1        2 0.18416101E+00 0.60374542E+03</pdfrwt>
<pdfrwt beam="2">  1       -2 0.11711791E-01 0.60374542E+03</pdfrwt>
<totfact> 0.10192897E+03</totfact>
</mgrwt>
</event>
<event>
 4    1  0.1573232E-005  0.3988177E+03  0.7818608E-02  0.1044190E+00
          2   -1    0    0  501    0  0.00000000000E+00  0.00000000000E+00  0.29867965159E+03  0.29867965160E+03  0.25500000000E-02 0.  1.
         -2   -1    0    0    0  501 -0.00000000000E+00 -0.00000000000E+00 -0.13313226461E+03  0.13313226464E+03  0.25500000000E-02 0. -1.
    5000001    1    1    2    0    0  0.26838553818E+02 -0.83825182805E+02  0.78230536572E+01  0.18717149733E+03  0.16500000000E+03 0.  0.
   -5000001    1    1    2    0    0 -0.26838553818E+02  0.83825182805E+02  0.15772433332E+03  0.24464041891E+03  0.16500000000E+03 0.  0.
<mgrwt>
<rscale>  0 0.39881774E+03</rscale>
<asrwt>0</asrwt>
<pdfrwt beam="1">  1        2 0.45950715E-01 0.39881774E+03</pdfrwt>
<pdfrwt beam="2">  1       -2 0.20481887E-01 0.39881774E+03</pdfrwt>
<totfact> 0.22302897E+03</totfact>
</mgrwt>
</event>
<event>
 4    1  0.1573232E-005  0.5677488E+03  0.7818608E-02  0.9974673E-01
          2   -1    0    0  501    0  0.00000000000E+00  0.00000000000E+00  0.11978892042E+03  0.11978892045E+03  0.25500000000E-02 0.  1.
         -2   -1    0    0    0  501 -0.00000000000E+00 -0.00000000000E+00 -0.67272231748E+03  0.67272231748E+03  0.25500000000E-02 0. -1.
    5000001    1    1    2    0    0 -0.51362153752E+02 -0.22287039600E+03 -0.32170702212E+03  0.42781969606E+03  0.16500000000E+03 0.  0.
   -5000001    1    1    2    0    0  0.51362153752E+02  0.22287039600E+03 -0.23122637494E+03  0.36469154188E+03  0.16500000000E+03 0.  0.
<mgrwt>
<rscale>  0 0.56774882E+03</rscale>
<asrwt>0</asrwt>
<pdfrwt beam="1">  1        2 0.18429065E-01 0.56774882E+03</pdfrwt>
<pdfrwt beam="2">  1       -2 0.10349574E+00 0.56774882E+03</pdfrwt>
<totfact> 0.24119548E+02</totfact>
</mgrwt>
</event>
<event>
 4    1  0.1573232E-005  0.5571445E+03  0.7818608E-02  0.9998537E-01
         -2   -1    0    0    0  501 -0.00000000000E+00  0.00000000000E+00  0.56759281282E+03  0.56759281283E+03  0.25500000000E-02 0. -1.
          2   -1    0    0  501    0  0.00000000000E+00 -0.00000000000E+00 -0.13672212705E+03  0.13672212707E+03  0.25500000000E-02 0.  1.
    5000001    1    1    2    0    0  0.11528608725E+02 -0.15997778371E+03  0.16952731616E+02  0.23073403565E+03  0.16500000000E+03 0.  0.
   -5000001    1    1    2    0    0 -0.11528608725E+02  0.15997778371E+03  0.41391795416E+03  0.47358090425E+03  0.16500000000E+03 0.  0.
<mgrwt>
<rscale>  0 0.55714449E+03</rscale>
<asrwt>0</asrwt>
<pdfrwt beam="1">  1        2 0.21034173E-01 0.55714449E+03</pdfrwt>
<pdfrwt beam="2">  1       -2 0.87321974E-01 0.55714449E+03</pdfrwt>
<totfact> 0.30683716E+02</totfact>
</mgrwt>
</event>
<event>
 4    1  0.1573232E-005  0.4858839E+03  0.7818608E-02  0.1017531E+00
          2   -1    0    0  501    0  0.00000000000E+00  0.00000000000E+00  0.70875874657E+03  0.70875874657E+03  0.25500000000E-02 0.  1.
         -2   -1    0    0    0  501 -0.00000000000E+00 -0.00000000000E+00 -0.83273441079E+02  0.83273441118E+02  0.25500000000E-02 0. -1.
    5000001    1    1    2    0    0 -0.14766679811E+03 -0.73582096627E+02  0.20247401196E+03  0.30893451366E+03  0.16500000000E+03 0.  0.
   -5000001    1    1    2    0    0  0.14766679811E+03  0.73582096627E+02  0.42301129352E+03  0.48309767403E+03  0.16500000000E+03 0.  0.
<mgrwt>
<rscale>  0 0.48588385E+03</rscale>
<asrwt>0</asrwt>
<pdfrwt beam="1">  1        2 0.10903981E+00 0.48588385E+03</pdfrwt>
<pdfrwt beam="2">  1       -2 0.12811299E-01 0.48588385E+03</pdfrwt>
<totfact> 0.18417001E+03</totfact>
</mgrwt>
</event>
<event>
 4    1  0.1573232E-005  0.3778644E+03  0.7818608E-02  0.1051726E+00
          2   -1    0    0  501    0  0.00000000000E+00  0.00000000000E+00  0.39770470606E+02  0.39770470688E+02  0.25500000000E-02 0.  1.
         -2   -1    0    0    0  501 -0.00000000000E+00 -0.00000000000E+00 -0.89753454404E+03  0.89753454404E+03  0.25500000000E-02 0. -1.
    5000001    1    1    2    0    0 -0.90093347742E+02  0.74004385641E+01 -0.47175964232E+03  0.50789146274E+03  0.16500000000E+03 0.  0.
   -5000001    1    1    2    0    0  0.90093347742E+02 -0.74004385641E+01 -0.38600443111E+03  0.42941355200E+03  0.16500000000E+03 0.  0.
<mgrwt>
<rscale>  0 0.37786437E+03</rscale>
<asrwt>0</asrwt>
<pdfrwt beam="1">  1        2 0.61185346E-02 0.37786437E+03</pdfrwt>
<pdfrwt beam="2">  1       -2 0.13808222E+00 0.37786437E+03</pdfrwt>
<totfact> 0.47418638E+02</totfact>
</mgrwt>
</event>
<event>
 4    1  0.1573232E-005  0.4439846E+03  0.7818608E-02  0.1029531E+00
         -2   -1    0    0    0  501 -0.00000000000E+00  0.00000000000E+00  0.40447835732E+02  0.40447835813E+02  0.25500000000E-02 0. -1.
          2   -1    0    0  501    0  0.00000000000E+00 -0.00000000000E+00 -0.12183736231E+04  0.12183736231E+04  0.25500000000E-02 0.  1.
    5000001    1    1    2    0    0  0.15645291026E+02  0.13623467355E+03 -0.75062158098E+03  0.78068074092E+03  0.16500000000E+03 0.  0.
   -5000001    1    1    2    0    0 -0.15645291026E+02 -0.13623467355E+03 -0.42730420638E+03  0.47814071799E+03  0.16500000000E+03 0.  0.
<mgrwt>
<rscale>  0 0.44398458E+03</rscale>
<asrwt>0</asrwt>
<pdfrwt beam="1">  1        2 0.18744207E+00 0.44398458E+03</pdfrwt>
<pdfrwt beam="2">  1       -2 0.62227449E-02 0.44398458E+03</pdfrwt>
<totfact> 0.27314660E+03</totfact>
</mgrwt>
</event>
<event>
 4    1  0.1573232E-005  0.3707154E+03  0.7818608E-02  0.1054420E+00
          2   -1    0    0  501    0  0.00000000000E+00  0.00000000000E+00  0.12077716672E+04  0.12077716672E+04  0.25500000000E-02 0.  1.
         -2   -1    0    0    0  501 -0.00000000000E+00 -0.00000000000E+00 -0.28446999748E+02  0.28446999862E+02  0.25500000000E-02 0. -1.
    5000001    1    1    2    0    0  0.23518715167E+02  0.73114952162E+02  0.47254160539E+03  0.50637880585E+03  0.16500000000E+03 0.  0.
   -5000001    1    1    2    0    0 -0.23518715167E+02 -0.73114952162E+02  0.70678306203E+03  0.72983986118E+03  0.16500000000E+03 0.  0.
<mgrwt>
<rscale>  0 0.37071542E+03</rscale>
<asrwt>0</asrwt>
<pdfrwt beam="1">  1        2 0.18581103E+00 0.37071542E+03</pdfrwt>
<pdfrwt beam="2">  1       -2 0.43764613E-02 0.37071542E+03</pdfrwt>
<totfact> 0.47617394E+03</totfact>
</mgrwt>
</event>
<event>
 4    1  0.1573232E-005  0.4541058E+03  0.7818608E-02  0.1026505E+00
         -2   -1    0    0    0  501 -0.00000000000E+00  0.00000000000E+00  0.86256791470E+03  0.86256791470E+03  0.25500000000E-02 0. -1.
          2   -1    0    0  501    0  0.00000000000E+00 -0.00000000000E+00 -0.59766910640E+02  0.59766910694E+02  0.25500000000E-02 0.  1.
    5000001    1    1    2    0    0  0.26452534876E+02 -0.49890514996E+02  0.10609194540E+03  0.20413059782E+03  0.16500000000E+03 0.  0.
   -5000001    1    1    2    0    0 -0.26452534876E+02  0.49890514996E+02  0.69670905866E+03  0.71820422758E+03  0.16500000000E+03 0.  0.
<mgrwt>
<rscale>  0 0.45410580E+03</rscale>
<asrwt>0</asrwt>
<pdfrwt beam="1">  1        2 0.91949096E-02 0.45410580E+03</pdfrwt>
<pdfrwt beam="2">  1       -2 0.13270275E+00 0.45410580E+03</pdfrwt>
<totfact> 0.30924672E+02</totfact>
</mgrwt>
</event>
<event>
 4    1  0.1573232E-005  0.8226092E+03  0.7818608E-02  0.9527856E-01
          2   -1    0    0  501    0  0.00000000000E+00  0.00000000000E+00  0.73217519166E+03  0.73217519166E+03  0.25500000000E-02 0.  1.
         -2   -1    0    0    0  501 -0.00000000000E+00 -0.00000000000E+00 -0.23105329792E+03  0.23105329793E+03  0.25500000000E-02 0. -1.
    5000001    1    1    2    0    0 -0.22630829464E+03  0.76989921807E+02  0.59155191700E+03  0.65901560132E+03  0.16500000000E+03 0.  0.
   -5000001    1    1    2    0    0  0.22630829464E+03 -0.76989921807E+02 -0.90430023262E+02  0.30421288827E+03  0.16500000000E+03 0.  0.
<mgrwt>
<rscale>  0 0.82260925E+03</rscale>
<asrwt>0</asrwt>
<pdfrwt beam="1">  1        2 0.11264233E+00 0.82260925E+03</pdfrwt>
<pdfrwt beam="2">  1       -2 0.35546662E-01 0.82260925E+03</pdfrwt>
<totfact> 0.28898767E+02</totfact>
</mgrwt>
</event>
<event>
 4    1  0.1573232E-005  0.5956404E+03  0.7818608E-02  0.9914492E-01
         -2   -1    0    0    0  501 -0.00000000000E+00  0.00000000000E+00  0.26368858106E+02  0.26368858229E+02  0.25500000000E-02 0. -1.
          2   -1    0    0  501    0  0.00000000000E+00 -0.00000000000E+00 -0.33636975328E+04  0.33636975328E+04  0.25500000000E-02 0.  1.
    5000001    1    1    2    0    0  0.42598844754E+02  0.18222579448E+03 -0.74301859388E+03  0.78378730062E+03  0.16500000000E+03 0.  0.
   -5000001    1    1    2    0    0 -0.42598844754E+02 -0.18222579448E+03 -0.25943100808E+04  0.26062790904E+04  0.16500000000E+03 0.  0.
<mgrwt>
<rscale>  0 0.59564037E+03</rscale>
<asrwt>0</asrwt>
<pdfrwt beam="1">  1        2 0.51749159E+00 0.59564037E+03</pdfrwt>
<pdfrwt beam="2">  1       -2 0.40567501E-02 0.59564037E+03</pdfrwt>
<totfact> 0.31424799E+02</totfact>
</mgrwt>
</event>
<event>
 4    1  0.1573232E-005  0.7849868E+03  0.7818608E-02  0.9582006E-01
          2   -1    0    0  501    0  0.00000000000E+00  0.00000000000E+00  0.15525476870E+03  0.15525476872E+03  0.25500000000E-02 0.  1.
         -2   -1    0    0    0  501 -0.00000000000E+00 -0.00000000000E+00 -0.99224687546E+03  0.99224687546E+03  0.25500000000E-02 0. -1.
    5000001    1    1    2    0    0 -0.89902956303E+00  0.20121843318E+03  0.11028432739E+02  0.26045401213E+03  0.16500000000E+03 0.  0.
   -5000001    1    1    2    0    0  0.89902956303E+00 -0.20121843318E+03 -0.84802053950E+03  0.88704763205E+03  0.16500000000E+03 0.  0.
<mgrwt>
<rscale>  0 0.78498677E+03</rscale>
<asrwt>0</asrwt>
<pdfrwt beam="1">  1        2 0.23885350E-01 0.78498677E+03</pdfrwt>
<pdfrwt beam="2">  1       -2 0.15265336E+00 0.78498677E+03</pdfrwt>
<totfact> 0.66672873E+01</totfact>
</mgrwt>
</event>
<event>
 4    1  0.1573232E-005  0.5683708E+03  0.7818608E-02  0.9973290E-01
         -2   -1    0    0    0  501 -0.00000000000E+00  0.00000000000E+00  0.83839851248E+03  0.83839851249E+03  0.25500000000E-02 0. -1.
          2   -1    0    0  501    0  0.00000000000E+00 -0.00000000000E+00 -0.96328102953E+02  0.96328102987E+02  0.25500000000E-02 0.  1.
    5000001    1    1    2    0    0 -0.19351921202E+03 -0.12532698958E+03  0.33898509761E+03  0.44191903799E+03  0.16500000000E+03 0.  0.
   -5000001    1    1    2    0    0  0.19351921202E+03  0.12532698958E+03  0.40308531192E+03  0.49280757748E+03  0.16500000000E+03 0.  0.
<mgrwt>
<rscale>  0 0.56837079E+03</rscale>
<asrwt>0</asrwt>
<pdfrwt beam="1">  1        2 0.14819708E-01 0.56837079E+03</pdfrwt>
<pdfrwt beam="2">  1       -2 0.12898439E+00 0.56837079E+03</pdfrwt>
<totfact> 0.18295038E+02</totfact>
</mgrwt>
</event>
<event>
 4    1  0.1573232E-005  0.4269423E+03  0.7818608E-02  0.1034830E+00
         -2   -1    0    0    0  501 -0.00000000000E+00  0.00000000000E+00  0.38112186304E+02  0.38112186389E+02  0.25500000000E-02 0. -1.
          2   -1    0    0  501    0  0.00000000000E+00 -0.00000000000E+00 -0.11956785681E+04  0.11956785681E+04  0.25500000000E-02 0.  1.
    5000001    1    1    2    0    0  0.39429408744E+02  0.82160533031E+02 -0.86834208056E+03  0.88856513567E+03  0.16500000000E+03 0.  0.
   -5000001    1    1    2    0    0 -0.39429408744E+02 -0.82160533031E+02 -0.28922430123E+03  0.34522561881E+03  0.16500000000E+03 0.  0.
<mgrwt>
<rscale>  0 0.42694226E+03</rscale>
<asrwt>0</asrwt>
<pdfrwt beam="1">  1        2 0.18395052E+00 0.42694226E+03</pdfrwt>
<pdfrwt beam="2">  1       -2 0.58634142E-02 0.42694226E+03</pdfrwt>
<totfact> 0.30883240E+03</totfact>
</mgrwt>
</event>
<event>
 4    1  0.1573232E-005  0.6147038E+03  0.7818608E-02  0.9875361E-01
         -2   -1    0    0    0  501 -0.00000000000E+00  0.00000000000E+00  0.33634068250E+03  0.33634068251E+03  0.25500000000E-02 0. -1.
          2   -1    0    0  501    0  0.00000000000E+00 -0.00000000000E+00 -0.28086164964E+03  0.28086164965E+03  0.25500000000E-02 0.  1.
    5000001    1    1    2    0    0 -0.81655518702E+02 -0.86973764731E+02  0.25891028746E+03  0.32938062548E+03  0.16500000000E+03 0.  0.
   -5000001    1    1    2    0    0  0.81655518702E+02  0.86973764731E+02 -0.20343125460E+03  0.28782170668E+03  0.16500000000E+03 0.  0.
<mgrwt>
<rscale>  0 0.61470383E+03</rscale>
<asrwt>0</asrwt>
<pdfrwt beam="1">  1        2 0.43209485E-01 0.61470383E+03</pdfrwt>
<pdfrwt beam="2">  1       -2 0.51744720E-01 0.61470383E+03</pdfrwt>
<totfact> 0.42067168E+02</totfact>
</mgrwt>
</event>
<event>
 4    1  0.1573232E-005  0.6215047E+03  0.7818608E-02  0.9861768E-01
          2   -1    0    0  501    0  0.00000000000E+00  0.00000000000E+00  0.30629982721E+03  0.30629982722E+03  0.25500000000E-02 0.  1.
         -2   -1    0    0    0  501 -0.00000000000E+00 -0.00000000000E+00 -0.31526961240E+03  0.31526961241E+03  0.25500000000E-02 0. -1.
    5000001    1    1    2    0    0 -0.25153347482E+03  0.95304539496E+01 -0.81837044070E+02  0.31190097834E+03  0.16500000000E+03 0.  0.
   -5000001    1    1    2    0    0  0.25153347482E+03 -0.95304539496E+01  0.72867258876E+02  0.30966846130E+03  0.16500000000E+03 0.  0.
<mgrwt>
<rscale>  0 0.62150472E+03</rscale>
<asrwt>0</asrwt>
<pdfrwt beam="1">  1        2 0.47123050E-01 0.62150472E+03</pdfrwt>
<pdfrwt beam="2">  1       -2 0.48503017E-01 0.62150472E+03</pdfrwt>
<totfact> 0.43577794E+02</totfact>
</mgrwt>
</event>
<event>
 4    1  0.1573232E-005  0.4916713E+03  0.7818608E-02  0.1015976E+00
         -2   -1    0    0    0  501 -0.00000000000E+00  0.00000000000E+00  0.27468294359E+02  0.27468294477E+02  0.25500000000E-02 0. -1.
          2   -1    0    0  501    0  0.00000000000E+00 -0.00000000000E+00 -0.22001794269E+04  0.22001794269E+04  0.25500000000E-02 0.  1.
    5000001    1    1    2    0    0 -0.12850602827E+03  0.12804275036E+03 -0.11650176804E+04  0.11905460684E+04  0.16500000000E+03 0.  0.
   -5000001    1    1    2    0    0  0.12850602827E+03 -0.12804275036E+03 -0.10076934521E+04  0.10371016530E+04  0.16500000000E+03 0.  0.
<mgrwt>
<rscale>  0 0.49167134E+03</rscale>
<asrwt>0</asrwt>
<pdfrwt beam="1">  1        2 0.33848901E+00 0.49167134E+03</pdfrwt>
<pdfrwt beam="2">  1       -2 0.42258932E-02 0.49167134E+03</pdfrwt>
<totfact> 0.14454279E+03</totfact>
</mgrwt>
</event>
<event>
 4    1  0.1573232E-005  0.5542744E+03  0.7818608E-02  0.1000509E+00
         -2   -1    0    0    0  501 -0.00000000000E+00  0.00000000000E+00  0.41418622962E+02  0.41418623040E+02  0.25500000000E-02 0. -1.
          2   -1    0    0  501    0  0.00000000000E+00 -0.00000000000E+00 -0.18543597590E+04  0.18543597590E+04  0.25500000000E-02 0.  1.
    5000001    1    1    2    0    0 -0.24770010116E+01 -0.15304237305E+03 -0.35335667033E+03  0.41894395801E+03  0.16500000000E+03 0.  0.
   -5000001    1    1    2    0    0  0.24770010116E+01  0.15304237305E+03 -0.14595844657E+04  0.14768344240E+04  0.16500000000E+03 0.  0.
<mgrwt>
<rscale>  0 0.55427440E+03</rscale>
<asrwt>0</asrwt>
<pdfrwt beam="1">  1        2 0.28528605E+00 0.55427440E+03</pdfrwt>
<pdfrwt beam="2">  1       -2 0.63720973E-02 0.55427440E+03</pdfrwt>
<totfact> 0.11712928E+03</totfact>
</mgrwt>
</event>
<event>
 4    1  0.1573232E-005  0.9469593E+03  0.7818608E-02  0.9368712E-01
         -2   -1    0    0    0  501 -0.00000000000E+00  0.00000000000E+00  0.19304159219E+03  0.19304159221E+03  0.25500000000E-02 0. -1.
          2   -1    0    0  501    0  0.00000000000E+00 -0.00000000000E+00 -0.11613195256E+04  0.11613195256E+04  0.25500000000E-02 0.  1.
    5000001    1    1    2    0    0 -0.29265999042E+03 -0.12291465960E+03 -0.40539613924E+02  0.36003658680E+03  0.16500000000E+03 0.  0.
   -5000001    1    1    2    0    0  0.29265999042E+03  0.12291465960E+03 -0.92773831949E+03  0.99432453102E+03  0.16500000000E+03 0.  0.
<mgrwt>
<rscale>  0 0.94695928E+03</rscale>
<asrwt>0</asrwt>
<pdfrwt beam="1">  1        2 0.17866454E+00 0.94695928E+03</pdfrwt>
<pdfrwt beam="2">  1       -2 0.29698707E-01 0.94695928E+03</pdfrwt>
<totfact> 0.20866913E+02</totfact>
</mgrwt>
</event>
<event>
 4    1  0.1573232E-005  0.7422239E+03  0.7818608E-02  0.9647629E-01
          2   -1    0    0  501    0  0.00000000000E+00  0.00000000000E+00  0.22817629234E+04  0.22817629234E+04  0.25500000000E-02 0.  1.
         -2   -1    0    0    0  501 -0.00000000000E+00 -0.00000000000E+00 -0.60358629083E+02  0.60358629137E+02  0.25500000000E-02 0. -1.
    5000001    1    1    2    0    0 -0.70996303899E+02 -0.32466206813E+03  0.10876972963E+04  0.11492416378E+04  0.16500000000E+03 0.  0.
   -5000001    1    1    2    0    0  0.70996303899E+02  0.32466206813E+03  0.11337069980E+04  0.11928799147E+04  0.16500000000E+03 0.  0.
<mgrwt>
<rscale>  0 0.74222391E+03</rscale>
<asrwt>0</asrwt>
<pdfrwt beam="1">  1        2 0.35104042E+00 0.74222391E+03</pdfrwt>
<pdfrwt beam="2">  1       -2 0.92859437E-02 0.74222391E+03</pdfrwt>
<totfact> 0.37089492E+02</totfact>
</mgrwt>
</event>
<event>
 4    1  0.1573232E-005  0.4728411E+03  0.7818608E-02  0.1021121E+00
         -2   -1    0    0    0  501 -0.00000000000E+00  0.00000000000E+00  0.24983408450E+02  0.24983408580E+02  0.25500000000E-02 0. -1.
          2   -1    0    0  501    0  0.00000000000E+00 -0.00000000000E+00 -0.22372714046E+04  0.22372714046E+04  0.25500000000E-02 0.  1.
    5000001    1    1    2    0    0 -0.54500958097E+02  0.13646527221E+03 -0.15086170835E+04  0.15247109987E+04  0.16500000000E+03 0.  0.
   -5000001    1    1    2    0    0  0.54500958097E+02 -0.13646527221E+03 -0.70367091258E+03  0.73754381440E+03  0.16500000000E+03 0.  0.
<mgrwt>
<rscale>  0 0.47284105E+03</rscale>
<asrwt>0</asrwt>
<pdfrwt beam="1">  1        2 0.34419544E+00 0.47284105E+03</pdfrwt>
<pdfrwt beam="2">  1       -2 0.38436031E-02 0.47284105E+03</pdfrwt>
<totfact> 0.15971518E+03</totfact>
</mgrwt>
</event>
<event>
 4    1  0.1573232E-005  0.8035912E+03  0.7818608E-02  0.9554834E-01
         -2   -1    0    0    0  501 -0.00000000000E+00  0.00000000000E+00  0.32977694230E+03  0.32977694231E+03  0.25500000000E-02 0. -1.
          2   -1    0    0  501    0  0.00000000000E+00 -0.00000000000E+00 -0.48954210610E+03  0.48954210610E+03  0.25500000000E-02 0.  1.
    5000001    1    1    2    0    0  0.19273242689E+03 -0.21005891591E+03 -0.31448199842E+03  0.45540582326E+03  0.16500000000E+03 0.  0.
   -5000001    1    1    2    0    0 -0.19273242689E+03  0.21005891591E+03  0.15471683463E+03  0.36391322516E+03  0.16500000000E+03 0.  0.
<mgrwt>
<rscale>  0 0.80359119E+03</rscale>
<asrwt>0</asrwt>
<pdfrwt beam="1">  1        2 0.75314170E-01 0.80359119E+03</pdfrwt>
<pdfrwt beam="2">  1       -2 0.50734914E-01 0.80359119E+03</pdfrwt>
<totfact> 0.23343666E+02</totfact>
</mgrwt>
</event>
<event>
 4    1  0.1573232E-005  0.4966405E+03  0.7818608E-02  0.1014660E+00
         -2   -1    0    0    0  501 -0.00000000000E+00  0.00000000000E+00  0.15457951589E+03  0.15457951591E+03  0.25500000000E-02 0. -1.
          2   -1    0    0  501    0  0.00000000000E+00 -0.00000000000E+00 -0.39890767136E+03  0.39890767137E+03  0.25500000000E-02 0.  1.
    5000001    1    1    2    0    0 -0.15080951898E+03 -0.84762256407E+02 -0.47322277519E+02  0.24370586590E+03  0.16500000000E+03 0.  0.
   -5000001    1    1    2    0    0  0.15080951898E+03  0.84762256407E+02 -0.19700587796E+03  0.30978132138E+03  0.16500000000E+03 0.  0.
<mgrwt>
<rscale>  0 0.49664053E+03</rscale>
<asrwt>0</asrwt>
<pdfrwt beam="1">  1        2 0.61370411E-01 0.49664053E+03</pdfrwt>
<pdfrwt beam="2">  1       -2 0.23781464E-01 0.49664053E+03</pdfrwt>
<totfact> 0.12508014E+03</totfact>
</mgrwt>
</event>
<event>
 4    1  0.1573232E-005  0.5938654E+03  0.7818608E-02  0.9918216E-01
          2   -1    0    0  501    0  0.00000000000E+00  0.00000000000E+00  0.21723928115E+04  0.21723928115E+04  0.25500000000E-02 0.  1.
         -2   -1    0    0    0  501 -0.00000000000E+00 -0.00000000000E+00 -0.40586135610E+02  0.40586135690E+02  0.25500000000E-02 0. -1.
    5000001    1    1    2    0    0  0.51282856463E+02 -0.23374655809E+03  0.83995191566E+03  0.88882597025E+03  0.16500000000E+03 0.  0.
   -5000001    1    1    2    0    0 -0.51282856463E+02  0.23374655809E+03  0.12918547602E+04  0.13241529769E+04  0.16500000000E+03 0.  0.
<mgrwt>
<rscale>  0 0.59386540E+03</rscale>
<asrwt>0</asrwt>
<pdfrwt beam="1">  1        2 0.33421423E+00 0.59386540E+03</pdfrwt>
<pdfrwt beam="2">  1       -2 0.62440217E-02 0.59386540E+03</pdfrwt>
<totfact> 0.81112667E+02</totfact>
</mgrwt>
</event>
<event>
 4    1  0.1573232E-005  0.4663654E+03  0.7818608E-02  0.1022951E+00
         -2   -1    0    0    0  501 -0.00000000000E+00  0.00000000000E+00  0.32980554308E+02  0.32980554407E+02  0.25500000000E-02 0. -1.
          2   -1    0    0  501    0  0.00000000000E+00 -0.00000000000E+00 -0.16486737959E+04  0.16486737959E+04  0.25500000000E-02 0.  1.
    5000001    1    1    2    0    0  0.16373468937E+03 -0.28611502911E+01 -0.87354291710E+03  0.90394660390E+03  0.16500000000E+03 0.  0.
   -5000001    1    1    2    0    0 -0.16373468937E+03  0.28611502911E+01 -0.74215032449E+03  0.77770774641E+03  0.16500000000E+03 0.  0.
<mgrwt>
<rscale>  0 0.46636542E+03</rscale>
<asrwt>0</asrwt>
<pdfrwt beam="1">  1        2 0.25364206E+00 0.46636542E+03</pdfrwt>
<pdfrwt beam="2">  1       -2 0.50739327E-02 0.46636542E+03</pdfrwt>
<totfact> 0.21639547E+03</totfact>
</mgrwt>
</event>
<event>
 4    1  0.1573232E-005  0.4711016E+03  0.7818608E-02  0.1021610E+00
          2   -1    0    0  501    0  0.00000000000E+00  0.00000000000E+00  0.44542163024E+03  0.44542163024E+03  0.25500000000E-02 0.  1.
         -2   -1    0    0    0  501 -0.00000000000E+00 -0.00000000000E+00 -0.12456551598E+03  0.12456551601E+03  0.25500000000E-02 0. -1.
    5000001    1    1    2    0    0 -0.32635184747E+02  0.15654897955E+03  0.22313951636E+03  0.32029499222E+03  0.16500000000E+03 0.  0.
   -5000001    1    1    2    0    0  0.32635184747E+02 -0.15654897955E+03  0.97716597896E+02  0.24969215403E+03  0.16500000000E+03 0.  0.
<mgrwt>
<rscale>  0 0.47110158E+03</rscale>
<asrwt>0</asrwt>
<pdfrwt beam="1">  1        2 0.68526405E-01 0.47110158E+03</pdfrwt>
<pdfrwt beam="2">  1       -2 0.19163926E-01 0.47110158E+03</pdfrwt>
<totfact> 0.16130797E+03</totfact>
</mgrwt>
</event>
<event>
 4    1  0.1573232E-005  0.9639588E+03  0.7818608E-02  0.9348982E-01
          2   -1    0    0  501    0  0.00000000000E+00  0.00000000000E+00  0.16029266344E+04  0.16029266344E+04  0.25500000000E-02 0.  1.
         -2   -1    0    0    0  501 -0.00000000000E+00 -0.00000000000E+00 -0.14492501115E+03  0.14492501117E+03  0.25500000000E-02 0. -1.
    5000001    1    1    2    0    0  0.64951306616E+02  0.59664805429E+02 -0.76396694041E+02  0.20208912909E+03  0.16500000000E+03 0.  0.
   -5000001    1    1    2    0    0 -0.64951306616E+02 -0.59664805429E+02  0.15343983173E+04  0.15457625165E+04  0.16500000000E+03 0.  0.
<mgrwt>
<rscale>  0 0.96395884E+03</rscale>
<asrwt>0</asrwt>
<pdfrwt beam="1">  1        2 0.24660410E+00 0.96395884E+03</pdfrwt>
<pdfrwt beam="2">  1       -2 0.22296155E-01 0.96395884E+03</pdfrwt>
<totfact> 0.19588804E+02</totfact>
</mgrwt>
</event>
<event>
 4    1  0.1573232E-005  0.8406687E+03  0.7818608E-02  0.9502947E-01
         -2   -1    0    0    0  501 -0.00000000000E+00  0.00000000000E+00  0.48534869070E+03  0.48534869070E+03  0.25500000000E-02 0. -1.
          2   -1    0    0  501    0  0.00000000000E+00 -0.00000000000E+00 -0.36402893249E+03  0.36402893250E+03  0.25500000000E-02 0.  1.
    5000001    1    1    2    0    0  0.23069455818E+01  0.20543615572E+03  0.39153778155E+03  0.47194933039E+03  0.16500000000E+03 0.  0.
   -5000001    1    1    2    0    0 -0.23069455818E+01 -0.20543615572E+03 -0.27021802334E+03  0.37742829281E+03  0.16500000000E+03 0.  0.
<mgrwt>
<rscale>  0 0.84066870E+03</rscale>
<asrwt>0</asrwt>
<pdfrwt beam="1">  1        2 0.56004451E-01 0.84066870E+03</pdfrwt>
<pdfrwt beam="2">  1       -2 0.74669029E-01 0.84066870E+03</pdfrwt>
<totfact> 0.14349363E+02</totfact>
</mgrwt>
</event>
<event>
 4    1  0.1573232E-005  0.5224259E+03  0.7818608E-02  0.1008086E+00
         -2   -1    0    0    0  501 -0.00000000000E+00  0.00000000000E+00  0.39071529177E+03  0.39071529178E+03  0.25500000000E-02 0. -1.
          2   -1    0    0  501    0  0.00000000000E+00 -0.00000000000E+00 -0.17463408571E+03  0.17463408573E+03  0.25500000000E-02 0.  1.
    5000001    1    1    2    0    0  0.29566165195E+02  0.11912827243E+03 -0.66256347692E+02  0.21605695320E+03  0.16500000000E+03 0.  0.
   -5000001    1    1    2    0    0 -0.29566165195E+02 -0.11912827243E+03  0.28233755376E+03  0.34929242431E+03  0.16500000000E+03 0.  0.
<mgrwt>
<rscale>  0 0.52242591E+03</rscale>
<asrwt>0</asrwt>
<pdfrwt beam="1">  1        2 0.26866782E-01 0.52242591E+03</pdfrwt>
<pdfrwt beam="2">  1       -2 0.60110045E-01 0.52242591E+03</pdfrwt>
<totfact> 0.52477346E+02</totfact>
</mgrwt>
</event>
<event>
 4    1  0.1573232E-005  0.4937326E+03  0.7818608E-02  0.1015428E+00
         -2   -1    0    0    0  501 -0.00000000000E+00  0.00000000000E+00  0.40406274707E+02  0.40406274787E+02  0.25500000000E-02 0. -1.
          2   -1    0    0  501    0  0.00000000000E+00 -0.00000000000E+00 -0.15082549345E+04  0.15082549345E+04  0.25500000000E-02 0.  1.
    5000001    1    1    2    0    0  0.15367384476E+03  0.99379279140E+02 -0.78108583287E+03  0.81903111663E+03  0.16500000000E+03 0.  0.
   -5000001    1    1    2    0    0 -0.15367384476E+03 -0.99379279140E+02 -0.68676282696E+03  0.72963009271E+03  0.16500000000E+03 0.  0.
<mgrwt>
<rscale>  0 0.49373257E+03</rscale>
<asrwt>0</asrwt>
<pdfrwt beam="1">  1        2 0.23203918E+00 0.49373257E+03</pdfrwt>
<pdfrwt beam="2">  1       -2 0.62163511E-02 0.49373257E+03</pdfrwt>
<totfact> 0.18802950E+03</totfact>
</mgrwt>
</event>
<event>
 4    1  0.1573232E-005  0.6085641E+03  0.7818608E-02  0.9887796E-01
         -2   -1    0    0    0  501 -0.00000000000E+00  0.00000000000E+00  0.97244654195E+02  0.97244654228E+02  0.25500000000E-02 0.  1.
          2   -1    0    0  501    0  0.00000000000E+00 -0.00000000000E+00 -0.95210953011E+03  0.95210953012E+03  0.25500000000E-02 0. -1.
    5000001    1    1    2    0    0 -0.20621114629E+03  0.13365565294E+03 -0.54906294202E+03  0.62376436634E+03  0.16500000000E+03 0.  0.
   -5000001    1    1    2    0    0  0.20621114629E+03 -0.13365565294E+03 -0.30580193390E+03  0.42558981801E+03  0.16500000000E+03 0.  0.
<mgrwt>
<rscale>  0 0.60856409E+03</rscale>
<asrwt>0</asrwt>
<pdfrwt beam="1">  1        2 0.14647838E+00 0.60856409E+03</pdfrwt>
<pdfrwt beam="2">  1       -2 0.14960717E-01 0.60856409E+03</pdfrwt>
<totfact> 0.95931337E+02</totfact>
</mgrwt>
</event>
<event>
 4    1  0.1573232E-005  0.5491779E+03  0.7818608E-02  0.1001684E+00
          2   -1    0    0  501    0  0.00000000000E+00  0.00000000000E+00  0.34998575605E+03  0.34998575606E+03  0.25500000000E-02 0.  1.
         -2   -1    0    0    0  501 -0.00000000000E+00 -0.00000000000E+00 -0.21543471936E+03  0.21543471938E+03  0.25500000000E-02 0. -1.
    5000001    1    1    2    0    0 -0.18313502680E+03 -0.11556815041E+03  0.30445349008E+02  0.27394589741E+03  0.16500000000E+03 0.  0.
   -5000001    1    1    2    0    0  0.18313502680E+03  0.11556815041E+03  0.10410568768E+03  0.29147457803E+03  0.16500000000E+03 0.  0.
<mgrwt>
<rscale>  0 0.54917787E+03</rscale>
<asrwt>0</asrwt>
<pdfrwt beam="1">  1        2 0.53843962E-01 0.54917787E+03</pdfrwt>
<pdfrwt beam="2">  1       -2 0.33143803E-01 0.54917787E+03</pdfrwt>
<totfact> 0.78899122E+02</totfact>
</mgrwt>
</event>
<event>
 4    1  0.1573232E-005  0.9060038E+03  0.7818608E-02  0.9418107E-01
         -2   -1    0    0    0  501 -0.00000000000E+00  0.00000000000E+00  0.10183331735E+03  0.10183331738E+03  0.25500000000E-02 0. -1.
          2   -1    0    0  501    0  0.00000000000E+00 -0.00000000000E+00 -0.20151627089E+04  0.20151627089E+04  0.25500000000E-02 0.  1.
    5000001    1    1    2    0    0  0.19819110050E+03 -0.21260128307E+03 -0.16711797354E+04  0.17042727850E+04  0.16500000000E+03 0.  0.
   -5000001    1    1    2    0    0 -0.19819110050E+03  0.21260128307E+03 -0.24214965617E+03  0.41272324125E+03  0.16500000000E+03 0.  0.
<mgrwt>
<rscale>  0 0.90600376E+03</rscale>
<asrwt>0</asrwt>
<pdfrwt beam="1">  1        2 0.31002500E+00 0.90600376E+03</pdfrwt>
<pdfrwt beam="2">  1       -2 0.15666666E-01 0.90600376E+03</pdfrwt>
<totfact> 0.21569938E+02</totfact>
</mgrwt>
</event>
<event>
 4    1  0.1573232E-005  0.5078763E+03  0.7818608E-02  0.1011743E+00
          2   -1    0    0  501    0  0.00000000000E+00  0.00000000000E+00  0.11179599943E+04  0.11179599944E+04  0.25500000000E-02 0.  1.
         -2   -1    0    0    0  501 -0.00000000000E+00 -0.00000000000E+00 -0.57680579275E+02  0.57680579331E+02  0.25500000000E-02 0. -1.
    5000001    1    1    2    0    0  0.15534441363E+03  0.45338868539E+02  0.77371388521E+03  0.80749345261E+03  0.16500000000E+03 0.  0.
   -5000001    1    1    2    0    0 -0.15534441363E+03 -0.45338868539E+02  0.28656552987E+03  0.36814712107E+03  0.16500000000E+03 0.  0.
<mgrwt>
<rscale>  0 0.50787628E+03</rscale>
<asrwt>0</asrwt>
<pdfrwt beam="1">  1        2 0.17199383E+00 0.50787628E+03</pdfrwt>
<pdfrwt beam="2">  1       -2 0.88739362E-02 0.50787628E+03</pdfrwt>
<totfact> 0.17854721E+03</totfact>
</mgrwt>
</event>
<event>
 4    1  0.1573232E-005  0.5788956E+03  0.7818608E-02  0.9950185E-01
          2   -1    0    0  501    0  0.00000000000E+00  0.00000000000E+00  0.18596797669E+04  0.18596797669E+04  0.25500000000E-02 0.  1.
         -2   -1    0    0    0  501 -0.00000000000E+00 -0.00000000000E+00 -0.45050788221E+02  0.45050788293E+02  0.25500000000E-02 0. -1.
    5000001    1    1    2    0    0 -0.23225388158E+03  0.46620414496E+02  0.83831960919E+03  0.88663413858E+03  0.16500000000E+03 0.  0.
   -5000001    1    1    2    0    0  0.23225388158E+03 -0.46620414496E+02  0.97630936950E+03  0.10180964166E+04  0.16500000000E+03 0.  0.
<mgrwt>
<rscale>  0 0.57889564E+03</rscale>
<asrwt>0</asrwt>
<pdfrwt beam="1">  1        2 0.28610464E+00 0.57889564E+03</pdfrwt>
<pdfrwt beam="2">  1       -2 0.69308890E-02 0.57889564E+03</pdfrwt>
<totfact> 0.10179160E+03</totfact>
</mgrwt>
</event>
<event>
 4    1  0.1573232E-005  0.6237250E+03  0.7818608E-02  0.9857371E-01
          2   -1    0    0  501    0  0.00000000000E+00  0.00000000000E+00  0.23079503042E+04  0.23079503042E+04  0.25500000000E-02 0.  1.
         -2   -1    0    0    0  501 -0.00000000000E+00 -0.00000000000E+00 -0.42140521352E+02  0.42140521429E+02  0.25500000000E-02 0. -1.
    5000001    1    1    2    0    0  0.98286581184E+02 -0.18945040403E+03  0.17224413598E+04  0.17434394012E+04  0.16500000000E+03 0.  0.
   -5000001    1    1    2    0    0 -0.98286581184E+02  0.18945040403E+03  0.54336842306E+03  0.60665142447E+03  0.16500000000E+03 0.  0.
<mgrwt>
<rscale>  0 0.62372503E+03</rscale>
<asrwt>0</asrwt>
<pdfrwt beam="1">  1        2 0.35506931E+00 0.62372503E+03</pdfrwt>
<pdfrwt beam="2">  1       -2 0.64831565E-02 0.62372503E+03</pdfrwt>
<totfact> 0.64265128E+02</totfact>
</mgrwt>
</event>
<event>
 4    1  0.1573232E-005  0.4104128E+03  0.7818608E-02  0.1040233E+00
         -2   -1    0    0    0  501 -0.00000000000E+00  0.00000000000E+00  0.42675137353E+02  0.42675137429E+02  0.25500000000E-02 0. -1.
          2   -1    0    0  501    0  0.00000000000E+00 -0.00000000000E+00 -0.98674955047E+03  0.98674955048E+03  0.25500000000E-02 0.  1.
    5000001    1    1    2    0    0  0.66662705649E+02  0.96082447010E+02 -0.55924842962E+03  0.59469282742E+03  0.16500000000E+03 0.  0.
   -5000001    1    1    2    0    0 -0.66662705649E+02 -0.96082447010E+02 -0.38482598350E+03  0.43473186049E+03  0.16500000000E+03 0.  0.
<mgrwt>
<rscale>  0 0.41041283E+03</rscale>
<asrwt>0</asrwt>
<pdfrwt beam="1">  1        2 0.15180761E+00 0.41041283E+03</pdfrwt>
<pdfrwt beam="2">  1       -2 0.65654065E-02 0.41041283E+03</pdfrwt>
<totfact> 0.34589010E+03</totfact>
</mgrwt>
</event>
<event>
 4    1  0.1573232E-005  0.7875432E+03  0.7818608E-02  0.9578225E-01
          2   -1    0    0  501    0  0.00000000000E+00  0.00000000000E+00  0.13078314150E+04  0.13078314150E+04  0.25500000000E-02 0.  1.
         -2   -1    0    0    0  501 -0.00000000000E+00 -0.00000000000E+00 -0.11855968833E+03  0.11855968836E+03  0.25500000000E-02 0. -1.
    5000001    1    1    2    0    0  0.33507079263E+03 -0.79208580696E+02  0.42011515024E+03  0.56768668717E+03  0.16500000000E+03 0.  0.
   -5000001    1    1    2    0    0 -0.33507079263E+03  0.79208580696E+02  0.76915657642E+03  0.85870441619E+03  0.16500000000E+03 0.  0.
<mgrwt>
<rscale>  0 0.78754323E+03</rscale>
<asrwt>0</asrwt>
<pdfrwt beam="1">  1        2 0.20120483E+00 0.78754323E+03</pdfrwt>
<pdfrwt beam="2">  1       -2 0.18239952E-01 0.78754323E+03</pdfrwt>
<totfact> 0.41309572E+02</totfact>
</mgrwt>
</event>
<event>
 4    1  0.1573232E-005  0.4589257E+03  0.7818608E-02  0.1025093E+00
          2   -1    0    0  501    0  0.00000000000E+00  0.00000000000E+00  0.11534549284E+03  0.11534549287E+03  0.25500000000E-02 0.  1.
         -2   -1    0    0    0  501 -0.00000000000E+00 -0.00000000000E+00 -0.45648258484E+03  0.45648258485E+03  0.25500000000E-02 0. -1.
    5000001    1    1    2    0    0  0.21396073219E+02  0.91675826579E+02 -0.10195507295E+02  0.19023984203E+03  0.16500000000E+03 0.  0.
   -5000001    1    1    2    0    0 -0.21396073219E+02 -0.91675826579E+02 -0.33094158470E+03  0.38158823568E+03  0.16500000000E+03 0.  0.
<mgrwt>
<rscale>  0 0.45892574E+03</rscale>
<asrwt>0</asrwt>
<pdfrwt beam="1">  1        2 0.17745461E-01 0.45892574E+03</pdfrwt>
<pdfrwt beam="2">  1       -2 0.70228089E-01 0.45892574E+03</pdfrwt>
<totfact> 0.60838738E+02</totfact>
</mgrwt>
</event>
<event>
 4    1  0.1573232E-005  0.3708708E+03  0.7818608E-02  0.1054361E+00
          2   -1    0    0  501    0  0.00000000000E+00  0.00000000000E+00  0.27846997741E+04  0.27846997741E+04  0.25500000000E-02 0.  1.
         -2   -1    0    0    0  501 -0.00000000000E+00 -0.00000000000E+00 -0.12348289856E+02  0.12348290119E+02  0.25500000000E-02 0. -1.
    5000001    1    1    2    0    0  0.27936046196E+02  0.58686683086E+02  0.97747125128E+03  0.99342820402E+03  0.16500000000E+03 0.  0.
   -5000001    1    1    2    0    0 -0.27936046196E+02 -0.58686683086E+02  0.17948802329E+04  0.18036198602E+04  0.16500000000E+03 0.  0.
<mgrwt>
<rscale>  0 0.37087076E+03</rscale>
<asrwt>0</asrwt>
<pdfrwt beam="1">  1        2 0.42841581E+00 0.37087076E+03</pdfrwt>
<pdfrwt beam="2">  1       -2 0.18997349E-02 0.37087076E+03</pdfrwt>
<totfact> 0.22965781E+03</totfact>
</mgrwt>
</event>
<event>
 4    1  0.1573232E-005  0.8382676E+03  0.7818608E-02  0.9506221E-01
         -2   -1    0    0    0  501 -0.00000000000E+00  0.00000000000E+00  0.12249041061E+03  0.12249041064E+03  0.25500000000E-02 0. -1.
          2   -1    0    0  501    0  0.00000000000E+00 -0.00000000000E+00 -0.14341786525E+04  0.14341786525E+04  0.25500000000E-02 0.  1.
    5000001    1    1    2    0    0  0.20386458248E+03 -0.31696026545E+03 -0.50701040568E+03  0.65292352487E+03  0.16500000000E+03 0.  0.
   -5000001    1    1    2    0    0 -0.20386458248E+03  0.31696026545E+03 -0.80467783625E+03  0.90374553831E+03  0.16500000000E+03 0.  0.
<mgrwt>
<rscale>  0 0.83826758E+03</rscale>
<asrwt>0</asrwt>
<pdfrwt beam="1">  1        2 0.22064286E+00 0.83826758E+03</pdfrwt>
<pdfrwt beam="2">  1       -2 0.18844679E-01 0.83826758E+03</pdfrwt>
<totfact> 0.32981436E+02</totfact>
</mgrwt>
</event>
<event>
 4    1  0.1573232E-005  0.5474838E+03  0.7818608E-02  0.1002078E+00
          2   -1    0    0  501    0  0.00000000000E+00  0.00000000000E+00  0.39746306843E+03  0.39746306844E+03  0.25500000000E-02 0.  1.
         -2   -1    0    0    0  501 -0.00000000000E+00 -0.00000000000E+00 -0.18853227583E+03  0.18853227585E+03  0.25500000000E-02 0. -1.
    5000001    1    1    2    0    0 -0.92945395577E+02  0.17899006534E+03  0.19422962906E+03  0.32500221361E+03  0.16500000000E+03 0.  0.
   -5000001    1    1    2    0    0  0.92945395577E+02 -0.17899006534E+03  0.14701163538E+02  0.26099313067E+03  0.16500000000E+03 0.  0.
<mgrwt>
<rscale>  0 0.54748376E+03</rscale>
<asrwt>0</asrwt>
<pdfrwt beam="1">  1        2 0.61148163E-01 0.54748376E+03</pdfrwt>
<pdfrwt beam="2">  1       -2 0.29004966E-01 0.54748376E+03</pdfrwt>
<totfact> 0.87741283E+02</totfact>
</mgrwt>
</event>
<event>
 4    1  0.1573232E-005  0.3931517E+03  0.7818608E-02  0.1046177E+00
          2   -1    0    0  501    0  0.00000000000E+00  0.00000000000E+00  0.19228168721E+03  0.19228168723E+03  0.25500000000E-02 0.  1.
         -2   -1    0    0    0  501 -0.00000000000E+00 -0.00000000000E+00 -0.20096592663E+03  0.20096592665E+03  0.25500000000E-02 0. -1.
    5000001    1    1    2    0    0  0.92352475985E+02 -0.76159387705E+01  0.48869401084E+02  0.19544871631E+03  0.16500000000E+03 0.  0.
   -5000001    1    1    2    0    0 -0.92352475985E+02  0.76159387705E+01 -0.57553640507E+02  0.19779889757E+03  0.16500000000E+03 0.  0.
<mgrwt>
<rscale>  0 0.39315171E+03</rscale>
<asrwt>0</asrwt>
<pdfrwt beam="1">  1        2 0.29581798E-01 0.39315171E+03</pdfrwt>
<pdfrwt beam="2">  1       -2 0.30917835E-01 0.39315171E+03</pdfrwt>
<totfact> 0.17351378E+03</totfact>
</mgrwt>
</event>
<event>
 4    1  0.1573232E-005  0.6647173E+03  0.7818608E-02  0.9779548E-01
         -2   -1    0    0    0  501 -0.00000000000E+00  0.00000000000E+00  0.61804649859E+02  0.61804649912E+02  0.25500000000E-02 0. -1.
          2   -1    0    0  501    0  0.00000000000E+00 -0.00000000000E+00 -0.17872810041E+04  0.17872810041E+04  0.25500000000E-02 0.  1.
    5000001    1    1    2    0    0 -0.24718435024E+03  0.92494862976E+02 -0.53854797328E+03  0.62202437429E+03  0.16500000000E+03 0.  0.
   -5000001    1    1    2    0    0  0.24718435024E+03 -0.92494862976E+02 -0.11869283809E+04  0.12270612797E+04  0.16500000000E+03 0.  0.
<mgrwt>
<rscale>  0 0.66471731E+03</rscale>
<asrwt>0</asrwt>
<pdfrwt beam="1">  1        2 0.27496627E+00 0.66471731E+03</pdfrwt>
<pdfrwt beam="2">  1       -2 0.95084091E-02 0.66471731E+03</pdfrwt>
<totfact> 0.66877747E+02</totfact>
</mgrwt>
</event>
<event>
 4    1  0.1573232E-005  0.4544686E+03  0.7818608E-02  0.1026398E+00
          2   -1    0    0  501    0  0.00000000000E+00  0.00000000000E+00  0.35941647657E+03  0.35941647658E+03  0.25500000000E-02 0.  1.
         -2   -1    0    0    0  501 -0.00000000000E+00 -0.00000000000E+00 -0.14366460265E+03  0.14366460268E+03  0.25500000000E-02 0. -1.
    5000001    1    1    2    0    0  0.82596619741E+02  0.11507260525E+03  0.18085611386E+03  0.28283889406E+03  0.16500000000E+03 0.  0.
   -5000001    1    1    2    0    0 -0.82596619741E+02 -0.11507260525E+03  0.34895760060E+02  0.22024218520E+03  0.16500000000E+03 0.  0.
<mgrwt>
<rscale>  0 0.45446859E+03</rscale>
<asrwt>0</asrwt>
<pdfrwt beam="1">  1        2 0.55294842E-01 0.45446859E+03</pdfrwt>
<pdfrwt beam="2">  1       -2 0.22102247E-01 0.45446859E+03</pdfrwt>
<totfact> 0.15967791E+03</totfact>
</mgrwt>
</event>
<event>
 4    1  0.1573232E-005  0.8695635E+03  0.7818608E-02  0.9464449E-01
         -2   -1    0    0    0  501 -0.00000000000E+00  0.00000000000E+00  0.34724690613E+03  0.34724690614E+03  0.25500000000E-02 0. -1.
          2   -1    0    0  501    0  0.00000000000E+00 -0.00000000000E+00 -0.54438256193E+03  0.54438256194E+03  0.25500000000E-02 0.  1.
    5000001    1    1    2    0    0  0.15265647946E+03  0.14012688718E+03  0.25495737299E+03  0.36765174727E+03  0.16500000000E+03 0.  0.
   -5000001    1    1    2    0    0 -0.15265647946E+03 -0.14012688718E+03 -0.45209302878E+03  0.52397772081E+03  0.16500000000E+03 0.  0.
<mgrwt>
<rscale>  0 0.86956348E+03</rscale>
<asrwt>0</asrwt>
<pdfrwt beam="1">  1        2 0.83751164E-01 0.86956348E+03</pdfrwt>
<pdfrwt beam="2">  1       -2 0.53422600E-01 0.86956348E+03</pdfrwt>
<totfact> 0.18493116E+02</totfact>
</mgrwt>
</event>
<event>
 4    1  0.1573232E-005  0.3614946E+03  0.7818608E-02  0.1057994E+00
          2   -1    0    0  501    0  0.00000000000E+00  0.00000000000E+00  0.17031905305E+04  0.17031905305E+04  0.25500000000E-02 0.  1.
         -2   -1    0    0    0  501 -0.00000000000E+00 -0.00000000000E+00 -0.19181408124E+02  0.19181408293E+02  0.25500000000E-02 0. -1.
    5000001    1    1    2    0    0  0.55275792471E+01 -0.43568156172E+02  0.11245189223E+04  0.11374078183E+04  0.16500000000E+03 0.  0.
   -5000001    1    1    2    0    0 -0.55275792471E+01  0.43568156172E+02  0.55949020006E+03  0.58496412055E+03  0.16500000000E+03 0.  0.
<mgrwt>
<rscale>  0 0.36149464E+03</rscale>
<asrwt>0</asrwt>
<pdfrwt beam="1">  1        2 0.26202936E+00 0.36149464E+03</pdfrwt>
<pdfrwt beam="2">  1       -2 0.29509854E-02 0.36149464E+03</pdfrwt>
<totfact> 0.46231597E+03</totfact>
</mgrwt>
</event>
<event>
 4    1  0.1573232E-005  0.5995103E+03  0.7818608E-02  0.9906422E-01
         -2   -1    0    0    0  501 -0.00000000000E+00  0.00000000000E+00  0.25694634179E+03  0.25694634180E+03  0.25500000000E-02 0. -1.
          2   -1    0    0  501    0  0.00000000000E+00 -0.00000000000E+00 -0.34969621972E+03  0.34969621973E+03  0.25500000000E-02 0.  1.
    5000001    1    1    2    0    0  0.17086011549E+03  0.17533977031E+03  0.61165666827E+01  0.29529582879E+03  0.16500000000E+03 0.  0.
   -5000001    1    1    2    0    0 -0.17086011549E+03 -0.17533977031E+03 -0.98866444613E+02  0.31134673274E+03  0.16500000000E+03 0.  0.
<mgrwt>
<rscale>  0 0.59951035E+03</rscale>
<asrwt>0</asrwt>
<pdfrwt beam="1">  1        2 0.53799419E-01 0.59951035E+03</pdfrwt>
<pdfrwt beam="2">  1       -2 0.39530206E-01 0.59951035E+03</pdfrwt>
<totfact> 0.56404739E+02</totfact>
</mgrwt>
</event>
<event>
 4    1  0.1573232E-005  0.7006518E+03  0.7818608E-02  0.9716118E-01
          2   -1    0    0  501    0  0.00000000000E+00  0.00000000000E+00  0.33403169408E+03  0.33403169409E+03  0.25500000000E-02 0.  1.
         -2   -1    0    0    0  501 -0.00000000000E+00 -0.00000000000E+00 -0.36741496393E+03  0.36741496394E+03  0.25500000000E-02 0. -1.
    5000001    1    1    2    0    0 -0.24272274575E+03  0.86178427452E+02  0.15427149713E+03  0.34258684664E+03  0.16500000000E+03 0.  0.
   -5000001    1    1    2    0    0  0.24272274575E+03 -0.86178427452E+02 -0.18765476699E+03  0.35885981139E+03  0.16500000000E+03 0.  0.
<mgrwt>
<rscale>  0 0.70065182E+03</rscale>
<asrwt>0</asrwt>
<pdfrwt beam="1">  1        2 0.51389491E-01 0.70065182E+03</pdfrwt>
<pdfrwt beam="2">  1       -2 0.56525379E-01 0.70065182E+03</pdfrwt>
<totfact> 0.28866515E+02</totfact>
</mgrwt>
</event>
<event>
 4    1  0.1573232E-005  0.7367932E+03  0.7818608E-02  0.9656301E-01
         -2   -1    0    0    0  501 -0.00000000000E+00  0.00000000000E+00  0.62695950582E+02  0.62695950634E+02  0.25500000000E-02 0. -1.
          2   -1    0    0  501    0  0.00000000000E+00 -0.00000000000E+00 -0.21646699637E+04  0.21646699637E+04  0.25500000000E-02 0.  1.
    5000001    1    1    2    0    0  0.30974727268E+03 -0.60132069621E+02 -0.13366904901E+04  0.13833024633E+04  0.16500000000E+03 0.  0.
   -5000001    1    1    2    0    0 -0.30974727268E+03  0.60132069621E+02 -0.76528352308E+03  0.84406345107E+03  0.16500000000E+03 0.  0.
<mgrwt>
<rscale>  0 0.73679316E+03</rscale>
<asrwt>0</asrwt>
<pdfrwt beam="1">  1        2 0.33302609E+00 0.73679316E+03</pdfrwt>
<pdfrwt beam="2">  1       -2 0.96455325E-02 0.73679316E+03</pdfrwt>
<totfact> 0.40487123E+02</totfact>
</mgrwt>
</event>
<event>
 4    1  0.1573232E-005  0.3735091E+03  0.7818608E-02  0.1053359E+00
          2   -1    0    0  501    0  0.00000000000E+00  0.00000000000E+00  0.68257124616E+03  0.68257124616E+03  0.25500000000E-02 0.  1.
         -2   -1    0    0    0  501 -0.00000000000E+00 -0.00000000000E+00 -0.51096885579E+02  0.51096885643E+02  0.25500000000E-02 0. -1.
    5000001    1    1    2    0    0  0.76686439500E+02 -0.15395342872E+01  0.39835481653E+03  0.43794376354E+03  0.16500000000E+03 0.  0.
   -5000001    1    1    2    0    0 -0.76686439500E+02  0.15395342872E+01  0.23311954404E+03  0.29572436826E+03  0.16500000000E+03 0.  0.
<mgrwt>
<rscale>  0 0.37350912E+03</rscale>
<asrwt>0</asrwt>
<pdfrwt beam="1">  1        2 0.10501095E+00 0.37350912E+03</pdfrwt>
<pdfrwt beam="2">  1       -2 0.78610603E-02 0.37350912E+03</pdfrwt>
<totfact> 0.42251261E+03</totfact>
</mgrwt>
</event>
<event>
 4    1  0.1573232E-005  0.3697321E+03  0.7818608E-02  0.1054795E+00
         -2   -1    0    0    0  501 -0.00000000000E+00  0.00000000000E+00  0.12581783857E+04  0.12581783857E+04  0.25500000000E-02 0. -1.
          2   -1    0    0  501    0  0.00000000000E+00 -0.00000000000E+00 -0.27162654521E+02  0.27162654641E+02  0.25500000000E-02 0.  1.
    5000001    1    1    2    0    0 -0.28904111458E+02 -0.49659477252E+02  0.82550594901E+03  0.84379297413E+03  0.16500000000E+03 0.  0.
   -5000001    1    1    2    0    0  0.28904111458E+02  0.49659477252E+02  0.40550978214E+03  0.44154806619E+03  0.16500000000E+03 0.  0.
<mgrwt>
<rscale>  0 0.36973215E+03</rscale>
<asrwt>0</asrwt>
<pdfrwt beam="1">  1        2 0.41788703E-02 0.36973215E+03</pdfrwt>
<pdfrwt beam="2">  1       -2 0.19356589E+00 0.36973215E+03</pdfrwt>
<totfact> 0.31717565E+02</totfact>
</mgrwt>
</event>
<event>
 4    1  0.1573232E-005  0.9469074E+03  0.7818608E-02  0.9368773E-01
         -2   -1    0    0    0  501 -0.00000000000E+00  0.00000000000E+00  0.85592017307E+02  0.85592017345E+02  0.25500000000E-02 0. -1.
          2   -1    0    0  501    0  0.00000000000E+00 -0.00000000000E+00 -0.26189172215E+04  0.26189172215E+04  0.25500000000E-02 0.  1.
    5000001    1    1    2    0    0  0.43874210749E+03 -0.42377505387E+02 -0.14134953175E+04  0.14897934429E+04  0.16500000000E+03 0.  0.
   -5000001    1    1    2    0    0 -0.43874210749E+03  0.42377505387E+02 -0.11198298867E+04  0.12147157960E+04  0.16500000000E+03 0.  0.
<mgrwt>
<rscale>  0 0.94690740E+03</rscale>
<asrwt>0</asrwt>
<pdfrwt beam="1">  1        2 0.40291028E+00 0.94690740E+03</pdfrwt>
<pdfrwt beam="2">  1       -2 0.13168005E-01 0.94690740E+03</pdfrwt>
<totfact> 0.13212137E+02</totfact>
</mgrwt>
</event>
<event>
 4    1  0.1573232E-005  0.3948049E+03  0.7818608E-02  0.1045594E+00
          2   -1    0    0  501    0  0.00000000000E+00  0.00000000000E+00  0.11130900179E+04  0.11130900179E+04  0.25500000000E-02 0.  1.
         -2   -1    0    0    0  501 -0.00000000000E+00 -0.00000000000E+00 -0.35008609162E+02  0.35008609254E+02  0.25500000000E-02 0. -1.
    5000001    1    1    2    0    0 -0.96860743801E+02 -0.11629895940E+02  0.67622614310E+03  0.70286844771E+03  0.16500000000E+03 0.  0.
   -5000001    1    1    2    0    0  0.96860743801E+02  0.11629895940E+02  0.40185526560E+03  0.44523017941E+03  0.16500000000E+03 0.  0.
<mgrwt>
<rscale>  0 0.39480493E+03</rscale>
<asrwt>0</asrwt>
<pdfrwt beam="1">  1        2 0.17124460E+00 0.39480493E+03</pdfrwt>
<pdfrwt beam="2">  1       -2 0.53859403E-02 0.39480493E+03</pdfrwt>
<totfact> 0.39366206E+03</totfact>
</mgrwt>
</event>
<event>
 4    1  0.1573232E-005  0.6427684E+03  0.7818608E-02  0.9820444E-01
          2   -1    0    0  501    0  0.00000000000E+00  0.00000000000E+00  0.25144901913E+04  0.25144901913E+04  0.25500000000E-02 0.  1.
         -2   -1    0    0    0  501 -0.00000000000E+00 -0.00000000000E+00 -0.41077039820E+02  0.41077039899E+02  0.25500000000E-02 0. -1.
    5000001    1    1    2    0    0 -0.24455792900E+03  0.11597320520E+03  0.14472572006E+04  0.14815656481E+04  0.16500000000E+03 0.  0.
   -5000001    1    1    2    0    0  0.24455792900E+03 -0.11597320520E+03  0.10261559509E+04  0.10740015831E+04  0.16500000000E+03 0.  0.
<mgrwt>
<rscale>  0 0.64276843E+03</rscale>
<asrwt>0</asrwt>
<pdfrwt beam="1">  1        2 0.38684477E+00 0.64276843E+03</pdfrwt>
<pdfrwt beam="2">  1       -2 0.63195425E-02 0.64276843E+03</pdfrwt>
<totfact> 0.51210729E+02</totfact>
</mgrwt>
</event>
<event>
 4    1  0.1573232E-005  0.5411275E+03  0.7818608E-02  0.1003569E+00
         -2   -1    0    0    0  501 -0.00000000000E+00  0.00000000000E+00  0.24605858506E+03  0.24605858508E+03  0.25500000000E-02 0. -1.
          2   -1    0    0  501    0  0.00000000000E+00 -0.00000000000E+00 -0.29750939846E+03  0.29750939847E+03  0.25500000000E-02 0.  1.
    5000001    1    1    2    0    0 -0.19888080388E+02 -0.14453626379E+03 -0.18357569025E+03  0.28672513203E+03  0.16500000000E+03 0.  0.
   -5000001    1    1    2    0    0  0.19888080388E+02  0.14453626379E+03  0.13212487685E+03  0.25684285151E+03  0.16500000000E+03 0.  0.
<mgrwt>
<rscale>  0 0.54112750E+03</rscale>
<asrwt>0</asrwt>
<pdfrwt beam="1">  1        2 0.45770677E-01 0.54112750E+03</pdfrwt>
<pdfrwt beam="2">  1       -2 0.37855167E-01 0.54112750E+03</pdfrwt>
<totfact> 0.73357506E+02</totfact>
</mgrwt>
</event>
<event>
 4    1  0.1573232E-005  0.5739645E+03  0.7818608E-02  0.9960944E-01
          2   -1    0    0  501    0  0.00000000000E+00  0.00000000000E+00  0.22126809677E+03  0.22126809678E+03  0.25500000000E-02 0.  1.
         -2   -1    0    0    0  501 -0.00000000000E+00 -0.00000000000E+00 -0.37221279476E+03  0.37221279477E+03  0.25500000000E-02 0. -1.
    5000001    1    1    2    0    0 -0.15790269785E+03  0.14026038347E+03 -0.18156516117E+03  0.32372387139E+03  0.16500000000E+03 0.  0.
   -5000001    1    1    2    0    0  0.15790269785E+03 -0.14026038347E+03  0.30620463175E+02  0.26975702016E+03  0.16500000000E+03 0.  0.
<mgrwt>
<rscale>  0 0.57396452E+03</rscale>
<asrwt>0</asrwt>
<pdfrwt beam="1">  1        2 0.34041246E-01 0.57396452E+03</pdfrwt>
<pdfrwt beam="2">  1       -2 0.57263507E-01 0.57396452E+03</pdfrwt>
<totfact> 0.44500755E+02</totfact>
</mgrwt>
</event>
<event>
 4    1  0.1573232E-005  0.4197268E+03  0.7818608E-02  0.1037155E+00
          2   -1    0    0  501    0  0.00000000000E+00  0.00000000000E+00  0.29699957679E+04  0.29699957679E+04  0.25500000000E-02 0.  1.
         -2   -1    0    0    0  501 -0.00000000000E+00 -0.00000000000E+00 -0.14829192065E+02  0.14829192285E+02  0.25500000000E-02 0. -1.
    5000001    1    1    2    0    0  0.14221927446E+02  0.12815083036E+03  0.13788559264E+04  0.13946661121E+04  0.16500000000E+03 0.  0.
   -5000001    1    1    2    0    0 -0.14221927446E+02 -0.12815083036E+03  0.15763106495E+04  0.15901588481E+04  0.16500000000E+03 0.  0.
<mgrwt>
<rscale>  0 0.41972676E+03</rscale>
<asrwt>0</asrwt>
<pdfrwt beam="1">  1        2 0.45692283E+00 0.41972676E+03</pdfrwt>
<pdfrwt beam="2">  1       -2 0.22814122E-02 0.41972676E+03</pdfrwt>
<totfact> 0.13545331E+03</totfact>
</mgrwt>
</event>
<event>
 4    1  0.1573232E-005  0.5144717E+03  0.7818608E-02  0.1010069E+00
         -2   -1    0    0    0  501 -0.00000000000E+00  0.00000000000E+00  0.10701146139E+03  0.10701146142E+03  0.25500000000E-02 0. -1.
          2   -1    0    0  501    0  0.00000000000E+00 -0.00000000000E+00 -0.61834763981E+03  0.61834763982E+03  0.25500000000E-02 0.  1.
    5000001    1    1    2    0    0 -0.59974435931E+02  0.17101024059E+03 -0.36582036316E+03  0.44033052751E+03  0.16500000000E+03 0.  0.
   -5000001    1    1    2    0    0  0.59974435931E+02 -0.17101024059E+03 -0.14551581527E+03  0.28502857373E+03  0.16500000000E+03 0.  0.
<mgrwt>
<rscale>  0 0.51447171E+03</rscale>
<asrwt>0</asrwt>
<pdfrwt beam="1">  1        2 0.95130404E-01 0.51447171E+03</pdfrwt>
<pdfrwt beam="2">  1       -2 0.16463302E-01 0.51447171E+03</pdfrwt>
<totfact> 0.14308152E+03</totfact>
</mgrwt>
</event>
<event>
 4    1  0.1573232E-005  0.3542554E+03  0.7818608E-02  0.1060882E+00
         -2   -1    0    0    0  501 -0.00000000000E+00  0.00000000000E+00  0.29500974882E+02  0.29500974992E+02  0.25500000000E-02 0. -1.
          2   -1    0    0  501    0  0.00000000000E+00 -0.00000000000E+00 -0.10634977551E+04  0.10634977551E+04  0.25500000000E-02 0.  1.
    5000001    1    1    2    0    0  0.12917584479E+02  0.15957601496E+02 -0.32862292374E+03  0.36829273010E+03  0.16500000000E+03 0.  0.
   -5000001    1    1    2    0    0 -0.12917584479E+02 -0.15957601496E+02 -0.70537385652E+03  0.72470600004E+03  0.16500000000E+03 0.  0.
<mgrwt>
<rscale>  0 0.35425539E+03</rscale>
<asrwt>0</asrwt>
<pdfrwt beam="1">  1        2 0.16361501E+00 0.35425539E+03</pdfrwt>
<pdfrwt beam="2">  1       -2 0.45386123E-02 0.35425539E+03</pdfrwt>
<totfact> 0.54733488E+03</totfact>
</mgrwt>
</event>
<event>
 4    1  0.1573232E-005  0.4570933E+03  0.7818608E-02  0.1025628E+00
         -2   -1    0    0    0  501 -0.00000000000E+00  0.00000000000E+00  0.17553266153E+02  0.17553266338E+02  0.25500000000E-02 0.  1.
          2   -1    0    0  501    0  0.00000000000E+00 -0.00000000000E+00 -0.29757182461E+04  0.29757182461E+04  0.25500000000E-02 0. -1.
    5000001    1    1    2    0    0  0.92317255749E+02  0.12322929712E+02 -0.64214934672E+03  0.66951856868E+03  0.16500000000E+03 0.  0.
   -5000001    1    1    2    0    0 -0.92317255749E+02 -0.12322929712E+02 -0.23160156333E+04  0.23237529438E+04  0.16500000000E+03 0.  0.
<mgrwt>
<rscale>  0 0.45709331E+03</rscale>
<asrwt>0</asrwt>
<pdfrwt beam="1">  1        2 0.45780241E+00 0.45709331E+03</pdfrwt>
<pdfrwt beam="2">  1       -2 0.27005049E-02 0.45709331E+03</pdfrwt>
<totfact> 0.10392508E+03</totfact>
</mgrwt>
</event>
<event>
 4    1  0.1573232E-005  0.4095752E+03  0.7818608E-02  0.1040514E+00
          2   -1    0    0  501    0  0.00000000000E+00  0.00000000000E+00  0.12083880731E+04  0.12083880731E+04  0.25500000000E-02 0.  1.
         -2   -1    0    0    0  501 -0.00000000000E+00 -0.00000000000E+00 -0.34705711056E+02  0.34705711149E+02  0.25500000000E-02 0. -1.
    5000001    1    1    2    0    0 -0.78051833838E+01 -0.10563924644E+03  0.76620380849E+03  0.79089433391E+03  0.16500000000E+03 0.  0.
   -5000001    1    1    2    0    0  0.78051833838E+01  0.10563924644E+03  0.40747855352E+03  0.45219945030E+03  0.16500000000E+03 0.  0.
<mgrwt>
<rscale>  0 0.40957523E+03</rscale>
<asrwt>0</asrwt>
<pdfrwt beam="1">  1        2 0.18590581E+00 0.40957523E+03</pdfrwt>
<pdfrwt beam="2">  1       -2 0.53393415E-02 0.40957523E+03</pdfrwt>
<totfact> 0.35095958E+03</totfact>
</mgrwt>
</event>
<event>
 4    1  0.1573232E-005  0.4492352E+03  0.7818608E-02  0.1027950E+00
         -2   -1    0    0    0  501 -0.00000000000E+00  0.00000000000E+00  0.63722373225E+02  0.63722373276E+02  0.25500000000E-02 0. -1.
          2   -1    0    0  501    0  0.00000000000E+00 -0.00000000000E+00 -0.79176384482E+03  0.79176384482E+03  0.25500000000E-02 0.  1.
    5000001    1    1    2    0    0 -0.10594827558E+03  0.10108802941E+03 -0.44445968639E+03  0.49619879042E+03  0.16500000000E+03 0.  0.
   -5000001    1    1    2    0    0  0.10594827558E+03 -0.10108802941E+03 -0.28358178521E+03  0.35928742768E+03  0.16500000000E+03 0.  0.
<mgrwt>
<rscale>  0 0.44923522E+03</rscale>
<asrwt>0</asrwt>
<pdfrwt beam="1">  1        2 0.12180982E+00 0.44923522E+03</pdfrwt>
<pdfrwt beam="2">  1       -2 0.98034426E-02 0.44923522E+03</pdfrwt>
<totfact> 0.24728733E+03</totfact>
</mgrwt>
</event>
<event>
 4    1  0.1573232E-005  0.5936411E+03  0.7818608E-02  0.9918687E-01
          2   -1    0    0  501    0  0.00000000000E+00  0.00000000000E+00  0.22182621649E+04  0.22182621649E+04  0.25500000000E-02 0.  1.
         -2   -1    0    0    0  501 -0.00000000000E+00 -0.00000000000E+00 -0.39716867670E+02  0.39716867752E+02  0.25500000000E-02 0. -1.
    5000001    1    1    2    0    0  0.92163737375E+01 -0.22110525238E+03  0.15042838131E+04  0.15294009496E+04  0.16500000000E+03 0.  0.
   -5000001    1    1    2    0    0 -0.92163737375E+01  0.22110525238E+03  0.67426148411E+03  0.72857808307E+03  0.16500000000E+03 0.  0.
<mgrwt>
<rscale>  0 0.59364105E+03</rscale>
<asrwt>0</asrwt>
<pdfrwt beam="1">  1        2 0.34127114E+00 0.59364105E+03</pdfrwt>
<pdfrwt beam="2">  1       -2 0.61102867E-02 0.59364105E+03</pdfrwt>
<totfact> 0.79206280E+02</totfact>
</mgrwt>
</event>
<event>
 4    1  0.1573232E-005  0.4251657E+03  0.7818608E-02  0.1035398E+00
         -2   -1    0    0    0  501 -0.00000000000E+00  0.00000000000E+00  0.34508204386E+03  0.34508204387E+03  0.25500000000E-02 0. -1.
          2   -1    0    0  501    0  0.00000000000E+00 -0.00000000000E+00 -0.13095858896E+03  0.13095858898E+03  0.25500000000E-02 0.  1.
    5000001    1    1    2    0    0 -0.47517254951E+02 -0.12068065668E+03  0.14494440222E+03  0.25505997363E+03  0.16500000000E+03 0.  0.
   -5000001    1    1    2    0    0  0.47517254951E+02  0.12068065668E+03  0.69179052686E+02  0.22098065921E+03  0.16500000000E+03 0.  0.
<mgrwt>
<rscale>  0 0.42516565E+03</rscale>
<asrwt>0</asrwt>
<pdfrwt beam="1">  1        2 0.20147476E-01 0.42516565E+03</pdfrwt>
<pdfrwt beam="2">  1       -2 0.53089544E-01 0.42516565E+03</pdfrwt>
<totfact> 0.94359830E+02</totfact>
</mgrwt>
</event>
<event>
 4    1  0.1573232E-005  0.5100992E+03  0.7818608E-02  0.1011176E+00
         -2   -1    0    0    0  501 -0.00000000000E+00  0.00000000000E+00  0.83654258877E+02  0.83654258915E+02  0.25500000000E-02 0. -1.
          2   -1    0    0  501    0  0.00000000000E+00 -0.00000000000E+00 -0.77760893051E+03  0.77760893052E+03  0.25500000000E-02 0.  1.
    5000001    1    1    2    0    0 -0.16907490771E+03 -0.52525510658E+02 -0.48289323317E+03  0.54014454392E+03  0.16500000000E+03 0.  0.
   -5000001    1    1    2    0    0  0.16907490771E+03  0.52525510658E+02 -0.21106143846E+03  0.32111864551E+03  0.16500000000E+03 0.  0.
<mgrwt>
<rscale>  0 0.51009920E+03</rscale>
<asrwt>0</asrwt>
<pdfrwt beam="1">  1        2 0.11963214E+00 0.51009920E+03</pdfrwt>
<pdfrwt beam="2">  1       -2 0.12869887E-01 0.51009920E+03</pdfrwt>
<totfact> 0.16248042E+03</totfact>
</mgrwt>
</event>
<event>
 4    1  0.1573232E-005  0.6164426E+03  0.7818608E-02  0.9871868E-01
         -2   -1    0    0    0  501 -0.00000000000E+00  0.00000000000E+00  0.70891753224E+02  0.70891753269E+02  0.25500000000E-02 0. -1.
          2   -1    0    0  501    0  0.00000000000E+00 -0.00000000000E+00 -0.13400764243E+04  0.13400764243E+04  0.25500000000E-02 0.  1.
    5000001    1    1    2    0    0  0.10312456926E+03 -0.23243570010E+03 -0.50685810502E+03  0.59058544690E+03  0.16500000000E+03 0.  0.
   -5000001    1    1    2    0    0 -0.10312456926E+03  0.23243570010E+03 -0.76232656605E+03  0.82038273066E+03  0.16500000000E+03 0.  0.
<mgrwt>
<rscale>  0 0.61644259E+03</rscale>
<asrwt>0</asrwt>
<pdfrwt beam="1">  1        2 0.20616558E+00 0.61644259E+03</pdfrwt>
<pdfrwt beam="2">  1       -2 0.10906425E-01 0.61644259E+03</pdfrwt>
<totfact> 0.94678571E+02</totfact>
</mgrwt>
</event>
<event>
 4    1  0.1573232E-005  0.6585301E+03  0.7818608E-02  0.9790903E-01
          2   -1    0    0  501    0  0.00000000000E+00  0.00000000000E+00  0.89588566888E+03  0.89588566888E+03  0.25500000000E-02 0.  1.
         -2   -1    0    0    0  501 -0.00000000000E+00 -0.00000000000E+00 -0.12101486988E+03  0.12101486991E+03  0.25500000000E-02 0. -1.
    5000001    1    1    2    0    0  0.27295545504E+03 -0.69450018489E+02  0.32079291023E+03  0.45766917829E+03  0.16500000000E+03 0.  0.
   -5000001    1    1    2    0    0 -0.27295545504E+03  0.69450018489E+02  0.45407788877E+03  0.55923136051E+03  0.16500000000E+03 0.  0.
<mgrwt>
<rscale>  0 0.65853014E+03</rscale>
<asrwt>0</asrwt>
<pdfrwt beam="1">  1        2 0.13782857E+00 0.65853014E+03</pdfrwt>
<pdfrwt beam="2">  1       -2 0.18617672E-01 0.65853014E+03</pdfrwt>
<totfact> 0.71838241E+02</totfact>
</mgrwt>
</event>
<event>
 4    1  0.1573232E-005  0.4702634E+03  0.7818608E-02  0.1021846E+00
          2   -1    0    0  501    0  0.00000000000E+00  0.00000000000E+00  0.99197283461E+03  0.99197283461E+03  0.25500000000E-02 0.  1.
         -2   -1    0    0    0  501 -0.00000000000E+00 -0.00000000000E+00 -0.55734311921E+02  0.55734311979E+02  0.25500000000E-02 0. -1.
    5000001    1    1    2    0    0  0.15162770855E+03  0.52099456446E+02  0.57627320945E+03  0.62050070692E+03  0.16500000000E+03 0.  0.
   -5000001    1    1    2    0    0 -0.15162770855E+03 -0.52099456446E+02  0.35996531324E+03  0.42720643967E+03  0.16500000000E+03 0.  0.
<mgrwt>
<rscale>  0 0.47026343E+03</rscale>
<asrwt>0</asrwt>
<pdfrwt beam="1">  1        2 0.15261120E+00 0.47026343E+03</pdfrwt>
<pdfrwt beam="2">  1       -2 0.85745100E-02 0.47026343E+03</pdfrwt>
<totfact> 0.22543204E+03</totfact>
</mgrwt>
</event>
<event>
 4    1  0.1573232E-005  0.8063130E+03  0.7818608E-02  0.9550924E-01
          2   -1    0    0  501    0  0.00000000000E+00  0.00000000000E+00  0.56426969744E+03  0.56426969744E+03  0.25500000000E-02 0.  1.
         -2   -1    0    0    0  501 -0.00000000000E+00 -0.00000000000E+00 -0.28804516523E+03  0.28804516524E+03  0.25500000000E-02 0. -1.
    5000001    1    1    2    0    0 -0.24834520122E+02 -0.36675747844E+03  0.15238665268E+03  0.43078358058E+03  0.16500000000E+03 0.  0.
   -5000001    1    1    2    0    0  0.24834520122E+02  0.36675747844E+03  0.12383787952E+03  0.42153128210E+03  0.16500000000E+03 0.  0.
<mgrwt>
<rscale>  0 0.80631299E+03</rscale>
<asrwt>0</asrwt>
<pdfrwt beam="1">  1        2 0.86810722E-01 0.80631299E+03</pdfrwt>
<pdfrwt beam="2">  1       -2 0.44314641E-01 0.80631299E+03</pdfrwt>
<totfact> 0.25949412E+02</totfact>
</mgrwt>
</event>
<event>
 4    1  0.1573232E-005  0.6396013E+03  0.7818608E-02  0.9826490E-01
          2   -1    0    0  501    0  0.00000000000E+00  0.00000000000E+00  0.85077382726E+03  0.85077382727E+03  0.25500000000E-02 0.  1.
         -2   -1    0    0    0  501 -0.00000000000E+00 -0.00000000000E+00 -0.12021109359E+03  0.12021109362E+03  0.25500000000E-02 0. -1.
    5000001    1    1    2    0    0  0.15722229673E+03 -0.22180248202E+03  0.31419837237E+03  0.44705794794E+03  0.16500000000E+03 0.  0.
   -5000001    1    1    2    0    0 -0.15722229673E+03  0.22180248202E+03  0.41636436130E+03  0.52392697295E+03  0.16500000000E+03 0.  0.
<mgrwt>
<rscale>  0 0.63960129E+03</rscale>
<asrwt>0</asrwt>
<pdfrwt beam="1">  1        2 0.13088829E+00 0.63960129E+03</pdfrwt>
<pdfrwt beam="2">  1       -2 0.18494013E-01 0.63960129E+03</pdfrwt>
<totfact> 0.78037591E+02</totfact>
</mgrwt>
</event>
<event>
 4    1  0.1573232E-005  0.4722731E+03  0.7818608E-02  0.1021281E+00
         -2   -1    0    0    0  501 -0.00000000000E+00  0.00000000000E+00  0.20242394765E+03  0.20242394766E+03  0.25500000000E-02 0. -1.
          2   -1    0    0  501    0  0.00000000000E+00 -0.00000000000E+00 -0.27546380230E+03  0.27546380231E+03  0.25500000000E-02 0.  1.
    5000001    1    1    2    0    0  0.12790250858E+03 -0.10869765105E+03 -0.17287674552E+02  0.23600443796E+03  0.16500000000E+03 0.  0.
   -5000001    1    1    2    0    0 -0.12790250858E+03  0.10869765105E+03 -0.55752180096E+02  0.24188331201E+03  0.16500000000E+03 0.  0.
<mgrwt>
<rscale>  0 0.47227310E+03</rscale>
<asrwt>0</asrwt>
<pdfrwt beam="1">  1        2 0.42379047E-01 0.47227310E+03</pdfrwt>
<pdfrwt beam="2">  1       -2 0.31142146E-01 0.47227310E+03</pdfrwt>
<totfact> 0.11533511E+03</totfact>
</mgrwt>
</event>
<event>
 4    1  0.1573232E-005  0.6176849E+03  0.7818608E-02  0.9869380E-01
          2   -1    0    0  501    0  0.00000000000E+00  0.00000000000E+00  0.40731468009E+03  0.40731468010E+03  0.25500000000E-02 0.  1.
         -2   -1    0    0    0  501 -0.00000000000E+00 -0.00000000000E+00 -0.23417685682E+03  0.23417685684E+03  0.25500000000E-02 0. -1.
    5000001    1    1    2    0    0 -0.60171662845E+02 -0.24272246802E+03  0.86862779544E+01  0.29972533579E+03  0.16500000000E+03 0.  0.
   -5000001    1    1    2    0    0  0.60171662845E+02  0.24272246802E+03  0.16445154531E+03  0.34176620115E+03  0.16500000000E+03 0.  0.
<mgrwt>
<rscale>  0 0.61768494E+03</rscale>
<asrwt>0</asrwt>
<pdfrwt beam="1">  1        2 0.62663797E-01 0.61768494E+03</pdfrwt>
<pdfrwt beam="2">  1       -2 0.36027209E-01 0.61768494E+03</pdfrwt>
<totfact> 0.56857009E+02</totfact>
</mgrwt>
</event>
<event>
 4    1  0.1573232E-005  0.4183472E+03  0.7818608E-02  0.1037606E+00
         -2   -1    0    0    0  501 -0.00000000000E+00  0.00000000000E+00  0.16183921156E+03  0.16183921158E+03  0.25500000000E-02 0. -1.
          2   -1    0    0  501    0  0.00000000000E+00 -0.00000000000E+00 -0.27035224294E+03  0.27035224295E+03  0.25500000000E-02 0.  1.
    5000001    1    1    2    0    0  0.56900491520E+02  0.71809032931E+02 -0.14743203640E+03  0.23948989228E+03  0.16500000000E+03 0.  0.
   -5000001    1    1    2    0    0 -0.56900491520E+02 -0.71809032931E+02  0.38919005019E+02  0.19270156226E+03  0.16500000000E+03 0.  0.
<mgrwt>
<rscale>  0 0.41834719E+03</rscale>
<asrwt>0</asrwt>
<pdfrwt beam="1">  1        2 0.41592653E-01 0.41834719E+03</pdfrwt>
<pdfrwt beam="2">  1       -2 0.24898340E-01 0.41834719E+03</pdfrwt>
<totfact> 0.17657015E+03</totfact>
</mgrwt>
</event>
<event>
 4    1  0.1573232E-005  0.5667880E+03  0.7818608E-02  0.9976812E-01
          2   -1    0    0  501    0  0.00000000000E+00  0.00000000000E+00  0.11477493500E+04  0.11477493500E+04  0.25500000000E-02 0.  1.
         -2   -1    0    0    0  501 -0.00000000000E+00 -0.00000000000E+00 -0.69973612736E+02  0.69973612783E+02  0.25500000000E-02 0. -1.
    5000001    1    1    2    0    0 -0.18792556016E+03 -0.12459580201E+03  0.43704442342E+03  0.51872242875E+03  0.16500000000E+03 0.  0.
   -5000001    1    1    2    0    0  0.18792556016E+03  0.12459580201E+03  0.64073131380E+03  0.69900053400E+03  0.16500000000E+03 0.  0.
<mgrwt>
<rscale>  0 0.56678803E+03</rscale>
<asrwt>0</asrwt>
<pdfrwt beam="1">  1        2 0.17657681E+00 0.56678803E+03</pdfrwt>
<pdfrwt beam="2">  1       -2 0.10765172E-01 0.56678803E+03</pdfrwt>
<totfact> 0.12527607E+03</totfact>
</mgrwt>
</event>
<event>
 4    1  0.1573232E-005  0.3609382E+03  0.7818608E-02  0.1058213E+00
          2   -1    0    0  501    0  0.00000000000E+00  0.00000000000E+00  0.95354182128E+02  0.95354182162E+02  0.25500000000E-02 0.  1.
         -2   -1    0    0    0  501 -0.00000000000E+00 -0.00000000000E+00 -0.34155915255E+03  0.34155915256E+03  0.25500000000E-02 0. -1.
    5000001    1    1    2    0    0 -0.64778383552E+02  0.22025844368E+02 -0.15426456787E+03  0.23601680808E+03  0.16500000000E+03 0.  0.
   -5000001    1    1    2    0    0  0.64778383552E+02 -0.22025844368E+02 -0.91940402553E+02  0.20089652664E+03  0.16500000000E+03 0.  0.
<mgrwt>
<rscale>  0 0.36093819E+03</rscale>
<asrwt>0</asrwt>
<pdfrwt beam="1">  1        2 0.14669874E-01 0.36093819E+03</pdfrwt>
<pdfrwt beam="2">  1       -2 0.52547561E-01 0.36093819E+03</pdfrwt>
<totfact> 0.13986760E+03</totfact>
</mgrwt>
</event>
<event>
 4    1  0.1573232E-005  0.7232845E+03  0.7818608E-02  0.9678221E-01
          2   -1    0    0  501    0  0.00000000000E+00  0.00000000000E+00  0.65753660955E+03  0.65753660956E+03  0.25500000000E-02 0.  1.
         -2   -1    0    0    0  501 -0.00000000000E+00 -0.00000000000E+00 -0.19890167622E+03  0.19890167624E+03  0.25500000000E-02 0. -1.
    5000001    1    1    2    0    0 -0.55834094710E+02 -0.28446632752E+03  0.63875932029E+02  0.33962283834E+03  0.16500000000E+03 0.  0.
   -5000001    1    1    2    0    0  0.55834094710E+02  0.28446632752E+03  0.39475900130E+03  0.51681544746E+03  0.16500000000E+03 0.  0.
<mgrwt>
<rscale>  0 0.72328455E+03</rscale>
<asrwt>0</asrwt>
<pdfrwt beam="1">  1        2 0.10115948E+00 0.72328455E+03</pdfrwt>
<pdfrwt beam="2">  1       -2 0.30600258E-01 0.72328455E+03</pdfrwt>
<totfact> 0.44055771E+02</totfact>
</mgrwt>
</event>
<event>
 4    1  0.1573232E-005  0.5282545E+03  0.7818608E-02  0.1006656E+00
          2   -1    0    0  501    0  0.00000000000E+00  0.00000000000E+00  0.26210749860E+04  0.26210749860E+04  0.25500000000E-02 0.  1.
         -2   -1    0    0    0  501 -0.00000000000E+00 -0.00000000000E+00 -0.26616252988E+02  0.26616253111E+02  0.25500000000E-02 0. -1.
    5000001    1    1    2    0    0 -0.18666873020E+03  0.83670339503E+02  0.11653560070E+04  0.11946236075E+04  0.16500000000E+03 0.  0.
   -5000001    1    1    2    0    0  0.18666873020E+03 -0.83670339503E+02  0.14291027261E+04  0.14530676317E+04  0.16500000000E+03 0.  0.
<mgrwt>
<rscale>  0 0.52825447E+03</rscale>
<asrwt>0</asrwt>
<pdfrwt beam="1">  1        2 0.40324230E+00 0.52825447E+03</pdfrwt>
<pdfrwt beam="2">  1       -2 0.40948082E-02 0.52825447E+03</pdfrwt>
<totfact> 0.88315241E+02</totfact>
</mgrwt>
</event>
<event>
 4    1  0.1573232E-005  0.4874436E+03  0.7818608E-02  0.1017109E+00
         -2   -1    0    0    0  501 -0.00000000000E+00  0.00000000000E+00  0.15586572212E+03  0.15586572214E+03  0.25500000000E-02 0. -1.
          2   -1    0    0  501    0  0.00000000000E+00 -0.00000000000E+00 -0.38109934049E+03  0.38109934050E+03  0.25500000000E-02 0.  1.
    5000001    1    1    2    0    0  0.17223485219E+03  0.46740816858E+02 -0.92733854106E+02  0.26014249166E+03  0.16500000000E+03 0.  0.
   -5000001    1    1    2    0    0 -0.17223485219E+03 -0.46740816858E+02 -0.13249976427E+03  0.27682257098E+03  0.16500000000E+03 0.  0.
<mgrwt>
<rscale>  0 0.48744363E+03</rscale>
<asrwt>0</asrwt>
<pdfrwt beam="1">  1        2 0.58630668E-01 0.48744363E+03</pdfrwt>
<pdfrwt beam="2">  1       -2 0.23979342E-01 0.48744363E+03</pdfrwt>
<totfact> 0.12964943E+03</totfact>
</mgrwt>
</event>
<event>
 4    1  0.1573232E-005  0.3825183E+03  0.7818608E-02  0.1050007E+00
         -2   -1    0    0    0  501 -0.00000000000E+00  0.00000000000E+00  0.13864040229E+02  0.13864040463E+02  0.25500000000E-02 0. -1.
          2   -1    0    0  501    0  0.00000000000E+00 -0.00000000000E+00 -0.26384845548E+04  0.26384845548E+04  0.25500000000E-02 0.  1.
    5000001    1    1    2    0    0  0.29939094494E+02  0.26323148664E+02 -0.19233528569E+04  0.19308289592E+04  0.16500000000E+03 0.  0.
   -5000001    1    1    2    0    0 -0.29939094494E+02 -0.26323148664E+02 -0.70126765773E+03  0.72151963612E+03  0.16500000000E+03 0.  0.
<mgrwt>
<rscale>  0 0.38251827E+03</rscale>
<asrwt>0</asrwt>
<pdfrwt beam="1">  1        2 0.40592030E+00 0.38251827E+03</pdfrwt>
<pdfrwt beam="2">  1       -2 0.21329314E-02 0.38251827E+03</pdfrwt>
<totfact> 0.23408803E+03</totfact>
</mgrwt>
</event>
<event>
 4    1  0.1573232E-005  0.7198061E+03  0.7818608E-02  0.9683948E-01
         -2   -1    0    0    0  501 -0.00000000000E+00  0.00000000000E+00  0.52737121079E+02  0.52737121141E+02  0.25500000000E-02 0. -1.
          2   -1    0    0  501    0  0.00000000000E+00 -0.00000000000E+00 -0.24561487452E+04  0.24561487452E+04  0.25500000000E-02 0.  1.
    5000001    1    1    2    0    0 -0.22595153726E+03  0.21840430976E+03 -0.14093982939E+04  0.14534039668E+04  0.16500000000E+03 0.  0.
   -5000001    1    1    2    0    0  0.22595153726E+03 -0.21840430976E+03 -0.99401333021E+03  0.10554818996E+04  0.16500000000E+03 0.  0.
<mgrwt>
<rscale>  0 0.71980612E+03</rscale>
<asrwt>0</asrwt>
<pdfrwt beam="1">  1        2 0.37786895E+00 0.71980612E+03</pdfrwt>
<pdfrwt beam="2">  1       -2 0.81134052E-02 0.71980612E+03</pdfrwt>
<totfact> 0.36899552E+02</totfact>
</mgrwt>
</event>
<event>
 4    1  0.1573232E-005  0.3570121E+03  0.7818608E-02  0.1059773E+00
         -2   -1    0    0    0  501 -0.00000000000E+00  0.00000000000E+00  0.13050907706E+03  0.13050907708E+03  0.25500000000E-02 0. -1.
          2   -1    0    0  501    0  0.00000000000E+00 -0.00000000000E+00 -0.24415475070E+03  0.24415475072E+03  0.25500000000E-02 0.  1.
    5000001    1    1    2    0    0  0.42624107488E+02 -0.41954205758E+02 -0.22616128403E+02  0.17695609394E+03  0.16500000000E+03 0.  0.
   -5000001    1    1    2    0    0 -0.42624107488E+02  0.41954205758E+02 -0.91029545240E+02  0.19770773386E+03  0.16500000000E+03 0.  0.
<mgrwt>
<rscale>  0 0.35701211E+03</rscale>
<asrwt>0</asrwt>
<pdfrwt beam="1">  1        2 0.37562269E-01 0.35701211E+03</pdfrwt>
<pdfrwt beam="2">  1       -2 0.20078320E-01 0.35701211E+03</pdfrwt>
<totfact> 0.28700569E+03</totfact>
</mgrwt>
</event>
<event>
 4    1  0.1573232E-005  0.4862424E+03  0.7818608E-02  0.1017434E+00
          2   -1    0    0  501    0  0.00000000000E+00  0.00000000000E+00  0.43202146251E+03  0.43202146252E+03  0.25500000000E-02 0.  1.
         -2   -1    0    0    0  501 -0.00000000000E+00 -0.00000000000E+00 -0.13681706359E+03  0.13681706362E+03  0.25500000000E-02 0. -1.
    5000001    1    1    2    0    0  0.19586460721E+02  0.17649085793E+03  0.16949638131E+03  0.29578146604E+03  0.16500000000E+03 0.  0.
   -5000001    1    1    2    0    0 -0.19586460721E+02 -0.17649085793E+03  0.12570801762E+03  0.27305706010E+03  0.16500000000E+03 0.  0.
<mgrwt>
<rscale>  0 0.48624236E+03</rscale>
<asrwt>0</asrwt>
<pdfrwt beam="1">  1        2 0.66464840E-01 0.48624236E+03</pdfrwt>
<pdfrwt beam="2">  1       -2 0.21048779E-01 0.48624236E+03</pdfrwt>
<totfact> 0.14187247E+03</totfact>
</mgrwt>
</event>
<event>
 4    1  0.1573232E-005  0.6743194E+03  0.7818608E-02  0.9762186E-01
         -2   -1    0    0    0  501 -0.00000000000E+00  0.00000000000E+00  0.56668000277E+03  0.56668000278E+03  0.25500000000E-02 0. -1.
          2   -1    0    0  501    0  0.00000000000E+00 -0.00000000000E+00 -0.20060112914E+03  0.20060112916E+03  0.25500000000E-02 0.  1.
    5000001    1    1    2    0    0  0.27754368842E+03 -0.97061649676E+02  0.18352965486E+03  0.38387445478E+03  0.16500000000E+03 0.  0.
   -5000001    1    1    2    0    0 -0.27754368842E+03  0.97061649676E+02  0.18254921876E+03  0.38340667716E+03  0.16500000000E+03 0.  0.
<mgrwt>
<rscale>  0 0.67431936E+03</rscale>
<asrwt>0</asrwt>
<pdfrwt beam="1">  1        2 0.30861712E-01 0.67431936E+03</pdfrwt>
<pdfrwt beam="2">  1       -2 0.87181538E-01 0.67431936E+03</pdfrwt>
<totfact> 0.19805328E+02</totfact>
</mgrwt>
</event>
<event>
 4    1  0.1573232E-005  0.3575537E+03  0.7818608E-02  0.1059557E+00
          2   -1    0    0  501    0  0.00000000000E+00  0.00000000000E+00  0.23366037709E+04  0.23366037709E+04  0.25500000000E-02 0.  1.
         -2   -1    0    0    0  501 -0.00000000000E+00 -0.00000000000E+00 -0.13678472572E+02  0.13678472809E+02  0.25500000000E-02 0. -1.
    5000001    1    1    2    0    0 -0.58265423218E+02  0.33496507018E+02  0.10641221898E+04  0.10789336913E+04  0.16500000000E+03 0.  0.
   -5000001    1    1    2    0    0  0.58265423218E+02 -0.33496507018E+02  0.12588031085E+04  0.12713485523E+04  0.16500000000E+03 0.  0.
<mgrwt>
<rscale>  0 0.35755375E+03</rscale>
<asrwt>0</asrwt>
<pdfrwt beam="1">  1        2 0.35947796E+00 0.35755375E+03</pdfrwt>
<pdfrwt beam="2">  1       -2 0.21043777E-02 0.35755375E+03</pdfrwt>
<totfact> 0.35143916E+03</totfact>
</mgrwt>
</event>
<event>
 4    1  0.1573232E-005  0.7549513E+03  0.7818608E-02  0.9627614E-01
         -2   -1    0    0    0  501 -0.00000000000E+00  0.00000000000E+00  0.71353487405E+03  0.71353487405E+03  0.25500000000E-02 0. -1.
          2   -1    0    0  501    0  0.00000000000E+00 -0.00000000000E+00 -0.19969291721E+03  0.19969291723E+03  0.25500000000E-02 0.  1.
    5000001    1    1    2    0    0  0.12206939932E+03 -0.30181239930E+03  0.37339474420E+03  0.52214968890E+03  0.16500000000E+03 0.  0.
   -5000001    1    1    2    0    0 -0.12206939932E+03  0.30181239930E+03  0.14044721263E+03  0.39107810238E+03  0.16500000000E+03 0.  0.
<mgrwt>
<rscale>  0 0.75495128E+03</rscale>
<asrwt>0</asrwt>
<pdfrwt beam="1">  1        2 0.30721988E-01 0.75495128E+03</pdfrwt>
<pdfrwt beam="2">  1       -2 0.10977459E+00 0.75495128E+03</pdfrwt>
<totfact> 0.11540564E+02</totfact>
</mgrwt>
</event>
<event>
 4    1  0.1573232E-005  0.6663182E+03  0.7818608E-02  0.9776632E-01
         -2   -1    0    0    0  501 -0.00000000000E+00  0.00000000000E+00  0.21591415552E+03  0.21591415554E+03  0.25500000000E-02 0. -1.
          2   -1    0    0  501    0  0.00000000000E+00 -0.00000000000E+00 -0.51406992485E+03  0.51406992485E+03  0.25500000000E-02 0.  1.
    5000001    1    1    2    0    0 -0.23916257808E+03 -0.13795693082E+03 -0.53953453924E+02  0.32613927807E+03  0.16500000000E+03 0.  0.
   -5000001    1    1    2    0    0  0.23916257808E+03  0.13795693082E+03 -0.24420231540E+03  0.40384480232E+03  0.16500000000E+03 0.  0.
<mgrwt>
<rscale>  0 0.66631816E+03</rscale>
<asrwt>0</asrwt>
<pdfrwt beam="1">  1        2 0.79087680E-01 0.66631816E+03</pdfrwt>
<pdfrwt beam="2">  1       -2 0.33217563E-01 0.66631816E+03</pdfrwt>
<totfact> 0.50801743E+02</totfact>
</mgrwt>
</event>
<event>
 4    1  0.1573232E-005  0.4149592E+03  0.7818608E-02  0.1038720E+00
         -2   -1    0    0    0  501 -0.00000000000E+00  0.00000000000E+00  0.17375513294E+03  0.17375513295E+03  0.25500000000E-02 0.  1.
          2   -1    0    0  501    0  0.00000000000E+00 -0.00000000000E+00 -0.24774968696E+03  0.24774968697E+03  0.25500000000E-02 0. -1.
    5000001    1    1    2    0    0 -0.12049952573E+03  0.20143894818E+02 -0.67417426082E+02  0.21609262260E+03  0.16500000000E+03 0.  0.
   -5000001    1    1    2    0    0  0.12049952573E+03 -0.20143894818E+02 -0.65771279420E+01  0.20541219733E+03  0.16500000000E+03 0.  0.
<mgrwt>
<rscale>  0 0.41495918E+03</rscale>
<asrwt>0</asrwt>
<pdfrwt beam="1">  1        2 0.38115337E-01 0.41495918E+03</pdfrwt>
<pdfrwt beam="2">  1       -2 0.26731559E-01 0.41495918E+03</pdfrwt>
<totfact> 0.17105740E+03</totfact>
</mgrwt>
</event>
<event>
 4    1  0.1573232E-005  0.5031895E+03  0.7818608E-02  0.1012950E+00
          2   -1    0    0  501    0  0.00000000000E+00  0.00000000000E+00  0.49623537325E+02  0.49623537390E+02  0.25500000000E-02 0.  1.
         -2   -1    0    0    0  501 -0.00000000000E+00 -0.00000000000E+00 -0.12756028522E+04  0.12756028522E+04  0.25500000000E-02 0. -1.
    5000001    1    1    2    0    0  0.88802697415E+02 -0.16617675764E+03 -0.67610353196E+03  0.72100042980E+03  0.16500000000E+03 0.  0.
   -5000001    1    1    2    0    0 -0.88802697415E+02  0.16617675764E+03 -0.54987578293E+03  0.60422595981E+03  0.16500000000E+03 0.  0.
<mgrwt>
<rscale>  0 0.50318953E+03</rscale>
<asrwt>0</asrwt>
<pdfrwt beam="1">  1        2 0.76343913E-02 0.50318953E+03</pdfrwt>
<pdfrwt beam="2">  1       -2 0.19624657E+00 0.50318953E+03</pdfrwt>
<totfact> 0.13631223E+02</totfact>
</mgrwt>
</event>
<event>
 4    1  0.1573232E-005  0.3847450E+03  0.7818608E-02  0.1049194E+00
          2   -1    0    0  501    0  0.00000000000E+00  0.00000000000E+00  0.23206725061E+02  0.23206725202E+02  0.25500000000E-02 0.  1.
         -2   -1    0    0    0  501 -0.00000000000E+00 -0.00000000000E+00 -0.15946748472E+04  0.15946748472E+04  0.25500000000E-02 0. -1.
    5000001    1    1    2    0    0 -0.70526930496E+02  0.66354244290E+02 -0.70108273983E+03  0.72671792447E+03  0.16500000000E+03 0.  0.
   -5000001    1    1    2    0    0  0.70526930496E+02 -0.66354244290E+02 -0.87038538234E+03  0.89116364796E+03  0.16500000000E+03 0.  0.
<mgrwt>
<rscale>  0 0.38474501E+03</rscale>
<asrwt>0</asrwt>
<pdfrwt beam="1">  1        2 0.35702667E-02 0.38474501E+03</pdfrwt>
<pdfrwt beam="2">  1       -2 0.24533451E+00 0.38474501E+03</pdfrwt>
<totfact> 0.18808239E+02</totfact>
</mgrwt>
</event>
<event>
 4    1  0.1573232E-005  0.4948284E+03  0.7818608E-02  0.1015138E+00
          2   -1    0    0  501    0  0.00000000000E+00  0.00000000000E+00  0.57734145737E+03  0.57734145738E+03  0.25500000000E-02 0.  1.
         -2   -1    0    0    0  501 -0.00000000000E+00 -0.00000000000E+00 -0.10602701667E+03  0.10602701670E+03  0.25500000000E-02 0. -1.
    5000001    1    1    2    0    0 -0.12416425308E+03  0.12012140634E+03  0.32454691013E+03  0.40299083225E+03  0.16500000000E+03 0.  0.
   -5000001    1    1    2    0    0  0.12416425308E+03 -0.12012140634E+03  0.14676753058E+03  0.28037764183E+03  0.16500000000E+03 0.  0.
<mgrwt>
<rscale>  0 0.49482842E+03</rscale>
<asrwt>0</asrwt>
<pdfrwt beam="1">  1        2 0.88821765E-01 0.49482842E+03</pdfrwt>
<pdfrwt beam="2">  1       -2 0.16311848E-01 0.49482842E+03</pdfrwt>
<totfact> 0.15770883E+03</totfact>
</mgrwt>
</event>
<event>
 4    1  0.1573232E-005  0.4086064E+03  0.7818608E-02  0.1040840E+00
          2   -1    0    0  501    0  0.00000000000E+00  0.00000000000E+00  0.20228940142E+04  0.20228940142E+04  0.25500000000E-02 0.  1.
         -2   -1    0    0    0  501 -0.00000000000E+00 -0.00000000000E+00 -0.20633707451E+02  0.20633707608E+02  0.25500000000E-02 0. -1.
    5000001    1    1    2    0    0  0.11762471402E+03  0.25825885040E+02  0.10186370910E+04  0.10389172599E+04  0.16500000000E+03 0.  0.
   -5000001    1    1    2    0    0 -0.11762471402E+03 -0.25825885040E+02  0.98362321574E+03  0.10046104619E+04  0.16500000000E+03 0.  0.
<mgrwt>
<rscale>  0 0.40860643E+03</rscale>
<asrwt>0</asrwt>
<pdfrwt beam="1">  1        2 0.31121439E+00 0.40860643E+03</pdfrwt>
<pdfrwt beam="2">  1       -2 0.31744173E-02 0.40860643E+03</pdfrwt>
<totfact> 0.27957533E+03</totfact>
</mgrwt>
</event>
<event>
 4    1  0.1573232E-005  0.7041613E+03  0.7818608E-02  0.9710142E-01
         -2   -1    0    0    0  501 -0.00000000000E+00  0.00000000000E+00  0.11460720354E+04  0.11460720354E+04  0.25500000000E-02 0. -1.
          2   -1    0    0  501    0  0.00000000000E+00 -0.00000000000E+00 -0.10816143436E+03  0.10816143439E+03  0.25500000000E-02 0.  1.
    5000001    1    1    2    0    0 -0.67691870818E+02 -0.18893574729E+03  0.94217384181E+03  0.97734101222E+03  0.16500000000E+03 0.  0.
   -5000001    1    1    2    0    0  0.67691870818E+02  0.18893574729E+03  0.95736759185E+02  0.27689245753E+03  0.16500000000E+03 0.  0.
<mgrwt>
<rscale>  0 0.70416133E+03</rscale>
<asrwt>0</asrwt>
<pdfrwt beam="1">  1        2 0.16640221E-01 0.70416133E+03</pdfrwt>
<pdfrwt beam="2">  1       -2 0.17631877E+00 0.70416133E+03</pdfrwt>
<totfact> 0.69124266E+01</totfact>
</mgrwt>
</event>
<event>
 4    1  0.1573232E-005  0.3447568E+03  0.7818608E-02  0.1064788E+00
          2   -1    0    0  501    0  0.00000000000E+00  0.00000000000E+00  0.12583342083E+04  0.12583342083E+04  0.25500000000E-02 0.  1.
         -2   -1    0    0    0  501 -0.00000000000E+00 -0.00000000000E+00 -0.23614012548E+02  0.23614012686E+02  0.25500000000E-02 0. -1.
    5000001    1    1    2    0    0 -0.25821966977E+02  0.40755496758E+02  0.57010034769E+03  0.59545544832E+03  0.16500000000E+03 0.  0.
   -5000001    1    1    2    0    0  0.25821966977E+02 -0.40755496758E+02  0.66461984810E+03  0.68649277271E+03  0.16500000000E+03 0.  0.
<mgrwt>
<rscale>  0 0.34475684E+03</rscale>
<asrwt>0</asrwt>
<pdfrwt beam="1">  1        2 0.19358989E+00 0.34475684E+03</pdfrwt>
<pdfrwt beam="2">  1       -2 0.36329247E-02 0.34475684E+03</pdfrwt>
<totfact> 0.59054462E+03</totfact>
</mgrwt>
</event>
<event>
 4    1  0.1573232E-005  0.5182107E+03  0.7818608E-02  0.1009132E+00
         -2   -1    0    0    0  501 -0.00000000000E+00  0.00000000000E+00  0.15203468141E+04  0.15203468141E+04  0.25500000000E-02 0. -1.
          2   -1    0    0  501    0  0.00000000000E+00 -0.00000000000E+00 -0.44158078221E+02  0.44158078295E+02  0.25500000000E-02 0.  1.
    5000001    1    1    2    0    0 -0.16756249648E+02 -0.15975646283E+03  0.10966846644E+04  0.11206003535E+04  0.16500000000E+03 0.  0.
   -5000001    1    1    2    0    0  0.16756249648E+02  0.15975646283E+03  0.37950407152E+03  0.44390453886E+03  0.16500000000E+03 0.  0.
<mgrwt>
<rscale>  0 0.51821074E+03</rscale>
<asrwt>0</asrwt>
<pdfrwt beam="1">  1        2 0.67935498E-02 0.51821074E+03</pdfrwt>
<pdfrwt beam="2">  1       -2 0.23389953E+00 0.51821074E+03</pdfrwt>
<totfact> 0.92207812E+01</totfact>
</mgrwt>
</event>
<event>
 4    1  0.1573232E-005  0.3758545E+03  0.7818608E-02  0.1052477E+00
         -2   -1    0    0    0  501 -0.00000000000E+00  0.00000000000E+00  0.51201550308E+02  0.51201550371E+02  0.25500000000E-02 0. -1.
          2   -1    0    0  501    0  0.00000000000E+00 -0.00000000000E+00 -0.68975762523E+03  0.68975762524E+03  0.25500000000E-02 0.  1.
    5000001    1    1    2    0    0 -0.69290984056E+02  0.45369319684E+02 -0.25008098323E+03  0.31084580392E+03  0.16500000000E+03 0.  0.
   -5000001    1    1    2    0    0  0.69290984056E+02 -0.45369319684E+02 -0.38847509169E+03  0.43011337169E+03  0.16500000000E+03 0.  0.
<mgrwt>
<rscale>  0 0.37585455E+03</rscale>
<asrwt>0</asrwt>
<pdfrwt beam="1">  1        2 0.10611655E+00 0.37585455E+03</pdfrwt>
<pdfrwt beam="2">  1       -2 0.78771621E-02 0.37585455E+03</pdfrwt>
<totfact> 0.41583978E+03</totfact>
</mgrwt>
</event>
<event>
 4    1  0.1573232E-005  0.6020059E+03  0.7818608E-02  0.9901253E-01
         -2   -1    0    0    0  501 -0.00000000000E+00  0.00000000000E+00  0.40586433781E+03  0.40586433782E+03  0.25500000000E-02 0. -1.
          2   -1    0    0  501    0  0.00000000000E+00 -0.00000000000E+00 -0.22323410231E+03  0.22323410233E+03  0.25500000000E-02 0.  1.
    5000001    1    1    2    0    0 -0.11739086783E+03  0.20505992019E+03  0.18210168550E+03  0.34090498761E+03  0.16500000000E+03 0.  0.
   -5000001    1    1    2    0    0  0.11739086783E+03 -0.20505992019E+03  0.52855000391E+00  0.28819345254E+03  0.16500000000E+03 0.  0.
<mgrwt>
<rscale>  0 0.60200585E+03</rscale>
<asrwt>0</asrwt>
<pdfrwt beam="1">  1        2 0.34343709E-01 0.60200585E+03</pdfrwt>
<pdfrwt beam="2">  1       -2 0.62440666E-01 0.60200585E+03</pdfrwt>
<totfact> 0.36717441E+02</totfact>
</mgrwt>
</event>
<event>
 4    1  0.1573232E-005  0.7848535E+03  0.7818608E-02  0.9582204E-01
         -2   -1    0    0    0  501 -0.00000000000E+00  0.00000000000E+00  0.84319938961E+03  0.84319938962E+03  0.25500000000E-02 0. -1.
          2   -1    0    0  501    0  0.00000000000E+00 -0.00000000000E+00 -0.18263622347E+03  0.18263622349E+03  0.25500000000E-02 0.  1.
    5000001    1    1    2    0    0 -0.28368544817E+03  0.16360278020E+03  0.14762081099E+03  0.39529761829E+03  0.16500000000E+03 0.  0.
   -5000001    1    1    2    0    0  0.28368544817E+03 -0.16360278020E+03  0.51294235515E+03  0.63053799481E+03  0.16500000000E+03 0.  0.
<mgrwt>
<rscale>  0 0.78485350E+03</rscale>
<asrwt>0</asrwt>
<pdfrwt beam="1">  1        2 0.28097881E-01 0.78485350E+03</pdfrwt>
<pdfrwt beam="2">  1       -2 0.12972298E+00 0.78485350E+03</pdfrwt>
<totfact> 0.84395026E+01</totfact>
</mgrwt>
</event>
<event>
 4    1  0.1573232E-005  0.3481309E+03  0.7818608E-02  0.1063385E+00
          2   -1    0    0  501    0  0.00000000000E+00  0.00000000000E+00  0.45066879740E+03  0.45066879741E+03  0.25500000000E-02 0.  1.
         -2   -1    0    0    0  501 -0.00000000000E+00 -0.00000000000E+00 -0.67230719165E+02  0.67230719214E+02  0.25500000000E-02 0. -1.
    5000001    1    1    2    0    0  0.51250000196E+02  0.19636462143E+02  0.18003982068E+03  0.25030279702E+03  0.16500000000E+03 0.  0.
   -5000001    1    1    2    0    0 -0.51250000196E+02 -0.19636462143E+02  0.20339825756E+03  0.26759671960E+03  0.16500000000E+03 0.  0.
<mgrwt>
<rscale>  0 0.34813094E+03</rscale>
<asrwt>0</asrwt>
<pdfrwt beam="1">  1        2 0.69333661E-01 0.34813094E+03</pdfrwt>
<pdfrwt beam="2">  1       -2 0.10343188E-01 0.34813094E+03</pdfrwt>
<totfact> 0.44128358E+03</totfact>
</mgrwt>
</event>
<event>
 4    1  0.1573232E-005  0.9098308E+03  0.7818608E-02  0.9413375E-01
         -2   -1    0    0    0  501 -0.00000000000E+00  0.00000000000E+00  0.35100581230E+03  0.35100581231E+03  0.25500000000E-02 0. -1.
          2   -1    0    0  501    0  0.00000000000E+00 -0.00000000000E+00 -0.58958579060E+03  0.58958579061E+03  0.25500000000E-02 0.  1.
    5000001    1    1    2    0    0  0.35101229223E+03  0.22177003433E+03 -0.30771144767E+02  0.44784309839E+03  0.16500000000E+03 0.  0.
   -5000001    1    1    2    0    0 -0.35101229223E+03 -0.22177003433E+03 -0.20780883353E+03  0.49274850453E+03  0.16500000000E+03 0.  0.
<mgrwt>
<rscale>  0 0.90983084E+03</rscale>
<asrwt>0</asrwt>
<pdfrwt beam="1">  1        2 0.90705506E-01 0.90983084E+03</pdfrwt>
<pdfrwt beam="2">  1       -2 0.54000894E-01 0.90983084E+03</pdfrwt>
<totfact> 0.16412587E+02</totfact>
</mgrwt>
</event>
<event>
 4    1  0.1573232E-005  0.6300273E+03  0.7818608E-02  0.9844996E-01
          2   -1    0    0  501    0  0.00000000000E+00  0.00000000000E+00  0.24017719039E+04  0.24017719039E+04  0.25500000000E-02 0.  1.
         -2   -1    0    0    0  501 -0.00000000000E+00 -0.00000000000E+00 -0.41316822944E+02  0.41316823022E+02  0.25500000000E-02 0. -1.
    5000001    1    1    2    0    0  0.10701134492E+03 -0.24596605317E+03  0.11507318096E+04  0.11930462795E+04  0.16500000000E+03 0.  0.
   -5000001    1    1    2    0    0 -0.10701134492E+03  0.24596605317E+03  0.12097232714E+04  0.12500424475E+04  0.16500000000E+03 0.  0.
<mgrwt>
<rscale>  0 0.63002725E+03</rscale>
<asrwt>0</asrwt>
<pdfrwt beam="1">  1        2 0.36950330E+00 0.63002725E+03</pdfrwt>
<pdfrwt beam="2">  1       -2 0.63564355E-02 0.63002725E+03</pdfrwt>
<totfact> 0.58770067E+02</totfact>
</mgrwt>
</event>
<event>
 4    1  0.1573232E-005  0.5708353E+03  0.7818608E-02  0.9967832E-01
          2   -1    0    0  501    0  0.00000000000E+00  0.00000000000E+00  0.11717440204E+04  0.11717440204E+04  0.25500000000E-02 0.  1.
         -2   -1    0    0    0  501 -0.00000000000E+00 -0.00000000000E+00 -0.69523062329E+02  0.69523062376E+02  0.25500000000E-02 0. -1.
    5000001    1    1    2    0    0 -0.33816172744E+02 -0.22128769967E+03  0.41142769704E+03  0.49659795554E+03  0.16500000000E+03 0.  0.
   -5000001    1    1    2    0    0  0.33816172744E+02  0.22128769967E+03  0.69079326102E+03  0.74466912722E+03  0.16500000000E+03 0.  0.
<mgrwt>
<rscale>  0 0.57083529E+03</rscale>
<asrwt>0</asrwt>
<pdfrwt beam="1">  1        2 0.18026832E+00 0.57083529E+03</pdfrwt>
<pdfrwt beam="2">  1       -2 0.10695855E-01 0.57083529E+03</pdfrwt>
<totfact> 0.12250434E+03</totfact>
</mgrwt>
</event>
<event>
 4    1  0.1573232E-005  0.6494128E+03  0.7818608E-02  0.9807882E-01
          2   -1    0    0  501    0  0.00000000000E+00  0.00000000000E+00  0.20907306971E+03  0.20907306972E+03  0.25500000000E-02 0.  1.
         -2   -1    0    0    0  501 -0.00000000000E+00 -0.00000000000E+00 -0.50429374698E+03  0.50429374698E+03  0.25500000000E-02 0. -1.
    5000001    1    1    2    0    0  0.11120291760E+03 -0.20488465609E+03 -0.31730833135E+03  0.42691145256E+03  0.16500000000E+03 0.  0.
   -5000001    1    1    2    0    0 -0.11120291760E+03  0.20488465609E+03  0.22087654086E+02  0.28645536414E+03  0.16500000000E+03 0.  0.
<mgrwt>
<rscale>  0 0.64941279E+03</rscale>
<asrwt>0</asrwt>
<pdfrwt beam="1">  1        2 0.32165088E-01 0.64941279E+03</pdfrwt>
<pdfrwt beam="2">  1       -2 0.77583653E-01 0.64941279E+03</pdfrwt>
<totfact> 0.24615521E+02</totfact>
</mgrwt>
</event>
<event>
 4    1  0.1573232E-005  0.3968493E+03  0.7818608E-02  0.1044876E+00
         -2   -1    0    0    0  501 -0.00000000000E+00  0.00000000000E+00  0.25102688411E+02  0.25102688541E+02  0.25500000000E-02 0. -1.
          2   -1    0    0  501    0  0.00000000000E+00 -0.00000000000E+00 -0.15684508060E+04  0.15684508060E+04  0.25500000000E-02 0.  1.
    5000001    1    1    2    0    0 -0.79826670881E+02 -0.28241297476E+01 -0.46673133506E+03  0.50144133478E+03  0.16500000000E+03 0.  0.
   -5000001    1    1    2    0    0  0.79826670881E+02  0.28241297476E+01 -0.10766167826E+04  0.10921121598E+04  0.16500000000E+03 0.  0.
<mgrwt>
<rscale>  0 0.39684925E+03</rscale>
<asrwt>0</asrwt>
<pdfrwt beam="1">  1        2 0.24130005E+00 0.39684925E+03</pdfrwt>
<pdfrwt beam="2">  1       -2 0.38619533E-02 0.39684925E+03</pdfrwt>
<totfact> 0.36366400E+03</totfact>
</mgrwt>
</event>
<event>
 4    1  0.1573232E-005  0.4142032E+03  0.7818608E-02  0.1038970E+00
          2   -1    0    0  501    0  0.00000000000E+00  0.00000000000E+00  0.11139512806E+04  0.11139512806E+04  0.25500000000E-02 0.  1.
         -2   -1    0    0    0  501 -0.00000000000E+00 -0.00000000000E+00 -0.38503549052E+02  0.38503549136E+02  0.25500000000E-02 0. -1.
    5000001    1    1    2    0    0  0.82286592365E+02 -0.71433846406E+02  0.70906279999E+03  0.73611747162E+03  0.16500000000E+03 0.  0.
   -5000001    1    1    2    0    0 -0.82286592365E+02  0.71433846406E+02  0.36638493159E+03  0.41633735815E+03  0.16500000000E+03 0.  0.
<mgrwt>
<rscale>  0 0.41420322E+03</rscale>
<asrwt>0</asrwt>
<pdfrwt beam="1">  1        2 0.17137714E+00 0.41420322E+03</pdfrwt>
<pdfrwt beam="2">  1       -2 0.59236224E-02 0.41420322E+03</pdfrwt>
<totfact> 0.33948296E+03</totfact>
</mgrwt>
</event>
<event>
 4    1  0.1573232E-005  0.4312201E+03  0.7818608E-02  0.1033475E+00
         -2   -1    0    0    0  501 -0.00000000000E+00  0.00000000000E+00  0.56900162185E+02  0.56900162243E+02  0.25500000000E-02 0. -1.
          2   -1    0    0  501    0  0.00000000000E+00 -0.00000000000E+00 -0.81700473908E+03  0.81700473909E+03  0.25500000000E-02 0.  1.
    5000001    1    1    2    0    0  0.31280318080E+01  0.13772037929E+03 -0.34577871859E+03  0.40714200187E+03  0.16500000000E+03 0.  0.
   -5000001    1    1    2    0    0 -0.31280318080E+01 -0.13772037929E+03 -0.41432585831E+03  0.46676289946E+03  0.16500000000E+03 0.  0.
<mgrwt>
<rscale>  0 0.43122014E+03</rscale>
<asrwt>0</asrwt>
<pdfrwt beam="1">  1        2 0.12569303E+00 0.43122014E+03</pdfrwt>
<pdfrwt beam="2">  1       -2 0.87538717E-02 0.43122014E+03</pdfrwt>
<totfact> 0.28448544E+03</totfact>
</mgrwt>
</event>
<event>
 4    1  0.1573232E-005  0.1214401E+04  0.7818608E-02  0.9100344E-01
          2   -1    0    0  501    0  0.00000000000E+00  0.00000000000E+00  0.52002525030E+03  0.52002525031E+03  0.25500000000E-02 0.  1.
         -2   -1    0    0    0  501 -0.00000000000E+00 -0.00000000000E+00 -0.70899005541E+03  0.70899005541E+03  0.25500000000E-02 0. -1.
    5000001    1    1    2    0    0 -0.49189641985E+03  0.27413935360E+03  0.63450836635E+02  0.59022494163E+03  0.16500000000E+03 0.  0.
   -5000001    1    1    2    0    0  0.49189641985E+03 -0.27413935360E+03 -0.25241564174E+03  0.63879036409E+03  0.16500000000E+03 0.  0.
<mgrwt>
<rscale>  0 0.12144015E+04</rscale>
<asrwt>0</asrwt>
<pdfrwt beam="1">  1        2 0.80003885E-01 0.12144015E+04</pdfrwt>
<pdfrwt beam="2">  1       -2 0.10907539E+00 0.12144015E+04</pdfrwt>
<totfact> 0.38882778E+01</totfact>
</mgrwt>
</event>
<event>
 4    1  0.1573232E-005  0.7739834E+03  0.7818608E-02  0.9598458E-01
         -2   -1    0    0    0  501 -0.00000000000E+00  0.00000000000E+00  0.12239997489E+03  0.12239997492E+03  0.25500000000E-02 0. -1.
          2   -1    0    0  501    0  0.00000000000E+00 -0.00000000000E+00 -0.12235505935E+04  0.12235505935E+04  0.25500000000E-02 0.  1.
    5000001    1    1    2    0    0 -0.34401581177E+03  0.17635943067E+01 -0.43804262567E+03  0.58090991635E+03  0.16500000000E+03 0.  0.
   -5000001    1    1    2    0    0  0.34401581177E+03 -0.17635943067E+01 -0.66310799291E+03  0.76504065204E+03  0.16500000000E+03 0.  0.
<mgrwt>
<rscale>  0 0.77398336E+03</rscale>
<asrwt>0</asrwt>
<pdfrwt beam="1">  1        2 0.18823854E+00 0.77398336E+03</pdfrwt>
<pdfrwt beam="2">  1       -2 0.18830766E-01 0.77398336E+03</pdfrwt>
<totfact> 0.43794013E+02</totfact>
</mgrwt>
</event>
<event>
 4    1  0.1573232E-005  0.3827992E+03  0.7818608E-02  0.1049904E+00
         -2   -1    0    0    0  501 -0.00000000000E+00  0.00000000000E+00  0.11301898678E+03  0.11301898681E+03  0.25500000000E-02 0. -1.
          2   -1    0    0  501    0  0.00000000000E+00 -0.00000000000E+00 -0.32413849050E+03  0.32413849051E+03  0.25500000000E-02 0.  1.
    5000001    1    1    2    0    0 -0.59971597322E+02 -0.69312075999E+02 -0.69301456006E+02  0.20106826743E+03  0.16500000000E+03 0.  0.
   -5000001    1    1    2    0    0  0.59971597322E+02  0.69312075999E+02 -0.14181804772E+03  0.23608920988E+03  0.16500000000E+03 0.  0.
<mgrwt>
<rscale>  0 0.38279918E+03</rscale>
<asrwt>0</asrwt>
<pdfrwt beam="1">  1        2 0.49867460E-01 0.38279918E+03</pdfrwt>
<pdfrwt beam="2">  1       -2 0.17387537E-01 0.38279918E+03</pdfrwt>
<totfact> 0.26989856E+03</totfact>
</mgrwt>
</event>
<event>
 4    1  0.1573232E-005  0.3681088E+03  0.7818608E-02  0.1055418E+00
         -2   -1    0    0    0  501 -0.00000000000E+00  0.00000000000E+00  0.16151131281E+02  0.16151131482E+02  0.25500000000E-02 0. -1.
          2   -1    0    0  501    0  0.00000000000E+00 -0.00000000000E+00 -0.20974401046E+04  0.20974401046E+04  0.25500000000E-02 0.  1.
    5000001    1    1    2    0    0 -0.75349592614E+02 -0.67637268983E+01 -0.12155298955E+04  0.12290082326E+04  0.16500000000E+03 0.  0.
   -5000001    1    1    2    0    0  0.75349592614E+02  0.67637268983E+01 -0.86575907785E+03  0.88458300345E+03  0.16500000000E+03 0.  0.
<mgrwt>
<rscale>  0 0.36810885E+03</rscale>
<asrwt>0</asrwt>
<pdfrwt beam="1">  1        2 0.32268288E+00 0.36810885E+03</pdfrwt>
<pdfrwt beam="2">  1       -2 0.24847911E-02 0.36810885E+03</pdfrwt>
<totfact> 0.36896599E+03</totfact>
</mgrwt>
</event>
<event>
 4    1  0.1573232E-005  0.8101989E+03  0.7818608E-02  0.9545371E-01
          2   -1    0    0  501    0  0.00000000000E+00  0.00000000000E+00  0.10150932002E+04  0.10150932002E+04  0.25500000000E-02 0.  1.
         -2   -1    0    0    0  501 -0.00000000000E+00 -0.00000000000E+00 -0.16166552318E+03  0.16166552320E+03  0.25500000000E-02 0. -1.
    5000001    1    1    2    0    0  0.21274819803E+03 -0.94980163122E+01 -0.12700366910E+02  0.26970040304E+03  0.16500000000E+03 0.  0.
   -5000001    1    1    2    0    0 -0.21274819803E+03  0.94980163122E+01  0.86612804393E+03  0.90705832038E+03  0.16500000000E+03 0.  0.
<mgrwt>
<rscale>  0 0.81019892E+03</rscale>
<asrwt>0</asrwt>
<pdfrwt beam="1">  1        2 0.15616818E+00 0.81019892E+03</pdfrwt>
<pdfrwt beam="2">  1       -2 0.24871619E-01 0.81019892E+03</pdfrwt>
<totfact> 0.35797799E+02</totfact>
</mgrwt>
</event>
<event>
 4    1  0.1573232E-005  0.6221364E+03  0.7818608E-02  0.9860515E-01
          2   -1    0    0  501    0  0.00000000000E+00  0.00000000000E+00  0.80143109655E+03  0.80143109655E+03  0.25500000000E-02 0.  1.
         -2   -1    0    0    0  501 -0.00000000000E+00 -0.00000000000E+00 -0.12073828446E+03  0.12073828448E+03  0.25500000000E-02 0. -1.
    5000001    1    1    2    0    0 -0.25763793522E+02  0.23187823587E+03  0.15815997063E+03  0.32660506064E+03  0.16500000000E+03 0.  0.
   -5000001    1    1    2    0    0  0.25763793522E+02 -0.23187823587E+03  0.52253284146E+03  0.59556432040E+03  0.16500000000E+03 0.  0.
<mgrwt>
<rscale>  0 0.62213637E+03</rscale>
<asrwt>0</asrwt>
<pdfrwt beam="1">  1        2 0.12329709E+00 0.62213637E+03</pdfrwt>
<pdfrwt beam="2">  1       -2 0.18575121E-01 0.62213637E+03</pdfrwt>
<totfact> 0.83917562E+02</totfact>
</mgrwt>
</event>
<event>
 4    1  0.1573232E-005  0.4926141E+03  0.7818608E-02  0.1015725E+00
          2   -1    0    0  501    0  0.00000000000E+00  0.00000000000E+00  0.51366625586E+03  0.51366625586E+03  0.25500000000E-02 0.  1.
         -2   -1    0    0    0  501 -0.00000000000E+00 -0.00000000000E+00 -0.11810617464E+03  0.11810617467E+03  0.25500000000E-02 0. -1.
    5000001    1    1    2    0    0 -0.15708125024E+03  0.25743495028E+02  0.82320999084E+02  0.24359596385E+03  0.16500000000E+03 0.  0.
   -5000001    1    1    2    0    0  0.15708125024E+03 -0.25743495028E+02  0.31323908213E+03  0.38817646668E+03  0.16500000000E+03 0.  0.
<mgrwt>
<rscale>  0 0.49261407E+03</rscale>
<asrwt>0</asrwt>
<pdfrwt beam="1">  1        2 0.79025577E-01 0.49261407E+03</pdfrwt>
<pdfrwt beam="2">  1       -2 0.18170181E-01 0.49261407E+03</pdfrwt>
<totfact> 0.15036233E+03</totfact>
</mgrwt>
</event>
<event>
 4    1  0.1573232E-005  0.4009618E+03  0.7818608E-02  0.1043447E+00
         -2   -1    0    0    0  501 -0.00000000000E+00  0.00000000000E+00  0.22827773969E+03  0.22827773971E+03  0.25500000000E-02 0. -1.
          2   -1    0    0  501    0  0.00000000000E+00 -0.00000000000E+00 -0.17606882273E+03  0.17606882275E+03  0.25500000000E-02 0.  1.
    5000001    1    1    2    0    0 -0.24970315735E+02 -0.11037041350E+03  0.13251355359E+02  0.20051369844E+03  0.16500000000E+03 0.  0.
   -5000001    1    1    2    0    0  0.24970315735E+02  0.11037041350E+03  0.38957561605E+02  0.20383286401E+03  0.16500000000E+03 0.  0.
<mgrwt>
<rscale>  0 0.40096181E+03</rscale>
<asrwt>0</asrwt>
<pdfrwt beam="1">  1        2 0.27087511E-01 0.40096181E+03</pdfrwt>
<pdfrwt beam="2">  1       -2 0.35119652E-01 0.40096181E+03</pdfrwt>
<totfact> 0.15106926E+03</totfact>
</mgrwt>
</event>
<event>
 4    1  0.1573232E-005  0.4892041E+03  0.7818608E-02  0.1016636E+00
         -2   -1    0    0    0  501 -0.00000000000E+00  0.00000000000E+00  0.33739142226E+03  0.33739142227E+03  0.25500000000E-02 0. -1.
          2   -1    0    0  501    0  0.00000000000E+00 -0.00000000000E+00 -0.17733162659E+03  0.17733162661E+03  0.25500000000E-02 0.  1.
    5000001    1    1    2    0    0  0.14563532360E+03  0.10218088206E+03  0.11253801726E+03  0.26747034502E+03  0.16500000000E+03 0.  0.
   -5000001    1    1    2    0    0 -0.14563532360E+03 -0.10218088206E+03  0.47521778422E+02  0.24725270386E+03  0.16500000000E+03 0.  0.
<mgrwt>
<rscale>  0 0.48920413E+03</rscale>
<asrwt>0</asrwt>
<pdfrwt beam="1">  1        2 0.27281789E-01 0.48920413E+03</pdfrwt>
<pdfrwt beam="2">  1       -2 0.51906372E-01 0.48920413E+03</pdfrwt>
<totfact> 0.69866450E+02</totfact>
</mgrwt>
</event>
<event>
 4    1  0.1573232E-005  0.4407649E+03  0.7818608E-02  0.1030512E+00
         -2   -1    0    0    0  501 -0.00000000000E+00  0.00000000000E+00  0.60591643838E+02  0.60591643892E+02  0.25500000000E-02 0. -1.
          2   -1    0    0  501    0  0.00000000000E+00 -0.00000000000E+00 -0.80156964032E+03  0.80156964032E+03  0.25500000000E-02 0.  1.
    5000001    1    1    2    0    0 -0.85135294805E+02 -0.11858490384E+03 -0.35924816210E+03  0.42141979049E+03  0.16500000000E+03 0.  0.
   -5000001    1    1    2    0    0  0.85135294805E+02  0.11858490384E+03 -0.38172983438E+03  0.44074149373E+03  0.16500000000E+03 0.  0.
<mgrwt>
<rscale>  0 0.44076489E+03</rscale>
<asrwt>0</asrwt>
<pdfrwt beam="1">  1        2 0.12331840E+00 0.44076489E+03</pdfrwt>
<pdfrwt beam="2">  1       -2 0.93217920E-02 0.44076489E+03</pdfrwt>
<totfact> 0.26383537E+03</totfact>
</mgrwt>
</event>
<event>
 4    1  0.1573232E-005  0.6723774E+03  0.7818608E-02  0.9765672E-01
          2   -1    0    0  501    0  0.00000000000E+00  0.00000000000E+00  0.12269394568E+04  0.12269394568E+04  0.25500000000E-02 0.  1.
         -2   -1    0    0    0  501 -0.00000000000E+00 -0.00000000000E+00 -0.92117709447E+02  0.92117709482E+02  0.25500000000E-02 0. -1.
    5000001    1    1    2    0    0  0.28021789426E+03 -0.23313866629E+01  0.40013700037E+03  0.51561819469E+03  0.16500000000E+03 0.  0.
   -5000001    1    1    2    0    0 -0.28021789426E+03  0.23313866629E+01  0.73468474697E+03  0.80343897159E+03  0.16500000000E+03 0.  0.
<mgrwt>
<rscale>  0 0.67237743E+03</rscale>
<asrwt>0</asrwt>
<pdfrwt beam="1">  1        2 0.18875991E+00 0.67237743E+03</pdfrwt>
<pdfrwt beam="2">  1       -2 0.14171956E-01 0.67237743E+03</pdfrwt>
<totfact> 0.71138049E+02</totfact>
</mgrwt>
</event>
<event>
 4    1  0.1573232E-005  0.5113066E+03  0.7818608E-02  0.1010869E+00
          2   -1    0    0  501    0  0.00000000000E+00  0.00000000000E+00  0.25466218199E+03  0.25466218200E+03  0.25500000000E-02 0. -1.
         -2   -1    0    0    0  501 -0.00000000000E+00 -0.00000000000E+00 -0.25664826071E+03  0.25664826073E+03  0.25500000000E-02 0.  1.
    5000001    1    1    2    0    0  0.11804650664E+03 -0.96332792752E+02 -0.12313576933E+03  0.25612965931E+03  0.16500000000E+03 0.  0.
   -5000001    1    1    2    0    0 -0.11804650664E+03  0.96332792752E+02  0.12114969061E+03  0.25518078342E+03  0.16500000000E+03 0.  0.
<mgrwt>
<rscale>  0 0.51130659E+03</rscale>
<asrwt>0</asrwt>
<pdfrwt beam="1">  1        2 0.39178797E-01 0.51130659E+03</pdfrwt>
<pdfrwt beam="2">  1       -2 0.39484348E-01 0.51130659E+03</pdfrwt>
<totfact> 0.80289567E+02</totfact>
</mgrwt>
</event>
<event>
 4    1  0.1573232E-005  0.4025622E+03  0.7818608E-02  0.1042896E+00
         -2   -1    0    0    0  501 -0.00000000000E+00  0.00000000000E+00  0.52255930777E+02  0.52255930839E+02  0.25500000000E-02 0. -1.
          2   -1    0    0  501    0  0.00000000000E+00 -0.00000000000E+00 -0.77530121798E+03  0.77530121798E+03  0.25500000000E-02 0.  1.
    5000001    1    1    2    0    0 -0.12806743637E+02  0.10414628922E+03 -0.26339274292E+03  0.32804145967E+03  0.16500000000E+03 0.  0.
   -5000001    1    1    2    0    0  0.12806743637E+02 -0.10414628922E+03 -0.45965254428E+03  0.49951568915E+03  0.16500000000E+03 0.  0.
<mgrwt>
<rscale>  0 0.40256223E+03</rscale>
<asrwt>0</asrwt>
<pdfrwt beam="1">  1        2 0.11927710E+00 0.40256223E+03</pdfrwt>
<pdfrwt beam="2">  1       -2 0.80393745E-02 0.40256223E+03</pdfrwt>
<totfact> 0.34824733E+03</totfact>
</mgrwt>
</event>
<event>
 4    1  0.1573232E-005  0.4602787E+03  0.7818608E-02  0.1024700E+00
          2   -1    0    0  501    0  0.00000000000E+00  0.00000000000E+00  0.10616598654E+03  0.10616598657E+03  0.25500000000E-02 0.  1.
         -2   -1    0    0    0  501 -0.00000000000E+00 -0.00000000000E+00 -0.49888029296E+03  0.49888029297E+03  0.25500000000E-02 0. -1.
    5000001    1    1    2    0    0 -0.60088541366E+02 -0.13339455132E+03 -0.28290000148E+03  0.35869506542E+03  0.16500000000E+03 0.  0.
   -5000001    1    1    2    0    0  0.60088541366E+02  0.13339455132E+03 -0.10981430494E+03  0.24635121411E+03  0.16500000000E+03 0.  0.
<mgrwt>
<rscale>  0 0.46027869E+03</rscale>
<asrwt>0</asrwt>
<pdfrwt beam="1">  1        2 0.16333229E-01 0.46027869E+03</pdfrwt>
<pdfrwt beam="2">  1       -2 0.76750813E-01 0.46027869E+03</pdfrwt>
<totfact> 0.55278617E+02</totfact>
</mgrwt>
</event>
<event>
 4    1  0.1573232E-005  0.3881886E+03  0.7818608E-02  0.1047948E+00
          2   -1    0    0  501    0  0.00000000000E+00  0.00000000000E+00  0.21076914576E+04  0.21076914576E+04  0.25500000000E-02 0.  1.
         -2   -1    0    0    0  501 -0.00000000000E+00 -0.00000000000E+00 -0.17873867010E+02  0.17873867191E+02  0.25500000000E-02 0. -1.
    5000001    1    1    2    0    0  0.15665502531E+02 -0.84094187185E+02  0.73855123938E+03  0.76157742448E+03  0.16500000000E+03 0.  0.
   -5000001    1    1    2    0    0 -0.15665502531E+02  0.84094187185E+02  0.13512663513E+04  0.13639879004E+04  0.16500000000E+03 0.  0.
<mgrwt>
<rscale>  0 0.38818860E+03</rscale>
<asrwt>0</asrwt>
<pdfrwt beam="1">  1        2 0.32426020E+00 0.38818860E+03</pdfrwt>
<pdfrwt beam="2">  1       -2 0.27498259E-02 0.38818860E+03</pdfrwt>
<totfact> 0.31282689E+03</totfact>
</mgrwt>
</event>
<event>
 4    1  0.1573232E-005  0.5170918E+03  0.7818608E-02  0.1009412E+00
         -2   -1    0    0    0  501 -0.00000000000E+00  0.00000000000E+00  0.10659555708E+03  0.10659555711E+03  0.25500000000E-02 0. -1.
          2   -1    0    0  501    0  0.00000000000E+00 -0.00000000000E+00 -0.62709910322E+03  0.62709910323E+03  0.25500000000E-02 0.  1.
    5000001    1    1    2    0    0 -0.17991783398E+03 -0.14664104245E+02 -0.14123842363E+03  0.28241592598E+03  0.16500000000E+03 0.  0.
   -5000001    1    1    2    0    0  0.17991783398E+03  0.14664104245E+02 -0.37926512251E+03  0.45127873436E+03  0.16500000000E+03 0.  0.
<mgrwt>
<rscale>  0 0.51709178E+03</rscale>
<asrwt>0</asrwt>
<pdfrwt beam="1">  1        2 0.96476783E-01 0.51709178E+03</pdfrwt>
<pdfrwt beam="2">  1       -2 0.16399317E-01 0.51709178E+03</pdfrwt>
<totfact> 0.14161207E+03</totfact>
</mgrwt>
</event>
<event>
 4    1  0.1573232E-005  0.6104705E+03  0.7818608E-02  0.9883918E-01
         -2   -1    0    0    0  501 -0.00000000000E+00  0.00000000000E+00  0.95565045913E+02  0.95565045947E+02  0.25500000000E-02 0. -1.
          2   -1    0    0  501    0  0.00000000000E+00 -0.00000000000E+00 -0.97492297905E+03  0.97492297905E+03  0.25500000000E-02 0.  1.
    5000001    1    1    2    0    0  0.17170026417E+03  0.17890513384E+03 -0.55672774730E+03  0.63139433973E+03  0.16500000000E+03 0.  0.
   -5000001    1    1    2    0    0 -0.17170026417E+03 -0.17890513384E+03 -0.32263018584E+03  0.43909368527E+03  0.16500000000E+03 0.  0.
<mgrwt>
<rscale>  0 0.61047050E+03</rscale>
<asrwt>0</asrwt>
<pdfrwt beam="1">  1        2 0.14998814E+00 0.61047050E+03</pdfrwt>
<pdfrwt beam="2">  1       -2 0.14702315E-01 0.61047050E+03</pdfrwt>
<totfact> 0.95490132E+02</totfact>
</mgrwt>
</event>
<event>
 4    1  0.1573232E-005  0.6294946E+03  0.7818608E-02  0.9846036E-01
          2   -1    0    0  501    0  0.00000000000E+00  0.00000000000E+00  0.29817687358E+04  0.29817687358E+04  0.25500000000E-02 0.  1.
         -2   -1    0    0    0  501 -0.00000000000E+00 -0.00000000000E+00 -0.33223857333E+02  0.33223857431E+02  0.25500000000E-02 0. -1.
    5000001    1    1    2    0    0  0.58446147790E+02 -0.21061994055E+03  0.22172564893E+04  0.22341056490E+04  0.16500000000E+03 0.  0.
   -5000001    1    1    2    0    0 -0.58446147790E+02  0.21061994055E+03  0.73128838926E+03  0.78088694432E+03  0.16500000000E+03 0.  0.
<mgrwt>
<rscale>  0 0.62949459E+03</rscale>
<asrwt>0</asrwt>
<pdfrwt beam="1">  1        2 0.45873376E+00 0.62949459E+03</pdfrwt>
<pdfrwt beam="2">  1       -2 0.51113615E-02 0.62949459E+03</pdfrwt>
<totfact> 0.38106567E+02</totfact>
</mgrwt>
</event>
<event>
 4    1  0.1573232E-005  0.1044645E+04  0.7818608E-02  0.9260890E-01
          2   -1    0    0  501    0  0.00000000000E+00  0.00000000000E+00  0.23531810931E+03  0.23531810933E+03  0.25500000000E-02 0.  1.
         -2   -1    0    0    0  501 -0.00000000000E+00 -0.00000000000E+00 -0.11593704744E+04  0.11593704744E+04  0.25500000000E-02 0. -1.
    5000001    1    1    2    0    0 -0.24224964804E+03 -0.41354218950E+03 -0.63034116950E+03  0.80886156074E+03  0.16500000000E+03 0.  0.
   -5000001    1    1    2    0    0  0.24224964804E+03  0.41354218950E+03 -0.29371119563E+03  0.58582702303E+03  0.16500000000E+03 0.  0.
<mgrwt>
<rscale>  0 0.10446451E+04</rscale>
<asrwt>0</asrwt>
<pdfrwt beam="1">  1        2 0.36202787E-01 0.10446451E+04</pdfrwt>
<pdfrwt beam="2">  1       -2 0.17836469E+00 0.10446451E+04</pdfrwt>
<totfact> 0.26686407E+01</totfact>
</mgrwt>
</event>
<event>
 4    1  0.1573232E-005  0.3722498E+03  0.7818608E-02  0.1053836E+00
          2   -1    0    0  501    0  0.00000000000E+00  0.00000000000E+00  0.76819782719E+03  0.76819782719E+03  0.25500000000E-02 0.  1.
         -2   -1    0    0    0  501 -0.00000000000E+00 -0.00000000000E+00 -0.45095766194E+02  0.45095766266E+02  0.25500000000E-02 0. -1.
    5000001    1    1    2    0    0 -0.81680866916E+02  0.17543846212E+02  0.31583064693E+03  0.36599665039E+03  0.16500000000E+03 0.  0.
   -5000001    1    1    2    0    0  0.81680866916E+02 -0.17543846212E+02  0.40727141407E+03  0.44729694307E+03  0.16500000000E+03 0.  0.
<mgrwt>
<rscale>  0 0.37224975E+03</rscale>
<asrwt>0</asrwt>
<pdfrwt beam="1">  1        2 0.11818429E+00 0.37224975E+03</pdfrwt>
<pdfrwt beam="2">  1       -2 0.69378097E-02 0.37224975E+03</pdfrwt>
<totfact> 0.44362313E+03</totfact>
</mgrwt>
</event>
<event>
 4    1  0.1573232E-005  0.8078152E+03  0.7818608E-02  0.9548773E-01
         -2   -1    0    0    0  501 -0.00000000000E+00  0.00000000000E+00  0.13108543731E+03  0.13108543733E+03  0.25500000000E-02 0. -1.
          2   -1    0    0  501    0  0.00000000000E+00 -0.00000000000E+00 -0.12445419771E+04  0.12445419771E+04  0.25500000000E-02 0.  1.
    5000001    1    1    2    0    0  0.19620464384E+03  0.27742758564E+03 -0.80027257174E+03  0.88494266290E+03  0.16500000000E+03 0.  0.
   -5000001    1    1    2    0    0 -0.19620464384E+03 -0.27742758564E+03 -0.31318396802E+03  0.49068475151E+03  0.16500000000E+03 0.  0.
<mgrwt>
<rscale>  0 0.80781515E+03</rscale>
<asrwt>0</asrwt>
<pdfrwt beam="1">  1        2 0.19146799E+00 0.80781515E+03</pdfrwt>
<pdfrwt beam="2">  1       -2 0.20166991E-01 0.80781515E+03</pdfrwt>
<totfact> 0.37703400E+02</totfact>
</mgrwt>
</event>
<event>
 4    1  0.1573232E-005  0.4202167E+03  0.7818608E-02  0.1036996E+00
         -2   -1    0    0    0  501 -0.00000000000E+00  0.00000000000E+00  0.56011834322E+02  0.56011834380E+02  0.25500000000E-02 0. -1.
          2   -1    0    0  501    0  0.00000000000E+00 -0.00000000000E+00 -0.78814626299E+03  0.78814626300E+03  0.25500000000E-02 0.  1.
    5000001    1    1    2    0    0  0.10585830765E+03  0.79761221993E+01 -0.51707870463E+03  0.55305061848E+03  0.16500000000E+03 0.  0.
   -5000001    1    1    2    0    0 -0.10585830765E+03 -0.79761221993E+01 -0.21505572404E+03  0.29110747889E+03  0.16500000000E+03 0.  0.
<mgrwt>
<rscale>  0 0.42021670E+03</rscale>
<asrwt>0</asrwt>
<pdfrwt beam="1">  1        2 0.12125326E+00 0.42021670E+03</pdfrwt>
<pdfrwt beam="2">  1       -2 0.86172059E-02 0.42021670E+03</pdfrwt>
<totfact> 0.30559241E+03</totfact>
</mgrwt>
</event>
<event>
 4    1  0.1573232E-005  0.5098518E+03  0.7818608E-02  0.1011239E+00
          2   -1    0    0  501    0  0.00000000000E+00  0.00000000000E+00  0.15230305242E+04  0.15230305242E+04  0.25500000000E-02 0.  1.
         -2   -1    0    0    0  501 -0.00000000000E+00 -0.00000000000E+00 -0.42669670228E+02  0.42669670304E+02  0.25500000000E-02 0. -1.
    5000001    1    1    2    0    0  0.18234190298E+03  0.47436766341E+02  0.88627858227E+03  0.92098509314E+03  0.16500000000E+03 0.  0.
   -5000001    1    1    2    0    0 -0.18234190298E+03 -0.47436766341E+02  0.59408227168E+03  0.64471510135E+03  0.16500000000E+03 0.  0.
<mgrwt>
<rscale>  0 0.50985178E+03</rscale>
<asrwt>0</asrwt>
<pdfrwt beam="1">  1        2 0.23431239E+00 0.50985178E+03</pdfrwt>
<pdfrwt beam="2">  1       -2 0.65645647E-02 0.50985178E+03</pdfrwt>
<totfact> 0.16936721E+03</totfact>
</mgrwt>
</event>
<event>
 4    1  0.1573232E-005  0.6543183E+03  0.7818608E-02  0.9798710E-01
          2   -1    0    0  501    0  0.00000000000E+00  0.00000000000E+00  0.91272904242E+03  0.91272904242E+03  0.25500000000E-02 0.  1.
         -2   -1    0    0    0  501 -0.00000000000E+00 -0.00000000000E+00 -0.11726712447E+03  0.11726712450E+03  0.25500000000E-02 0. -1.
    5000001    1    1    2    0    0 -0.24284141126E+03 -0.11818153949E+03  0.52819842953E+03  0.61575758887E+03  0.16500000000E+03 0.  0.
   -5000001    1    1    2    0    0  0.24284141126E+03  0.11818153949E+03  0.26726348842E+03  0.41423857804E+03  0.16500000000E+03 0.  0.
<mgrwt>
<rscale>  0 0.65431830E+03</rscale>
<asrwt>0</asrwt>
<pdfrwt beam="1">  1        2 0.14041985E+00 0.65431830E+03</pdfrwt>
<pdfrwt beam="2">  1       -2 0.18041096E-01 0.65431830E+03</pdfrwt>
<totfact> 0.73916844E+02</totfact>
</mgrwt>
</event>
<event>
 4    1  0.1573232E-005  0.5016861E+03  0.7818608E-02  0.1013340E+00
         -2   -1    0    0    0  501 -0.00000000000E+00  0.00000000000E+00  0.24088261557E+03  0.24088261558E+03  0.25500000000E-02 0. -1.
          2   -1    0    0  501    0  0.00000000000E+00 -0.00000000000E+00 -0.26121537398E+03  0.26121537399E+03  0.25500000000E-02 0.  1.
    5000001    1    1    2    0    0 -0.57688803937E+02  0.53453317675E+02 -0.18209794483E+03  0.25801146637E+03  0.16500000000E+03 0.  0.
   -5000001    1    1    2    0    0  0.57688803937E+02 -0.53453317675E+02  0.16176518642E+03  0.24408652320E+03  0.16500000000E+03 0.  0.
<mgrwt>
<rscale>  0 0.50168613E+03</rscale>
<asrwt>0</asrwt>
<pdfrwt beam="1">  1        2 0.40186981E-01 0.50168613E+03</pdfrwt>
<pdfrwt beam="2">  1       -2 0.37058864E-01 0.50168613E+03</pdfrwt>
<totfact> 0.88183295E+02</totfact>
</mgrwt>
</event>
<event>
 4    1  0.1573232E-005  0.4623677E+03  0.7818608E-02  0.1024097E+00
         -2   -1    0    0    0  501 -0.00000000000E+00  0.00000000000E+00  0.17692779715E+03  0.17692779717E+03  0.25500000000E-02 0.  1.
          2   -1    0    0  501    0  0.00000000000E+00 -0.00000000000E+00 -0.30207785913E+03  0.30207785914E+03  0.25500000000E-02 0. -1.
    5000001    1    1    2    0    0  0.57402477732E+02  0.13467678537E+03  0.91109579408E+01  0.22077339179E+03  0.16500000000E+03 0.  0.
   -5000001    1    1    2    0    0 -0.57402477732E+02 -0.13467678537E+03 -0.13426101991E+03  0.25823226452E+03  0.16500000000E+03 0.  0.
<mgrwt>
<rscale>  0 0.46236769E+03</rscale>
<asrwt>0</asrwt>
<pdfrwt beam="1">  1        2 0.46473517E-01 0.46236769E+03</pdfrwt>
<pdfrwt beam="2">  1       -2 0.27219661E-01 0.46236769E+03</pdfrwt>
<totfact> 0.13335690E+03</totfact>
</mgrwt>
</event>
<event>
 4    1  0.1573232E-005  0.6606319E+03  0.7818608E-02  0.9787031E-01
         -2   -1    0    0    0  501 -0.00000000000E+00  0.00000000000E+00  0.12155323519E+03  0.12155323522E+03  0.25500000000E-02 0. -1.
          2   -1    0    0  501    0  0.00000000000E+00 -0.00000000000E+00 -0.89762006330E+03  0.89762006331E+03  0.25500000000E-02 0.  1.
    5000001    1    1    2    0    0  0.13981484244E+03 -0.24834170222E+03 -0.42772168763E+03  0.53980795964E+03  0.16500000000E+03 0.  0.
   -5000001    1    1    2    0    0 -0.13981484244E+03  0.24834170222E+03 -0.34834514048E+03  0.47936533888E+03  0.16500000000E+03 0.  0.
<mgrwt>
<rscale>  0 0.66063189E+03</rscale>
<asrwt>0</asrwt>
<pdfrwt beam="1">  1        2 0.13809539E+00 0.66063189E+03</pdfrwt>
<pdfrwt beam="2">  1       -2 0.18700498E-01 0.66063189E+03</pdfrwt>
<totfact> 0.71093198E+02</totfact>
</mgrwt>
</event>
<event>
 4    1  0.1573232E-005  0.1087640E+04  0.7818608E-02  0.9217323E-01
          2   -1    0    0  501    0  0.00000000000E+00  0.00000000000E+00  0.50912099377E+03  0.50912099377E+03  0.25500000000E-02 0.  1.
         -2   -1    0    0    0  501 -0.00000000000E+00 -0.00000000000E+00 -0.58088400324E+03  0.58088400324E+03  0.25500000000E-02 0. -1.
    5000001    1    1    2    0    0  0.24204481577E+03 -0.45816503957E+03 -0.39677175810E+02  0.54525239533E+03  0.16500000000E+03 0.  0.
   -5000001    1    1    2    0    0 -0.24204481577E+03  0.45816503957E+03 -0.32085833660E+02  0.54475260169E+03  0.16500000000E+03 0.  0.
<mgrwt>
<rscale>  0 0.10876401E+04</rscale>
<asrwt>0</asrwt>
<pdfrwt beam="1">  1        2 0.78326307E-01 0.10876401E+04</pdfrwt>
<pdfrwt beam="2">  1       -2 0.89366769E-01 0.10876401E+04</pdfrwt>
<totfact> 0.64383596E+01</totfact>
</mgrwt>
</event>
<event>
 4    1  0.1573232E-005  0.5050186E+03  0.7818608E-02  0.1012477E+00
         -2   -1    0    0    0  501 -0.00000000000E+00  0.00000000000E+00  0.18669224351E+02  0.18669224525E+02  0.25500000000E-02 0. -1.
          2   -1    0    0  501    0  0.00000000000E+00 -0.00000000000E+00 -0.34152976157E+04  0.34152976157E+04  0.25500000000E-02 0.  1.
    5000001    1    1    2    0    0  0.18184207237E+03 -0.56006404065E+02 -0.15742873134E+04  0.15943051156E+04  0.16500000000E+03 0.  0.
   -5000001    1    1    2    0    0 -0.18184207237E+03  0.56006404065E+02 -0.18223410780E+04  0.18396617247E+04  0.16500000000E+03 0.  0.
<mgrwt>
<rscale>  0 0.50501864E+03</rscale>
<asrwt>0</asrwt>
<pdfrwt beam="1">  1        2 0.52542990E+00 0.50501864E+03</pdfrwt>
<pdfrwt beam="2">  1       -2 0.28721911E-02 0.50501864E+03</pdfrwt>
<totfact> 0.49806016E+02</totfact>
</mgrwt>
</event>
<event>
 4    1  0.1573232E-005  0.5601686E+03  0.7818608E-02  0.9991673E-01
          2   -1    0    0  501    0  0.00000000000E+00  0.00000000000E+00  0.25004743379E+04  0.25004743379E+04  0.25500000000E-02 0.  1.
         -2   -1    0    0    0  501 -0.00000000000E+00 -0.00000000000E+00 -0.31372929952E+02  0.31372930056E+02  0.25500000000E-02 0. -1.
    5000001    1    1    2    0    0  0.21650458646E+03 -0.83778971345E+01  0.15301667840E+04  0.15542135671E+04  0.16500000000E+03 0.  0.
   -5000001    1    1    2    0    0 -0.21650458646E+03  0.83778971345E+01  0.93893462396E+03  0.97763370093E+03  0.16500000000E+03 0.  0.
<mgrwt>
<rscale>  0 0.56016857E+03</rscale>
<asrwt>0</asrwt>
<pdfrwt beam="1">  1        2 0.38468830E+00 0.56016857E+03</pdfrwt>
<pdfrwt beam="2">  1       -2 0.48266053E-02 0.56016857E+03</pdfrwt>
<totfact> 0.79986350E+02</totfact>
</mgrwt>
</event>
<event>
 4    1  0.1573232E-005  0.5762047E+03  0.7818608E-02  0.9956042E-01
          2   -1    0    0  501    0  0.00000000000E+00  0.00000000000E+00  0.18001509780E+03  0.18001509782E+03  0.25500000000E-02 0.  1.
         -2   -1    0    0    0  501 -0.00000000000E+00 -0.00000000000E+00 -0.46108885150E+03  0.46108885151E+03  0.25500000000E-02 0. -1.
    5000001    1    1    2    0    0 -0.17198806016E+03  0.15301980607E+03 -0.81840898316E+02  0.29481839584E+03  0.16500000000E+03 0.  0.
   -5000001    1    1    2    0    0  0.17198806016E+03 -0.15301980607E+03 -0.19923285538E+03  0.34628555348E+03  0.16500000000E+03 0.  0.
<mgrwt>
<rscale>  0 0.57620467E+03</rscale>
<asrwt>0</asrwt>
<pdfrwt beam="1">  1        2 0.27694631E-01 0.57620467E+03</pdfrwt>
<pdfrwt beam="2">  1       -2 0.70936746E-01 0.57620467E+03</pdfrwt>
<totfact> 0.35552930E+02</totfact>
</mgrwt>
</event>
<event>
 4    1  0.1573232E-005  0.7634483E+03  0.7818608E-02  0.9614485E-01
         -2   -1    0    0    0  501 -0.00000000000E+00  0.00000000000E+00  0.44881772554E+03  0.44881772555E+03  0.25500000000E-02 0. -1.
          2   -1    0    0  501    0  0.00000000000E+00 -0.00000000000E+00 -0.32466036797E+03  0.32466036798E+03  0.25500000000E-02 0.  1.
    5000001    1    1    2    0    0  0.34910030020E+02 -0.29891838822E+03 -0.10720145146E+03  0.35956649484E+03  0.16500000000E+03 0.  0.
   -5000001    1    1    2    0    0 -0.34910030020E+02  0.29891838822E+03  0.23135880904E+03  0.41391159869E+03  0.16500000000E+03 0.  0.
<mgrwt>
<rscale>  0 0.76344830E+03</rscale>
<asrwt>0</asrwt>
<pdfrwt beam="1">  1        2 0.49947749E-01 0.76344830E+03</pdfrwt>
<pdfrwt beam="2">  1       -2 0.69048881E-01 0.76344830E+03</pdfrwt>
<totfact> 0.19420319E+02</totfact>
</mgrwt>
</event>
<event>
 4    1  0.1573232E-005  0.5052411E+03  0.7818608E-02  0.1012420E+00
         -2   -1    0    0    0  501 -0.00000000000E+00  0.00000000000E+00  0.34578968563E+02  0.34578968657E+02  0.25500000000E-02 0. -1.
          2   -1    0    0  501    0  0.00000000000E+00 -0.00000000000E+00 -0.18455476217E+04  0.18455476217E+04  0.25500000000E-02 0.  1.
    5000001    1    1    2    0    0  0.14025780854E+03  0.19758579396E+02 -0.13839139168E+04  0.14008944941E+04  0.16500000000E+03 0.  0.
   -5000001    1    1    2    0    0 -0.14025780854E+03 -0.19758579396E+02 -0.42705473635E+03  0.47923209633E+03  0.16500000000E+03 0.  0.
<mgrwt>
<rscale>  0 0.50524106E+03</rscale>
<asrwt>0</asrwt>
<pdfrwt beam="1">  1        2 0.28393033E+00 0.50524106E+03</pdfrwt>
<pdfrwt beam="2">  1       -2 0.53198428E-02 0.50524106E+03</pdfrwt>
<totfact> 0.15732236E+03</totfact>
</mgrwt>
</event>
<event>
 4    1  0.1573232E-005  0.4488380E+03  0.7818608E-02  0.1028069E+00
          2   -1    0    0  501    0  0.00000000000E+00  0.00000000000E+00  0.19426686450E+03  0.19426686451E+03  0.25500000000E-02 0. -1.
         -2   -1    0    0    0  501 -0.00000000000E+00 -0.00000000000E+00 -0.25925109540E+03  0.25925109542E+03  0.25500000000E-02 0.  1.
    5000001    1    1    2    0    0  0.73672167278E+02  0.11933244592E+03  0.27038027443E+02  0.21822895273E+03  0.16500000000E+03 0.  0.
   -5000001    1    1    2    0    0 -0.73672167278E+02 -0.11933244592E+03 -0.92022258350E+02  0.23528900721E+03  0.16500000000E+03 0.  0.
<mgrwt>
<rscale>  0 0.44883804E+03</rscale>
<asrwt>0</asrwt>
<pdfrwt beam="1">  1        2 0.29887210E-01 0.44883804E+03</pdfrwt>
<pdfrwt beam="2">  1       -2 0.39884784E-01 0.44883804E+03</pdfrwt>
<totfact> 0.10627882E+03</totfact>
</mgrwt>
</event>
<event>
 4    1  0.1573232E-005  0.6189279E+03  0.7818608E-02  0.9866897E-01
          2   -1    0    0  501    0  0.00000000000E+00  0.00000000000E+00  0.32267657147E+03  0.32267657148E+03  0.25500000000E-02 0.  1.
         -2   -1    0    0    0  501 -0.00000000000E+00 -0.00000000000E+00 -0.29679236394E+03  0.29679236395E+03  0.25500000000E-02 0. -1.
    5000001    1    1    2    0    0 -0.16955834314E+03  0.11963627463E+03 -0.14682221368E+03  0.30305879358E+03  0.16500000000E+03 0.  0.
   -5000001    1    1    2    0    0  0.16955834314E+03 -0.11963627463E+03  0.17270642121E+03  0.31641014185E+03  0.16500000000E+03 0.  0.
<mgrwt>
<rscale>  0 0.61892792E+03</rscale>
<asrwt>0</asrwt>
<pdfrwt beam="1">  1        2 0.49642549E-01 0.61892792E+03</pdfrwt>
<pdfrwt beam="2">  1       -2 0.45660364E-01 0.61892792E+03</pdfrwt>
<totfact> 0.46433437E+02</totfact>
</mgrwt>
</event>
<event>
 4    1  0.1573232E-005  0.4066108E+03  0.7818608E-02  0.1041514E+00
          2   -1    0    0  501    0  0.00000000000E+00  0.00000000000E+00  0.11536800893E+04  0.11536800893E+04  0.25500000000E-02 0.  1.
         -2   -1    0    0    0  501 -0.00000000000E+00 -0.00000000000E+00 -0.35827158720E+02  0.35827158811E+02  0.25500000000E-02 0. -1.
    5000001    1    1    2    0    0 -0.28617996384E+00 -0.60363752213E+02  0.85818155555E+03  0.87598198998E+03  0.16500000000E+03 0.  0.
   -5000001    1    1    2    0    0  0.28617996384E+00  0.60363752213E+02  0.25967137504E+03  0.31352525815E+03  0.16500000000E+03 0.  0.
<mgrwt>
<rscale>  0 0.40661077E+03</rscale>
<asrwt>0</asrwt>
<pdfrwt beam="1">  1        2 0.17748923E+00 0.40661077E+03</pdfrwt>
<pdfrwt beam="2">  1       -2 0.55118711E-02 0.40661077E+03</pdfrwt>
<totfact> 0.35954144E+03</totfact>
</mgrwt>
</event>
<event>
 4    1  0.1573232E-005  0.4647905E+03  0.7818608E-02  0.1023401E+00
          2   -1    0    0  501    0  0.00000000000E+00  0.00000000000E+00  0.47810837941E+03  0.47810837941E+03  0.25500000000E-02 0.  1.
         -2   -1    0    0    0  501 -0.00000000000E+00 -0.00000000000E+00 -0.11296089543E+03  0.11296089546E+03  0.25500000000E-02 0. -1.
    5000001    1    1    2    0    0  0.14767173821E+03  0.21417211899E+02  0.97106058060E+02  0.24273488777E+03  0.16500000000E+03 0.  0.
   -5000001    1    1    2    0    0 -0.14767173821E+03 -0.21417211899E+02  0.26804142592E+03  0.34833438710E+03  0.16500000000E+03 0.  0.
<mgrwt>
<rscale>  0 0.46479049E+03</rscale>
<asrwt>0</asrwt>
<pdfrwt beam="1">  1        2 0.73555135E-01 0.46479049E+03</pdfrwt>
<pdfrwt beam="2">  1       -2 0.17378599E-01 0.46479049E+03</pdfrwt>
<totfact> 0.17606083E+03</totfact>
</mgrwt>
</event>
<event>
 4    1  0.1573232E-005  0.1557457E+04  0.7818608E-02  0.8847119E-01
         -2   -1    0    0    0  501 -0.00000000000E+00  0.00000000000E+00  0.50659731185E+03  0.50659731185E+03  0.25500000000E-02 0. -1.
          2   -1    0    0  501    0  0.00000000000E+00 -0.00000000000E+00 -0.11970418305E+04  0.11970418305E+04  0.25500000000E-02 0.  1.
    5000001    1    1    2    0    0 -0.67187870618E+03 -0.35705314792E+03 -0.36369609213E+03  0.85930657724E+03  0.16500000000E+03 0.  0.
   -5000001    1    1    2    0    0  0.67187870618E+03  0.35705314792E+03 -0.32674842648E+03  0.84433256508E+03  0.16500000000E+03 0.  0.
<mgrwt>
<rscale>  0 0.15574571E+04</rscale>
<asrwt>0</asrwt>
<pdfrwt beam="1">  1        2 0.18416028E+00 0.15574571E+04</pdfrwt>
<pdfrwt beam="2">  1       -2 0.77938048E-01 0.15574571E+04</pdfrwt>
<totfact> 0.26820879E+01</totfact>
</mgrwt>
</event>
<event>
 4    1  0.1573232E-005  0.3595429E+03  0.7818608E-02  0.1058765E+00
         -2   -1    0    0    0  501 -0.00000000000E+00  0.00000000000E+00  0.89630676514E+02  0.89630676550E+02  0.25500000000E-02 0. -1.
          2   -1    0    0  501    0  0.00000000000E+00 -0.00000000000E+00 -0.36056593576E+03  0.36056593577E+03  0.25500000000E-02 0.  1.
    5000001    1    1    2    0    0 -0.21475441632E+02 -0.50549002515E+02 -0.19252400488E+03  0.25943571208E+03  0.16500000000E+03 0.  0.
   -5000001    1    1    2    0    0  0.21475441632E+02  0.50549002515E+02 -0.78411254369E+02  0.19076090024E+03  0.16500000000E+03 0.  0.
<mgrwt>
<rscale>  0 0.35954287E+03</rscale>
<asrwt>0</asrwt>
<pdfrwt beam="1">  1        2 0.55471682E-01 0.35954287E+03</pdfrwt>
<pdfrwt beam="2">  1       -2 0.13789335E-01 0.35954287E+03</pdfrwt>
<totfact> 0.35361012E+03</totfact>
</mgrwt>
</event>
<event>
 4    1  0.1573232E-005  0.5697592E+03  0.7818608E-02  0.9970212E-01
          2   -1    0    0  501    0  0.00000000000E+00  0.00000000000E+00  0.58253919704E+03  0.58253919705E+03  0.25500000000E-02 0.  1.
         -2   -1    0    0    0  501 -0.00000000000E+00 -0.00000000000E+00 -0.13931491577E+03  0.13931491579E+03  0.25500000000E-02 0. -1.
    5000001    1    1    2    0    0  0.17354777214E+03  0.15127081206E+03  0.26024280067E+03  0.38464659507E+03  0.16500000000E+03 0.  0.
   -5000001    1    1    2    0    0 -0.17354777214E+03 -0.15127081206E+03  0.18298148060E+03  0.33720751777E+03  0.16500000000E+03 0.  0.
<mgrwt>
<rscale>  0 0.56975924E+03</rscale>
<asrwt>0</asrwt>
<pdfrwt beam="1">  1        2 0.89621414E-01 0.56975924E+03</pdfrwt>
<pdfrwt beam="2">  1       -2 0.21433064E-01 0.56975924E+03</pdfrwt>
<totfact> 0.97420881E+02</totfact>
</mgrwt>
</event>
<event>
 4    1  0.1573232E-005  0.5610735E+03  0.7818608E-02  0.9989629E-01
         -2   -1    0    0    0  501 -0.00000000000E+00  0.00000000000E+00  0.52873633546E+03  0.52873633547E+03  0.25500000000E-02 0. -1.
          2   -1    0    0  501    0  0.00000000000E+00 -0.00000000000E+00 -0.14884711161E+03  0.14884711163E+03  0.25500000000E-02 0.  1.
    5000001    1    1    2    0    0 -0.20367897516E+03 -0.73344235698E+02  0.27195298676E+03  0.38476996874E+03  0.16500000000E+03 0.  0.
   -5000001    1    1    2    0    0  0.20367897516E+03  0.73344235698E+02  0.10793623710E+03  0.29281347836E+03  0.16500000000E+03 0.  0.
<mgrwt>
<rscale>  0 0.56107353E+03</rscale>
<asrwt>0</asrwt>
<pdfrwt beam="1">  1        2 0.22899556E-01 0.56107353E+03</pdfrwt>
<pdfrwt beam="2">  1       -2 0.81344051E-01 0.56107353E+03</pdfrwt>
<totfact> 0.32643299E+02</totfact>
</mgrwt>
</event>
<event>
 4    1  0.1573232E-005  0.5822139E+03  0.7818608E-02  0.9943009E-01
          2   -1    0    0  501    0  0.00000000000E+00  0.00000000000E+00  0.13908831955E+04  0.13908831955E+04  0.25500000000E-02 0.  1.
         -2   -1    0    0    0  501 -0.00000000000E+00 -0.00000000000E+00 -0.60927655060E+02  0.60927655114E+02  0.25500000000E-02 0. -1.
    5000001    1    1    2    0    0  0.76517160409E+02 -0.21854358782E+03  0.50921081114E+03  0.58321250484E+03  0.16500000000E+03 0.  0.
   -5000001    1    1    2    0    0 -0.76517160409E+02  0.21854358782E+03  0.82074472928E+03  0.86859834576E+03  0.16500000000E+03 0.  0.
<mgrwt>
<rscale>  0 0.58221388E+03</rscale>
<asrwt>0</asrwt>
<pdfrwt beam="1">  1        2 0.21398204E+00 0.58221388E+03</pdfrwt>
<pdfrwt beam="2">  1       -2 0.93734850E-02 0.58221388E+03</pdfrwt>
<totfact> 0.11348869E+03</totfact>
</mgrwt>
</event>
<event>
 4    1  0.1573232E-005  0.4246049E+03  0.7818608E-02  0.1035578E+00
          2   -1    0    0  501    0  0.00000000000E+00  0.00000000000E+00  0.13916640737E+04  0.13916640737E+04  0.25500000000E-02 0.  1.
         -2   -1    0    0    0  501 -0.00000000000E+00 -0.00000000000E+00 -0.32387358021E+02  0.32387358121E+02  0.25500000000E-02 0. -1.
    5000001    1    1    2    0    0 -0.10572854837E+03  0.48321618653E+02  0.90042664957E+03  0.92277118292E+03  0.16500000000E+03 0.  0.
   -5000001    1    1    2    0    0  0.10572854837E+03 -0.48321618653E+02  0.45885006607E+03  0.50128024886E+03  0.16500000000E+03 0.  0.
<mgrwt>
<rscale>  0 0.42460486E+03</rscale>
<asrwt>0</asrwt>
<pdfrwt beam="1">  1        2 0.21410220E+00 0.42460486E+03</pdfrwt>
<pdfrwt beam="2">  1       -2 0.49826696E-02 0.42460486E+03</pdfrwt>
<totfact> 0.30763193E+03</totfact>
</mgrwt>
</event>
<event>
 4    1  0.1573232E-005  0.3613237E+03  0.7818608E-02  0.1058061E+00
          2   -1    0    0  501    0  0.00000000000E+00  0.00000000000E+00  0.59133081661E+03  0.59133081662E+03  0.25500000000E-02 0. -1.
         -2   -1    0    0    0  501 -0.00000000000E+00 -0.00000000000E+00 -0.55195338149E+02  0.55195338208E+02  0.25500000000E-02 0.  1.
    5000001    1    1    2    0    0 -0.37428158821E+02 -0.48941323074E+02  0.34003303241E+03  0.38294070469E+03  0.16500000000E+03 0.  0.
   -5000001    1    1    2    0    0  0.37428158821E+02  0.48941323074E+02  0.19610244606E+03  0.26358545014E+03  0.16500000000E+03 0.  0.
<mgrwt>
<rscale>  0 0.36132370E+03</rscale>
<asrwt>0</asrwt>
<pdfrwt beam="1">  1        2 0.90973972E-01 0.36132370E+03</pdfrwt>
<pdfrwt beam="2">  1       -2 0.84915905E-02 0.36132370E+03</pdfrwt>
<totfact> 0.44377058E+03</totfact>
</mgrwt>
</event>
<event>
 4    1  0.1573232E-005  0.4805398E+03  0.7818608E-02  0.1018987E+00
          2   -1    0    0  501    0  0.00000000000E+00  0.00000000000E+00  0.47831839309E+03  0.47831839309E+03  0.25500000000E-02 0.  1.
         -2   -1    0    0    0  501 -0.00000000000E+00 -0.00000000000E+00 -0.12069290094E+03  0.12069290097E+03  0.25500000000E-02 0. -1.
    5000001    1    1    2    0    0 -0.15045938043E+03  0.87634318199E+02  0.19585140384E+03  0.30967817371E+03  0.16500000000E+03 0.  0.
   -5000001    1    1    2    0    0  0.15045938043E+03 -0.87634318199E+02  0.16177408830E+03  0.28933312035E+03  0.16500000000E+03 0.  0.
<mgrwt>
<rscale>  0 0.48053984E+03</rscale>
<asrwt>0</asrwt>
<pdfrwt beam="1">  1        2 0.73587446E-01 0.48053984E+03</pdfrwt>
<pdfrwt beam="2">  1       -2 0.18568138E-01 0.48053984E+03</pdfrwt>
<totfact> 0.15716410E+03</totfact>
</mgrwt>
</event>
<event>
 4    1  0.1573232E-005  0.5105816E+03  0.7818608E-02  0.1011053E+00
          2   -1    0    0  501    0  0.00000000000E+00  0.00000000000E+00  0.29368839604E+03  0.29368839605E+03  0.25500000000E-02 0.  1.
         -2   -1    0    0    0  501 -0.00000000000E+00 -0.00000000000E+00 -0.22191340472E+03  0.22191340473E+03  0.25500000000E-02 0. -1.
    5000001    1    1    2    0    0 -0.12497792107E+03 -0.14893617458E+03  0.48128023317E+02  0.25950485830E+03  0.16500000000E+03 0.  0.
   -5000001    1    1    2    0    0  0.12497792107E+03  0.14893617458E+03  0.23646968008E+02  0.25609694248E+03  0.16500000000E+03 0.  0.
<mgrwt>
<rscale>  0 0.51058160E+03</rscale>
<asrwt>0</asrwt>
<pdfrwt beam="1">  1        2 0.45182830E-01 0.51058160E+03</pdfrwt>
<pdfrwt beam="2">  1       -2 0.34140524E-01 0.51058160E+03</pdfrwt>
<totfact> 0.90562166E+02</totfact>
</mgrwt>
</event>
<event>
 4    1  0.1573232E-005  0.4767691E+03  0.7818608E-02  0.1020027E+00
         -2   -1    0    0    0  501 -0.00000000000E+00  0.00000000000E+00  0.31939983131E+03  0.31939983132E+03  0.25500000000E-02 0. -1.
          2   -1    0    0  501    0  0.00000000000E+00 -0.00000000000E+00 -0.17791867548E+03  0.17791867549E+03  0.25500000000E-02 0.  1.
    5000001    1    1    2    0    0 -0.73851021847E+02  0.13079496825E+03 -0.16786118279E+02  0.22375895717E+03  0.16500000000E+03 0.  0.
   -5000001    1    1    2    0    0  0.73851021847E+02 -0.13079496825E+03  0.15826727411E+03  0.27355954964E+03  0.16500000000E+03 0.  0.
<mgrwt>
<rscale>  0 0.47676911E+03</rscale>
<asrwt>0</asrwt>
<pdfrwt beam="1">  1        2 0.27372104E-01 0.47676911E+03</pdfrwt>
<pdfrwt beam="2">  1       -2 0.49138435E-01 0.47676911E+03</pdfrwt>
<totfact> 0.77767991E+02</totfact>
</mgrwt>
</event>
<event>
 4    1  0.1573232E-005  0.9547148E+03  0.7818608E-02  0.9359657E-01
          2   -1    0    0  501    0  0.00000000000E+00  0.00000000000E+00  0.38846164536E+03  0.38846164537E+03  0.25500000000E-02 0.  1.
         -2   -1    0    0    0  501 -0.00000000000E+00 -0.00000000000E+00 -0.58659604631E+03  0.58659604631E+03  0.25500000000E-02 0. -1.
    5000001    1    1    2    0    0  0.33589494687E+03 -0.23177442658E+03 -0.28766453763E+03  0.52585234273E+03  0.16500000000E+03 0.  0.
   -5000001    1    1    2    0    0 -0.33589494687E+03  0.23177442658E+03  0.89530136686E+02  0.44920534895E+03  0.16500000000E+03 0.  0.
<mgrwt>
<rscale>  0 0.95471475E+03</rscale>
<asrwt>0</asrwt>
<pdfrwt beam="1">  1        2 0.59763330E-01 0.95471475E+03</pdfrwt>
<pdfrwt beam="2">  1       -2 0.90245546E-01 0.95471475E+03</pdfrwt>
<totfact> 0.86417794E+01</totfact>
</mgrwt>
</event>
<event>
 4    1  0.1573232E-005  0.3863500E+03  0.7818608E-02  0.1048611E+00
          2   -1    0    0  501    0  0.00000000000E+00  0.00000000000E+00  0.22053334276E+04  0.22053334276E+04  0.25500000000E-02 0.  1.
         -2   -1    0    0    0  501 -0.00000000000E+00 -0.00000000000E+00 -0.16921064354E+02  0.16921064546E+02  0.25500000000E-02 0. -1.
    5000001    1    1    2    0    0  0.60073843681E+02 -0.77579891394E+02  0.12181173847E+04  0.12331514381E+04  0.16500000000E+03 0.  0.
   -5000001    1    1    2    0    0 -0.60073843681E+02  0.77579891394E+02  0.97029497855E+03  0.98910305410E+03  0.16500000000E+03 0.  0.
<mgrwt>
<rscale>  0 0.38635004E+03</rscale>
<asrwt>0</asrwt>
<pdfrwt beam="1">  1        2 0.33928227E+00 0.38635004E+03</pdfrwt>
<pdfrwt beam="2">  1       -2 0.26032391E-02 0.38635004E+03</pdfrwt>
<totfact> 0.30096929E+03</totfact>
</mgrwt>
</event>
<event>
 4    1  0.1573232E-005  0.7679507E+03  0.7818608E-02  0.9607602E-01
         -2   -1    0    0    0  501 -0.00000000000E+00  0.00000000000E+00  0.76003183016E+02  0.76003183059E+02  0.25500000000E-02 0.  1.
          2   -1    0    0  501    0  0.00000000000E+00 -0.00000000000E+00 -0.19398804190E+04  0.19398804190E+04  0.25500000000E-02 0. -1.
    5000001    1    1    2    0    0 -0.21891535523E+03  0.37580972188E+02 -0.23309315850E+03  0.36179231994E+03  0.16500000000E+03 0.  0.
   -5000001    1    1    2    0    0  0.21891535523E+03 -0.37580972188E+02 -0.16307840775E+04  0.16540912822E+04  0.16500000000E+03 0.  0.
<mgrwt>
<rscale>  0 0.76795074E+03</rscale>
<asrwt>0</asrwt>
<pdfrwt beam="1">  1        2 0.29844310E+00 0.76795074E+03</pdfrwt>
<pdfrwt beam="2">  1       -2 0.11692799E-01 0.76795074E+03</pdfrwt>
<totfact> 0.39126811E+02</totfact>
</mgrwt>
</event>
<event>
 4    1  0.1573232E-005  0.4208157E+03  0.7818608E-02  0.1036801E+00
          2   -1    0    0  501    0  0.00000000000E+00  0.00000000000E+00  0.56419676791E+03  0.56419676791E+03  0.25500000000E-02 0.  1.
         -2   -1    0    0    0  501 -0.00000000000E+00 -0.00000000000E+00 -0.78468119234E+02  0.78468119276E+02  0.25500000000E-02 0. -1.
    5000001    1    1    2    0    0 -0.66806928937E+02  0.10510394874E+03  0.30272648183E+03  0.36657649761E+03  0.16500000000E+03 0.  0.
   -5000001    1    1    2    0    0  0.66806928937E+02 -0.10510394874E+03  0.18300216684E+03  0.27608838958E+03  0.16500000000E+03 0.  0.
<mgrwt>
<rscale>  0 0.42081568E+03</rscale>
<asrwt>0</asrwt>
<pdfrwt beam="1">  1        2 0.86799500E-01 0.42081568E+03</pdfrwt>
<pdfrwt beam="2">  1       -2 0.12072019E-01 0.42081568E+03</pdfrwt>
<totfact> 0.26699503E+03</totfact>
</mgrwt>
</event>
<event>
 4    1  0.1573232E-005  0.4918379E+03  0.7818608E-02  0.1015932E+00
          2   -1    0    0  501    0  0.00000000000E+00  0.00000000000E+00  0.17481506478E+04  0.17481506478E+04  0.25500000000E-02 0.  1.
         -2   -1    0    0    0  501 -0.00000000000E+00 -0.00000000000E+00 -0.34594350932E+02  0.34594351026E+02  0.25500000000E-02 0. -1.
    5000001    1    1    2    0    0 -0.16536909111E+02 -0.18140817407E+03  0.88683050866E+03  0.92025852133E+03  0.16500000000E+03 0.  0.
   -5000001    1    1    2    0    0  0.16536909111E+02  0.18140817407E+03  0.82672578821E+03  0.86248647750E+03  0.16500000000E+03 0.  0.
<mgrwt>
<rscale>  0 0.49183793E+03</rscale>
<asrwt>0</asrwt>
<pdfrwt beam="1">  1        2 0.26894618E+00 0.49183793E+03</pdfrwt>
<pdfrwt beam="2">  1       -2 0.53222092E-02 0.49183793E+03</pdfrwt>
<totfact> 0.17747400E+03</totfact>
</mgrwt>
</event>
<event>
 4    1  0.1573232E-005  0.4177493E+03  0.7818608E-02  0.1037801E+00
         -2   -1    0    0    0  501 -0.00000000000E+00  0.00000000000E+00  0.90433138916E+02  0.90433138952E+02  0.25500000000E-02 0. -1.
          2   -1    0    0  501    0  0.00000000000E+00 -0.00000000000E+00 -0.48244063660E+03  0.48244063660E+03  0.25500000000E-02 0.  1.
    5000001    1    1    2    0    0 -0.33828557286E+02 -0.96676131678E+02 -0.90553832723E+02  0.21427935585E+03  0.16500000000E+03 0.  0.
   -5000001    1    1    2    0    0  0.33828557286E+02  0.96676131678E+02 -0.30145366496E+03  0.35859441970E+03  0.16500000000E+03 0.  0.
<mgrwt>
<rscale>  0 0.41774931E+03</rscale>
<asrwt>0</asrwt>
<pdfrwt beam="1">  1        2 0.74221635E-01 0.41774931E+03</pdfrwt>
<pdfrwt beam="2">  1       -2 0.13912791E-01 0.41774931E+03</pdfrwt>
<totfact> 0.25296419E+03</totfact>
</mgrwt>
</event>
<event>
 4    1  0.1573232E-005  0.6301987E+03  0.7818608E-02  0.9844661E-01
          2   -1    0    0  501    0  0.00000000000E+00  0.00000000000E+00  0.15207864040E+03  0.15207864042E+03  0.25500000000E-02 0.  1.
         -2   -1    0    0    0  501 -0.00000000000E+00 -0.00000000000E+00 -0.65287019317E+03  0.65287019317E+03  0.25500000000E-02 0. -1.
    5000001    1    1    2    0    0  0.56313475851E+02  0.22959257605E+03 -0.87929986647E+02  0.30139781202E+03  0.16500000000E+03 0.  0.
   -5000001    1    1    2    0    0 -0.56313475851E+02 -0.22959257605E+03 -0.41286156612E+03  0.50355102157E+03  0.16500000000E+03 0.  0.
<mgrwt>
<rscale>  0 0.63019873E+03</rscale>
<asrwt>0</asrwt>
<pdfrwt beam="1">  1        2 0.23396714E-01 0.63019873E+03</pdfrwt>
<pdfrwt beam="2">  1       -2 0.10044157E+00 0.63019873E+03</pdfrwt>
<totfact> 0.19566526E+02</totfact>
</mgrwt>
</event>
<event>
 4    1  0.1573232E-005  0.4009638E+03  0.7818608E-02  0.1043446E+00
          2   -1    0    0  501    0  0.00000000000E+00  0.00000000000E+00  0.63609900941E+03  0.63609900941E+03  0.25500000000E-02 0.  1.
         -2   -1    0    0    0  501 -0.00000000000E+00 -0.00000000000E+00 -0.63186701220E+02  0.63186701271E+02  0.25500000000E-02 0. -1.
    5000001    1    1    2    0    0  0.52807722949E+02  0.98047239518E+02  0.32795049386E+03  0.38363842770E+03  0.16500000000E+03 0.  0.
   -5000001    1    1    2    0    0 -0.52807722949E+02 -0.98047239518E+02  0.24496181432E+03  0.31564728299E+03  0.16500000000E+03 0.  0.
<mgrwt>
<rscale>  0 0.40096383E+03</rscale>
<asrwt>0</asrwt>
<pdfrwt beam="1">  1        2 0.97861383E-01 0.40096383E+03</pdfrwt>
<pdfrwt beam="2">  1       -2 0.97210313E-02 0.40096383E+03</pdfrwt>
<totfact> 0.32877473E+03</totfact>
</mgrwt>
</event>
<event>
 4    1  0.1573232E-005  0.5011830E+03  0.7818608E-02  0.1013471E+00
          2   -1    0    0  501    0  0.00000000000E+00  0.00000000000E+00  0.14224679851E+04  0.14224679851E+04  0.25500000000E-02 0.  1.
         -2   -1    0    0    0  501 -0.00000000000E+00 -0.00000000000E+00 -0.44145883244E+02  0.44145883318E+02  0.25500000000E-02 0. -1.
    5000001    1    1    2    0    0 -0.18806250629E+03  0.94033201831E+01  0.72056629696E+03  0.76282154992E+03  0.16500000000E+03 0.  0.
   -5000001    1    1    2    0    0  0.18806250629E+03 -0.94033201831E+01  0.65775580486E+03  0.70379231846E+03  0.16500000000E+03 0.  0.
<mgrwt>
<rscale>  0 0.50118302E+03</rscale>
<asrwt>0</asrwt>
<pdfrwt beam="1">  1        2 0.21884127E+00 0.50118302E+03</pdfrwt>
<pdfrwt beam="2">  1       -2 0.67916731E-02 0.50118302E+03</pdfrwt>
<totfact> 0.18246518E+03</totfact>
</mgrwt>
</event>
<event>
 4    1  0.1573232E-005  0.3950583E+03  0.7818608E-02  0.1045504E+00
         -2   -1    0    0    0  501 -0.00000000000E+00  0.00000000000E+00  0.29301382772E+02  0.29301382883E+02  0.25500000000E-02 0. -1.
          2   -1    0    0  501    0  0.00000000000E+00 -0.00000000000E+00 -0.13316013030E+04  0.13316013030E+04  0.25500000000E-02 0.  1.
    5000001    1    1    2    0    0 -0.80973022503E+02 -0.65540207443E+02 -0.54549964482E+03  0.57935050847E+03  0.16500000000E+03 0.  0.
   -5000001    1    1    2    0    0  0.80973022503E+02  0.65540207443E+02 -0.75680027536E+03  0.78155217737E+03  0.16500000000E+03 0.  0.
<mgrwt>
<rscale>  0 0.39505827E+03</rscale>
<asrwt>0</asrwt>
<pdfrwt beam="1">  1        2 0.20486169E+00 0.39505827E+03</pdfrwt>
<pdfrwt beam="2">  1       -2 0.45079061E-02 0.39505827E+03</pdfrwt>
<totfact> 0.38741502E+03</totfact>
</mgrwt>
</event>
<event>
 4    1  0.1573232E-005  0.9427638E+03  0.7818608E-02  0.9373649E-01
          2   -1    0    0  501    0  0.00000000000E+00  0.00000000000E+00  0.19109578765E+04  0.19109578766E+04  0.25500000000E-02 0.  1.
         -2   -1    0    0    0  501 -0.00000000000E+00 -0.00000000000E+00 -0.11627723965E+03  0.11627723968E+03  0.25500000000E-02 0. -1.
    5000001    1    1    2    0    0  0.17007329357E+03 -0.39548491612E+03  0.68618612819E+03  0.82668594193E+03  0.16500000000E+03 0.  0.
   -5000001    1    1    2    0    0 -0.17007329357E+03  0.39548491612E+03  0.11084945087E+04  0.12005491743E+04  0.16500000000E+03 0.  0.
<mgrwt>
<rscale>  0 0.94276382E+03</rscale>
<asrwt>0</asrwt>
<pdfrwt beam="1">  1        2 0.29399349E+00 0.94276382E+03</pdfrwt>
<pdfrwt beam="2">  1       -2 0.17888808E-01 0.94276382E+03</pdfrwt>
<totfact> 0.19541207E+02</totfact>
</mgrwt>
</event>
<event>
 4    1  0.1573232E-005  0.3582110E+03  0.7818608E-02  0.1059294E+00
         -2   -1    0    0    0  501 -0.00000000000E+00  0.00000000000E+00  0.15697659353E+02  0.15697659560E+02  0.25500000000E-02 0. -1.
          2   -1    0    0  501    0  0.00000000000E+00 -0.00000000000E+00 -0.20435386782E+04  0.20435386782E+04  0.25500000000E-02 0.  1.
    5000001    1    1    2    0    0  0.59245247204E+02 -0.16150591732E+02 -0.12030974402E+04  0.12159108897E+04  0.16500000000E+03 0.  0.
   -5000001    1    1    2    0    0 -0.59245247204E+02  0.16150591732E+02 -0.82474357858E+03  0.84332544805E+03  0.16500000000E+03 0.  0.
<mgrwt>
<rscale>  0 0.35821097E+03</rscale>
<asrwt>0</asrwt>
<pdfrwt beam="1">  1        2 0.31439036E+00 0.35821097E+03</pdfrwt>
<pdfrwt beam="2">  1       -2 0.24150261E-02 0.35821097E+03</pdfrwt>
<totfact> 0.41145153E+03</totfact>
</mgrwt>
</event>
<event>
 4    1  0.1573232E-005  0.4198884E+03  0.7818608E-02  0.1037103E+00
          2   -1    0    0  501    0  0.00000000000E+00  0.00000000000E+00  0.16922527549E+04  0.16922527549E+04  0.25500000000E-02 0.  1.
         -2   -1    0    0    0  501 -0.00000000000E+00 -0.00000000000E+00 -0.26046086091E+02  0.26046086216E+02  0.25500000000E-02 0. -1.
    5000001    1    1    2    0    0  0.11181341724E+03 -0.59205496062E+02  0.71421375371E+03  0.74386411194E+03  0.16500000000E+03 0.  0.
   -5000001    1    1    2    0    0 -0.11181341724E+03  0.59205496062E+02  0.95199291510E+03  0.97443472919E+03  0.16500000000E+03 0.  0.
<mgrwt>
<rscale>  0 0.41988837E+03</rscale>
<asrwt>0</asrwt>
<pdfrwt beam="1">  1        2 0.26034660E+00 0.41988837E+03</pdfrwt>
<pdfrwt beam="2">  1       -2 0.40070898E-02 0.41988837E+03</pdfrwt>
<totfact> 0.29484270E+03</totfact>
</mgrwt>
</event>
<event>
 4    1  0.1573232E-005  0.3750453E+03  0.7818608E-02  0.1052780E+00
          2   -1    0    0  501    0  0.00000000000E+00  0.00000000000E+00  0.12600049221E+03  0.12600049224E+03  0.25500000000E-02 0.  1.
         -2   -1    0    0    0  501 -0.00000000000E+00 -0.00000000000E+00 -0.27908416712E+03  0.27908416713E+03  0.25500000000E-02 0. -1.
    5000001    1    1    2    0    0  0.54512406526E+02  0.67872530468E+02 -0.56006967940E+02  0.19478209188E+03  0.16500000000E+03 0.  0.
   -5000001    1    1    2    0    0 -0.54512406526E+02 -0.67872530468E+02 -0.97076706972E+02  0.21030256749E+03  0.16500000000E+03 0.  0.
<mgrwt>
<rscale>  0 0.37504529E+03</rscale>
<asrwt>0</asrwt>
<pdfrwt beam="1">  1        2 0.19384691E-01 0.37504529E+03</pdfrwt>
<pdfrwt beam="2">  1       -2 0.42936026E-01 0.37504529E+03</pdfrwt>
<totfact> 0.15048674E+03</totfact>
</mgrwt>
</event>
<event>
 4    1  0.1573232E-005  0.5841904E+03  0.7818608E-02  0.9938760E-01
          2   -1    0    0  501    0  0.00000000000E+00  0.00000000000E+00  0.16750130257E+04  0.16750130257E+04  0.25500000000E-02 0.  1.
         -2   -1    0    0    0  501 -0.00000000000E+00 -0.00000000000E+00 -0.50936687218E+02  0.50936687282E+02  0.25500000000E-02 0. -1.
    5000001    1    1    2    0    0 -0.18090905632E+02  0.23525059132E+03  0.66656457412E+03  0.72608777228E+03  0.16500000000E+03 0.  0.
   -5000001    1    1    2    0    0  0.18090905632E+02 -0.23525059132E+03  0.95751176441E+03  0.99986194075E+03  0.16500000000E+03 0.  0.
<mgrwt>
<rscale>  0 0.58419043E+03</rscale>
<asrwt>0</asrwt>
<pdfrwt beam="1">  1        2 0.25769431E+00 0.58419043E+03</pdfrwt>
<pdfrwt beam="2">  1       -2 0.78364135E-02 0.58419043E+03</pdfrwt>
<totfact> 0.10544474E+03</totfact>
</mgrwt>
</event>
<event>
 4    1  0.1573232E-005  0.4288976E+03  0.7818608E-02  0.1034209E+00
          2   -1    0    0  501    0  0.00000000000E+00  0.00000000000E+00  0.82670324562E+03  0.82670324563E+03  0.25500000000E-02 0.  1.
         -2   -1    0    0    0  501 -0.00000000000E+00 -0.00000000000E+00 -0.55628522132E+02  0.55628522190E+02  0.25500000000E-02 0. -1.
    5000001    1    1    2    0    0 -0.46568433340E+02  0.10951964404E+03  0.24600903984E+03  0.31923129405E+03  0.16500000000E+03 0.  0.
   -5000001    1    1    2    0    0  0.46568433340E+02 -0.10951964404E+03  0.52506568365E+03  0.56310047377E+03  0.16500000000E+03 0.  0.
<mgrwt>
<rscale>  0 0.42889756E+03</rscale>
<asrwt>0</asrwt>
<pdfrwt beam="1">  1        2 0.12718512E+00 0.42889756E+03</pdfrwt>
<pdfrwt beam="2">  1       -2 0.85582337E-02 0.42889756E+03</pdfrwt>
<totfact> 0.29035832E+03</totfact>
</mgrwt>
</event>
<event>
 4    1  0.1573232E-005  0.4130636E+03  0.7818608E-02  0.1039348E+00
          2   -1    0    0  501    0  0.00000000000E+00  0.00000000000E+00  0.25076826885E+04  0.25076826885E+04  0.25500000000E-02 0.  1.
         -2   -1    0    0    0  501 -0.00000000000E+00 -0.00000000000E+00 -0.17009883072E+02  0.17009883263E+02  0.25500000000E-02 0. -1.
    5000001    1    1    2    0    0 -0.10513904227E+03 -0.44950089604E+02  0.15419888442E+04  0.15550013905E+04  0.16500000000E+03 0.  0.
   -5000001    1    1    2    0    0  0.10513904227E+03  0.44950089604E+02  0.94868396118E+03  0.96969118123E+03  0.16500000000E+03 0.  0.
<mgrwt>
<rscale>  0 0.41306362E+03</rscale>
<asrwt>0</asrwt>
<pdfrwt beam="1">  1        2 0.38579737E+00 0.41306362E+03</pdfrwt>
<pdfrwt beam="2">  1       -2 0.26169049E-02 0.41306362E+03</pdfrwt>
<totfact> 0.20368334E+03</totfact>
</mgrwt>
</event>
<event>
 4    1  0.1573232E-005  0.3523112E+03  0.7818608E-02  0.1061670E+00
         -2   -1    0    0    0  501 -0.00000000000E+00  0.00000000000E+00  0.15722205394E+02  0.15722205601E+02  0.25500000000E-02 0. -1.
          2   -1    0    0  501    0  0.00000000000E+00 -0.00000000000E+00 -0.19736926783E+04  0.19736926783E+04  0.25500000000E-02 0.  1.
    5000001    1    1    2    0    0 -0.11922936272E+02 -0.49492147252E+02 -0.78222419014E+03  0.80105637297E+03  0.16500000000E+03 0.  0.
   -5000001    1    1    2    0    0  0.11922936272E+02  0.49492147252E+02 -0.11757462827E+04  0.11883585109E+04  0.16500000000E+03 0.  0.
<mgrwt>
<rscale>  0 0.35231124E+03</rscale>
<asrwt>0</asrwt>
<pdfrwt beam="1">  1        2 0.30364483E+00 0.35231124E+03</pdfrwt>
<pdfrwt beam="2">  1       -2 0.24188024E-02 0.35231124E+03</pdfrwt>
<totfact> 0.44719285E+03</totfact>
</mgrwt>
</event>
<event>
 4    1  0.1573232E-005  0.4129311E+03  0.7818608E-02  0.1039392E+00
          2   -1    0    0  501    0  0.00000000000E+00  0.00000000000E+00  0.33047359773E+03  0.33047359774E+03  0.25500000000E-02 0.  1.
         -2   -1    0    0    0  501 -0.00000000000E+00 -0.00000000000E+00 -0.12899073063E+03  0.12899073066E+03  0.25500000000E-02 0. -1.
    5000001    1    1    2    0    0 -0.94051121645E+02 -0.36856558173E+02  0.20511846642E+02  0.19455013548E+03  0.16500000000E+03 0.  0.
   -5000001    1    1    2    0    0  0.94051121645E+02  0.36856558173E+02  0.18097102046E+03  0.26491419292E+03  0.16500000000E+03 0.  0.
<mgrwt>
<rscale>  0 0.41293114E+03</rscale>
<asrwt>0</asrwt>
<pdfrwt beam="1">  1        2 0.50842091E-01 0.41293114E+03</pdfrwt>
<pdfrwt beam="2">  1       -2 0.19844728E-01 0.41293114E+03</pdfrwt>
<totfact> 0.21102600E+03</totfact>
</mgrwt>
</event>
<event>
 4    1  0.1573232E-005  0.9497317E+03  0.7818608E-02  0.9365464E-01
          2   -1    0    0  501    0  0.00000000000E+00  0.00000000000E+00  0.21038381511E+04  0.21038381511E+04  0.25500000000E-02 0.  1.
         -2   -1    0    0    0  501 -0.00000000000E+00 -0.00000000000E+00 -0.10718390659E+03  0.10718390662E+03  0.25500000000E-02 0. -1.
    5000001    1    1    2    0    0 -0.64548608132E+02  0.32966722014E+03  0.31789293381E+03  0.49104777386E+03  0.16500000000E+03 0.  0.
   -5000001    1    1    2    0    0  0.64548608132E+02 -0.32966722014E+03  0.16787613107E+04  0.17199742839E+04  0.16500000000E+03 0.  0.
<mgrwt>
<rscale>  0 0.94973173E+03</rscale>
<asrwt>0</asrwt>
<pdfrwt beam="1">  1        2 0.32366741E+00 0.94973173E+03</pdfrwt>
<pdfrwt beam="2">  1       -2 0.16489832E-01 0.94973173E+03</pdfrwt>
<totfact> 0.17602574E+02</totfact>
</mgrwt>
</event>
<event>
 4    1  0.1573232E-005  0.4717864E+03  0.7818608E-02  0.1021417E+00
         -2   -1    0    0    0  501 -0.00000000000E+00  0.00000000000E+00  0.38283026689E+03  0.38283026690E+03  0.25500000000E-02 0.  1.
          2   -1    0    0  501    0  0.00000000000E+00 -0.00000000000E+00 -0.14535320151E+03  0.14535320153E+03  0.25500000000E-02 0. -1.
    5000001    1    1    2    0    0  0.15834211122E+02 -0.31903468667E+02  0.30321488295E+03  0.34703431934E+03  0.16500000000E+03 0.  0.
   -5000001    1    1    2    0    0 -0.15834211122E+02  0.31903468667E+02 -0.65737817571E+02  0.18114914908E+03  0.16500000000E+03 0.  0.
<mgrwt>
<rscale>  0 0.47178641E+03</rscale>
<asrwt>0</asrwt>
<pdfrwt beam="1">  1        2 0.22362031E-01 0.47178641E+03</pdfrwt>
<pdfrwt beam="2">  1       -2 0.58896964E-01 0.47178641E+03</pdfrwt>
<totfact> 0.67544444E+02</totfact>
</mgrwt>
</event>
<event>
 4    1  0.1573232E-005  0.3752066E+03  0.7818608E-02  0.1052720E+00
         -2   -1    0    0    0  501 -0.00000000000E+00  0.00000000000E+00  0.50193918727E+03  0.50193918727E+03  0.25500000000E-02 0. -1.
          2   -1    0    0  501    0  0.00000000000E+00 -0.00000000000E+00 -0.70118042538E+02  0.70118042584E+02  0.25500000000E-02 0.  1.
    5000001    1    1    2    0    0  0.84009773652E+02 -0.29930957766E+02  0.22210164879E+03  0.29070198950E+03  0.16500000000E+03 0.  0.
   -5000001    1    1    2    0    0 -0.84009773652E+02  0.29930957766E+02  0.20971949594E+03  0.28135524036E+03  0.16500000000E+03 0.  0.
<mgrwt>
<rscale>  0 0.37520657E+03</rscale>
<asrwt>0</asrwt>
<pdfrwt beam="1">  1        2 0.10787391E-01 0.37520657E+03</pdfrwt>
<pdfrwt beam="2">  1       -2 0.77221415E-01 0.37520657E+03</pdfrwt>
<totfact> 0.90339449E+02</totfact>
</mgrwt>
</event>
<event>
 4    1  0.1573232E-005  0.5834479E+03  0.7818608E-02  0.9940354E-01
         -2   -1    0    0    0  501 -0.00000000000E+00  0.00000000000E+00  0.21700430553E+03  0.21700430555E+03  0.25500000000E-02 0. -1.
          2   -1    0    0  501    0  0.00000000000E+00 -0.00000000000E+00 -0.39217130844E+03  0.39217130845E+03  0.25500000000E-02 0.  1.
    5000001    1    1    2    0    0 -0.37302853863E+02 -0.22880161402E+03 -0.15473260137E+03  0.32389637141E+03  0.16500000000E+03 0.  0.
   -5000001    1    1    2    0    0  0.37302853863E+02  0.22880161402E+03 -0.20434401541E+02  0.28527924259E+03  0.16500000000E+03 0.  0.
<mgrwt>
<rscale>  0 0.58344790E+03</rscale>
<asrwt>0</asrwt>
<pdfrwt beam="1">  1        2 0.60334047E-01 0.58344790E+03</pdfrwt>
<pdfrwt beam="2">  1       -2 0.33385278E-01 0.58344790E+03</pdfrwt>
<totfact> 0.68560647E+02</totfact>
</mgrwt>
</event>
<event>
 4    1  0.1573232E-005  0.3986706E+03  0.7818608E-02  0.1044241E+00
         -2   -1    0    0    0  501 -0.00000000000E+00  0.00000000000E+00  0.72632222927E+02  0.72632222971E+02  0.25500000000E-02 0. -1.
          2   -1    0    0  501    0  0.00000000000E+00 -0.00000000000E+00 -0.54706508125E+03  0.54706508126E+03  0.25500000000E-02 0.  1.
    5000001    1    1    2    0    0  0.98930860279E+02 -0.48206859208E+02 -0.20619294781E+03  0.28609744514E+03  0.16500000000E+03 0.  0.
   -5000001    1    1    2    0    0 -0.98930860279E+02  0.48206859208E+02 -0.26823991051E+03  0.33359985909E+03  0.16500000000E+03 0.  0.
<mgrwt>
<rscale>  0 0.39867056E+03</rscale>
<asrwt>0</asrwt>
<pdfrwt beam="1">  1        2 0.84163856E-01 0.39867056E+03</pdfrwt>
<pdfrwt beam="2">  1       -2 0.11174189E-01 0.39867056E+03</pdfrwt>
<totfact> 0.31359494E+03</totfact>
</mgrwt>
</event>
<event>
 4    1  0.1573232E-005  0.6167692E+03  0.7818608E-02  0.9871213E-01
          2   -1    0    0  501    0  0.00000000000E+00  0.00000000000E+00  0.23304165912E+03  0.23304165914E+03  0.25500000000E-02 0.  1.
         -2   -1    0    0    0  501 -0.00000000000E+00 -0.00000000000E+00 -0.40808604408E+03  0.40808604409E+03  0.25500000000E-02 0. -1.
    5000001    1    1    2    0    0 -0.23089320108E+03 -0.28238997726E+02  0.34444308429E+02  0.28726385377E+03  0.16500000000E+03 0.  0.
   -5000001    1    1    2    0    0  0.23089320108E+03  0.28238997726E+02 -0.20948869339E+03  0.35386384946E+03  0.16500000000E+03 0.  0.
<mgrwt>
<rscale>  0 0.61676916E+03</rscale>
<asrwt>0</asrwt>
<pdfrwt beam="1">  1        2 0.35852563E-01 0.61676916E+03</pdfrwt>
<pdfrwt beam="2">  1       -2 0.62782468E-01 0.61676916E+03</pdfrwt>
<totfact> 0.34585061E+02</totfact>
</mgrwt>
</event>
<event>
 4    1  0.1573232E-005  0.3973368E+03  0.7818608E-02  0.1044706E+00
         -2   -1    0    0    0  501 -0.00000000000E+00  0.00000000000E+00  0.12836023679E+02  0.12836023932E+02  0.25500000000E-02 0. -1.
          2   -1    0    0  501    0  0.00000000000E+00 -0.00000000000E+00 -0.30748719465E+04  0.30748719465E+04  0.25500000000E-02 0.  1.
    5000001    1    1    2    0    0 -0.31903398614E+02 -0.99179272619E+02 -0.18207187156E+04  0.18311460882E+04  0.16500000000E+03 0.  0.
   -5000001    1    1    2    0    0  0.31903398614E+02  0.99179272619E+02 -0.12413172072E+04  0.12565618822E+04  0.16500000000E+03 0.  0.
<mgrwt>
<rscale>  0 0.39733678E+03</rscale>
<asrwt>0</asrwt>
<pdfrwt beam="1">  1        2 0.47305664E+00 0.39733678E+03</pdfrwt>
<pdfrwt beam="2">  1       -2 0.19747753E-02 0.39733678E+03</pdfrwt>
<totfact> 0.14557502E+03</totfact>
</mgrwt>
</event>
<event>
 4    1  0.1573232E-005  0.8247567E+03  0.7818608E-02  0.9524858E-01
         -2   -1    0    0    0  501 -0.00000000000E+00  0.00000000000E+00  0.94860904046E+03  0.94860904046E+03  0.25500000000E-02 0. -1.
          2   -1    0    0  501    0  0.00000000000E+00 -0.00000000000E+00 -0.17926867346E+03  0.17926867347E+03  0.25500000000E-02 0.  1.
    5000001    1    1    2    0    0  0.12152637019E+03 -0.22178807689E+03  0.76872955825E+03  0.82591085683E+03  0.16500000000E+03 0.  0.
   -5000001    1    1    2    0    0 -0.12152637019E+03  0.22178807689E+03  0.61080874822E+00  0.30196685710E+03  0.16500000000E+03 0.  0.
<mgrwt>
<rscale>  0 0.82475665E+03</rscale>
<asrwt>0</asrwt>
<pdfrwt beam="1">  1        2 0.27579797E-01 0.82475665E+03</pdfrwt>
<pdfrwt beam="2">  1       -2 0.14593985E+00 0.82475665E+03</pdfrwt>
<totfact> 0.63523481E+01</totfact>
</mgrwt>
</event>
<event>
 4    1  0.1573232E-005  0.5563025E+03  0.7818608E-02  0.1000046E+00
          2   -1    0    0  501    0  0.00000000000E+00  0.00000000000E+00  0.11275053018E+03  0.11275053021E+03  0.25500000000E-02 0.  1.
         -2   -1    0    0    0  501 -0.00000000000E+00 -0.00000000000E+00 -0.68618848907E+03  0.68618848908E+03  0.25500000000E-02 0. -1.
    5000001    1    1    2    0    0  0.10982218213E+03  0.68308000480E+02 -0.24187554781E+02  0.21103775118E+03  0.16500000000E+03 0.  0.
   -5000001    1    1    2    0    0 -0.10982218213E+03 -0.68308000480E+02 -0.54925040411E+03  0.58790126810E+03  0.16500000000E+03 0.  0.
<mgrwt>
<rscale>  0 0.55630249E+03</rscale>
<asrwt>0</asrwt>
<pdfrwt beam="1">  1        2 0.17346236E-01 0.55630249E+03</pdfrwt>
<pdfrwt beam="2">  1       -2 0.10556746E+00 0.55630249E+03</pdfrwt>
<totfact> 0.24726087E+02</totfact>
</mgrwt>
</event>
<event>
 4    1  0.1573232E-005  0.1071625E+04  0.7818608E-02  0.9233298E-01
         -2   -1    0    0    0  501 -0.00000000000E+00  0.00000000000E+00  0.42633351790E+03  0.42633351790E+03  0.25500000000E-02 0. -1.
          2   -1    0    0  501    0  0.00000000000E+00 -0.00000000000E+00 -0.67340436600E+03  0.67340436601E+03  0.25500000000E-02 0.  1.
    5000001    1    1    2    0    0  0.36477751709E+03  0.22481521834E+03 -0.40694209773E+03  0.61354004781E+03  0.16500000000E+03 0.  0.
   -5000001    1    1    2    0    0 -0.36477751709E+03 -0.22481521834E+03  0.15987124962E+03  0.48619783610E+03  0.16500000000E+03 0.  0.
<mgrwt>
<rscale>  0 0.10716247E+04</rscale>
<asrwt>0</asrwt>
<pdfrwt beam="1">  1        2 0.10360067E+00 0.10716247E+04</pdfrwt>
<pdfrwt beam="2">  1       -2 0.65589772E-01 0.10716247E+04</pdfrwt>
<totfact> 0.91664551E+01</totfact>
</mgrwt>
</event>
<event>
 4    1  0.1573232E-005  0.4989670E+03  0.7818608E-02  0.1014049E+00
          2   -1    0    0  501    0  0.00000000000E+00  0.00000000000E+00  0.29937289817E+02  0.29937289926E+02  0.25500000000E-02 0.  1.
         -2   -1    0    0    0  501 -0.00000000000E+00 -0.00000000000E+00 -0.20790798673E+04  0.20790798673E+04  0.25500000000E-02 0. -1.
    5000001    1    1    2    0    0 -0.90356405263E+02  0.16229662996E+03 -0.92887999602E+03  0.96153394276E+03  0.16500000000E+03 0.  0.
   -5000001    1    1    2    0    0  0.90356405263E+02 -0.16229662996E+03 -0.11202625815E+04  0.11474832145E+04  0.16500000000E+03 0.  0.
<mgrwt>
<rscale>  0 0.49896700E+03</rscale>
<asrwt>0</asrwt>
<pdfrwt beam="1">  1        2 0.46057385E-02 0.49896700E+03</pdfrwt>
<pdfrwt beam="2">  1       -2 0.31985833E+00 0.49896700E+03</pdfrwt>
<totfact> 0.47606189E+01</totfact>
</mgrwt>
</event>
<event>
 4    1  0.1573232E-005  0.1975000E+04  0.7818608E-02  0.8618399E-01
          2   -1    0    0  501    0  0.00000000000E+00  0.00000000000E+00  0.15309508284E+04  0.15309508284E+04  0.25500000000E-02 0.  1.
         -2   -1    0    0    0  501 -0.00000000000E+00 -0.00000000000E+00 -0.63696145782E+03  0.63696145782E+03  0.25500000000E-02 0. -1.
    5000001    1    1    2    0    0  0.25917532884E+03 -0.56882497196E+03  0.12663632088E+04  0.14218419309E+04  0.16500000000E+03 0.  0.
   -5000001    1    1    2    0    0 -0.25917532884E+03  0.56882497196E+03 -0.37237383819E+03  0.74607035538E+03  0.16500000000E+03 0.  0.
<mgrwt>
<rscale>  0 0.19750004E+04</rscale>
<asrwt>0</asrwt>
<pdfrwt beam="1">  1        2 0.23553089E+00 0.19750004E+04</pdfrwt>
<pdfrwt beam="2">  1       -2 0.97994071E-01 0.19750004E+04</pdfrwt>
<totfact> 0.98370605E+00</totfact>
</mgrwt>
</event>
<event>
 4    1  0.1573232E-005  0.7343325E+03  0.7818608E-02  0.9660256E-01
         -2   -1    0    0    0  501 -0.00000000000E+00  0.00000000000E+00  0.26100521209E+03  0.26100521210E+03  0.25500000000E-02 0. -1.
          2   -1    0    0  501    0  0.00000000000E+00 -0.00000000000E+00 -0.51650710295E+03  0.51650710296E+03  0.25500000000E-02 0.  1.
    5000001    1    1    2    0    0  0.23887105063E+02  0.12698138400E+03  0.19145826453E+03  0.28385935378E+03  0.16500000000E+03 0.  0.
   -5000001    1    1    2    0    0 -0.23887105063E+02 -0.12698138400E+03 -0.44696015539E+03  0.49365296128E+03  0.16500000000E+03 0.  0.
<mgrwt>
<rscale>  0 0.73433247E+03</rscale>
<asrwt>0</asrwt>
<pdfrwt beam="1">  1        2 0.79462631E-01 0.73433247E+03</pdfrwt>
<pdfrwt beam="2">  1       -2 0.40154648E-01 0.73433247E+03</pdfrwt>
<totfact> 0.35060759E+02</totfact>
</mgrwt>
</event>
<event>
 4    1  0.1573232E-005  0.5437919E+03  0.7818608E-02  0.1002941E+00
         -2   -1    0    0    0  501 -0.00000000000E+00  0.00000000000E+00  0.53859585353E+02  0.53859585414E+02  0.25500000000E-02 0. -1.
          2   -1    0    0  501    0  0.00000000000E+00 -0.00000000000E+00 -0.13725949960E+04  0.13725949960E+04  0.25500000000E-02 0.  1.
    5000001    1    1    2    0    0  0.17480205625E+03 -0.95587794978E+02 -0.43974753065E+03  0.51019180328E+03  0.16500000000E+03 0.  0.
   -5000001    1    1    2    0    0 -0.17480205625E+03  0.95587794978E+02 -0.87898787996E+03  0.91626277811E+03  0.16500000000E+03 0.  0.
<mgrwt>
<rscale>  0 0.54379186E+03</rscale>
<asrwt>0</asrwt>
<pdfrwt beam="1">  1        2 0.21116843E+00 0.54379186E+03</pdfrwt>
<pdfrwt beam="2">  1       -2 0.82860911E-02 0.54379186E+03</pdfrwt>
<totfact> 0.14180879E+03</totfact>
</mgrwt>
</event>
<event>
 4    1  0.1573232E-005  0.9743580E+03  0.7818608E-02  0.9337124E-01
         -2   -1    0    0    0  501 -0.00000000000E+00  0.00000000000E+00  0.33214481417E+03  0.33214481418E+03  0.25500000000E-02 0. -1.
          2   -1    0    0  501    0  0.00000000000E+00 -0.00000000000E+00 -0.71457796706E+03  0.71457796706E+03  0.25500000000E-02 0.  1.
    5000001    1    1    2    0    0 -0.35577744080E+02  0.45279154380E+03 -0.12471238685E+03  0.49906325996E+03  0.16500000000E+03 0.  0.
   -5000001    1    1    2    0    0  0.35577744080E+02 -0.45279154380E+03 -0.25772076604E+03  0.54765952128E+03  0.16500000000E+03 0.  0.
<mgrwt>
<rscale>  0 0.97435798E+03</rscale>
<asrwt>0</asrwt>
<pdfrwt beam="1">  1        2 0.10993507E+00 0.97435798E+03</pdfrwt>
<pdfrwt beam="2">  1       -2 0.51099202E-01 0.97435798E+03</pdfrwt>
<totfact> 0.14443601E+02</totfact>
</mgrwt>
</event>
<event>
 4    1  0.1573232E-005  0.4621159E+03  0.7818608E-02  0.1024169E+00
          2   -1    0    0  501    0  0.00000000000E+00  0.00000000000E+00  0.76781759194E+03  0.76781759194E+03  0.25500000000E-02 0.  1.
         -2   -1    0    0    0  501 -0.00000000000E+00 -0.00000000000E+00 -0.69531849635E+02  0.69531849682E+02  0.25500000000E-02 0. -1.
    5000001    1    1    2    0    0  0.15085553431E+03  0.37203310787E+02  0.43060787429E+03  0.48661033689E+03  0.16500000000E+03 0.  0.
   -5000001    1    1    2    0    0 -0.15085553431E+03 -0.37203310787E+02  0.26767786802E+03  0.35073910474E+03  0.16500000000E+03 0.  0.
<mgrwt>
<rscale>  0 0.46211590E+03</rscale>
<asrwt>0</asrwt>
<pdfrwt beam="1">  1        2 0.11812578E+00 0.46211590E+03</pdfrwt>
<pdfrwt beam="2">  1       -2 0.10697208E-01 0.46211590E+03</pdfrwt>
<totfact> 0.22348928E+03</totfact>
</mgrwt>
</event>
<event>
 4    1  0.1573232E-005  0.4034921E+03  0.7818608E-02  0.1042577E+00
         -2   -1    0    0    0  501 -0.00000000000E+00  0.00000000000E+00  0.25614514000E+02  0.25614514127E+02  0.25500000000E-02 0. -1.
          2   -1    0    0  501    0  0.00000000000E+00 -0.00000000000E+00 -0.15890000520E+04  0.15890000520E+04  0.25500000000E-02 0.  1.
    5000001    1    1    2    0    0 -0.37786732333E+02 -0.10753957452E+03 -0.69366963342E+03  0.72207697481E+03  0.16500000000E+03 0.  0.
   -5000001    1    1    2    0    0  0.37786732333E+02  0.10753957452E+03 -0.86971590459E+03  0.89253759132E+03  0.16500000000E+03 0.  0.
<mgrwt>
<rscale>  0 0.40349208E+03</rscale>
<asrwt>0</asrwt>
<pdfrwt beam="1">  1        2 0.24446147E+00 0.40349208E+03</pdfrwt>
<pdfrwt beam="2">  1       -2 0.39406957E-02 0.40349208E+03</pdfrwt>
<totfact> 0.34376495E+03</totfact>
</mgrwt>
</event>
<event>
 4    1  0.1573232E-005  0.4798328E+03  0.7818608E-02  0.1019181E+00
          2   -1    0    0  501    0  0.00000000000E+00  0.00000000000E+00  0.26141912053E+03  0.26141912054E+03  0.25500000000E-02 0.  1.
         -2   -1    0    0    0  501 -0.00000000000E+00 -0.00000000000E+00 -0.22018240210E+03  0.22018240211E+03  0.25500000000E-02 0. -1.
    5000001    1    1    2    0    0  0.33530732087E+02 -0.16981532034E+03  0.40011508415E+02  0.24246128314E+03  0.16500000000E+03 0.  0.
   -5000001    1    1    2    0    0 -0.33530732087E+02  0.16981532034E+03  0.12252100162E+01  0.23914023952E+03  0.16500000000E+03 0.  0.
<mgrwt>
<rscale>  0 0.47983285E+03</rscale>
<asrwt>0</asrwt>
<pdfrwt beam="1">  1        2 0.40218326E-01 0.47983285E+03</pdfrwt>
<pdfrwt beam="2">  1       -2 0.33874216E-01 0.47983285E+03</pdfrwt>
<totfact> 0.10443938E+03</totfact>
</mgrwt>
</event>
<event>
 4    1  0.1573232E-005  0.5214135E+03  0.7818608E-02  0.1008336E+00
         -2   -1    0    0    0  501 -0.00000000000E+00  0.00000000000E+00  0.39625285318E+02  0.39625285400E+02  0.25500000000E-02 0. -1.
          2   -1    0    0  501    0  0.00000000000E+00 -0.00000000000E+00 -0.17152687786E+04  0.17152687786E+04  0.25500000000E-02 0.  1.
    5000001    1    1    2    0    0 -0.12568362364E+02 -0.17303724654E+03 -0.49060236365E+03  0.54590798825E+03  0.16500000000E+03 0.  0.
   -5000001    1    1    2    0    0  0.12568362364E+02  0.17303724654E+03 -0.11850411296E+04  0.12089860757E+04  0.16500000000E+03 0.  0.
<mgrwt>
<rscale>  0 0.52141352E+03</rscale>
<asrwt>0</asrwt>
<pdfrwt beam="1">  1        2 0.26388745E+00 0.52141352E+03</pdfrwt>
<pdfrwt beam="2">  1       -2 0.60961991E-02 0.52141352E+03</pdfrwt>
<totfact> 0.14946329E+03</totfact>
</mgrwt>
</event>
<event>
 4    1  0.1573232E-005  0.5002693E+03  0.7818608E-02  0.1013709E+00
          2   -1    0    0  501    0  0.00000000000E+00  0.00000000000E+00  0.29009019671E+03  0.29009019672E+03  0.25500000000E-02 0.  1.
         -2   -1    0    0    0  501 -0.00000000000E+00 -0.00000000000E+00 -0.21568234960E+03  0.21568234961E+03  0.25500000000E-02 0. -1.
    5000001    1    1    2    0    0  0.11382371310E+03  0.77734487370E+02  0.16645333420E+03  0.27190108616E+03  0.16500000000E+03 0.  0.
   -5000001    1    1    2    0    0 -0.11382371310E+03 -0.77734487370E+02 -0.92045487087E+02  0.23387146017E+03  0.16500000000E+03 0.  0.
<mgrwt>
<rscale>  0 0.50026927E+03</rscale>
<asrwt>0</asrwt>
<pdfrwt beam="1">  1        2 0.44629261E-01 0.50026927E+03</pdfrwt>
<pdfrwt beam="2">  1       -2 0.33181900E-01 0.50026927E+03</pdfrwt>
<totfact> 0.96841602E+02</totfact>
</mgrwt>
</event>
<event>
 4    1  0.1573232E-005  0.8232720E+03  0.7818608E-02  0.9526930E-01
          2   -1    0    0  501    0  0.00000000000E+00  0.00000000000E+00  0.51410364888E+03  0.51410364889E+03  0.25500000000E-02 0.  1.
         -2   -1    0    0    0  501 -0.00000000000E+00 -0.00000000000E+00 -0.32959151221E+03  0.32959151222E+03  0.25500000000E-02 0. -1.
    5000001    1    1    2    0    0 -0.11733499253E+03  0.33778461975E+03 -0.30521018182E+02  0.39499681311E+03  0.16500000000E+03 0.  0.
   -5000001    1    1    2    0    0  0.11733499253E+03 -0.33778461975E+03  0.21503315486E+03  0.44869834800E+03  0.16500000000E+03 0.  0.
<mgrwt>
<rscale>  0 0.82327201E+03</rscale>
<asrwt>0</asrwt>
<pdfrwt beam="1">  1        2 0.79092869E-01 0.82327201E+03</pdfrwt>
<pdfrwt beam="2">  1       -2 0.50706386E-01 0.82327201E+03</pdfrwt>
<totfact> 0.22060051E+02</totfact>
</mgrwt>
</event>
<event>
 4    1  0.1573232E-005  0.5936140E+03  0.7818608E-02  0.9918744E-01
          2   -1    0    0  501    0  0.00000000000E+00  0.00000000000E+00  0.10418183756E+04  0.10418183756E+04  0.25500000000E-02 0.  1.
         -2   -1    0    0    0  501 -0.00000000000E+00 -0.00000000000E+00 -0.84558308556E+02  0.84558308594E+02  0.25500000000E-02 0. -1.
    5000001    1    1    2    0    0 -0.86678506632E+01  0.21287164886E+03  0.71471263962E+03  0.76382499812E+03  0.16500000000E+03 0.  0.
   -5000001    1    1    2    0    0  0.86678506632E+01 -0.21287164886E+03  0.24254742741E+03  0.36255168606E+03  0.16500000000E+03 0.  0.
<mgrwt>
<rscale>  0 0.59361401E+03</rscale>
<asrwt>0</asrwt>
<pdfrwt beam="1">  1        2 0.16027975E+00 0.59361401E+03</pdfrwt>
<pdfrwt beam="2">  1       -2 0.13008970E-01 0.59361401E+03</pdfrwt>
<totfact> 0.10635214E+03</totfact>
</mgrwt>
</event>
<event>
 4    1  0.1573232E-005  0.6452734E+03  0.7818608E-02  0.9815689E-01
          2   -1    0    0  501    0  0.00000000000E+00  0.00000000000E+00  0.40003064990E+03  0.40003064991E+03  0.25500000000E-02 0.  1.
         -2   -1    0    0    0  501 -0.00000000000E+00 -0.00000000000E+00 -0.26021614640E+03  0.26021614642E+03  0.25500000000E-02 0. -1.
    5000001    1    1    2    0    0 -0.20592850636E+03  0.12887860231E+03  0.20662360629E+03  0.35907458632E+03  0.16500000000E+03 0.  0.
   -5000001    1    1    2    0    0  0.20592850636E+03 -0.12887860231E+03 -0.66809102793E+02  0.30117221001E+03  0.16500000000E+03 0.  0.
<mgrwt>
<rscale>  0 0.64527338E+03</rscale>
<asrwt>0</asrwt>
<pdfrwt beam="1">  1        2 0.61543177E-01 0.64527338E+03</pdfrwt>
<pdfrwt beam="2">  1       -2 0.40033253E-01 0.64527338E+03</pdfrwt>
<totfact> 0.47329581E+02</totfact>
</mgrwt>
</event>
<event>
 4    1  0.1573232E-005  0.5022574E+03  0.7818608E-02  0.1013191E+00
          2   -1    0    0  501    0  0.00000000000E+00  0.00000000000E+00  0.23739094408E+03  0.23739094410E+03  0.25500000000E-02 0.  1.
         -2   -1    0    0    0  501 -0.00000000000E+00 -0.00000000000E+00 -0.26566143215E+03  0.26566143216E+03  0.25500000000E-02 0. -1.
    5000001    1    1    2    0    0  0.32887411542E+01 -0.13937895887E+03  0.11414288085E+03  0.24431722666E+03  0.16500000000E+03 0.  0.
   -5000001    1    1    2    0    0 -0.32887411542E+01  0.13937895887E+03 -0.14241336891E+03  0.25873514960E+03  0.16500000000E+03 0.  0.
<mgrwt>
<rscale>  0 0.50225738E+03</rscale>
<asrwt>0</asrwt>
<pdfrwt beam="1">  1        2 0.36521684E-01 0.50225738E+03</pdfrwt>
<pdfrwt beam="2">  1       -2 0.40870990E-01 0.50225738E+03</pdfrwt>
<totfact> 0.81156024E+02</totfact>
</mgrwt>
</event>
<event>
 4    1  0.1573232E-005  0.5492390E+03  0.7818608E-02  0.1001670E+00
         -2   -1    0    0    0  501 -0.00000000000E+00  0.00000000000E+00  0.21929211339E+03  0.21929211341E+03  0.25500000000E-02 0. -1.
          2   -1    0    0  501    0  0.00000000000E+00 -0.00000000000E+00 -0.34390603723E+03  0.34390603724E+03  0.25500000000E-02 0.  1.
    5000001    1    1    2    0    0  0.23004093716E+02 -0.21323324731E+03 -0.14284278388E+02  0.27097351659E+03  0.16500000000E+03 0.  0.
   -5000001    1    1    2    0    0 -0.23004093716E+02  0.21323324731E+03 -0.11032964545E+03  0.29222463406E+03  0.16500000000E+03 0.  0.
<mgrwt>
<rscale>  0 0.54923904E+03</rscale>
<asrwt>0</asrwt>
<pdfrwt beam="1">  1        2 0.52908621E-01 0.54923904E+03</pdfrwt>
<pdfrwt beam="2">  1       -2 0.33737248E-01 0.54923904E+03</pdfrwt>
<totfact> 0.77806120E+02</totfact>
</mgrwt>
</event>
<event>
 4    1  0.1573232E-005  0.4269144E+03  0.7818608E-02  0.1034839E+00
          2   -1    0    0  501    0  0.00000000000E+00  0.00000000000E+00  0.20548155438E+04  0.20548155438E+04  0.25500000000E-02 0.  1.
         -2   -1    0    0    0  501 -0.00000000000E+00 -0.00000000000E+00 -0.22174237955E+02  0.22174238102E+02  0.25500000000E-02 0. -1.
    5000001    1    1    2    0    0  0.89822502046E+01 -0.13226707827E+03  0.11507695696E+04  0.11700730161E+04  0.16500000000E+03 0.  0.
   -5000001    1    1    2    0    0 -0.89822502046E+01  0.13226707827E+03  0.88187173624E+03  0.90691676574E+03  0.16500000000E+03 0.  0.
<mgrwt>
<rscale>  0 0.42691437E+03</rscale>
<asrwt>0</asrwt>
<pdfrwt beam="1">  1        2 0.31612559E+00 0.42691437E+03</pdfrwt>
<pdfrwt beam="2">  1       -2 0.34114199E-02 0.42691437E+03</pdfrwt>
<totfact> 0.24086590E+03</totfact>
</mgrwt>
</event>
<event>
 4    1  0.1573232E-005  0.4787220E+03  0.7818608E-02  0.1019487E+00
         -2   -1    0    0    0  501 -0.00000000000E+00  0.00000000000E+00  0.21198814705E+02  0.21198814858E+02  0.25500000000E-02 0.  1.
          2   -1    0    0  501    0  0.00000000000E+00 -0.00000000000E+00 -0.27026831033E+04  0.27026831033E+04  0.25500000000E-02 0. -1.
    5000001    1    1    2    0    0  0.11431136232E+03  0.22373597540E+01 -0.20825403274E+04  0.20921929425E+04  0.16500000000E+03 0.  0.
   -5000001    1    1    2    0    0 -0.11431136232E+03 -0.22373597540E+01 -0.59894396117E+03  0.63168897565E+03  0.16500000000E+03 0.  0.
<mgrwt>
<rscale>  0 0.47872196E+03</rscale>
<asrwt>0</asrwt>
<pdfrwt beam="1">  1        2 0.41579713E+00 0.47872196E+03</pdfrwt>
<pdfrwt beam="2">  1       -2 0.32613583E-02 0.47872196E+03</pdfrwt>
<totfact> 0.11274267E+03</totfact>
</mgrwt>
</event>
<event>
 4    1  0.1573232E-005  0.5763876E+03  0.7818608E-02  0.9955642E-01
          2   -1    0    0  501    0  0.00000000000E+00  0.00000000000E+00  0.79290733779E+03  0.79290733779E+03  0.25500000000E-02 0.  1.
         -2   -1    0    0    0  501 -0.00000000000E+00 -0.00000000000E+00 -0.10474827405E+03  0.10474827409E+03  0.25500000000E-02 0. -1.
    5000001    1    1    2    0    0  0.20433775872E+03  0.11789039206E+03  0.36489322477E+03  0.46478396021E+03  0.16500000000E+03 0.  0.
   -5000001    1    1    2    0    0 -0.20433775872E+03 -0.11789039206E+03  0.32326583896E+03  0.43287165167E+03  0.16500000000E+03 0.  0.
<mgrwt>
<rscale>  0 0.57638763E+03</rscale>
<asrwt>0</asrwt>
<pdfrwt beam="1">  1        2 0.12198574E+00 0.57638763E+03</pdfrwt>
<pdfrwt beam="2">  1       -2 0.16115120E-01 0.57638763E+03</pdfrwt>
<totfact> 0.10863500E+03</totfact>
</mgrwt>
</event>
<event>
 4    1  0.1573232E-005  0.3869466E+03  0.7818608E-02  0.1048396E+00
          2   -1    0    0  501    0  0.00000000000E+00  0.00000000000E+00  0.15083830235E+03  0.15083830237E+03  0.25500000000E-02 0.  1.
         -2   -1    0    0    0  501 -0.00000000000E+00 -0.00000000000E+00 -0.24815921415E+03  0.24815921416E+03  0.25500000000E-02 0. -1.
    5000001    1    1    2    0    0 -0.56006863704E+02 -0.78546640855E+01  0.37663268105E+02  0.17844322989E+03  0.16500000000E+03 0.  0.
   -5000001    1    1    2    0    0  0.56006863704E+02  0.78546640855E+01 -0.13498417990E+03  0.22055428664E+03  0.16500000000E+03 0.  0.
<mgrwt>
<rscale>  0 0.38694658E+03</rscale>
<asrwt>0</asrwt>
<pdfrwt beam="1">  1        2 0.23205893E-01 0.38694658E+03</pdfrwt>
<pdfrwt beam="2">  1       -2 0.38178341E-01 0.38694658E+03</pdfrwt>
<totfact> 0.15353731E+03</totfact>
</mgrwt>
</event>
<event>
 4    1  0.1573232E-005  0.4203052E+03  0.7818608E-02  0.1036967E+00
         -2   -1    0    0    0  501 -0.00000000000E+00  0.00000000000E+00  0.81689402831E+02  0.81689402871E+02  0.25500000000E-02 0. -1.
          2   -1    0    0  501    0  0.00000000000E+00 -0.00000000000E+00 -0.54063466528E+03  0.54063466528E+03  0.25500000000E-02 0.  1.
    5000001    1    1    2    0    0  0.72948161352E+02  0.12801304540E+02 -0.71009991998E+02  0.19430060887E+03  0.16500000000E+03 0.  0.
   -5000001    1    1    2    0    0 -0.72948161352E+02 -0.12801304540E+02 -0.38793527045E+03  0.42802345929E+03  0.16500000000E+03 0.  0.
<mgrwt>
<rscale>  0 0.42030524E+03</rscale>
<asrwt>0</asrwt>
<pdfrwt beam="1">  1        2 0.83174562E-01 0.42030524E+03</pdfrwt>
<pdfrwt beam="2">  1       -2 0.12567601E-01 0.42030524E+03</pdfrwt>
<totfact> 0.26265307E+03</totfact>
</mgrwt>
</event>
<event>
 4    1  0.1573232E-005  0.4181292E+03  0.7818608E-02  0.1037677E+00
          2   -1    0    0  501    0  0.00000000000E+00  0.00000000000E+00  0.70628646348E+03  0.70628646349E+03  0.25500000000E-02 0.  1.
         -2   -1    0    0    0  501 -0.00000000000E+00 -0.00000000000E+00 -0.61884239350E+02  0.61884239403E+02  0.25500000000E-02 0. -1.
    5000001    1    1    2    0    0  0.42336200628E+01 -0.11522132071E+03  0.42594989168E+03  0.47111801760E+03  0.16500000000E+03 0.  0.
   -5000001    1    1    2    0    0 -0.42336200628E+01  0.11522132071E+03  0.21845233245E+03  0.29705268529E+03  0.16500000000E+03 0.  0.
<mgrwt>
<rscale>  0 0.41812917E+03</rscale>
<asrwt>0</asrwt>
<pdfrwt beam="1">  1        2 0.10865946E+00 0.41812917E+03</pdfrwt>
<pdfrwt beam="2">  1       -2 0.95206517E-02 0.41812917E+03</pdfrwt>
<totfact> 0.29937313E+03</totfact>
</mgrwt>
</event>
<event>
 4    1  0.1573232E-005  0.4761411E+03  0.7818608E-02  0.1020201E+00
          2   -1    0    0  501    0  0.00000000000E+00  0.00000000000E+00  0.51993484120E+03  0.51993484121E+03  0.25500000000E-02 0.  1.
         -2   -1    0    0    0  501 -0.00000000000E+00 -0.00000000000E+00 -0.10900903592E+03  0.10900903595E+03  0.25500000000E-02 0. -1.
    5000001    1    1    2    0    0 -0.16159749906E+03  0.13627201301E+02  0.27963628003E+03  0.36293374247E+03  0.16500000000E+03 0.  0.
   -5000001    1    1    2    0    0  0.16159749906E+03 -0.13627201301E+02  0.13128952525E+03  0.26601013469E+03  0.16500000000E+03 0.  0.
<mgrwt>
<rscale>  0 0.47614114E+03</rscale>
<asrwt>0</asrwt>
<pdfrwt beam="1">  1        2 0.79989976E-01 0.47614114E+03</pdfrwt>
<pdfrwt beam="2">  1       -2 0.16770621E-01 0.47614114E+03</pdfrwt>
<totfact> 0.16997093E+03</totfact>
</mgrwt>
</event>
<event>
 4    1  0.1573232E-005  0.5282404E+03  0.7818608E-02  0.1006660E+00
          2   -1    0    0  501    0  0.00000000000E+00  0.00000000000E+00  0.20140350129E+04  0.20140350129E+04  0.25500000000E-02 0.  1.
         -2   -1    0    0    0  501 -0.00000000000E+00 -0.00000000000E+00 -0.34636677677E+02  0.34636677771E+02  0.25500000000E-02 0. -1.
    5000001    1    1    2    0    0 -0.87500889406E+02  0.10556924036E+03  0.39222517879E+03  0.44706471683E+03  0.16500000000E+03 0.  0.
   -5000001    1    1    2    0    0  0.87500889406E+02 -0.10556924036E+03  0.15871731564E+04  0.16016069738E+04  0.16500000000E+03 0.  0.
<mgrwt>
<rscale>  0 0.52824041E+03</rscale>
<asrwt>0</asrwt>
<pdfrwt beam="1">  1        2 0.30985160E+00 0.52824041E+03</pdfrwt>
<pdfrwt beam="2">  1       -2 0.53287187E-02 0.52824041E+03</pdfrwt>
<totfact> 0.12717932E+03</totfact>
</mgrwt>
</event>
<event>
 4    1  0.1573232E-005  0.3779024E+03  0.7818608E-02  0.1051712E+00
         -2   -1    0    0    0  501 -0.00000000000E+00  0.00000000000E+00  0.77166694240E+03  0.77166694241E+03  0.25500000000E-02 0. -1.
          2   -1    0    0  501    0  0.00000000000E+00 -0.00000000000E+00 -0.46266797637E+02  0.46266797707E+02  0.25500000000E-02 0.  1.
    5000001    1    1    2    0    0 -0.87788674120E+02  0.25602234190E+02  0.33946595730E+03  0.38836125176E+03  0.16500000000E+03 0.  0.
   -5000001    1    1    2    0    0  0.87788674120E+02 -0.25602234190E+02  0.38593418746E+03  0.42957248836E+03  0.16500000000E+03 0.  0.
<mgrwt>
<rscale>  0 0.37790241E+03</rscale>
<asrwt>0</asrwt>
<pdfrwt beam="1">  1        2 0.71179689E-02 0.37790241E+03</pdfrwt>
<pdfrwt beam="2">  1       -2 0.11871799E+00 0.37790241E+03</pdfrwt>
<totfact> 0.56661094E+02</totfact>
</mgrwt>
</event>
<event>
 4    1  0.1573232E-005  0.4761617E+03  0.7818608E-02  0.1020195E+00
          2   -1    0    0  501    0  0.00000000000E+00  0.00000000000E+00  0.12817532303E+04  0.12817532303E+04  0.25500000000E-02 0.  1.
         -2   -1    0    0    0  501 -0.00000000000E+00 -0.00000000000E+00 -0.44222630855E+02  0.44222630929E+02  0.25500000000E-02 0. -1.
    5000001    1    1    2    0    0 -0.12865798395E+03  0.59177770954E+02  0.34873938775E+03  0.41097329107E+03  0.16500000000E+03 0.  0.
   -5000001    1    1    2    0    0  0.12865798395E+03 -0.59177770954E+02  0.88879121173E+03  0.91500257019E+03  0.16500000000E+03 0.  0.
<mgrwt>
<rscale>  0 0.47616174E+03</rscale>
<asrwt>0</asrwt>
<pdfrwt beam="1">  1        2 0.19719278E+00 0.47616174E+03</pdfrwt>
<pdfrwt beam="2">  1       -2 0.68034827E-02 0.47616174E+03</pdfrwt>
<totfact> 0.21841673E+03</totfact>
</mgrwt>
</event>
<event>
 4    1  0.1573232E-005  0.4065747E+03  0.7818608E-02  0.1041527E+00
          2   -1    0    0  501    0  0.00000000000E+00  0.00000000000E+00  0.40438806919E+04  0.40438806919E+04  0.25500000000E-02 0.  1.
         -2   -1    0    0    0  501 -0.00000000000E+00 -0.00000000000E+00 -0.10219328424E+02  0.10219328742E+02  0.25500000000E-02 0. -1.
    5000001    1    1    2    0    0 -0.86156503363E+02 -0.76571977114E+02  0.17322476937E+04  0.17439017412E+04  0.16500000000E+03 0.  0.
   -5000001    1    1    2    0    0  0.86156503363E+02  0.76571977114E+02  0.23014136698E+04  0.23101982794E+04  0.16500000000E+03 0.  0.
<mgrwt>
<rscale>  0 0.40657469E+03</rscale>
<asrwt>0</asrwt>
<pdfrwt beam="1">  1        2 0.62213586E+00 0.40657469E+03</pdfrwt>
<pdfrwt beam="2">  1       -2 0.15722035E-02 0.40657469E+03</pdfrwt>
<totfact> 0.44075086E+02</totfact>
</mgrwt>
</event>
<event>
 4    1  0.1573232E-005  0.6410426E+03  0.7818608E-02  0.9823734E-01
          2   -1    0    0  501    0  0.00000000000E+00  0.00000000000E+00  0.23773689296E+03  0.23773689297E+03  0.25500000000E-02 0.  1.
         -2   -1    0    0    0  501 -0.00000000000E+00 -0.00000000000E+00 -0.43213284216E+03  0.43213284217E+03  0.25500000000E-02 0. -1.
    5000001    1    1    2    0    0 -0.17864356359E+03 -0.10792714213E+03  0.89577284085E+02  0.28073275663E+03  0.16500000000E+03 0.  0.
   -5000001    1    1    2    0    0  0.17864356359E+03  0.10792714213E+03 -0.28397323329E+03  0.38913697851E+03  0.16500000000E+03 0.  0.
<mgrwt>
<rscale>  0 0.64104265E+03</rscale>
<asrwt>0</asrwt>
<pdfrwt beam="1">  1        2 0.36574907E-01 0.64104265E+03</pdfrwt>
<pdfrwt beam="2">  1       -2 0.66481976E-01 0.64104265E+03</pdfrwt>
<totfact> 0.29909476E+02</totfact>
</mgrwt>
</event>
<event>
 4    1  0.1573232E-005  0.7383453E+03  0.7818608E-02  0.9653814E-01
          2   -1    0    0  501    0  0.00000000000E+00  0.00000000000E+00  0.12313790744E+04  0.12313790744E+04  0.25500000000E-02 0.  1.
         -2   -1    0    0    0  501 -0.00000000000E+00 -0.00000000000E+00 -0.11067951611E+03  0.11067951614E+03  0.25500000000E-02 0. -1.
    5000001    1    1    2    0    0 -0.29845289284E+03 -0.92720224647E+02  0.75435665429E+03  0.83303669258E+03  0.16500000000E+03 0.  0.
   -5000001    1    1    2    0    0  0.29845289284E+03  0.92720224647E+02  0.36634290399E+03  0.50902189796E+03  0.16500000000E+03 0.  0.
<mgrwt>
<rscale>  0 0.73834529E+03</rscale>
<asrwt>0</asrwt>
<pdfrwt beam="1">  1        2 0.18944294E+00 0.73834529E+03</pdfrwt>
<pdfrwt beam="2">  1       -2 0.17027617E-01 0.73834529E+03</pdfrwt>
<totfact> 0.51640933E+02</totfact>
</mgrwt>
</event>
<event>
 4    1  0.1573232E-005  0.6479550E+03  0.7818608E-02  0.9810624E-01
          2   -1    0    0  501    0  0.00000000000E+00  0.00000000000E+00  0.65970323258E+03  0.65970323258E+03  0.25500000000E-02 0.  1.
         -2   -1    0    0    0  501 -0.00000000000E+00 -0.00000000000E+00 -0.15910397468E+03  0.15910397470E+03  0.25500000000E-02 0. -1.
    5000001    1    1    2    0    0 -0.27193876063E+03  0.40401297196E+02  0.30894104458E+03  0.44525557085E+03  0.16500000000E+03 0.  0.
   -5000001    1    1    2    0    0  0.27193876063E+03 -0.40401297196E+02  0.19165821331E+03  0.37355163643E+03  0.16500000000E+03 0.  0.
<mgrwt>
<rscale>  0 0.64795496E+03</rscale>
<asrwt>0</asrwt>
<pdfrwt beam="1">  1        2 0.10149281E+00 0.64795496E+03</pdfrwt>
<pdfrwt beam="2">  1       -2 0.24477535E-01 0.64795496E+03</pdfrwt>
<totfact> 0.66108129E+02</totfact>
</mgrwt>
</event>
<event>
 4    1  0.1573232E-005  0.4177737E+03  0.7818608E-02  0.1037793E+00
         -2   -1    0    0    0  501 -0.00000000000E+00  0.00000000000E+00  0.74985279796E+02  0.74985279839E+02  0.25500000000E-02 0. -1.
          2   -1    0    0  501    0  0.00000000000E+00 -0.00000000000E+00 -0.58189704751E+03  0.58189704751E+03  0.25500000000E-02 0.  1.
    5000001    1    1    2    0    0 -0.10968411807E+02 -0.10587358960E+03 -0.14139766311E+03  0.24196657241E+03  0.16500000000E+03 0.  0.
   -5000001    1    1    2    0    0  0.10968411807E+02  0.10587358960E+03 -0.36551410461E+03  0.41491575494E+03  0.16500000000E+03 0.  0.
<mgrwt>
<rscale>  0 0.41777368E+03</rscale>
<asrwt>0</asrwt>
<pdfrwt beam="1">  1        2 0.89522620E-01 0.41777368E+03</pdfrwt>
<pdfrwt beam="2">  1       -2 0.11536197E-01 0.41777368E+03</pdfrwt>
<totfact> 0.27729057E+03</totfact>
</mgrwt>
</event>
<event>
 4    1  0.1573232E-005  0.3904507E+03  0.7818608E-02  0.1047137E+00
         -2   -1    0    0    0  501 -0.00000000000E+00  0.00000000000E+00  0.29862179600E+02  0.29862179709E+02  0.25500000000E-02 0. -1.
          2   -1    0    0  501    0  0.00000000000E+00 -0.00000000000E+00 -0.12762945721E+04  0.12762945721E+04  0.25500000000E-02 0.  1.
    5000001    1    1    2    0    0  0.25219917765E+02  0.93588111640E+02 -0.49395085210E+03  0.52972372345E+03  0.16500000000E+03 0.  0.
   -5000001    1    1    2    0    0 -0.25219917765E+02 -0.93588111640E+02 -0.75248154042E+03  0.77643302838E+03  0.16500000000E+03 0.  0.
<mgrwt>
<rscale>  0 0.39045070E+03</rscale>
<asrwt>0</asrwt>
<pdfrwt beam="1">  1        2 0.19635297E+00 0.39045070E+03</pdfrwt>
<pdfrwt beam="2">  1       -2 0.45941825E-02 0.39045070E+03</pdfrwt>
<totfact> 0.40426110E+03</totfact>
</mgrwt>
</event>
<event>
 4    1  0.1573232E-005  0.6191271E+03  0.7818608E-02  0.9866499E-01
          2   -1    0    0  501    0  0.00000000000E+00  0.00000000000E+00  0.10051118551E+04  0.10051118551E+04  0.25500000000E-02 0.  1.
         -2   -1    0    0    0  501 -0.00000000000E+00 -0.00000000000E+00 -0.95342214824E+02  0.95342214858E+02  0.25500000000E-02 0. -1.
    5000001    1    1    2    0    0  0.74059819771E+01  0.26181644828E+03  0.45732790871E+03  0.55224679016E+03  0.16500000000E+03 0.  0.
   -5000001    1    1    2    0    0 -0.74059819771E+01 -0.26181644828E+03  0.45244173157E+03  0.54820727980E+03  0.16500000000E+03 0.  0.
<mgrwt>
<rscale>  0 0.61912710E+03</rscale>
<asrwt>0</asrwt>
<pdfrwt beam="1">  1        2 0.15463260E+00 0.61912710E+03</pdfrwt>
<pdfrwt beam="2">  1       -2 0.14668033E-01 0.61912710E+03</pdfrwt>
<totfact> 0.91691907E+02</totfact>
</mgrwt>
</event>
<event>
 4    1  0.1573232E-005  0.7735947E+03  0.7818608E-02  0.9599044E-01
         -2   -1    0    0    0  501 -0.00000000000E+00  0.00000000000E+00  0.22574406275E+03  0.22574406277E+03  0.25500000000E-02 0.  1.
          2   -1    0    0  501    0  0.00000000000E+00 -0.00000000000E+00 -0.66275133260E+03  0.66275133261E+03  0.25500000000E-02 0. -1.
    5000001    1    1    2    0    0  0.32268313318E+03 -0.78439138872E+01 -0.63553383907E+02  0.36803527552E+03  0.16500000000E+03 0.  0.
   -5000001    1    1    2    0    0 -0.32268313318E+03  0.78439138872E+01 -0.37345388595E+03  0.52046011985E+03  0.16500000000E+03 0.  0.
<mgrwt>
<rscale>  0 0.77359467E+03</rscale>
<asrwt>0</asrwt>
<pdfrwt beam="1">  1        2 0.10196174E+00 0.77359467E+03</pdfrwt>
<pdfrwt beam="2">  1       -2 0.34729856E-01 0.77359467E+03</pdfrwt>
<totfact> 0.34322290E+02</totfact>
</mgrwt>
</event>
<event>
 4    1  0.1573232E-005  0.5000158E+03  0.7818608E-02  0.1013775E+00
          2   -1    0    0  501    0  0.00000000000E+00  0.00000000000E+00  0.28155934930E+04  0.28155934930E+04  0.25500000000E-02 0.  1.
         -2   -1    0    0    0  501 -0.00000000000E+00 -0.00000000000E+00 -0.22199208393E+02  0.22199208539E+02  0.25500000000E-02 0. -1.
    5000001    1    1    2    0    0  0.13107359998E+03  0.52695870367E+02  0.20992061468E+04  0.21104143172E+04  0.16500000000E+03 0.  0.
   -5000001    1    1    2    0    0 -0.13107359998E+03 -0.52695870367E+02  0.69418813771E+03  0.72737838427E+03  0.16500000000E+03 0.  0.
<mgrwt>
<rscale>  0 0.50001579E+03</rscale>
<asrwt>0</asrwt>
<pdfrwt beam="1">  1        2 0.43316814E+00 0.50001579E+03</pdfrwt>
<pdfrwt beam="2">  1       -2 0.34152635E-02 0.50001579E+03</pdfrwt>
<totfact> 0.90215962E+02</totfact>
</mgrwt>
</event>
<event>
 4    1  0.1573232E-005  0.8292450E+03  0.7818608E-02  0.9518625E-01
          2   -1    0    0  501    0  0.00000000000E+00  0.00000000000E+00  0.12782585572E+04  0.12782585572E+04  0.25500000000E-02 0.  1.
         -2   -1    0    0    0  501 -0.00000000000E+00 -0.00000000000E+00 -0.13448908049E+03  0.13448908051E+03  0.25500000000E-02 0. -1.
    5000001    1    1    2    0    0  0.32166465388E+03 -0.15552274191E+03  0.79421890317E+03  0.88637697339E+03  0.16500000000E+03 0.  0.
   -5000001    1    1    2    0    0 -0.32166465388E+03  0.15552274191E+03  0.34955057354E+03  0.52637066433E+03  0.16500000000E+03 0.  0.
<mgrwt>
<rscale>  0 0.82924500E+03</rscale>
<asrwt>0</asrwt>
<pdfrwt beam="1">  1        2 0.19665516E+00 0.82924500E+03</pdfrwt>
<pdfrwt beam="2">  1       -2 0.20690628E-01 0.82924500E+03</pdfrwt>
<totfact> 0.34407961E+02</totfact>
</mgrwt>
</event>
<event>
 4    1  0.1573232E-005  0.4760961E+03  0.7818608E-02  0.1020214E+00
          2   -1    0    0  501    0  0.00000000000E+00  0.00000000000E+00  0.47836396519E+03  0.47836396519E+03  0.25500000000E-02 0.  1.
         -2   -1    0    0    0  501 -0.00000000000E+00 -0.00000000000E+00 -0.11845973023E+03  0.11845973026E+03  0.25500000000E-02 0. -1.
    5000001    1    1    2    0    0 -0.14767298312E+03 -0.74574424036E+02  0.12287352172E+03  0.26399158510E+03  0.16500000000E+03 0.  0.
   -5000001    1    1    2    0    0  0.14767298312E+03  0.74574424036E+02  0.23703071323E+03  0.33283211035E+03  0.16500000000E+03 0.  0.
<mgrwt>
<rscale>  0 0.47609607E+03</rscale>
<asrwt>0</asrwt>
<pdfrwt beam="1">  1        2 0.73594455E-01 0.47609607E+03</pdfrwt>
<pdfrwt beam="2">  1       -2 0.18224574E-01 0.47609607E+03</pdfrwt>
<totfact> 0.16225609E+03</totfact>
</mgrwt>
</event>
<event>
 4    1  0.1573232E-005  0.3929469E+03  0.7818608E-02  0.1046250E+00
         -2   -1    0    0    0  501 -0.00000000000E+00  0.00000000000E+00  0.50134009079E+02  0.50134009144E+02  0.25500000000E-02 0.  1.
          2   -1    0    0  501    0  0.00000000000E+00 -0.00000000000E+00 -0.76997269070E+03  0.76997269070E+03  0.25500000000E-02 0. -1.
    5000001    1    1    2    0    0  0.61619258840E+02  0.76094029015E+02 -0.44820953639E+03  0.48754899530E+03  0.16500000000E+03 0.  0.
   -5000001    1    1    2    0    0 -0.61619258840E+02 -0.76094029015E+02 -0.27162914523E+03  0.33255770454E+03  0.16500000000E+03 0.  0.
<mgrwt>
<rscale>  0 0.39294691E+03</rscale>
<asrwt>0</asrwt>
<pdfrwt beam="1">  1        2 0.11845733E+00 0.39294691E+03</pdfrwt>
<pdfrwt beam="2">  1       -2 0.77129250E-02 0.39294691E+03</pdfrwt>
<totfact> 0.37494792E+03</totfact>
</mgrwt>
</event>
<event>
 4    1  0.1573232E-005  0.5063344E+03  0.7818608E-02  0.1012139E+00
         -2   -1    0    0    0  501 -0.00000000000E+00  0.00000000000E+00  0.47496377598E+03  0.47496377598E+03  0.25500000000E-02 0. -1.
          2   -1    0    0  501    0  0.00000000000E+00 -0.00000000000E+00 -0.13494426098E+03  0.13494426100E+03  0.25500000000E-02 0.  1.
    5000001    1    1    2    0    0  0.28163055484E+02 -0.10060903849E+03 -0.24044508856E+02  0.19677010628E+03  0.16500000000E+03 0.  0.
   -5000001    1    1    2    0    0 -0.28163055484E+02  0.10060903849E+03  0.36406402385E+03  0.41313793070E+03  0.16500000000E+03 0.  0.
<mgrwt>
<rscale>  0 0.50633442E+03</rscale>
<asrwt>0</asrwt>
<pdfrwt beam="1">  1        2 0.20760656E-01 0.50633442E+03</pdfrwt>
<pdfrwt beam="2">  1       -2 0.73071349E-01 0.50633442E+03</pdfrwt>
<totfact> 0.46421856E+02</totfact>
</mgrwt>
</event>
<event>
 4    1  0.1573232E-005  0.7504179E+03  0.7818608E-02  0.9634695E-01
         -2   -1    0    0    0  501 -0.00000000000E+00  0.00000000000E+00  0.30753839667E+03  0.30753839668E+03  0.25500000000E-02 0. -1.
          2   -1    0    0  501    0  0.00000000000E+00 -0.00000000000E+00 -0.45776965420E+03  0.45776965421E+03  0.25500000000E-02 0.  1.
    5000001    1    1    2    0    0 -0.13471191440E+03  0.29197392955E+03 -0.17791590669E+03  0.40283389290E+03  0.16500000000E+03 0.  0.
   -5000001    1    1    2    0    0  0.13471191440E+03 -0.29197392955E+03  0.27684649162E+02  0.36247415799E+03  0.16500000000E+03 0.  0.
<mgrwt>
<rscale>  0 0.75041787E+03</rscale>
<asrwt>0</asrwt>
<pdfrwt beam="1">  1        2 0.70426101E-01 0.75041787E+03</pdfrwt>
<pdfrwt beam="2">  1       -2 0.47313599E-01 0.75041787E+03</pdfrwt>
<totfact> 0.29107184E+02</totfact>
</mgrwt>
</event>
<event>
 4    1  0.1573232E-005  0.7408276E+03  0.7818608E-02  0.9649851E-01
         -2   -1    0    0    0  501 -0.00000000000E+00  0.00000000000E+00  0.44657438616E+02  0.44657438689E+02  0.25500000000E-02 0. -1.
          2   -1    0    0  501    0  0.00000000000E+00 -0.00000000000E+00 -0.30724191543E+04  0.30724191543E+04  0.25500000000E-02 0.  1.
    5000001    1    1    2    0    0 -0.24835498137E+03  0.34897816932E+02 -0.60089540064E+03  0.67171298700E+03  0.16500000000E+03 0.  0.
   -5000001    1    1    2    0    0  0.24835498137E+03 -0.34897816932E+02 -0.24268663151E+04  0.24453636060E+04  0.16500000000E+03 0.  0.
<mgrwt>
<rscale>  0 0.74082756E+03</rscale>
<asrwt>0</asrwt>
<pdfrwt beam="1">  1        2 0.47267970E+00 0.74082756E+03</pdfrwt>
<pdfrwt beam="2">  1       -2 0.68703776E-02 0.74082756E+03</pdfrwt>
<totfact> 0.20812508E+02</totfact>
</mgrwt>
</event>
<event>
 4    1  0.1573232E-005  0.7539457E+03  0.7818608E-02  0.9629180E-01
         -2   -1    0    0    0  501 -0.00000000000E+00  0.00000000000E+00  0.14690246618E+03  0.14690246621E+03  0.25500000000E-02 0. -1.
          2   -1    0    0  501    0  0.00000000000E+00 -0.00000000000E+00 -0.96736661728E+03  0.96736661728E+03  0.25500000000E-02 0.  1.
    5000001    1    1    2    0    0 -0.16863417977E+03 -0.23842598110E+03 -0.66449866397E+03  0.74435738020E+03  0.16500000000E+03 0.  0.
   -5000001    1    1    2    0    0  0.16863417977E+03  0.23842598110E+03 -0.15596548712E+03  0.36991170328E+03  0.16500000000E+03 0.  0.
<mgrwt>
<rscale>  0 0.75394573E+03</rscale>
<asrwt>0</asrwt>
<pdfrwt beam="1">  1        2 0.14882563E+00 0.75394573E+03</pdfrwt>
<pdfrwt beam="2">  1       -2 0.22600380E-01 0.75394573E+03</pdfrwt>
<totfact> 0.45712707E+02</totfact>
</mgrwt>
</event>
<event>
 4    1  0.1573232E-005  0.4770709E+03  0.7818608E-02  0.1019943E+00
          2   -1    0    0  501    0  0.00000000000E+00  0.00000000000E+00  0.57461282666E+03  0.57461282667E+03  0.25500000000E-02 0.  1.
         -2   -1    0    0    0  501 -0.00000000000E+00 -0.00000000000E+00 -0.99021721470E+02  0.99021721502E+02  0.25500000000E-02 0. -1.
    5000001    1    1    2    0    0  0.79033102168E+02  0.15216017277E+03  0.26121988127E+03  0.35335502796E+03  0.16500000000E+03 0.  0.
   -5000001    1    1    2    0    0 -0.79033102168E+02 -0.15216017277E+03  0.21437122392E+03  0.32027952021E+03  0.16500000000E+03 0.  0.
<mgrwt>
<rscale>  0 0.47707086E+03</rscale>
<asrwt>0</asrwt>
<pdfrwt beam="1">  1        2 0.88401972E-01 0.47707086E+03</pdfrwt>
<pdfrwt beam="2">  1       -2 0.15234111E-01 0.47707086E+03</pdfrwt>
<totfact> 0.17793874E+03</totfact>
</mgrwt>
</event>
<event>
 4    1  0.1573232E-005  0.5601223E+03  0.7818608E-02  0.9991778E-01
         -2   -1    0    0    0  501 -0.00000000000E+00  0.00000000000E+00  0.23937817266E+02  0.23937817402E+02  0.25500000000E-02 0. -1.
          2   -1    0    0  501    0  0.00000000000E+00 -0.00000000000E+00 -0.32765835909E+04  0.32765835909E+04  0.25500000000E-02 0.  1.
    5000001    1    1    2    0    0  0.15285374065E+03 -0.10755155526E+03 -0.87453452773E+03  0.90937739320E+03  0.16500000000E+03 0.  0.
   -5000001    1    1    2    0    0 -0.15285374065E+03  0.10755155526E+03 -0.23781112459E+04  0.23911440151E+04  0.16500000000E+03 0.  0.
<mgrwt>
<rscale>  0 0.56012234E+03</rscale>
<asrwt>0</asrwt>
<pdfrwt beam="1">  1        2 0.50408943E+00 0.56012234E+03</pdfrwt>
<pdfrwt beam="2">  1       -2 0.36827437E-02 0.56012234E+03</pdfrwt>
<totfact> 0.41712051E+02</totfact>
</mgrwt>
</event>
<event>
 4    1  0.1573232E-005  0.6865786E+03  0.7818608E-02  0.9740464E-01
          2   -1    0    0  501    0  0.00000000000E+00  0.00000000000E+00  0.82352710752E+03  0.82352710753E+03  0.25500000000E-02 0.  1.
         -2   -1    0    0    0  501 -0.00000000000E+00 -0.00000000000E+00 -0.14310099051E+03  0.14310099053E+03  0.25500000000E-02 0. -1.
    5000001    1    1    2    0    0  0.22161969378E+03  0.17198874155E+03  0.18645527609E+03  0.37508130568E+03  0.16500000000E+03 0.  0.
   -5000001    1    1    2    0    0 -0.22161969378E+03 -0.17198874155E+03  0.49397084093E+03  0.59154679238E+03  0.16500000000E+03 0.  0.
<mgrwt>
<rscale>  0 0.68657860E+03</rscale>
<asrwt>0</asrwt>
<pdfrwt beam="1">  1        2 0.12669648E+00 0.68657860E+03</pdfrwt>
<pdfrwt beam="2">  1       -2 0.22015537E-01 0.68657860E+03</pdfrwt>
<totfact> 0.60027398E+02</totfact>
</mgrwt>
</event>
<event>
 4    1  0.1573232E-005  0.3656885E+03  0.7818608E-02  0.1056354E+00
          2   -1    0    0  501    0  0.00000000000E+00  0.00000000000E+00  0.68024676002E+02  0.68024676050E+02  0.25500000000E-02 0.  1.
         -2   -1    0    0    0  501 -0.00000000000E+00 -0.00000000000E+00 -0.49146910533E+03  0.49146910534E+03  0.25500000000E-02 0. -1.
    5000001    1    1    2    0    0 -0.45216292322E+02 -0.64099931221E+02 -0.22293519810E+03  0.28823326808E+03  0.16500000000E+03 0.  0.
   -5000001    1    1    2    0    0  0.45216292322E+02  0.64099931221E+02 -0.20050923122E+03  0.27126051331E+03  0.16500000000E+03 0.  0.
<mgrwt>
<rscale>  0 0.36568854E+03</rscale>
<asrwt>0</asrwt>
<pdfrwt beam="1">  1        2 0.10465335E-01 0.36568854E+03</pdfrwt>
<pdfrwt beam="2">  1       -2 0.75610629E-01 0.36568854E+03</pdfrwt>
<totfact> 0.98238830E+02</totfact>
</mgrwt>
</event>
<event>
 4    1  0.1573232E-005  0.4261326E+03  0.7818608E-02  0.1035089E+00
          2   -1    0    0  501    0  0.00000000000E+00  0.00000000000E+00  0.19674280142E+04  0.19674280142E+04  0.25500000000E-02 0.  1.
         -2   -1    0    0    0  501 -0.00000000000E+00 -0.00000000000E+00 -0.23074413037E+02  0.23074413177E+02  0.25500000000E-02 0. -1.
    5000001    1    1    2    0    0  0.16526814107E+02  0.16757881453E+02  0.35216526626E+03  0.38961434385E+03  0.16500000000E+03 0.  0.
   -5000001    1    1    2    0    0 -0.16526814107E+02 -0.16757881453E+02  0.15921883349E+04  0.16008880835E+04  0.16500000000E+03 0.  0.
<mgrwt>
<rscale>  0 0.42613259E+03</rscale>
<asrwt>0</asrwt>
<pdfrwt beam="1">  1        2 0.30268139E+00 0.42613259E+03</pdfrwt>
<pdfrwt beam="2">  1       -2 0.35499079E-02 0.42613259E+03</pdfrwt>
<totfact> 0.25257238E+03</totfact>
</mgrwt>
</event>
<event>
 4    1  0.1573232E-005  0.5140859E+03  0.7818608E-02  0.1010166E+00
          2   -1    0    0  501    0  0.00000000000E+00  0.00000000000E+00  0.45613901224E+03  0.45613901225E+03  0.25500000000E-02 0.  1.
         -2   -1    0    0    0  501 -0.00000000000E+00 -0.00000000000E+00 -0.14484857968E+03  0.14484857970E+03  0.25500000000E-02 0. -1.
    5000001    1    1    2    0    0  0.87456964754E+02 -0.83958883384E+02  0.33731086815E+03  0.39459021345E+03  0.16500000000E+03 0.  0.
   -5000001    1    1    2    0    0 -0.87456964754E+02  0.83958883384E+02 -0.26020435583E+02  0.20639737850E+03  0.16500000000E+03 0.  0.
<mgrwt>
<rscale>  0 0.51408594E+03</rscale>
<asrwt>0</asrwt>
<pdfrwt beam="1">  1        2 0.70175232E-01 0.51408594E+03</pdfrwt>
<pdfrwt beam="2">  1       -2 0.22284397E-01 0.51408594E+03</pdfrwt>
<totfact> 0.12075766E+03</totfact>
</mgrwt>
</event>
<event>
 4    1  0.1573232E-005  0.5337909E+03  0.7818608E-02  0.1005317E+00
         -2   -1    0    0    0  501 -0.00000000000E+00  0.00000000000E+00  0.68808183900E+02  0.68808183947E+02  0.25500000000E-02 0. -1.
          2   -1    0    0  501    0  0.00000000000E+00 -0.00000000000E+00 -0.10352429219E+04  0.10352429219E+04  0.25500000000E-02 0.  1.
    5000001    1    1    2    0    0  0.11520566064E+03 -0.16916223592E+03 -0.38798517586E+03  0.46866374192E+03  0.16500000000E+03 0.  0.
   -5000001    1    1    2    0    0 -0.11520566064E+03  0.16916223592E+03 -0.57844956215E+03  0.63538736394E+03  0.16500000000E+03 0.  0.
<mgrwt>
<rscale>  0 0.53379092E+03</rscale>
<asrwt>0</asrwt>
<pdfrwt beam="1">  1        2 0.15926813E+00 0.53379092E+03</pdfrwt>
<pdfrwt beam="2">  1       -2 0.10585875E-01 0.53379092E+03</pdfrwt>
<totfact> 0.15080007E+03</totfact>
</mgrwt>
</event>
<event>
 4    1  0.1573232E-005  0.5345997E+03  0.7818608E-02  0.1005123E+00
          2   -1    0    0  501    0  0.00000000000E+00  0.00000000000E+00  0.14918608869E+04  0.14918608869E+04  0.25500000000E-02 0.  1.
         -2   -1    0    0    0  501 -0.00000000000E+00 -0.00000000000E+00 -0.47892681415E+02  0.47892681483E+02  0.25500000000E-02 0. -1.
    5000001    1    1    2    0    0  0.61041095342E+02 -0.18966767614E+03  0.52825190489E+03  0.58819632582E+03  0.16500000000E+03 0.  0.
   -5000001    1    1    2    0    0 -0.61041095342E+02  0.18966767614E+03  0.91571630057E+03  0.95155724253E+03  0.16500000000E+03 0.  0.
<mgrwt>
<rscale>  0 0.53459973E+03</rscale>
<asrwt>0</asrwt>
<pdfrwt beam="1">  1        2 0.22951704E+00 0.53459973E+03</pdfrwt>
<pdfrwt beam="2">  1       -2 0.73681054E-02 0.53459973E+03</pdfrwt>
<totfact> 0.14674059E+03</totfact>
</mgrwt>
</event>
<event>
 4    1  0.1573232E-005  0.7019688E+03  0.7818608E-02  0.9713871E-01
         -2   -1    0    0    0  501 -0.00000000000E+00  0.00000000000E+00  0.10554368774E+03  0.10554368777E+03  0.25500000000E-02 0. -1.
          2   -1    0    0  501    0  0.00000000000E+00 -0.00000000000E+00 -0.11671946971E+04  0.11671946971E+04  0.25500000000E-02 0.  1.
    5000001    1    1    2    0    0 -0.10174639629E+02  0.30589021877E+03 -0.44401077676E+03  0.56395294051E+03  0.16500000000E+03 0.  0.
   -5000001    1    1    2    0    0  0.10174639629E+02 -0.30589021877E+03 -0.61764023260E+03  0.70878544437E+03  0.16500000000E+03 0.  0.
<mgrwt>
<rscale>  0 0.70196875E+03</rscale>
<asrwt>0</asrwt>
<pdfrwt beam="1">  1        2 0.17956841E+00 0.70196875E+03</pdfrwt>
<pdfrwt beam="2">  1       -2 0.16237491E-01 0.70196875E+03</pdfrwt>
<totfact> 0.61224168E+02</totfact>
</mgrwt>
</event>
<event>
 4    1  0.1573232E-005  0.4017076E+03  0.7818608E-02  0.1043190E+00
          2   -1    0    0  501    0  0.00000000000E+00  0.00000000000E+00  0.10541492584E+03  0.10541492587E+03  0.25500000000E-02 0.  1.
         -2   -1    0    0    0  501 -0.00000000000E+00 -0.00000000000E+00 -0.38269949781E+03  0.38269949782E+03  0.25500000000E-02 0. -1.
    5000001    1    1    2    0    0  0.45563685565E+02 -0.10248998881E+03 -0.16679987916E+03  0.26005277721E+03  0.16500000000E+03 0.  0.
   -5000001    1    1    2    0    0 -0.45563685565E+02  0.10248998881E+03 -0.11048469281E+03  0.22806164648E+03  0.16500000000E+03 0.  0.
<mgrwt>
<rscale>  0 0.40170755E+03</rscale>
<asrwt>0</asrwt>
<pdfrwt beam="1">  1        2 0.16217681E-01 0.40170755E+03</pdfrwt>
<pdfrwt beam="2">  1       -2 0.58876845E-01 0.40170755E+03</pdfrwt>
<totfact> 0.98350126E+02</totfact>
</mgrwt>
</event>
<event>
 4    1  0.1573232E-005  0.4296120E+03  0.7818608E-02  0.1033983E+00
         -2   -1    0    0    0  501 -0.00000000000E+00  0.00000000000E+00  0.43702183689E+02  0.43702183764E+02  0.25500000000E-02 0.  1.
          2   -1    0    0  501    0  0.00000000000E+00 -0.00000000000E+00 -0.10558192535E+04  0.10558192535E+04  0.25500000000E-02 0. -1.
    5000001    1    1    2    0    0 -0.64510730428E+02  0.10202737175E+03 -0.33734822170E+03  0.39446171121E+03  0.16500000000E+03 0.  0.
   -5000001    1    1    2    0    0  0.64510730428E+02 -0.10202737175E+03 -0.67476884807E+03  0.70505972602E+03  0.16500000000E+03 0.  0.
<mgrwt>
<rscale>  0 0.42961195E+03</rscale>
<asrwt>0</asrwt>
<pdfrwt beam="1">  1        2 0.16243371E+00 0.42961195E+03</pdfrwt>
<pdfrwt beam="2">  1       -2 0.67234136E-02 0.42961195E+03</pdfrwt>
<totfact> 0.30212017E+03</totfact>
</mgrwt>
</event>
<event>
 4    1  0.1573232E-005  0.4177244E+03  0.7818608E-02  0.1037809E+00
         -2   -1    0    0    0  501 -0.00000000000E+00  0.00000000000E+00  0.78910768480E+02  0.78910768521E+02  0.25500000000E-02 0. -1.
          2   -1    0    0  501    0  0.00000000000E+00 -0.00000000000E+00 -0.55281968012E+03  0.55281968013E+03  0.25500000000E-02 0.  1.
    5000001    1    1    2    0    0  0.56289837751E+01 -0.12793235605E+03 -0.23730137085E+03  0.31612547159E+03  0.16500000000E+03 0.  0.
   -5000001    1    1    2    0    0 -0.56289837751E+01  0.12793235605E+03 -0.23660754080E+03  0.31560497706E+03  0.16500000000E+03 0.  0.
<mgrwt>
<rscale>  0 0.41772443E+03</rscale>
<asrwt>0</asrwt>
<pdfrwt beam="1">  1        2 0.85049179E-01 0.41772443E+03</pdfrwt>
<pdfrwt beam="2">  1       -2 0.12140119E-01 0.41772443E+03</pdfrwt>
<totfact> 0.27087131E+03</totfact>
</mgrwt>
</event>
<event>
 4    1  0.1573232E-005  0.3985343E+03  0.7818608E-02  0.1044288E+00
         -2   -1    0    0    0  501 -0.00000000000E+00  0.00000000000E+00  0.10943355832E+03  0.10943355835E+03  0.25500000000E-02 0. -1.
          2   -1    0    0  501    0  0.00000000000E+00 -0.00000000000E+00 -0.36284473008E+03  0.36284473009E+03  0.25500000000E-02 0.  1.
    5000001    1    1    2    0    0 -0.10711679600E+03  0.22233037209E+02 -0.15357419214E+03  0.25055607839E+03  0.16500000000E+03 0.  0.
   -5000001    1    1    2    0    0  0.10711679600E+03 -0.22233037209E+02 -0.99836979619E+02  0.22172221005E+03  0.16500000000E+03 0.  0.
<mgrwt>
<rscale>  0 0.39853426E+03</rscale>
<asrwt>0</asrwt>
<pdfrwt beam="1">  1        2 0.55822266E-01 0.39853426E+03</pdfrwt>
<pdfrwt beam="2">  1       -2 0.16835932E-01 0.39853426E+03</pdfrwt>
<totfact> 0.25212538E+03</totfact>
</mgrwt>
</event>
<event>
 4    1  0.1573232E-005  0.4376351E+03  0.7818608E-02  0.1031475E+00
         -2   -1    0    0    0  501 -0.00000000000E+00  0.00000000000E+00  0.27448979571E+03  0.27448979573E+03  0.25500000000E-02 0. -1.
          2   -1    0    0  501    0  0.00000000000E+00 -0.00000000000E+00 -0.17443679034E+03  0.17443679036E+03  0.25500000000E-02 0.  1.
    5000001    1    1    2    0    0 -0.11883583395E+03  0.65109603512E+02  0.99167657287E+02  0.23541546286E+03  0.16500000000E+03 0.  0.
   -5000001    1    1    2    0    0  0.11883583395E+03 -0.65109603512E+02  0.88534808476E+00  0.21351112323E+03  0.16500000000E+03 0.  0.
<mgrwt>
<rscale>  0 0.43763509E+03</rscale>
<asrwt>0</asrwt>
<pdfrwt beam="1">  1        2 0.26836429E-01 0.43763509E+03</pdfrwt>
<pdfrwt beam="2">  1       -2 0.42229199E-01 0.43763509E+03</pdfrwt>
<totfact> 0.10732114E+03</totfact>
</mgrwt>
</event>
<event>
 4    1  0.1573232E-005  0.5833497E+03  0.7818608E-02  0.9940565E-01
          2   -1    0    0  501    0  0.00000000000E+00  0.00000000000E+00  0.48905984288E+03  0.48905984288E+03  0.25500000000E-02 0.  1.
         -2   -1    0    0    0  501 -0.00000000000E+00 -0.00000000000E+00 -0.17395461997E+03  0.17395461999E+03  0.25500000000E-02 0. -1.
    5000001    1    1    2    0    0 -0.22681724077E+03  0.79214560310E+02  0.14468321738E+03  0.32539090440E+03  0.16500000000E+03 0.  0.
   -5000001    1    1    2    0    0  0.22681724077E+03 -0.79214560310E+02  0.17042200552E+03  0.33762355848E+03  0.16500000000E+03 0.  0.
<mgrwt>
<rscale>  0 0.58334970E+03</rscale>
<asrwt>0</asrwt>
<pdfrwt beam="1">  1        2 0.75239975E-01 0.58334970E+03</pdfrwt>
<pdfrwt beam="2">  1       -2 0.26762250E-01 0.58334970E+03</pdfrwt>
<totfact> 0.80365772E+02</totfact>
</mgrwt>
</event>
<event>
 4    1  0.1573232E-005  0.6201642E+03  0.7818608E-02  0.9864433E-01
          2   -1    0    0  501    0  0.00000000000E+00  0.00000000000E+00  0.84621094122E+02  0.84621094160E+02  0.25500000000E-02 0.  1.
         -2   -1    0    0    0  501 -0.00000000000E+00 -0.00000000000E+00 -0.11362522704E+04  0.11362522704E+04  0.25500000000E-02 0. -1.
    5000001    1    1    2    0    0  0.28607073380E+02  0.22748484499E+03 -0.27402959861E+03  0.39355424056E+03  0.16500000000E+03 0.  0.
   -5000001    1    1    2    0    0 -0.28607073380E+02 -0.22748484499E+03 -0.77760157764E+03  0.82731912398E+03  0.16500000000E+03 0.  0.
<mgrwt>
<rscale>  0 0.62016421E+03</rscale>
<asrwt>0</asrwt>
<pdfrwt beam="1">  1        2 0.13018631E-01 0.62016421E+03</pdfrwt>
<pdfrwt beam="2">  1       -2 0.17480803E+00 0.62016421E+03</pdfrwt>
<totfact> 0.95904182E+01</totfact>
</mgrwt>
</event>
<event>
 4    1  0.1573232E-005  0.5427759E+03  0.7818608E-02  0.1003180E+00
          2   -1    0    0  501    0  0.00000000000E+00  0.00000000000E+00  0.20918772924E+03  0.20918772925E+03  0.25500000000E-02 0.  1.
         -2   -1    0    0    0  501 -0.00000000000E+00 -0.00000000000E+00 -0.35208293207E+03  0.35208293208E+03  0.25500000000E-02 0. -1.
    5000001    1    1    2    0    0  0.18442008853E+03  0.49811209762E+02 -0.17451583622E+03  0.30687571224E+03  0.16500000000E+03 0.  0.
   -5000001    1    1    2    0    0 -0.18442008853E+03 -0.49811209762E+02  0.31620633385E+02  0.25439494910E+03  0.16500000000E+03 0.  0.
<mgrwt>
<rscale>  0 0.54277594E+03</rscale>
<asrwt>0</asrwt>
<pdfrwt beam="1">  1        2 0.32182728E-01 0.54277594E+03</pdfrwt>
<pdfrwt beam="2">  1       -2 0.54166605E-01 0.54277594E+03</pdfrwt>
<totfact> 0.53177427E+02</totfact>
</mgrwt>
</event>
<event>
 4    1  0.1573232E-005  0.4785321E+03  0.7818608E-02  0.1019539E+00
          2   -1    0    0  501    0  0.00000000000E+00  0.00000000000E+00  0.35846641738E+03  0.35846641739E+03  0.25500000000E-02 0.  1.
         -2   -1    0    0    0  501 -0.00000000000E+00 -0.00000000000E+00 -0.15970319475E+03  0.15970319477E+03  0.25500000000E-02 0. -1.
    5000001    1    1    2    0    0 -0.95836952658E+02 -0.11647228252E+03  0.19172573802E+03  0.29450682965E+03  0.16500000000E+03 0.  0.
   -5000001    1    1    2    0    0  0.95836952658E+02  0.11647228252E+03  0.70374846057E+01  0.22366278251E+03  0.16500000000E+03 0.  0.
<mgrwt>
<rscale>  0 0.47853206E+03</rscale>
<asrwt>0</asrwt>
<pdfrwt beam="1">  1        2 0.55148679E-01 0.47853206E+03</pdfrwt>
<pdfrwt beam="2">  1       -2 0.24569723E-01 0.47853206E+03</pdfrwt>
<totfact> 0.13283548E+03</totfact>
</mgrwt>
</event>
<event>
 4    1  0.1573232E-005  0.4317683E+03  0.7818608E-02  0.1033303E+00
         -2   -1    0    0    0  501 -0.00000000000E+00  0.00000000000E+00  0.16293201178E+03  0.16293201180E+03  0.25500000000E-02 0. -1.
          2   -1    0    0  501    0  0.00000000000E+00 -0.00000000000E+00 -0.28604549690E+03  0.28604549691E+03  0.25500000000E-02 0.  1.
    5000001    1    1    2    0    0  0.62018342294E+02  0.11688950302E+03 -0.10654229917E+03  0.23682417996E+03  0.16500000000E+03 0.  0.
   -5000001    1    1    2    0    0 -0.62018342294E+02 -0.11688950302E+03 -0.16571185951E+02  0.21215332875E+03  0.16500000000E+03 0.  0.
<mgrwt>
<rscale>  0 0.43176831E+03</rscale>
<asrwt>0</asrwt>
<pdfrwt beam="1">  1        2 0.44006999E-01 0.43176831E+03</pdfrwt>
<pdfrwt beam="2">  1       -2 0.25066463E-01 0.43176831E+03</pdfrwt>
<totfact> 0.16407623E+03</totfact>
</mgrwt>
</event>
<event>
 4    1  0.1573232E-005  0.8040252E+03  0.7818608E-02  0.9554209E-01
         -2   -1    0    0    0  501 -0.00000000000E+00  0.00000000000E+00  0.16545472511E+03  0.16545472513E+03  0.25500000000E-02 0. -1.
          2   -1    0    0  501    0  0.00000000000E+00 -0.00000000000E+00 -0.97678774108E+03  0.97678774109E+03  0.25500000000E-02 0.  1.
    5000001    1    1    2    0    0  0.27387935426E+03  0.19605915802E+03 -0.61124492057E+03  0.71714325421E+03  0.16500000000E+03 0.  0.
   -5000001    1    1    2    0    0 -0.27387935426E+03 -0.19605915802E+03 -0.20008809541E+03  0.42509921201E+03  0.16500000000E+03 0.  0.
<mgrwt>
<rscale>  0 0.80402524E+03</rscale>
<asrwt>0</asrwt>
<pdfrwt beam="1">  1        2 0.15027503E+00 0.80402524E+03</pdfrwt>
<pdfrwt beam="2">  1       -2 0.25454574E-01 0.80402524E+03</pdfrwt>
<totfact> 0.36335627E+02</totfact>
</mgrwt>
</event>
<event>
 4    1  0.1573232E-005  0.4602932E+03  0.7818608E-02  0.1024696E+00
         -2   -1    0    0    0  501 -0.00000000000E+00  0.00000000000E+00  0.17358321436E+03  0.17358321438E+03  0.25500000000E-02 0. -1.
          2   -1    0    0  501    0  0.00000000000E+00 -0.00000000000E+00 -0.30514158930E+03  0.30514158931E+03  0.25500000000E-02 0.  1.
    5000001    1    1    2    0    0  0.13650374795E+03 -0.30482964418E+00 -0.15347087542E+03  0.26346095674E+03  0.16500000000E+03 0.  0.
   -5000001    1    1    2    0    0 -0.13650374795E+03  0.30482964418E+00  0.21912500490E+02  0.21526384695E+03  0.16500000000E+03 0.  0.
<mgrwt>
<rscale>  0 0.46029320E+03</rscale>
<asrwt>0</asrwt>
<pdfrwt beam="1">  1        2 0.46944860E-01 0.46029320E+03</pdfrwt>
<pdfrwt beam="2">  1       -2 0.26705110E-01 0.46029320E+03</pdfrwt>
<totfact> 0.13651427E+03</totfact>
</mgrwt>
</event>
<event>
 4    1  0.1573232E-005  0.3604395E+03  0.7818608E-02  0.1058410E+00
         -2   -1    0    0    0  501 -0.00000000000E+00  0.00000000000E+00  0.18836345794E+03  0.18836345795E+03  0.25500000000E-02 0. -1.
          2   -1    0    0  501    0  0.00000000000E+00 -0.00000000000E+00 -0.17242807958E+03  0.17242807960E+03  0.25500000000E-02 0.  1.
    5000001    1    1    2    0    0 -0.57538232273E+02 -0.42611190431E+02 -0.33476708674E+01  0.17989599391E+03  0.16500000000E+03 0.  0.
   -5000001    1    1    2    0    0  0.57538232273E+02  0.42611190431E+02  0.19283049223E+02  0.18089554364E+03  0.16500000000E+03 0.  0.
<mgrwt>
<rscale>  0 0.36043945E+03</rscale>
<asrwt>0</asrwt>
<pdfrwt beam="1">  1        2 0.26527397E-01 0.36043945E+03</pdfrwt>
<pdfrwt beam="2">  1       -2 0.28978994E-01 0.36043945E+03</pdfrwt>
<totfact> 0.22032043E+03</totfact>
</mgrwt>
</event>
<event>
 4    1  0.1573232E-005  0.5469507E+03  0.7818608E-02  0.1002202E+00
          2   -1    0    0  501    0  0.00000000000E+00  0.00000000000E+00  0.31655009124E+03  0.31655009125E+03  0.25500000000E-02 0.  1.
         -2   -1    0    0    0  501 -0.00000000000E+00 -0.00000000000E+00 -0.23626204004E+03  0.23626204006E+03  0.25500000000E-02 0. -1.
    5000001    1    1    2    0    0  0.14314035240E+03 -0.15080014934E+03 -0.26394022913E+02  0.26674236628E+03  0.16500000000E+03 0.  0.
   -5000001    1    1    2    0    0 -0.14314035240E+03  0.15080014934E+03  0.10668207411E+03  0.28606976502E+03  0.16500000000E+03 0.  0.
<mgrwt>
<rscale>  0 0.54695071E+03</rscale>
<asrwt>0</asrwt>
<pdfrwt beam="1">  1        2 0.48700014E-01 0.54695071E+03</pdfrwt>
<pdfrwt beam="2">  1       -2 0.36348006E-01 0.54695071E+03</pdfrwt>
<totfact> 0.74041839E+02</totfact>
</mgrwt>
</event>
<event>
 4    1  0.1573232E-005  0.7332356E+03  0.7818608E-02  0.9662024E-01
         -2   -1    0    0    0  501 -0.00000000000E+00  0.00000000000E+00  0.73109161727E+02  0.73109161772E+02  0.25500000000E-02 0. -1.
          2   -1    0    0  501    0  0.00000000000E+00 -0.00000000000E+00 -0.18384647149E+04  0.18384647149E+04  0.25500000000E-02 0.  1.
    5000001    1    1    2    0    0  0.28955093354E+02  0.24103373423E+03 -0.14553247873E+04  0.14846315688E+04  0.16500000000E+03 0.  0.
   -5000001    1    1    2    0    0 -0.28955093354E+02 -0.24103373423E+03 -0.31003076578E+03  0.42694230781E+03  0.16500000000E+03 0.  0.
<mgrwt>
<rscale>  0 0.73323561E+03</rscale>
<asrwt>0</asrwt>
<pdfrwt beam="1">  1        2 0.28284069E+00 0.73323561E+03</pdfrwt>
<pdfrwt beam="2">  1       -2 0.11247565E-01 0.73323561E+03</pdfrwt>
<totfact> 0.47483411E+02</totfact>
</mgrwt>
</event>
<event>
 4    1  0.1573232E-005  0.7588837E+03  0.7818608E-02  0.9621515E-01
         -2   -1    0    0    0  501 -0.00000000000E+00  0.00000000000E+00  0.10849006130E+03  0.10849006133E+03  0.25500000000E-02 0. -1.
          2   -1    0    0  501    0  0.00000000000E+00 -0.00000000000E+00 -0.13270905051E+04  0.13270905051E+04  0.25500000000E-02 0.  1.
    5000001    1    1    2    0    0  0.19331461051E+03  0.26216513563E+03 -0.41407864813E+03  0.55207537874E+03  0.16500000000E+03 0.  0.
   -5000001    1    1    2    0    0 -0.19331461051E+03 -0.26216513563E+03 -0.80452179566E+03  0.88350518769E+03  0.16500000000E+03 0.  0.
<mgrwt>
<rscale>  0 0.75888373E+03</rscale>
<asrwt>0</asrwt>
<pdfrwt beam="1">  1        2 0.20416776E+00 0.75888373E+03</pdfrwt>
<pdfrwt beam="2">  1       -2 0.16690780E-01 0.75888373E+03</pdfrwt>
<totfact> 0.46984533E+02</totfact>
</mgrwt>
</event>
<event>
 4    1  0.1573232E-005  0.3754895E+03  0.7818608E-02  0.1052614E+00
         -2   -1    0    0    0  501 -0.00000000000E+00  0.00000000000E+00  0.21638205570E+03  0.21638205571E+03  0.25500000000E-02 0.  1.
          2   -1    0    0  501    0  0.00000000000E+00 -0.00000000000E+00 -0.16289743924E+03  0.16289743926E+03  0.25500000000E-02 0. -1.
    5000001    1    1    2    0    0  0.15661690971E+02 -0.61982906885E+02  0.90112407783E+02  0.19857596870E+03  0.16500000000E+03 0.  0.
   -5000001    1    1    2    0    0 -0.15661690971E+02  0.61982906885E+02 -0.36627791326E+02  0.18070352627E+03  0.16500000000E+03 0.  0.
<mgrwt>
<rscale>  0 0.37548946E+03</rscale>
<asrwt>0</asrwt>
<pdfrwt beam="1">  1        2 0.25061145E-01 0.37548946E+03</pdfrwt>
<pdfrwt beam="2">  1       -2 0.33289547E-01 0.37548946E+03</pdfrwt>
<totfact> 0.18210697E+03</totfact>
</mgrwt>
</event>
<event>
 4    1  0.1573232E-005  0.3837382E+03  0.7818608E-02  0.1049561E+00
          2   -1    0    0  501    0  0.00000000000E+00  0.00000000000E+00  0.72169223833E+03  0.72169223833E+03  0.25500000000E-02 0.  1.
         -2   -1    0    0    0  501 -0.00000000000E+00 -0.00000000000E+00 -0.51010323831E+02  0.51010323895E+02  0.25500000000E-02 0. -1.
    5000001    1    1    2    0    0  0.90551181180E+02  0.10539955234E+02  0.26335167770E+03  0.32386681401E+03  0.16500000000E+03 0.  0.
   -5000001    1    1    2    0    0 -0.90551181180E+02 -0.10539955234E+02  0.40733023679E+03  0.44883574822E+03  0.16500000000E+03 0.  0.
<mgrwt>
<rscale>  0 0.38373822E+03</rscale>
<asrwt>0</asrwt>
<pdfrwt beam="1">  1        2 0.11102957E+00 0.38373822E+03</pdfrwt>
<pdfrwt beam="2">  1       -2 0.78477425E-02 0.38373822E+03</pdfrwt>
<totfact> 0.39570522E+03</totfact>
</mgrwt>
</event>
<event>
 4    1  0.1573232E-005  0.6200369E+03  0.7818608E-02  0.9864686E-01
         -2   -1    0    0    0  501 -0.00000000000E+00  0.00000000000E+00  0.23243312744E+02  0.23243312884E+02  0.25500000000E-02 0. -1.
          2   -1    0    0  501    0  0.00000000000E+00 -0.00000000000E+00 -0.41350151064E+04  0.41350151064E+04  0.25500000000E-02 0.  1.
    5000001    1    1    2    0    0 -0.18613545941E+03 -0.17454088200E+03 -0.16438051217E+04  0.16716552297E+04  0.16500000000E+03 0.  0.
   -5000001    1    1    2    0    0  0.18613545941E+03  0.17454088200E+03 -0.24679666720E+04  0.24866031896E+04  0.16500000000E+03 0.  0.
<mgrwt>
<rscale>  0 0.62003693E+03</rscale>
<asrwt>0</asrwt>
<pdfrwt beam="1">  1        2 0.63615559E+00 0.62003693E+03</pdfrwt>
<pdfrwt beam="2">  1       -2 0.35758976E-02 0.62003693E+03</pdfrwt>
<totfact> 0.10389055E+02</totfact>
</mgrwt>
</event>
<event>
 4    1  0.1573232E-005  0.3909034E+03  0.7818608E-02  0.1046976E+00
          2   -1    0    0  501    0  0.00000000000E+00  0.00000000000E+00  0.90566640018E+03  0.90566640018E+03  0.25500000000E-02 0.  1.
         -2   -1    0    0    0  501 -0.00000000000E+00 -0.00000000000E+00 -0.42180386768E+02  0.42180386845E+02  0.25500000000E-02 0. -1.
    5000001    1    1    2    0    0  0.10054822365E+03  0.29198874742E+02  0.42272253664E+03  0.46570576822E+03  0.16500000000E+03 0.  0.
   -5000001    1    1    2    0    0 -0.10054822365E+03 -0.29198874742E+02  0.44076347677E+03  0.48214101881E+03  0.16500000000E+03 0.  0.
<mgrwt>
<rscale>  0 0.39090336E+03</rscale>
<asrwt>0</asrwt>
<pdfrwt beam="1">  1        2 0.13933328E+00 0.39090336E+03</pdfrwt>
<pdfrwt beam="2">  1       -2 0.64892907E-02 0.39090336E+03</pdfrwt>
<totfact> 0.39678552E+03</totfact>
</mgrwt>
</event>
<event>
 4    1  0.1573232E-005  0.5515996E+03  0.7818608E-02  0.1001124E+00
         -2   -1    0    0    0  501 -0.00000000000E+00  0.00000000000E+00  0.35272162829E+02  0.35272162922E+02  0.25500000000E-02 0. -1.
          2   -1    0    0  501    0  0.00000000000E+00 -0.00000000000E+00 -0.21565312035E+04  0.21565312035E+04  0.25500000000E-02 0.  1.
    5000001    1    1    2    0    0  0.10287100295E+03  0.17792333399E+03 -0.73778418944E+03  0.78344729638E+03  0.16500000000E+03 0.  0.
   -5000001    1    1    2    0    0 -0.10287100295E+03 -0.17792333399E+03 -0.13834748512E+04  0.14083560701E+04  0.16500000000E+03 0.  0.
<mgrwt>
<rscale>  0 0.55159956E+03</rscale>
<asrwt>0</asrwt>
<pdfrwt beam="1">  1        2 0.33177393E+00 0.55159956E+03</pdfrwt>
<pdfrwt beam="2">  1       -2 0.54264883E-02 0.55159956E+03</pdfrwt>
<totfact> 0.10334453E+03</totfact>
</mgrwt>
</event>
<event>
 4    1  0.1573232E-005  0.4849816E+03  0.7818608E-02  0.1017775E+00
         -2   -1    0    0    0  501 -0.00000000000E+00  0.00000000000E+00  0.28280033406E+02  0.28280033521E+02  0.25500000000E-02 0. -1.
          2   -1    0    0  501    0  0.00000000000E+00 -0.00000000000E+00 -0.20792688208E+04  0.20792688208E+04  0.25500000000E-02 0.  1.
    5000001    1    1    2    0    0  0.78756439567E+02 -0.12769611741E+03 -0.14393093040E+04  0.14564838302E+04  0.16500000000E+03 0.  0.
   -5000001    1    1    2    0    0 -0.78756439567E+02  0.12769611741E+03 -0.61167948340E+03  0.65106502409E+03  0.16500000000E+03 0.  0.
<mgrwt>
<rscale>  0 0.48498162E+03</rscale>
<asrwt>0</asrwt>
<pdfrwt beam="1">  1        2 0.31988739E+00 0.48498162E+03</pdfrwt>
<pdfrwt beam="2">  1       -2 0.43507760E-02 0.48498162E+03</pdfrwt>
<totfact> 0.16078392E+03</totfact>
</mgrwt>
</event>
<event>
 4    1  0.1573232E-005  0.5959704E+03  0.7818608E-02  0.9913802E-01
         -2   -1    0    0    0  501 -0.00000000000E+00  0.00000000000E+00  0.16957926248E+03  0.16957926250E+03  0.25500000000E-02 0. -1.
          2   -1    0    0  501    0  0.00000000000E+00 -0.00000000000E+00 -0.52362048849E+03  0.52362048850E+03  0.25500000000E-02 0.  1.
    5000001    1    1    2    0    0  0.10225298411E+03  0.81096826667E+02  0.68449224954E+02  0.22122989050E+03  0.16500000000E+03 0.  0.
   -5000001    1    1    2    0    0 -0.10225298411E+03 -0.81096826667E+02 -0.42249045097E+03  0.47196986049E+03  0.16500000000E+03 0.  0.
<mgrwt>
<rscale>  0 0.59597039E+03</rscale>
<asrwt>0</asrwt>
<pdfrwt beam="1">  1        2 0.80556998E-01 0.59597039E+03</pdfrwt>
<pdfrwt beam="2">  1       -2 0.26089118E-01 0.59597039E+03</pdfrwt>
<totfact> 0.77763853E+02</totfact>
</mgrwt>
</event>
<event>
 4    1  0.1573232E-005  0.4011383E+03  0.7818608E-02  0.1043386E+00
          2   -1    0    0  501    0  0.00000000000E+00  0.00000000000E+00  0.18684138124E+04  0.18684138124E+04  0.25500000000E-02 0.  1.
         -2   -1    0    0    0  501 -0.00000000000E+00 -0.00000000000E+00 -0.21530552107E+02  0.21530552258E+02  0.25500000000E-02 0. -1.
    5000001    1    1    2    0    0  0.14650421806E+02 -0.11191818107E+03  0.99980017526E+03  0.10195909496E+04  0.16500000000E+03 0.  0.
   -5000001    1    1    2    0    0 -0.14650421806E+02  0.11191818107E+03  0.84708308508E+03  0.87035341508E+03  0.16500000000E+03 0.  0.
<mgrwt>
<rscale>  0 0.40113829E+03</rscale>
<asrwt>0</asrwt>
<pdfrwt beam="1">  1        2 0.28744828E+00 0.40113829E+03</pdfrwt>
<pdfrwt beam="2">  1       -2 0.33123926E-02 0.40113829E+03</pdfrwt>
<totfact> 0.31706068E+03</totfact>
</mgrwt>
</event>
<event>
 4    1  0.1573232E-005  0.6282556E+03  0.7818608E-02  0.9848459E-01
         -2   -1    0    0    0  501 -0.00000000000E+00  0.00000000000E+00  0.16877649674E+03  0.16877649676E+03  0.25500000000E-02 0. -1.
          2   -1    0    0  501    0  0.00000000000E+00 -0.00000000000E+00 -0.58465641460E+03  0.58465641461E+03  0.25500000000E-02 0.  1.
    5000001    1    1    2    0    0 -0.19143050793E+03  0.18591729097E+03 -0.22653341562E+03  0.38697967239E+03  0.16500000000E+03 0.  0.
   -5000001    1    1    2    0    0  0.19143050793E+03 -0.18591729097E+03 -0.18934650224E+03  0.36645323898E+03  0.16500000000E+03 0.  0.
<mgrwt>
<rscale>  0 0.62825556E+03</rscale>
<asrwt>0</asrwt>
<pdfrwt beam="1">  1        2 0.89947140E-01 0.62825556E+03</pdfrwt>
<pdfrwt beam="2">  1       -2 0.25965615E-01 0.62825556E+03</pdfrwt>
<totfact> 0.68844952E+02</totfact>
</mgrwt>
</event>
<event>
 4    1  0.1573232E-005  0.4559140E+03  0.7818608E-02  0.1025973E+00
          2   -1    0    0  501    0  0.00000000000E+00  0.00000000000E+00  0.37414407614E+02  0.37414407700E+02  0.25500000000E-02 0.  1.
         -2   -1    0    0    0  501 -0.00000000000E+00 -0.00000000000E+00 -0.13888874035E+04  0.13888874035E+04  0.25500000000E-02 0. -1.
    5000001    1    1    2    0    0 -0.10937420251E+03 -0.60750653247E+02 -0.97394212802E+03  0.99571161828E+03  0.16500000000E+03 0.  0.
   -5000001    1    1    2    0    0  0.10937420251E+03  0.60750653247E+02 -0.37753086782E+03  0.43059019287E+03  0.16500000000E+03 0.  0.
<mgrwt>
<rscale>  0 0.45591402E+03</rscale>
<asrwt>0</asrwt>
<pdfrwt beam="1">  1        2 0.57560638E-02 0.45591402E+03</pdfrwt>
<pdfrwt beam="2">  1       -2 0.21367494E+00 0.45591402E+03</pdfrwt>
<totfact> 0.15343363E+02</totfact>
</mgrwt>
</event>
<event>
 4    1  0.1573232E-005  0.4675309E+03  0.7818608E-02  0.1022619E+00
          2   -1    0    0  501    0  0.00000000000E+00  0.00000000000E+00  0.16336650613E+04  0.16336650613E+04  0.25500000000E-02 0.  1.
         -2   -1    0    0    0  501 -0.00000000000E+00 -0.00000000000E+00 -0.33450116025E+02  0.33450116122E+02  0.25500000000E-02 0. -1.
    5000001    1    1    2    0    0  0.47448570049E+02 -0.13240970412E+03  0.48848165032E+03  0.53443710504E+03  0.16500000000E+03 0.  0.
   -5000001    1    1    2    0    0 -0.47448570049E+02  0.13240970412E+03  0.11117332949E+04  0.11326780724E+04  0.16500000000E+03 0.  0.
<mgrwt>
<rscale>  0 0.46753090E+03</rscale>
<asrwt>0</asrwt>
<pdfrwt beam="1">  1        2 0.25133307E+00 0.46753090E+03</pdfrwt>
<pdfrwt beam="2">  1       -2 0.51461721E-02 0.46753090E+03</pdfrwt>
<totfact> 0.21570197E+03</totfact>
</mgrwt>
</event>
<event>
 4    1  0.1573232E-005  0.5543022E+03  0.7818608E-02  0.1000503E+00
          2   -1    0    0  501    0  0.00000000000E+00  0.00000000000E+00  0.12179402061E+04  0.12179402061E+04  0.25500000000E-02 0.  1.
         -2   -1    0    0    0  501 -0.00000000000E+00 -0.00000000000E+00 -0.63067727638E+02  0.63067727690E+02  0.25500000000E-02 0. -1.
    5000001    1    1    2    0    0 -0.20699928111E+03  0.40496054094E+02  0.74246191558E+03  0.78928026003E+03  0.16500000000E+03 0.  0.
   -5000001    1    1    2    0    0  0.20699928111E+03 -0.40496054094E+02  0.41241056289E+03  0.49172767378E+03  0.16500000000E+03 0.  0.
<mgrwt>
<rscale>  0 0.55430216E+03</rscale>
<asrwt>0</asrwt>
<pdfrwt beam="1">  1        2 0.18737543E+00 0.55430216E+03</pdfrwt>
<pdfrwt beam="2">  1       -2 0.97027268E-02 0.55430216E+03</pdfrwt>
<totfact> 0.13486516E+03</totfact>
</mgrwt>
</event>
<event>
 4    1  0.1573232E-005  0.5095016E+03  0.7818608E-02  0.1011328E+00
          2   -1    0    0  501    0  0.00000000000E+00  0.00000000000E+00  0.10567942114E+03  0.10567942117E+03  0.25500000000E-02 0.  1.
         -2   -1    0    0    0  501 -0.00000000000E+00 -0.00000000000E+00 -0.61410219362E+03  0.61410219362E+03  0.25500000000E-02 0. -1.
    5000001    1    1    2    0    0  0.63055136182E+02  0.98385171345E+02 -0.35274992220E+02  0.20524355584E+03  0.16500000000E+03 0.  0.
   -5000001    1    1    2    0    0 -0.63055136182E+02 -0.98385171345E+02 -0.47314778026E+03  0.51453805895E+03  0.16500000000E+03 0.  0.
<mgrwt>
<rscale>  0 0.50950158E+03</rscale>
<asrwt>0</asrwt>
<pdfrwt beam="1">  1        2 0.16258373E-01 0.50950158E+03</pdfrwt>
<pdfrwt beam="2">  1       -2 0.94477258E-01 0.50950158E+03</pdfrwt>
<totfact> 0.34723651E+02</totfact>
</mgrwt>
</event>
<event>
 4    1  0.1573232E-005  0.4179060E+03  0.7818608E-02  0.1037750E+00
          2   -1    0    0  501    0  0.00000000000E+00  0.00000000000E+00  0.96572571554E+03  0.96572571554E+03  0.25500000000E-02 0.  1.
         -2   -1    0    0    0  501 -0.00000000000E+00 -0.00000000000E+00 -0.45210928028E+02  0.45210928100E+02  0.25500000000E-02 0. -1.
    5000001    1    1    2    0    0 -0.11523215066E+03  0.55956247423E+02  0.44773293977E+03  0.49406410062E+03  0.16500000000E+03 0.  0.
   -5000001    1    1    2    0    0  0.11523215066E+03 -0.55956247423E+02  0.47278184774E+03  0.51687254302E+03  0.16500000000E+03 0.  0.
<mgrwt>
<rscale>  0 0.41790600E+03</rscale>
<asrwt>0</asrwt>
<pdfrwt beam="1">  1        2 0.14857318E+00 0.41790600E+03</pdfrwt>
<pdfrwt beam="2">  1       -2 0.69555278E-02 0.41790600E+03</pdfrwt>
<totfact> 0.32588003E+03</totfact>
</mgrwt>
</event>
<event>
 4    1  0.1573232E-005  0.4710474E+03  0.7818608E-02  0.1021625E+00
          2   -1    0    0  501    0  0.00000000000E+00  0.00000000000E+00  0.49148831130E+03  0.49148831131E+03  0.25500000000E-02 0.  1.
         -2   -1    0    0    0  501 -0.00000000000E+00 -0.00000000000E+00 -0.11286413578E+03  0.11286413581E+03  0.25500000000E-02 0. -1.
    5000001    1    1    2    0    0  0.11196974241E+03  0.66217790825E+01  0.34989359079E+03  0.40277983570E+03  0.16500000000E+03 0.  0.
   -5000001    1    1    2    0    0 -0.11196974241E+03 -0.66217790825E+01  0.28730584729E+02  0.20157261142E+03  0.16500000000E+03 0.  0.
<mgrwt>
<rscale>  0 0.47104736E+03</rscale>
<asrwt>0</asrwt>
<pdfrwt beam="1">  1        2 0.75613586E-01 0.47104736E+03</pdfrwt>
<pdfrwt beam="2">  1       -2 0.17363713E-01 0.47104736E+03</pdfrwt>
<totfact> 0.17088266E+03</totfact>
</mgrwt>
</event>
<event>
 4    1  0.1573232E-005  0.4652031E+03  0.7818608E-02  0.1023283E+00
         -2   -1    0    0    0  501 -0.00000000000E+00  0.00000000000E+00  0.51042697657E+02  0.51042697721E+02  0.25500000000E-02 0. -1.
          2   -1    0    0  501    0  0.00000000000E+00 -0.00000000000E+00 -0.10599651464E+04  0.10599651464E+04  0.25500000000E-02 0.  1.
    5000001    1    1    2    0    0  0.15669393177E+03 -0.42006634964E+02 -0.56102400562E+03  0.60686940977E+03  0.16500000000E+03 0.  0.
   -5000001    1    1    2    0    0 -0.15669393177E+03  0.42006634964E+02 -0.44789844308E+03  0.50413843431E+03  0.16500000000E+03 0.  0.
<mgrwt>
<rscale>  0 0.46520310E+03</rscale>
<asrwt>0</asrwt>
<pdfrwt beam="1">  1        2 0.16307154E+00 0.46520310E+03</pdfrwt>
<pdfrwt beam="2">  1       -2 0.78527235E-02 0.46520310E+03</pdfrwt>
<totfact> 0.23525495E+03</totfact>
</mgrwt>
</event>
<event>
 4    1  0.1573232E-005  0.4919806E+03  0.7818608E-02  0.1015894E+00
          2   -1    0    0  501    0  0.00000000000E+00  0.00000000000E+00  0.23223978241E+04  0.23223978241E+04  0.25500000000E-02 0.  1.
         -2   -1    0    0    0  501 -0.00000000000E+00 -0.00000000000E+00 -0.26055496271E+02  0.26055496396E+02  0.25500000000E-02 0. -1.
    5000001    1    1    2    0    0  0.17623843160E+03  0.47130668756E+02  0.11587842496E+04  0.11846042469E+04  0.16500000000E+03 0.  0.
   -5000001    1    1    2    0    0 -0.17623843160E+03 -0.47130668756E+02  0.11375580782E+04  0.11638490736E+04  0.16500000000E+03 0.  0.
<mgrwt>
<rscale>  0 0.49198060E+03</rscale>
<asrwt>0</asrwt>
<pdfrwt beam="1">  1        2 0.35729206E+00 0.49198060E+03</pdfrwt>
<pdfrwt beam="2">  1       -2 0.40085369E-02 0.49198060E+03</pdfrwt>
<totfact> 0.13438274E+03</totfact>
</mgrwt>
</event>
<event>
 4    1  0.1573232E-005  0.3892537E+03  0.7818608E-02  0.1047566E+00
         -2   -1    0    0    0  501 -0.00000000000E+00  0.00000000000E+00  0.34140335329E+02  0.34140335424E+02  0.25500000000E-02 0. -1.
          2   -1    0    0  501    0  0.00000000000E+00 -0.00000000000E+00 -0.11095268541E+04  0.11095268541E+04  0.25500000000E-02 0.  1.
    5000001    1    1    2    0    0 -0.17746730331E+02  0.10101104704E+03 -0.57201261109E+03  0.60410396895E+03  0.16500000000E+03 0.  0.
   -5000001    1    1    2    0    0  0.17746730331E+02 -0.10101104704E+03 -0.50337390771E+03  0.53956322060E+03  0.16500000000E+03 0.  0.
<mgrwt>
<rscale>  0 0.38925374E+03</rscale>
<asrwt>0</asrwt>
<pdfrwt beam="1">  1        2 0.17069641E+00 0.38925374E+03</pdfrwt>
<pdfrwt beam="2">  1       -2 0.52523601E-02 0.38925374E+03</pdfrwt>
<totfact> 0.41114582E+03</totfact>
</mgrwt>
</event>
<event>
 4    1  0.1573232E-005  0.7578958E+03  0.7818608E-02  0.9623044E-01
          2   -1    0    0  501    0  0.00000000000E+00  0.00000000000E+00  0.64989135689E+03  0.64989135689E+03  0.25500000000E-02 0.  1.
         -2   -1    0    0    0  501 -0.00000000000E+00 -0.00000000000E+00 -0.22096233932E+03  0.22096233933E+03  0.25500000000E-02 0. -1.
    5000001    1    1    2    0    0 -0.23430177743E+03 -0.20342282729E+03  0.37736254232E+03  0.51566040949E+03  0.16500000000E+03 0.  0.
   -5000001    1    1    2    0    0  0.23430177743E+03  0.20342282729E+03  0.51566475247E+02  0.35519328673E+03  0.16500000000E+03 0.  0.
<mgrwt>
<rscale>  0 0.75789581E+03</rscale>
<asrwt>0</asrwt>
<pdfrwt beam="1">  1        2 0.99983286E-01 0.75789581E+03</pdfrwt>
<pdfrwt beam="2">  1       -2 0.33994206E-01 0.75789581E+03</pdfrwt>
<totfact> 0.36644262E+02</totfact>
</mgrwt>
</event>
<event>
 4    1  0.1573232E-005  0.4005456E+03  0.7818608E-02  0.1043591E+00
         -2   -1    0    0    0  501 -0.00000000000E+00  0.00000000000E+00  0.16960758360E+03  0.16960758362E+03  0.25500000000E-02 0. -1.
          2   -1    0    0  501    0  0.00000000000E+00 -0.00000000000E+00 -0.23648227365E+03  0.23648227367E+03  0.25500000000E-02 0.  1.
    5000001    1    1    2    0    0 -0.11180682151E+03  0.15083719931E+02 -0.46096290804E+02  0.20512959799E+03  0.16500000000E+03 0.  0.
   -5000001    1    1    2    0    0  0.11180682151E+03 -0.15083719931E+02 -0.20778399248E+02  0.20096025930E+03  0.16500000000E+03 0.  0.
<mgrwt>
<rscale>  0 0.40054556E+03</rscale>
<asrwt>0</asrwt>
<pdfrwt beam="1">  1        2 0.36381888E-01 0.40054556E+03</pdfrwt>
<pdfrwt beam="2">  1       -2 0.26093474E-01 0.40054556E+03</pdfrwt>
<totfact> 0.18792932E+03</totfact>
</mgrwt>
</event>
<event>
 4    1  0.1573232E-005  0.4374898E+03  0.7818608E-02  0.1031520E+00
          2   -1    0    0  501    0  0.00000000000E+00  0.00000000000E+00  0.31778864985E+03  0.31778864986E+03  0.25500000000E-02 0.  1.
         -2   -1    0    0    0  501 -0.00000000000E+00 -0.00000000000E+00 -0.15056965409E+03  0.15056965411E+03  0.25500000000E-02 0. -1.
    5000001    1    1    2    0    0  0.87470982634E+01 -0.13953683153E+03  0.11874743198E+03  0.24672452590E+03  0.16500000000E+03 0.  0.
   -5000001    1    1    2    0    0 -0.87470982634E+01  0.13953683153E+03  0.48471563785E+02  0.22163377806E+03  0.16500000000E+03 0.  0.
<mgrwt>
<rscale>  0 0.43748978E+03</rscale>
<asrwt>0</asrwt>
<pdfrwt beam="1">  1        2 0.48890561E-01 0.43748978E+03</pdfrwt>
<pdfrwt beam="2">  1       -2 0.23164562E-01 0.43748978E+03</pdfrwt>
<totfact> 0.16823723E+03</totfact>
</mgrwt>
</event>
<event>
 4    1  0.1573232E-005  0.5346270E+03  0.7818608E-02  0.1005116E+00
         -2   -1    0    0    0  501 -0.00000000000E+00  0.00000000000E+00  0.90932402683E+02  0.90932402719E+02  0.25500000000E-02 0. -1.
          2   -1    0    0  501    0  0.00000000000E+00 -0.00000000000E+00 -0.78581993392E+03  0.78581993392E+03  0.25500000000E-02 0.  1.
    5000001    1    1    2    0    0  0.14995922581E+03 -0.13910202823E+03 -0.42768913717E+03  0.50197623621E+03  0.16500000000E+03 0.  0.
   -5000001    1    1    2    0    0 -0.14995922581E+03  0.13910202823E+03 -0.26719839407E+03  0.37477610044E+03  0.16500000000E+03 0.  0.
<mgrwt>
<rscale>  0 0.53462695E+03</rscale>
<asrwt>0</asrwt>
<pdfrwt beam="1">  1        2 0.12089537E+00 0.53462695E+03</pdfrwt>
<pdfrwt beam="2">  1       -2 0.13989601E-01 0.53462695E+03</pdfrwt>
<totfact> 0.13952053E+03</totfact>
</mgrwt>
</event>
<event>
 4    1  0.1573232E-005  0.6222981E+03  0.7818608E-02  0.9860195E-01
         -2   -1    0    0    0  501 -0.00000000000E+00  0.00000000000E+00  0.11392915327E+03  0.11392915330E+03  0.25500000000E-02 0. -1.
          2   -1    0    0  501    0  0.00000000000E+00 -0.00000000000E+00 -0.84977132535E+03  0.84977132536E+03  0.25500000000E-02 0.  1.
    5000001    1    1    2    0    0 -0.49208244834E+02  0.21931865396E+03 -0.15408535077E+03  0.31857403952E+03  0.16500000000E+03 0.  0.
   -5000001    1    1    2    0    0  0.49208244834E+02 -0.21931865396E+03 -0.58175682131E+03  0.64512643914E+03  0.16500000000E+03 0.  0.
<mgrwt>
<rscale>  0 0.62229809E+03</rscale>
<asrwt>0</asrwt>
<pdfrwt beam="1">  1        2 0.13073405E+00 0.62229809E+03</pdfrwt>
<pdfrwt beam="2">  1       -2 0.17527563E-01 0.62229809E+03</pdfrwt>
<totfact> 0.85766796E+02</totfact>
</mgrwt>
</event>
<event>
 4    1  0.1573232E-005  0.3513161E+03  0.7818608E-02  0.1062076E+00
         -2   -1    0    0    0  501 -0.00000000000E+00  0.00000000000E+00  0.15737328750E+02  0.15737328957E+02  0.25500000000E-02 0. -1.
          2   -1    0    0  501    0  0.00000000000E+00 -0.00000000000E+00 -0.19606730288E+04  0.19606730288E+04  0.25500000000E-02 0.  1.
    5000001    1    1    2    0    0 -0.31100130398E+02 -0.27648750287E+02 -0.12176287454E+04  0.12294618470E+04  0.16500000000E+03 0.  0.
   -5000001    1    1    2    0    0  0.31100130398E+02  0.27648750287E+02 -0.72730695462E+03  0.74694851077E+03  0.16500000000E+03 0.  0.
<mgrwt>
<rscale>  0 0.35131613E+03</rscale>
<asrwt>0</asrwt>
<pdfrwt beam="1">  1        2 0.30164181E+00 0.35131613E+03</pdfrwt>
<pdfrwt beam="2">  1       -2 0.24211291E-02 0.35131613E+03</pdfrwt>
<totfact> 0.45372233E+03</totfact>
</mgrwt>
</event>
<event>
 4    1  0.1573232E-005  0.4042769E+03  0.7818608E-02  0.1042309E+00
          2   -1    0    0  501    0  0.00000000000E+00  0.00000000000E+00  0.21624630077E+04  0.21624630077E+04  0.25500000000E-02 0.  1.
         -2   -1    0    0    0  501 -0.00000000000E+00 -0.00000000000E+00 -0.18895097542E+02  0.18895097714E+02  0.25500000000E-02 0. -1.
    5000001    1    1    2    0    0  0.99265813121E+02  0.61262435579E+02  0.10431501092E+04  0.10625412642E+04  0.16500000000E+03 0.  0.
   -5000001    1    1    2    0    0 -0.99265813121E+02 -0.61262435579E+02  0.11004178009E+04  0.11188168413E+04  0.16500000000E+03 0.  0.
<mgrwt>
<rscale>  0 0.40427688E+03</rscale>
<asrwt>0</asrwt>
<pdfrwt beam="1">  1        2 0.33268669E+00 0.40427688E+03</pdfrwt>
<pdfrwt beam="2">  1       -2 0.29069375E-02 0.40427688E+03</pdfrwt>
<totfact> 0.26873306E+03</totfact>
</mgrwt>
</event>
<event>
 4    1  0.1573232E-005  0.5107560E+03  0.7818608E-02  0.1011009E+00
          2   -1    0    0  501    0  0.00000000000E+00  0.00000000000E+00  0.14303028211E+04  0.14303028211E+04  0.25500000000E-02 0.  1.
         -2   -1    0    0    0  501 -0.00000000000E+00 -0.00000000000E+00 -0.45597280237E+02  0.45597280309E+02  0.25500000000E-02 0. -1.
    5000001    1    1    2    0    0 -0.73376141328E+02 -0.91531868100E+02  0.24254477008E+03  0.31593528845E+03  0.16500000000E+03 0.  0.
   -5000001    1    1    2    0    0  0.73376141328E+02  0.91531868100E+02  0.11421607707E+04  0.11599648129E+04  0.16500000000E+03 0.  0.
<mgrwt>
<rscale>  0 0.51075598E+03</rscale>
<asrwt>0</asrwt>
<pdfrwt beam="1">  1        2 0.22004655E+00 0.51075598E+03</pdfrwt>
<pdfrwt beam="2">  1       -2 0.70149673E-02 0.51075598E+03</pdfrwt>
<totfact> 0.17163347E+03</totfact>
</mgrwt>
</event>
<event>
 4    1  0.1573232E-005  0.7755611E+03  0.7818608E-02  0.9596081E-01
          2   -1    0    0  501    0  0.00000000000E+00  0.00000000000E+00  0.54195398219E+03  0.54195398220E+03  0.25500000000E-02 0.  1.
         -2   -1    0    0    0  501 -0.00000000000E+00 -0.00000000000E+00 -0.27746591334E+03  0.27746591335E+03  0.25500000000E-02 0. -1.
    5000001    1    1    2    0    0  0.32722572742E+03 -0.11459572796E+03  0.74956952921E+02  0.39121912318E+03  0.16500000000E+03 0.  0.
   -5000001    1    1    2    0    0 -0.32722572742E+03  0.11459572796E+03  0.18953111593E+03  0.42820077237E+03  0.16500000000E+03 0.  0.
<mgrwt>
<rscale>  0 0.77556110E+03</rscale>
<asrwt>0</asrwt>
<pdfrwt beam="1">  1        2 0.83377535E-01 0.77556110E+03</pdfrwt>
<pdfrwt beam="2">  1       -2 0.42687064E-01 0.77556110E+03</pdfrwt>
<totfact> 0.29348941E+02</totfact>
</mgrwt>
</event>
<event>
 4    1  0.1573232E-005  0.4936956E+03  0.7818608E-02  0.1015438E+00
          2   -1    0    0  501    0  0.00000000000E+00  0.00000000000E+00  0.37465557020E+03  0.37465557021E+03  0.25500000000E-02 0.  1.
         -2   -1    0    0    0  501 -0.00000000000E+00 -0.00000000000E+00 -0.16263959925E+03  0.16263959927E+03  0.25500000000E-02 0. -1.
    5000001    1    1    2    0    0  0.43600149172E+02  0.13205313396E+03 -0.24452650043E+02  0.21716798864E+03  0.16500000000E+03 0.  0.
   -5000001    1    1    2    0    0 -0.43600149172E+02 -0.13205313396E+03  0.23646862099E+03  0.32012718084E+03  0.16500000000E+03 0.  0.
<mgrwt>
<rscale>  0 0.49369558E+03</rscale>
<asrwt>0</asrwt>
<pdfrwt beam="1">  1        2 0.57639318E-01 0.49369558E+03</pdfrwt>
<pdfrwt beam="2">  1       -2 0.25021477E-01 0.49369558E+03</pdfrwt>
<totfact> 0.12246836E+03</totfact>
</mgrwt>
</event>
<event>
 4    1  0.1573232E-005  0.4593636E+03  0.7818608E-02  0.1024966E+00
         -2   -1    0    0    0  501 -0.00000000000E+00  0.00000000000E+00  0.16445056247E+03  0.16445056249E+03  0.25500000000E-02 0. -1.
          2   -1    0    0  501    0  0.00000000000E+00 -0.00000000000E+00 -0.32078782793E+03  0.32078782794E+03  0.25500000000E-02 0.  1.
    5000001    1    1    2    0    0 -0.12498754088E+03 -0.10744020575E+01  0.26964861736E+02  0.20874660113E+03  0.16500000000E+03 0.  0.
   -5000001    1    1    2    0    0  0.12498754088E+03  0.10744020575E+01 -0.18330212719E+03  0.27649178930E+03  0.16500000000E+03 0.  0.
<mgrwt>
<rscale>  0 0.45936364E+03</rscale>
<asrwt>0</asrwt>
<pdfrwt beam="1">  1        2 0.49351974E-01 0.45936364E+03</pdfrwt>
<pdfrwt beam="2">  1       -2 0.25300087E-01 0.45936364E+03</pdfrwt>
<totfact> 0.14240968E+03</totfact>
</mgrwt>
</event>
<event>
 4    1  0.1573232E-005  0.6111584E+03  0.7818608E-02  0.9882523E-01
         -2   -1    0    0    0  501 -0.00000000000E+00  0.00000000000E+00  0.91005814578E+02  0.91005814614E+02  0.25500000000E-02 0. -1.
          2   -1    0    0  501    0  0.00000000000E+00 -0.00000000000E+00 -0.10260732594E+04  0.10260732594E+04  0.25500000000E-02 0.  1.
    5000001    1    1    2    0    0  0.22451122119E+03 -0.12516168955E+03 -0.45089206683E+03  0.54460939480E+03  0.16500000000E+03 0.  0.
   -5000001    1    1    2    0    0 -0.22451122119E+03  0.12516168955E+03 -0.48417537799E+03  0.57246967922E+03  0.16500000000E+03 0.  0.
<mgrwt>
<rscale>  0 0.61115835E+03</rscale>
<asrwt>0</asrwt>
<pdfrwt beam="1">  1        2 0.15785742E+00 0.61115835E+03</pdfrwt>
<pdfrwt beam="2">  1       -2 0.14000895E-01 0.61115835E+03</pdfrwt>
<totfact> 0.96196171E+02</totfact>
</mgrwt>
</event>
<event>
 4    1  0.1573232E-005  0.5941283E+03  0.7818608E-02  0.9917663E-01
          2   -1    0    0  501    0  0.00000000000E+00  0.00000000000E+00  0.31189692950E+04  0.31189692950E+04  0.25500000000E-02 0.  1.
         -2   -1    0    0    0  501 -0.00000000000E+00 -0.00000000000E+00 -0.28293679525E+02  0.28293679639E+02  0.25500000000E-02 0. -1.
    5000001    1    1    2    0    0  0.87847699709E+02  0.21635818644E+03  0.19722220005E+04  0.19928403605E+04  0.16500000000E+03 0.  0.
   -5000001    1    1    2    0    0 -0.87847699709E+02 -0.21635818644E+03  0.11184536149E+04  0.11544226141E+04  0.16500000000E+03 0.  0.
<mgrwt>
<rscale>  0 0.59412833E+03</rscale>
<asrwt>0</asrwt>
<pdfrwt beam="1">  1        2 0.47984164E+00 0.59412833E+03</pdfrwt>
<pdfrwt beam="2">  1       -2 0.43528719E-02 0.59412833E+03</pdfrwt>
<totfact> 0.40410213E+02</totfact>
</mgrwt>
</event>
<event>
 4    1  0.1573232E-005  0.4530777E+03  0.7818608E-02  0.1026808E+00
         -2   -1    0    0    0  501 -0.00000000000E+00  0.00000000000E+00  0.63824003415E+02  0.63824003466E+02  0.25500000000E-02 0. -1.
          2   -1    0    0  501    0  0.00000000000E+00 -0.00000000000E+00 -0.80408373846E+03  0.80408373847E+03  0.25500000000E-02 0.  1.
    5000001    1    1    2    0    0  0.11507119358E+03  0.74669428779E+02 -0.50929586437E+03  0.55265195254E+03  0.16500000000E+03 0.  0.
   -5000001    1    1    2    0    0 -0.11507119358E+03 -0.74669428779E+02 -0.23096387068E+03  0.31525578939E+03  0.16500000000E+03 0.  0.
<mgrwt>
<rscale>  0 0.45307767E+03</rscale>
<asrwt>0</asrwt>
<pdfrwt beam="1">  1        2 0.12370518E+00 0.45307767E+03</pdfrwt>
<pdfrwt beam="2">  1       -2 0.98190780E-02 0.45307767E+03</pdfrwt>
<totfact> 0.24176355E+03</totfact>
</mgrwt>
</event>
<event>
 4    1  0.1573232E-005  0.3956161E+03  0.7818608E-02  0.1045308E+00
          2   -1    0    0  501    0  0.00000000000E+00  0.00000000000E+00  0.19165560926E+04  0.19165560926E+04  0.25500000000E-02 0.  1.
         -2   -1    0    0    0  501 -0.00000000000E+00 -0.00000000000E+00 -0.20415799133E+02  0.20415799293E+02  0.25500000000E-02 0. -1.
    5000001    1    1    2    0    0  0.92776296397E+02  0.56580859604E+02  0.99558732729E+03  0.10150014587E+04  0.16500000000E+03 0.  0.
   -5000001    1    1    2    0    0 -0.92776296397E+02 -0.56580859604E+02  0.90055296620E+03  0.92197043325E+03  0.16500000000E+03 0.  0.
<mgrwt>
<rscale>  0 0.39561610E+03</rscale>
<asrwt>0</asrwt>
<pdfrwt beam="1">  1        2 0.29485489E+00 0.39561610E+03</pdfrwt>
<pdfrwt beam="2">  1       -2 0.31408911E-02 0.39561610E+03</pdfrwt>
<totfact> 0.32389753E+03</totfact>
</mgrwt>
</event>
<event>
 4    1  0.1573232E-005  0.9164433E+03  0.7818608E-02  0.9405257E-01
         -2   -1    0    0    0  501 -0.00000000000E+00  0.00000000000E+00  0.10142192888E+04  0.10142192888E+04  0.25500000000E-02 0. -1.
          2   -1    0    0  501    0  0.00000000000E+00 -0.00000000000E+00 -0.20702333385E+03  0.20702333386E+03  0.25500000000E-02 0.  1.
    5000001    1    1    2    0    0 -0.87833680017E+02 -0.20011629735E+03 -0.85991784166E+02  0.28702068698E+03  0.16500000000E+03 0.  0.
   -5000001    1    1    2    0    0  0.87833680017E+02  0.20011629735E+03  0.89318773910E+03  0.93422193567E+03  0.16500000000E+03 0.  0.
<mgrwt>
<rscale>  0 0.91644325E+03</rscale>
<asrwt>0</asrwt>
<pdfrwt beam="1">  1        2 0.31849743E-01 0.91644325E+03</pdfrwt>
<pdfrwt beam="2">  1       -2 0.15603374E+00 0.91644325E+03</pdfrwt>
<totfact> 0.44959705E+01</totfact>
</mgrwt>
</event>
<event>
 4    1  0.1573232E-005  0.6084852E+03  0.7818608E-02  0.9887957E-01
          2   -1    0    0  501    0  0.00000000000E+00  0.00000000000E+00  0.18396854238E+03  0.18396854240E+03  0.25500000000E-02 0.  1.
         -2   -1    0    0    0  501 -0.00000000000E+00 -0.00000000000E+00 -0.50314881398E+03  0.50314881398E+03  0.25500000000E-02 0. -1.
    5000001    1    1    2    0    0  0.21828955522E+03 -0.11338782430E+03 -0.81099373445E+02  0.30709809018E+03  0.16500000000E+03 0.  0.
   -5000001    1    1    2    0    0 -0.21828955522E+03  0.11338782430E+03 -0.23808089815E+03  0.38001926620E+03  0.16500000000E+03 0.  0.
<mgrwt>
<rscale>  0 0.60848518E+03</rscale>
<asrwt>0</asrwt>
<pdfrwt beam="1">  1        2 0.28302853E-01 0.60848518E+03</pdfrwt>
<pdfrwt beam="2">  1       -2 0.77407510E-01 0.60848518E+03</pdfrwt>
<totfact> 0.28604485E+02</totfact>
</mgrwt>
</event>
<event>
 4    1  0.1573232E-005  0.5939656E+03  0.7818608E-02  0.9918005E-01
         -2   -1    0    0    0  501 -0.00000000000E+00  0.00000000000E+00  0.68421718649E+02  0.68421718697E+02  0.25500000000E-02 0. -1.
          2   -1    0    0  501    0  0.00000000000E+00 -0.00000000000E+00 -0.12890467321E+04  0.12890467321E+04  0.25500000000E-02 0.  1.
    5000001    1    1    2    0    0  0.23499395703E+03 -0.36158940340E+02 -0.76266987767E+03  0.81573278168E+03  0.16500000000E+03 0.  0.
   -5000001    1    1    2    0    0 -0.23499395703E+03  0.36158940340E+02 -0.45795513580E+03  0.54173566913E+03  0.16500000000E+03 0.  0.
<mgrwt>
<rscale>  0 0.59396563E+03</rscale>
<asrwt>0</asrwt>
<pdfrwt beam="1">  1        2 0.19831486E+00 0.59396563E+03</pdfrwt>
<pdfrwt beam="2">  1       -2 0.10526419E-01 0.59396563E+03</pdfrwt>
<totfact> 0.10736679E+03</totfact>
</mgrwt>
</event>
<event>
 4    1  0.1573232E-005  0.4057789E+03  0.7818608E-02  0.1041797E+00
          2   -1    0    0  501    0  0.00000000000E+00  0.00000000000E+00  0.78227408167E+03  0.78227408167E+03  0.25500000000E-02 0.  1.
         -2   -1    0    0    0  501 -0.00000000000E+00 -0.00000000000E+00 -0.52621110994E+02  0.52621111055E+02  0.25500000000E-02 0. -1.
    5000001    1    1    2    0    0  0.10632619552E+03 -0.43412199732E+02  0.42114569471E+03  0.46666752096E+03  0.16500000000E+03 0.  0.
   -5000001    1    1    2    0    0 -0.10632619552E+03  0.43412199732E+02  0.30850727596E+03  0.36822767177E+03  0.16500000000E+03 0.  0.
<mgrwt>
<rscale>  0 0.40577891E+03</rscale>
<asrwt>0</asrwt>
<pdfrwt beam="1">  1        2 0.12034985E+00 0.40577891E+03</pdfrwt>
<pdfrwt beam="2">  1       -2 0.80955558E-02 0.40577891E+03</pdfrwt>
<totfact> 0.34053818E+03</totfact>
</mgrwt>
</event>
<event>
 4    1  0.1573232E-005  0.5491170E+03  0.7818608E-02  0.1001699E+00
          2   -1    0    0  501    0  0.00000000000E+00  0.00000000000E+00  0.14265675733E+04  0.14265675733E+04  0.25500000000E-02 0.  1.
         -2   -1    0    0    0  501 -0.00000000000E+00 -0.00000000000E+00 -0.52841784523E+02  0.52841784585E+02  0.25500000000E-02 0. -1.
    5000001    1    1    2    0    0  0.17175019319E+02 -0.20201710111E+03  0.91309996864E+03  0.94978020781E+03  0.16500000000E+03 0.  0.
   -5000001    1    1    2    0    0 -0.17175019319E+02  0.20201710111E+03  0.46062582014E+03  0.52962915008E+03  0.16500000000E+03 0.  0.
<mgrwt>
<rscale>  0 0.54911702E+03</rscale>
<asrwt>0</asrwt>
<pdfrwt beam="1">  1        2 0.21947195E+00 0.54911702E+03</pdfrwt>
<pdfrwt beam="2">  1       -2 0.81295046E-02 0.54911702E+03</pdfrwt>
<totfact> 0.13635190E+03</totfact>
</mgrwt>
</event>
<event>
 4    1  0.1573232E-005  0.5883253E+03  0.7818608E-02  0.9929928E-01
          2   -1    0    0  501    0  0.00000000000E+00  0.00000000000E+00  0.12970447986E+04  0.12970447986E+04  0.25500000000E-02 0.  1.
         -2   -1    0    0    0  501 -0.00000000000E+00 -0.00000000000E+00 -0.66714477517E+02  0.66714477566E+02  0.25500000000E-02 0. -1.
    5000001    1    1    2    0    0  0.15884379333E+03 -0.12968813325E+03  0.91966991243E+03  0.95659192470E+03  0.16500000000E+03 0.  0.
   -5000001    1    1    2    0    0 -0.15884379333E+03  0.12968813325E+03  0.31066040861E+03  0.40716735142E+03  0.16500000000E+03 0.  0.
<mgrwt>
<rscale>  0 0.58832530E+03</rscale>
<asrwt>0</asrwt>
<pdfrwt beam="1">  1        2 0.19954536E+00 0.58832530E+03</pdfrwt>
<pdfrwt beam="2">  1       -2 0.10263766E-01 0.58832530E+03</pdfrwt>
<totfact> 0.11071982E+03</totfact>
</mgrwt>
</event>
<event>
 4    1  0.1573232E-005  0.3746350E+03  0.7818608E-02  0.1052935E+00
         -2   -1    0    0    0  501 -0.00000000000E+00  0.00000000000E+00  0.22458041119E+02  0.22458041263E+02  0.25500000000E-02 0. -1.
          2   -1    0    0  501    0  0.00000000000E+00 -0.00000000000E+00 -0.15623735918E+04  0.15623735918E+04  0.25500000000E-02 0.  1.
    5000001    1    1    2    0    0 -0.69490795919E+02 -0.45116643001E+02 -0.63629202427E+03  0.66253831764E+03  0.16500000000E+03 0.  0.
   -5000001    1    1    2    0    0  0.69490795919E+02  0.45116643001E+02 -0.90362352643E+03  0.92229331545E+03  0.16500000000E+03 0.  0.
<mgrwt>
<rscale>  0 0.37463502E+03</rscale>
<asrwt>0</asrwt>
<pdfrwt beam="1">  1        2 0.24036508E+00 0.37463502E+03</pdfrwt>
<pdfrwt beam="2">  1       -2 0.34550845E-02 0.37463502E+03</pdfrwt>
<totfact> 0.43374768E+03</totfact>
</mgrwt>
</event>
<event>
 4    1  0.1573232E-005  0.6143761E+03  0.7818608E-02  0.9876021E-01
          2   -1    0    0  501    0  0.00000000000E+00  0.00000000000E+00  0.67214863905E+03  0.67214863905E+03  0.25500000000E-02 0.  1.
         -2   -1    0    0    0  501 -0.00000000000E+00 -0.00000000000E+00 -0.14039229819E+03  0.14039229821E+03  0.25500000000E-02 0. -1.
    5000001    1    1    2    0    0  0.93898403309E+02 -0.24029187726E+03  0.29779502236E+03  0.42715801733E+03  0.16500000000E+03 0.  0.
   -5000001    1    1    2    0    0 -0.93898403309E+02  0.24029187726E+03  0.23396131850E+03  0.38538291993E+03  0.16500000000E+03 0.  0.
<mgrwt>
<rscale>  0 0.61437608E+03</rscale>
<asrwt>0</asrwt>
<pdfrwt beam="1">  1        2 0.10340748E+00 0.61437608E+03</pdfrwt>
<pdfrwt beam="2">  1       -2 0.21598815E-01 0.61437608E+03</pdfrwt>
<totfact> 0.80749573E+02</totfact>
</mgrwt>
</event>
<event>
 4    1  0.1573232E-005  0.6193418E+03  0.7818608E-02  0.9866071E-01
         -2   -1    0    0    0  501 -0.00000000000E+00  0.00000000000E+00  0.82275922430E+02  0.82275922470E+02  0.25500000000E-02 0. -1.
          2   -1    0    0  501    0  0.00000000000E+00 -0.00000000000E+00 -0.11655421864E+04  0.11655421864E+04  0.25500000000E-02 0.  1.
    5000001    1    1    2    0    0  0.69139693969E+02  0.22423753792E+03 -0.77666278165E+03  0.82794495415E+03  0.16500000000E+03 0.  0.
   -5000001    1    1    2    0    0 -0.69139693969E+02 -0.22423753792E+03 -0.30660348233E+03  0.41987315474E+03  0.16500000000E+03 0.  0.
<mgrwt>
<rscale>  0 0.61934177E+03</rscale>
<asrwt>0</asrwt>
<pdfrwt beam="1">  1        2 0.17931417E+00 0.61934177E+03</pdfrwt>
<pdfrwt beam="2">  1       -2 0.12657835E-01 0.61934177E+03</pdfrwt>
<totfact> 0.93543372E+02</totfact>
</mgrwt>
</event>
<event>
 4    1  0.1573232E-005  0.5289646E+03  0.7818608E-02  0.1006484E+00
         -2   -1    0    0    0  501 -0.00000000000E+00  0.00000000000E+00  0.11023060782E+03  0.11023060785E+03  0.25500000000E-02 0. -1.
          2   -1    0    0  501    0  0.00000000000E+00 -0.00000000000E+00 -0.63458668752E+03  0.63458668752E+03  0.25500000000E-02 0.  1.
    5000001    1    1    2    0    0 -0.93376391686E+02 -0.17384155088E+03 -0.17554084941E+03  0.31141551848E+03  0.16500000000E+03 0.  0.
   -5000001    1    1    2    0    0  0.93376391686E+02  0.17384155088E+03 -0.34881523029E+03  0.43340177690E+03  0.16500000000E+03 0.  0.
<mgrwt>
<rscale>  0 0.52896456E+03</rscale>
<asrwt>0</asrwt>
<pdfrwt beam="1">  1        2 0.97628719E-01 0.52896456E+03</pdfrwt>
<pdfrwt beam="2">  1       -2 0.16958555E-01 0.52896456E+03</pdfrwt>
<totfact> 0.13185568E+03</totfact>
</mgrwt>
</event>
<event>
 4    1  0.1573232E-005  0.6446488E+03  0.7818608E-02  0.9816872E-01
         -2   -1    0    0    0  501 -0.00000000000E+00  0.00000000000E+00  0.14069926495E+03  0.14069926498E+03  0.25500000000E-02 0. -1.
          2   -1    0    0  501    0  0.00000000000E+00 -0.00000000000E+00 -0.73840495571E+03  0.73840495572E+03  0.25500000000E-02 0.  1.
    5000001    1    1    2    0    0  0.63092047742E+02  0.17554038322E+03 -0.19801447655E+02  0.24982419811E+03  0.16500000000E+03 0.  0.
   -5000001    1    1    2    0    0 -0.63092047742E+02 -0.17554038322E+03 -0.57790424311E+03  0.62928002259E+03  0.16500000000E+03 0.  0.
<mgrwt>
<rscale>  0 0.64464885E+03</rscale>
<asrwt>0</asrwt>
<pdfrwt beam="1">  1        2 0.11360076E+00 0.64464885E+03</pdfrwt>
<pdfrwt beam="2">  1       -2 0.21646041E-01 0.64464885E+03</pdfrwt>
<totfact> 0.71415521E+02</totfact>
</mgrwt>
</event>
<event>
 4    1  0.1573232E-005  0.3707123E+03  0.7818608E-02  0.1054421E+00
          2   -1    0    0  501    0  0.00000000000E+00  0.00000000000E+00  0.16979959725E+03  0.16979959727E+03  0.25500000000E-02 0.  1.
         -2   -1    0    0    0  501 -0.00000000000E+00 -0.00000000000E+00 -0.20233799058E+03  0.20233799059E+03  0.25500000000E-02 0. -1.
    5000001    1    1    2    0    0  0.18031800929E+02  0.76475640530E+02 -0.47343658629E+02  0.18878583488E+03  0.16500000000E+03 0.  0.
   -5000001    1    1    2    0    0 -0.18031800929E+02 -0.76475640530E+02  0.14805265302E+02  0.18335175298E+03  0.16500000000E+03 0.  0.
<mgrwt>
<rscale>  0 0.37071234E+03</rscale>
<asrwt>0</asrwt>
<pdfrwt beam="1">  1        2 0.26123015E-01 0.37071234E+03</pdfrwt>
<pdfrwt beam="2">  1       -2 0.31128922E-01 0.37071234E+03</pdfrwt>
<totfact> 0.19673864E+03</totfact>
</mgrwt>
</event>
<event>
 4    1  0.1573232E-005  0.4932627E+03  0.7818608E-02  0.1015553E+00
         -2   -1    0    0    0  501 -0.00000000000E+00  0.00000000000E+00  0.34084672786E+02  0.34084672881E+02  0.25500000000E-02 0. -1.
          2   -1    0    0  501    0  0.00000000000E+00 -0.00000000000E+00 -0.17845860805E+04  0.17845860805E+04  0.25500000000E-02 0.  1.
    5000001    1    1    2    0    0  0.14633334007E+03 -0.10977730277E+03 -0.91848960226E+03  0.95095354886E+03  0.16500000000E+03 0.  0.
   -5000001    1    1    2    0    0 -0.14633334007E+03  0.10977730277E+03 -0.83201180545E+03  0.86771720452E+03  0.16500000000E+03 0.  0.
<mgrwt>
<rscale>  0 0.49326274E+03</rscale>
<asrwt>0</asrwt>
<pdfrwt beam="1">  1        2 0.27455163E+00 0.49326274E+03</pdfrwt>
<pdfrwt beam="2">  1       -2 0.52437972E-02 0.49326274E+03</pdfrwt>
<totfact> 0.17357824E+03</totfact>
</mgrwt>
</event>
<event>
 4    1  0.1573232E-005  0.6631632E+03  0.7818608E-02  0.9782388E-01
         -2   -1    0    0    0  501 -0.00000000000E+00  0.00000000000E+00  0.47081819174E+02  0.47081819243E+02  0.25500000000E-02 0. -1.
          2   -1    0    0  501    0  0.00000000000E+00 -0.00000000000E+00 -0.23352190333E+04  0.23352190333E+04  0.25500000000E-02 0.  1.
    5000001    1    1    2    0    0  0.14370727711E+03 -0.22109042540E+03 -0.15566176404E+04  0.15873929054E+04  0.16500000000E+03 0.  0.
   -5000001    1    1    2    0    0 -0.14370727711E+03  0.22109042540E+03 -0.73151957376E+03  0.79490794718E+03  0.16500000000E+03 0.  0.
<mgrwt>
<rscale>  0 0.66316321E+03</rscale>
<asrwt>0</asrwt>
<pdfrwt beam="1">  1        2 0.35926438E+00 0.66316321E+03</pdfrwt>
<pdfrwt beam="2">  1       -2 0.72433586E-02 0.66316321E+03</pdfrwt>
<totfact> 0.51919758E+02</totfact>
</mgrwt>
</event>
<event>
 4    1  0.1573232E-005  0.4747736E+03  0.7818608E-02  0.1020581E+00
          2   -1    0    0  501    0  0.00000000000E+00  0.00000000000E+00  0.38032880126E+02  0.38032880211E+02  0.25500000000E-02 0.  1.
         -2   -1    0    0    0  501 -0.00000000000E+00 -0.00000000000E+00 -0.14816785388E+04  0.14816785388E+04  0.25500000000E-02 0. -1.
    5000001    1    1    2    0    0  0.14601861638E+03  0.87700912391E+02 -0.75609148433E+03  0.79240912352E+03  0.16500000000E+03 0.  0.
   -5000001    1    1    2    0    0 -0.14601861638E+03 -0.87700912391E+02 -0.68755417429E+03  0.72730229544E+03  0.16500000000E+03 0.  0.
<mgrwt>
<rscale>  0 0.47477364E+03</rscale>
<asrwt>0</asrwt>
<pdfrwt beam="1">  1        2 0.58512135E-02 0.47477364E+03</pdfrwt>
<pdfrwt beam="2">  1       -2 0.22795050E+00 0.47477364E+03</pdfrwt>
<totfact> 0.12244286E+02</totfact>
</mgrwt>
</event>
<event>
 4    1  0.1573232E-005  0.5912862E+03  0.7818608E-02  0.9923651E-01
         -2   -1    0    0    0  501 -0.00000000000E+00  0.00000000000E+00  0.44616484043E+02  0.44616484116E+02  0.25500000000E-02 0. -1.
          2   -1    0    0  501    0  0.00000000000E+00 -0.00000000000E+00 -0.19590254664E+04  0.19590254664E+04  0.25500000000E-02 0.  1.
    5000001    1    1    2    0    0 -0.60438240176E+02 -0.11121219636E+03 -0.16692889487E+04  0.16821924764E+04  0.16500000000E+03 0.  0.
   -5000001    1    1    2    0    0  0.60438240176E+02  0.11121219636E+03 -0.24512003366E+03  0.32144947409E+03  0.16500000000E+03 0.  0.
<mgrwt>
<rscale>  0 0.59128615E+03</rscale>
<asrwt>0</asrwt>
<pdfrwt beam="1">  1        2 0.30138847E+00 0.59128615E+03</pdfrwt>
<pdfrwt beam="2">  1       -2 0.68640760E-02 0.59128615E+03</pdfrwt>
<totfact> 0.91269189E+02</totfact>
</mgrwt>
</event>
<event>
 4    1  0.1573232E-005  0.1577726E+04  0.7818608E-02  0.8834350E-01
          2   -1    0    0  501    0  0.00000000000E+00  0.00000000000E+00  0.31652244997E+04  0.31652244997E+04  0.25500000000E-02 0.  1.
         -2   -1    0    0    0  501 -0.00000000000E+00 -0.00000000000E+00 -0.19660681328E+03  0.19660681330E+03  0.25500000000E-02 0. -1.
    5000001    1    1    2    0    0 -0.63470149202E+02 -0.73506232186E+03  0.10043581647E+04  0.12571019847E+04  0.16500000000E+03 0.  0.
   -5000001    1    1    2    0    0  0.63470149202E+02  0.73506232186E+03  0.19642595217E+04  0.21047293283E+04  0.16500000000E+03 0.  0.
<mgrwt>
<rscale>  0 0.15777258E+04</rscale>
<asrwt>0</asrwt>
<pdfrwt beam="1">  1        2 0.48695760E+00 0.15777258E+04</pdfrwt>
<pdfrwt beam="2">  1       -2 0.30247203E-01 0.15777258E+04</pdfrwt>
<totfact> 0.13358157E+01</totfact>
</mgrwt>
</event>
<event>
 4    1  0.1573232E-005  0.4642481E+03  0.7818608E-02  0.1023556E+00
          2   -1    0    0  501    0  0.00000000000E+00  0.00000000000E+00  0.12830633803E+04  0.12830633803E+04  0.25500000000E-02 0.  1.
         -2   -1    0    0    0  501 -0.00000000000E+00 -0.00000000000E+00 -0.41994483198E+02  0.41994483275E+02  0.25500000000E-02 0. -1.
    5000001    1    1    2    0    0  0.15776342168E+03  0.41997162523E+02  0.62589300849E+03  0.66754783871E+03  0.16500000000E+03 0.  0.
   -5000001    1    1    2    0    0 -0.15776342168E+03 -0.41997162523E+02  0.61517588862E+03  0.65751002488E+03  0.16500000000E+03 0.  0.
<mgrwt>
<rscale>  0 0.46424814E+03</rscale>
<asrwt>0</asrwt>
<pdfrwt beam="1">  1        2 0.19739436E+00 0.46424814E+03</pdfrwt>
<pdfrwt beam="2">  1       -2 0.64606900E-02 0.46424814E+03</pdfrwt>
<totfact> 0.23648388E+03</totfact>
</mgrwt>
</event>
<event>
 4    1  0.1573232E-005  0.4078962E+03  0.7818608E-02  0.1041079E+00
          2   -1    0    0  501    0  0.00000000000E+00  0.00000000000E+00  0.11222716466E+04  0.11222716466E+04  0.25500000000E-02 0.  1.
         -2   -1    0    0    0  501 -0.00000000000E+00 -0.00000000000E+00 -0.37063069379E+02  0.37063069466E+02  0.25500000000E-02 0. -1.
    5000001    1    1    2    0    0  0.37706340095E+02 -0.10825032458E+03  0.44292623494E+03  0.48636257098E+03  0.16500000000E+03 0.  0.
   -5000001    1    1    2    0    0 -0.37706340095E+02  0.10825032458E+03  0.64228234224E+03  0.67297214505E+03  0.16500000000E+03 0.  0.
<mgrwt>
<rscale>  0 0.40789622E+03</rscale>
<asrwt>0</asrwt>
<pdfrwt beam="1">  1        2 0.17265720E+00 0.40789622E+03</pdfrwt>
<pdfrwt beam="2">  1       -2 0.57020098E-02 0.40789622E+03</pdfrwt>
<totfact> 0.35604586E+03</totfact>
</mgrwt>
</event>
<event>
 4    1  0.1573232E-005  0.5180201E+03  0.7818608E-02  0.1009180E+00
          2   -1    0    0  501    0  0.00000000000E+00  0.00000000000E+00  0.10281696272E+04  0.10281696272E+04  0.25500000000E-02 0.  1.
         -2   -1    0    0    0  501 -0.00000000000E+00 -0.00000000000E+00 -0.65248190684E+02  0.65248190734E+02  0.25500000000E-02 0. -1.
    5000001    1    1    2    0    0  0.18468644838E+03  0.65039713726E+02  0.39911499385E+03  0.47419091819E+03  0.16500000000E+03 0.  0.
   -5000001    1    1    2    0    0 -0.18468644838E+03 -0.65039713726E+02  0.56380644267E+03  0.61922689975E+03  0.16500000000E+03 0.  0.
<mgrwt>
<rscale>  0 0.51802011E+03</rscale>
<asrwt>0</asrwt>
<pdfrwt beam="1">  1        2 0.15817994E+00 0.51802011E+03</pdfrwt>
<pdfrwt beam="2">  1       -2 0.10038183E-01 0.51802011E+03</pdfrwt>
<totfact> 0.16607794E+03</totfact>
</mgrwt>
</event>
<event>
 4    1  0.1573232E-005  0.5725587E+03  0.7818608E-02  0.9964033E-01
          2   -1    0    0  501    0  0.00000000000E+00  0.00000000000E+00  0.86961659141E+03  0.86961659141E+03  0.25500000000E-02 0.  1.
         -2   -1    0    0    0  501 -0.00000000000E+00 -0.00000000000E+00 -0.94243666670E+02  0.94243666704E+02  0.25500000000E-02 0. -1.
    5000001    1    1    2    0    0 -0.14805134152E+03  0.14461162183E+03  0.57131990813E+03  0.62965320481E+03  0.16500000000E+03 0.  0.
   -5000001    1    1    2    0    0  0.14805134152E+03 -0.14461162183E+03  0.20405301660E+03  0.33420705331E+03  0.16500000000E+03 0.  0.
<mgrwt>
<rscale>  0 0.57255866E+03</rscale>
<asrwt>0</asrwt>
<pdfrwt beam="1">  1        2 0.13378717E+00 0.57255866E+03</pdfrwt>
<pdfrwt beam="2">  1       -2 0.14499026E-01 0.57255866E+03</pdfrwt>
<totfact> 0.11479426E+03</totfact>
</mgrwt>
</event>
<event>
 4    1  0.1573232E-005  0.7060090E+03  0.7818608E-02  0.9707011E-01
         -2   -1    0    0    0  501 -0.00000000000E+00  0.00000000000E+00  0.12908308923E+03  0.12908308926E+03  0.25500000000E-02 0. -1.
          2   -1    0    0  501    0  0.00000000000E+00 -0.00000000000E+00 -0.96536420516E+03  0.96536420516E+03  0.25500000000E-02 0.  1.
    5000001    1    1    2    0    0  0.10255916931E+02  0.27328714672E+03 -0.65116515528E+03  0.72528070969E+03  0.16500000000E+03 0.  0.
   -5000001    1    1    2    0    0 -0.10255916931E+02 -0.27328714672E+03 -0.18511596065E+03  0.36916658473E+03  0.16500000000E+03 0.  0.
<mgrwt>
<rscale>  0 0.70600905E+03</rscale>
<asrwt>0</asrwt>
<pdfrwt beam="1">  1        2 0.14851757E+00 0.70600905E+03</pdfrwt>
<pdfrwt beam="2">  1       -2 0.19858937E-01 0.70600905E+03</pdfrwt>
<totfact> 0.57693598E+02</totfact>
</mgrwt>
</event>
<event>
 4    1  0.1573232E-005  0.5375094E+03  0.7818608E-02  0.1004427E+00
         -2   -1    0    0    0  501 -0.00000000000E+00  0.00000000000E+00  0.50409662412E+02  0.50409662477E+02  0.25500000000E-02 0. -1.
          2   -1    0    0  501    0  0.00000000000E+00 -0.00000000000E+00 -0.14328421027E+04  0.14328421027E+04  0.25500000000E-02 0.  1.
    5000001    1    1    2    0    0 -0.16696034589E+03 -0.12642162770E+03 -0.78462818245E+03  0.82868846363E+03  0.16500000000E+03 0.  0.
   -5000001    1    1    2    0    0  0.16696034589E+03  0.12642162770E+03 -0.59780425785E+03  0.65456330156E+03  0.16500000000E+03 0.  0.
<mgrwt>
<rscale>  0 0.53750939E+03</rscale>
<asrwt>0</asrwt>
<pdfrwt beam="1">  1        2 0.22043722E+00 0.53750939E+03</pdfrwt>
<pdfrwt beam="2">  1       -2 0.77553338E-02 0.53750939E+03</pdfrwt>
<totfact> 0.14584714E+03</totfact>
</mgrwt>
</event>
<event>
 4    1  0.1573232E-005  0.6131982E+03  0.7818608E-02  0.9878396E-01
          2   -1    0    0  501    0  0.00000000000E+00  0.00000000000E+00  0.58966772167E+03  0.58966772167E+03  0.25500000000E-02 0. -1.
         -2   -1    0    0    0  501 -0.00000000000E+00 -0.00000000000E+00 -0.15941688923E+03  0.15941688925E+03  0.25500000000E-02 0.  1.
    5000001    1    1    2    0    0  0.44809150301E+02  0.23240928260E+03  0.34181958613E+03  0.44731148437E+03  0.16500000000E+03 0.  0.
   -5000001    1    1    2    0    0 -0.44809150301E+02 -0.23240928260E+03  0.88431246300E+02  0.30177312655E+03  0.16500000000E+03 0.  0.
<mgrwt>
<rscale>  0 0.61319815E+03</rscale>
<asrwt>0</asrwt>
<pdfrwt beam="1">  1        2 0.90718114E-01 0.61319815E+03</pdfrwt>
<pdfrwt beam="2">  1       -2 0.24525674E-01 0.61319815E+03</pdfrwt>
<totfact> 0.75542755E+02</totfact>
</mgrwt>
</event>
<event>
 4    1  0.1573232E-005  0.5166745E+03  0.7818608E-02  0.1009516E+00
         -2   -1    0    0    0  501 -0.00000000000E+00  0.00000000000E+00  0.36704242765E+02  0.36704242854E+02  0.25500000000E-02 0. -1.
          2   -1    0    0  501    0  0.00000000000E+00 -0.00000000000E+00 -0.18182676026E+04  0.18182676026E+04  0.25500000000E-02 0.  1.
    5000001    1    1    2    0    0  0.18902677809E+03  0.56624102078E+02 -0.97692614680E+03  0.10102213164E+04  0.16500000000E+03 0.  0.
   -5000001    1    1    2    0    0 -0.18902677809E+03 -0.56624102078E+02 -0.80463721302E+03  0.84475052906E+03  0.16500000000E+03 0.  0.
<mgrwt>
<rscale>  0 0.51667450E+03</rscale>
<asrwt>0</asrwt>
<pdfrwt beam="1">  1        2 0.27973341E+00 0.51667450E+03</pdfrwt>
<pdfrwt beam="2">  1       -2 0.56468080E-02 0.51667450E+03</pdfrwt>
<totfact> 0.14824550E+03</totfact>
</mgrwt>
</event>
<event>
 4    1  0.1573232E-005  0.5013551E+03  0.7818608E-02  0.1013426E+00
          2   -1    0    0  501    0  0.00000000000E+00  0.00000000000E+00  0.23698853636E+04  0.23698853636E+04  0.25500000000E-02 0.  1.
         -2   -1    0    0    0  501 -0.00000000000E+00 -0.00000000000E+00 -0.26515724457E+02  0.26515724579E+02  0.25500000000E-02 0. -1.
    5000001    1    1    2    0    0 -0.65102550456E+02  0.21845614591E+01  0.32508327231E+03  0.37033396863E+03  0.16500000000E+03 0.  0.
   -5000001    1    1    2    0    0  0.65102550456E+02 -0.21845614591E+01  0.20182863669E+04  0.20260671196E+04  0.16500000000E+03 0.  0.
<mgrwt>
<rscale>  0 0.50135507E+03</rscale>
<asrwt>0</asrwt>
<pdfrwt beam="1">  1        2 0.36459771E+00 0.50135507E+03</pdfrwt>
<pdfrwt beam="2">  1       -2 0.40793426E-02 0.50135507E+03</pdfrwt>
<totfact> 0.12310150E+03</totfact>
</mgrwt>
</event>
<event>
 4    1  0.1573232E-005  0.5436299E+03  0.7818608E-02  0.1002979E+00
          2   -1    0    0  501    0  0.00000000000E+00  0.00000000000E+00  0.73230994300E+03  0.73230994300E+03  0.25500000000E-02 0.  1.
         -2   -1    0    0    0  501 -0.00000000000E+00 -0.00000000000E+00 -0.10089085946E+03  0.10089085949E+03  0.25500000000E-02 0. -1.
    5000001    1    1    2    0    0 -0.11708313481E+03 -0.54576310754E+02  0.58104752689E+03  0.61767974118E+03  0.16500000000E+03 0.  0.
   -5000001    1    1    2    0    0  0.11708313481E+03  0.54576310754E+02  0.50371556642E+02  0.21552106132E+03  0.16500000000E+03 0.  0.
<mgrwt>
<rscale>  0 0.54362995E+03</rscale>
<asrwt>0</asrwt>
<pdfrwt beam="1">  1        2 0.11266307E+00 0.54362995E+03</pdfrwt>
<pdfrwt beam="2">  1       -2 0.15521670E-01 0.54362995E+03</pdfrwt>
<totfact> 0.12829057E+03</totfact>
</mgrwt>
</event>
<event>
 4    1  0.1573232E-005  0.3914000E+03  0.7818608E-02  0.1046799E+00
         -2   -1    0    0    0  501 -0.00000000000E+00  0.00000000000E+00  0.89513431221E+01  0.89513434853E+01  0.25500000000E-02 0.  1.
          2   -1    0    0  501    0  0.00000000000E+00 -0.00000000000E+00 -0.42785193960E+04  0.42785193960E+04  0.25500000000E-02 0. -1.
    5000001    1    1    2    0    0 -0.56566194119E+01  0.10441456838E+03 -0.22639768648E+04  0.22723887528E+04  0.16500000000E+03 0.  0.
   -5000001    1    1    2    0    0  0.56566194119E+01 -0.10441456838E+03 -0.20055911881E+04  0.20150819867E+04  0.16500000000E+03 0.  0.
<mgrwt>
<rscale>  0 0.39140003E+03</rscale>
<asrwt>0</asrwt>
<pdfrwt beam="1">  1        2 0.65823212E+00 0.39140003E+03</pdfrwt>
<pdfrwt beam="2">  1       -2 0.13771332E-02 0.39140003E+03</pdfrwt>
<totfact> 0.34533007E+02</totfact>
</mgrwt>
</event>
<event>
 4    1  0.1573232E-005  0.5027093E+03  0.7818608E-02  0.1013074E+00
         -2   -1    0    0    0  501 -0.00000000000E+00  0.00000000000E+00  0.94112429425E+02  0.94112429460E+02  0.25500000000E-02 0. -1.
          2   -1    0    0  501    0  0.00000000000E+00 -0.00000000000E+00 -0.67131572671E+03  0.67131572672E+03  0.25500000000E-02 0.  1.
    5000001    1    1    2    0    0 -0.53265264913E+02  0.11362846811E+03 -0.72169021582E+02  0.21950395187E+03  0.16500000000E+03 0.  0.
   -5000001    1    1    2    0    0  0.53265264913E+02 -0.11362846811E+03 -0.50503427571E+03  0.54592420431E+03  0.16500000000E+03 0.  0.
<mgrwt>
<rscale>  0 0.50270928E+03</rscale>
<asrwt>0</asrwt>
<pdfrwt beam="1">  1        2 0.10327934E+00 0.50270928E+03</pdfrwt>
<pdfrwt beam="2">  1       -2 0.14478836E-01 0.50270928E+03</pdfrwt>
<totfact> 0.16075417E+03</totfact>
</mgrwt>
</event>
<event>
 4    1  0.1573232E-005  0.4188705E+03  0.7818608E-02  0.1037435E+00
         -2   -1    0    0    0  501 -0.00000000000E+00  0.00000000000E+00  0.72565508328E+02  0.72565508373E+02  0.25500000000E-02 0. -1.
          2   -1    0    0  501    0  0.00000000000E+00 -0.00000000000E+00 -0.60446250078E+03  0.60446250078E+03  0.25500000000E-02 0.  1.
    5000001    1    1    2    0    0  0.12647752489E+03  0.17829685706E+02 -0.29502725186E+03  0.36135929673E+03  0.16500000000E+03 0.  0.
   -5000001    1    1    2    0    0 -0.12647752489E+03 -0.17829685706E+02 -0.23686974059E+03  0.31566871242E+03  0.16500000000E+03 0.  0.
<mgrwt>
<rscale>  0 0.41887052E+03</rscale>
<asrwt>0</asrwt>
<pdfrwt beam="1">  1        2 0.92994227E-01 0.41887052E+03</pdfrwt>
<pdfrwt beam="2">  1       -2 0.11163925E-01 0.41887052E+03</pdfrwt>
<totfact> 0.27964975E+03</totfact>
</mgrwt>
</event>
<event>
 4    1  0.1573232E-005  0.4186724E+03  0.7818608E-02  0.1037499E+00
          2   -1    0    0  501    0  0.00000000000E+00  0.00000000000E+00  0.51668281466E+03  0.51668281467E+03  0.25500000000E-02 0.  1.
         -2   -1    0    0    0  501 -0.00000000000E+00 -0.00000000000E+00 -0.84813415334E+02  0.84813415372E+02  0.25500000000E-02 0. -1.
    5000001    1    1    2    0    0 -0.97138388778E+02 -0.75350713359E+01  0.94844273048E+02  0.21380617392E+03  0.16500000000E+03 0.  0.
   -5000001    1    1    2    0    0  0.97138388778E+02  0.75350713359E+01  0.33702512628E+03  0.38769005613E+03  0.16500000000E+03 0.  0.
<mgrwt>
<rscale>  0 0.41867235E+03</rscale>
<asrwt>0</asrwt>
<pdfrwt beam="1">  1        2 0.79489664E-01 0.41867235E+03</pdfrwt>
<pdfrwt beam="2">  1       -2 0.13048218E-01 0.41867235E+03</pdfrwt>
<totfact> 0.26014244E+03</totfact>
</mgrwt>
</event>
<event>
 4    1  0.1573232E-005  0.6404054E+03  0.7818608E-02  0.9824951E-01
         -2   -1    0    0    0  501 -0.00000000000E+00  0.00000000000E+00  0.16635933294E+03  0.16635933296E+03  0.25500000000E-02 0. -1.
          2   -1    0    0  501    0  0.00000000000E+00 -0.00000000000E+00 -0.61631509976E+03  0.61631509977E+03  0.25500000000E-02 0.  1.
    5000001    1    1    2    0    0  0.60455990780E+02  0.12669596621E+03  0.63196681506E+02  0.22566704507E+03  0.16500000000E+03 0.  0.
   -5000001    1    1    2    0    0 -0.60455990780E+02 -0.12669596621E+03 -0.51315244833E+03  0.55700738766E+03  0.16500000000E+03 0.  0.
<mgrwt>
<rscale>  0 0.64040540E+03</rscale>
<asrwt>0</asrwt>
<pdfrwt beam="1">  1        2 0.94817707E-01 0.64040540E+03</pdfrwt>
<pdfrwt beam="2">  1       -2 0.25593744E-01 0.64040540E+03</pdfrwt>
<totfact> 0.66308243E+02</totfact>
</mgrwt>
</event>
<event>
 4    1  0.1573232E-005  0.4463500E+03  0.7818608E-02  0.1028816E+00
          2   -1    0    0  501    0  0.00000000000E+00  0.00000000000E+00  0.10673921774E+04  0.10673921774E+04  0.25500000000E-02 0.  1.
         -2   -1    0    0    0  501 -0.00000000000E+00 -0.00000000000E+00 -0.46662406809E+02  0.46662406878E+02  0.25500000000E-02 0. -1.
    5000001    1    1    2    0    0  0.40939979650E+02  0.14010175794E+03  0.42115521099E+03  0.47529074918E+03  0.16500000000E+03 0.  0.
   -5000001    1    1    2    0    0 -0.40939979650E+02 -0.14010175794E+03  0.59957455963E+03  0.63876383513E+03  0.16500000000E+03 0.  0.
<mgrwt>
<rscale>  0 0.44635003E+03</rscale>
<asrwt>0</asrwt>
<pdfrwt beam="1">  1        2 0.16421418E+00 0.44635003E+03</pdfrwt>
<pdfrwt beam="2">  1       -2 0.71788317E-02 0.44635003E+03</pdfrwt>
<totfact> 0.26823322E+03</totfact>
</mgrwt>
</event>
<event>
 4    1  0.1573232E-005  0.3994022E+03  0.7818608E-02  0.1043987E+00
          2   -1    0    0  501    0  0.00000000000E+00  0.00000000000E+00  0.13282189563E+04  0.13282189563E+04  0.25500000000E-02 0.  1.
         -2   -1    0    0    0  501 -0.00000000000E+00 -0.00000000000E+00 -0.30025573918E+02  0.30025574026E+02  0.25500000000E-02 0. -1.
    5000001    1    1    2    0    0  0.37094533538E+02  0.75360607211E+02  0.39460503672E+03  0.43588227830E+03  0.16500000000E+03 0.  0.
   -5000001    1    1    2    0    0 -0.37094533538E+02 -0.75360607211E+02  0.90358834569E+03  0.92236225205E+03  0.16500000000E+03 0.  0.
<mgrwt>
<rscale>  0 0.39940224E+03</rscale>
<asrwt>0</asrwt>
<pdfrwt beam="1">  1        2 0.20434136E+00 0.39940224E+03</pdfrwt>
<pdfrwt beam="2">  1       -2 0.46193194E-02 0.39940224E+03</pdfrwt>
<totfact> 0.37484928E+03</totfact>
</mgrwt>
</event>
<event>
 4    1  0.1573232E-005  0.4256358E+03  0.7818608E-02  0.1035248E+00
          2   -1    0    0  501    0  0.00000000000E+00  0.00000000000E+00  0.12423712955E+04  0.12423712955E+04  0.25500000000E-02 0.  1.
         -2   -1    0    0    0  501 -0.00000000000E+00 -0.00000000000E+00 -0.36455647983E+02  0.36455648073E+02  0.25500000000E-02 0. -1.
    5000001    1    1    2    0    0 -0.96341453214E+02  0.62539659910E+02  0.39321017912E+03  0.44162442146E+03  0.16500000000E+03 0.  0.
   -5000001    1    1    2    0    0  0.96341453214E+02 -0.62539659910E+02  0.81270546838E+03  0.83720252210E+03  0.16500000000E+03 0.  0.
<mgrwt>
<rscale>  0 0.42563576E+03</rscale>
<asrwt>0</asrwt>
<pdfrwt beam="1">  1        2 0.19113404E+00 0.42563576E+03</pdfrwt>
<pdfrwt beam="2">  1       -2 0.56085613E-02 0.42563576E+03</pdfrwt>
<totfact> 0.31097527E+03</totfact>
</mgrwt>
</event>
<event>
 4    1  0.1573232E-005  0.5305445E+03  0.7818608E-02  0.1006100E+00
          2   -1    0    0  501    0  0.00000000000E+00  0.00000000000E+00  0.13576190245E+03  0.13576190248E+03  0.25500000000E-02 0.  1.
         -2   -1    0    0    0  501 -0.00000000000E+00 -0.00000000000E+00 -0.51832930355E+03  0.51832930356E+03  0.25500000000E-02 0. -1.
    5000001    1    1    2    0    0 -0.18887723463E+03 -0.42577186555E+02 -0.28401097272E+03  0.38128028955E+03  0.16500000000E+03 0.  0.
   -5000001    1    1    2    0    0  0.18887723463E+03  0.42577186555E+02 -0.98556428375E+02  0.27281091648E+03  0.16500000000E+03 0.  0.
<mgrwt>
<rscale>  0 0.53054452E+03</rscale>
<asrwt>0</asrwt>
<pdfrwt beam="1">  1        2 0.20886447E-01 0.53054452E+03</pdfrwt>
<pdfrwt beam="2">  1       -2 0.79742969E-01 0.53054452E+03</pdfrwt>
<totfact> 0.37986800E+02</totfact>
</mgrwt>
</event>
<event>
 4    1  0.1573232E-005  0.3494826E+03  0.7818608E-02  0.1062828E+00
          2   -1    0    0  501    0  0.00000000000E+00  0.00000000000E+00  0.15421022906E+04  0.15421022906E+04  0.25500000000E-02 0.  1.
         -2   -1    0    0    0  501 -0.00000000000E+00 -0.00000000000E+00 -0.19800576367E+02  0.19800576531E+02  0.25500000000E-02 0. -1.
    5000001    1    1    2    0    0  0.37170921071E+02  0.32340051128E+02  0.89387577806E+03  0.91031119013E+03  0.16500000000E+03 0.  0.
   -5000001    1    1    2    0    0 -0.37170921071E+02 -0.32340051128E+02  0.62842593617E+03  0.65159167700E+03  0.16500000000E+03 0.  0.
<mgrwt>
<rscale>  0 0.34948256E+03</rscale>
<asrwt>0</asrwt>
<pdfrwt beam="1">  1        2 0.23724638E+00 0.34948256E+03</pdfrwt>
<pdfrwt beam="2">  1       -2 0.30462441E-02 0.34948256E+03</pdfrwt>
<totfact> 0.53753242E+03</totfact>
</mgrwt>
</event>
<event>
 4    1  0.1573232E-005  0.4356337E+03  0.7818608E-02  0.1032095E+00
         -2   -1    0    0    0  501 -0.00000000000E+00  0.00000000000E+00  0.18935582769E+03  0.18935582771E+03  0.25500000000E-02 0. -1.
          2   -1    0    0  501    0  0.00000000000E+00 -0.00000000000E+00 -0.25055568458E+03  0.25055568460E+03  0.25500000000E-02 0.  1.
    5000001    1    1    2    0    0 -0.31732076599E+02 -0.10791740114E+03 -0.11843735094E+03  0.23217557204E+03  0.16500000000E+03 0.  0.
   -5000001    1    1    2    0    0  0.31732076599E+02  0.10791740114E+03  0.57237494042E+02  0.20773594027E+03  0.16500000000E+03 0.  0.
<mgrwt>
<rscale>  0 0.43563369E+03</rscale>
<asrwt>0</asrwt>
<pdfrwt beam="1">  1        2 0.38547029E-01 0.43563369E+03</pdfrwt>
<pdfrwt beam="2">  1       -2 0.29131666E-01 0.43563369E+03</pdfrwt>
<totfact> 0.14461690E+03</totfact>
</mgrwt>
</event>
<event>
 4    1  0.1573232E-005  0.5695119E+03  0.7818608E-02  0.9970759E-01
          2   -1    0    0  501    0  0.00000000000E+00  0.00000000000E+00  0.73326945673E+02  0.73326945718E+02  0.25500000000E-02 0. -1.
         -2   -1    0    0    0  501 -0.00000000000E+00 -0.00000000000E+00 -0.11058139453E+04  0.11058139453E+04  0.25500000000E-02 0.  1.
    5000001    1    1    2    0    0  0.15943038873E+03  0.10001753132E+03 -0.79739235017E+03  0.83575182652E+03  0.16500000000E+03 0.  0.
   -5000001    1    1    2    0    0 -0.15943038873E+03 -0.10001753132E+03 -0.23509464948E+03  0.34338906453E+03  0.16500000000E+03 0.  0.
<mgrwt>
<rscale>  0 0.56951193E+03</rscale>
<asrwt>0</asrwt>
<pdfrwt beam="1">  1        2 0.11281069E-01 0.56951193E+03</pdfrwt>
<pdfrwt beam="2">  1       -2 0.17012521E+00 0.56951193E+03</pdfrwt>
<totfact> 0.12385506E+02</totfact>
</mgrwt>
</event>
<event>
 4    1  0.1573232E-005  0.4883253E+03  0.7818608E-02  0.1016872E+00
         -2   -1    0    0    0  501 -0.00000000000E+00  0.00000000000E+00  0.18847607240E+03  0.18847607242E+03  0.25500000000E-02 0. -1.
          2   -1    0    0  501    0  0.00000000000E+00 -0.00000000000E+00 -0.31630220593E+03  0.31630220594E+03  0.25500000000E-02 0.  1.
    5000001    1    1    2    0    0  0.76162512603E+02  0.16268726404E+03 -0.75355034536E+02  0.25528661429E+03  0.16500000000E+03 0.  0.
   -5000001    1    1    2    0    0 -0.76162512603E+02 -0.16268726404E+03 -0.52471098994E+02  0.24949166406E+03  0.16500000000E+03 0.  0.
<mgrwt>
<rscale>  0 0.48832529E+03</rscale>
<asrwt>0</asrwt>
<pdfrwt beam="1">  1        2 0.48661878E-01 0.48832529E+03</pdfrwt>
<pdfrwt beam="2">  1       -2 0.28996319E-01 0.48832529E+03</pdfrwt>
<totfact> 0.11302967E+03</totfact>
</mgrwt>
</event>
<event>
 4    1  0.1573232E-005  0.6485511E+03  0.7818608E-02  0.9809502E-01
          2   -1    0    0  501    0  0.00000000000E+00  0.00000000000E+00  0.11250658985E+03  0.11250658988E+03  0.25500000000E-02 0.  1.
         -2   -1    0    0    0  501 -0.00000000000E+00 -0.00000000000E+00 -0.93465312464E+03  0.93465312464E+03  0.25500000000E-02 0. -1.
    5000001    1    1    2    0    0 -0.83563095792E+01 -0.12142356146E+03 -0.81671150570E+03  0.84205474449E+03  0.16500000000E+03 0.  0.
   -5000001    1    1    2    0    0  0.83563095792E+01  0.12142356146E+03 -0.54350290902E+01  0.20510497002E+03  0.16500000000E+03 0.  0.
<mgrwt>
<rscale>  0 0.64855111E+03</rscale>
<asrwt>0</asrwt>
<pdfrwt beam="1">  1        2 0.17308707E-01 0.64855111E+03</pdfrwt>
<pdfrwt beam="2">  1       -2 0.14379278E+00 0.64855111E+03</pdfrwt>
<totfact> 0.11463068E+02</totfact>
</mgrwt>
</event>
<event>
 4    1  0.1573232E-005  0.4562635E+03  0.7818608E-02  0.1025871E+00
          2   -1    0    0  501    0  0.00000000000E+00  0.00000000000E+00  0.11499730389E+04  0.11499730390E+04  0.25500000000E-02 0.  1.
         -2   -1    0    0    0  501 -0.00000000000E+00 -0.00000000000E+00 -0.45256794989E+02  0.45256795061E+02  0.25500000000E-02 0. -1.
    5000001    1    1    2    0    0  0.56553054306E+02  0.13468307265E+03  0.70692179580E+03  0.74047363450E+03  0.16500000000E+03 0.  0.
   -5000001    1    1    2    0    0 -0.56553054306E+02 -0.13468307265E+03  0.39779444816E+03  0.45475619952E+03  0.16500000000E+03 0.  0.
<mgrwt>
<rscale>  0 0.45626349E+03</rscale>
<asrwt>0</asrwt>
<pdfrwt beam="1">  1        2 0.17691893E+00 0.45626349E+03</pdfrwt>
<pdfrwt beam="2">  1       -2 0.69625838E-02 0.45626349E+03</pdfrwt>
<totfact> 0.25115624E+03</totfact>
</mgrwt>
</event>
<event>
 4    1  0.1573232E-005  0.5543807E+03  0.7818608E-02  0.1000485E+00
          2   -1    0    0  501    0  0.00000000000E+00  0.00000000000E+00  0.10653485507E+04  0.10653485507E+04  0.25500000000E-02 0.  1.
         -2   -1    0    0    0  501 -0.00000000000E+00 -0.00000000000E+00 -0.72121456037E+02  0.72121456082E+02  0.25500000000E-02 0. -1.
    5000001    1    1    2    0    0 -0.14428036973E+03  0.16895096329E+03  0.46428666002E+03  0.54050749834E+03  0.16500000000E+03 0.  0.
   -5000001    1    1    2    0    0  0.14428036973E+03 -0.16895096329E+03  0.52894043459E+03  0.59696250840E+03  0.16500000000E+03 0.  0.
<mgrwt>
<rscale>  0 0.55438069E+03</rscale>
<asrwt>0</asrwt>
<pdfrwt beam="1">  1        2 0.16389978E+00 0.55438069E+03</pdfrwt>
<pdfrwt beam="2">  1       -2 0.11095608E-01 0.55438069E+03</pdfrwt>
<totfact> 0.13377410E+03</totfact>
</mgrwt>
</event>
<event>
 4    1  0.1573232E-005  0.4830725E+03  0.7818608E-02  0.1018294E+00
         -2   -1    0    0    0  501 -0.00000000000E+00  0.00000000000E+00  0.20515933990E+02  0.20515934148E+02  0.25500000000E-02 0. -1.
          2   -1    0    0  501    0  0.00000000000E+00 -0.00000000000E+00 -0.28436314684E+04  0.28436314684E+04  0.25500000000E-02 0.  1.
    5000001    1    1    2    0    0 -0.12596379137E+02 -0.16859286413E+03 -0.17099315315E+04  0.17261729534E+04  0.16500000000E+03 0.  0.
   -5000001    1    1    2    0    0  0.12596379137E+02  0.16859286413E+03 -0.11131840030E+04  0.11379744492E+04  0.16500000000E+03 0.  0.
<mgrwt>
<rscale>  0 0.48307248E+03</rscale>
<asrwt>0</asrwt>
<pdfrwt beam="1">  1        2 0.43748145E+00 0.48307248E+03</pdfrwt>
<pdfrwt beam="2">  1       -2 0.31562998E-02 0.48307248E+03</pdfrwt>
<totfact> 0.98084266E+02</totfact>
</mgrwt>
</event>
<event>
 4    1  0.1573232E-005  0.1353761E+04  0.7818608E-02  0.8987986E-01
         -2   -1    0    0    0  501 -0.00000000000E+00  0.00000000000E+00  0.10401644799E+04  0.10401644799E+04  0.25500000000E-02 0. -1.
          2   -1    0    0  501    0  0.00000000000E+00 -0.00000000000E+00 -0.44047541040E+03  0.44047541040E+03  0.25500000000E-02 0.  1.
    5000001    1    1    2    0    0 -0.59624773657E+03 -0.20634655236E+03  0.10160696910E+03  0.66002972600E+03  0.16500000000E+03 0.  0.
   -5000001    1    1    2    0    0  0.59624773657E+03  0.20634655236E+03  0.49808210042E+03  0.82061016433E+03  0.16500000000E+03 0.  0.
<mgrwt>
<rscale>  0 0.13537605E+04</rscale>
<asrwt>0</asrwt>
<pdfrwt beam="1">  1        2 0.67765448E-01 0.13537605E+04</pdfrwt>
<pdfrwt beam="2">  1       -2 0.16002530E+00 0.13537605E+04</pdfrwt>
<totfact> 0.17504366E+01</totfact>
</mgrwt>
</event>
<event>
 4    1  0.1573232E-005  0.4182551E+03  0.7818608E-02  0.1037636E+00
         -2   -1    0    0    0  501 -0.00000000000E+00  0.00000000000E+00  0.16252542803E+03  0.16252542805E+03  0.25500000000E-02 0. -1.
          2   -1    0    0  501    0  0.00000000000E+00 -0.00000000000E+00 -0.26909218559E+03  0.26909218560E+03  0.25500000000E-02 0.  1.
    5000001    1    1    2    0    0  0.68155959403E+02  0.75864892023E+02  0.27371198367E+02  0.19589512282E+03  0.16500000000E+03 0.  0.
   -5000001    1    1    2    0    0 -0.68155959403E+02 -0.75864892023E+02 -0.13393795593E+03  0.23572249083E+03  0.16500000000E+03 0.  0.
<mgrwt>
<rscale>  0 0.41825505E+03</rscale>
<asrwt>0</asrwt>
<pdfrwt beam="1">  1        2 0.41398798E-01 0.41825505E+03</pdfrwt>
<pdfrwt beam="2">  1       -2 0.25003912E-01 0.41825505E+03</pdfrwt>
<totfact> 0.17614054E+03</totfact>
</mgrwt>
</event>
<event>
 4    1  0.1573232E-005  0.7997222E+03  0.7818608E-02  0.9560419E-01
          2   -1    0    0  501    0  0.00000000000E+00  0.00000000000E+00  0.14617967712E+04  0.14617967712E+04  0.25500000000E-02 0.  1.
         -2   -1    0    0    0  501 -0.00000000000E+00 -0.00000000000E+00 -0.10937832604E+03  0.10937832607E+03  0.25500000000E-02 0. -1.
    5000001    1    1    2    0    0 -0.16310339958E+03  0.32214227632E+03  0.58228494835E+03  0.70474046728E+03  0.16500000000E+03 0.  0.
   -5000001    1    1    2    0    0  0.16310339958E+03 -0.32214227632E+03  0.77013349682E+03  0.86643463001E+03  0.16500000000E+03 0.  0.
<mgrwt>
<rscale>  0 0.79972216E+03</rscale>
<asrwt>0</asrwt>
<pdfrwt beam="1">  1        2 0.22489181E+00 0.79972216E+03</pdfrwt>
<pdfrwt beam="2">  1       -2 0.16827435E-01 0.79972216E+03</pdfrwt>
<totfact> 0.38778641E+02</totfact>
</mgrwt>
</event>
<event>
 4    1  0.1573232E-005  0.4377680E+03  0.7818608E-02  0.1031434E+00
          2   -1    0    0  501    0  0.00000000000E+00  0.00000000000E+00  0.77810518905E+02  0.77810518947E+02  0.25500000000E-02 0.  1.
         -2   -1    0    0    0  501 -0.00000000000E+00 -0.00000000000E+00 -0.61572912141E+03  0.61572912142E+03  0.25500000000E-02 0. -1.
    5000001    1    1    2    0    0 -0.14169991049E+03 -0.22814580406E+02 -0.25428174353E+03  0.33538571050E+03  0.16500000000E+03 0.  0.
   -5000001    1    1    2    0    0  0.14169991049E+03  0.22814580406E+02 -0.28363685898E+03  0.35815392987E+03  0.16500000000E+03 0.  0.
<mgrwt>
<rscale>  0 0.43776799E+03</rscale>
<asrwt>0</asrwt>
<pdfrwt beam="1">  1        2 0.11970849E-01 0.43776799E+03</pdfrwt>
<pdfrwt beam="2">  1       -2 0.94727554E-01 0.43776799E+03</pdfrwt>
<totfact> 0.50106256E+02</totfact>
</mgrwt>
</event>
<event>
 4    1  0.1573232E-005  0.5999965E+03  0.7818608E-02  0.9905413E-01
          2   -1    0    0  501    0  0.00000000000E+00  0.00000000000E+00  0.96003991616E+03  0.96003991617E+03  0.25500000000E-02 0.  1.
         -2   -1    0    0    0  501 -0.00000000000E+00 -0.00000000000E+00 -0.93744996503E+02  0.93744996537E+02  0.25500000000E-02 0. -1.
    5000001    1    1    2    0    0  0.10012623110E+02  0.24741919494E+03  0.50019715924E+03  0.58201263625E+03  0.16500000000E+03 0.  0.
   -5000001    1    1    2    0    0 -0.10012623110E+02 -0.24741919494E+03  0.36609776042E+03  0.47177227645E+03  0.16500000000E+03 0.  0.
<mgrwt>
<rscale>  0 0.59999646E+03</rscale>
<asrwt>0</asrwt>
<pdfrwt beam="1">  1        2 0.14769845E+00 0.59999646E+03</pdfrwt>
<pdfrwt beam="2">  1       -2 0.14422307E-01 0.59999646E+03</pdfrwt>
<totfact> 0.10085265E+03</totfact>
</mgrwt>
</event>
<event>
 4    1  0.1573232E-005  0.9526041E+03  0.7818608E-02  0.9362112E-01
         -2   -1    0    0    0  501 -0.00000000000E+00  0.00000000000E+00  0.19693276392E+03  0.19693276394E+03  0.25500000000E-02 0. -1.
          2   -1    0    0  501    0  0.00000000000E+00 -0.00000000000E+00 -0.11519851568E+04  0.11519851568E+04  0.25500000000E-02 0.  1.
    5000001    1    1    2    0    0  0.13601133522E+02  0.43717771265E+03 -0.60676019128E+03  0.76595840161E+03  0.16500000000E+03 0.  0.
   -5000001    1    1    2    0    0 -0.13601133522E+02 -0.43717771265E+03 -0.34829220164E+03  0.58295951917E+03  0.16500000000E+03 0.  0.
<mgrwt>
<rscale>  0 0.95260405E+03</rscale>
<asrwt>0</asrwt>
<pdfrwt beam="1">  1        2 0.17722848E+00 0.95260405E+03</pdfrwt>
<pdfrwt beam="2">  1       -2 0.30297349E-01 0.95260405E+03</pdfrwt>
<totfact> 0.20362430E+02</totfact>
</mgrwt>
</event>
<event>
 4    1  0.1573232E-005  0.4697658E+03  0.7818608E-02  0.1021986E+00
          2   -1    0    0  501    0  0.00000000000E+00  0.00000000000E+00  0.23557524169E+04  0.23557524169E+04  0.25500000000E-02 0.  1.
         -2   -1    0    0    0  501 -0.00000000000E+00 -0.00000000000E+00 -0.23419261357E+02  0.23419261496E+02  0.25500000000E-02 0. -1.
    5000001    1    1    2    0    0 -0.60883174271E+01 -0.13859899097E+03  0.69382094506E+03  0.72653922930E+03  0.16500000000E+03 0.  0.
   -5000001    1    1    2    0    0  0.60883174271E+01  0.13859899097E+03  0.16385122104E+04  0.16526324491E+04  0.16500000000E+03 0.  0.
<mgrwt>
<rscale>  0 0.46976582E+03</rscale>
<asrwt>0</asrwt>
<pdfrwt beam="1">  1        2 0.36242343E+00 0.46976582E+03</pdfrwt>
<pdfrwt beam="2">  1       -2 0.36029635E-02 0.46976582E+03</pdfrwt>
<totfact> 0.15184772E+03</totfact>
</mgrwt>
</event>
<event>
 4    1  0.1573232E-005  0.1131751E+04  0.7818608E-02  0.9174786E-01
         -2   -1    0    0    0  501 -0.00000000000E+00  0.00000000000E+00  0.12757202611E+03  0.12757202614E+03  0.25500000000E-02 0.  1.
          2   -1    0    0  501    0  0.00000000000E+00 -0.00000000000E+00 -0.25100731483E+04  0.25100731483E+04  0.25500000000E-02 0. -1.
    5000001    1    1    2    0    0  0.52816882251E+03  0.18714522679E+02 -0.14638155527E+04  0.15650218883E+04  0.16500000000E+03 0.  0.
   -5000001    1    1    2    0    0 -0.52816882251E+03 -0.18714522679E+02 -0.91868556943E+03  0.10726232861E+04  0.16500000000E+03 0.  0.
<mgrwt>
<rscale>  0 0.11317511E+04</rscale>
<asrwt>0</asrwt>
<pdfrwt beam="1">  1        2 0.38616506E+00 0.11317511E+04</pdfrwt>
<pdfrwt beam="2">  1       -2 0.19626468E-01 0.11317511E+04</pdfrwt>
<totfact> 0.75813192E+01</totfact>
</mgrwt>
</event>
<event>
 4    1  0.1573232E-005  0.4805727E+03  0.7818608E-02  0.1018978E+00
          2   -1    0    0  501    0  0.00000000000E+00  0.00000000000E+00  0.10520316931E+04  0.10520316931E+04  0.25500000000E-02 0.  1.
         -2   -1    0    0    0  501 -0.00000000000E+00 -0.00000000000E+00 -0.54881939849E+02  0.54881939908E+02  0.25500000000E-02 0. -1.
    5000001    1    1    2    0    0 -0.67832368964E+02 -0.16095870626E+03  0.49420175699E+03  0.54951734459E+03  0.16500000000E+03 0.  0.
   -5000001    1    1    2    0    0  0.67832368964E+02  0.16095870626E+03  0.50294799628E+03  0.55739628843E+03  0.16500000000E+03 0.  0.
<mgrwt>
<rscale>  0 0.48057274E+03</rscale>
<asrwt>0</asrwt>
<pdfrwt beam="1">  1        2 0.16185102E+00 0.48057274E+03</pdfrwt>
<pdfrwt beam="2">  1       -2 0.84433758E-02 0.48057274E+03</pdfrwt>
<totfact> 0.21200399E+03</totfact>
</mgrwt>
</event>
<event>
 4    1  0.1573232E-005  0.3362204E+03  0.7818608E-02  0.1068417E+00
         -2   -1    0    0    0  501 -0.00000000000E+00  0.00000000000E+00  0.35277615569E+02  0.35277615661E+02  0.25500000000E-02 0. -1.
          2   -1    0    0  501    0  0.00000000000E+00 -0.00000000000E+00 -0.80110411293E+03  0.80110411294E+03  0.25500000000E-02 0.  1.
    5000001    1    1    2    0    0  0.25250080429E+02  0.19945882771E+02 -0.38490047450E+03  0.42001045234E+03  0.16500000000E+03 0.  0.
   -5000001    1    1    2    0    0 -0.25250080429E+02 -0.19945882771E+02 -0.38092602286E+03  0.41637127626E+03  0.16500000000E+03 0.  0.
<mgrwt>
<rscale>  0 0.33622042E+03</rscale>
<asrwt>0</asrwt>
<pdfrwt beam="1">  1        2 0.12324677E+00 0.33622042E+03</pdfrwt>
<pdfrwt beam="2">  1       -2 0.54273261E-02 0.33622042E+03</pdfrwt>
<totfact> 0.61372705E+03</totfact>
</mgrwt>
</event>
<event>
 4    1  0.1573232E-005  0.3675394E+03  0.7818608E-02  0.1055638E+00
          2   -1    0    0  501    0  0.00000000000E+00  0.00000000000E+00  0.15776840041E+03  0.15776840043E+03  0.25500000000E-02 0.  1.
         -2   -1    0    0    0  501 -0.00000000000E+00 -0.00000000000E+00 -0.21405614137E+03  0.21405614138E+03  0.25500000000E-02 0. -1.
    5000001    1    1    2    0    0 -0.14001458236E+01 -0.80061842421E+02 -0.16414032775E+02  0.18413657837E+03  0.16500000000E+03 0.  0.
   -5000001    1    1    2    0    0  0.14001458236E+01  0.80061842421E+02 -0.39873708183E+02  0.18768796345E+03  0.16500000000E+03 0.  0.
<mgrwt>
<rscale>  0 0.36753936E+03</rscale>
<asrwt>0</asrwt>
<pdfrwt beam="1">  1        2 0.24272062E-01 0.36753936E+03</pdfrwt>
<pdfrwt beam="2">  1       -2 0.32931714E-01 0.36753936E+03</pdfrwt>
<totfact> 0.19258503E+03</totfact>
</mgrwt>
</event>
<event>
 4    1  0.1573232E-005  0.4796593E+03  0.7818608E-02  0.1019229E+00
         -2   -1    0    0    0  501 -0.00000000000E+00  0.00000000000E+00  0.33324111532E+02  0.33324111629E+02  0.25500000000E-02 0. -1.
          2   -1    0    0  501    0  0.00000000000E+00 -0.00000000000E+00 -0.17260254513E+04  0.17260254513E+04  0.25500000000E-02 0.  1.
    5000001    1    1    2    0    0  0.60556672238E+02 -0.13616066113E+03 -0.51651499220E+03  0.56233404073E+03  0.16500000000E+03 0.  0.
   -5000001    1    1    2    0    0 -0.60556672238E+02  0.13616066113E+03 -0.11761863476E+04  0.11970155222E+04  0.16500000000E+03 0.  0.
<mgrwt>
<rscale>  0 0.47965932E+03</rscale>
<asrwt>0</asrwt>
<pdfrwt beam="1">  1        2 0.26554231E+00 0.47965932E+03</pdfrwt>
<pdfrwt beam="2">  1       -2 0.51267877E-02 0.47965932E+03</pdfrwt>
<totfact> 0.19337693E+03</totfact>
</mgrwt>
</event>
<event>
 4    1  0.1573232E-005  0.4095610E+03  0.7818608E-02  0.1040518E+00
         -2   -1    0    0    0  501 -0.00000000000E+00  0.00000000000E+00  0.62213614553E+02  0.62213614605E+02  0.25500000000E-02 0. -1.
          2   -1    0    0  501    0  0.00000000000E+00 -0.00000000000E+00 -0.67404933828E+03  0.67404933828E+03  0.25500000000E-02 0.  1.
    5000001    1    1    2    0    0  0.11838478609E+03 -0.32752157839E+01 -0.25888980246E+03  0.32905108180E+03  0.16500000000E+03 0.  0.
   -5000001    1    1    2    0    0 -0.11838478609E+03  0.32752157839E+01 -0.35294592127E+03  0.40721187109E+03  0.16500000000E+03 0.  0.
<mgrwt>
<rscale>  0 0.40956096E+03</rscale>
<asrwt>0</asrwt>
<pdfrwt beam="1">  1        2 0.10369989E+00 0.40956096E+03</pdfrwt>
<pdfrwt beam="2">  1       -2 0.95713258E-02 0.40956096E+03</pdfrwt>
<totfact> 0.31432635E+03</totfact>
</mgrwt>
</event>
<event>
 4    1  0.1573232E-005  0.4050081E+03  0.7818608E-02  0.1042059E+00
         -2   -1    0    0    0  501 -0.00000000000E+00  0.00000000000E+00  0.19126724997E+02  0.19126725167E+02  0.25500000000E-02 0. -1.
          2   -1    0    0  501    0  0.00000000000E+00 -0.00000000000E+00 -0.21440095346E+04  0.21440095346E+04  0.25500000000E-02 0.  1.
    5000001    1    1    2    0    0  0.80669146299E+02  0.81272045541E+02 -0.12007121595E+04  0.12173936695E+04  0.16500000000E+03 0.  0.
   -5000001    1    1    2    0    0 -0.80669146299E+02 -0.81272045541E+02 -0.92417065016E+03  0.94574259033E+03  0.16500000000E+03 0.  0.
<mgrwt>
<rscale>  0 0.40500805E+03</rscale>
<asrwt>0</asrwt>
<pdfrwt beam="1">  1        2 0.32984743E+00 0.40500805E+03</pdfrwt>
<pdfrwt beam="2">  1       -2 0.29425748E-02 0.40500805E+03</pdfrwt>
<totfact> 0.26994383E+03</totfact>
</mgrwt>
</event>
<event>
 4    1  0.1573232E-005  0.4441708E+03  0.7818608E-02  0.1029475E+00
          2   -1    0    0  501    0  0.00000000000E+00  0.00000000000E+00  0.20101157073E+03  0.20101157075E+03  0.25500000000E-02 0.  1.
         -2   -1    0    0    0  501 -0.00000000000E+00 -0.00000000000E+00 -0.24536862746E+03  0.24536862747E+03  0.25500000000E-02 0. -1.
    5000001    1    1    2    0    0  0.13013371095E+03  0.12108317821E+02  0.48994212576E+02  0.21611762296E+03  0.16500000000E+03 0.  0.
   -5000001    1    1    2    0    0 -0.13013371095E+03 -0.12108317821E+02 -0.93351269309E+02  0.23026257526E+03  0.16500000000E+03 0.  0.
<mgrwt>
<rscale>  0 0.44417084E+03</rscale>
<asrwt>0</asrwt>
<pdfrwt beam="1">  1        2 0.30924857E-01 0.44417084E+03</pdfrwt>
<pdfrwt beam="2">  1       -2 0.37749020E-01 0.44417084E+03</pdfrwt>
<totfact> 0.11371025E+03</totfact>
</mgrwt>
</event>
<event>
 4    1  0.1573232E-005  0.8021129E+03  0.7818608E-02  0.9556964E-01
         -2   -1    0    0    0  501 -0.00000000000E+00  0.00000000000E+00  0.34790695228E+03  0.34790695229E+03  0.25500000000E-02 0. -1.
          2   -1    0    0  501    0  0.00000000000E+00 -0.00000000000E+00 -0.46232556592E+03  0.46232556592E+03  0.25500000000E-02 0.  1.
    5000001    1    1    2    0    0 -0.27945765583E+03 -0.23456076539E+03 -0.79930211687E+02  0.40832483736E+03  0.16500000000E+03 0.  0.
   -5000001    1    1    2    0    0  0.27945765583E+03  0.23456076539E+03 -0.34488401948E+02  0.40190768086E+03  0.16500000000E+03 0.  0.
<mgrwt>
<rscale>  0 0.80211291E+03</rscale>
<asrwt>0</asrwt>
<pdfrwt beam="1">  1        2 0.71127011E-01 0.80211291E+03</pdfrwt>
<pdfrwt beam="2">  1       -2 0.53524146E-01 0.80211291E+03</pdfrwt>
<totfact> 0.22341009E+02</totfact>
</mgrwt>
</event>
<event>
 4    1  0.1573232E-005  0.3612829E+03  0.7818608E-02  0.1058077E+00
         -2   -1    0    0    0  501 -0.00000000000E+00  0.00000000000E+00  0.10141727428E+03  0.10141727431E+03  0.25500000000E-02 0. -1.
          2   -1    0    0  501    0  0.00000000000E+00 -0.00000000000E+00 -0.32175323394E+03  0.32175323395E+03  0.25500000000E-02 0.  1.
    5000001    1    1    2    0    0 -0.52660778896E+02  0.50118007166E+02 -0.12307162431E+03  0.21830390969E+03  0.16500000000E+03 0.  0.
   -5000001    1    1    2    0    0  0.52660778896E+02 -0.50118007166E+02 -0.97264335350E+02  0.20486659856E+03  0.16500000000E+03 0.  0.
<mgrwt>
<rscale>  0 0.36128291E+03</rscale>
<asrwt>0</asrwt>
<pdfrwt beam="1">  1        2 0.49500497E-01 0.36128291E+03</pdfrwt>
<pdfrwt beam="2">  1       -2 0.15602658E-01 0.36128291E+03</pdfrwt>
<totfact> 0.32612749E+03</totfact>
</mgrwt>
</event>
<event>
 4    1  0.1573232E-005  0.4948992E+03  0.7818608E-02  0.1015119E+00
         -2   -1    0    0    0  501 -0.00000000000E+00  0.00000000000E+00  0.20330431916E+03  0.20330431918E+03  0.25500000000E-02 0. -1.
          2   -1    0    0  501    0  0.00000000000E+00 -0.00000000000E+00 -0.30118048102E+03  0.30118048103E+03  0.25500000000E-02 0.  1.
    5000001    1    1    2    0    0 -0.73036038049E+02 -0.15431977844E+03  0.22107146642E+02  0.23845876542E+03  0.16500000000E+03 0.  0.
   -5000001    1    1    2    0    0  0.73036038049E+02  0.15431977844E+03 -0.11998330850E+03  0.26602603479E+03  0.16500000000E+03 0.  0.
<mgrwt>
<rscale>  0 0.49489915E+03</rscale>
<asrwt>0</asrwt>
<pdfrwt beam="1">  1        2 0.46335459E-01 0.49489915E+03</pdfrwt>
<pdfrwt beam="2">  1       -2 0.31277587E-01 0.49489915E+03</pdfrwt>
<totfact> 0.10374976E+03</totfact>
</mgrwt>
</event>
<event>
 4    1  0.1573232E-005  0.8903146E+03  0.7818608E-02  0.9437770E-01
          2   -1    0    0  501    0  0.00000000000E+00  0.00000000000E+00  0.72100953044E+03  0.72100953044E+03  0.25500000000E-02 0.  1.
         -2   -1    0    0    0  501 -0.00000000000E+00 -0.00000000000E+00 -0.27484385866E+03  0.27484385867E+03  0.25500000000E-02 0. -1.
    5000001    1    1    2    0    0  0.25466710237E+03 -0.22285483408E+02 -0.14037940992E+03  0.33508708500E+03  0.16500000000E+03 0.  0.
   -5000001    1    1    2    0    0 -0.25466710237E+03  0.22285483408E+02  0.58654508169E+03  0.66076630412E+03  0.16500000000E+03 0.  0.
<mgrwt>
<rscale>  0 0.89031464E+03</rscale>
<asrwt>0</asrwt>
<pdfrwt beam="1">  1        2 0.11092454E+00 0.89031464E+03</pdfrwt>
<pdfrwt beam="2">  1       -2 0.42283671E-01 0.89031464E+03</pdfrwt>
<totfact> 0.20979730E+02</totfact>
</mgrwt>
</event>
<event>
 4    1  0.1573232E-005  0.4387850E+03  0.7818608E-02  0.1031120E+00
          2   -1    0    0  501    0  0.00000000000E+00  0.00000000000E+00  0.95263764036E+03  0.95263764036E+03  0.25500000000E-02 0.  1.
         -2   -1    0    0    0  501 -0.00000000000E+00 -0.00000000000E+00 -0.50526107775E+02  0.50526107839E+02  0.25500000000E-02 0. -1.
    5000001    1    1    2    0    0  0.75382601840E+02 -0.12184399937E+03  0.40651383924E+03  0.46152681215E+03  0.16500000000E+03 0.  0.
   -5000001    1    1    2    0    0 -0.75382601840E+02  0.12184399937E+03  0.49559769334E+03  0.54163693605E+03  0.16500000000E+03 0.  0.
<mgrwt>
<rscale>  0 0.43878501E+03</rscale>
<asrwt>0</asrwt>
<pdfrwt beam="1">  1        2 0.14655964E+00 0.43878501E+03</pdfrwt>
<pdfrwt beam="2">  1       -2 0.77732471E-02 0.43878501E+03</pdfrwt>
<totfact> 0.27896797E+03</totfact>
</mgrwt>
</event>
<event>
 4    1  0.1573232E-005  0.3930796E+03  0.7818608E-02  0.1046203E+00
         -2   -1    0    0    0  501 -0.00000000000E+00  0.00000000000E+00  0.28006976317E+03  0.28006976318E+03  0.25500000000E-02 0. -1.
          2   -1    0    0  501    0  0.00000000000E+00 -0.00000000000E+00 -0.13792237865E+03  0.13792237867E+03  0.25500000000E-02 0.  1.
    5000001    1    1    2    0    0  0.55570977256E+02  0.85569065952E+02  0.37569872321E+02  0.19760236301E+03  0.16500000000E+03 0.  0.
   -5000001    1    1    2    0    0 -0.55570977256E+02 -0.85569065952E+02  0.10457751220E+03  0.22038977884E+03  0.16500000000E+03 0.  0.
<mgrwt>
<rscale>  0 0.39307957E+03</rscale>
<asrwt>0</asrwt>
<pdfrwt beam="1">  1        2 0.21218828E-01 0.39307957E+03</pdfrwt>
<pdfrwt beam="2">  1       -2 0.43087656E-01 0.39307957E+03</pdfrwt>
<totfact> 0.13470373E+03</totfact>
</mgrwt>
</event>
<event>
 4    1  0.1573232E-005  0.5415696E+03  0.7818608E-02  0.1003464E+00
          2   -1    0    0  501    0  0.00000000000E+00  0.00000000000E+00  0.24374961823E+04  0.24374961823E+04  0.25500000000E-02 0.  1.
         -2   -1    0    0    0  501 -0.00000000000E+00 -0.00000000000E+00 -0.30081860477E+02  0.30081860585E+02  0.25500000000E-02 0. -1.
    5000001    1    1    2    0    0 -0.18324898190E+02  0.18788883770E+03  0.73767965705E+03  0.77912405536E+03  0.16500000000E+03 0.  0.
   -5000001    1    1    2    0    0  0.18324898190E+02 -0.18788883770E+03  0.16697346647E+04  0.16884539875E+04  0.16500000000E+03 0.  0.
<mgrwt>
<rscale>  0 0.54156965E+03</rscale>
<asrwt>0</asrwt>
<pdfrwt beam="1">  1        2 0.37499944E+00 0.54156965E+03</pdfrwt>
<pdfrwt beam="2">  1       -2 0.46279783E-02 0.54156965E+03</pdfrwt>
<totfact> 0.92713612E+02</totfact>
</mgrwt>
</event>
<event>
 4    1  0.1573232E-005  0.4219496E+03  0.7818608E-02  0.1036434E+00
          2   -1    0    0  501    0  0.00000000000E+00  0.00000000000E+00  0.56674379808E+02  0.56674379865E+02  0.25500000000E-02 0.  1.
         -2   -1    0    0    0  501 -0.00000000000E+00 -0.00000000000E+00 -0.78536997398E+03  0.78536997398E+03  0.25500000000E-02 0. -1.
    5000001    1    1    2    0    0 -0.53645129038E+01  0.12460452693E+03 -0.44735846297E+03  0.49285866181E+03  0.16500000000E+03 0.  0.
   -5000001    1    1    2    0    0  0.53645129038E+01 -0.12460452693E+03 -0.28133713120E+03  0.34918569204E+03  0.16500000000E+03 0.  0.
<mgrwt>
<rscale>  0 0.42194955E+03</rscale>
<asrwt>0</asrwt>
<pdfrwt beam="1">  1        2 0.87191359E-02 0.42194955E+03</pdfrwt>
<pdfrwt beam="2">  1       -2 0.12082614E+00 0.42194955E+03</pdfrwt>
<totfact> 0.41797534E+02</totfact>
</mgrwt>
</event>
<event>
 4    1  0.1573232E-005  0.7767372E+03  0.7818608E-02  0.9594313E-01
          2   -1    0    0  501    0  0.00000000000E+00  0.00000000000E+00  0.18867372223E+04  0.18867372223E+04  0.25500000000E-02 0.  1.
         -2   -1    0    0    0  501 -0.00000000000E+00 -0.00000000000E+00 -0.79942335046E+02  0.79942335087E+02  0.25500000000E-02 0. -1.
    5000001    1    1    2    0    0  0.19087803740E+03 -0.20597833150E+03  0.36781622464E+03  0.49129957594E+03  0.16500000000E+03 0.  0.
   -5000001    1    1    2    0    0 -0.19087803740E+03  0.20597833150E+03  0.14389786626E+04  0.14753799815E+04  0.16500000000E+03 0.  0.
<mgrwt>
<rscale>  0 0.77673723E+03</rscale>
<asrwt>0</asrwt>
<pdfrwt beam="1">  1        2 0.29026724E+00 0.77673723E+03</pdfrwt>
<pdfrwt beam="2">  1       -2 0.12298822E-01 0.77673723E+03</pdfrwt>
<totfact> 0.38448879E+02</totfact>
</mgrwt>
</event>
<event>
 4    1  0.1573232E-005  0.5308300E+03  0.7818608E-02  0.1006031E+00
         -2   -1    0    0    0  501 -0.00000000000E+00  0.00000000000E+00  0.77885305839E+03  0.77885305839E+03  0.25500000000E-02 0. -1.
          2   -1    0    0  501    0  0.00000000000E+00 -0.00000000000E+00 -0.90447261564E+02  0.90447261600E+02  0.25500000000E-02 0.  1.
    5000001    1    1    2    0    0 -0.14148229359E+03 -0.15232355646E+03  0.34526553783E+03  0.43549167255E+03  0.16500000000E+03 0.  0.
   -5000001    1    1    2    0    0  0.14148229359E+03  0.15232355646E+03  0.34314025900E+03  0.43380864744E+03  0.16500000000E+03 0.  0.
<mgrwt>
<rscale>  0 0.53083002E+03</rscale>
<asrwt>0</asrwt>
<pdfrwt beam="1">  1        2 0.13914963E-01 0.53083002E+03</pdfrwt>
<pdfrwt beam="2">  1       -2 0.11982355E+00 0.53083002E+03</pdfrwt>
<totfact> 0.23751903E+02</totfact>
</mgrwt>
</event>
<event>
 4    1  0.1573232E-005  0.4730128E+03  0.7818608E-02  0.1021073E+00
         -2   -1    0    0    0  501 -0.00000000000E+00  0.00000000000E+00  0.38789854680E+02  0.38789854764E+02  0.25500000000E-02 0. -1.
          2   -1    0    0  501    0  0.00000000000E+00 -0.00000000000E+00 -0.14420080743E+04  0.14420080743E+04  0.25500000000E-02 0.  1.
    5000001    1    1    2    0    0 -0.10424380923E+03  0.73224902290E+02 -0.35185851936E+03  0.40897197426E+03  0.16500000000E+03 0.  0.
   -5000001    1    1    2    0    0  0.10424380923E+03 -0.73224902290E+02 -0.10513597003E+04  0.10718259548E+04  0.16500000000E+03 0.  0.
<mgrwt>
<rscale>  0 0.47301283E+03</rscale>
<asrwt>0</asrwt>
<pdfrwt beam="1">  1        2 0.22184735E+00 0.47301283E+03</pdfrwt>
<pdfrwt beam="2">  1       -2 0.59676711E-02 0.47301283E+03</pdfrwt>
<totfact> 0.21805687E+03</totfact>
</mgrwt>
</event>
<event>
 4    1  0.1573232E-005  0.4590413E+03  0.7818608E-02  0.1025060E+00
         -2   -1    0    0    0  501 -0.00000000000E+00  0.00000000000E+00  0.62180389844E+02  0.62180389896E+02  0.25500000000E-02 0. -1.
          2   -1    0    0  501    0  0.00000000000E+00 -0.00000000000E+00 -0.84720807491E+03  0.84720807491E+03  0.25500000000E-02 0.  1.
    5000001    1    1    2    0    0  0.81258470702E+02 -0.50391204311E+02 -0.13949191762E+03  0.23627358637E+03  0.16500000000E+03 0.  0.
   -5000001    1    1    2    0    0 -0.81258470702E+02  0.50391204311E+02 -0.64553576744E+03  0.67311487844E+03  0.16500000000E+03 0.  0.
<mgrwt>
<rscale>  0 0.45904130E+03</rscale>
<asrwt>0</asrwt>
<pdfrwt beam="1">  1        2 0.13033970E+00 0.45904130E+03</pdfrwt>
<pdfrwt beam="2">  1       -2 0.95662144E-02 0.45904130E+03</pdfrwt>
<totfact> 0.23535299E+03</totfact>
</mgrwt>
</event>
<event>
 4    1  0.1573232E-005  0.9274185E+03  0.7818608E-02  0.9391941E-01
         -2   -1    0    0    0  501 -0.00000000000E+00  0.00000000000E+00  0.57235367238E+03  0.57235367238E+03  0.25500000000E-02 0. -1.
          2   -1    0    0  501    0  0.00000000000E+00 -0.00000000000E+00 -0.37568771887E+03  0.37568771888E+03  0.25500000000E-02 0.  1.
    5000001    1    1    2    0    0  0.42269282776E+03  0.80794678790E+02  0.15049950929E+03  0.48484235485E+03  0.16500000000E+03 0.  0.
   -5000001    1    1    2    0    0 -0.42269282776E+03 -0.80794678790E+02  0.46166444219E+02  0.46319903641E+03  0.16500000000E+03 0.  0.
<mgrwt>
<rscale>  0 0.92741845E+03</rscale>
<asrwt>0</asrwt>
<pdfrwt beam="1">  1        2 0.57798111E-01 0.92741845E+03</pdfrwt>
<pdfrwt beam="2">  1       -2 0.88054410E-01 0.92741845E+03</pdfrwt>
<totfact> 0.95089334E+01</totfact>
</mgrwt>
</event>
<event>
 4    1  0.1573232E-005  0.4824521E+03  0.7818608E-02  0.1018463E+00
         -2   -1    0    0    0  501 -0.00000000000E+00  0.00000000000E+00  0.34074491799E+02  0.34074491894E+02  0.25500000000E-02 0. -1.
          2   -1    0    0  501    0  0.00000000000E+00 -0.00000000000E+00 -0.17077291619E+04  0.17077291619E+04  0.25500000000E-02 0.  1.
    5000001    1    1    2    0    0  0.37975996883E+02 -0.17018888954E+03 -0.75150093889E+03  0.78891387085E+03  0.16500000000E+03 0.  0.
   -5000001    1    1    2    0    0 -0.37975996883E+02  0.17018888954E+03 -0.92215373122E+03  0.95288978296E+03  0.16500000000E+03 0.  0.
<mgrwt>
<rscale>  0 0.48245208E+03</rscale>
<asrwt>0</asrwt>
<pdfrwt beam="1">  1        2 0.26272750E+00 0.48245208E+03</pdfrwt>
<pdfrwt beam="2">  1       -2 0.52422308E-02 0.48245208E+03</pdfrwt>
<totfact> 0.19109477E+03</totfact>
</mgrwt>
</event>
<event>
 4    1  0.1573232E-005  0.5475886E+03  0.7818608E-02  0.1002054E+00
         -2   -1    0    0    0  501 -0.00000000000E+00  0.00000000000E+00  0.56336639210E+02  0.56336639268E+02  0.25500000000E-02 0. -1.
          2   -1    0    0  501    0  0.00000000000E+00 -0.00000000000E+00 -0.13306317785E+04  0.13306317785E+04  0.25500000000E-02 0.  1.
    5000001    1    1    2    0    0 -0.33099916039E+02  0.21295197124E+03 -0.54602859390E+03  0.60976747360E+03  0.16500000000E+03 0.  0.
   -5000001    1    1    2    0    0  0.33099916039E+02 -0.21295197124E+03 -0.72826654540E+03  0.77720094419E+03  0.16500000000E+03 0.  0.
<mgrwt>
<rscale>  0 0.54758861E+03</rscale>
<asrwt>0</asrwt>
<pdfrwt beam="1">  1        2 0.20471256E+00 0.54758861E+03</pdfrwt>
<pdfrwt beam="2">  1       -2 0.86671763E-02 0.54758861E+03</pdfrwt>
<totfact> 0.13935212E+03</totfact>
</mgrwt>
</event>
<event>
 4    1  0.1573232E-005  0.6213263E+03  0.7818608E-02  0.9862123E-01
         -2   -1    0    0    0  501 -0.00000000000E+00  0.00000000000E+00  0.47780902075E+02  0.47780902144E+02  0.25500000000E-02 0. -1.
          2   -1    0    0  501    0  0.00000000000E+00 -0.00000000000E+00 -0.20198777095E+04  0.20198777095E+04  0.25500000000E-02 0.  1.
    5000001    1    1    2    0    0  0.11906774051E+03 -0.18018243485E+03 -0.48528425195E+03  0.55620917095E+03  0.16500000000E+03 0.  0.
   -5000001    1    1    2    0    0 -0.11906774051E+03  0.18018243485E+03 -0.14868125555E+04  0.15114494407E+04  0.16500000000E+03 0.  0.
<mgrwt>
<rscale>  0 0.62132626E+03</rscale>
<asrwt>0</asrwt>
<pdfrwt beam="1">  1        2 0.31075035E+00 0.62132626E+03</pdfrwt>
<pdfrwt beam="2">  1       -2 0.73509096E-02 0.62132626E+03</pdfrwt>
<totfact> 0.75751454E+02</totfact>
</mgrwt>
</event>
<event>
 4    1  0.1573232E-005  0.5164612E+03  0.7818608E-02  0.1009569E+00
         -2   -1    0    0    0  501 -0.00000000000E+00  0.00000000000E+00  0.27078421402E+02  0.27078421522E+02  0.25500000000E-02 0. -1.
          2   -1    0    0  501    0  0.00000000000E+00 -0.00000000000E+00 -0.24625896110E+04  0.24625896110E+04  0.25500000000E-02 0.  1.
    5000001    1    1    2    0    0 -0.14212447122E+03  0.13877004137E+03 -0.12117545822E+04  0.12389635415E+04  0.16500000000E+03 0.  0.
   -5000001    1    1    2    0    0  0.14212447122E+03 -0.13877004137E+03 -0.12237566074E+04  0.12507044910E+04  0.16500000000E+03 0.  0.
<mgrwt>
<rscale>  0 0.51646119E+03</rscale>
<asrwt>0</asrwt>
<pdfrwt beam="1">  1        2 0.37885977E+00 0.51646119E+03</pdfrwt>
<pdfrwt beam="2">  1       -2 0.41659129E-02 0.51646119E+03</pdfrwt>
<totfact> 0.10576242E+03</totfact>
</mgrwt>
</event>
<event>
 4    1  0.1573232E-005  0.4939885E+03  0.7818608E-02  0.1015360E+00
         -2   -1    0    0    0  501 -0.00000000000E+00  0.00000000000E+00  0.94188293084E+02  0.94188293119E+02  0.25500000000E-02 0. -1.
          2   -1    0    0  501    0  0.00000000000E+00 -0.00000000000E+00 -0.64770416124E+03  0.64770416125E+03  0.25500000000E-02 0.  1.
    5000001    1    1    2    0    0 -0.14090151552E+03  0.11780744963E+03 -0.26621107803E+03  0.36307736135E+03  0.16500000000E+03 0.  0.
   -5000001    1    1    2    0    0  0.14090151552E+03 -0.11780744963E+03 -0.28730479013E+03  0.37881509301E+03  0.16500000000E+03 0.  0.
<mgrwt>
<rscale>  0 0.49398846E+03</rscale>
<asrwt>0</asrwt>
<pdfrwt beam="1">  1        2 0.99646791E-01 0.49398846E+03</pdfrwt>
<pdfrwt beam="2">  1       -2 0.14490507E-01 0.49398846E+03</pdfrwt>
<totfact> 0.16771853E+03</totfact>
</mgrwt>
</event>
<event>
 4    1  0.1573232E-005  0.5388787E+03  0.7818608E-02  0.1004101E+00
          2   -1    0    0  501    0  0.00000000000E+00  0.00000000000E+00  0.68053418733E+03  0.68053418734E+03  0.25500000000E-02 0.  1.
         -2   -1    0    0    0  501 -0.00000000000E+00 -0.00000000000E+00 -0.10667730386E+03  0.10667730389E+03  0.25500000000E-02 0. -1.
    5000001    1    1    2    0    0 -0.14377634157E+03  0.14487102416E+03  0.19790987620E+03  0.32871350617E+03  0.16500000000E+03 0.  0.
   -5000001    1    1    2    0    0  0.14377634157E+03 -0.14487102416E+03  0.37594700726E+03  0.45849798506E+03  0.16500000000E+03 0.  0.
<mgrwt>
<rscale>  0 0.53887866E+03</rscale>
<asrwt>0</asrwt>
<pdfrwt beam="1">  1        2 0.10469756E+00 0.53887866E+03</pdfrwt>
<pdfrwt beam="2">  1       -2 0.16411893E-01 0.53887866E+03</pdfrwt>
<totfact> 0.12796822E+03</totfact>
</mgrwt>
</event>
<event>
 4    1  0.1573232E-005  0.5380921E+03  0.7818608E-02  0.1004288E+00
          2   -1    0    0  501    0  0.00000000000E+00  0.00000000000E+00  0.12071091002E+04  0.12071091002E+04  0.25500000000E-02 0.  1.
         -2   -1    0    0    0  501 -0.00000000000E+00 -0.00000000000E+00 -0.59966225519E+02  0.59966225573E+02  0.25500000000E-02 0. -1.
    5000001    1    1    2    0    0  0.62836820305E+02  0.17036011910E+03  0.83355329792E+03  0.86891146652E+03  0.16500000000E+03 0.  0.
   -5000001    1    1    2    0    0 -0.62836820305E+02 -0.17036011910E+03  0.31358957675E+03  0.39816385925E+03  0.16500000000E+03 0.  0.
<mgrwt>
<rscale>  0 0.53809210E+03</rscale>
<asrwt>0</asrwt>
<pdfrwt beam="1">  1        2 0.18570909E+00 0.53809210E+03</pdfrwt>
<pdfrwt beam="2">  1       -2 0.92255733E-02 0.53809210E+03</pdfrwt>
<totfact> 0.14849037E+03</totfact>
</mgrwt>
</event>
<event>
 4    1  0.1573232E-005  0.3986618E+03  0.7818608E-02  0.1044244E+00
         -2   -1    0    0    0  501 -0.00000000000E+00  0.00000000000E+00  0.80372588369E+03  0.80372588369E+03  0.25500000000E-02 0. -1.
          2   -1    0    0  501    0  0.00000000000E+00 -0.00000000000E+00 -0.49435774694E+02  0.49435774760E+02  0.25500000000E-02 0.  1.
    5000001    1    1    2    0    0 -0.21533417737E+02  0.10945041351E+03  0.39436301152E+03  0.44180342456E+03  0.16500000000E+03 0.  0.
   -5000001    1    1    2    0    0  0.21533417737E+02 -0.10945041351E+03  0.35992709747E+03  0.41135823389E+03  0.16500000000E+03 0.  0.
<mgrwt>
<rscale>  0 0.39866182E+03</rscale>
<asrwt>0</asrwt>
<pdfrwt beam="1">  1        2 0.76055042E-02 0.39866182E+03</pdfrwt>
<pdfrwt beam="2">  1       -2 0.12365013E+00 0.39866182E+03</pdfrwt>
<totfact> 0.47061991E+02</totfact>
</mgrwt>
</event>
<event>
 4    1  0.1573232E-005  0.4511886E+03  0.7818608E-02  0.1027368E+00
         -2   -1    0    0    0  501 -0.00000000000E+00  0.00000000000E+00  0.99420135410E+02  0.99420135443E+02  0.25500000000E-02 0.  1.
          2   -1    0    0  501    0  0.00000000000E+00 -0.00000000000E+00 -0.51189612535E+03  0.51189612535E+03  0.25500000000E-02 0. -1.
    5000001    1    1    2    0    0 -0.24155586345E+02  0.15165881649E+03 -0.19382801500E+03  0.29728469246E+03  0.16500000000E+03 0.  0.
   -5000001    1    1    2    0    0  0.24155586345E+02 -0.15165881649E+03 -0.21864797494E+03  0.31403156834E+03  0.16500000000E+03 0.  0.
<mgrwt>
<rscale>  0 0.45118857E+03</rscale>
<asrwt>0</asrwt>
<pdfrwt beam="1">  1        2 0.78753249E-01 0.45118857E+03</pdfrwt>
<pdfrwt beam="2">  1       -2 0.15295406E-01 0.45118857E+03</pdfrwt>
<totfact> 0.20205106E+03</totfact>
</mgrwt>
</event>
<event>
 4    1  0.1573232E-005  0.3513576E+03  0.7818608E-02  0.1062059E+00
          2   -1    0    0  501    0  0.00000000000E+00  0.00000000000E+00  0.30352874288E+04  0.30352874288E+04  0.25500000000E-02 0.  1.
         -2   -1    0    0    0  501 -0.00000000000E+00 -0.00000000000E+00 -0.10168078920E+02  0.10168079240E+02  0.25500000000E-02 0. -1.
    5000001    1    1    2    0    0  0.14477061324E+02  0.40102592823E+02  0.11427594729E+04  0.11553969085E+04  0.16500000000E+03 0.  0.
   -5000001    1    1    2    0    0 -0.14477061324E+02 -0.40102592823E+02  0.18823598770E+04  0.18900585995E+04  0.16500000000E+03 0.  0.
<mgrwt>
<rscale>  0 0.35135761E+03</rscale>
<asrwt>0</asrwt>
<pdfrwt beam="1">  1        2 0.46696714E+00 0.35135761E+03</pdfrwt>
<pdfrwt beam="2">  1       -2 0.15643204E-02 0.35135761E+03</pdfrwt>
<totfact> 0.21832270E+03</totfact>
</mgrwt>
</event>
<event>
 4    1  0.1573232E-005  0.5235511E+03  0.7818608E-02  0.1007808E+00
          2   -1    0    0  501    0  0.00000000000E+00  0.00000000000E+00  0.15364989698E+04  0.15364989698E+04  0.25500000000E-02 0.  1.
         -2   -1    0    0    0  501 -0.00000000000E+00 -0.00000000000E+00 -0.44599072018E+02  0.44599072091E+02  0.25500000000E-02 0. -1.
    5000001    1    1    2    0    0  0.11598067605E+03  0.48072737049E+02  0.12285652051E+04  0.12459373854E+04  0.16500000000E+03 0.  0.
   -5000001    1    1    2    0    0 -0.11598067605E+03 -0.48072737049E+02  0.26333469271E+03  0.33516065648E+03  0.16500000000E+03 0.  0.
<mgrwt>
<rscale>  0 0.52355106E+03</rscale>
<asrwt>0</asrwt>
<pdfrwt beam="1">  1        2 0.23638446E+00 0.52355106E+03</pdfrwt>
<pdfrwt beam="2">  1       -2 0.68613956E-02 0.52355106E+03</pdfrwt>
<totfact> 0.15525702E+03</totfact>
</mgrwt>
</event>
<event>
 4    1  0.1573232E-005  0.4516910E+03  0.7818608E-02  0.1027219E+00
         -2   -1    0    0    0  501 -0.00000000000E+00  0.00000000000E+00  0.18919426635E+03  0.18919426637E+03  0.25500000000E-02 0. -1.
          2   -1    0    0  501    0  0.00000000000E+00 -0.00000000000E+00 -0.26959691732E+03  0.26959691733E+03  0.25500000000E-02 0.  1.
    5000001    1    1    2    0    0 -0.44651748963E+02 -0.11853907295E+03  0.49135200265E+02  0.21373946385E+03  0.16500000000E+03 0.  0.
   -5000001    1    1    2    0    0  0.44651748963E+02  0.11853907295E+03 -0.12953785123E+03  0.24505171985E+03  0.16500000000E+03 0.  0.
<mgrwt>
<rscale>  0 0.45169100E+03</rscale>
<asrwt>0</asrwt>
<pdfrwt beam="1">  1        2 0.41476449E-01 0.45169100E+03</pdfrwt>
<pdfrwt beam="2">  1       -2 0.29106810E-01 0.45169100E+03</pdfrwt>
<totfact> 0.13369473E+03</totfact>
</mgrwt>
</event>
<event>
 4    1  0.1573232E-005  0.4851948E+03  0.7818608E-02  0.1017717E+00
          2   -1    0    0  501    0  0.00000000000E+00  0.00000000000E+00  0.19419565962E+03  0.19419565963E+03  0.25500000000E-02 0.  1.
         -2   -1    0    0    0  501 -0.00000000000E+00 -0.00000000000E+00 -0.30306284245E+03  0.30306284246E+03  0.25500000000E-02 0. -1.
    5000001    1    1    2    0    0  0.65372689329E+01  0.25151809921E+02 -0.23474303216E+03  0.28810525954E+03  0.16500000000E+03 0.  0.
   -5000001    1    1    2    0    0 -0.65372689329E+01 -0.25151809921E+02  0.12587584933E+03  0.20915324255E+03  0.16500000000E+03 0.  0.
<mgrwt>
<rscale>  0 0.48519476E+03</rscale>
<asrwt>0</asrwt>
<pdfrwt beam="1">  1        2 0.29876256E-01 0.48519476E+03</pdfrwt>
<pdfrwt beam="2">  1       -2 0.46625052E-01 0.48519476E+03</pdfrwt>
<totfact> 0.78301103E+02</totfact>
</mgrwt>
</event>
<event>
 4    1  0.1573232E-005  0.5089421E+03  0.7818608E-02  0.1011471E+00
          2   -1    0    0  501    0  0.00000000000E+00  0.00000000000E+00  0.16519850979E+04  0.16519850979E+04  0.25500000000E-02 0.  1.
         -2   -1    0    0    0  501 -0.00000000000E+00 -0.00000000000E+00 -0.39198612125E+02  0.39198612208E+02  0.25500000000E-02 0. -1.
    5000001    1    1    2    0    0  0.14548416962E+03  0.12762327093E+03  0.83558602808E+03  0.87343136720E+03  0.16500000000E+03 0.  0.
   -5000001    1    1    2    0    0 -0.14548416962E+03 -0.12762327093E+03  0.77720045774E+03  0.81775234295E+03  0.16500000000E+03 0.  0.
<mgrwt>
<rscale>  0 0.50894213E+03</rscale>
<asrwt>0</asrwt>
<pdfrwt beam="1">  1        2 0.25415152E+00 0.50894213E+03</pdfrwt>
<pdfrwt beam="2">  1       -2 0.60305565E-02 0.50894213E+03</pdfrwt>
<totfact> 0.16456135E+03</totfact>
</mgrwt>
</event>
<event>
 4    1  0.1573232E-005  0.4289819E+03  0.7818608E-02  0.1034182E+00
          2   -1    0    0  501    0  0.00000000000E+00  0.00000000000E+00  0.13611253168E+03  0.13611253170E+03  0.25500000000E-02 0.  1.
         -2   -1    0    0    0  501 -0.00000000000E+00 -0.00000000000E+00 -0.33800236954E+03  0.33800236955E+03  0.25500000000E-02 0. -1.
    5000001    1    1    2    0    0 -0.13641885395E+03 -0.36790966066E+01 -0.87065017648E+02  0.23114704576E+03  0.16500000000E+03 0.  0.
   -5000001    1    1    2    0    0  0.13641885395E+03  0.36790966066E+01 -0.11482482021E+03  0.24296785549E+03  0.16500000000E+03 0.  0.
<mgrwt>
<rscale>  0 0.42898186E+03</rscale>
<asrwt>0</asrwt>
<pdfrwt beam="1">  1        2 0.20940390E-01 0.42898186E+03</pdfrwt>
<pdfrwt beam="2">  1       -2 0.52000364E-01 0.42898186E+03</pdfrwt>
<totfact> 0.94126566E+02</totfact>
</mgrwt>
</event>
<event>
 4    1  0.1573232E-005  0.4995570E+03  0.7818608E-02  0.1013895E+00
         -2   -1    0    0    0  501 -0.00000000000E+00  0.00000000000E+00  0.32913750938E+02  0.32913751037E+02  0.25500000000E-02 0. -1.
          2   -1    0    0  501    0  0.00000000000E+00 -0.00000000000E+00 -0.18955389279E+04  0.18955389279E+04  0.25500000000E-02 0.  1.
    5000001    1    1    2    0    0 -0.75604265176E+02  0.17141433046E+03 -0.90008957720E+03  0.93406912195E+03  0.16500000000E+03 0.  0.
   -5000001    1    1    2    0    0  0.75604265176E+02 -0.17141433046E+03 -0.96253559977E+03  0.99438355700E+03  0.16500000000E+03 0.  0.
<mgrwt>
<rscale>  0 0.49955699E+03</rscale>
<asrwt>0</asrwt>
<pdfrwt beam="1">  1        2 0.29162129E+00 0.49955699E+03</pdfrwt>
<pdfrwt beam="2">  1       -2 0.50636555E-02 0.49955699E+03</pdfrwt>
<totfact> 0.15967545E+03</totfact>
</mgrwt>
</event>
<event>
 4    1  0.1573232E-005  0.3380580E+03  0.7818608E-02  0.1067626E+00
          2   -1    0    0  501    0  0.00000000000E+00  0.00000000000E+00  0.58072208011E+03  0.58072208012E+03  0.25500000000E-02 0.  1.
         -2   -1    0    0    0  501 -0.00000000000E+00 -0.00000000000E+00 -0.49198744541E+02  0.49198744607E+02  0.25500000000E-02 0. -1.
    5000001    1    1    2    0    0  0.16764439458E+02 -0.29711445099E+02  0.29089833433E+03  0.33617057771E+03  0.16500000000E+03 0.  0.
   -5000001    1    1    2    0    0 -0.16764439458E+02  0.29711445099E+02  0.24062500124E+03  0.29375024701E+03  0.16500000000E+03 0.  0.
<mgrwt>
<rscale>  0 0.33805797E+03</rscale>
<asrwt>0</asrwt>
<pdfrwt beam="1">  1        2 0.89341866E-01 0.33805797E+03</pdfrwt>
<pdfrwt beam="2">  1       -2 0.75690370E-02 0.33805797E+03</pdfrwt>
<totfact> 0.54237830E+03</totfact>
</mgrwt>
</event>
<event>
 4    1  0.1573232E-005  0.4166512E+03  0.7818608E-02  0.1038162E+00
          2   -1    0    0  501    0  0.00000000000E+00  0.00000000000E+00  0.13133797033E+04  0.13133797033E+04  0.25500000000E-02 0.  1.
         -2   -1    0    0    0  501 -0.00000000000E+00 -0.00000000000E+00 -0.33044177246E+02  0.33044177345E+02  0.25500000000E-02 0. -1.
    5000001    1    1    2    0    0 -0.60784554269E+02 -0.11166921782E+03  0.63006408900E+03  0.66360419868E+03  0.16500000000E+03 0.  0.
   -5000001    1    1    2    0    0  0.60784554269E+02  0.11166921782E+03  0.65027143705E+03  0.68281968197E+03  0.16500000000E+03 0.  0.
<mgrwt>
<rscale>  0 0.41665118E+03</rscale>
<asrwt>0</asrwt>
<pdfrwt beam="1">  1        2 0.20205843E+00 0.41665118E+03</pdfrwt>
<pdfrwt beam="2">  1       -2 0.50837192E-02 0.41665118E+03</pdfrwt>
<totfact> 0.32985364E+03</totfact>
</mgrwt>
</event>
<event>
 4    1  0.1573232E-005  0.5235615E+03  0.7818608E-02  0.1007806E+00
          2   -1    0    0  501    0  0.00000000000E+00  0.00000000000E+00  0.75031152797E+03  0.75031152797E+03  0.25500000000E-02 0.  1.
         -2   -1    0    0    0  501 -0.00000000000E+00 -0.00000000000E+00 -0.91334264911E+02  0.91334264947E+02  0.25500000000E-02 0. -1.
    5000001    1    1    2    0    0 -0.18119457963E+03 -0.78868520729E+02  0.25319512292E+03  0.36108792491E+03  0.16500000000E+03 0.  0.
   -5000001    1    1    2    0    0  0.18119457963E+03  0.78868520729E+02  0.40578214014E+03  0.48055786801E+03  0.16500000000E+03 0.  0.
<mgrwt>
<rscale>  0 0.52356146E+03</rscale>
<asrwt>0</asrwt>
<pdfrwt beam="1">  1        2 0.11543254E+00 0.52356146E+03</pdfrwt>
<pdfrwt beam="2">  1       -2 0.14051426E-01 0.52356146E+03</pdfrwt>
<totfact> 0.14701479E+03</totfact>
</mgrwt>
</event>
<event>
 4    1  0.1573232E-005  0.7460316E+03  0.7818608E-02  0.9641597E-01
          2   -1    0    0  501    0  0.00000000000E+00  0.00000000000E+00  0.21920937594E+04  0.21920937594E+04  0.25500000000E-02 0.  1.
         -2   -1    0    0    0  501 -0.00000000000E+00 -0.00000000000E+00 -0.63473918270E+02  0.63473918321E+02  0.25500000000E-02 0. -1.
    5000001    1    1    2    0    0 -0.15927693147E+03 -0.27042089878E+03  0.71407327321E+03  0.79725920686E+03  0.16500000000E+03 0.  0.
   -5000001    1    1    2    0    0  0.15927693147E+03  0.27042089878E+03  0.14145465679E+04  0.14583084708E+04  0.16500000000E+03 0.  0.
<mgrwt>
<rscale>  0 0.74603158E+03</rscale>
<asrwt>0</asrwt>
<pdfrwt beam="1">  1        2 0.33724522E+00 0.74603158E+03</pdfrwt>
<pdfrwt beam="2">  1       -2 0.97652174E-02 0.74603158E+03</pdfrwt>
<totfact> 0.38301451E+02</totfact>
</mgrwt>
</event>
<event>
 4    1  0.1573232E-005  0.6942368E+03  0.7818608E-02  0.9727139E-01
          2   -1    0    0  501    0  0.00000000000E+00  0.00000000000E+00  0.29251963439E+03  0.29251963441E+03  0.25500000000E-02 0.  1.
         -2   -1    0    0    0  501 -0.00000000000E+00 -0.00000000000E+00 -0.41190798204E+03  0.41190798204E+03  0.25500000000E-02 0. -1.
    5000001    1    1    2    0    0 -0.22255492645E+03 -0.20839699884E+03 -0.41939667899E+02  0.34920472528E+03  0.16500000000E+03 0.  0.
   -5000001    1    1    2    0    0  0.22255492645E+03  0.20839699884E+03 -0.77448679743E+02  0.35522289117E+03  0.16500000000E+03 0.  0.
<mgrwt>
<rscale>  0 0.69423677E+03</rscale>
<asrwt>0</asrwt>
<pdfrwt beam="1">  1        2 0.45003021E-01 0.69423677E+03</pdfrwt>
<pdfrwt beam="2">  1       -2 0.63370459E-01 0.69423677E+03</pdfrwt>
<totfact> 0.26291570E+02</totfact>
</mgrwt>
</event>
<event>
 4    1  0.1573232E-005  0.3507573E+03  0.7818608E-02  0.1062305E+00
          2   -1    0    0  501    0  0.00000000000E+00  0.00000000000E+00  0.29852661988E+03  0.29852661989E+03  0.25500000000E-02 0.  1.
         -2   -1    0    0    0  501 -0.00000000000E+00 -0.00000000000E+00 -0.10303160682E+03  0.10303160685E+03  0.25500000000E-02 0. -1.
    5000001    1    1    2    0    0  0.37251591680E+02 -0.29401021294E+02  0.13871547951E+03  0.22072400276E+03  0.16500000000E+03 0.  0.
   -5000001    1    1    2    0    0 -0.37251591680E+02  0.29401021294E+02  0.56779533541E+02  0.18083422399E+03  0.16500000000E+03 0.  0.
<mgrwt>
<rscale>  0 0.35075734E+03</rscale>
<asrwt>0</asrwt>
<pdfrwt beam="1">  1        2 0.45927172E-01 0.35075734E+03</pdfrwt>
<pdfrwt beam="2">  1       -2 0.15851016E-01 0.35075734E+03</pdfrwt>
<totfact> 0.34435558E+03</totfact>
</mgrwt>
</event>
<event>
 4    1  0.1573232E-005  0.3920291E+03  0.7818608E-02  0.1046575E+00
          2   -1    0    0  501    0  0.00000000000E+00  0.00000000000E+00  0.14614298387E+03  0.14614298389E+03  0.25500000000E-02 0.  1.
         -2   -1    0    0    0  501 -0.00000000000E+00 -0.00000000000E+00 -0.26290485994E+03  0.26290485995E+03  0.25500000000E-02 0. -1.
    5000001    1    1    2    0    0  0.83757909865E+02  0.64613560282E+02 -0.55741069640E+02  0.20377037685E+03  0.16500000000E+03 0.  0.
   -5000001    1    1    2    0    0 -0.83757909865E+02 -0.64613560282E+02 -0.61020806429E+02  0.20527746699E+03  0.16500000000E+03 0.  0.
<mgrwt>
<rscale>  0 0.39202908E+03</rscale>
<asrwt>0</asrwt>
<pdfrwt beam="1">  1        2 0.22483536E-01 0.39202908E+03</pdfrwt>
<pdfrwt beam="2">  1       -2 0.40446901E-01 0.39202908E+03</pdfrwt>
<totfact> 0.14251103E+03</totfact>
</mgrwt>
</event>
<event>
 4    1  0.1573232E-005  0.4717758E+03  0.7818608E-02  0.1021420E+00
         -2   -1    0    0    0  501 -0.00000000000E+00  0.00000000000E+00  0.36594012203E+02  0.36594012292E+02  0.25500000000E-02 0. -1.
          2   -1    0    0  501    0  0.00000000000E+00 -0.00000000000E+00 -0.15205519638E+04  0.15205519638E+04  0.25500000000E-02 0.  1.
    5000001    1    1    2    0    0 -0.59218062636E+01 -0.16823030821E+03 -0.77179293124E+03  0.80698564616E+03  0.16500000000E+03 0.  0.
   -5000001    1    1    2    0    0  0.59218062636E+01  0.16823030821E+03 -0.71216502035E+03  0.75016032993E+03  0.16500000000E+03 0.  0.
<mgrwt>
<rscale>  0 0.47177578E+03</rscale>
<asrwt>0</asrwt>
<pdfrwt beam="1">  1        2 0.23393102E+00 0.47177578E+03</pdfrwt>
<pdfrwt beam="2">  1       -2 0.56298492E-02 0.47177578E+03</pdfrwt>
<totfact> 0.21617766E+03</totfact>
</mgrwt>
</event>
<event>
 4    1  0.1573232E-005  0.6164742E+03  0.7818608E-02  0.9871805E-01
         -2   -1    0    0    0  501 -0.00000000000E+00  0.00000000000E+00  0.14172184411E+03  0.14172184413E+03  0.25500000000E-02 0. -1.
          2   -1    0    0  501    0  0.00000000000E+00 -0.00000000000E+00 -0.67039853659E+03  0.67039853659E+03  0.25500000000E-02 0.  1.
    5000001    1    1    2    0    0 -0.73121347331E+02 -0.24983648456E+03 -0.25842979284E+03  0.40221382159E+03  0.16500000000E+03 0.  0.
   -5000001    1    1    2    0    0  0.73121347331E+02  0.24983648456E+03 -0.27024689964E+03  0.40990655913E+03  0.16500000000E+03 0.  0.
<mgrwt>
<rscale>  0 0.61647422E+03</rscale>
<asrwt>0</asrwt>
<pdfrwt beam="1">  1        2 0.10313823E+00 0.61647422E+03</pdfrwt>
<pdfrwt beam="2">  1       -2 0.21803361E-01 0.61647422E+03</pdfrwt>
<totfact> 0.79672292E+02</totfact>
</mgrwt>
</event>
<event>
 4    1  0.1573232E-005  0.1264029E+04  0.7818608E-02  0.9058587E-01
          2   -1    0    0  501    0  0.00000000000E+00  0.00000000000E+00  0.10331215833E+04  0.10331215833E+04  0.25500000000E-02 0.  1.
         -2   -1    0    0    0  501 -0.00000000000E+00 -0.00000000000E+00 -0.38663612484E+03  0.38663612485E+03  0.25500000000E-02 0. -1.
    5000001    1    1    2    0    0  0.54764838989E+03  0.42938927461E+02  0.25108369728E+02  0.57412362839E+03  0.16500000000E+03 0.  0.
   -5000001    1    1    2    0    0 -0.54764838989E+03 -0.42938927461E+02  0.62137708869E+03  0.84563407972E+03  0.16500000000E+03 0.  0.
<mgrwt>
<rscale>  0 0.12640287E+04</rscale>
<asrwt>0</asrwt>
<pdfrwt beam="1">  1        2 0.15894178E+00 0.12640287E+04</pdfrwt>
<pdfrwt beam="2">  1       -2 0.59482480E-01 0.12640287E+04</pdfrwt>
<totfact> 0.62185529E+01</totfact>
</mgrwt>
</event>
<event>
 4    1  0.1573232E-005  0.3703583E+03  0.7818608E-02  0.1054556E+00
         -2   -1    0    0    0  501 -0.00000000000E+00  0.00000000000E+00  0.51310656535E+02  0.51310656598E+02  0.25500000000E-02 0. -1.
          2   -1    0    0  501    0  0.00000000000E+00 -0.00000000000E+00 -0.66830796516E+03  0.66830796516E+03  0.25500000000E-02 0.  1.
    5000001    1    1    2    0    0 -0.39341376470E+02 -0.72840467050E+02 -0.33684583807E+03  0.38411404057E+03  0.16500000000E+03 0.  0.
   -5000001    1    1    2    0    0  0.39341376470E+02  0.72840467050E+02 -0.28015147055E+03  0.33550458118E+03  0.16500000000E+03 0.  0.
<mgrwt>
<rscale>  0 0.37035832E+03</rscale>
<asrwt>0</asrwt>
<pdfrwt beam="1">  1        2 0.10281660E+00 0.37035832E+03</pdfrwt>
<pdfrwt beam="2">  1       -2 0.78939476E-02 0.37035832E+03</pdfrwt>
<totfact> 0.43060136E+03</totfact>
</mgrwt>
</event>
<event>
 4    1  0.1573232E-005  0.4603955E+03  0.7818608E-02  0.1024667E+00
          2   -1    0    0  501    0  0.00000000000E+00  0.00000000000E+00  0.12779822703E+04  0.12779822703E+04  0.25500000000E-02 0.  1.
         -2   -1    0    0    0  501 -0.00000000000E+00 -0.00000000000E+00 -0.41464577527E+02  0.41464577606E+02  0.25500000000E-02 0. -1.
    5000001    1    1    2    0    0  0.34750677354E+02 -0.12213145888E+03  0.33684140489E+03  0.39599347832E+03  0.16500000000E+03 0.  0.
   -5000001    1    1    2    0    0 -0.34750677354E+02  0.12213145888E+03  0.89967628785E+03  0.92345336956E+03  0.16500000000E+03 0.  0.
<mgrwt>
<rscale>  0 0.46039546E+03</rscale>
<asrwt>0</asrwt>
<pdfrwt beam="1">  1        2 0.19661268E+00 0.46039546E+03</pdfrwt>
<pdfrwt beam="2">  1       -2 0.63791650E-02 0.46039546E+03</pdfrwt>
<totfact> 0.24284927E+03</totfact>
</mgrwt>
</event>
<event>
 4    1  0.1573232E-005  0.4749790E+03  0.7818608E-02  0.1020524E+00
         -2   -1    0    0    0  501 -0.00000000000E+00  0.00000000000E+00  0.40898134772E+03  0.40898134773E+03  0.25500000000E-02 0. -1.
          2   -1    0    0  501    0  0.00000000000E+00 -0.00000000000E+00 -0.13790668334E+03  0.13790668336E+03  0.25500000000E-02 0.  1.
    5000001    1    1    2    0    0  0.94597922163E+02 -0.13625761894E+03  0.88606817387E+02  0.25018208106E+03  0.16500000000E+03 0.  0.
   -5000001    1    1    2    0    0 -0.94597922163E+02  0.13625761894E+03  0.18246784700E+03  0.29670595003E+03  0.16500000000E+03 0.  0.
<mgrwt>
<rscale>  0 0.47497899E+03</rscale>
<asrwt>0</asrwt>
<pdfrwt beam="1">  1        2 0.21216413E-01 0.47497899E+03</pdfrwt>
<pdfrwt beam="2">  1       -2 0.62920208E-01 0.47497899E+03</pdfrwt>
<totfact> 0.62466805E+02</totfact>
</mgrwt>
</event>
<event>
 4    1  0.1573232E-005  0.4771458E+03  0.7818608E-02  0.1019923E+00
          2   -1    0    0  501    0  0.00000000000E+00  0.00000000000E+00  0.23409718024E+04  0.23409718024E+04  0.25500000000E-02 0.  1.
         -2   -1    0    0    0  501 -0.00000000000E+00 -0.00000000000E+00 -0.24313422122E+02  0.24313422256E+02  0.25500000000E-02 0. -1.
    5000001    1    1    2    0    0 -0.16864177743E+02  0.13176360586E+03  0.61426068125E+03  0.64975936534E+03  0.16500000000E+03 0.  0.
   -5000001    1    1    2    0    0  0.16864177743E+02 -0.13176360586E+03  0.17023976991E+04  0.17155258593E+04  0.16500000000E+03 0.  0.
<mgrwt>
<rscale>  0 0.47714583E+03</rscale>
<asrwt>0</asrwt>
<pdfrwt beam="1">  1        2 0.36014959E+00 0.47714583E+03</pdfrwt>
<pdfrwt beam="2">  1       -2 0.37405257E-02 0.47714583E+03</pdfrwt>
<totfact> 0.14605376E+03</totfact>
</mgrwt>
</event>
<event>
 4    1  0.1573232E-005  0.5917678E+03  0.7818608E-02  0.9922634E-01
         -2   -1    0    0    0  501 -0.00000000000E+00  0.00000000000E+00  0.42500067102E+02  0.42500067178E+02  0.25500000000E-02 0. -1.
          2   -1    0    0  501    0  0.00000000000E+00 -0.00000000000E+00 -0.20599328885E+04  0.20599328885E+04  0.25500000000E-02 0.  1.
    5000001    1    1    2    0    0 -0.49956053128E+02 -0.77690259912E+02 -0.20018377436E+03  0.27537234292E+03  0.16500000000E+03 0.  0.
   -5000001    1    1    2    0    0  0.49956053128E+02  0.77690259912E+02 -0.18172490471E+04  0.18270606128E+04  0.16500000000E+03 0.  0.
<mgrwt>
<rscale>  0 0.59176781E+03</rscale>
<asrwt>0</asrwt>
<pdfrwt beam="1">  1        2 0.31691268E+00 0.59176781E+03</pdfrwt>
<pdfrwt beam="2">  1       -2 0.65384734E-02 0.59176781E+03</pdfrwt>
<totfact> 0.86877892E+02</totfact>
</mgrwt>
</event>
<event>
 4    1  0.1573232E-005  0.4355475E+03  0.7818608E-02  0.1032122E+00
          2   -1    0    0  501    0  0.00000000000E+00  0.00000000000E+00  0.50277793305E+03  0.50277793305E+03  0.25500000000E-02 0.  1.
         -2   -1    0    0    0  501 -0.00000000000E+00 -0.00000000000E+00 -0.94326749973E+02  0.94326750007E+02  0.25500000000E-02 0. -1.
    5000001    1    1    2    0    0 -0.85012401140E+02 -0.10930415705E+03  0.24813602576E+03  0.32858940089E+03  0.16500000000E+03 0.  0.
   -5000001    1    1    2    0    0  0.85012401140E+02  0.10930415705E+03  0.16031515731E+03  0.26851528217E+03  0.16500000000E+03 0.  0.
<mgrwt>
<rscale>  0 0.43554751E+03</rscale>
<asrwt>0</asrwt>
<pdfrwt beam="1">  1        2 0.77350450E-01 0.43554751E+03</pdfrwt>
<pdfrwt beam="2">  1       -2 0.14511808E-01 0.43554751E+03</pdfrwt>
<totfact> 0.22513541E+03</totfact>
</mgrwt>
</event>
<event>
 4    1  0.1573232E-005  0.4294896E+03  0.7818608E-02  0.1034021E+00
          2   -1    0    0  501    0  0.00000000000E+00  0.00000000000E+00  0.77790321219E+02  0.77790321261E+02  0.25500000000E-02 0.  1.
         -2   -1    0    0    0  501 -0.00000000000E+00 -0.00000000000E+00 -0.59281565756E+03  0.59281565757E+03  0.25500000000E-02 0. -1.
    5000001    1    1    2    0    0  0.17726195581E+02 -0.13330288974E+03 -0.21317208669E+03  0.30124942650E+03  0.16500000000E+03 0.  0.
   -5000001    1    1    2    0    0 -0.17726195581E+02  0.13330288974E+03 -0.30185324965E+03  0.36935655233E+03  0.16500000000E+03 0.  0.
<mgrwt>
<rscale>  0 0.42948956E+03</rscale>
<asrwt>0</asrwt>
<pdfrwt beam="1">  1        2 0.11967742E-01 0.42948956E+03</pdfrwt>
<pdfrwt beam="2">  1       -2 0.91202406E-01 0.42948956E+03</pdfrwt>
<totfact> 0.54694675E+02</totfact>
</mgrwt>
</event>
<event>
 4    1  0.1573232E-005  0.5668306E+03  0.7818608E-02  0.9976717E-01
          2   -1    0    0  501    0  0.00000000000E+00  0.00000000000E+00  0.36173429256E+03  0.36173429257E+03  0.25500000000E-02 0.  1.
         -2   -1    0    0    0  501 -0.00000000000E+00 -0.00000000000E+00 -0.22205311043E+03  0.22205311045E+03  0.25500000000E-02 0. -1.
    5000001    1    1    2    0    0 -0.38612399342E+01 -0.17972774909E+03  0.21831368348E+03  0.32741844383E+03  0.16500000000E+03 0.  0.
   -5000001    1    1    2    0    0  0.38612399342E+01  0.17972774909E+03 -0.78632501352E+02  0.25636895919E+03  0.16500000000E+03 0.  0.
<mgrwt>
<rscale>  0 0.56683057E+03</rscale>
<asrwt>0</asrwt>
<pdfrwt beam="1">  1        2 0.55651430E-01 0.56683057E+03</pdfrwt>
<pdfrwt beam="2">  1       -2 0.34162017E-01 0.56683057E+03</pdfrwt>
<totfact> 0.71842616E+02</totfact>
</mgrwt>
</event>
<event>
 4    1  0.1573232E-005  0.1300670E+04  0.7818608E-02  0.9029034E-01
          2   -1    0    0  501    0  0.00000000000E+00  0.00000000000E+00  0.71692742837E+03  0.71692742838E+03  0.25500000000E-02 0.  1.
         -2   -1    0    0    0  501 -0.00000000000E+00 -0.00000000000E+00 -0.58992772605E+03  0.58992772605E+03  0.25500000000E-02 0. -1.
    5000001    1    1    2    0    0 -0.40529628866E+03 -0.25929806259E+03  0.47065505924E+03  0.69299477030E+03  0.16500000000E+03 0.  0.
   -5000001    1    1    2    0    0  0.40529628866E+03  0.25929806259E+03 -0.34365535692E+03  0.61386038413E+03  0.16500000000E+03 0.  0.
<mgrwt>
<rscale>  0 0.13006696E+04</rscale>
<asrwt>0</asrwt>
<pdfrwt beam="1">  1        2 0.11029653E+00 0.13006696E+04</pdfrwt>
<pdfrwt beam="2">  1       -2 0.90758112E-01 0.13006696E+04</pdfrwt>
<totfact> 0.40392591E+01</totfact>
</mgrwt>
</event>
<event>
 4    1  0.1573232E-005  0.7538532E+03  0.7818608E-02  0.9629325E-01
          2   -1    0    0  501    0  0.00000000000E+00  0.00000000000E+00  0.14072842414E+04  0.14072842414E+04  0.25500000000E-02 0.  1.
         -2   -1    0    0    0  501 -0.00000000000E+00 -0.00000000000E+00 -0.10095590897E+03  0.10095590900E+03  0.25500000000E-02 0. -1.
    5000001    1    1    2    0    0  0.21282166621E+03 -0.23267096529E+03  0.40472310730E+03  0.53893843181E+03  0.16500000000E+03 0.  0.
   -5000001    1    1    2    0    0 -0.21282166621E+03  0.23267096529E+03  0.90160522517E+03  0.96930171863E+03  0.16500000000E+03 0.  0.
<mgrwt>
<rscale>  0 0.75385319E+03</rscale>
<asrwt>0</asrwt>
<pdfrwt beam="1">  1        2 0.21650526E+00 0.75385319E+03</pdfrwt>
<pdfrwt beam="2">  1       -2 0.15531679E-01 0.75385319E+03</pdfrwt>
<totfact> 0.47834068E+02</totfact>
</mgrwt>
</event>
<event>
 4    1  0.1573232E-005  0.1327051E+04  0.7818608E-02  0.9008384E-01
          2   -1    0    0  501    0  0.00000000000E+00  0.00000000000E+00  0.11225259374E+04  0.11225259374E+04  0.25500000000E-02 0.  1.
         -2   -1    0    0    0  501 -0.00000000000E+00 -0.00000000000E+00 -0.39221021267E+03  0.39221021268E+03  0.25500000000E-02 0. -1.
    5000001    1    1    2    0    0 -0.46054947618E+03 -0.96566660527E+02 -0.13448381951E+03  0.51647055835E+03  0.16500000000E+03 0.  0.
   -5000001    1    1    2    0    0  0.46054947618E+03  0.96566660527E+02  0.86479954429E+03  0.99826559178E+03  0.16500000000E+03 0.  0.
<mgrwt>
<rscale>  0 0.13270511E+04</rscale>
<asrwt>0</asrwt>
<pdfrwt beam="1">  1        2 0.17269630E+00 0.13270511E+04</pdfrwt>
<pdfrwt beam="2">  1       -2 0.60340033E-01 0.13270511E+04</pdfrwt>
<totfact> 0.52834127E+01</totfact>
</mgrwt>
</event>
<event>
 4    1  0.1573232E-005  0.3850311E+03  0.7818608E-02  0.1049090E+00
          2   -1    0    0  501    0  0.00000000000E+00  0.00000000000E+00  0.10561712231E+03  0.10561712234E+03  0.25500000000E-02 0.  1.
         -2   -1    0    0    0  501 -0.00000000000E+00 -0.00000000000E+00 -0.35091121098E+03  0.35091121099E+03  0.25500000000E-02 0. -1.
    5000001    1    1    2    0    0  0.46141608384E+02 -0.49135626556E+02 -0.36377247890E+02  0.18191113761E+03  0.16500000000E+03 0.  0.
   -5000001    1    1    2    0    0 -0.46141608384E+02  0.49135626556E+02 -0.20891684078E+03  0.27461719572E+03  0.16500000000E+03 0.  0.
<mgrwt>
<rscale>  0 0.38503108E+03</rscale>
<asrwt>0</asrwt>
<pdfrwt beam="1">  1        2 0.16248788E-01 0.38503108E+03</pdfrwt>
<pdfrwt beam="2">  1       -2 0.53986339E-01 0.38503108E+03</pdfrwt>
<totfact> 0.11727805E+03</totfact>
</mgrwt>
</event>
<event>
 4    1  0.1573232E-005  0.6553653E+03  0.7818608E-02  0.9796763E-01
          2   -1    0    0  501    0  0.00000000000E+00  0.00000000000E+00  0.22511478984E+04  0.22511478984E+04  0.25500000000E-02 0.  1.
         -2   -1    0    0    0  501 -0.00000000000E+00 -0.00000000000E+00 -0.47698298712E+02  0.47698298780E+02  0.25500000000E-02 0. -1.
    5000001    1    1    2    0    0 -0.23535947072E+03  0.16140104670E+01  0.54983641292E+03  0.62043675460E+03  0.16500000000E+03 0.  0.
   -5000001    1    1    2    0    0  0.23535947072E+03 -0.16140104670E+01  0.16536131868E+04  0.16784094426E+04  0.16500000000E+03 0.  0.
<mgrwt>
<rscale>  0 0.65536532E+03</rscale>
<asrwt>0</asrwt>
<pdfrwt beam="1">  1        2 0.34633042E+00 0.65536532E+03</pdfrwt>
<pdfrwt beam="2">  1       -2 0.73382003E-02 0.65536532E+03</pdfrwt>
<totfact> 0.56640483E+02</totfact>
</mgrwt>
</event>
<event>
 4    1  0.1573232E-005  0.4070928E+03  0.7818608E-02  0.1041351E+00
         -2   -1    0    0    0  501 -0.00000000000E+00  0.00000000000E+00  0.84781415931E+02  0.84781415969E+02  0.25500000000E-02 0. -1.
          2   -1    0    0  501    0  0.00000000000E+00 -0.00000000000E+00 -0.48868170738E+03  0.48868170738E+03  0.25500000000E-02 0.  1.
    5000001    1    1    2    0    0 -0.23318598907E+01 -0.10286360040E+03 -0.11719763572E+03  0.22703885940E+03  0.16500000000E+03 0.  0.
   -5000001    1    1    2    0    0  0.23318598907E+01  0.10286360040E+03 -0.28670265572E+03  0.34642426396E+03  0.16500000000E+03 0.  0.
<mgrwt>
<rscale>  0 0.40709275E+03</rscale>
<asrwt>0</asrwt>
<pdfrwt beam="1">  1        2 0.75181799E-01 0.40709275E+03</pdfrwt>
<pdfrwt beam="2">  1       -2 0.13043295E-01 0.40709275E+03</pdfrwt>
<totfact> 0.27726087E+03</totfact>
</mgrwt>
</event>
<event>
 4    1  0.1573232E-005  0.5413605E+03  0.7818608E-02  0.1003514E+00
         -2   -1    0    0    0  501 -0.00000000000E+00  0.00000000000E+00  0.34677738271E+02  0.34677738365E+02  0.25500000000E-02 0. -1.
          2   -1    0    0  501    0  0.00000000000E+00 -0.00000000000E+00 -0.21128193101E+04  0.21128193101E+04  0.25500000000E-02 0.  1.
    5000001    1    1    2    0    0  0.98332393107E+01  0.20907976762E+03 -0.85167098972E+03  0.89240098417E+03  0.16500000000E+03 0.  0.
   -5000001    1    1    2    0    0 -0.98332393107E+01 -0.20907976762E+03 -0.12264705821E+04  0.12550960643E+04  0.16500000000E+03 0.  0.
<mgrwt>
<rscale>  0 0.54136049E+03</rscale>
<asrwt>0</asrwt>
<pdfrwt beam="1">  1        2 0.32504902E+00 0.54136049E+03</pdfrwt>
<pdfrwt beam="2">  1       -2 0.53350383E-02 0.54136049E+03</pdfrwt>
<totfact> 0.11215382E+03</totfact>
</mgrwt>
</event>
<event>
 4    1  0.1573232E-005  0.6791619E+03  0.7818608E-02  0.9753547E-01
          2   -1    0    0  501    0  0.00000000000E+00  0.00000000000E+00  0.88615221722E+03  0.88615221723E+03  0.25500000000E-02 0. -1.
         -2   -1    0    0    0  501 -0.00000000000E+00 -0.00000000000E+00 -0.13013026290E+03  0.13013026292E+03  0.25500000000E-02 0.  1.
    5000001    1    1    2    0    0  0.18546220677E+03  0.12614277802E+03  0.66887067062E+03  0.72451446128E+03  0.16500000000E+03 0.  0.
   -5000001    1    1    2    0    0 -0.18546220677E+03 -0.12614277802E+03  0.87151283699E+02  0.29176801887E+03  0.16500000000E+03 0.  0.
<mgrwt>
<rscale>  0 0.67916190E+03</rscale>
<asrwt>0</asrwt>
<pdfrwt beam="1">  1        2 0.13633111E+00 0.67916190E+03</pdfrwt>
<pdfrwt beam="2">  1       -2 0.20020041E-01 0.67916190E+03</pdfrwt>
<totfact> 0.64237728E+02</totfact>
</mgrwt>
</event>
<event>
 4    1  0.1573232E-005  0.7080713E+03  0.7818608E-02  0.9703528E-01
         -2   -1    0    0    0  501 -0.00000000000E+00  0.00000000000E+00  0.84360146331E+02  0.84360146370E+02  0.25500000000E-02 0. -1.
          2   -1    0    0  501    0  0.00000000000E+00 -0.00000000000E+00 -0.14857873443E+04  0.14857873443E+04  0.25500000000E-02 0.  1.
    5000001    1    1    2    0    0  0.16050336424E+03 -0.11896394387E+03 -0.12356895247E+04  0.12625638009E+04  0.16500000000E+03 0.  0.
   -5000001    1    1    2    0    0 -0.16050336424E+03  0.11896394387E+03 -0.16573767326E+03  0.30758368977E+03  0.16500000000E+03 0.  0.
<mgrwt>
<rscale>  0 0.70807129E+03</rscale>
<asrwt>0</asrwt>
<pdfrwt beam="1">  1        2 0.22858265E+00 0.70807129E+03</pdfrwt>
<pdfrwt beam="2">  1       -2 0.12978485E-01 0.70807129E+03</pdfrwt>
<totfact> 0.58602176E+02</totfact>
</mgrwt>
</event>
<event>
 4    1  0.1573232E-005  0.1158698E+04  0.7818608E-02  0.9149796E-01
          2   -1    0    0  501    0  0.00000000000E+00  0.00000000000E+00  0.13603054707E+04  0.13603054707E+04  0.25500000000E-02 0.  1.
         -2   -1    0    0    0  501 -0.00000000000E+00 -0.00000000000E+00 -0.24674275775E+03  0.24674275776E+03  0.25500000000E-02 0. -1.
    5000001    1    1    2    0    0  0.23168166254E+03 -0.46157504420E+03  0.27358476501E+03  0.60729032417E+03  0.16500000000E+03 0.  0.
   -5000001    1    1    2    0    0 -0.23168166254E+03  0.46157504420E+03  0.83997794799E+03  0.99975790434E+03  0.16500000000E+03 0.  0.
<mgrwt>
<rscale>  0 0.11586984E+04</rscale>
<asrwt>0</asrwt>
<pdfrwt beam="1">  1        2 0.20927776E+00 0.11586984E+04</pdfrwt>
<pdfrwt beam="2">  1       -2 0.37960425E-01 0.11586984E+04</pdfrwt>
<totfact> 0.98761776E+01</totfact>
</mgrwt>
</event>
<event>
 4    1  0.1573232E-005  0.7780689E+03  0.7818608E-02  0.9592315E-01
         -2   -1    0    0    0  501 -0.00000000000E+00  0.00000000000E+00  0.23396124444E+03  0.23396124446E+03  0.25500000000E-02 0. -1.
          2   -1    0    0  501    0  0.00000000000E+00 -0.00000000000E+00 -0.64689260210E+03  0.64689260210E+03  0.25500000000E-02 0.  1.
    5000001    1    1    2    0    0 -0.34070454689E+03  0.16418324965E+02 -0.30628124097E+03  0.48721899412E+03  0.16500000000E+03 0.  0.
   -5000001    1    1    2    0    0  0.34070454689E+03 -0.16418324965E+02 -0.10665011669E+03  0.39363485244E+03  0.16500000000E+03 0.  0.
<mgrwt>
<rscale>  0 0.77806889E+03</rscale>
<asrwt>0</asrwt>
<pdfrwt beam="1">  1        2 0.99521938E-01 0.77806889E+03</pdfrwt>
<pdfrwt beam="2">  1       -2 0.35994038E-01 0.77806889E+03</pdfrwt>
<totfact> 0.33028925E+02</totfact>
</mgrwt>
</event>
<event>
 4    1  0.1573232E-005  0.4249140E+03  0.7818608E-02  0.1035479E+00
          2   -1    0    0  501    0  0.00000000000E+00  0.00000000000E+00  0.16357359460E+04  0.16357359460E+04  0.25500000000E-02 0.  1.
         -2   -1    0    0    0  501 -0.00000000000E+00 -0.00000000000E+00 -0.27594908631E+02  0.27594908748E+02  0.25500000000E-02 0. -1.
    5000001    1    1    2    0    0 -0.11837554617E+03  0.62018544214E+02  0.83281335414E+03  0.85945456692E+03  0.16500000000E+03 0.  0.
   -5000001    1    1    2    0    0  0.11837554617E+03 -0.62018544214E+02  0.77532768318E+03  0.80387628779E+03  0.16500000000E+03 0.  0.
<mgrwt>
<rscale>  0 0.42491403E+03</rscale>
<asrwt>0</asrwt>
<pdfrwt beam="1">  1        2 0.25165171E+00 0.42491403E+03</pdfrwt>
<pdfrwt beam="2">  1       -2 0.42453701E-02 0.42491403E+03</pdfrwt>
<totfact> 0.28948898E+03</totfact>
</mgrwt>
</event>
<event>
 4    1  0.1573232E-005  0.5530894E+03  0.7818608E-02  0.1000781E+00
          2   -1    0    0  501    0  0.00000000000E+00  0.00000000000E+00  0.10707589971E+04  0.10707589971E+04  0.25500000000E-02 0. -1.
         -2   -1    0    0    0  501 -0.00000000000E+00 -0.00000000000E+00 -0.71423140468E+02  0.71423140513E+02  0.25500000000E-02 0.  1.
    5000001    1    1    2    0    0  0.13675967304E+03  0.16949708753E+03  0.41158008177E+03  0.49401987264E+03  0.16500000000E+03 0.  0.
   -5000001    1    1    2    0    0 -0.13675967304E+03 -0.16949708753E+03  0.58775577482E+03  0.64816226494E+03  0.16500000000E+03 0.  0.
<mgrwt>
<rscale>  0 0.55308940E+03</rscale>
<asrwt>0</asrwt>
<pdfrwt beam="1">  1        2 0.16473214E+00 0.55308940E+03</pdfrwt>
<pdfrwt beam="2">  1       -2 0.10988176E-01 0.55308940E+03</pdfrwt>
<totfact> 0.13488601E+03</totfact>
</mgrwt>
</event>
<event>
 4    1  0.1573232E-005  0.4067174E+03  0.7818608E-02  0.1041478E+00
          2   -1    0    0  501    0  0.00000000000E+00  0.00000000000E+00  0.53680886476E+03  0.53680886476E+03  0.25500000000E-02 0.  1.
         -2   -1    0    0    0  501 -0.00000000000E+00 -0.00000000000E+00 -0.77038155062E+02  0.77038155104E+02  0.25500000000E-02 0. -1.
    5000001    1    1    2    0    0  0.71185691477E+02 -0.35161106862E+02  0.36340307984E+03  0.40692813192E+03  0.16500000000E+03 0.  0.
   -5000001    1    1    2    0    0 -0.71185691477E+02  0.35161106862E+02  0.96367629853E+02  0.20691888795E+03  0.16500000000E+03 0.  0.
<mgrwt>
<rscale>  0 0.40671742E+03</rscale>
<asrwt>0</asrwt>
<pdfrwt beam="1">  1        2 0.82585980E-01 0.40671742E+03</pdfrwt>
<pdfrwt beam="2">  1       -2 0.11852024E-01 0.40671742E+03</pdfrwt>
<totfact> 0.29134320E+03</totfact>
</mgrwt>
</event>
<event>
 4    1  0.1573232E-005  0.6669873E+03  0.7818608E-02  0.9775416E-01
          2   -1    0    0  501    0  0.00000000000E+00  0.00000000000E+00  0.25926170952E+04  0.25926170952E+04  0.25500000000E-02 0.  1.
         -2   -1    0    0    0  501 -0.00000000000E+00 -0.00000000000E+00 -0.42897968296E+02  0.42897968371E+02  0.25500000000E-02 0. -1.
    5000001    1    1    2    0    0  0.22030213663E+03 -0.18049717392E+03  0.10627792521E+04  0.11125812329E+04  0.16500000000E+03 0.  0.
   -5000001    1    1    2    0    0 -0.22030213663E+03  0.18049717392E+03  0.14869398748E+04  0.15229338306E+04  0.16500000000E+03 0.  0.
<mgrwt>
<rscale>  0 0.66698727E+03</rscale>
<asrwt>0</asrwt>
<pdfrwt beam="1">  1        2 0.39886429E+00 0.66698727E+03</pdfrwt>
<pdfrwt beam="2">  1       -2 0.65996855E-02 0.66698727E+03</pdfrwt>
<totfact> 0.43081957E+02</totfact>
</mgrwt>
</event>
<event>
 4    1  0.1573232E-005  0.5806487E+03  0.7818608E-02  0.9946388E-01
          2   -1    0    0  501    0  0.00000000000E+00  0.00000000000E+00  0.61115749917E+03  0.61115749918E+03  0.25500000000E-02 0.  1.
         -2   -1    0    0    0  501 -0.00000000000E+00 -0.00000000000E+00 -0.13791572353E+03  0.13791572355E+03  0.25500000000E-02 0. -1.
    5000001    1    1    2    0    0 -0.20037646301E+03 -0.24545037027E+02  0.71865978191E+02  0.27044944924E+03  0.16500000000E+03 0.  0.
   -5000001    1    1    2    0    0  0.20037646301E+03  0.24545037027E+02  0.40137579745E+03  0.47862377349E+03  0.16500000000E+03 0.  0.
<mgrwt>
<rscale>  0 0.58064870E+03</rscale>
<asrwt>0</asrwt>
<pdfrwt beam="1">  1        2 0.94024233E-01 0.58064870E+03</pdfrwt>
<pdfrwt beam="2">  1       -2 0.21217803E-01 0.58064870E+03</pdfrwt>
<totfact> 0.93625757E+02</totfact>
</mgrwt>
</event>
<event>
 4    1  0.1573232E-005  0.4832935E+03  0.7818608E-02  0.1018234E+00
          2   -1    0    0  501    0  0.00000000000E+00  0.00000000000E+00  0.22022677710E+04  0.22022677710E+04  0.25500000000E-02 0.  1.
         -2   -1    0    0    0  501 -0.00000000000E+00 -0.00000000000E+00 -0.26515008336E+02  0.26515008459E+02  0.25500000000E-02 0. -1.
    5000001    1    1    2    0    0  0.11109895085E+03 -0.11626914017E+03  0.75193200427E+03  0.78644022588E+03  0.16500000000E+03 0.  0.
   -5000001    1    1    2    0    0 -0.11109895085E+03  0.11626914017E+03  0.14238207584E+04  0.14423425536E+04  0.16500000000E+03 0.  0.
<mgrwt>
<rscale>  0 0.48329349E+03</rscale>
<asrwt>0</asrwt>
<pdfrwt beam="1">  1        2 0.33881026E+00 0.48329349E+03</pdfrwt>
<pdfrwt beam="2">  1       -2 0.40792340E-02 0.48329349E+03</pdfrwt>
<totfact> 0.15226482E+03</totfact>
</mgrwt>
</event>
<event>
 4    1  0.1573232E-005  0.5704973E+03  0.7818608E-02  0.9968579E-01
         -2   -1    0    0    0  501 -0.00000000000E+00  0.00000000000E+00  0.14183117879E+03  0.14183117881E+03  0.25500000000E-02 0. -1.
          2   -1    0    0  501    0  0.00000000000E+00 -0.00000000000E+00 -0.57368763633E+03  0.57368763633E+03  0.25500000000E-02 0.  1.
    5000001    1    1    2    0    0  0.19073883100E+03  0.13059796999E+03 -0.24922161609E+03  0.37785386770E+03  0.16500000000E+03 0.  0.
   -5000001    1    1    2    0    0 -0.19073883100E+03 -0.13059796999E+03 -0.18263484145E+03  0.33766494744E+03  0.16500000000E+03 0.  0.
<mgrwt>
<rscale>  0 0.57049730E+03</rscale>
<asrwt>0</asrwt>
<pdfrwt beam="1">  1        2 0.88259635E-01 0.57049730E+03</pdfrwt>
<pdfrwt beam="2">  1       -2 0.21820182E-01 0.57049730E+03</pdfrwt>
<totfact> 0.96129682E+02</totfact>
</mgrwt>
</event>
<event>
 4    1  0.1573232E-005  0.5343511E+03  0.7818608E-02  0.1005182E+00
         -2   -1    0    0    0  501 -0.00000000000E+00  0.00000000000E+00  0.37287235014E+02  0.37287235101E+02  0.25500000000E-02 0. -1.
          2   -1    0    0  501    0  0.00000000000E+00 -0.00000000000E+00 -0.19144023289E+04  0.19144023289E+04  0.25500000000E-02 0.  1.
    5000001    1    1    2    0    0 -0.19619575347E+03 -0.11949354455E+02 -0.66713841187E+03  0.71479662936E+03  0.16500000000E+03 0.  0.
   -5000001    1    1    2    0    0  0.19619575347E+03  0.11949354455E+02 -0.12099766820E+04  0.12368929346E+04  0.16500000000E+03 0.  0.
<mgrwt>
<rscale>  0 0.53435108E+03</rscale>
<asrwt>0</asrwt>
<pdfrwt beam="1">  1        2 0.29452336E+00 0.53435108E+03</pdfrwt>
<pdfrwt beam="2">  1       -2 0.57364992E-02 0.53435108E+03</pdfrwt>
<totfact> 0.12828059E+03</totfact>
</mgrwt>
</event>
<event>
 4    1  0.1573232E-005  0.7684732E+03  0.7818608E-02  0.9606806E-01
          2   -1    0    0  501    0  0.00000000000E+00  0.00000000000E+00  0.31046951636E+03  0.31046951637E+03  0.25500000000E-02 0.  1.
         -2   -1    0    0    0  501 -0.00000000000E+00 -0.00000000000E+00 -0.47553062540E+03  0.47553062541E+03  0.25500000000E-02 0. -1.
    5000001    1    1    2    0    0 -0.11278182115E+03 -0.12405213570E+03  0.22821460819E+03  0.32774316003E+03  0.16500000000E+03 0.  0.
   -5000001    1    1    2    0    0  0.11278182115E+03  0.12405213570E+03 -0.39327571723E+03  0.45825698175E+03  0.16500000000E+03 0.  0.
<mgrwt>
<rscale>  0 0.76847320E+03</rscale>
<asrwt>0</asrwt>
<pdfrwt beam="1">  1        2 0.47764541E-01 0.76847320E+03</pdfrwt>
<pdfrwt beam="2">  1       -2 0.73158558E-01 0.76847320E+03</pdfrwt>
<totfact> 0.17980117E+02</totfact>
</mgrwt>
</event>
<event>
 4    1  0.1573232E-005  0.6274613E+03  0.7818608E-02  0.9850015E-01
          2   -1    0    0  501    0  0.00000000000E+00  0.00000000000E+00  0.71162529555E+03  0.71162529556E+03  0.25500000000E-02 0.  1.
         -2   -1    0    0    0  501 -0.00000000000E+00 -0.00000000000E+00 -0.13831285106E+03  0.13831285109E+03  0.25500000000E-02 0. -1.
    5000001    1    1    2    0    0 -0.15524262435E+03 -0.21137621364E+03  0.21999630142E+03  0.38000466937E+03  0.16500000000E+03 0.  0.
   -5000001    1    1    2    0    0  0.15524262435E+03  0.21137621364E+03  0.35331614307E+03  0.46993347727E+03  0.16500000000E+03 0.  0.
<mgrwt>
<rscale>  0 0.62746131E+03</rscale>
<asrwt>0</asrwt>
<pdfrwt beam="1">  1        2 0.10948082E+00 0.62746131E+03</pdfrwt>
<pdfrwt beam="2">  1       -2 0.21278900E-01 0.62746131E+03</pdfrwt>
<totfact> 0.77168605E+02</totfact>
</mgrwt>
</event>
<event>
 4    1  0.1573232E-005  0.3579485E+03  0.7818608E-02  0.1059399E+00
          2   -1    0    0  501    0  0.00000000000E+00  0.00000000000E+00  0.21637918160E+03  0.21637918161E+03  0.25500000000E-02 0.  1.
         -2   -1    0    0    0  501 -0.00000000000E+00 -0.00000000000E+00 -0.14803541736E+03  0.14803541738E+03  0.25500000000E-02 0. -1.
    5000001    1    1    2    0    0  0.57298685995E+01  0.66217479578E+02  0.54256319138E+02  0.18597401475E+03  0.16500000000E+03 0.  0.
   -5000001    1    1    2    0    0 -0.57298685995E+01 -0.66217479578E+02  0.14087445099E+02  0.17844058424E+03  0.16500000000E+03 0.  0.
<mgrwt>
<rscale>  0 0.35794850E+03</rscale>
<asrwt>0</asrwt>
<pdfrwt beam="1">  1        2 0.33289105E-01 0.35794850E+03</pdfrwt>
<pdfrwt beam="2">  1       -2 0.22774680E-01 0.35794850E+03</pdfrwt>
<totfact> 0.26320604E+03</totfact>
</mgrwt>
</event>
<event>
 4    1  0.1573232E-005  0.6187798E+03  0.7818608E-02  0.9867192E-01
          2   -1    0    0  501    0  0.00000000000E+00  0.00000000000E+00  0.69175049318E+03  0.69175049319E+03  0.25500000000E-02 0.  1.
         -2   -1    0    0    0  501 -0.00000000000E+00 -0.00000000000E+00 -0.13837663123E+03  0.13837663126E+03  0.25500000000E-02 0. -1.
    5000001    1    1    2    0    0  0.10555676520E+03 -0.23848670431E+03  0.24732666568E+03  0.39549161605E+03  0.16500000000E+03 0.  0.
   -5000001    1    1    2    0    0 -0.10555676520E+03  0.23848670431E+03  0.30604719627E+03  0.43463550839E+03  0.16500000000E+03 0.  0.
<mgrwt>
<rscale>  0 0.61877978E+03</rscale>
<asrwt>0</asrwt>
<pdfrwt beam="1">  1        2 0.10642315E+00 0.61877978E+03</pdfrwt>
<pdfrwt beam="2">  1       -2 0.21288712E-01 0.61877978E+03</pdfrwt>
<totfact> 0.79913851E+02</totfact>
</mgrwt>
</event>
<event>
 4    1  0.1573232E-005  0.1712783E+04  0.7818608E-02  0.8754107E-01
         -2   -1    0    0    0  501 -0.00000000000E+00  0.00000000000E+00  0.60843961589E+03  0.60843961590E+03  0.25500000000E-02 0. -1.
          2   -1    0    0  501    0  0.00000000000E+00 -0.00000000000E+00 -0.12053884668E+04  0.12053884668E+04  0.25500000000E-02 0.  1.
    5000001    1    1    2    0    0  0.21331641880E+03  0.29562552193E+03 -0.11002970496E+04  0.11708018369E+04  0.16500000000E+03 0.  0.
   -5000001    1    1    2    0    0 -0.21331641880E+03 -0.29562552193E+03  0.50334819870E+03  0.64302624587E+03  0.16500000000E+03 0.  0.
<mgrwt>
<rscale>  0 0.17127826E+04</rscale>
<asrwt>0</asrwt>
<pdfrwt beam="1">  1        2 0.18544438E+00 0.17127826E+04</pdfrwt>
<pdfrwt beam="2">  1       -2 0.93606095E-01 0.17127826E+04</pdfrwt>
<totfact> 0.17244651E+01</totfact>
</mgrwt>
</event>
<event>
 4    1  0.1573232E-005  0.4266200E+03  0.7818608E-02  0.1034933E+00
          2   -1    0    0  501    0  0.00000000000E+00  0.00000000000E+00  0.22983793112E+03  0.22983793114E+03  0.25500000000E-02 0.  1.
         -2   -1    0    0    0  501 -0.00000000000E+00 -0.00000000000E+00 -0.19797061461E+03  0.19797061463E+03  0.25500000000E-02 0. -1.
    5000001    1    1    2    0    0  0.12644424813E+03 -0.47644830532E+02  0.20185604518E+02  0.21422099895E+03  0.16500000000E+03 0.  0.
   -5000001    1    1    2    0    0 -0.12644424813E+03  0.47644830532E+02  0.11681711991E+02  0.21358754682E+03  0.16500000000E+03 0.  0.
<mgrwt>
<rscale>  0 0.42662000E+03</rscale>
<asrwt>0</asrwt>
<pdfrwt beam="1">  1        2 0.35359682E-01 0.42662000E+03</pdfrwt>
<pdfrwt beam="2">  1       -2 0.30457018E-01 0.42662000E+03</pdfrwt>
<totfact> 0.14654059E+03</totfact>
</mgrwt>
</event>
<event>
 4    1  0.1573232E-005  0.6096523E+03  0.7818608E-02  0.9885581E-01
         -2   -1    0    0    0  501 -0.00000000000E+00  0.00000000000E+00  0.10983327282E+03  0.10983327285E+03  0.25500000000E-02 0. -1.
          2   -1    0    0  501    0  0.00000000000E+00 -0.00000000000E+00 -0.84600017764E+03  0.84600017764E+03  0.25500000000E-02 0.  1.
    5000001    1    1    2    0    0 -0.12755052065E+02  0.17557768263E+03 -0.66015433969E+03  0.70286482783E+03  0.16500000000E+03 0.  0.
   -5000001    1    1    2    0    0  0.12755052065E+02 -0.17557768263E+03 -0.76012565126E+02  0.25296862265E+03  0.16500000000E+03 0.  0.
<mgrwt>
<rscale>  0 0.60965226E+03</rscale>
<asrwt>0</asrwt>
<pdfrwt beam="1">  1        2 0.13015387E+00 0.60965226E+03</pdfrwt>
<pdfrwt beam="2">  1       -2 0.16897427E-01 0.60965226E+03</pdfrwt>
<totfact> 0.91891161E+02</totfact>
</mgrwt>
</event>
<event>
 4    1  0.1573232E-005  0.4053783E+03  0.7818608E-02  0.1041933E+00
          2   -1    0    0  501    0  0.00000000000E+00  0.00000000000E+00  0.17712398308E+04  0.17712398308E+04  0.25500000000E-02 0.  1.
         -2   -1    0    0    0  501 -0.00000000000E+00 -0.00000000000E+00 -0.23194428603E+02  0.23194428743E+02  0.25500000000E-02 0. -1.
    5000001    1    1    2    0    0  0.99611483433E+02 -0.42423745433E+02  0.66945619692E+03  0.69793898114E+03  0.16500000000E+03 0.  0.
   -5000001    1    1    2    0    0 -0.99611483433E+02  0.42423745433E+02  0.10785892052E+04  0.10964952784E+04  0.16500000000E+03 0.  0.
<mgrwt>
<rscale>  0 0.40537832E+03</rscale>
<asrwt>0</asrwt>
<pdfrwt beam="1">  1        2 0.27249845E+00 0.40537832E+03</pdfrwt>
<pdfrwt beam="2">  1       -2 0.35683734E-02 0.40537832E+03</pdfrwt>
<totfact> 0.31915141E+03</totfact>
</mgrwt>
</event>
<event>
 4    1  0.1573232E-005  0.3733565E+03  0.7818608E-02  0.1053417E+00
         -2   -1    0    0    0  501 -0.00000000000E+00  0.00000000000E+00  0.24268621839E+02  0.24268621973E+02  0.25500000000E-02 0. -1.
          2   -1    0    0  501    0  0.00000000000E+00 -0.00000000000E+00 -0.14359603054E+04  0.14359603054E+04  0.25500000000E-02 0.  1.
    5000001    1    1    2    0    0  0.85101636549E+02  0.12760130860E+02 -0.64801093555E+03  0.67420195942E+03  0.16500000000E+03 0.  0.
   -5000001    1    1    2    0    0 -0.85101636549E+02 -0.12760130860E+02 -0.76368074800E+03  0.78602696795E+03  0.16500000000E+03 0.  0.
<mgrwt>
<rscale>  0 0.37335655E+03</rscale>
<asrwt>0</asrwt>
<pdfrwt beam="1">  1        2 0.22091690E+00 0.37335655E+03</pdfrwt>
<pdfrwt beam="2">  1       -2 0.37336353E-02 0.37335655E+03</pdfrwt>
<totfact> 0.45177606E+03</totfact>
</mgrwt>
</event>
<event>
 4    1  0.1573232E-005  0.7467517E+03  0.7818608E-02  0.9640460E-01
          2   -1    0    0  501    0  0.00000000000E+00  0.00000000000E+00  0.15824601856E+04  0.15824601856E+04  0.25500000000E-02 0.  1.
         -2   -1    0    0    0  501 -0.00000000000E+00 -0.00000000000E+00 -0.88096696495E+02  0.88096696532E+02  0.25500000000E-02 0. -1.
    5000001    1    1    2    0    0  0.27528322992E+03 -0.12881454721E+03  0.10620525965E+04  0.11169399097E+04  0.16500000000E+03 0.  0.
   -5000001    1    1    2    0    0 -0.27528322992E+03  0.12881454721E+03  0.43231089260E+03  0.55361697238E+03  0.16500000000E+03 0.  0.
<mgrwt>
<rscale>  0 0.74675167E+03</rscale>
<asrwt>0</asrwt>
<pdfrwt beam="1">  1        2 0.24345542E+00 0.74675167E+03</pdfrwt>
<pdfrwt beam="2">  1       -2 0.13553337E-01 0.74675167E+03</pdfrwt>
<totfact> 0.48081540E+02</totfact>
</mgrwt>
</event>
<event>
 4    1  0.1573232E-005  0.6658397E+03  0.7818608E-02  0.9777503E-01
         -2   -1    0    0    0  501 -0.00000000000E+00  0.00000000000E+00  0.93857803542E+02  0.93857803576E+02  0.25500000000E-02 0. -1.
          2   -1    0    0  501    0  0.00000000000E+00 -0.00000000000E+00 -0.11808886233E+04  0.11808886233E+04  0.25500000000E-02 0.  1.
    5000001    1    1    2    0    0  0.15808611429E+03  0.48300974450E+02 -0.89306221871E+02  0.25004960494E+03  0.16500000000E+03 0.  0.
   -5000001    1    1    2    0    0 -0.15808611429E+03 -0.48300974450E+02 -0.99772459788E+03  0.10246968219E+04  0.16500000000E+03 0.  0.
<mgrwt>
<rscale>  0 0.66583966E+03</rscale>
<asrwt>0</asrwt>
<pdfrwt beam="1">  1        2 0.18167516E+00 0.66583966E+03</pdfrwt>
<pdfrwt beam="2">  1       -2 0.14439663E-01 0.66583966E+03</pdfrwt>
<totfact> 0.73398092E+02</totfact>
</mgrwt>
</event>
<event>
 4    1  0.1573232E-005  0.6665552E+03  0.7818608E-02  0.9776201E-01
          2   -1    0    0  501    0  0.00000000000E+00  0.00000000000E+00  0.28121910463E+03  0.28121910464E+03  0.25500000000E-02 0.  1.
         -2   -1    0    0    0  501 -0.00000000000E+00 -0.00000000000E+00 -0.39497296387E+03  0.39497296388E+03  0.25500000000E-02 0. -1.
    5000001    1    1    2    0    0 -0.12074610922E+03 -0.20352237189E+03  0.11241283845E+03  0.30961690038E+03  0.16500000000E+03 0.  0.
   -5000001    1    1    2    0    0  0.12074610922E+03  0.20352237189E+03 -0.22616669770E+03  0.36657516814E+03  0.16500000000E+03 0.  0.
<mgrwt>
<rscale>  0 0.66655515E+03</rscale>
<asrwt>0</asrwt>
<pdfrwt beam="1">  1        2 0.43264478E-01 0.66655515E+03</pdfrwt>
<pdfrwt beam="2">  1       -2 0.60765071E-01 0.66655515E+03</pdfrwt>
<totfact> 0.30048415E+02</totfact>
</mgrwt>
</event>
<event>
 4    1  0.1573232E-005  0.6923487E+03  0.7818608E-02  0.9730407E-01
          2   -1    0    0  501    0  0.00000000000E+00  0.00000000000E+00  0.32969532056E+04  0.32969532056E+04  0.25500000000E-02 0.  1.
         -2   -1    0    0    0  501 -0.00000000000E+00 -0.00000000000E+00 -0.36347703861E+02  0.36347703950E+02  0.25500000000E-02 0. -1.
    5000001    1    1    2    0    0  0.24010879627E+03 -0.18610314532E+03  0.17171056423E+04  0.17515602763E+04  0.16500000000E+03 0.  0.
   -5000001    1    1    2    0    0 -0.24010879627E+03  0.18610314532E+03  0.15434998595E+04  0.15817406333E+04  0.16500000000E+03 0.  0.
<mgrwt>
<rscale>  0 0.69234870E+03</rscale>
<asrwt>0</asrwt>
<pdfrwt beam="1">  1        2 0.50722348E+00 0.69234870E+03</pdfrwt>
<pdfrwt beam="2">  1       -2 0.55919554E-02 0.69234870E+03</pdfrwt>
<totfact> 0.20859676E+02</totfact>
</mgrwt>
</event>
<event>
 4    1  0.1573232E-005  0.4810277E+03  0.7818608E-02  0.1018853E+00
         -2   -1    0    0    0  501 -0.00000000000E+00  0.00000000000E+00  0.11869470203E+03  0.11869470206E+03  0.25500000000E-02 0. -1.
          2   -1    0    0  501    0  0.00000000000E+00 -0.00000000000E+00 -0.48735892046E+03  0.48735892046E+03  0.25500000000E-02 0.  1.
    5000001    1    1    2    0    0  0.13566188307E+03 -0.11048764773E+03 -0.18029742496E+03  0.30057250085E+03  0.16500000000E+03 0.  0.
   -5000001    1    1    2    0    0 -0.13566188307E+03  0.11048764773E+03 -0.18836679347E+03  0.30548112167E+03  0.16500000000E+03 0.  0.
<mgrwt>
<rscale>  0 0.48102774E+03</rscale>
<asrwt>0</asrwt>
<pdfrwt beam="1">  1        2 0.74978295E-01 0.48102774E+03</pdfrwt>
<pdfrwt beam="2">  1       -2 0.18260724E-01 0.48102774E+03</pdfrwt>
<totfact> 0.15832318E+03</totfact>
</mgrwt>
</event>
<event>
 4    1  0.1573232E-005  0.4654353E+03  0.7818608E-02  0.1023217E+00
         -2   -1    0    0    0  501 -0.00000000000E+00  0.00000000000E+00  0.15211437437E+03  0.15211437439E+03  0.25500000000E-02 0. -1.
          2   -1    0    0  501    0  0.00000000000E+00 -0.00000000000E+00 -0.35603150790E+03  0.35603150791E+03  0.25500000000E-02 0.  1.
    5000001    1    1    2    0    0 -0.67101934987E+02  0.50786585083E+02 -0.25577951588E+03  0.31580074042E+03  0.16500000000E+03 0.  0.
   -5000001    1    1    2    0    0  0.67101934987E+02 -0.50786585083E+02  0.51862382354E+02  0.19234514189E+03  0.16500000000E+03 0.  0.
<mgrwt>
<rscale>  0 0.46543532E+03</rscale>
<asrwt>0</asrwt>
<pdfrwt beam="1">  1        2 0.54774078E-01 0.46543532E+03</pdfrwt>
<pdfrwt beam="2">  1       -2 0.23402211E-01 0.46543532E+03</pdfrwt>
<totfact> 0.14591059E+03</totfact>
</mgrwt>
</event>
<event>
 4    1  0.1573232E-005  0.1172480E+04  0.7818608E-02  0.9137292E-01
         -2   -1    0    0    0  501 -0.00000000000E+00  0.00000000000E+00  0.82269391530E+03  0.82269391531E+03  0.25500000000E-02 0. -1.
          2   -1    0    0  501    0  0.00000000000E+00 -0.00000000000E+00 -0.41774642802E+03  0.41774642803E+03  0.25500000000E-02 0.  1.
    5000001    1    1    2    0    0 -0.38813883633E+03 -0.32198194926E+03  0.46617679234E+03  0.70630725158E+03  0.16500000000E+03 0.  0.
   -5000001    1    1    2    0    0  0.38813883633E+03  0.32198194926E+03 -0.61229305054E+02  0.53413309176E+03  0.16500000000E+03 0.  0.
<mgrwt>
<rscale>  0 0.11724802E+04</rscale>
<asrwt>0</asrwt>
<pdfrwt beam="1">  1        2 0.64268681E-01 0.11724802E+04</pdfrwt>
<pdfrwt beam="2">  1       -2 0.12656829E+00 0.11724802E+04</pdfrwt>
<totfact> 0.34753307E+01</totfact>
</mgrwt>
</event>
<event>
 4    1  0.1573232E-005  0.4519190E+03  0.7818608E-02  0.1027151E+00
         -2   -1    0    0    0  501 -0.00000000000E+00  0.00000000000E+00  0.72484706020E+02  0.72484706065E+02  0.25500000000E-02 0. -1.
          2   -1    0    0  501    0  0.00000000000E+00 -0.00000000000E+00 -0.70439281602E+03  0.70439281602E+03  0.25500000000E-02 0.  1.
    5000001    1    1    2    0    0 -0.62502438476E+02  0.11203942969E+03 -0.16834147175E+03  0.26837145849E+03  0.16500000000E+03 0.  0.
   -5000001    1    1    2    0    0  0.62502438476E+02 -0.11203942969E+03 -0.46356663825E+03  0.50850606360E+03  0.16500000000E+03 0.  0.
<mgrwt>
<rscale>  0 0.45191905E+03</rscale>
<asrwt>0</asrwt>
<pdfrwt beam="1">  1        2 0.10836812E+00 0.45191905E+03</pdfrwt>
<pdfrwt beam="2">  1       -2 0.11151494E-01 0.45191905E+03</pdfrwt>
<totfact> 0.23287169E+03</totfact>
</mgrwt>
</event>
<event>
 4    1  0.1573232E-005  0.5179819E+03  0.7818608E-02  0.1009189E+00
         -2   -1    0    0    0  501 -0.00000000000E+00  0.00000000000E+00  0.29291887866E+02  0.29291887977E+02  0.25500000000E-02 0. -1.
          2   -1    0    0  501    0  0.00000000000E+00 -0.00000000000E+00 -0.22899282622E+04  0.22899282622E+04  0.25500000000E-02 0.  1.
    5000001    1    1    2    0    0  0.18592088955E+03  0.55494387596E+02 -0.92006467697E+03  0.95466759347E+03  0.16500000000E+03 0.  0.
   -5000001    1    1    2    0    0 -0.18592088955E+03 -0.55494387596E+02 -0.13405716973E+04  0.13645525567E+04  0.16500000000E+03 0.  0.
<mgrwt>
<rscale>  0 0.51798194E+03</rscale>
<asrwt>0</asrwt>
<pdfrwt beam="1">  1        2 0.35229652E+00 0.51798194E+03</pdfrwt>
<pdfrwt beam="2">  1       -2 0.45064461E-02 0.51798194E+03</pdfrwt>
<totfact> 0.11676589E+03</totfact>
</mgrwt>
</event>
<event>
 4    1  0.1573232E-005  0.3952830E+03  0.7818608E-02  0.1045425E+00
         -2   -1    0    0    0  501 -0.00000000000E+00  0.00000000000E+00  0.16402061365E+02  0.16402061563E+02  0.25500000000E-02 0. -1.
          2   -1    0    0  501    0  0.00000000000E+00 -0.00000000000E+00 -0.23815392727E+04  0.23815392727E+04  0.25500000000E-02 0.  1.
    5000001    1    1    2    0    0  0.87850867736E+02 -0.49589432537E+02 -0.93538514839E+03  0.95516870898E+03  0.16500000000E+03 0.  0.
   -5000001    1    1    2    0    0 -0.87850867736E+02  0.49589432537E+02 -0.14297520629E+04  0.14427726253E+04  0.16500000000E+03 0.  0.
<mgrwt>
<rscale>  0 0.39528295E+03</rscale>
<asrwt>0</asrwt>
<pdfrwt beam="1">  1        2 0.36639038E+00 0.39528295E+03</pdfrwt>
<pdfrwt beam="2">  1       -2 0.25233960E-02 0.39528295E+03</pdfrwt>
<totfact> 0.25283231E+03</totfact>
</mgrwt>
</event>
<event>
 4    1  0.1573232E-005  0.5177459E+03  0.7818608E-02  0.1009248E+00
         -2   -1    0    0    0  501 -0.00000000000E+00  0.00000000000E+00  0.28929485656E+03  0.28929485657E+03  0.25500000000E-02 0. -1.
          2   -1    0    0  501    0  0.00000000000E+00 -0.00000000000E+00 -0.23165013893E+03  0.23165013895E+03  0.25500000000E-02 0.  1.
    5000001    1    1    2    0    0  0.14163611036E+03 -0.13891251957E+03  0.78919528425E+01  0.25815646180E+03  0.16500000000E+03 0.  0.
   -5000001    1    1    2    0    0 -0.14163611036E+03  0.13891251957E+03  0.49752764784E+02  0.26278853372E+03  0.16500000000E+03 0.  0.
<mgrwt>
<rscale>  0 0.51774586E+03</rscale>
<asrwt>0</asrwt>
<pdfrwt beam="1">  1        2 0.35638483E-01 0.51774586E+03</pdfrwt>
<pdfrwt beam="2">  1       -2 0.44506901E-01 0.51774586E+03</pdfrwt>
<totfact> 0.70554248E+02</totfact>
</mgrwt>
</event>
<event>
 4    1  0.1573232E-005  0.4160446E+03  0.7818608E-02  0.1038361E+00
         -2   -1    0    0    0  501 -0.00000000000E+00  0.00000000000E+00  0.51167104823E+02  0.51167104887E+02  0.25500000000E-02 0. -1.
          2   -1    0    0  501    0  0.00000000000E+00 -0.00000000000E+00 -0.84572470005E+03  0.84572470005E+03  0.25500000000E-02 0.  1.
    5000001    1    1    2    0    0  0.54430353384E+02 -0.11322686774E+03 -0.36216589938E+03  0.41733934109E+03  0.16500000000E+03 0.  0.
   -5000001    1    1    2    0    0 -0.54430353384E+02  0.11322686774E+03 -0.43239169585E+03  0.47955246385E+03  0.16500000000E+03 0.  0.
<mgrwt>
<rscale>  0 0.41604463E+03</rscale>
<asrwt>0</asrwt>
<pdfrwt beam="1">  1        2 0.13011148E+00 0.41604463E+03</pdfrwt>
<pdfrwt beam="2">  1       -2 0.78718629E-02 0.41604463E+03</pdfrwt>
<totfact> 0.32159178E+03</totfact>
</mgrwt>
</event>
<event>
 4    1  0.1573232E-005  0.3932643E+03  0.7818608E-02  0.1046137E+00
          2   -1    0    0  501    0  0.00000000000E+00  0.00000000000E+00  0.42956348004E+03  0.42956348005E+03  0.25500000000E-02 0.  1.
         -2   -1    0    0    0  501 -0.00000000000E+00 -0.00000000000E+00 -0.90008125918E+02  0.90008125954E+02  0.25500000000E-02 0. -1.
    5000001    1    1    2    0    0 -0.30696885200E+02  0.75686545440E+02  0.26101017809E+03  0.31940893066E+03  0.16500000000E+03 0.  0.
   -5000001    1    1    2    0    0  0.30696885200E+02 -0.75686545440E+02  0.78545176038E+02  0.20016267534E+03  0.16500000000E+03 0.  0.
<mgrwt>
<rscale>  0 0.39326431E+03</rscale>
<asrwt>0</asrwt>
<pdfrwt beam="1">  1        2 0.66086689E-01 0.39326431E+03</pdfrwt>
<pdfrwt beam="2">  1       -2 0.13847404E-01 0.39326431E+03</pdfrwt>
<totfact> 0.29011888E+03</totfact>
</mgrwt>
</event>
<event>
 4    1  0.1573232E-005  0.4613363E+03  0.7818608E-02  0.1024394E+00
         -2   -1    0    0    0  501 -0.00000000000E+00  0.00000000000E+00  0.64710620996E+02  0.64710621047E+02  0.25500000000E-02 0. -1.
          2   -1    0    0  501    0  0.00000000000E+00 -0.00000000000E+00 -0.82224223009E+03  0.82224223009E+03  0.25500000000E-02 0.  1.
    5000001    1    1    2    0    0 -0.15475038336E+03 -0.30169201569E+02 -0.44324924707E+03  0.49855065631E+03  0.16500000000E+03 0.  0.
   -5000001    1    1    2    0    0  0.15475038336E+03  0.30169201569E+02 -0.31428236202E+03  0.38840219483E+03  0.16500000000E+03 0.  0.
<mgrwt>
<rscale>  0 0.46133634E+03</rscale>
<asrwt>0</asrwt>
<pdfrwt beam="1">  1        2 0.12649880E+00 0.46133634E+03</pdfrwt>
<pdfrwt beam="2">  1       -2 0.99554808E-02 0.46133634E+03</pdfrwt>
<totfact> 0.22964931E+03</totfact>
</mgrwt>
</event>
<event>
 4    1  0.1573232E-005  0.6399786E+03  0.7818608E-02  0.9825767E-01
          2   -1    0    0  501    0  0.00000000000E+00  0.00000000000E+00  0.30526205217E+04  0.30526205217E+04  0.25500000000E-02 0.  1.
         -2   -1    0    0    0  501 -0.00000000000E+00 -0.00000000000E+00 -0.33542708647E+02  0.33542708743E+02  0.25500000000E-02 0. -1.
    5000001    1    1    2    0    0  0.11356070492E+03  0.22430050820E+03  0.98213347688E+03  0.10271406516E+04  0.16500000000E+03 0.  0.
   -5000001    1    1    2    0    0 -0.11356070492E+03 -0.22430050820E+03  0.20369443362E+04  0.20590225789E+04  0.16500000000E+03 0.  0.
<mgrwt>
<rscale>  0 0.63997863E+03</rscale>
<asrwt>0</asrwt>
<pdfrwt beam="1">  1        2 0.46963428E+00 0.63997863E+03</pdfrwt>
<pdfrwt beam="2">  1       -2 0.51604128E-02 0.63997863E+03</pdfrwt>
<totfact> 0.33942994E+02</totfact>
</mgrwt>
</event>
<event>
 4    1  0.1573232E-005  0.4093165E+03  0.7818608E-02  0.1040601E+00
         -2   -1    0    0    0  501 -0.00000000000E+00  0.00000000000E+00  0.21575554602E+02  0.21575554752E+02  0.25500000000E-02 0. -1.
          2   -1    0    0  501    0  0.00000000000E+00 -0.00000000000E+00 -0.19413177443E+04  0.19413177443E+04  0.25500000000E-02 0.  1.
    5000001    1    1    2    0    0  0.10003127949E+03  0.65558568807E+02 -0.10503308096E+04  0.10699177503E+04  0.16500000000E+03 0.  0.
   -5000001    1    1    2    0    0 -0.10003127949E+03 -0.65558568807E+02 -0.86941138011E+03  0.89297554876E+03  0.16500000000E+03 0.  0.
<mgrwt>
<rscale>  0 0.40931654E+03</rscale>
<asrwt>0</asrwt>
<pdfrwt beam="1">  1        2 0.29866413E+00 0.40931654E+03</pdfrwt>
<pdfrwt beam="2">  1       -2 0.33193176E-02 0.40931654E+03</pdfrwt>
<totfact> 0.28892251E+03</totfact>
</mgrwt>
</event>
<event>
 4    1  0.1573232E-005  0.4646714E+03  0.7818608E-02  0.1023435E+00
          2   -1    0    0  501    0  0.00000000000E+00  0.00000000000E+00  0.71017715663E+03  0.71017715663E+03  0.25500000000E-02 0.  1.
         -2   -1    0    0    0  501 -0.00000000000E+00 -0.00000000000E+00 -0.76009030327E+02  0.76009030369E+02  0.25500000000E-02 0. -1.
    5000001    1    1    2    0    0  0.15924506460E+03 -0.21815610668E+02  0.26576659060E+03  0.35169843921E+03  0.16500000000E+03 0.  0.
   -5000001    1    1    2    0    0 -0.15924506460E+03  0.21815610668E+02  0.36840153571E+03  0.43448774779E+03  0.16500000000E+03 0.  0.
<mgrwt>
<rscale>  0 0.46467140E+03</rscale>
<asrwt>0</asrwt>
<pdfrwt beam="1">  1        2 0.10925803E+00 0.46467140E+03</pdfrwt>
<pdfrwt beam="2">  1       -2 0.11693697E-01 0.46467140E+03</pdfrwt>
<totfact> 0.21337827E+03</totfact>
</mgrwt>
</event>
<event>
 4    1  0.1573232E-005  0.6290503E+03  0.7818608E-02  0.9846904E-01
          2   -1    0    0  501    0  0.00000000000E+00  0.00000000000E+00  0.36637740669E+04  0.36637740669E+04  0.25500000000E-02 0.  1.
         -2   -1    0    0    0  501 -0.00000000000E+00 -0.00000000000E+00 -0.27001135134E+02  0.27001135254E+02  0.25500000000E-02 0. -1.
    5000001    1    1    2    0    0  0.25416891216E+03 -0.22155509500E+02  0.22953431868E+04  0.23153656401E+04  0.16500000000E+03 0.  0.
   -5000001    1    1    2    0    0 -0.25416891216E+03  0.22155509500E+02  0.13414297450E+04  0.13754095620E+04  0.16500000000E+03 0.  0.
<mgrwt>
<rscale>  0 0.62905026E+03</rscale>
<asrwt>0</asrwt>
<pdfrwt beam="1">  1        2 0.56365725E+00 0.62905026E+03</pdfrwt>
<pdfrwt beam="2">  1       -2 0.41540230E-02 0.62905026E+03</pdfrwt>
<totfact> 0.18834296E+02</totfact>
</mgrwt>
</event>
<event>
 4    1  0.1573232E-005  0.4783298E+03  0.7818608E-02  0.1019595E+00
          2   -1    0    0  501    0  0.00000000000E+00  0.00000000000E+00  0.36649525178E+04  0.36649525178E+04  0.25500000000E-02 0.  1.
         -2   -1    0    0    0  501 -0.00000000000E+00 -0.00000000000E+00 -0.15607253539E+02  0.15607253747E+02  0.25500000000E-02 0. -1.
    5000001    1    1    2    0    0 -0.10329041890E+03 -0.12053876353E+03  0.23564551402E+04  0.23675523927E+04  0.16500000000E+03 0.  0.
   -5000001    1    1    2    0    0  0.10329041890E+03  0.12053876353E+03  0.12928901240E+04  0.13130073788E+04  0.16500000000E+03 0.  0.
<mgrwt>
<rscale>  0 0.47832978E+03</rscale>
<asrwt>0</asrwt>
<pdfrwt beam="1">  1        2 0.56383963E+00 0.47832978E+03</pdfrwt>
<pdfrwt beam="2">  1       -2 0.24011126E-02 0.47832978E+03</pdfrwt>
<totfact> 0.44267215E+02</totfact>
</mgrwt>
</event>
<event>
 4    1  0.1573232E-005  0.4666042E+03  0.7818608E-02  0.1022883E+00
          2   -1    0    0  501    0  0.00000000000E+00  0.00000000000E+00  0.25470557600E+03  0.25470557601E+03  0.25500000000E-02 0.  1.
         -2   -1    0    0    0  501 -0.00000000000E+00 -0.00000000000E+00 -0.21369718628E+03  0.21369718629E+03  0.25500000000E-02 0. -1.
    5000001    1    1    2    0    0 -0.14240384703E+03  0.83085927016E+02  0.15717375284E+02  0.23378229788E+03  0.16500000000E+03 0.  0.
   -5000001    1    1    2    0    0  0.14240384703E+03 -0.83085927016E+02  0.25291014443E+02  0.23462046443E+03  0.16500000000E+03 0.  0.
<mgrwt>
<rscale>  0 0.46660418E+03</rscale>
<asrwt>0</asrwt>
<pdfrwt beam="1">  1        2 0.39185473E-01 0.46660418E+03</pdfrwt>
<pdfrwt beam="2">  1       -2 0.32876490E-01 0.46660418E+03</pdfrwt>
<totfact> 0.11364452E+03</totfact>
</mgrwt>
</event>
<event>
 4    1  0.1573232E-005  0.6824008E+03  0.7818608E-02  0.9747812E-01
         -2   -1    0    0    0  501 -0.00000000000E+00  0.00000000000E+00  0.30366761429E+03  0.30366761430E+03  0.25500000000E-02 0. -1.
          2   -1    0    0  501    0  0.00000000000E+00 -0.00000000000E+00 -0.38337213071E+03  0.38337213072E+03  0.25500000000E-02 0.  1.
    5000001    1    1    2    0    0  0.25148976119E+03  0.16106997127E+03 -0.38405585715E+02  0.34335204185E+03  0.16500000000E+03 0.  0.
   -5000001    1    1    2    0    0 -0.25148976119E+03 -0.16106997127E+03 -0.41298930711E+02  0.34368770317E+03  0.16500000000E+03 0.  0.
<mgrwt>
<rscale>  0 0.68240076E+03</rscale>
<asrwt>0</asrwt>
<pdfrwt beam="1">  1        2 0.58980328E-01 0.68240076E+03</pdfrwt>
<pdfrwt beam="2">  1       -2 0.46718095E-01 0.68240076E+03</pdfrwt>
<totfact> 0.36559724E+02</totfact>
</mgrwt>
</event>
<event>
 4    1  0.1573232E-005  0.5694078E+03  0.7818608E-02  0.9970990E-01
         -2   -1    0    0    0  501 -0.00000000000E+00  0.00000000000E+00  0.94341259052E+02  0.94341259087E+02  0.25500000000E-02 0.  1.
          2   -1    0    0  501    0  0.00000000000E+00 -0.00000000000E+00 -0.85918213003E+03  0.85918213004E+03  0.25500000000E-02 0. -1.
    5000001    1    1    2    0    0  0.18535968976E+03 -0.13496407824E+03 -0.44181064980E+03  0.52439981624E+03  0.16500000000E+03 0.  0.
   -5000001    1    1    2    0    0 -0.18535968976E+03  0.13496407824E+03 -0.32303022118E+03  0.42912357288E+03  0.16500000000E+03 0.  0.
<mgrwt>
<rscale>  0 0.56940785E+03</rscale>
<asrwt>0</asrwt>
<pdfrwt beam="1">  1        2 0.13218186E+00 0.56940785E+03</pdfrwt>
<pdfrwt beam="2">  1       -2 0.14514040E-01 0.56940785E+03</pdfrwt>
<totfact> 0.11649320E+03</totfact>
</mgrwt>
</event>
<event>
 4    1  0.1573232E-005  0.4494337E+03  0.7818608E-02  0.1027891E+00
          2   -1    0    0  501    0  0.00000000000E+00  0.00000000000E+00  0.24402414451E+04  0.24402414451E+04  0.25500000000E-02 0.  1.
         -2   -1    0    0    0  501 -0.00000000000E+00 -0.00000000000E+00 -0.20693718866E+02  0.20693719023E+02  0.25500000000E-02 0. -1.
    5000001    1    1    2    0    0 -0.96375249309E+02 -0.10853111132E+03  0.95262414778E+03  0.97764255111E+03  0.16500000000E+03 0.  0.
   -5000001    1    1    2    0    0  0.96375249309E+02  0.10853111132E+03  0.14669235784E+04  0.14832926130E+04  0.16500000000E+03 0.  0.
<mgrwt>
<rscale>  0 0.44943374E+03</rscale>
<asrwt>0</asrwt>
<pdfrwt beam="1">  1        2 0.37542146E+00 0.44943374E+03</pdfrwt>
<pdfrwt beam="2">  1       -2 0.31836516E-02 0.44943374E+03</pdfrwt>
<totfact> 0.16480643E+03</totfact>
</mgrwt>
</event>
<event>
 4    1  0.1573232E-005  0.5791268E+03  0.7818608E-02  0.9949683E-01
         -2   -1    0    0    0  501 -0.00000000000E+00  0.00000000000E+00  0.25001772151E+03  0.25001772153E+03  0.25500000000E-02 0. -1.
          2   -1    0    0  501    0  0.00000000000E+00 -0.00000000000E+00 -0.33536411393E+03  0.33536411394E+03  0.25500000000E-02 0.  1.
    5000001    1    1    2    0    0  0.19355516301E+03  0.12482226048E+03  0.17787340186E+02  0.28387600693E+03  0.16500000000E+03 0.  0.
   -5000001    1    1    2    0    0 -0.19355516301E+03 -0.12482226048E+03 -0.10313373260E+03  0.30150582853E+03  0.16500000000E+03 0.  0.
<mgrwt>
<rscale>  0 0.57912683E+03</rscale>
<asrwt>0</asrwt>
<pdfrwt beam="1">  1        2 0.51594479E-01 0.57912683E+03</pdfrwt>
<pdfrwt beam="2">  1       -2 0.38464265E-01 0.57912683E+03</pdfrwt>
<totfact> 0.62305977E+02</totfact>
</mgrwt>
</event>
<event>
 4    1  0.1573232E-005  0.4287467E+03  0.7818608E-02  0.1034257E+00
         -2   -1    0    0    0  501 -0.00000000000E+00  0.00000000000E+00  0.59171595716E+02  0.59171595771E+02  0.25500000000E-02 0. -1.
          2   -1    0    0  501    0  0.00000000000E+00 -0.00000000000E+00 -0.77665544450E+03  0.77665544451E+03  0.25500000000E-02 0.  1.
    5000001    1    1    2    0    0 -0.88019701534E+02 -0.38257084906E+02 -0.54895093424E+03  0.58119119109E+03  0.16500000000E+03 0.  0.
   -5000001    1    1    2    0    0  0.88019701534E+02  0.38257084906E+02 -0.16853291455E+03  0.25463584919E+03  0.16500000000E+03 0.  0.
<mgrwt>
<rscale>  0 0.42874674E+03</rscale>
<asrwt>0</asrwt>
<pdfrwt beam="1">  1        2 0.11948545E+00 0.42874674E+03</pdfrwt>
<pdfrwt beam="2">  1       -2 0.91033230E-02 0.42874674E+03</pdfrwt>
<totfact> 0.28539278E+03</totfact>
</mgrwt>
</event>
<event>
 4    1  0.1573232E-005  0.5289820E+03  0.7818608E-02  0.1006479E+00
          2   -1    0    0  501    0  0.00000000000E+00  0.00000000000E+00  0.83891501466E+03  0.83891501466E+03  0.25500000000E-02 0.  1.
         -2   -1    0    0    0  501 -0.00000000000E+00 -0.00000000000E+00 -0.83388050835E+02  0.83388050874E+02  0.25500000000E-02 0. -1.
    5000001    1    1    2    0    0  0.83069378944E+02 -0.18274446504E+03  0.46378975566E+03  0.53162204494E+03  0.16500000000E+03 0.  0.
   -5000001    1    1    2    0    0 -0.83069378944E+02  0.18274446504E+03  0.29173720817E+03  0.39068102059E+03  0.16500000000E+03 0.  0.
<mgrwt>
<rscale>  0 0.52898200E+03</rscale>
<asrwt>0</asrwt>
<pdfrwt beam="1">  1        2 0.12906385E+00 0.52898200E+03</pdfrwt>
<pdfrwt beam="2">  1       -2 0.12828931E-01 0.52898200E+03</pdfrwt>
<totfact> 0.14782032E+03</totfact>
</mgrwt>
</event>
<event>
 4    1  0.1573232E-005  0.3572971E+03  0.7818608E-02  0.1059659E+00
         -2   -1    0    0    0  501 -0.00000000000E+00  0.00000000000E+00  0.28368420002E+03  0.28368420004E+03  0.25500000000E-02 0. -1.
          2   -1    0    0  501    0  0.00000000000E+00 -0.00000000000E+00 -0.11250292960E+03  0.11250292963E+03  0.25500000000E-02 0.  1.
    5000001    1    1    2    0    0 -0.28844053162E+02 -0.59269603465E+02  0.10619959715E+03  0.20699811529E+03  0.16500000000E+03 0.  0.
   -5000001    1    1    2    0    0  0.28844053162E+02  0.59269603465E+02  0.64981673279E+02  0.18918901437E+03  0.16500000000E+03 0.  0.
<mgrwt>
<rscale>  0 0.35729710E+03</rscale>
<asrwt>0</asrwt>
<pdfrwt beam="1">  1        2 0.17308143E-01 0.35729710E+03</pdfrwt>
<pdfrwt beam="2">  1       -2 0.43643723E-01 0.35729710E+03</pdfrwt>
<totfact> 0.16627958E+03</totfact>
</mgrwt>
</event>
<event>
 4    1  0.1573232E-005  0.5916593E+03  0.7818608E-02  0.9922863E-01
          2   -1    0    0  501    0  0.00000000000E+00  0.00000000000E+00  0.18655698631E+03  0.18655698633E+03  0.25500000000E-02 0.  1.
         -2   -1    0    0    0  501 -0.00000000000E+00 -0.00000000000E+00 -0.46910690475E+03  0.46910690475E+03  0.25500000000E-02 0. -1.
    5000001    1    1    2    0    0 -0.18501524990E+03 -0.16032130108E+03 -0.16220187493E+03  0.33685013064E+03  0.16500000000E+03 0.  0.
   -5000001    1    1    2    0    0  0.18501524990E+03  0.16032130108E+03 -0.12034804350E+03  0.31881376045E+03  0.16500000000E+03 0.  0.
<mgrwt>
<rscale>  0 0.59165926E+03</rscale>
<asrwt>0</asrwt>
<pdfrwt beam="1">  1        2 0.28701075E-01 0.59165926E+03</pdfrwt>
<pdfrwt beam="2">  1       -2 0.72170293E-01 0.59165926E+03</pdfrwt>
<totfact> 0.32875507E+02</totfact>
</mgrwt>
</event>
<event>
 4    1  0.1573232E-005  0.1870712E+04  0.7818608E-02  0.8669574E-01
          2   -1    0    0  501    0  0.00000000000E+00  0.00000000000E+00  0.18141476820E+04  0.18141476820E+04  0.25500000000E-02 0.  1.
         -2   -1    0    0    0  501 -0.00000000000E+00 -0.00000000000E+00 -0.48225991255E+03  0.48225991256E+03  0.25500000000E-02 0. -1.
    5000001    1    1    2    0    0 -0.54411356771E+03 -0.68139663549E+03  0.10286551316E+04  0.13585717976E+04  0.16500000000E+03 0.  0.
   -5000001    1    1    2    0    0  0.54411356771E+03  0.68139663549E+03  0.30323263782E+03  0.93783579696E+03  0.16500000000E+03 0.  0.
<mgrwt>
<rscale>  0 0.18707118E+04</rscale>
<asrwt>0</asrwt>
<pdfrwt beam="1">  1        2 0.27909964E+00 0.18707118E+04</pdfrwt>
<pdfrwt beam="2">  1       -2 0.74193832E-01 0.18707118E+04</pdfrwt>
<totfact> 0.13009557E+01</totfact>
</mgrwt>
</event>
<event>
 4    1  0.1573232E-005  0.5701217E+03  0.7818608E-02  0.9969409E-01
          2   -1    0    0  501    0  0.00000000000E+00  0.00000000000E+00  0.24419225536E+03  0.24419225538E+03  0.25500000000E-02 0.  1.
         -2   -1    0    0    0  501 -0.00000000000E+00 -0.00000000000E+00 -0.33276932254E+03  0.33276932255E+03  0.25500000000E-02 0. -1.
    5000001    1    1    2    0    0 -0.16970698498E+02  0.21412028507E+03  0.45655135789E+02  0.27467233663E+03  0.16500000000E+03 0.  0.
   -5000001    1    1    2    0    0  0.16970698498E+02 -0.21412028507E+03 -0.13423220297E+03  0.30228924129E+03  0.16500000000E+03 0.  0.
<mgrwt>
<rscale>  0 0.57012171E+03</rscale>
<asrwt>0</asrwt>
<pdfrwt beam="1">  1        2 0.37568039E-01 0.57012171E+03</pdfrwt>
<pdfrwt beam="2">  1       -2 0.51195281E-01 0.57012171E+03</pdfrwt>
<totfact> 0.50230432E+02</totfact>
</mgrwt>
</event>
<event>
 4    1  0.1573232E-005  0.6721345E+03  0.7818608E-02  0.9766110E-01
         -2   -1    0    0    0  501 -0.00000000000E+00  0.00000000000E+00  0.36567163381E+02  0.36567163470E+02  0.25500000000E-02 0. -1.
          2   -1    0    0  501    0  0.00000000000E+00 -0.00000000000E+00 -0.30885959601E+04  0.30885959601E+04  0.25500000000E-02 0.  1.
    5000001    1    1    2    0    0  0.19749136656E+03  0.17502974425E+03 -0.93644933743E+03  0.98681336271E+03  0.16500000000E+03 0.  0.
   -5000001    1    1    2    0    0 -0.19749136656E+03 -0.17502974425E+03 -0.21155794593E+04  0.21383497608E+04  0.16500000000E+03 0.  0.
<mgrwt>
<rscale>  0 0.67213449E+03</rscale>
<asrwt>0</asrwt>
<pdfrwt beam="1">  1        2 0.47516840E+00 0.67213449E+03</pdfrwt>
<pdfrwt beam="2">  1       -2 0.56257199E-02 0.67213449E+03</pdfrwt>
<totfact> 0.28081098E+02</totfact>
</mgrwt>
</event>
<event>
 4    1  0.1573232E-005  0.3849308E+03  0.7818608E-02  0.1049126E+00
          2   -1    0    0  501    0  0.00000000000E+00  0.00000000000E+00  0.85533193245E+03  0.85533193245E+03  0.25500000000E-02 0.  1.
         -2   -1    0    0    0  501 -0.00000000000E+00 -0.00000000000E+00 -0.43308253716E+02  0.43308253792E+02  0.25500000000E-02 0. -1.
    5000001    1    1    2    0    0  0.55358035107E+02  0.25405005251E+02  0.22355804918E+03  0.28445232939E+03  0.16500000000E+03 0.  0.
   -5000001    1    1    2    0    0 -0.55358035107E+02 -0.25405005251E+02  0.58846562954E+03  0.61418785685E+03  0.16500000000E+03 0.  0.
<mgrwt>
<rscale>  0 0.38493081E+03</rscale>
<asrwt>0</asrwt>
<pdfrwt beam="1">  1        2 0.13158952E+00 0.38493081E+03</pdfrwt>
<pdfrwt beam="2">  1       -2 0.66628087E-02 0.38493081E+03</pdfrwt>
<totfact> 0.41118919E+03</totfact>
</mgrwt>
</event>
<event>
 4    1  0.1573232E-005  0.6903598E+03  0.7818608E-02  0.9733862E-01
          2   -1    0    0  501    0  0.00000000000E+00  0.00000000000E+00  0.33513719503E+03  0.33513719504E+03  0.25500000000E-02 0.  1.
         -2   -1    0    0    0  501 -0.00000000000E+00 -0.00000000000E+00 -0.35552349955E+03  0.35552349956E+03  0.25500000000E-02 0. -1.
    5000001    1    1    2    0    0  0.65962670880E+02 -0.28499492217E+03 -0.89920857415E+02  0.34768367838E+03  0.16500000000E+03 0.  0.
   -5000001    1    1    2    0    0 -0.65962670880E+02  0.28499492217E+03  0.69534552889E+02  0.34297701622E+03  0.16500000000E+03 0.  0.
<mgrwt>
<rscale>  0 0.69035976E+03</rscale>
<asrwt>0</asrwt>
<pdfrwt beam="1">  1        2 0.51559568E-01 0.69035976E+03</pdfrwt>
<pdfrwt beam="2">  1       -2 0.54695923E-01 0.69035976E+03</pdfrwt>
<totfact> 0.30803314E+02</totfact>
</mgrwt>
</event>
<event>
 4    1  0.1573232E-005  0.7610302E+03  0.7818608E-02  0.9618203E-01
          2   -1    0    0  501    0  0.00000000000E+00  0.00000000000E+00  0.11220648427E+04  0.11220648428E+04  0.25500000000E-02 0. -1.
         -2   -1    0    0    0  501 -0.00000000000E+00 -0.00000000000E+00 -0.12904045225E+03  0.12904045228E+03  0.25500000000E-02 0.  1.
    5000001    1    1    2    0    0  0.18061822902E+03  0.24630480243E+03  0.24036110550E+03  0.42224099918E+03  0.16500000000E+03 0.  0.
   -5000001    1    1    2    0    0 -0.18061822902E+03 -0.24630480243E+03  0.75266328499E+03  0.82886429585E+03  0.16500000000E+03 0.  0.
<mgrwt>
<rscale>  0 0.76103024E+03</rscale>
<asrwt>0</asrwt>
<pdfrwt beam="1">  1        2 0.17262536E+00 0.76103024E+03</pdfrwt>
<pdfrwt beam="2">  1       -2 0.19852377E-01 0.76103024E+03</pdfrwt>
<totfact> 0.45952097E+02</totfact>
</mgrwt>
</event>
<event>
 4    1  0.1573232E-005  0.3715770E+03  0.7818608E-02  0.1054092E+00
          2   -1    0    0  501    0  0.00000000000E+00  0.00000000000E+00  0.45157378514E+02  0.45157378586E+02  0.25500000000E-02 0.  1.
         -2   -1    0    0    0  501 -0.00000000000E+00 -0.00000000000E+00 -0.76437916519E+03  0.76437916519E+03  0.25500000000E-02 0. -1.
    5000001    1    1    2    0    0 -0.49311344848E+02  0.66166270469E+02 -0.31174125169E+03  0.36223913660E+03  0.16500000000E+03 0.  0.
   -5000001    1    1    2    0    0  0.49311344848E+02 -0.66166270469E+02 -0.40748053498E+03  0.44729740718E+03  0.16500000000E+03 0.  0.
<mgrwt>
<rscale>  0 0.37157696E+03</rscale>
<asrwt>0</asrwt>
<pdfrwt beam="1">  1        2 0.69472896E-02 0.37157696E+03</pdfrwt>
<pdfrwt beam="2">  1       -2 0.11759679E+00 0.37157696E+03</pdfrwt>
<totfact> 0.59833511E+02</totfact>
</mgrwt>
</event>
<event>
 4    1  0.1573232E-005  0.3742204E+03  0.7818608E-02  0.1053091E+00
         -2   -1    0    0    0  501 -0.00000000000E+00  0.00000000000E+00  0.18976565737E+02  0.18976565908E+02  0.25500000000E-02 0. -1.
          2   -1    0    0  501    0  0.00000000000E+00 -0.00000000000E+00 -0.18449186665E+04  0.18449186665E+04  0.25500000000E-02 0.  1.
    5000001    1    1    2    0    0  0.54761817519E+02  0.27617593289E+02 -0.59703205934E+03  0.62244185913E+03  0.16500000000E+03 0.  0.
   -5000001    1    1    2    0    0 -0.54761817519E+02 -0.27617593289E+02 -0.12289100414E+04  0.12414533732E+04  0.16500000000E+03 0.  0.
<mgrwt>
<rscale>  0 0.37422037E+03</rscale>
<asrwt>0</asrwt>
<pdfrwt beam="1">  1        2 0.28383350E+00 0.37422037E+03</pdfrwt>
<pdfrwt beam="2">  1       -2 0.29194731E-02 0.37422037E+03</pdfrwt>
<totfact> 0.39492173E+03</totfact>
</mgrwt>
</event>
<event>
 4    1  0.1573232E-005  0.4915019E+03  0.7818608E-02  0.1016021E+00
          2   -1    0    0  501    0  0.00000000000E+00  0.00000000000E+00  0.27847211346E+03  0.27847211347E+03  0.25500000000E-02 0.  1.
         -2   -1    0    0    0  501 -0.00000000000E+00 -0.00000000000E+00 -0.21687459476E+03  0.21687459477E+03  0.25500000000E-02 0. -1.
    5000001    1    1    2    0    0 -0.14301009499E+03 -0.70273565955E+01  0.14422808742E+03  0.26177855567E+03  0.16500000000E+03 0.  0.
   -5000001    1    1    2    0    0  0.14301009499E+03  0.70273565955E+01 -0.82630568719E+02  0.23356815257E+03  0.16500000000E+03 0.  0.
<mgrwt>
<rscale>  0 0.49150189E+03</rscale>
<asrwt>0</asrwt>
<pdfrwt beam="1">  1        2 0.42841864E-01 0.49150189E+03</pdfrwt>
<pdfrwt beam="2">  1       -2 0.33365322E-01 0.49150189E+03</pdfrwt>
<totfact> 0.10024738E+03</totfact>
</mgrwt>
</event>
<event>
 4    1  0.1573232E-005  0.1124368E+04  0.7818608E-02  0.9181761E-01
         -2   -1    0    0    0  501 -0.00000000000E+00  0.00000000000E+00  0.99761071190E+02  0.99761071223E+02  0.25500000000E-02 0.  1.
          2   -1    0    0  501    0  0.00000000000E+00 -0.00000000000E+00 -0.31680805422E+04  0.31680805422E+04  0.25500000000E-02 0. -1.
    5000001    1    1    2    0    0 -0.16268535849E+03 -0.51206934424E+03 -0.14992142964E+04  0.16011090050E+04  0.16500000000E+03 0.  0.
   -5000001    1    1    2    0    0  0.16268535849E+03  0.51206934424E+03 -0.15691051746E+04  0.16667326084E+04  0.16500000000E+03 0.  0.
<mgrwt>
<rscale>  0 0.11243685E+04</rscale>
<asrwt>0</asrwt>
<pdfrwt beam="1">  1        2 0.48739693E+00 0.11243685E+04</pdfrwt>
<pdfrwt beam="2">  1       -2 0.15347859E-01 0.11243685E+04</pdfrwt>
<totfact> 0.46541932E+01</totfact>
</mgrwt>
</event>
<event>
 4    1  0.1573232E-005  0.5200539E+03  0.7818608E-02  0.1008673E+00
          2   -1    0    0  501    0  0.00000000000E+00  0.00000000000E+00  0.98130089692E+02  0.98130089725E+02  0.25500000000E-02 0.  1.
         -2   -1    0    0    0  501 -0.00000000000E+00 -0.00000000000E+00 -0.68902422070E+03  0.68902422070E+03  0.25500000000E-02 0. -1.
    5000001    1    1    2    0    0  0.16561498288E+03  0.11305691740E+03 -0.31568745825E+03  0.40877103667E+03  0.16500000000E+03 0.  0.
   -5000001    1    1    2    0    0 -0.16561498288E+03 -0.11305691740E+03 -0.27520667275E+03  0.37838327375E+03  0.16500000000E+03 0.  0.
<mgrwt>
<rscale>  0 0.52005388E+03</rscale>
<asrwt>0</asrwt>
<pdfrwt beam="1">  1        2 0.15096937E-01 0.52005388E+03</pdfrwt>
<pdfrwt beam="2">  1       -2 0.10600372E+00 0.52005388E+03</pdfrwt>
<totfact> 0.28942789E+02</totfact>
</mgrwt>
</event>
<event>
 4    1  0.1573232E-005  0.5962357E+03  0.7818608E-02  0.9913247E-01
         -2   -1    0    0    0  501 -0.00000000000E+00  0.00000000000E+00  0.39379511604E+02  0.39379511687E+02  0.25500000000E-02 0. -1.
          2   -1    0    0  501    0  0.00000000000E+00 -0.00000000000E+00 -0.22568656020E+04  0.22568656020E+04  0.25500000000E-02 0.  1.
    5000001    1    1    2    0    0  0.17921896276E+03 -0.13544718330E+03 -0.70145968658E+03  0.75480863003E+03  0.16500000000E+03 0.  0.
   -5000001    1    1    2    0    0 -0.17921896276E+03  0.13544718330E+03 -0.15160264038E+04  0.15414364837E+04  0.16500000000E+03 0.  0.
<mgrwt>
<rscale>  0 0.59623574E+03</rscale>
<asrwt>0</asrwt>
<pdfrwt beam="1">  1        2 0.34720999E+00 0.59623574E+03</pdfrwt>
<pdfrwt beam="2">  1       -2 0.60583882E-02 0.59623574E+03</pdfrwt>
<totfact> 0.76436050E+02</totfact>
</mgrwt>
</event>
<event>
 4    1  0.1573232E-005  0.3689462E+03  0.7818608E-02  0.1055097E+00
         -2   -1    0    0    0  501 -0.00000000000E+00  0.00000000000E+00  0.39814398192E+02  0.39814398273E+02  0.25500000000E-02 0. -1.
          2   -1    0    0  501    0  0.00000000000E+00 -0.00000000000E+00 -0.85472409950E+03  0.85472409951E+03  0.25500000000E-02 0.  1.
    5000001    1    1    2    0    0 -0.73270934400E+02  0.34268822477E+02 -0.36818391287E+03  0.41149407738E+03  0.16500000000E+03 0.  0.
   -5000001    1    1    2    0    0  0.73270934400E+02 -0.34268822477E+02 -0.44672578844E+03  0.48304442040E+03  0.16500000000E+03 0.  0.
<mgrwt>
<rscale>  0 0.36894621E+03</rscale>
<asrwt>0</asrwt>
<pdfrwt beam="1">  1        2 0.13149600E+00 0.36894621E+03</pdfrwt>
<pdfrwt beam="2">  1       -2 0.61252927E-02 0.36894621E+03</pdfrwt>
<totfact> 0.46877999E+03</totfact>
</mgrwt>
</event>
<event>
 4    1  0.1573232E-005  0.6402064E+03  0.7818608E-02  0.9825332E-01
         -2   -1    0    0    0  501 -0.00000000000E+00  0.00000000000E+00  0.94660179024E+02  0.94660179059E+02  0.25500000000E-02 0. -1.
          2   -1    0    0  501    0  0.00000000000E+00 -0.00000000000E+00 -0.10824620739E+04  0.10824620739E+04  0.25500000000E-02 0.  1.
    5000001    1    1    2    0    0  0.26440189279E+03 -0.15766208848E+02 -0.36279890949E+03  0.47854465097E+03  0.16500000000E+03 0.  0.
   -5000001    1    1    2    0    0 -0.26440189279E+03  0.15766208848E+02 -0.62500298538E+03  0.69857760198E+03  0.16500000000E+03 0.  0.
<mgrwt>
<rscale>  0 0.64020638E+03</rscale>
<asrwt>0</asrwt>
<pdfrwt beam="1">  1        2 0.16653262E+00 0.64020638E+03</pdfrwt>
<pdfrwt beam="2">  1       -2 0.14563105E-01 0.64020638E+03</pdfrwt>
<totfact> 0.83015558E+02</totfact>
</mgrwt>
</event>
<event>
 4    1  0.1573232E-005  0.1233341E+04  0.7818608E-02  0.9084163E-01
          2   -1    0    0  501    0  0.00000000000E+00  0.00000000000E+00  0.10115345674E+04  0.10115345674E+04  0.25500000000E-02 0.  1.
         -2   -1    0    0    0  501 -0.00000000000E+00 -0.00000000000E+00 -0.37594637659E+03  0.37594637660E+03  0.25500000000E-02 0. -1.
    5000001    1    1    2    0    0 -0.32548816767E+03 -0.49673934228E+03  0.33929364131E+03  0.70358915320E+03  0.16500000000E+03 0.  0.
   -5000001    1    1    2    0    0  0.32548816767E+03  0.49673934228E+03  0.29629454949E+03  0.68389179079E+03  0.16500000000E+03 0.  0.
<mgrwt>
<rscale>  0 0.12333414E+04</rscale>
<asrwt>0</asrwt>
<pdfrwt beam="1">  1        2 0.15562070E+00 0.12333414E+04</pdfrwt>
<pdfrwt beam="2">  1       -2 0.57837906E-01 0.12333414E+04</pdfrwt>
<totfact> 0.68232445E+01</totfact>
</mgrwt>
</event>
<event>
 4    1  0.1573232E-005  0.8102941E+03  0.7818608E-02  0.9545235E-01
         -2   -1    0    0    0  501 -0.00000000000E+00  0.00000000000E+00  0.46500917417E+03  0.46500917418E+03  0.25500000000E-02 0.  1.
          2   -1    0    0  501    0  0.00000000000E+00 -0.00000000000E+00 -0.35299115722E+03  0.35299115723E+03  0.25500000000E-02 0. -1.
    5000001    1    1    2    0    0  0.11632875019E+03 -0.35029304244E+03  0.29654543909E+02  0.40539115145E+03  0.16500000000E+03 0.  0.
   -5000001    1    1    2    0    0 -0.11632875019E+03  0.35029304244E+03  0.82363473043E+02  0.41260917996E+03  0.16500000000E+03 0.  0.
<mgrwt>
<rscale>  0 0.81029409E+03</rscale>
<asrwt>0</asrwt>
<pdfrwt beam="1">  1        2 0.54306332E-01 0.81029409E+03</pdfrwt>
<pdfrwt beam="2">  1       -2 0.71539873E-01 0.81029409E+03</pdfrwt>
<totfact> 0.16342972E+02</totfact>
</mgrwt>
</event>
<event>
 4    1  0.1573232E-005  0.8360002E+03  0.7818608E-02  0.9509322E-01
          2   -1    0    0  501    0  0.00000000000E+00  0.00000000000E+00  0.21184249824E+04  0.21184249824E+04  0.25500000000E-02 0.  1.
         -2   -1    0    0    0  501 -0.00000000000E+00 -0.00000000000E+00 -0.82478297949E+02  0.82478297989E+02  0.25500000000E-02 0. -1.
    5000001    1    1    2    0    0 -0.59842783053E+02 -0.90855866326E+02  0.48299892882E+02  0.20345472907E+03  0.16500000000E+03 0.  0.
   -5000001    1    1    2    0    0  0.59842783053E+02  0.90855866326E+02  0.19876467916E+04  0.19974485513E+04  0.16500000000E+03 0.  0.
<mgrwt>
<rscale>  0 0.83600021E+03</rscale>
<asrwt>0</asrwt>
<pdfrwt beam="1">  1        2 0.32591155E+00 0.83600021E+03</pdfrwt>
<pdfrwt beam="2">  1       -2 0.12688968E-01 0.83600021E+03</pdfrwt>
<totfact> 0.27141454E+02</totfact>
</mgrwt>
</event>
<event>
 4    1  0.1573232E-005  0.4976701E+03  0.7818608E-02  0.1014389E+00
         -2   -1    0    0    0  501 -0.00000000000E+00  0.00000000000E+00  0.40137060493E+02  0.40137060574E+02  0.25500000000E-02 0. -1.
          2   -1    0    0  501    0  0.00000000000E+00 -0.00000000000E+00 -0.15426859617E+04  0.15426859617E+04  0.25500000000E-02 0.  1.
    5000001    1    1    2    0    0  0.30174956442E+02 -0.14155088547E+03 -0.11241724245E+04  0.11453976694E+04  0.16500000000E+03 0.  0.
   -5000001    1    1    2    0    0 -0.30174956442E+02  0.14155088547E+03 -0.37837647673E+03  0.43742535285E+03  0.16500000000E+03 0.  0.
<mgrwt>
<rscale>  0 0.49767009E+03</rscale>
<asrwt>0</asrwt>
<pdfrwt beam="1">  1        2 0.23733626E+00 0.49767009E+03</pdfrwt>
<pdfrwt beam="2">  1       -2 0.61749336E-02 0.49767009E+03</pdfrwt>
<totfact> 0.18191681E+03</totfact>
</mgrwt>
</event>
<event>
 4    1  0.1573232E-005  0.8908209E+03  0.7818608E-02  0.9437129E-01
         -2   -1    0    0    0  501 -0.00000000000E+00  0.00000000000E+00  0.28654014768E+03  0.28654014769E+03  0.25500000000E-02 0. -1.
          2   -1    0    0  501    0  0.00000000000E+00 -0.00000000000E+00 -0.69236534543E+03  0.69236534543E+03  0.25500000000E-02 0.  1.
    5000001    1    1    2    0    0 -0.15048415603E+03 -0.37480428833E+03 -0.30145546322E+03  0.53030569681E+03  0.16500000000E+03 0.  0.
   -5000001    1    1    2    0    0  0.15048415603E+03  0.37480428833E+03 -0.10436973453E+03  0.44859979631E+03  0.16500000000E+03 0.  0.
<mgrwt>
<rscale>  0 0.89082090E+03</rscale>
<asrwt>0</asrwt>
<pdfrwt beam="1">  1        2 0.10651775E+00 0.89082090E+03</pdfrwt>
<pdfrwt beam="2">  1       -2 0.44083100E-01 0.89082090E+03</pdfrwt>
<totfact> 0.20338082E+02</totfact>
</mgrwt>
</event>
<event>
 4    1  0.1573232E-005  0.4100914E+03  0.7818608E-02  0.1040340E+00
         -2   -1    0    0    0  501 -0.00000000000E+00  0.00000000000E+00  0.22724554397E+02  0.22724554540E+02  0.25500000000E-02 0. -1.
          2   -1    0    0  501    0  0.00000000000E+00 -0.00000000000E+00 -0.18501454884E+04  0.18501454884E+04  0.25500000000E-02 0.  1.
    5000001    1    1    2    0    0  0.58946036623E+02 -0.10491606215E+03 -0.99751341211E+03  0.10182043128E+04  0.16500000000E+03 0.  0.
   -5000001    1    1    2    0    0 -0.58946036623E+02  0.10491606215E+03 -0.82990752193E+03  0.85466573014E+03  0.16500000000E+03 0.  0.
<mgrwt>
<rscale>  0 0.41009137E+03</rscale>
<asrwt>0</asrwt>
<pdfrwt beam="1">  1        2 0.28463765E+00 0.41009137E+03</pdfrwt>
<pdfrwt beam="2">  1       -2 0.34960868E-02 0.41009137E+03</pdfrwt>
<totfact> 0.29874999E+03</totfact>
</mgrwt>
</event>
<event>
 4    1  0.1573232E-005  0.5117127E+03  0.7818608E-02  0.1010766E+00
         -2   -1    0    0    0  501 -0.00000000000E+00  0.00000000000E+00  0.17832542508E+02  0.17832542690E+02  0.25500000000E-02 0. -1.
          2   -1    0    0  501    0  0.00000000000E+00 -0.00000000000E+00 -0.36709557706E+04  0.36709557706E+04  0.25500000000E-02 0.  1.
    5000001    1    1    2    0    0 -0.11168180209E+03  0.12890164764E+03 -0.25160781847E+04  0.25272441297E+04  0.16500000000E+03 0.  0.
   -5000001    1    1    2    0    0  0.11168180209E+03 -0.12890164764E+03 -0.11370450434E+04  0.11615441836E+04  0.16500000000E+03 0.  0.
<mgrwt>
<rscale>  0 0.51171271E+03</rscale>
<asrwt>0</asrwt>
<pdfrwt beam="1">  1        2 0.56476183E+00 0.51171271E+03</pdfrwt>
<pdfrwt beam="2">  1       -2 0.27434710E-02 0.51171271E+03</pdfrwt>
<totfact> 0.35674624E+02</totfact>
</mgrwt>
</event>
<event>
 4    1  0.1573232E-005  0.4319487E+03  0.7818608E-02  0.1033246E+00
         -2   -1    0    0    0  501 -0.00000000000E+00  0.00000000000E+00  0.95174816138E+02  0.95174816172E+02  0.25500000000E-02 0. -1.
          2   -1    0    0  501    0  0.00000000000E+00 -0.00000000000E+00 -0.49009730473E+03  0.49009730474E+03  0.25500000000E-02 0.  1.
    5000001    1    1    2    0    0 -0.54019896513E+02 -0.49890339966E+02 -0.35785482047E+03  0.40086440073E+03  0.16500000000E+03 0.  0.
   -5000001    1    1    2    0    0  0.54019896513E+02  0.49890339966E+02 -0.37067668125E+02  0.18440772018E+03  0.16500000000E+03 0.  0.
<mgrwt>
<rscale>  0 0.43194870E+03</rscale>
<asrwt>0</asrwt>
<pdfrwt beam="1">  1        2 0.75399584E-01 0.43194870E+03</pdfrwt>
<pdfrwt beam="2">  1       -2 0.14642280E-01 0.43194870E+03</pdfrwt>
<totfact> 0.22832852E+03</totfact>
</mgrwt>
</event>
<event>
 4    1  0.1573232E-005  0.5659922E+03  0.7818608E-02  0.9978587E-01
          2   -1    0    0  501    0  0.00000000000E+00  0.00000000000E+00  0.82933258939E+03  0.82933258940E+03  0.25500000000E-02 0.  1.
         -2   -1    0    0    0  501 -0.00000000000E+00 -0.00000000000E+00 -0.96567762236E+02  0.96567762270E+02  0.25500000000E-02 0. -1.
    5000001    1    1    2    0    0  0.21367864755E+03 -0.80068284115E+02  0.32033576519E+03  0.42650849581E+03  0.16500000000E+03 0.  0.
   -5000001    1    1    2    0    0 -0.21367864755E+03  0.80068284115E+02  0.41242906197E+03  0.49939185586E+03  0.16500000000E+03 0.  0.
<mgrwt>
<rscale>  0 0.56599220E+03</rscale>
<asrwt>0</asrwt>
<pdfrwt beam="1">  1        2 0.12758963E+00 0.56599220E+03</pdfrwt>
<pdfrwt beam="2">  1       -2 0.14856579E-01 0.56599220E+03</pdfrwt>
<totfact> 0.11746954E+03</totfact>
</mgrwt>
</event>
<event>
 4    1  0.1573232E-005  0.4919585E+03  0.7818608E-02  0.1015899E+00
          2   -1    0    0  501    0  0.00000000000E+00  0.00000000000E+00  0.20084122632E+03  0.20084122633E+03  0.25500000000E-02 0.  1.
         -2   -1    0    0    0  501 -0.00000000000E+00 -0.00000000000E+00 -0.30126178636E+03  0.30126178637E+03  0.25500000000E-02 0. -1.
    5000001    1    1    2    0    0  0.16489481729E+03  0.76428446931E+02 -0.66321170027E+02  0.25427368299E+03  0.16500000000E+03 0.  0.
   -5000001    1    1    2    0    0 -0.16489481729E+03 -0.76428446931E+02 -0.34099390022E+02  0.24782932972E+03  0.16500000000E+03 0.  0.
<mgrwt>
<rscale>  0 0.49195848E+03</rscale>
<asrwt>0</asrwt>
<pdfrwt beam="1">  1        2 0.30898650E-01 0.49195848E+03</pdfrwt>
<pdfrwt beam="2">  1       -2 0.46347967E-01 0.49195848E+03</pdfrwt>
<totfact> 0.76311727E+02</totfact>
</mgrwt>
</event>
<event>
 4    1  0.1573232E-005  0.9774533E+03  0.7818608E-02  0.9333625E-01
          2   -1    0    0  501    0  0.00000000000E+00  0.00000000000E+00  0.27635342986E+04  0.27635342986E+04  0.25500000000E-02 0.  1.
         -2   -1    0    0    0  501 -0.00000000000E+00 -0.00000000000E+00 -0.86430533528E+02  0.86430533565E+02  0.25500000000E-02 0. -1.
    5000001    1    1    2    0    0  0.21139170742E+03 -0.28806439505E+03  0.21834080570E+04  0.22185948916E+04  0.16500000000E+03 0.  0.
   -5000001    1    1    2    0    0 -0.21139170742E+03  0.28806439505E+03  0.49369570801E+03  0.63136994050E+03  0.16500000000E+03 0.  0.
<mgrwt>
<rscale>  0 0.97745331E+03</rscale>
<asrwt>0</asrwt>
<pdfrwt beam="1">  1        2 0.42515907E+00 0.97745331E+03</pdfrwt>
<pdfrwt beam="2">  1       -2 0.13297007E-01 0.97745331E+03</pdfrwt>
<totfact> 0.10664890E+02</totfact>
</mgrwt>
</event>
<event>
 4    1  0.1573232E-005  0.1164582E+04  0.7818608E-02  0.9144436E-01
         -2   -1    0    0    0  501 -0.00000000000E+00  0.00000000000E+00  0.15893473099E+03  0.15893473101E+03  0.25500000000E-02 0. -1.
          2   -1    0    0  501    0  0.00000000000E+00 -0.00000000000E+00 -0.21333458471E+04  0.21333458471E+04  0.25500000000E-02 0.  1.
    5000001    1    1    2    0    0  0.45679393288E+03 -0.31653157142E+03 -0.10947422043E+04  0.12387648795E+04  0.16500000000E+03 0.  0.
   -5000001    1    1    2    0    0 -0.45679393288E+03  0.31653157142E+03 -0.87966891181E+03  0.10535156986E+04  0.16500000000E+03 0.  0.
<mgrwt>
<rscale>  0 0.11645819E+04</rscale>
<asrwt>0</asrwt>
<pdfrwt beam="1">  1        2 0.32820703E+00 0.11645819E+04</pdfrwt>
<pdfrwt beam="2">  1       -2 0.24451499E-01 0.11645819E+04</pdfrwt>
<totfact> 0.83365191E+01</totfact>
</mgrwt>
</event>
<event>
 4    1  0.1573232E-005  0.5010239E+03  0.7818608E-02  0.1013512E+00
         -2   -1    0    0    0  501 -0.00000000000E+00  0.00000000000E+00  0.12955482349E+02  0.12955482600E+02  0.25500000000E-02 0. -1.
          2   -1    0    0  501    0  0.00000000000E+00 -0.00000000000E+00 -0.48439909289E+04  0.48439909289E+04  0.25500000000E-02 0.  1.
    5000001    1    1    2    0    0  0.17267184752E+03 -0.58841406200E+02 -0.28756898427E+04  0.28861903869E+04  0.16500000000E+03 0.  0.
   -5000001    1    1    2    0    0 -0.17267184752E+03  0.58841406200E+02 -0.19553456038E+04  0.19707560246E+04  0.16500000000E+03 0.  0.
<mgrwt>
<rscale>  0 0.50102391E+03</rscale>
<asrwt>0</asrwt>
<pdfrwt beam="1">  1        2 0.74522793E+00 0.50102391E+03</pdfrwt>
<pdfrwt beam="2">  1       -2 0.19931550E-02 0.50102391E+03</pdfrwt>
<totfact> 0.54642605E+01</totfact>
</mgrwt>
</event>
<event>
 4    1  0.1573232E-005  0.3449336E+03  0.7818608E-02  0.1064714E+00
          2   -1    0    0  501    0  0.00000000000E+00  0.00000000000E+00  0.17444373079E+04  0.17444373079E+04  0.25500000000E-02 0.  1.
         -2   -1    0    0    0  501 -0.00000000000E+00 -0.00000000000E+00 -0.17051227857E+02  0.17051228048E+02  0.25500000000E-02 0. -1.
    5000001    1    1    2    0    0  0.37619747286E+02  0.33130101966E+02  0.85023102483E+03  0.86754287769E+03  0.16500000000E+03 0.  0.
   -5000001    1    1    2    0    0 -0.37619747286E+02 -0.33130101966E+02  0.87715505521E+03  0.89394565826E+03  0.16500000000E+03 0.  0.
<mgrwt>
<rscale>  0 0.34493361E+03</rscale>
<asrwt>0</asrwt>
<pdfrwt beam="1">  1        2 0.26837504E+00 0.34493361E+03</pdfrwt>
<pdfrwt beam="2">  1       -2 0.26232652E-02 0.34493361E+03</pdfrwt>
<totfact> 0.52421736E+03</totfact>
</mgrwt>
</event>
<event>
 4    1  0.1573232E-005  0.6335830E+03  0.7818608E-02  0.9838082E-01
          2   -1    0    0  501    0  0.00000000000E+00  0.00000000000E+00  0.14973474709E+04  0.14973474709E+04  0.25500000000E-02 0.  1.
         -2   -1    0    0    0  501 -0.00000000000E+00 -0.00000000000E+00 -0.67023100352E+02  0.67023100401E+02  0.25500000000E-02 0. -1.
    5000001    1    1    2    0    0 -0.16233699095E+03  0.20905974732E+03  0.85202599526E+03  0.90732164814E+03  0.16500000000E+03 0.  0.
   -5000001    1    1    2    0    0  0.16233699095E+03 -0.20905974732E+03  0.57829837531E+03  0.65704892319E+03  0.16500000000E+03 0.  0.
<mgrwt>
<rscale>  0 0.63358305E+03</rscale>
<asrwt>0</asrwt>
<pdfrwt beam="1">  1        2 0.23036113E+00 0.63358305E+03</pdfrwt>
<pdfrwt beam="2">  1       -2 0.10311247E-01 0.63358305E+03</pdfrwt>
<totfact> 0.84636172E+02</totfact>
</mgrwt>
</event>
<event>
 4    1  0.1573232E-005  0.5293781E+03  0.7818608E-02  0.1006383E+00
          2   -1    0    0  501    0  0.00000000000E+00  0.00000000000E+00  0.28013645048E+04  0.28013645048E+04  0.25500000000E-02 0.  1.
         -2   -1    0    0    0  501 -0.00000000000E+00 -0.00000000000E+00 -0.25009342193E+02  0.25009342323E+02  0.25500000000E-02 0. -1.
    5000001    1    1    2    0    0  0.98698618843E+01 -0.20621873242E+03  0.13104942013E+04  0.13368783158E+04  0.16500000000E+03 0.  0.
   -5000001    1    1    2    0    0 -0.98698618843E+01  0.20621873242E+03  0.14658609613E+04  0.14894955313E+04  0.16500000000E+03 0.  0.
<mgrwt>
<rscale>  0 0.52937806E+03</rscale>
<asrwt>0</asrwt>
<pdfrwt beam="1">  1        2 0.43097927E+00 0.52937806E+03</pdfrwt>
<pdfrwt beam="2">  1       -2 0.38475901E-02 0.52937806E+03</pdfrwt>
<totfact> 0.76448541E+02</totfact>
</mgrwt>
</event>
<event>
 4    1  0.1573232E-005  0.5425845E+03  0.7818608E-02  0.1003225E+00
         -2   -1    0    0    0  501 -0.00000000000E+00  0.00000000000E+00  0.57072054875E+02  0.57072054932E+02  0.25500000000E-02 0. -1.
          2   -1    0    0  501    0  0.00000000000E+00 -0.00000000000E+00 -0.12895889305E+04  0.12895889305E+04  0.25500000000E-02 0.  1.
    5000001    1    1    2    0    0 -0.15539851304E+03 -0.96604876984E+02 -0.33443782356E+03  0.41539722909E+03  0.16500000000E+03 0.  0.
   -5000001    1    1    2    0    0  0.15539851304E+03  0.96604876984E+02 -0.89807905210E+03  0.93126375638E+03  0.16500000000E+03 0.  0.
<mgrwt>
<rscale>  0 0.54258452E+03</rscale>
<asrwt>0</asrwt>
<pdfrwt beam="1">  1        2 0.19839827E+00 0.54258452E+03</pdfrwt>
<pdfrwt beam="2">  1       -2 0.87803171E-02 0.54258452E+03</pdfrwt>
<totfact> 0.14404883E+03</totfact>
</mgrwt>
</event>
<event>
 4    1  0.1573232E-005  0.4109232E+03  0.7818608E-02  0.1040062E+00
         -2   -1    0    0    0  501 -0.00000000000E+00  0.00000000000E+00  0.19017807090E+02  0.19017807261E+02  0.25500000000E-02 0. -1.
          2   -1    0    0  501    0  0.00000000000E+00 -0.00000000000E+00 -0.22197337538E+04  0.22197337538E+04  0.25500000000E-02 0.  1.
    5000001    1    1    2    0    0 -0.95044040959E+02 -0.71017322602E+02 -0.93577129545E+03  0.95758537333E+03  0.16500000000E+03 0.  0.
   -5000001    1    1    2    0    0  0.95044040959E+02  0.71017322602E+02 -0.12649446513E+04  0.12811661877E+04  0.16500000000E+03 0.  0.
<mgrwt>
<rscale>  0 0.41092320E+03</rscale>
<asrwt>0</asrwt>
<pdfrwt beam="1">  1        2 0.34149730E+00 0.41092320E+03</pdfrwt>
<pdfrwt beam="2">  1       -2 0.29258182E-02 0.41092320E+03</pdfrwt>
<totfact> 0.24776167E+03</totfact>
</mgrwt>
</event>
<event>
 4    1  0.1573232E-005  0.5055901E+03  0.7818608E-02  0.1012330E+00
          2   -1    0    0  501    0  0.00000000000E+00  0.00000000000E+00  0.70252781830E+03  0.70252781831E+03  0.25500000000E-02 0. -1.
         -2   -1    0    0    0  501 -0.00000000000E+00 -0.00000000000E+00 -0.90964837519E+02  0.90964837555E+02  0.25500000000E-02 0.  1.
    5000001    1    1    2    0    0 -0.13398550580E+03  0.13068664107E+03  0.24204575381E+03  0.34762373459E+03  0.16500000000E+03 0.  0.
   -5000001    1    1    2    0    0  0.13398550580E+03 -0.13068664107E+03  0.36951722698E+03  0.44586892127E+03  0.16500000000E+03 0.  0.
<mgrwt>
<rscale>  0 0.50559007E+03</rscale>
<asrwt>0</asrwt>
<pdfrwt beam="1">  1        2 0.10808120E+00 0.50559007E+03</pdfrwt>
<pdfrwt beam="2">  1       -2 0.13994590E-01 0.50559007E+03</pdfrwt>
<totfact> 0.16083799E+03</totfact>
</mgrwt>
</event>
<event>
 4    1  0.1573232E-005  0.6208089E+03  0.7818608E-02  0.9863151E-01
         -2   -1    0    0    0  501 -0.00000000000E+00  0.00000000000E+00  0.23855368791E+03  0.23855368792E+03  0.25500000000E-02 0. -1.
          2   -1    0    0  501    0  0.00000000000E+00 -0.00000000000E+00 -0.40389617912E+03  0.40389617913E+03  0.25500000000E-02 0.  1.
    5000001    1    1    2    0    0  0.18394395145E+03  0.14401448221E+03  0.42158589510E+02  0.28909841755E+03  0.16500000000E+03 0.  0.
   -5000001    1    1    2    0    0 -0.18394395145E+03 -0.14401448221E+03 -0.20750108073E+03  0.35335144950E+03  0.16500000000E+03 0.  0.
<mgrwt>
<rscale>  0 0.62080890E+03</rscale>
<asrwt>0</asrwt>
<pdfrwt beam="1">  1        2 0.62137874E-01 0.62080890E+03</pdfrwt>
<pdfrwt beam="2">  1       -2 0.36700567E-01 0.62080890E+03</pdfrwt>
<totfact> 0.55398607E+02</totfact>
</mgrwt>
</event>
<event>
 4    1  0.1573232E-005  0.7782015E+03  0.7818608E-02  0.9592117E-01
         -2   -1    0    0    0  501 -0.00000000000E+00  0.00000000000E+00  0.10376541319E+03  0.10376541322E+03  0.25500000000E-02 0. -1.
          2   -1    0    0  501    0  0.00000000000E+00 -0.00000000000E+00 -0.14590545247E+04  0.14590545247E+04  0.25500000000E-02 0.  1.
    5000001    1    1    2    0    0 -0.18819015539E+03 -0.29790296003E+03 -0.67049128965E+03  0.77520660322E+03  0.16500000000E+03 0.  0.
   -5000001    1    1    2    0    0  0.18819015539E+03  0.29790296003E+03 -0.68479782190E+03  0.78761333474E+03  0.16500000000E+03 0.  0.
<mgrwt>
<rscale>  0 0.77820151E+03</rscale>
<asrwt>0</asrwt>
<pdfrwt beam="1">  1        2 0.22446991E+00 0.77820151E+03</pdfrwt>
<pdfrwt beam="2">  1       -2 0.15963911E-01 0.77820151E+03</pdfrwt>
<totfact> 0.42634480E+02</totfact>
</mgrwt>
</event>
<event>
 4    1  0.1573232E-005  0.3844757E+03  0.7818608E-02  0.1049292E+00
         -2   -1    0    0    0  501 -0.00000000000E+00  0.00000000000E+00  0.26733509313E+02  0.26733509434E+02  0.25500000000E-02 0. -1.
          2   -1    0    0  501    0  0.00000000000E+00 -0.00000000000E+00 -0.13823620318E+04  0.13823620318E+04  0.25500000000E-02 0.  1.
    5000001    1    1    2    0    0  0.99096444463E+00 -0.98130741152E+02 -0.64120774349E+03  0.66933025830E+03  0.16500000000E+03 0.  0.
   -5000001    1    1    2    0    0 -0.99096444463E+00  0.98130741152E+02 -0.71442077901E+03  0.73976528294E+03  0.16500000000E+03 0.  0.
<mgrwt>
<rscale>  0 0.38447569E+03</rscale>
<asrwt>0</asrwt>
<pdfrwt beam="1">  1        2 0.21267103E+00 0.38447569E+03</pdfrwt>
<pdfrwt beam="2">  1       -2 0.41128487E-02 0.38447569E+03</pdfrwt>
<totfact> 0.41752164E+03</totfact>
</mgrwt>
</event>
<event>
 4    1  0.1573232E-005  0.5932462E+03  0.7818608E-02  0.9919518E-01
          2   -1    0    0  501    0  0.00000000000E+00  0.00000000000E+00  0.62739395925E+03  0.62739395925E+03  0.25500000000E-02 0.  1.
         -2   -1    0    0    0  501 -0.00000000000E+00 -0.00000000000E+00 -0.14023926151E+03  0.14023926153E+03  0.25500000000E-02 0. -1.
    5000001    1    1    2    0    0 -0.98482331940E+02 -0.15477927066E+03  0.45660818952E+03  0.51901004910E+03  0.16500000000E+03 0.  0.
   -5000001    1    1    2    0    0  0.98482331940E+02  0.15477927066E+03  0.30546508216E+02  0.24862317168E+03  0.16500000000E+03 0.  0.
<mgrwt>
<rscale>  0 0.59324621E+03</rscale>
<asrwt>0</asrwt>
<pdfrwt beam="1">  1        2 0.96522145E-01 0.59324621E+03</pdfrwt>
<pdfrwt beam="2">  1       -2 0.21575272E-01 0.59324621E+03</pdfrwt>
<totfact> 0.88066410E+02</totfact>
</mgrwt>
</event>
<event>
 4    1  0.1573232E-005  0.4441076E+03  0.7818608E-02  0.1029494E+00
         -2   -1    0    0    0  501 -0.00000000000E+00  0.00000000000E+00  0.29270253638E+02  0.29270253749E+02  0.25500000000E-02 0. -1.
          2   -1    0    0  501    0  0.00000000000E+00 -0.00000000000E+00 -0.16845733485E+04  0.16845733485E+04  0.25500000000E-02 0.  1.
    5000001    1    1    2    0    0 -0.12513071849E+03  0.78456103201E+02 -0.76426018770E+03  0.79569572786E+03  0.16500000000E+03 0.  0.
   -5000001    1    1    2    0    0  0.12513071849E+03 -0.78456103201E+02 -0.89104290719E+03  0.91814787441E+03  0.16500000000E+03 0.  0.
<mgrwt>
<rscale>  0 0.44410760E+03</rscale>
<asrwt>0</asrwt>
<pdfrwt beam="1">  1        2 0.25916505E+00 0.44410760E+03</pdfrwt>
<pdfrwt beam="2">  1       -2 0.45031173E-02 0.44410760E+03</pdfrwt>
<totfact> 0.24886672E+03</totfact>
</mgrwt>
</event>
<event>
 4    1  0.1573232E-005  0.3732151E+03  0.7818608E-02  0.1053470E+00
         -2   -1    0    0    0  501 -0.00000000000E+00  0.00000000000E+00  0.69428493166E+02  0.69428493213E+02  0.25500000000E-02 0. -1.
          2   -1    0    0  501    0  0.00000000000E+00 -0.00000000000E+00 -0.50155756631E+03  0.50155756632E+03  0.25500000000E-02 0.  1.
    5000001    1    1    2    0    0 -0.65536315288E+02  0.13113033327E+02 -0.13046568174E+03  0.22071079352E+03  0.16500000000E+03 0.  0.
   -5000001    1    1    2    0    0  0.65536315288E+02 -0.13113033327E+02 -0.30166339141E+03  0.35027526601E+03  0.16500000000E+03 0.  0.
<mgrwt>
<rscale>  0 0.37321514E+03</rscale>
<asrwt>0</asrwt>
<pdfrwt beam="1">  1        2 0.77162700E-01 0.37321514E+03</pdfrwt>
<pdfrwt beam="2">  1       -2 0.10681307E-01 0.37321514E+03</pdfrwt>
<totfact> 0.37214599E+03</totfact>
</mgrwt>
</event>
<event>
 4    1  0.1573232E-005  0.4792353E+03  0.7818608E-02  0.1019346E+00
          2   -1    0    0  501    0  0.00000000000E+00  0.00000000000E+00  0.87355589367E+03  0.87355589367E+03  0.25500000000E-02 0.  1.
         -2   -1    0    0    0  501 -0.00000000000E+00 -0.00000000000E+00 -0.65727475642E+02  0.65727475692E+02  0.25500000000E-02 0. -1.
    5000001    1    1    2    0    0  0.20265756940E+02 -0.15982119807E+03  0.53150924991E+03  0.57937949480E+03  0.16500000000E+03 0.  0.
   -5000001    1    1    2    0    0 -0.20265756940E+02  0.15982119807E+03  0.27631916812E+03  0.35990387457E+03  0.16500000000E+03 0.  0.
<mgrwt>
<rscale>  0 0.47923532E+03</rscale>
<asrwt>0</asrwt>
<pdfrwt beam="1">  1        2 0.13439321E+00 0.47923532E+03</pdfrwt>
<pdfrwt beam="2">  1       -2 0.10111920E-01 0.47923532E+03</pdfrwt>
<totfact> 0.20657620E+03</totfact>
</mgrwt>
</event>
<event>
 4    1  0.1573232E-005  0.4087327E+03  0.7818608E-02  0.1040797E+00
         -2   -1    0    0    0  501 -0.00000000000E+00  0.00000000000E+00  0.26429008455E+02  0.26429008578E+02  0.25500000000E-02 0. -1.
          2   -1    0    0  501    0  0.00000000000E+00 -0.00000000000E+00 -0.15802937144E+04  0.15802937144E+04  0.25500000000E-02 0.  1.
    5000001    1    1    2    0    0 -0.34153625482E+02  0.95228093038E+02 -0.51898842587E+03  0.55390328220E+03  0.16500000000E+03 0.  0.
   -5000001    1    1    2    0    0  0.34153625482E+02 -0.95228093038E+02 -0.10348762801E+04  0.10528194408E+04  0.16500000000E+03 0.  0.
<mgrwt>
<rscale>  0 0.40873266E+03</rscale>
<asrwt>0</asrwt>
<pdfrwt beam="1">  1        2 0.24312204E+00 0.40873266E+03</pdfrwt>
<pdfrwt beam="2">  1       -2 0.40660026E-02 0.40873266E+03</pdfrwt>
<totfact> 0.33131312E+03</totfact>
</mgrwt>
</event>
<event>
 4    1  0.1573232E-005  0.5086849E+03  0.7818608E-02  0.1011537E+00
         -2   -1    0    0    0  501 -0.00000000000E+00  0.00000000000E+00  0.56249114997E+02  0.56249115055E+02  0.25500000000E-02 0. -1.
          2   -1    0    0  501    0  0.00000000000E+00 -0.00000000000E+00 -0.11500641832E+04  0.11500641832E+04  0.25500000000E-02 0.  1.
    5000001    1    1    2    0    0 -0.13920460857E+03  0.13189140496E+03 -0.60928244228E+03  0.65971460513E+03  0.16500000000E+03 0.  0.
   -5000001    1    1    2    0    0  0.13920460857E+03 -0.13189140496E+03 -0.48453262594E+03  0.54659869315E+03  0.16500000000E+03 0.  0.
<mgrwt>
<rscale>  0 0.50868494E+03</rscale>
<asrwt>0</asrwt>
<pdfrwt beam="1">  1        2 0.17693293E+00 0.50868494E+03</pdfrwt>
<pdfrwt beam="2">  1       -2 0.86537109E-02 0.50868494E+03</pdfrwt>
<totfact> 0.17785502E+03</totfact>
</mgrwt>
</event>
<event>
 4    1  0.1573232E-005  0.6376997E+03  0.7818608E-02  0.9830138E-01
         -2   -1    0    0    0  501 -0.00000000000E+00  0.00000000000E+00  0.68613523004E+02  0.68613523052E+02  0.25500000000E-02 0. -1.
          2   -1    0    0  501    0  0.00000000000E+00 -0.00000000000E+00 -0.14817080732E+04  0.14817080732E+04  0.25500000000E-02 0.  1.
    5000001    1    1    2    0    0 -0.11169844608E+03 -0.23879778592E+03 -0.53568834328E+03  0.61942548103E+03  0.16500000000E+03 0.  0.
   -5000001    1    1    2    0    0  0.11169844608E+03  0.23879778592E+03 -0.87740620694E+03  0.93089611525E+03  0.16500000000E+03 0.  0.
<mgrwt>
<rscale>  0 0.63769965E+03</rscale>
<asrwt>0</asrwt>
<pdfrwt beam="1">  1        2 0.22795507E+00 0.63769965E+03</pdfrwt>
<pdfrwt beam="2">  1       -2 0.10555928E-01 0.63769965E+03</pdfrwt>
<totfact> 0.83089767E+02</totfact>
</mgrwt>
</event>
<event>
 4    1  0.1573232E-005  0.6794016E+03  0.7818608E-02  0.9753121E-01
          2   -1    0    0  501    0  0.00000000000E+00  0.00000000000E+00  0.24646961031E+03  0.24646961033E+03  0.25500000000E-02 0.  1.
         -2   -1    0    0    0  501 -0.00000000000E+00 -0.00000000000E+00 -0.46819816281E+03  0.46819816282E+03  0.25500000000E-02 0. -1.
    5000001    1    1    2    0    0  0.43681430118E+02  0.29044215496E+03 -0.64929425746E+02  0.34308241436E+03  0.16500000000E+03 0.  0.
   -5000001    1    1    2    0    0 -0.43681430118E+02 -0.29044215496E+03 -0.15679912676E+03  0.37158535879E+03  0.16500000000E+03 0.  0.
<mgrwt>
<rscale>  0 0.67940156E+03</rscale>
<asrwt>0</asrwt>
<pdfrwt beam="1">  1        2 0.37918402E-01 0.67940156E+03</pdfrwt>
<pdfrwt beam="2">  1       -2 0.72030486E-01 0.67940156E+03</pdfrwt>
<totfact> 0.24114714E+02</totfact>
</mgrwt>
</event>
<event>
 4    1  0.1573232E-005  0.6323144E+03  0.7818608E-02  0.9840543E-01
         -2   -1    0    0    0  501 -0.00000000000E+00  0.00000000000E+00  0.77648805287E+02  0.77648805329E+02  0.25500000000E-02 0. -1.
          2   -1    0    0  501    0  0.00000000000E+00 -0.00000000000E+00 -0.12872751777E+04  0.12872751777E+04  0.25500000000E-02 0.  1.
    5000001    1    1    2    0    0  0.58825436400E+02  0.20427968354E+03 -0.96303781969E+03  0.99992872908E+03  0.16500000000E+03 0.  0.
   -5000001    1    1    2    0    0 -0.58825436400E+02 -0.20427968354E+03 -0.24658855272E+03  0.36499525395E+03  0.16500000000E+03 0.  0.
<mgrwt>
<rscale>  0 0.63231441E+03</rscale>
<asrwt>0</asrwt>
<pdfrwt beam="1">  1        2 0.19804232E+00 0.63231441E+03</pdfrwt>
<pdfrwt beam="2">  1       -2 0.11945971E-01 0.63231441E+03</pdfrwt>
<totfact> 0.87346077E+02</totfact>
</mgrwt>
</event>
<event>
 4    1  0.1573232E-005  0.4129458E+03  0.7818608E-02  0.1039387E+00
         -2   -1    0    0    0  501 -0.00000000000E+00  0.00000000000E+00  0.10597940848E+03  0.10597940851E+03  0.25500000000E-02 0. -1.
          2   -1    0    0  501    0  0.00000000000E+00 -0.00000000000E+00 -0.40225793973E+03  0.40225793974E+03  0.25500000000E-02 0.  1.
    5000001    1    1    2    0    0 -0.80921187954E+02  0.49908144775E+02 -0.49932627695E+02  0.19686881135E+03  0.16500000000E+03 0.  0.
   -5000001    1    1    2    0    0  0.80921187954E+02 -0.49908144775E+02 -0.24634590355E+03  0.31136853690E+03  0.16500000000E+03 0.  0.
<mgrwt>
<rscale>  0 0.41294580E+03</rscale>
<asrwt>0</asrwt>
<pdfrwt beam="1">  1        2 0.61885836E-01 0.41294580E+03</pdfrwt>
<pdfrwt beam="2">  1       -2 0.16304525E-01 0.41294580E+03</pdfrwt>
<totfact> 0.23771879E+03</totfact>
</mgrwt>
</event>
<event>
 4    1  0.1573232E-005  0.5222787E+03  0.7818608E-02  0.1008122E+00
         -2   -1    0    0    0  501 -0.00000000000E+00  0.00000000000E+00  0.26249922140E+02  0.26249922264E+02  0.25500000000E-02 0. -1.
          2   -1    0    0  501    0  0.00000000000E+00 -0.00000000000E+00 -0.25978652532E+04  0.25978652532E+04  0.25500000000E-02 0.  1.
    5000001    1    1    2    0    0 -0.12634333771E+03  0.15805033370E+03 -0.13115320952E+04  0.13372673569E+04  0.16500000000E+03 0.  0.
   -5000001    1    1    2    0    0  0.12634333771E+03 -0.15805033370E+03 -0.12600832358E+04  0.12868478185E+04  0.16500000000E+03 0.  0.
<mgrwt>
<rscale>  0 0.52227870E+03</rscale>
<asrwt>0</asrwt>
<pdfrwt beam="1">  1        2 0.39967137E+00 0.52227870E+03</pdfrwt>
<pdfrwt beam="2">  1       -2 0.40384516E-02 0.52227870E+03</pdfrwt>
<totfact> 0.93045162E+02</totfact>
</mgrwt>
</event>
<event>
 4    1  0.1573232E-005  0.5901268E+03  0.7818608E-02  0.9926104E-01
         -2   -1    0    0    0  501 -0.00000000000E+00  0.00000000000E+00  0.17532995852E+03  0.17532995854E+03  0.25500000000E-02 0. -1.
          2   -1    0    0  501    0  0.00000000000E+00 -0.00000000000E+00 -0.49656316889E+03  0.49656316889E+03  0.25500000000E-02 0.  1.
    5000001    1    1    2    0    0  0.89106900492E+01  0.22977281406E+03 -0.65613886233E+02  0.29052560739E+03  0.16500000000E+03 0.  0.
   -5000001    1    1    2    0    0 -0.89106900492E+01 -0.22977281406E+03 -0.25561932413E+03  0.38136752005E+03  0.16500000000E+03 0.  0.
<mgrwt>
<rscale>  0 0.59012677E+03</rscale>
<asrwt>0</asrwt>
<pdfrwt beam="1">  1        2 0.76394333E-01 0.59012677E+03</pdfrwt>
<pdfrwt beam="2">  1       -2 0.26973840E-01 0.59012677E+03</pdfrwt>
<totfact> 0.77843672E+02</totfact>
</mgrwt>
</event>
<event>
 4    1  0.1573232E-005  0.4573140E+03  0.7818608E-02  0.1025563E+00
         -2   -1    0    0    0  501 -0.00000000000E+00  0.00000000000E+00  0.31207290644E+03  0.31207290645E+03  0.25500000000E-02 0. -1.
          2   -1    0    0  501    0  0.00000000000E+00 -0.00000000000E+00 -0.16753783914E+03  0.16753783916E+03  0.25500000000E-02 0.  1.
    5000001    1    1    2    0    0 -0.88621597769E+00 -0.15820406919E+03  0.77983736348E+02  0.24152800256E+03  0.16500000000E+03 0.  0.
   -5000001    1    1    2    0    0  0.88621597769E+00  0.15820406919E+03  0.66551330947E+02  0.23808274305E+03  0.16500000000E+03 0.  0.
<mgrwt>
<rscale>  0 0.45731399E+03</rscale>
<asrwt>0</asrwt>
<pdfrwt beam="1">  1        2 0.25775052E-01 0.45731399E+03</pdfrwt>
<pdfrwt beam="2">  1       -2 0.48011216E-01 0.45731399E+03</pdfrwt>
<totfact> 0.87195242E+02</totfact>
</mgrwt>
</event>
<event>
 4    1  0.1573232E-005  0.4556988E+03  0.7818608E-02  0.1026036E+00
          2   -1    0    0  501    0  0.00000000000E+00  0.00000000000E+00  0.12486683461E+04  0.12486683461E+04  0.25500000000E-02 0. -1.
         -2   -1    0    0    0  501 -0.00000000000E+00 -0.00000000000E+00 -0.41576568334E+02  0.41576568413E+02  0.25500000000E-02 0.  1.
    5000001    1    1    2    0    0 -0.60607191481E+02 -0.13075908526E+03  0.78079807796E+03  0.81095117521E+03  0.16500000000E+03 0.  0.
   -5000001    1    1    2    0    0  0.60607191481E+02  0.13075908526E+03  0.42629369981E+03  0.47929373930E+03  0.16500000000E+03 0.  0.
<mgrwt>
<rscale>  0 0.45569878E+03</rscale>
<asrwt>0</asrwt>
<pdfrwt beam="1">  1        2 0.19210282E+00 0.45569878E+03</pdfrwt>
<pdfrwt beam="2">  1       -2 0.63963954E-02 0.45569878E+03</pdfrwt>
<totfact> 0.25134682E+03</totfact>
</mgrwt>
</event>
<event>
 4    1  0.1573232E-005  0.6052951E+03  0.7818608E-02  0.9894481E-01
         -2   -1    0    0    0  501 -0.00000000000E+00  0.00000000000E+00  0.37470351259E+02  0.37470351346E+02  0.25500000000E-02 0. -1.
          2   -1    0    0  501    0  0.00000000000E+00 -0.00000000000E+00 -0.24444800430E+04  0.24444800430E+04  0.25500000000E-02 0.  1.
    5000001    1    1    2    0    0  0.22948284618E+03  0.67611069349E+02 -0.85710271802E+03  0.90503243181E+03  0.16500000000E+03 0.  0.
   -5000001    1    1    2    0    0 -0.22948284618E+03 -0.67611069349E+02 -0.15499069737E+04  0.15769179626E+04  0.16500000000E+03 0.  0.
<mgrwt>
<rscale>  0 0.60529506E+03</rscale>
<asrwt>0</asrwt>
<pdfrwt beam="1">  1        2 0.37607373E+00 0.60529506E+03</pdfrwt>
<pdfrwt beam="2">  1       -2 0.57646714E-02 0.60529506E+03</pdfrwt>
<totfact> 0.64976541E+02</totfact>
</mgrwt>
</event>
<event>
 4    1  0.1573232E-005  0.3849081E+03  0.7818608E-02  0.1049134E+00
          2   -1    0    0  501    0  0.00000000000E+00  0.00000000000E+00  0.13604329135E+04  0.13604329135E+04  0.25500000000E-02 0.  1.
         -2   -1    0    0    0  501 -0.00000000000E+00 -0.00000000000E+00 -0.27225564997E+02  0.27225565116E+02  0.25500000000E-02 0. -1.
    5000001    1    1    2    0    0  0.24609208680E+02 -0.91734758357E+02  0.56510196209E+03  0.59631041128E+03  0.16500000000E+03 0.  0.
   -5000001    1    1    2    0    0 -0.24609208680E+02  0.91734758357E+02  0.76810538637E+03  0.79134806730E+03  0.16500000000E+03 0.  0.
<mgrwt>
<rscale>  0 0.38490807E+03</rscale>
<asrwt>0</asrwt>
<pdfrwt beam="1">  1        2 0.20929735E+00 0.38490807E+03</pdfrwt>
<pdfrwt beam="2">  1       -2 0.41885489E-02 0.38490807E+03</pdfrwt>
<totfact> 0.41761236E+03</totfact>
</mgrwt>
</event>
<event>
 4    1  0.1573232E-005  0.5679501E+03  0.7818608E-02  0.9974225E-01
          2   -1    0    0  501    0  0.00000000000E+00  0.00000000000E+00  0.26906808429E+03  0.26906808431E+03  0.25500000000E-02 0.  1.
         -2   -1    0    0    0  501 -0.00000000000E+00 -0.00000000000E+00 -0.29970790967E+03  0.29970790968E+03  0.25500000000E-02 0. -1.
    5000001    1    1    2    0    0 -0.11967509520E+03 -0.17412178663E+03 -0.10913809142E+03  0.28944195962E+03  0.16500000000E+03 0.  0.
   -5000001    1    1    2    0    0  0.11967509520E+03  0.17412178663E+03  0.78498266038E+02  0.27933403437E+03  0.16500000000E+03 0.  0.
<mgrwt>
<rscale>  0 0.56795011E+03</rscale>
<asrwt>0</asrwt>
<pdfrwt beam="1">  1        2 0.41395090E-01 0.56795011E+03</pdfrwt>
<pdfrwt beam="2">  1       -2 0.46108909E-01 0.56795011E+03</pdfrwt>
<totfact> 0.55707158E+02</totfact>
</mgrwt>
</event>
<event>
 4    1  0.1573232E-005  0.4009607E+03  0.7818608E-02  0.1043448E+00
          2   -1    0    0  501    0  0.00000000000E+00  0.00000000000E+00  0.56326080101E+03  0.56326080101E+03  0.25500000000E-02 0.  1.
         -2   -1    0    0    0  501 -0.00000000000E+00 -0.00000000000E+00 -0.71356576060E+02  0.71356576106E+02  0.25500000000E-02 0. -1.
    5000001    1    1    2    0    0 -0.90989353136E+02 -0.64399983449E+02  0.20914044158E+03  0.28877524921E+03  0.16500000000E+03 0.  0.
   -5000001    1    1    2    0    0  0.90989353136E+02  0.64399983449E+02  0.28276378337E+03  0.34584212791E+03  0.16500000000E+03 0.  0.
<mgrwt>
<rscale>  0 0.40096066E+03</rscale>
<asrwt>0</asrwt>
<pdfrwt beam="1">  1        2 0.86655503E-01 0.40096066E+03</pdfrwt>
<pdfrwt beam="2">  1       -2 0.10977935E-01 0.40096066E+03</pdfrwt>
<totfact> 0.31202146E+03</totfact>
</mgrwt>
</event>
<event>
 4    1  0.1573232E-005  0.5329251E+03  0.7818608E-02  0.1005525E+00
         -2   -1    0    0    0  501 -0.00000000000E+00  0.00000000000E+00  0.58317178180E+02  0.58317178236E+02  0.25500000000E-02 0. -1.
          2   -1    0    0  501    0  0.00000000000E+00 -0.00000000000E+00 -0.12175193705E+04  0.12175193705E+04  0.25500000000E-02 0.  1.
    5000001    1    1    2    0    0 -0.52096246908E+02 -0.10789333484E+03 -0.99024670971E+03  0.10110235095E+04  0.16500000000E+03 0.  0.
   -5000001    1    1    2    0    0  0.52096246908E+02  0.10789333484E+03 -0.16895548257E+03  0.26481303921E+03  0.16500000000E+03 0.  0.
<mgrwt>
<rscale>  0 0.53292511E+03</rscale>
<asrwt>0</asrwt>
<pdfrwt beam="1">  1        2 0.18731065E+00 0.53292511E+03</pdfrwt>
<pdfrwt beam="2">  1       -2 0.89718745E-02 0.53292511E+03</pdfrwt>
<totfact> 0.15315767E+03</totfact>
</mgrwt>
</event>
<event>
 4    1  0.1573232E-005  0.4407726E+03  0.7818608E-02  0.1030510E+00
          2   -1    0    0  501    0  0.00000000000E+00  0.00000000000E+00  0.31923810534E+04  0.31923810534E+04  0.25500000000E-02 0.  1.
         -2   -1    0    0    0  501 -0.00000000000E+00 -0.00000000000E+00 -0.15214388289E+02  0.15214388503E+02  0.25500000000E-02 0. -1.
    5000001    1    1    2    0    0 -0.10777182259E+03  0.34001410360E+02  0.91473307930E+03  0.93633993187E+03  0.16500000000E+03 0.  0.
   -5000001    1    1    2    0    0  0.10777182259E+03 -0.34001410360E+02  0.22624335858E+04  0.22712555101E+04  0.16500000000E+03 0.  0.
<mgrwt>
<rscale>  0 0.44077262E+03</rscale>
<asrwt>0</asrwt>
<pdfrwt beam="1">  1        2 0.49113655E+00 0.44077262E+03</pdfrwt>
<pdfrwt beam="2">  1       -2 0.23406704E-02 0.44077262E+03</pdfrwt>
<totfact> 0.95081489E+02</totfact>
</mgrwt>
</event>
<event>
 4    1  0.1573232E-005  0.4777646E+03  0.7818608E-02  0.1019751E+00
          2   -1    0    0  501    0  0.00000000000E+00  0.00000000000E+00  0.32361939274E+04  0.32361939274E+04  0.25500000000E-02 0.  1.
         -2   -1    0    0    0  501 -0.00000000000E+00 -0.00000000000E+00 -0.17633288483E+02  0.17633288668E+02  0.25500000000E-02 0. -1.
    5000001    1    1    2    0    0  0.78583053062E+02 -0.72459112569E+02  0.68510136333E+03  0.71275135725E+03  0.16500000000E+03 0.  0.
   -5000001    1    1    2    0    0 -0.78583053062E+02  0.72459112569E+02  0.25334592756E+04  0.25410758588E+04  0.16500000000E+03 0.  0.
<mgrwt>
<rscale>  0 0.47776455E+03</rscale>
<asrwt>0</asrwt>
<pdfrwt beam="1">  1        2 0.49787519E+00 0.47776455E+03</pdfrwt>
<pdfrwt beam="2">  1       -2 0.27128180E-02 0.47776455E+03</pdfrwt>
<totfact> 0.71147998E+02</totfact>
</mgrwt>
</event>
<event>
 4    1  0.1573232E-005  0.4801097E+03  0.7818608E-02  0.1019105E+00
         -2   -1    0    0    0  501 -0.00000000000E+00  0.00000000000E+00  0.16664058707E+02  0.16664058902E+02  0.25500000000E-02 0. -1.
          2   -1    0    0  501    0  0.00000000000E+00 -0.00000000000E+00 -0.34581216044E+04  0.34581216044E+04  0.25500000000E-02 0.  1.
    5000001    1    1    2    0    0  0.49371944041E+02 -0.15162085808E+03 -0.22312082589E+04  0.22429760961E+04  0.16500000000E+03 0.  0.
   -5000001    1    1    2    0    0 -0.49371944041E+02  0.15162085808E+03 -0.12102492868E+04  0.12318095671E+04  0.16500000000E+03 0.  0.
<mgrwt>
<rscale>  0 0.48010974E+03</rscale>
<asrwt>0</asrwt>
<pdfrwt beam="1">  1        2 0.53201814E+00 0.48010974E+03</pdfrwt>
<pdfrwt beam="2">  1       -2 0.25637041E-02 0.48010974E+03</pdfrwt>
<totfact> 0.55569985E+02</totfact>
</mgrwt>
</event>
<event>
 4    1  0.1573232E-005  0.6892061E+03  0.7818608E-02  0.9735871E-01
         -2   -1    0    0    0  501 -0.00000000000E+00  0.00000000000E+00  0.15741586187E+03  0.15741586189E+03  0.25500000000E-02 0. -1.
          2   -1    0    0  501    0  0.00000000000E+00 -0.00000000000E+00 -0.75437915794E+03  0.75437915794E+03  0.25500000000E-02 0.  1.
    5000001    1    1    2    0    0 -0.52704064848E+02  0.29101175524E+03 -0.38278557298E+03  0.51109231556E+03  0.16500000000E+03 0.  0.
   -5000001    1    1    2    0    0  0.52704064848E+02 -0.29101175524E+03 -0.21417772308E+03  0.40070270427E+03  0.16500000000E+03 0.  0.
<mgrwt>
<rscale>  0 0.68920605E+03</rscale>
<asrwt>0</asrwt>
<pdfrwt beam="1">  1        2 0.11605833E+00 0.68920605E+03</pdfrwt>
<pdfrwt beam="2">  1       -2 0.24217825E-01 0.68920605E+03</pdfrwt>
<totfact> 0.56833196E+02</totfact>
</mgrwt>
</event>
<event>
 4    1  0.1573232E-005  0.8272619E+03  0.7818608E-02  0.9521374E-01
         -2   -1    0    0    0  501 -0.00000000000E+00  0.00000000000E+00  0.15650944977E+03  0.15650944979E+03  0.25500000000E-02 0. -1.
          2   -1    0    0  501    0  0.00000000000E+00 -0.00000000000E+00 -0.10931645418E+04  0.10931645418E+04  0.25500000000E-02 0.  1.
    5000001    1    1    2    0    0 -0.27992181551E+03 -0.20311921603E+03 -0.70357609196E+03  0.80116038088E+03  0.16500000000E+03 0.  0.
   -5000001    1    1    2    0    0  0.27992181551E+03  0.20311921603E+03 -0.23307900010E+03  0.44851361073E+03  0.16500000000E+03 0.  0.
<mgrwt>
<rscale>  0 0.82726194E+03</rscale>
<asrwt>0</asrwt>
<pdfrwt beam="1">  1        2 0.16817916E+00 0.82726194E+03</pdfrwt>
<pdfrwt beam="2">  1       -2 0.24078378E-01 0.82726194E+03</pdfrwt>
<totfact> 0.33890663E+02</totfact>
</mgrwt>
</event>
<event>
 4    1  0.1573232E-005  0.7645817E+03  0.7818608E-02  0.9612748E-01
         -2   -1    0    0    0  501 -0.00000000000E+00  0.00000000000E+00  0.14528875067E+03  0.14528875069E+03  0.25500000000E-02 0. -1.
          2   -1    0    0  501    0  0.00000000000E+00 -0.00000000000E+00 -0.10059022383E+04  0.10059022383E+04  0.25500000000E-02 0.  1.
    5000001    1    1    2    0    0  0.25037024155E+03  0.23710408988E+03 -0.42397724797E+03  0.57086365631E+03  0.16500000000E+03 0.  0.
   -5000001    1    1    2    0    0 -0.25037024155E+03 -0.23710408988E+03 -0.43663623969E+03  0.58032733272E+03  0.16500000000E+03 0.  0.
<mgrwt>
<rscale>  0 0.76458166E+03</rscale>
<asrwt>0</asrwt>
<pdfrwt beam="1">  1        2 0.15475419E+00 0.76458166E+03</pdfrwt>
<pdfrwt beam="2">  1       -2 0.22352116E-01 0.76458166E+03</pdfrwt>
<totfact> 0.44016536E+02</totfact>
</mgrwt>
</event>
<event>
 4    1  0.1573232E-005  0.7929611E+03  0.7818608E-02  0.9570262E-01
         -2   -1    0    0    0  501 -0.00000000000E+00  0.00000000000E+00  0.57886213281E+03  0.57886213282E+03  0.25500000000E-02 0. -1.
          2   -1    0    0  501    0  0.00000000000E+00 -0.00000000000E+00 -0.27156175778E+03  0.27156175779E+03  0.25500000000E-02 0.  1.
    5000001    1    1    2    0    0 -0.23076779135E+02 -0.31660987217E+03  0.33690533683E+03  0.49143112933E+03  0.16500000000E+03 0.  0.
   -5000001    1    1    2    0    0  0.23076779135E+02  0.31660987217E+03 -0.29604961799E+02  0.35899276128E+03  0.16500000000E+03 0.  0.
<mgrwt>
<rscale>  0 0.79296108E+03</rscale>
<asrwt>0</asrwt>
<pdfrwt beam="1">  1        2 0.41778733E-01 0.79296108E+03</pdfrwt>
<pdfrwt beam="2">  1       -2 0.89055712E-01 0.79296108E+03</pdfrwt>
<totfact> 0.13387137E+02</totfact>
</mgrwt>
</event>
<event>
 4    1  0.1573232E-005  0.7181856E+03  0.7818608E-02  0.9686628E-01
         -2   -1    0    0    0  501 -0.00000000000E+00  0.00000000000E+00  0.49948234379E+02  0.49948234444E+02  0.25500000000E-02 0. -1.
          2   -1    0    0  501    0  0.00000000000E+00 -0.00000000000E+00 -0.25816255926E+04  0.25816255926E+04  0.25500000000E-02 0.  1.
    5000001    1    1    2    0    0  0.25687907786E+03  0.18000675362E+03 -0.10542856690E+04  0.11122646105E+04  0.16500000000E+03 0.  0.
   -5000001    1    1    2    0    0 -0.25687907786E+03 -0.18000675362E+03 -0.14773916892E+04  0.15193092165E+04  0.16500000000E+03 0.  0.
<mgrwt>
<rscale>  0 0.71818560E+03</rscale>
<asrwt>0</asrwt>
<pdfrwt beam="1">  1        2 0.39717306E+00 0.71818560E+03</pdfrwt>
<pdfrwt beam="2">  1       -2 0.76843458E-02 0.71818560E+03</pdfrwt>
<totfact> 0.34165537E+02</totfact>
</mgrwt>
</event>
<event>
 4    1  0.1573232E-005  0.4714814E+03  0.7818608E-02  0.1021503E+00
         -2   -1    0    0    0  501 -0.00000000000E+00  0.00000000000E+00  0.41787451929E+02  0.41787452007E+02  0.25500000000E-02 0. -1.
          2   -1    0    0  501    0  0.00000000000E+00 -0.00000000000E+00 -0.13299131808E+04  0.13299131809E+04  0.25500000000E-02 0.  1.
    5000001    1    1    2    0    0  0.13840290943E+03 -0.51183278164E+01 -0.92261803498E+03  0.94743369219E+03  0.16500000000E+03 0.  0.
   -5000001    1    1    2    0    0 -0.13840290943E+03  0.51183278164E+01 -0.36550769393E+03  0.42426694067E+03  0.16500000000E+03 0.  0.
<mgrwt>
<rscale>  0 0.47148142E+03</rscale>
<asrwt>0</asrwt>
<pdfrwt beam="1">  1        2 0.20460200E+00 0.47148142E+03</pdfrwt>
<pdfrwt beam="2">  1       -2 0.64288398E-02 0.47148142E+03</pdfrwt>
<totfact> 0.22417966E+03</totfact>
</mgrwt>
</event>
<event>
 4    1  0.1573232E-005  0.4987142E+03  0.7818608E-02  0.1014115E+00
          2   -1    0    0  501    0  0.00000000000E+00  0.00000000000E+00  0.21098611186E+04  0.21098611186E+04  0.25500000000E-02 0.  1.
         -2   -1    0    0    0  501 -0.00000000000E+00 -0.00000000000E+00 -0.29470641742E+02  0.29470641852E+02  0.25500000000E-02 0. -1.
    5000001    1    1    2    0    0  0.17577765402E+03 -0.63658007147E+02  0.10317938497E+04  0.10614959603E+04  0.16500000000E+03 0.  0.
   -5000001    1    1    2    0    0 -0.17577765402E+03  0.63658007147E+02  0.10485966271E+04  0.10778358001E+04  0.16500000000E+03 0.  0.
<mgrwt>
<rscale>  0 0.49871419E+03</rscale>
<asrwt>0</asrwt>
<pdfrwt beam="1">  1        2 0.32459397E+00 0.49871419E+03</pdfrwt>
<pdfrwt beam="2">  1       -2 0.45339456E-02 0.49871419E+03</pdfrwt>
<totfact> 0.14515566E+03</totfact>
</mgrwt>
</event>
<event>
 4    1  0.1573232E-005  0.5007898E+03  0.7818608E-02  0.1013573E+00
          2   -1    0    0  501    0  0.00000000000E+00  0.00000000000E+00  0.31004457412E+03  0.31004457413E+03  0.25500000000E-02 0.  1.
         -2   -1    0    0    0  501 -0.00000000000E+00 -0.00000000000E+00 -0.20222127760E+03  0.20222127761E+03  0.25500000000E-02 0. -1.
    5000001    1    1    2    0    0 -0.16745545953E+03  0.81778880174E+02  0.26019717864E+02  0.25026214633E+03  0.16500000000E+03 0.  0.
   -5000001    1    1    2    0    0  0.16745545953E+03 -0.81778880174E+02  0.81803578659E+02  0.26200370541E+03  0.16500000000E+03 0.  0.
<mgrwt>
<rscale>  0 0.50078982E+03</rscale>
<asrwt>0</asrwt>
<pdfrwt beam="1">  1        2 0.47699165E-01 0.50078982E+03</pdfrwt>
<pdfrwt beam="2">  1       -2 0.31110966E-01 0.50078982E+03</pdfrwt>
<totfact> 0.10149483E+03</totfact>
</mgrwt>
</event>
<event>
 4    1  0.1573232E-005  0.5428609E+03  0.7818608E-02  0.1003160E+00
         -2   -1    0    0    0  501 -0.00000000000E+00  0.00000000000E+00  0.53228197216E+02  0.53228197277E+02  0.25500000000E-02 0. -1.
          2   -1    0    0  501    0  0.00000000000E+00 -0.00000000000E+00 -0.13841250137E+04  0.13841250137E+04  0.25500000000E-02 0.  1.
    5000001    1    1    2    0    0  0.19010918403E+03 -0.99501710361E+02 -0.71888989957E+03  0.76815999630E+03  0.16500000000E+03 0.  0.
   -5000001    1    1    2    0    0 -0.19010918403E+03  0.99501710361E+02 -0.61200691690E+03  0.66919321466E+03  0.16500000000E+03 0.  0.
<mgrwt>
<rscale>  0 0.54286086E+03</rscale>
<asrwt>0</asrwt>
<pdfrwt beam="1">  1        2 0.21294228E+00 0.54286086E+03</pdfrwt>
<pdfrwt beam="2">  1       -2 0.81889544E-02 0.54286086E+03</pdfrwt>
<totfact> 0.14236868E+03</totfact>
</mgrwt>
</event>
<event>
 4    1  0.1573232E-005  0.5097534E+03  0.7818608E-02  0.1011264E+00
         -2   -1    0    0    0  501 -0.00000000000E+00  0.00000000000E+00  0.41796342400E+02  0.41796342477E+02  0.25500000000E-02 0. -1.
          2   -1    0    0  501    0  0.00000000000E+00 -0.00000000000E+00 -0.15542538341E+04  0.15542538341E+04  0.25500000000E-02 0.  1.
    5000001    1    1    2    0    0 -0.18479686654E+03  0.54171947270E+02 -0.67624080455E+03  0.72222649321E+03  0.16500000000E+03 0.  0.
   -5000001    1    1    2    0    0  0.18479686654E+03 -0.54171947270E+02 -0.83621668719E+03  0.87382368341E+03  0.16500000000E+03 0.  0.
<mgrwt>
<rscale>  0 0.50975337E+03</rscale>
<asrwt>0</asrwt>
<pdfrwt beam="1">  1        2 0.23911593E+00 0.50975337E+03</pdfrwt>
<pdfrwt beam="2">  1       -2 0.64302077E-02 0.50975337E+03</pdfrwt>
<totfact> 0.16820595E+03</totfact>
</mgrwt>
</event>
<event>
 4    1  0.1573232E-005  0.8414454E+03  0.7818608E-02  0.9501891E-01
          2   -1    0    0  501    0  0.00000000000E+00  0.00000000000E+00  0.33162234575E+03  0.33162234576E+03  0.25500000000E-02 0.  1.
         -2   -1    0    0    0  501 -0.00000000000E+00 -0.00000000000E+00 -0.53376253678E+03  0.53376253679E+03  0.25500000000E-02 0. -1.
    5000001    1    1    2    0    0 -0.38248078392E+03  0.49212314177E+02 -0.67441454983E+02  0.42483732391E+03  0.16500000000E+03 0.  0.
   -5000001    1    1    2    0    0  0.38248078392E+03 -0.49212314177E+02 -0.13469873604E+03  0.44054755864E+03  0.16500000000E+03 0.  0.
<mgrwt>
<rscale>  0 0.84144539E+03</rscale>
<asrwt>0</asrwt>
<pdfrwt beam="1">  1        2 0.51018822E-01 0.84144539E+03</pdfrwt>
<pdfrwt beam="2">  1       -2 0.82117313E-01 0.84144539E+03</pdfrwt>
<totfact> 0.12871238E+02</totfact>
</mgrwt>
</event>
<event>
 4    1  0.1573232E-005  0.4298928E+03  0.7818608E-02  0.1033894E+00
         -2   -1    0    0    0  501 -0.00000000000E+00  0.00000000000E+00  0.29948641247E+02  0.29948641356E+02  0.25500000000E-02 0. -1.
          2   -1    0    0  501    0  0.00000000000E+00 -0.00000000000E+00 -0.15427060759E+04  0.15427060759E+04  0.25500000000E-02 0.  1.
    5000001    1    1    2    0    0  0.96703805143E+02  0.97965162554E+02 -0.73696864798E+03  0.76765655544E+03  0.16500000000E+03 0.  0.
   -5000001    1    1    2    0    0 -0.96703805143E+02 -0.97965162554E+02 -0.77578878667E+03  0.80499816181E+03  0.16500000000E+03 0.  0.
<mgrwt>
<rscale>  0 0.42989278E+03</rscale>
<asrwt>0</asrwt>
<pdfrwt beam="1">  1        2 0.23733933E+00 0.42989278E+03</pdfrwt>
<pdfrwt beam="2">  1       -2 0.46074845E-02 0.42989278E+03</pdfrwt>
<totfact> 0.28671489E+03</totfact>
</mgrwt>
</event>
<event>
 4    1  0.1573232E-005  0.3698808E+03  0.7818608E-02  0.1054739E+00
         -2   -1    0    0    0  501 -0.00000000000E+00  0.00000000000E+00  0.37540059486E+02  0.37540059572E+02  0.25500000000E-02 0. -1.
          2   -1    0    0  501    0  0.00000000000E+00 -0.00000000000E+00 -0.91110530510E+03  0.91110530510E+03  0.25500000000E-02 0.  1.
    5000001    1    1    2    0    0  0.48660593187E+02 -0.62183631794E+02 -0.50670581913E+03  0.53871183812E+03  0.16500000000E+03 0.  0.
   -5000001    1    1    2    0    0 -0.48660593187E+02  0.62183631794E+02 -0.36685942648E+03  0.40993352655E+03  0.16500000000E+03 0.  0.
<mgrwt>
<rscale>  0 0.36988078E+03</rscale>
<asrwt>0</asrwt>
<pdfrwt beam="1">  1        2 0.14017003E+00 0.36988078E+03</pdfrwt>
<pdfrwt beam="2">  1       -2 0.57753945E-02 0.36988078E+03</pdfrwt>
<totfact> 0.47118351E+03</totfact>
</mgrwt>
</event>
<event>
 4    1  0.1573232E-005  0.5518551E+03  0.7818608E-02  0.1001065E+00
         -2   -1    0    0    0  501 -0.00000000000E+00  0.00000000000E+00  0.70890502995E+02  0.70890503041E+02  0.25500000000E-02 0. -1.
          2   -1    0    0  501    0  0.00000000000E+00 -0.00000000000E+00 -0.10739945053E+04  0.10739945053E+04  0.25500000000E-02 0.  1.
    5000001    1    1    2    0    0  0.18931664212E+03 -0.10888611122E+03 -0.42926631089E+03  0.50910857571E+03  0.16500000000E+03 0.  0.
   -5000001    1    1    2    0    0 -0.18931664212E+03  0.10888611122E+03 -0.57383769145E+03  0.63577643266E+03  0.16500000000E+03 0.  0.
<mgrwt>
<rscale>  0 0.55185509E+03</rscale>
<asrwt>0</asrwt>
<pdfrwt beam="1">  1        2 0.16522991E+00 0.55185509E+03</pdfrwt>
<pdfrwt beam="2">  1       -2 0.10906232E-01 0.55185509E+03</pdfrwt>
<totfact> 0.13592597E+03</totfact>
</mgrwt>
</event>
<event>
 4    1  0.1573232E-005  0.4128521E+03  0.7818608E-02  0.1039418E+00
          2   -1    0    0  501    0  0.00000000000E+00  0.00000000000E+00  0.50266975605E+03  0.50266975606E+03  0.25500000000E-02 0.  1.
         -2   -1    0    0    0  501 -0.00000000000E+00 -0.00000000000E+00 -0.84770809145E+02  0.84770809184E+02  0.25500000000E-02 0. -1.
    5000001    1    1    2    0    0 -0.26380760966E+01 -0.12300695717E+03  0.18649444822E+03  0.27774601739E+03  0.16500000000E+03 0.  0.
   -5000001    1    1    2    0    0  0.26380760966E+01  0.12300695717E+03  0.23140449869E+03  0.30969454786E+03  0.16500000000E+03 0.  0.
<mgrwt>
<rscale>  0 0.41285214E+03</rscale>
<asrwt>0</asrwt>
<pdfrwt beam="1">  1        2 0.77333810E-01 0.41285214E+03</pdfrwt>
<pdfrwt beam="2">  1       -2 0.13041663E-01 0.41285214E+03</pdfrwt>
<totfact> 0.26861917E+03</totfact>
</mgrwt>
</event>
<event>
 4    1  0.1573232E-005  0.4195930E+03  0.7818608E-02  0.1037199E+00
         -2   -1    0    0    0  501 -0.00000000000E+00  0.00000000000E+00  0.11658903002E+02  0.11658903281E+02  0.25500000000E-02 0. -1.
          2   -1    0    0  501    0  0.00000000000E+00 -0.00000000000E+00 -0.37751901655E+04  0.37751901655E+04  0.25500000000E-02 0.  1.
    5000001    1    1    2    0    0  0.50418993590E+02 -0.10858417515E+03 -0.23291186913E+04  0.23380229845E+04  0.16500000000E+03 0.  0.
   -5000001    1    1    2    0    0 -0.50418993590E+02  0.10858417515E+03 -0.14344125712E+04  0.14488260842E+04  0.16500000000E+03 0.  0.
<mgrwt>
<rscale>  0 0.41959302E+03</rscale>
<asrwt>0</asrwt>
<pdfrwt beam="1">  1        2 0.58079751E+00 0.41959302E+03</pdfrwt>
<pdfrwt beam="2">  1       -2 0.17936804E-02 0.41959302E+03</pdfrwt>
<totfact> 0.57664353E+02</totfact>
</mgrwt>
</event>
<event>
 4    1  0.1573232E-005  0.6137474E+03  0.7818608E-02  0.9877288E-01
          2   -1    0    0  501    0  0.00000000000E+00  0.00000000000E+00  0.68994206871E+03  0.68994206872E+03  0.25500000000E-02 0.  1.
         -2   -1    0    0    0  501 -0.00000000000E+00 -0.00000000000E+00 -0.13649184103E+03  0.13649184106E+03  0.25500000000E-02 0. -1.
    5000001    1    1    2    0    0 -0.25603122778E+03  0.33027552069E+02  0.25326077872E+03  0.39750324631E+03  0.16500000000E+03 0.  0.
   -5000001    1    1    2    0    0  0.25603122778E+03 -0.33027552069E+02  0.30018944896E+03  0.42893066346E+03  0.16500000000E+03 0.  0.
<mgrwt>
<rscale>  0 0.61374739E+03</rscale>
<asrwt>0</asrwt>
<pdfrwt beam="1">  1        2 0.10614493E+00 0.61374739E+03</pdfrwt>
<pdfrwt beam="2">  1       -2 0.20998745E-01 0.61374739E+03</pdfrwt>
<totfact> 0.82139407E+02</totfact>
</mgrwt>
</event>
<event>
 4    1  0.1573232E-005  0.6507681E+03  0.7818608E-02  0.9805339E-01
          2   -1    0    0  501    0  0.00000000000E+00  0.00000000000E+00  0.32570409292E+03  0.32570409293E+03  0.25500000000E-02 0.  1.
         -2   -1    0    0    0  501 -0.00000000000E+00 -0.00000000000E+00 -0.32506435546E+03  0.32506435547E+03  0.25500000000E-02 0. -1.
    5000001    1    1    2    0    0 -0.25530674994E+03 -0.11602792151E+03  0.27231821909E+01  0.32538658678E+03  0.16500000000E+03 0.  0.
   -5000001    1    1    2    0    0  0.25530674994E+03  0.11602792151E+03 -0.20834447267E+01  0.32538186163E+03  0.16500000000E+03 0.  0.
<mgrwt>
<rscale>  0 0.65076813E+03</rscale>
<asrwt>0</asrwt>
<pdfrwt beam="1">  1        2 0.50108322E-01 0.65076813E+03</pdfrwt>
<pdfrwt beam="2">  1       -2 0.50009901E-01 0.65076813E+03</pdfrwt>
<totfact> 0.38242474E+02</totfact>
</mgrwt>
</event>
<event>
 4    1  0.1573232E-005  0.5023058E+03  0.7818608E-02  0.1013179E+00
          2   -1    0    0  501    0  0.00000000000E+00  0.00000000000E+00  0.26051115775E+04  0.26051115775E+04  0.25500000000E-02 0.  1.
         -2   -1    0    0    0  501 -0.00000000000E+00 -0.00000000000E+00 -0.24213076820E+02  0.24213076955E+02  0.25500000000E-02 0. -1.
    5000001    1    1    2    0    0  0.17282694078E+03  0.69135612118E+02  0.11088273844E+04  0.11363855212E+04  0.16500000000E+03 0.  0.
   -5000001    1    1    2    0    0 -0.17282694078E+03 -0.69135612118E+02  0.14720711162E+04  0.14929391332E+04  0.16500000000E+03 0.  0.
<mgrwt>
<rscale>  0 0.50230575E+03</rscale>
<asrwt>0</asrwt>
<pdfrwt beam="1">  1        2 0.40078626E+00 0.50230575E+03</pdfrwt>
<pdfrwt beam="2">  1       -2 0.37250901E-02 0.50230575E+03</pdfrwt>
<totfact> 0.10446974E+03</totfact>
</mgrwt>
</event>
<event>
 4    1  0.1573232E-005  0.6805042E+03  0.7818608E-02  0.9751166E-01
         -2   -1    0    0    0  501 -0.00000000000E+00  0.00000000000E+00  0.11859909329E+04  0.11859909329E+04  0.25500000000E-02 0. -1.
          2   -1    0    0  501    0  0.00000000000E+00 -0.00000000000E+00 -0.97615823440E+02  0.97615823474E+02  0.25500000000E-02 0.  1.
    5000001    1    1    2    0    0  0.48295012487E+02 -0.29279135032E+03  0.50254870456E+03  0.60649763686E+03  0.16500000000E+03 0.  0.
   -5000001    1    1    2    0    0 -0.48295012487E+02  0.29279135032E+03  0.58582640485E+03  0.67710911948E+03  0.16500000000E+03 0.  0.
<mgrwt>
<rscale>  0 0.68050417E+03</rscale>
<asrwt>0</asrwt>
<pdfrwt beam="1">  1        2 0.15017819E-01 0.68050417E+03</pdfrwt>
<pdfrwt beam="2">  1       -2 0.18246014E+00 0.68050417E+03</pdfrwt>
<totfact> 0.71108105E+01</totfact>
</mgrwt>
</event>
<event>
 4    1  0.1573232E-005  0.3474702E+03  0.7818608E-02  0.1063658E+00
         -2   -1    0    0    0  501 -0.00000000000E+00  0.00000000000E+00  0.47959815348E+02  0.47959815416E+02  0.25500000000E-02 0. -1.
          2   -1    0    0  501    0  0.00000000000E+00 -0.00000000000E+00 -0.62935782114E+03  0.62935782115E+03  0.25500000000E-02 0.  1.
    5000001    1    1    2    0    0  0.34832456359E+02 -0.99963956273E+01 -0.21162304206E+03  0.27078135067E+03  0.16500000000E+03 0.  0.
   -5000001    1    1    2    0    0 -0.34832456359E+02  0.99963956273E+01 -0.36977496374E+03  0.40653628589E+03  0.16500000000E+03 0.  0.
<mgrwt>
<rscale>  0 0.34747020E+03</rscale>
<asrwt>0</asrwt>
<pdfrwt beam="1">  1        2 0.96824274E-01 0.34747020E+03</pdfrwt>
<pdfrwt beam="2">  1       -2 0.73784336E-02 0.34747020E+03</pdfrwt>
<totfact> 0.51387496E+03</totfact>
</mgrwt>
</event>
<event>
 4    1  0.1573232E-005  0.5298671E+03  0.7818608E-02  0.1006264E+00
         -2   -1    0    0    0  501 -0.00000000000E+00  0.00000000000E+00  0.65191493674E+03  0.65191493674E+03  0.25500000000E-02 0. -1.
          2   -1    0    0  501    0  0.00000000000E+00 -0.00000000000E+00 -0.10766709130E+03  0.10766709133E+03  0.25500000000E-02 0.  1.
    5000001    1    1    2    0    0 -0.65568461754E+02  0.12720627624E+03  0.57169826420E+02  0.22577433190E+03  0.16500000000E+03 0.  0.
   -5000001    1    1    2    0    0  0.65568461754E+02 -0.12720627624E+03  0.48707801901E+03  0.53380769618E+03  0.16500000000E+03 0.  0.
<mgrwt>
<rscale>  0 0.52986710E+03</rscale>
<asrwt>0</asrwt>
<pdfrwt beam="1">  1        2 0.16564168E-01 0.52986710E+03</pdfrwt>
<pdfrwt beam="2">  1       -2 0.10029461E+00 0.52986710E+03</pdfrwt>
<totfact> 0.29523787E+02</totfact>
</mgrwt>
</event>
<event>
 4    1  0.1573232E-005  0.4971232E+03  0.7818608E-02  0.1014533E+00
         -2   -1    0    0    0  501 -0.00000000000E+00  0.00000000000E+00  0.12963429972E+03  0.12963429974E+03  0.25500000000E-02 0. -1.
          2   -1    0    0  501    0  0.00000000000E+00 -0.00000000000E+00 -0.47659353357E+03  0.47659353357E+03  0.25500000000E-02 0.  1.
    5000001    1    1    2    0    0  0.44063422873E+01  0.18009640949E+03 -0.11754669554E+03  0.27110211765E+03  0.16500000000E+03 0.  0.
   -5000001    1    1    2    0    0 -0.44063422873E+01 -0.18009640949E+03 -0.22941253832E+03  0.33512571566E+03  0.16500000000E+03 0.  0.
<mgrwt>
<rscale>  0 0.49712320E+03</rscale>
<asrwt>0</asrwt>
<pdfrwt beam="1">  1        2 0.73322081E-01 0.49712320E+03</pdfrwt>
<pdfrwt beam="2">  1       -2 0.19943739E-01 0.49712320E+03</pdfrwt>
<totfact> 0.13950526E+03</totfact>
</mgrwt>
</event>
<event>
 4    1  0.1573232E-005  0.6675788E+03  0.7818608E-02  0.9774342E-01
         -2   -1    0    0    0  501 -0.00000000000E+00  0.00000000000E+00  0.46070237667E+02  0.46070237738E+02  0.25500000000E-02 0. -1.
          2   -1    0    0  501    0  0.00000000000E+00 -0.00000000000E+00 -0.24183802221E+04  0.24183802221E+04  0.25500000000E-02 0.  1.
    5000001    1    1    2    0    0 -0.20419739754E+03 -0.20156651728E+03 -0.13455679621E+04  0.13856780934E+04  0.16500000000E+03 0.  0.
   -5000001    1    1    2    0    0  0.20419739754E+03  0.20156651728E+03 -0.10267420223E+04  0.10787723664E+04  0.16500000000E+03 0.  0.
<mgrwt>
<rscale>  0 0.66757876E+03</rscale>
<asrwt>0</asrwt>
<pdfrwt beam="1">  1        2 0.37205840E+00 0.66757876E+03</pdfrwt>
<pdfrwt beam="2">  1       -2 0.70877308E-02 0.66757876E+03</pdfrwt>
<totfact> 0.48281184E+02</totfact>
</mgrwt>
</event>
<event>
 4    1  0.1573232E-005  0.1072716E+04  0.7818608E-02  0.9232201E-01
         -2   -1    0    0    0  501 -0.00000000000E+00  0.00000000000E+00  0.11967307818E+04  0.11967307818E+04  0.25500000000E-02 0. -1.
          2   -1    0    0  501    0  0.00000000000E+00 -0.00000000000E+00 -0.24038805373E+03  0.24038805374E+03  0.25500000000E-02 0.  1.
    5000001    1    1    2    0    0 -0.92744899397E+02 -0.43010296965E+03  0.13174881882E+03  0.48802964267E+03  0.16500000000E+03 0.  0.
   -5000001    1    1    2    0    0  0.92744899397E+02  0.43010296965E+03  0.82459390930E+03  0.94908919292E+03  0.16500000000E+03 0.  0.
<mgrwt>
<rscale>  0 0.10727158E+04</rscale>
<asrwt>0</asrwt>
<pdfrwt beam="1">  1        2 0.36982777E-01 0.10727158E+04</pdfrwt>
<pdfrwt beam="2">  1       -2 0.18411243E+00 0.10727158E+04</pdfrwt>
<totfact> 0.23748539E+01</totfact>
</mgrwt>
</event>
<event>
 4    1  0.1573232E-005  0.4521989E+03  0.7818608E-02  0.1027068E+00
         -2   -1    0    0    0  501 -0.00000000000E+00  0.00000000000E+00  0.12680171935E+03  0.12680171937E+03  0.25500000000E-02 0. -1.
          2   -1    0    0  501    0  0.00000000000E+00 -0.00000000000E+00 -0.40315665168E+03  0.40315665168E+03  0.25500000000E-02 0.  1.
    5000001    1    1    2    0    0 -0.14721123032E+03  0.13527695104E+02 -0.19113406971E+03  0.29259421982E+03  0.16500000000E+03 0.  0.
   -5000001    1    1    2    0    0  0.14721123032E+03 -0.13527695104E+02 -0.85220862622E+02  0.23736415124E+03  0.16500000000E+03 0.  0.
<mgrwt>
<rscale>  0 0.45219888E+03</rscale>
<asrwt>0</asrwt>
<pdfrwt beam="1">  1        2 0.62024100E-01 0.45219888E+03</pdfrwt>
<pdfrwt beam="2">  1       -2 0.19507957E-01 0.45219888E+03</pdfrwt>
<totfact> 0.17479362E+03</totfact>
</mgrwt>
</event>
<event>
 4    1  0.1573232E-005  0.7892205E+03  0.7818608E-02  0.9575752E-01
         -2   -1    0    0    0  501 -0.00000000000E+00  0.00000000000E+00  0.91167123036E+03  0.91167123037E+03  0.25500000000E-02 0. -1.
          2   -1    0    0  501    0  0.00000000000E+00 -0.00000000000E+00 -0.17080415337E+03  0.17080415339E+03  0.25500000000E-02 0.  1.
    5000001    1    1    2    0    0 -0.28392345841E+03  0.21088155317E+03  0.45051138086E+03  0.59604451510E+03  0.16500000000E+03 0.  0.
   -5000001    1    1    2    0    0  0.28392345841E+03 -0.21088155317E+03  0.29035569613E+03  0.48643086865E+03  0.16500000000E+03 0.  0.
<mgrwt>
<rscale>  0 0.78922046E+03</rscale>
<asrwt>0</asrwt>
<pdfrwt beam="1">  1        2 0.26277562E-01 0.78922046E+03</pdfrwt>
<pdfrwt beam="2">  1       -2 0.14025711E+00 0.78922046E+03</pdfrwt>
<totfact> 0.74597123E+01</totfact>
</mgrwt>
</event>
<event>
 4    1  0.1573232E-005  0.4847655E+03  0.7818608E-02  0.1017834E+00
         -2   -1    0    0    0  501 -0.00000000000E+00  0.00000000000E+00  0.93002323553E+02  0.93002323588E+02  0.25500000000E-02 0. -1.
          2   -1    0    0  501    0  0.00000000000E+00 -0.00000000000E+00 -0.63169827372E+03  0.63169827372E+03  0.25500000000E-02 0.  1.
    5000001    1    1    2    0    0  0.10673419521E+03  0.14160426486E+03 -0.25593909203E+03  0.35238299488E+03  0.16500000000E+03 0.  0.
   -5000001    1    1    2    0    0 -0.10673419521E+03 -0.14160426486E+03 -0.28275685814E+03  0.37231760243E+03  0.16500000000E+03 0.  0.
<mgrwt>
<rscale>  0 0.48476554E+03</rscale>
<asrwt>0</asrwt>
<pdfrwt beam="1">  1        2 0.97184347E-01 0.48476554E+03</pdfrwt>
<pdfrwt beam="2">  1       -2 0.14308050E-01 0.48476554E+03</pdfrwt>
<totfact> 0.17656489E+03</totfact>
</mgrwt>
</event>
<event>
 4    1  0.1573232E-005  0.9312709E+03  0.7818608E-02  0.9387314E-01
          2   -1    0    0  501    0  0.00000000000E+00  0.00000000000E+00  0.77180041732E+03  0.77180041732E+03  0.25500000000E-02 0.  1.
         -2   -1    0    0    0  501 -0.00000000000E+00 -0.00000000000E+00 -0.28092282993E+03  0.28092282994E+03  0.25500000000E-02 0. -1.
    5000001    1    1    2    0    0 -0.12283103490E+03 -0.32194610744E+03  0.54633881302E+03  0.66666922672E+03  0.16500000000E+03 0.  0.
   -5000001    1    1    2    0    0  0.12283103490E+03  0.32194610744E+03 -0.55461225634E+02  0.38605402055E+03  0.16500000000E+03 0.  0.
<mgrwt>
<rscale>  0 0.93127087E+03</rscale>
<asrwt>0</asrwt>
<pdfrwt beam="1">  1        2 0.11873853E+00 0.93127087E+03</pdfrwt>
<pdfrwt beam="2">  1       -2 0.43218897E-01 0.93127087E+03</pdfrwt>
<totfact> 0.18359026E+02</totfact>
</mgrwt>
</event>
<event>
 4    1  0.1573232E-005  0.4490088E+03  0.7818608E-02  0.1028018E+00
          2   -1    0    0  501    0  0.00000000000E+00  0.00000000000E+00  0.40329803414E+03  0.40329803414E+03  0.25500000000E-02 0.  1.
         -2   -1    0    0    0  501 -0.00000000000E+00 -0.00000000000E+00 -0.12497510648E+03  0.12497510650E+03  0.25500000000E-02 0. -1.
    5000001    1    1    2    0    0 -0.29199611740E+02 -0.12673048708E+03  0.46044470833E+02  0.21507749063E+03  0.16500000000E+03 0.  0.
   -5000001    1    1    2    0    0  0.29199611740E+02  0.12673048708E+03  0.23227845683E+03  0.31319565001E+03  0.16500000000E+03 0.  0.
<mgrwt>
<rscale>  0 0.44900875E+03</rscale>
<asrwt>0</asrwt>
<pdfrwt beam="1">  1        2 0.62045850E-01 0.44900875E+03</pdfrwt>
<pdfrwt beam="2">  1       -2 0.19226940E-01 0.44900875E+03</pdfrwt>
<totfact> 0.17914418E+03</totfact>
</mgrwt>
</event>
<event>
 4    1  0.1573232E-005  0.8483464E+03  0.7818608E-02  0.9492559E-01
         -2   -1    0    0    0  501 -0.00000000000E+00  0.00000000000E+00  0.12290574947E+03  0.12290574949E+03  0.25500000000E-02 0. -1.
          2   -1    0    0  501    0  0.00000000000E+00 -0.00000000000E+00 -0.14639094077E+04  0.14639094077E+04  0.25500000000E-02 0.  1.
    5000001    1    1    2    0    0  0.13469799960E+03 -0.14308353579E+03 -0.38729458430E+02  0.25950225483E+03  0.16500000000E+03 0.  0.
   -5000001    1    1    2    0    0 -0.13469799960E+03  0.14308353579E+03 -0.13022741998E+04  0.13273129023E+04  0.16500000000E+03 0.  0.
<mgrwt>
<rscale>  0 0.84834635E+03</rscale>
<asrwt>0</asrwt>
<pdfrwt beam="1">  1        2 0.22521682E+00 0.84834635E+03</pdfrwt>
<pdfrwt beam="2">  1       -2 0.18908578E-01 0.84834635E+03</pdfrwt>
<totfact> 0.31529744E+02</totfact>
</mgrwt>
</event>
<event>
 4    1  0.1573232E-005  0.5136676E+03  0.7818608E-02  0.1010272E+00
          2   -1    0    0  501    0  0.00000000000E+00  0.00000000000E+00  0.56246565234E+03  0.56246565235E+03  0.25500000000E-02 0.  1.
         -2   -1    0    0    0  501 -0.00000000000E+00 -0.00000000000E+00 -0.11727577190E+03  0.11727577193E+03  0.25500000000E-02 0. -1.
    5000001    1    1    2    0    0  0.12540316879E+03  0.15055397405E+03  0.24721489790E+03  0.35599530838E+03  0.16500000000E+03 0.  0.
   -5000001    1    1    2    0    0 -0.12540316879E+03 -0.15055397405E+03  0.19797498255E+03  0.32374611590E+03  0.16500000000E+03 0.  0.
<mgrwt>
<rscale>  0 0.51366757E+03</rscale>
<asrwt>0</asrwt>
<pdfrwt beam="1">  1        2 0.86533178E-01 0.51366757E+03</pdfrwt>
<pdfrwt beam="2">  1       -2 0.18042426E-01 0.51366757E+03</pdfrwt>
<totfact> 0.13696122E+03</totfact>
</mgrwt>
</event>
<event>
 4    1  0.1573232E-005  0.4224628E+03  0.7818608E-02  0.1036268E+00
          2   -1    0    0  501    0  0.00000000000E+00  0.00000000000E+00  0.99358842669E+03  0.99358842669E+03  0.25500000000E-02 0.  1.
         -2   -1    0    0    0  501 -0.00000000000E+00 -0.00000000000E+00 -0.44906619835E+02  0.44906619907E+02  0.25500000000E-02 0. -1.
    5000001    1    1    2    0    0 -0.58421239162E+02  0.11757644485E+03  0.50508662192E+03  0.54733422806E+03  0.16500000000E+03 0.  0.
   -5000001    1    1    2    0    0  0.58421239162E+02 -0.11757644485E+03  0.44359518494E+03  0.49116081854E+03  0.16500000000E+03 0.  0.
<mgrwt>
<rscale>  0 0.42246277E+03</rscale>
<asrwt>0</asrwt>
<pdfrwt beam="1">  1        2 0.15285973E+00 0.42246277E+03</pdfrwt>
<pdfrwt beam="2">  1       -2 0.69087118E-02 0.42246277E+03</pdfrwt>
<totfact> 0.31630791E+03</totfact>
</mgrwt>
</event>
<event>
 4    1  0.1573232E-005  0.7567707E+03  0.7818608E-02  0.9624788E-01
         -2   -1    0    0    0  501 -0.00000000000E+00  0.00000000000E+00  0.11173005322E+04  0.11173005322E+04  0.25500000000E-02 0. -1.
          2   -1    0    0  501    0  0.00000000000E+00 -0.00000000000E+00 -0.12814409766E+03  0.12814409768E+03  0.25500000000E-02 0.  1.
    5000001    1    1    2    0    0  0.11872335919E+03 -0.19645563807E+03  0.80648945127E+02  0.29397160764E+03  0.16500000000E+03 0.  0.
   -5000001    1    1    2    0    0 -0.11872335919E+03  0.19645563807E+03  0.90850748940E+03  0.95147302224E+03  0.16500000000E+03 0.  0.
<mgrwt>
<rscale>  0 0.75677069E+03</rscale>
<asrwt>0</asrwt>
<pdfrwt beam="1">  1        2 0.19714477E-01 0.75677069E+03</pdfrwt>
<pdfrwt beam="2">  1       -2 0.17189239E+00 0.75677069E+03</pdfrwt>
<totfact> 0.60480403E+01</totfact>
</mgrwt>
</event>
<event>
 4    1  0.1573232E-005  0.5956590E+03  0.7818608E-02  0.9914453E-01
         -2   -1    0    0    0  501 -0.00000000000E+00  0.00000000000E+00  0.86379145038E+02  0.86379145076E+02  0.25500000000E-02 0. -1.
          2   -1    0    0  501    0  0.00000000000E+00 -0.00000000000E+00 -0.10268962498E+04  0.10268962498E+04  0.25500000000E-02 0.  1.
    5000001    1    1    2    0    0 -0.18052124437E+03 -0.16520185982E+03 -0.39554965353E+03  0.49352213989E+03  0.16500000000E+03 0.  0.
   -5000001    1    1    2    0    0  0.18052124437E+03  0.16520185982E+03 -0.54496745119E+03  0.61975325494E+03  0.16500000000E+03 0.  0.
<mgrwt>
<rscale>  0 0.59565903E+03</rscale>
<asrwt>0</asrwt>
<pdfrwt beam="1">  1        2 0.15798403E+00 0.59565903E+03</pdfrwt>
<pdfrwt beam="2">  1       -2 0.13289100E-01 0.59565903E+03</pdfrwt>
<totfact> 0.10486834E+03</totfact>
</mgrwt>
</event>
<event>
 4    1  0.1573232E-005  0.5734558E+03  0.7818608E-02  0.9962060E-01
         -2   -1    0    0    0  501 -0.00000000000E+00  0.00000000000E+00  0.47379611742E+02  0.47379611811E+02  0.25500000000E-02 0. -1.
          2   -1    0    0  501    0  0.00000000000E+00 -0.00000000000E+00 -0.17351953690E+04  0.17351953690E+04  0.25500000000E-02 0.  1.
    5000001    1    1    2    0    0 -0.11916294830E+03 -0.15865617410E+03 -0.12323594193E+04  0.12590894837E+04  0.16500000000E+03 0.  0.
   -5000001    1    1    2    0    0  0.11916294830E+03  0.15865617410E+03 -0.45545633804E+03  0.52348549711E+03  0.16500000000E+03 0.  0.
<mgrwt>
<rscale>  0 0.57345578E+03</rscale>
<asrwt>0</asrwt>
<pdfrwt beam="1">  1        2 0.26695309E+00 0.57345578E+03</pdfrwt>
<pdfrwt beam="2">  1       -2 0.72891724E-02 0.57345578E+03</pdfrwt>
<totfact> 0.10978269E+03</totfact>
</mgrwt>
</event>
<event>
 4    1  0.1573232E-005  0.9474705E+03  0.7818608E-02  0.9368112E-01
          2   -1    0    0  501    0  0.00000000000E+00  0.00000000000E+00  0.32966871928E+04  0.32966871928E+04  0.25500000000E-02 0.  1.
         -2   -1    0    0    0  501 -0.00000000000E+00 -0.00000000000E+00 -0.68075940974E+02  0.68075941022E+02  0.25500000000E-02 0. -1.
    5000001    1    1    2    0    0 -0.31589710269E+03 -0.31199190398E+03  0.16440509509E+04  0.17109232762E+04  0.16500000000E+03 0.  0.
   -5000001    1    1    2    0    0  0.31589710269E+03  0.31199190398E+03  0.15845603009E+04  0.16538398576E+04  0.16500000000E+03 0.  0.
<mgrwt>
<rscale>  0 0.94747049E+03</rscale>
<asrwt>0</asrwt>
<pdfrwt beam="1">  1        2 0.50718280E+00 0.94747049E+03</pdfrwt>
<pdfrwt beam="2">  1       -2 0.10473219E-01 0.94747049E+03</pdfrwt>
<totfact> 0.74184853E+01</totfact>
</mgrwt>
</event>
<event>
 4    1  0.1573232E-005  0.4808255E+03  0.7818608E-02  0.1018909E+00
          2   -1    0    0  501    0  0.00000000000E+00  0.00000000000E+00  0.34446328733E+03  0.34446328734E+03  0.25500000000E-02 0.  1.
         -2   -1    0    0    0  501 -0.00000000000E+00 -0.00000000000E+00 -0.16779228428E+03  0.16779228430E+03  0.25500000000E-02 0. -1.
    5000001    1    1    2    0    0 -0.12418033053E+03 -0.11395326966E+03  0.13793150608E+03  0.27323287234E+03  0.16500000000E+03 0.  0.
   -5000001    1    1    2    0    0  0.12418033053E+03  0.11395326966E+03  0.38739496968E+02  0.23902269930E+03  0.16500000000E+03 0.  0.
<mgrwt>
<rscale>  0 0.48082546E+03</rscale>
<asrwt>0</asrwt>
<pdfrwt beam="1">  1        2 0.52994351E-01 0.48082546E+03</pdfrwt>
<pdfrwt beam="2">  1       -2 0.25814198E-01 0.48082546E+03</pdfrwt>
<totfact> 0.12705318E+03</totfact>
</mgrwt>
</event>
<event>
 4    1  0.1573232E-005  0.5947289E+03  0.7818608E-02  0.9916403E-01
         -2   -1    0    0    0  501 -0.00000000000E+00  0.00000000000E+00  0.40488077375E+02  0.40488077455E+02  0.25500000000E-02 0. -1.
          2   -1    0    0  501    0  0.00000000000E+00 -0.00000000000E+00 -0.21839916187E+04  0.21839916187E+04  0.25500000000E-02 0.  1.
    5000001    1    1    2    0    0  0.95712933146E+02 -0.22805583038E+03 -0.10923046437E+04  0.11320445495E+04  0.16500000000E+03 0.  0.
   -5000001    1    1    2    0    0 -0.95712933146E+02  0.22805583038E+03 -0.10511988976E+04  0.10924351466E+04  0.16500000000E+03 0.  0.
<mgrwt>
<rscale>  0 0.59472892E+03</rscale>
<asrwt>0</asrwt>
<pdfrwt beam="1">  1        2 0.33599862E+00 0.59472892E+03</pdfrwt>
<pdfrwt beam="2">  1       -2 0.62289367E-02 0.59472892E+03</pdfrwt>
<totfact> 0.80236662E+02</totfact>
</mgrwt>
</event>
<event>
 4    1  0.1573232E-005  0.7671533E+03  0.7818608E-02  0.9608817E-01
          2   -1    0    0  501    0  0.00000000000E+00  0.00000000000E+00  0.50242661816E+03  0.50242661817E+03  0.25500000000E-02 0.  1.
         -2   -1    0    0    0  501 -0.00000000000E+00 -0.00000000000E+00 -0.29284083553E+03  0.29284083554E+03  0.25500000000E-02 0. -1.
    5000001    1    1    2    0    0 -0.10504099601E+03  0.32108927481E+03  0.18356511916E+03  0.41839345862E+03  0.16500000000E+03 0.  0.
   -5000001    1    1    2    0    0  0.10504099601E+03 -0.32108927481E+03  0.26020663470E+02  0.37687399508E+03  0.16500000000E+03 0.  0.
<mgrwt>
<rscale>  0 0.76715326E+03</rscale>
<asrwt>0</asrwt>
<pdfrwt beam="1">  1        2 0.77296402E-01 0.76715326E+03</pdfrwt>
<pdfrwt beam="2">  1       -2 0.45052437E-01 0.76715326E+03</pdfrwt>
<totfact> 0.28824069E+02</totfact>
</mgrwt>
</event>
<event>
 4    1  0.1573232E-005  0.1499187E+04  0.7818608E-02  0.8884994E-01
         -2   -1    0    0    0  501 -0.00000000000E+00  0.00000000000E+00  0.36472121373E+03  0.36472121374E+03  0.25500000000E-02 0. -1.
          2   -1    0    0  501    0  0.00000000000E+00 -0.00000000000E+00 -0.15406028557E+04  0.15406028557E+04  0.25500000000E-02 0.  1.
    5000001    1    1    2    0    0 -0.25190076404E+03  0.25198636684E+03  0.22356386550E+03  0.45183727818E+03  0.16500000000E+03 0.  0.
   -5000001    1    1    2    0    0  0.25190076404E+03 -0.25198636684E+03 -0.13994455074E+04  0.14534867912E+04  0.16500000000E+03 0.  0.
<mgrwt>
<rscale>  0 0.14991872E+04</rscale>
<asrwt>0</asrwt>
<pdfrwt beam="1">  1        2 0.23701582E+00 0.14991872E+04</pdfrwt>
<pdfrwt beam="2">  1       -2 0.56110957E-01 0.14991872E+04</pdfrwt>
<totfact> 0.34690791E+01</totfact>
</mgrwt>
</event>
<event>
 4    1  0.1573232E-005  0.5241787E+03  0.7818608E-02  0.1007654E+00
          2   -1    0    0  501    0  0.00000000000E+00  0.00000000000E+00  0.18436004534E+04  0.18436004534E+04  0.25500000000E-02 0.  1.
         -2   -1    0    0    0  501 -0.00000000000E+00 -0.00000000000E+00 -0.37259063699E+02  0.37259063786E+02  0.25500000000E-02 0. -1.
    5000001    1    1    2    0    0  0.19038735577E+03 -0.56456773232E+02  0.10648834129E+04  0.10957355500E+04  0.16500000000E+03 0.  0.
   -5000001    1    1    2    0    0 -0.19038735577E+03  0.56456773232E+02  0.74145797683E+03  0.78512396720E+03  0.16500000000E+03 0.  0.
<mgrwt>
<rscale>  0 0.52417870E+03</rscale>
<asrwt>0</asrwt>
<pdfrwt beam="1">  1        2 0.28363084E+00 0.52417870E+03</pdfrwt>
<pdfrwt beam="2">  1       -2 0.57321636E-02 0.52417870E+03</pdfrwt>
<totfact> 0.14029280E+03</totfact>
</mgrwt>
</event>
<event>
 4    1  0.1573232E-005  0.4106326E+03  0.7818608E-02  0.1040159E+00
          2   -1    0    0  501    0  0.00000000000E+00  0.00000000000E+00  0.10168303155E+04  0.10168303156E+04  0.25500000000E-02 0.  1.
         -2   -1    0    0    0  501 -0.00000000000E+00 -0.00000000000E+00 -0.41457048394E+02  0.41457048472E+02  0.25500000000E-02 0. -1.
    5000001    1    1    2    0    0  0.11403500215E+03 -0.28705016259E+02  0.57323393033E+03  0.60798856778E+03  0.16500000000E+03 0.  0.
   -5000001    1    1    2    0    0 -0.11403500215E+03  0.28705016259E+02  0.40213933682E+03  0.45029879624E+03  0.16500000000E+03 0.  0.
<mgrwt>
<rscale>  0 0.41063260E+03</rscale>
<asrwt>0</asrwt>
<pdfrwt beam="1">  1        2 0.15643542E+00 0.41063260E+03</pdfrwt>
<pdfrwt beam="2">  1       -2 0.63780079E-02 0.41063260E+03</pdfrwt>
<totfact> 0.34657961E+03</totfact>
</mgrwt>
</event>
<event>
 4    1  0.1573232E-005  0.5203611E+03  0.7818608E-02  0.1008597E+00
         -2   -1    0    0    0  501 -0.00000000000E+00  0.00000000000E+00  0.54326236728E+03  0.54326236729E+03  0.25500000000E-02 0. -1.
          2   -1    0    0  501    0  0.00000000000E+00 -0.00000000000E+00 -0.12460630844E+03  0.12460630847E+03  0.25500000000E-02 0.  1.
    5000001    1    1    2    0    0 -0.18512108171E+03  0.77084990512E+02  0.22990394250E+03  0.34683242846E+03  0.16500000000E+03 0.  0.
   -5000001    1    1    2    0    0  0.18512108171E+03 -0.77084990512E+02  0.18875211633E+03  0.32103624729E+03  0.16500000000E+03 0.  0.
<mgrwt>
<rscale>  0 0.52036110E+03</rscale>
<asrwt>0</asrwt>
<pdfrwt beam="1">  1        2 0.19170201E-01 0.52036110E+03</pdfrwt>
<pdfrwt beam="2">  1       -2 0.83578827E-01 0.52036110E+03</pdfrwt>
<totfact> 0.37792461E+02</totfact>
</mgrwt>
</event>
<event>
 4    1  0.1573232E-005  0.4024451E+03  0.7818608E-02  0.1042936E+00
         -2   -1    0    0    0  501 -0.00000000000E+00  0.00000000000E+00  0.97876514504E+02  0.97876514537E+02  0.25500000000E-02 0. -1.
          2   -1    0    0  501    0  0.00000000000E+00 -0.00000000000E+00 -0.41368978492E+03  0.41368978493E+03  0.25500000000E-02 0.  1.
    5000001    1    1    2    0    0 -0.85001935192E+02 -0.77717554032E+02 -0.15842618004E+03  0.25610388851E+03  0.16500000000E+03 0.  0.
   -5000001    1    1    2    0    0  0.85001935192E+02  0.77717554032E+02 -0.15738709038E+03  0.25546241095E+03  0.16500000000E+03 0.  0.
<mgrwt>
<rscale>  0 0.40244510E+03</rscale>
<asrwt>0</asrwt>
<pdfrwt beam="1">  1        2 0.63644581E-01 0.40244510E+03</pdfrwt>
<pdfrwt beam="2">  1       -2 0.15057926E-01 0.40244510E+03</pdfrwt>
<totfact> 0.26326100E+03</totfact>
</mgrwt>
</event>
<event>
 4    1  0.1573232E-005  0.4626512E+03  0.7818608E-02  0.1024015E+00
          2   -1    0    0  501    0  0.00000000000E+00  0.00000000000E+00  0.50513015458E+02  0.50513015523E+02  0.25500000000E-02 0.  1.
         -2   -1    0    0    0  501 -0.00000000000E+00 -0.00000000000E+00 -0.10593613381E+04  0.10593613381E+04  0.25500000000E-02 0. -1.
    5000001    1    1    2    0    0  0.12568427615E+03 -0.81145847113E+02 -0.65434088723E+03  0.69120777085E+03  0.16500000000E+03 0.  0.
   -5000001    1    1    2    0    0 -0.12568427615E+03  0.81145847113E+02 -0.35450743541E+03  0.41866658278E+03  0.16500000000E+03 0.  0.
<mgrwt>
<rscale>  0 0.46265121E+03</rscale>
<asrwt>0</asrwt>
<pdfrwt beam="1">  1        2 0.77712339E-02 0.46265121E+03</pdfrwt>
<pdfrwt beam="2">  1       -2 0.16297865E+00 0.46265121E+03</pdfrwt>
<totfact> 0.22473085E+02</totfact>
</mgrwt>
</event>
<event>
 4    1  0.1573232E-005  0.4545041E+03  0.7818608E-02  0.1026387E+00
          2   -1    0    0  501    0  0.00000000000E+00  0.00000000000E+00  0.12347478892E+04  0.12347478892E+04  0.25500000000E-02 0.  1.
         -2   -1    0    0    0  501 -0.00000000000E+00 -0.00000000000E+00 -0.41825139972E+02  0.41825140050E+02  0.25500000000E-02 0. -1.
    5000001    1    1    2    0    0 -0.12933416427E+03 -0.79142627566E+02  0.49033718010E+03  0.53911634341E+03  0.16500000000E+03 0.  0.
   -5000001    1    1    2    0    0  0.12933416427E+03  0.79142627566E+02  0.70258556912E+03  0.73745668583E+03  0.16500000000E+03 0.  0.
<mgrwt>
<rscale>  0 0.45450414E+03</rscale>
<asrwt>0</asrwt>
<pdfrwt beam="1">  1        2 0.18996124E+00 0.45450414E+03</pdfrwt>
<pdfrwt beam="2">  1       -2 0.64346361E-02 0.45450414E+03</pdfrwt>
<totfact> 0.25364528E+03</totfact>
</mgrwt>
</event>
<event>
 4    1  0.1573232E-005  0.4313793E+03  0.7818608E-02  0.1033425E+00
          2   -1    0    0  501    0  0.00000000000E+00  0.00000000000E+00  0.26799119560E+04  0.26799119560E+04  0.25500000000E-02 0.  1.
         -2   -1    0    0    0  501 -0.00000000000E+00 -0.00000000000E+00 -0.17359537035E+02  0.17359537223E+02  0.25500000000E-02 0. -1.
    5000001    1    1    2    0    0 -0.12775722920E+03  0.37228657756E+02  0.15805333330E+04  0.15946844513E+04  0.16500000000E+03 0.  0.
   -5000001    1    1    2    0    0  0.12775722920E+03 -0.37228657756E+02  0.10820190860E+04  0.11025870419E+04  0.16500000000E+03 0.  0.
<mgrwt>
<rscale>  0 0.43137933E+03</rscale>
<asrwt>0</asrwt>
<pdfrwt beam="1">  1        2 0.41229412E+00 0.43137933E+03</pdfrwt>
<pdfrwt beam="2">  1       -2 0.26706982E-02 0.43137933E+03</pdfrwt>
<totfact> 0.15777032E+03</totfact>
</mgrwt>
</event>
<event>
 4    1  0.1573232E-005  0.7585158E+03  0.7818608E-02  0.9622084E-01
         -2   -1    0    0    0  501 -0.00000000000E+00  0.00000000000E+00  0.12824652821E+03  0.12824652823E+03  0.25500000000E-02 0. -1.
          2   -1    0    0  501    0  0.00000000000E+00 -0.00000000000E+00 -0.11215629059E+04  0.11215629059E+04  0.25500000000E-02 0.  1.
    5000001    1    1    2    0    0  0.23182586637E+03  0.24576435843E+03 -0.57851768320E+03  0.68996453675E+03  0.16500000000E+03 0.  0.
   -5000001    1    1    2    0    0 -0.23182586637E+03 -0.24576435843E+03 -0.41479869452E+03  0.55984489742E+03  0.16500000000E+03 0.  0.
<mgrwt>
<rscale>  0 0.75851578E+03</rscale>
<asrwt>0</asrwt>
<pdfrwt beam="1">  1        2 0.17254813E+00 0.75851578E+03</pdfrwt>
<pdfrwt beam="2">  1       -2 0.19730236E-01 0.75851578E+03</pdfrwt>
<totfact> 0.46488407E+02</totfact>
</mgrwt>
</event>
<event>
 4    1  0.1573232E-005  0.4990339E+03  0.7818608E-02  0.1014031E+00
          2   -1    0    0  501    0  0.00000000000E+00  0.00000000000E+00  0.42775850567E+03  0.42775850568E+03  0.25500000000E-02 0.  1.
         -2   -1    0    0    0  501 -0.00000000000E+00 -0.00000000000E+00 -0.14554641896E+03  0.14554641898E+03  0.25500000000E-02 0. -1.
    5000001    1    1    2    0    0  0.97935863086E+02 -0.15816393758E+03  0.11738183035E+03  0.27497410519E+03  0.16500000000E+03 0.  0.
   -5000001    1    1    2    0    0 -0.97935863086E+02  0.15816393758E+03  0.16483025637E+03  0.29833081947E+03  0.16500000000E+03 0.  0.
<mgrwt>
<rscale>  0 0.49903394E+03</rscale>
<asrwt>0</asrwt>
<pdfrwt beam="1">  1        2 0.65809000E-01 0.49903394E+03</pdfrwt>
<pdfrwt beam="2">  1       -2 0.22391757E-01 0.49903394E+03</pdfrwt>
<totfact> 0.12871414E+03</totfact>
</mgrwt>
</event>
<event>
 4    1  0.1573232E-005  0.4886154E+03  0.7818608E-02  0.1016794E+00
          2   -1    0    0  501    0  0.00000000000E+00  0.00000000000E+00  0.23178779274E+03  0.23178779276E+03  0.25500000000E-02 0.  1.
         -2   -1    0    0    0  501 -0.00000000000E+00 -0.00000000000E+00 -0.25750386276E+03  0.25750386278E+03  0.25500000000E-02 0. -1.
    5000001    1    1    2    0    0 -0.10326132633E+03  0.14762449447E+03 -0.15176211192E+02  0.24476766590E+03  0.16500000000E+03 0.  0.
   -5000001    1    1    2    0    0  0.10326132633E+03 -0.14762449447E+03 -0.10539858828E+02  0.24452398963E+03  0.16500000000E+03 0.  0.
<mgrwt>
<rscale>  0 0.48861540E+03</rscale>
<asrwt>0</asrwt>
<pdfrwt beam="1">  1        2 0.35659660E-01 0.48861540E+03</pdfrwt>
<pdfrwt beam="2">  1       -2 0.39615979E-01 0.48861540E+03</pdfrwt>
<totfact> 0.88519875E+02</totfact>
</mgrwt>
</event>
<event>
 4    1  0.1573232E-005  0.3584152E+03  0.7818608E-02  0.1059213E+00
         -2   -1    0    0    0  501 -0.00000000000E+00  0.00000000000E+00  0.22292215142E+02  0.22292215287E+02  0.25500000000E-02 0. -1.
          2   -1    0    0  501    0  0.00000000000E+00 -0.00000000000E+00 -0.14406540015E+04  0.14406540015E+04  0.25500000000E-02 0.  1.
    5000001    1    1    2    0    0 -0.19087870148E+02 -0.64508194861E+02 -0.63123041996E+03  0.65589823683E+03  0.16500000000E+03 0.  0.
   -5000001    1    1    2    0    0  0.19087870148E+02  0.64508194861E+02 -0.78713136636E+03  0.80704797992E+03  0.16500000000E+03 0.  0.
<mgrwt>
<rscale>  0 0.35841523E+03</rscale>
<asrwt>0</asrwt>
<pdfrwt beam="1">  1        2 0.22163900E+00 0.35841523E+03</pdfrwt>
<pdfrwt beam="2">  1       -2 0.34295727E-02 0.35841523E+03</pdfrwt>
<totfact> 0.51052741E+03</totfact>
</mgrwt>
</event>
<event>
 4    1  0.1573232E-005  0.4289718E+03  0.7818608E-02  0.1034185E+00
          2   -1    0    0  501    0  0.00000000000E+00  0.00000000000E+00  0.32721193152E+02  0.32721193251E+02  0.25500000000E-02 0.  1.
         -2   -1    0    0    0  501 -0.00000000000E+00 -0.00000000000E+00 -0.14059453700E+04  0.14059453700E+04  0.25500000000E-02 0. -1.
    5000001    1    1    2    0    0  0.13593335701E+03 -0.14238372611E+02 -0.65330990924E+03  0.68754595941E+03  0.16500000000E+03 0.  0.
   -5000001    1    1    2    0    0 -0.13593335701E+03  0.14238372611E+02 -0.71991426764E+03  0.75112060387E+03  0.16500000000E+03 0.  0.
<mgrwt>
<rscale>  0 0.42897184E+03</rscale>
<asrwt>0</asrwt>
<pdfrwt beam="1">  1        2 0.50340308E-02 0.42897184E+03</pdfrwt>
<pdfrwt beam="2">  1       -2 0.21629924E+00 0.42897184E+03</pdfrwt>
<totfact> 0.17692678E+02</totfact>
</mgrwt>
</event>
<event>
 4    1  0.1573232E-005  0.1154156E+04  0.7818608E-02  0.9153958E-01
          2   -1    0    0  501    0  0.00000000000E+00  0.00000000000E+00  0.13139182334E+04  0.13139182334E+04  0.25500000000E-02 0.  1.
         -2   -1    0    0    0  501 -0.00000000000E+00 -0.00000000000E+00 -0.25345495491E+03  0.25345495492E+03  0.25500000000E-02 0. -1.
    5000001    1    1    2    0    0  0.29667566585E+03  0.15568930486E+03  0.11276678116E+04  0.11879037435E+04  0.16500000000E+03 0.  0.
   -5000001    1    1    2    0    0 -0.29667566585E+03 -0.15568930486E+03 -0.67204533085E+02  0.37946944491E+03  0.16500000000E+03 0.  0.
<mgrwt>
<rscale>  0 0.11541561E+04</rscale>
<asrwt>0</asrwt>
<pdfrwt beam="1">  1        2 0.20214127E+00 0.11541561E+04</pdfrwt>
<pdfrwt beam="2">  1       -2 0.38993070E-01 0.11541561E+04</pdfrwt>
<totfact> 0.99747518E+01</totfact>
</mgrwt>
</event>
<event>
 4    1  0.1573232E-005  0.3767001E+03  0.7818608E-02  0.1052160E+00
         -2   -1    0    0    0  501 -0.00000000000E+00  0.00000000000E+00  0.80347889133E+02  0.80347889173E+02  0.25500000000E-02 0. -1.
          2   -1    0    0  501    0  0.00000000000E+00 -0.00000000000E+00 -0.44152672584E+03  0.44152672585E+03  0.25500000000E-02 0.  1.
    5000001    1    1    2    0    0 -0.23472715352E+02  0.87221521677E+02 -0.16728840894E+03  0.25173194866E+03  0.16500000000E+03 0.  0.
   -5000001    1    1    2    0    0  0.23472715352E+02 -0.87221521677E+02 -0.19389042777E+03  0.27014266636E+03  0.16500000000E+03 0.  0.
<mgrwt>
<rscale>  0 0.37670010E+03</rscale>
<asrwt>0</asrwt>
<pdfrwt beam="1">  1        2 0.67927187E-01 0.37670010E+03</pdfrwt>
<pdfrwt beam="2">  1       -2 0.12361214E-01 0.37670010E+03</pdfrwt>
<totfact> 0.33886745E+03</totfact>
</mgrwt>
</event>
<event>
 4    1  0.1573232E-005  0.4896998E+03  0.7818608E-02  0.1016503E+00
          2   -1    0    0  501    0  0.00000000000E+00  0.00000000000E+00  0.14375424125E+04  0.14375424125E+04  0.25500000000E-02 0.  1.
         -2   -1    0    0    0  501 -0.00000000000E+00 -0.00000000000E+00 -0.41704142126E+02  0.41704142204E+02  0.25500000000E-02 0. -1.
    5000001    1    1    2    0    0  0.62024616473E+02  0.13033354507E+03  0.10273382622E+04  0.10504678915E+04  0.16500000000E+03 0.  0.
   -5000001    1    1    2    0    0 -0.62024616473E+02 -0.13033354507E+03  0.36850000813E+03  0.42877866319E+03  0.16500000000E+03 0.  0.
<mgrwt>
<rscale>  0 0.48969980E+03</rscale>
<asrwt>0</asrwt>
<pdfrwt beam="1">  1        2 0.22116032E+00 0.48969980E+03</pdfrwt>
<pdfrwt beam="2">  1       -2 0.64160233E-02 0.48969980E+03</pdfrwt>
<totfact> 0.19576189E+03</totfact>
</mgrwt>
</event>
<event>
 4    1  0.1573232E-005  0.3584645E+03  0.7818608E-02  0.1059193E+00
         -2   -1    0    0    0  501 -0.00000000000E+00  0.00000000000E+00  0.33515183012E+02  0.33515183109E+02  0.25500000000E-02 0. -1.
          2   -1    0    0  501    0  0.00000000000E+00 -0.00000000000E+00 -0.95849703346E+03  0.95849703347E+03  0.25500000000E-02 0.  1.
    5000001    1    1    2    0    0  0.21588957310E+02  0.60717603485E+02 -0.53810170847E+03  0.56650786324E+03  0.16500000000E+03 0.  0.
   -5000001    1    1    2    0    0 -0.21588957310E+02 -0.60717603485E+02 -0.38688014198E+03  0.42550435334E+03  0.16500000000E+03 0.  0.
<mgrwt>
<rscale>  0 0.35846452E+03</rscale>
<asrwt>0</asrwt>
<pdfrwt beam="1">  1        2 0.14746106E+00 0.35846452E+03</pdfrwt>
<pdfrwt beam="2">  1       -2 0.51561827E-02 0.35846452E+03</pdfrwt>
<totfact> 0.52287174E+03</totfact>
</mgrwt>
</event>
<event>
 4    1  0.1573232E-005  0.5017603E+03  0.7818608E-02  0.1013320E+00
          2   -1    0    0  501    0  0.00000000000E+00  0.00000000000E+00  0.20543269938E+04  0.20543269938E+04  0.25500000000E-02 0.  1.
         -2   -1    0    0    0  501 -0.00000000000E+00 -0.00000000000E+00 -0.30638189394E+02  0.30638189501E+02  0.25500000000E-02 0. -1.
    5000001    1    1    2    0    0  0.80543059274E+02  0.16935115909E+03  0.91449499207E+03  0.94799424576E+03  0.16500000000E+03 0.  0.
   -5000001    1    1    2    0    0 -0.80543059274E+02 -0.16935115909E+03  0.11091938123E+04  0.11369709375E+04  0.16500000000E+03 0.  0.
<mgrwt>
<rscale>  0 0.50176034E+03</rscale>
<asrwt>0</asrwt>
<pdfrwt beam="1">  1        2 0.31605042E+00 0.50176034E+03</pdfrwt>
<pdfrwt beam="2">  1       -2 0.47135659E-02 0.50176034E+03</pdfrwt>
<totfact> 0.14647602E+03</totfact>
</mgrwt>
</event>
<event>
 4    1  0.1573232E-005  0.4850673E+03  0.7818608E-02  0.1017752E+00
          2   -1    0    0  501    0  0.00000000000E+00  0.00000000000E+00  0.18798221156E+03  0.18798221158E+03  0.25500000000E-02 0.  1.
         -2   -1    0    0    0  501 -0.00000000000E+00 -0.00000000000E+00 -0.31291558706E+03  0.31291558707E+03  0.25500000000E-02 0. -1.
    5000001    1    1    2    0    0 -0.35812078781E+02 -0.17210626948E+03 -0.35253432306E+02  0.24366139922E+03  0.16500000000E+03 0.  0.
   -5000001    1    1    2    0    0  0.35812078781E+02  0.17210626948E+03 -0.89679943200E+02  0.25723639943E+03  0.16500000000E+03 0.  0.
<mgrwt>
<rscale>  0 0.48506727E+03</rscale>
<asrwt>0</asrwt>
<pdfrwt beam="1">  1        2 0.28920340E-01 0.48506727E+03</pdfrwt>
<pdfrwt beam="2">  1       -2 0.48140860E-01 0.48506727E+03</pdfrwt>
<totfact> 0.76178053E+02</totfact>
</mgrwt>
</event>
<event>
 4    1  0.1573232E-005  0.5091087E+03  0.7818608E-02  0.1011428E+00
         -2   -1    0    0    0  501 -0.00000000000E+00  0.00000000000E+00  0.10981283982E+03  0.10981283985E+03  0.25500000000E-02 0. -1.
          2   -1    0    0  501    0  0.00000000000E+00 -0.00000000000E+00 -0.59007599550E+03  0.59007599551E+03  0.25500000000E-02 0.  1.
    5000001    1    1    2    0    0 -0.72643785466E+02  0.17739916034E+03 -0.27962590806E+03  0.37704539530E+03  0.16500000000E+03 0.  0.
   -5000001    1    1    2    0    0  0.72643785466E+02 -0.17739916034E+03 -0.20063724762E+03  0.32284344006E+03  0.16500000000E+03 0.  0.
<mgrwt>
<rscale>  0 0.50910871E+03</rscale>
<asrwt>0</asrwt>
<pdfrwt beam="1">  1        2 0.90780920E-01 0.50910871E+03</pdfrwt>
<pdfrwt beam="2">  1       -2 0.16894283E-01 0.50910871E+03</pdfrwt>
<totfact> 0.14480875E+03</totfact>
</mgrwt>
</event>
<event>
 4    1  0.1573232E-005  0.3880456E+03  0.7818608E-02  0.1047999E+00
          2   -1    0    0  501    0  0.00000000000E+00  0.00000000000E+00  0.43259882852E+03  0.43259882853E+03  0.25500000000E-02 0.  1.
         -2   -1    0    0    0  501 -0.00000000000E+00 -0.00000000000E+00 -0.87020236251E+02  0.87020236288E+02  0.25500000000E-02 0. -1.
    5000001    1    1    2    0    0 -0.55969678047E+02  0.84313522596E+02  0.15489997756E+03  0.24791203682E+03  0.16500000000E+03 0.  0.
   -5000001    1    1    2    0    0  0.55969678047E+02 -0.84313522596E+02  0.19067861471E+03  0.27170702799E+03  0.16500000000E+03 0.  0.
<mgrwt>
<rscale>  0 0.38804563E+03</rscale>
<asrwt>0</asrwt>
<pdfrwt beam="1">  1        2 0.66553666E-01 0.38804563E+03</pdfrwt>
<pdfrwt beam="2">  1       -2 0.13387729E-01 0.38804563E+03</pdfrwt>
<totfact> 0.30428997E+03</totfact>
</mgrwt>
</event>
<event>
 4    1  0.1573232E-005  0.4880539E+03  0.7818608E-02  0.1016945E+00
          2   -1    0    0  501    0  0.00000000000E+00  0.00000000000E+00  0.52198715485E+03  0.52198715485E+03  0.25500000000E-02 0.  1.
         -2   -1    0    0    0  501 -0.00000000000E+00 -0.00000000000E+00 -0.11408165044E+03  0.11408165047E+03  0.25500000000E-02 0. -1.
    5000001    1    1    2    0    0 -0.12615942707E+03 -0.84089147173E+02  0.32988567625E+03  0.39879411368E+03  0.16500000000E+03 0.  0.
   -5000001    1    1    2    0    0  0.12615942707E+03  0.84089147173E+02  0.78019828159E+02  0.23727469165E+03  0.16500000000E+03 0.  0.
<mgrwt>
<rscale>  0 0.48805392E+03</rscale>
<asrwt>0</asrwt>
<pdfrwt beam="1">  1        2 0.80305718E-01 0.48805392E+03</pdfrwt>
<pdfrwt beam="2">  1       -2 0.17551023E-01 0.48805392E+03</pdfrwt>
<totfact> 0.15661537E+03</totfact>
</mgrwt>
</event>
<event>
 4    1  0.1573232E-005  0.4070083E+03  0.7818608E-02  0.1041380E+00
         -2   -1    0    0    0  501 -0.00000000000E+00  0.00000000000E+00  0.15719809786E+03  0.15719809788E+03  0.25500000000E-02 0. -1.
          2   -1    0    0  501    0  0.00000000000E+00 -0.00000000000E+00 -0.26345060873E+03  0.26345060874E+03  0.25500000000E-02 0.  1.
    5000001    1    1    2    0    0  0.31538227389E+01 -0.88561552382E+02 -0.13539187949E+03  0.23110399432E+03  0.16500000000E+03 0.  0.
   -5000001    1    1    2    0    0 -0.31538227389E+01  0.88561552382E+02  0.29139368627E+02  0.18954471230E+03  0.16500000000E+03 0.  0.
<mgrwt>
<rscale>  0 0.40700828E+03</rscale>
<asrwt>0</asrwt>
<pdfrwt beam="1">  1        2 0.40530863E-01 0.40700828E+03</pdfrwt>
<pdfrwt beam="2">  1       -2 0.24184323E-01 0.40700828E+03</pdfrwt>
<totfact> 0.19121307E+03</totfact>
</mgrwt>
</event>
<event>
 4    1  0.1573232E-005  0.4163502E+03  0.7818608E-02  0.1038261E+00
          2   -1    0    0  501    0  0.00000000000E+00  0.00000000000E+00  0.28684751445E+03  0.28684751446E+03  0.25500000000E-02 0.  1.
         -2   -1    0    0    0  501 -0.00000000000E+00 -0.00000000000E+00 -0.15107980922E+03  0.15107980925E+03  0.25500000000E-02 0. -1.
    5000001    1    1    2    0    0  0.31704903106E+02 -0.11458377634E+03  0.21113424654E+02  0.20446373611E+03  0.16500000000E+03 0.  0.
   -5000001    1    1    2    0    0 -0.31704903106E+02  0.11458377634E+03  0.11465428058E+03  0.23346358760E+03  0.16500000000E+03 0.  0.
<mgrwt>
<rscale>  0 0.41635018E+03</rscale>
<asrwt>0</asrwt>
<pdfrwt beam="1">  1        2 0.44130387E-01 0.41635018E+03</pdfrwt>
<pdfrwt beam="2">  1       -2 0.23243047E-01 0.41635018E+03</pdfrwt>
<totfact> 0.18696492E+03</totfact>
</mgrwt>
</event>
<event>
 4    1  0.1573232E-005  0.8240619E+03  0.7818608E-02  0.9525827E-01
         -2   -1    0    0    0  501 -0.00000000000E+00  0.00000000000E+00  0.31515945524E+03  0.31515945525E+03  0.25500000000E-02 0. -1.
          2   -1    0    0  501    0  0.00000000000E+00 -0.00000000000E+00 -0.53867817247E+03  0.53867817248E+03  0.25500000000E-02 0.  1.
    5000001    1    1    2    0    0 -0.33088613604E+03 -0.16351127728E+03 -0.19414948909E+03  0.44848700866E+03  0.16500000000E+03 0.  0.
   -5000001    1    1    2    0    0  0.33088613604E+03  0.16351127728E+03 -0.29369228132E+02  0.40535061907E+03  0.16500000000E+03 0.  0.
<mgrwt>
<rscale>  0 0.82406194E+03</rscale>
<asrwt>0</asrwt>
<pdfrwt beam="1">  1        2 0.82873565E-01 0.82406194E+03</pdfrwt>
<pdfrwt beam="2">  1       -2 0.48486070E-01 0.82406194E+03</pdfrwt>
<totfact> 0.22872975E+02</totfact>
</mgrwt>
</event>
<event>
 4    1  0.1573232E-005  0.3998650E+03  0.7818608E-02  0.1043826E+00
          2   -1    0    0  501    0  0.00000000000E+00  0.00000000000E+00  0.25808353368E+04  0.25808353368E+04  0.25500000000E-02 0. -1.
         -2   -1    0    0    0  501 -0.00000000000E+00 -0.00000000000E+00 -0.15488400604E+02  0.15488400814E+02  0.25500000000E-02 0.  1.
    5000001    1    1    2    0    0  0.97729024341E+02  0.27175892905E+02  0.96072798967E+03  0.98005752968E+03  0.16500000000E+03 0.  0.
   -5000001    1    1    2    0    0 -0.97729024341E+02 -0.27175892905E+02  0.16046189465E+04  0.16162662079E+04  0.16500000000E+03 0.  0.
<mgrwt>
<rscale>  0 0.39986504E+03</rscale>
<asrwt>0</asrwt>
<pdfrwt beam="1">  1        2 0.39705123E+00 0.39986504E+03</pdfrwt>
<pdfrwt beam="2">  1       -2 0.23828330E-02 0.39986504E+03</pdfrwt>
<totfact> 0.21352738E+03</totfact>
</mgrwt>
</event>
<event>
 4    1  0.1573232E-005  0.5714041E+03  0.7818608E-02  0.9966576E-01
          2   -1    0    0  501    0  0.00000000000E+00  0.00000000000E+00  0.28362500194E+03  0.28362500195E+03  0.25500000000E-02 0.  1.
         -2   -1    0    0    0  501 -0.00000000000E+00 -0.00000000000E+00 -0.28779426360E+03  0.28779426361E+03  0.25500000000E-02 0. -1.
    5000001    1    1    2    0    0 -0.11612330212E+03 -0.18292781341E+03  0.84250988580E+02  0.28507969989E+03  0.16500000000E+03 0.  0.
   -5000001    1    1    2    0    0  0.11612330212E+03  0.18292781341E+03 -0.88420250238E+02  0.28633956567E+03  0.16500000000E+03 0.  0.
<mgrwt>
<rscale>  0 0.57140406E+03</rscale>
<asrwt>0</asrwt>
<pdfrwt beam="1">  1        2 0.43634616E-01 0.57140406E+03</pdfrwt>
<pdfrwt beam="2">  1       -2 0.44276041E-01 0.57140406E+03</pdfrwt>
<totfact> 0.56966859E+02</totfact>
</mgrwt>
</event>
<event>
 4    1  0.1573232E-005  0.5323283E+03  0.7818608E-02  0.1005669E+00
          2   -1    0    0  501    0  0.00000000000E+00  0.00000000000E+00  0.20767224204E+04  0.20767224204E+04  0.25500000000E-02 0.  1.
         -2   -1    0    0    0  501 -0.00000000000E+00 -0.00000000000E+00 -0.34113063112E+02  0.34113063207E+02  0.25500000000E-02 0. -1.
    5000001    1    1    2    0    0  0.14215187264E+03  0.66205669421E+02  0.47432451476E+03  0.52611699351E+03  0.16500000000E+03 0.  0.
   -5000001    1    1    2    0    0 -0.14215187264E+03 -0.66205669421E+02  0.15682848425E+04  0.15847184901E+04  0.16500000000E+03 0.  0.
<mgrwt>
<rscale>  0 0.53232833E+03</rscale>
<asrwt>0</asrwt>
<pdfrwt beam="1">  1        2 0.31949582E+00 0.53232833E+03</pdfrwt>
<pdfrwt beam="2">  1       -2 0.52481625E-02 0.53232833E+03</pdfrwt>
<totfact> 0.12041940E+03</totfact>
</mgrwt>
</event>
<event>
 4    1  0.1573232E-005  0.4854858E+03  0.7818608E-02  0.1017638E+00
          2   -1    0    0  501    0  0.00000000000E+00  0.00000000000E+00  0.16031679942E+04  0.16031679942E+04  0.25500000000E-02 0.  1.
         -2   -1    0    0    0  501 -0.00000000000E+00 -0.00000000000E+00 -0.36754804019E+02  0.36754804108E+02  0.25500000000E-02 0. -1.
    5000001    1    1    2    0    0 -0.10767869853E+03  0.14170321559E+03  0.79996795454E+03  0.83597142996E+03  0.16500000000E+03 0.  0.
   -5000001    1    1    2    0    0  0.10767869853E+03 -0.14170321559E+03  0.76644523562E+03  0.80395136832E+03  0.16500000000E+03 0.  0.
<mgrwt>
<rscale>  0 0.48548584E+03</rscale>
<asrwt>0</asrwt>
<pdfrwt beam="1">  1        2 0.24664120E+00 0.48548584E+03</pdfrwt>
<pdfrwt beam="2">  1       -2 0.56545858E-02 0.48548584E+03</pdfrwt>
<totfact> 0.19351086E+03</totfact>
</mgrwt>
</event>
<event>
 4    1  0.1573232E-005  0.5449059E+03  0.7818608E-02  0.1002680E+00
         -2   -1    0    0    0  501 -0.00000000000E+00  0.00000000000E+00  0.98397812320E+03  0.98397812320E+03  0.25500000000E-02 0. -1.
          2   -1    0    0  501    0  0.00000000000E+00 -0.00000000000E+00 -0.75439290222E+02  0.75439290265E+02  0.25500000000E-02 0.  1.
    5000001    1    1    2    0    0 -0.31952976213E+02 -0.16487978423E+03  0.18769642421E+03  0.30110012221E+03  0.16500000000E+03 0.  0.
   -5000001    1    1    2    0    0  0.31952976213E+02  0.16487978423E+03  0.72084240877E+03  0.75831729125E+03  0.16500000000E+03 0.  0.
<mgrwt>
<rscale>  0 0.54490590E+03</rscale>
<asrwt>0</asrwt>
<pdfrwt beam="1">  1        2 0.11606045E-01 0.54490590E+03</pdfrwt>
<pdfrwt beam="2">  1       -2 0.15138124E+00 0.54490590E+03</pdfrwt>
<totfact> 0.16386767E+02</totfact>
</mgrwt>
</event>
<event>
 4    1  0.1573232E-005  0.5235222E+03  0.7818608E-02  0.1007815E+00
         -2   -1    0    0    0  501 -0.00000000000E+00  0.00000000000E+00  0.58586259924E+02  0.58586259979E+02  0.25500000000E-02 0. -1.
          2   -1    0    0  501    0  0.00000000000E+00 -0.00000000000E+00 -0.11695381779E+04  0.11695381779E+04  0.25500000000E-02 0.  1.
    5000001    1    1    2    0    0 -0.23123740159E+02 -0.16468566606E+03 -0.82943101254E+03  0.86187985272E+03  0.16500000000E+03 0.  0.
   -5000001    1    1    2    0    0  0.23123740159E+02  0.16468566606E+03 -0.28152090544E+03  0.36624458517E+03  0.16500000000E+03 0.  0.
<mgrwt>
<rscale>  0 0.52352218E+03</rscale>
<asrwt>0</asrwt>
<pdfrwt beam="1">  1        2 0.17992893E+00 0.52352218E+03</pdfrwt>
<pdfrwt beam="2">  1       -2 0.90132716E-02 0.52352218E+03</pdfrwt>
<totfact> 0.16222740E+03</totfact>
</mgrwt>
</event>
<event>
 4    1  0.1573232E-005  0.3954711E+03  0.7818608E-02  0.1045359E+00
          2   -1    0    0  501    0  0.00000000000E+00  0.00000000000E+00  0.96636189608E+03  0.96636189609E+03  0.25500000000E-02 0.  1.
         -2   -1    0    0    0  501 -0.00000000000E+00 -0.00000000000E+00 -0.40460349724E+02  0.40460349804E+02  0.25500000000E-02 0. -1.
    5000001    1    1    2    0    0 -0.53338462166E+02  0.83154017216E+02  0.34587461842E+03  0.39574465732E+03  0.16500000000E+03 0.  0.
   -5000001    1    1    2    0    0  0.53338462166E+02 -0.83154017216E+02  0.58002692794E+03  0.61107758857E+03  0.16500000000E+03 0.  0.
<mgrwt>
<rscale>  0 0.39547106E+03</rscale>
<asrwt>0</asrwt>
<pdfrwt beam="1">  1        2 0.14867106E+00 0.39547106E+03</pdfrwt>
<pdfrwt beam="2">  1       -2 0.62246691E-02 0.39547106E+03</pdfrwt>
<totfact> 0.38698541E+03</totfact>
</mgrwt>
</event>
<event>
 4    1  0.1573232E-005  0.5534595E+03  0.7818608E-02  0.1000696E+00
          2   -1    0    0  501    0  0.00000000000E+00  0.00000000000E+00  0.79114492948E+03  0.79114492948E+03  0.25500000000E-02 0.  1.
         -2   -1    0    0    0  501 -0.00000000000E+00 -0.00000000000E+00 -0.96795606509E+02  0.96795606542E+02  0.25500000000E-02 0. -1.
    5000001    1    1    2    0    0  0.83387697459E+02  0.11577534631E+03  0.73978915148E+02  0.23033740206E+03  0.16500000000E+03 0.  0.
   -5000001    1    1    2    0    0 -0.83387697459E+02 -0.11577534631E+03  0.62037040782E+03  0.65760313396E+03  0.16500000000E+03 0.  0.
<mgrwt>
<rscale>  0 0.55345950E+03</rscale>
<asrwt>0</asrwt>
<pdfrwt beam="1">  1        2 0.12171460E+00 0.55345950E+03</pdfrwt>
<pdfrwt beam="2">  1       -2 0.14891632E-01 0.55345950E+03</pdfrwt>
<totfact> 0.12453194E+03</totfact>
</mgrwt>
</event>
<event>
 4    1  0.1573232E-005  0.4583997E+03  0.7818608E-02  0.1025246E+00
          2   -1    0    0  501    0  0.00000000000E+00  0.00000000000E+00  0.63141308944E+03  0.63141308944E+03  0.25500000000E-02 0.  1.
         -2   -1    0    0    0  501 -0.00000000000E+00 -0.00000000000E+00 -0.83198429813E+02  0.83198429852E+02  0.25500000000E-02 0. -1.
    5000001    1    1    2    0    0 -0.10166967479E+03 -0.10213072923E+03  0.16906564700E+03  0.27672296909E+03  0.16500000000E+03 0.  0.
   -5000001    1    1    2    0    0  0.10166967479E+03  0.10213072923E+03  0.37914901263E+03  0.43788855021E+03  0.16500000000E+03 0.  0.
<mgrwt>
<rscale>  0 0.45839973E+03</rscale>
<asrwt>0</asrwt>
<pdfrwt beam="1">  1        2 0.97140471E-01 0.45839973E+03</pdfrwt>
<pdfrwt beam="2">  1       -2 0.12799759E-01 0.45839973E+03</pdfrwt>
<totfact> 0.21244172E+03</totfact>
</mgrwt>
</event>
<event>
 4    1  0.1573232E-005  0.3817974E+03  0.7818608E-02  0.1050271E+00
          2   -1    0    0  501    0  0.00000000000E+00  0.00000000000E+00  0.13461807097E+04  0.13461807097E+04  0.25500000000E-02 0.  1.
         -2   -1    0    0    0  501 -0.00000000000E+00 -0.00000000000E+00 -0.27070893390E+02  0.27070893510E+02  0.25500000000E-02 0. -1.
    5000001    1    1    2    0    0 -0.91209882150E+02 -0.27369463174E+02  0.70345724174E+03  0.72879724277E+03  0.16500000000E+03 0.  0.
   -5000001    1    1    2    0    0  0.91209882150E+02  0.27369463174E+02  0.61565257461E+03  0.64445436048E+03  0.16500000000E+03 0.  0.
<mgrwt>
<rscale>  0 0.38179740E+03</rscale>
<asrwt>0</asrwt>
<pdfrwt beam="1">  1        2 0.20710475E+00 0.38179740E+03</pdfrwt>
<pdfrwt beam="2">  1       -2 0.41647523E-02 0.38179740E+03</pdfrwt>
<totfact> 0.42899108E+03</totfact>
</mgrwt>
</event>
<event>
 4    1  0.1573232E-005  0.5569976E+03  0.7818608E-02  0.9998871E-01
         -2   -1    0    0    0  501 -0.00000000000E+00  0.00000000000E+00  0.16118065790E+03  0.16118065792E+03  0.25500000000E-02 0. -1.
          2   -1    0    0  501    0  0.00000000000E+00 -0.00000000000E+00 -0.48120896923E+03  0.48120896924E+03  0.25500000000E-02 0.  1.
    5000001    1    1    2    0    0  0.12435461077E+03 -0.16523059514E+03 -0.26036756649E+03  0.37118928927E+03  0.16500000000E+03 0.  0.
   -5000001    1    1    2    0    0 -0.12435461077E+03  0.16523059514E+03 -0.59660744845E+02  0.27120033788E+03  0.16500000000E+03 0.  0.
<mgrwt>
<rscale>  0 0.55699759E+03</rscale>
<asrwt>0</asrwt>
<pdfrwt beam="1">  1        2 0.74032148E-01 0.55699759E+03</pdfrwt>
<pdfrwt beam="2">  1       -2 0.24797025E-01 0.55699759E+03</pdfrwt>
<totfact> 0.93963758E+02</totfact>
</mgrwt>
</event>
<event>
 4    1  0.1573232E-005  0.5751590E+03  0.7818608E-02  0.9958327E-01
         -2   -1    0    0    0  501 -0.00000000000E+00  0.00000000000E+00  0.17291654708E+03  0.17291654710E+03  0.25500000000E-02 0. -1.
          2   -1    0    0  501    0  0.00000000000E+00 -0.00000000000E+00 -0.47827672004E+03  0.47827672005E+03  0.25500000000E-02 0.  1.
    5000001    1    1    2    0    0  0.24491613522E+02  0.13808901958E+03  0.61567199869E+02  0.22513093204E+03  0.16500000000E+03 0.  0.
   -5000001    1    1    2    0    0 -0.24491613522E+02 -0.13808901958E+03 -0.36692737283E+03  0.42606233511E+03  0.16500000000E+03 0.  0.
<mgrwt>
<rscale>  0 0.57515897E+03</rscale>
<asrwt>0</asrwt>
<pdfrwt beam="1">  1        2 0.73581033E-01 0.57515897E+03</pdfrwt>
<pdfrwt beam="2">  1       -2 0.26602546E-01 0.57515897E+03</pdfrwt>
<totfact> 0.83352093E+02</totfact>
</mgrwt>
</event>
<event>
 4    1  0.1573232E-005  0.1167144E+04  0.7818608E-02  0.9142112E-01
          2   -1    0    0  501    0  0.00000000000E+00  0.00000000000E+00  0.19926242581E+04  0.19926242581E+04  0.25500000000E-02 0.  1.
         -2   -1    0    0    0  501 -0.00000000000E+00 -0.00000000000E+00 -0.17090831909E+03  0.17090831911E+03  0.25500000000E-02 0. -1.
    5000001    1    1    2    0    0  0.47740584147E+03 -0.25188882116E+03  0.11855980416E+04  0.13131001607E+04  0.16500000000E+03 0.  0.
   -5000001    1    1    2    0    0 -0.47740584147E+03  0.25188882116E+03  0.63611789740E+03  0.85043241653E+03  0.16500000000E+03 0.  0.
<mgrwt>
<rscale>  0 0.11671436E+04</rscale>
<asrwt>0</asrwt>
<pdfrwt beam="1">  1        2 0.30655758E+00 0.11671436E+04</pdfrwt>
<pdfrwt beam="2">  1       -2 0.26293587E-01 0.11671436E+04</pdfrwt>
<totfact> 0.87405497E+01</totfact>
</mgrwt>
</event>
<event>
 4    1  0.1573232E-005  0.5171383E+03  0.7818608E-02  0.1009400E+00
          2   -1    0    0  501    0  0.00000000000E+00  0.00000000000E+00  0.53040582000E+03  0.53040582000E+03  0.25500000000E-02 0.  1.
         -2   -1    0    0    0  501 -0.00000000000E+00 -0.00000000000E+00 -0.12605068270E+03  0.12605068273E+03  0.25500000000E-02 0. -1.
    5000001    1    1    2    0    0 -0.57416972251E+02 -0.12849461259E+03  0.23442137611E+02  0.21813323448E+03  0.16500000000E+03 0.  0.
   -5000001    1    1    2    0    0  0.57416972251E+02  0.12849461259E+03  0.38091299968E+03  0.43832326825E+03  0.16500000000E+03 0.  0.
<mgrwt>
<rscale>  0 0.51713834E+03</rscale>
<asrwt>0</asrwt>
<pdfrwt beam="1">  1        2 0.81600895E-01 0.51713834E+03</pdfrwt>
<pdfrwt beam="2">  1       -2 0.19392413E-01 0.51713834E+03</pdfrwt>
<totfact> 0.12952616E+03</totfact>
</mgrwt>
</event>
<event>
 4    1  0.1573232E-005  0.5138631E+03  0.7818608E-02  0.1010222E+00
          2   -1    0    0  501    0  0.00000000000E+00  0.00000000000E+00  0.41455067862E+03  0.41455067863E+03  0.25500000000E-02 0.  1.
         -2   -1    0    0    0  501 -0.00000000000E+00 -0.00000000000E+00 -0.15924185135E+03  0.15924185137E+03  0.25500000000E-02 0. -1.
    5000001    1    1    2    0    0 -0.10139496934E+03 -0.16865468552E+03  0.11875814022E+03  0.28293787061E+03  0.16500000000E+03 0.  0.
   -5000001    1    1    2    0    0  0.10139496934E+03  0.16865468552E+03  0.13655068705E+03  0.29085465939E+03  0.16500000000E+03 0.  0.
<mgrwt>
<rscale>  0 0.51386309E+03</rscale>
<asrwt>0</asrwt>
<pdfrwt beam="1">  1        2 0.63777027E-01 0.51386309E+03</pdfrwt>
<pdfrwt beam="2">  1       -2 0.24498747E-01 0.51386309E+03</pdfrwt>
<totfact> 0.11365398E+03</totfact>
</mgrwt>
</event>
<event>
 4    1  0.1573232E-005  0.4353045E+03  0.7818608E-02  0.1032197E+00
         -2   -1    0    0    0  501 -0.00000000000E+00  0.00000000000E+00  0.44265624363E+02  0.44265624437E+02  0.25500000000E-02 0. -1.
          2   -1    0    0  501    0  0.00000000000E+00 -0.00000000000E+00 -0.10701873483E+04  0.10701873483E+04  0.25500000000E-02 0.  1.
    5000001    1    1    2    0    0 -0.13683043298E+03 -0.37087858913E+02 -0.49496039553E+03  0.54065596253E+03  0.16500000000E+03 0.  0.
   -5000001    1    1    2    0    0  0.13683043298E+03  0.37087858913E+02 -0.53096132839E+03  0.57379701020E+03  0.16500000000E+03 0.  0.
<mgrwt>
<rscale>  0 0.43530454E+03</rscale>
<asrwt>0</asrwt>
<pdfrwt beam="1">  1        2 0.16464419E+00 0.43530454E+03</pdfrwt>
<pdfrwt beam="2">  1       -2 0.68100969E-02 0.43530454E+03</pdfrwt>
<totfact> 0.29023264E+03</totfact>
</mgrwt>
</event>
<event>
 4    1  0.1573232E-005  0.1133318E+04  0.7818608E-02  0.9173312E-01
         -2   -1    0    0    0  501 -0.00000000000E+00  0.00000000000E+00  0.30882440758E+03  0.30882440759E+03  0.25500000000E-02 0. -1.
          2   -1    0    0  501    0  0.00000000000E+00 -0.00000000000E+00 -0.10397579298E+04  0.10397579298E+04  0.25500000000E-02 0.  1.
    5000001    1    1    2    0    0 -0.34108564657E+03 -0.98326215922E+02  0.12207553631E+03  0.41004255828E+03  0.16500000000E+03 0.  0.
   -5000001    1    1    2    0    0  0.34108564657E+03  0.98326215922E+02 -0.85300905850E+03  0.93853977908E+03  0.16500000000E+03 0.  0.
<mgrwt>
<rscale>  0 0.11333184E+04</rscale>
<asrwt>0</asrwt>
<pdfrwt beam="1">  1        2 0.15996276E+00 0.11333184E+04</pdfrwt>
<pdfrwt beam="2">  1       -2 0.47511448E-01 0.11333184E+04</pdfrwt>
<totfact> 0.98804074E+01</totfact>
</mgrwt>
</event>
<event>
 4    1  0.1573232E-005  0.4670744E+03  0.7818608E-02  0.1022749E+00
          2   -1    0    0  501    0  0.00000000000E+00  0.00000000000E+00  0.19692439150E+04  0.19692439150E+04  0.25500000000E-02 0.  1.
         -2   -1    0    0    0  501 -0.00000000000E+00 -0.00000000000E+00 -0.27695714666E+02  0.27695714783E+02  0.25500000000E-02 0. -1.
    5000001    1    1    2    0    0  0.90365018307E+01  0.13294158822E+03  0.55275479844E+03  0.59204559912E+03  0.16500000000E+03 0.  0.
   -5000001    1    1    2    0    0 -0.90365018307E+01 -0.13294158822E+03  0.13887934019E+04  0.14048940307E+04  0.16500000000E+03 0.  0.
<mgrwt>
<rscale>  0 0.46707437E+03</rscale>
<asrwt>0</asrwt>
<pdfrwt beam="1">  1        2 0.30296050E+00 0.46707437E+03</pdfrwt>
<pdfrwt beam="2">  1       -2 0.42608806E-02 0.46707437E+03</pdfrwt>
<totfact> 0.19044094E+03</totfact>
</mgrwt>
</event>
<event>
 4    1  0.1573232E-005  0.3815308E+03  0.7818608E-02  0.1050369E+00
         -2   -1    0    0    0  501 -0.00000000000E+00  0.00000000000E+00  0.54365103897E+02  0.54365103956E+02  0.25500000000E-02 0. -1.
          2   -1    0    0  501    0  0.00000000000E+00 -0.00000000000E+00 -0.66938981552E+03  0.66938981552E+03  0.25500000000E-02 0.  1.
    5000001    1    1    2    0    0  0.34706778776E+02  0.88346330605E+02 -0.33126718368E+03  0.38206358320E+03  0.16500000000E+03 0.  0.
   -5000001    1    1    2    0    0 -0.34706778776E+02 -0.88346330605E+02 -0.28375752794E+03  0.34169133628E+03  0.16500000000E+03 0.  0.
<mgrwt>
<rscale>  0 0.38153085E+03</rscale>
<asrwt>0</asrwt>
<pdfrwt beam="1">  1        2 0.10298304E+00 0.38153085E+03</pdfrwt>
<pdfrwt beam="2">  1       -2 0.83638626E-02 0.38153085E+03</pdfrwt>
<totfact> 0.39247623E+03</totfact>
</mgrwt>
</event>
<event>
 4    1  0.1573232E-005  0.1063574E+04  0.7818608E-02  0.9241440E-01
         -2   -1    0    0    0  501 -0.00000000000E+00  0.00000000000E+00  0.65881466877E+03  0.65881466878E+03  0.25500000000E-02 0. -1.
          2   -1    0    0  501    0  0.00000000000E+00 -0.00000000000E+00 -0.42925220749E+03  0.42925220750E+03  0.25500000000E-02 0.  1.
    5000001    1    1    2    0    0  0.11989516666E+03 -0.45205429737E+03  0.31115129338E+03  0.58546397509E+03  0.16500000000E+03 0.  0.
   -5000001    1    1    2    0    0 -0.11989516666E+03  0.45205429737E+03 -0.81588832098E+02  0.50260290119E+03  0.16500000000E+03 0.  0.
<mgrwt>
<rscale>  0 0.10635744E+04</rscale>
<asrwt>0</asrwt>
<pdfrwt beam="1">  1        2 0.66038802E-01 0.10635744E+04</pdfrwt>
<pdfrwt beam="2">  1       -2 0.10135610E+00 0.10635744E+04</pdfrwt>
<totfact> 0.58432621E+01</totfact>
</mgrwt>
</event>
<event>
 4    1  0.1573232E-005  0.4143543E+03  0.7818608E-02  0.1038920E+00
          2   -1    0    0  501    0  0.00000000000E+00  0.00000000000E+00  0.10991901809E+04  0.10991901809E+04  0.25500000000E-02 0.  1.
         -2   -1    0    0    0  501 -0.00000000000E+00 -0.00000000000E+00 -0.39049084325E+02  0.39049084408E+02  0.25500000000E-02 0. -1.
    5000001    1    1    2    0    0  0.89909709160E+02 -0.51264293228E+02  0.33610712070E+03  0.38846464466E+03  0.16500000000E+03 0.  0.
   -5000001    1    1    2    0    0 -0.89909709160E+02  0.51264293228E+02  0.72403397592E+03  0.74977462070E+03  0.16500000000E+03 0.  0.
<mgrwt>
<rscale>  0 0.41435429E+03</rscale>
<asrwt>0</asrwt>
<pdfrwt beam="1">  1        2 0.16910618E+00 0.41435429E+03</pdfrwt>
<pdfrwt beam="2">  1       -2 0.60075514E-02 0.41435429E+03</pdfrwt>
<totfact> 0.33895735E+03</totfact>
</mgrwt>
</event>
<event>
 4    1  0.1573232E-005  0.4655156E+03  0.7818608E-02  0.1023194E+00
         -2   -1    0    0    0  501 -0.00000000000E+00  0.00000000000E+00  0.20642746369E+03  0.20642746371E+03  0.25500000000E-02 0. -1.
          2   -1    0    0  501    0  0.00000000000E+00 -0.00000000000E+00 -0.26244666188E+03  0.26244666189E+03  0.25500000000E-02 0.  1.
    5000001    1    1    2    0    0 -0.57306841108E+02 -0.15364915946E+03 -0.35750128827E+02  0.23536187022E+03  0.16500000000E+03 0.  0.
   -5000001    1    1    2    0    0  0.57306841108E+02  0.15364915946E+03 -0.20269069355E+02  0.23351225538E+03  0.16500000000E+03 0.  0.
<mgrwt>
<rscale>  0 0.46551562E+03</rscale>
<asrwt>0</asrwt>
<pdfrwt beam="1">  1        2 0.40376410E-01 0.46551562E+03</pdfrwt>
<pdfrwt beam="2">  1       -2 0.31758071E-01 0.46551562E+03</pdfrwt>
<totfact> 0.11728442E+03</totfact>
</mgrwt>
</event>
<event>
 4    1  0.1573232E-005  0.9992797E+03  0.7818608E-02  0.9309335E-01
          2   -1    0    0  501    0  0.00000000000E+00  0.00000000000E+00  0.13302116468E+04  0.13302116468E+04  0.25500000000E-02 0.  1.
         -2   -1    0    0    0  501 -0.00000000000E+00 -0.00000000000E+00 -0.18766936240E+03  0.18766936242E+03  0.25500000000E-02 0. -1.
    5000001    1    1    2    0    0 -0.43869822405E+03 -0.34941035795E+02  0.82877199201E+03  0.95276703475E+03  0.16500000000E+03 0.  0.
   -5000001    1    1    2    0    0  0.43869822405E+03  0.34941035795E+02  0.31377029243E+03  0.56511397450E+03  0.16500000000E+03 0.  0.
<mgrwt>
<rscale>  0 0.99927968E+03</rscale>
<asrwt>0</asrwt>
<pdfrwt beam="1">  1        2 0.20464794E+00 0.99927968E+03</pdfrwt>
<pdfrwt beam="2">  1       -2 0.28872210E-01 0.99927968E+03</pdfrwt>
<totfact> 0.17432405E+02</totfact>
</mgrwt>
</event>
<event>
 4    1  0.1573232E-005  0.7338973E+03  0.7818608E-02  0.9660957E-01
         -2   -1    0    0    0  501 -0.00000000000E+00  0.00000000000E+00  0.16809021277E+03  0.16809021279E+03  0.25500000000E-02 0. -1.
          2   -1    0    0  501    0  0.00000000000E+00 -0.00000000000E+00 -0.80106582293E+03  0.80106582294E+03  0.25500000000E-02 0.  1.
    5000001    1    1    2    0    0 -0.24686515470E+03  0.13857570004E+03 -0.53460309573E+03  0.62703357104E+03  0.16500000000E+03 0.  0.
   -5000001    1    1    2    0    0  0.24686515470E+03 -0.13857570004E+03 -0.98372514429E+02  0.34212246469E+03  0.16500000000E+03 0.  0.
<mgrwt>
<rscale>  0 0.73389734E+03</rscale>
<asrwt>0</asrwt>
<pdfrwt beam="1">  1        2 0.12324089E+00 0.73389734E+03</pdfrwt>
<pdfrwt beam="2">  1       -2 0.25860033E-01 0.73389734E+03</pdfrwt>
<totfact> 0.46610588E+02</totfact>
</mgrwt>
</event>
<event>
 4    1  0.1573232E-005  0.8499562E+03  0.7818608E-02  0.9490396E-01
         -2   -1    0    0    0  501 -0.00000000000E+00  0.00000000000E+00  0.34468871282E+03  0.34468871283E+03  0.25500000000E-02 0. -1.
          2   -1    0    0  501    0  0.00000000000E+00 -0.00000000000E+00 -0.52396958981E+03  0.52396958982E+03  0.25500000000E-02 0.  1.
    5000001    1    1    2    0    0  0.30572939639E+03  0.68982912335E+02 -0.32965313234E+03  0.48386495396E+03  0.16500000000E+03 0.  0.
   -5000001    1    1    2    0    0 -0.30572939639E+03 -0.68982912335E+02  0.15037225535E+03  0.38479334868E+03  0.16500000000E+03 0.  0.
<mgrwt>
<rscale>  0 0.84995624E+03</rscale>
<asrwt>0</asrwt>
<pdfrwt beam="1">  1        2 0.80610706E-01 0.84995624E+03</pdfrwt>
<pdfrwt beam="2">  1       -2 0.53029033E-01 0.84995624E+03</pdfrwt>
<totfact> 0.19658770E+02</totfact>
</mgrwt>
</event>
<event>
 4    1  0.1573232E-005  0.3841173E+03  0.7818608E-02  0.1049422E+00
         -2   -1    0    0    0  501 -0.00000000000E+00  0.00000000000E+00  0.33770011641E+02  0.33770011737E+02  0.25500000000E-02 0. -1.
          2   -1    0    0  501    0  0.00000000000E+00 -0.00000000000E+00 -0.10922864633E+04  0.10922864633E+04  0.25500000000E-02 0.  1.
    5000001    1    1    2    0    0 -0.78924054741E+02  0.52303764693E+02 -0.60664410411E+03  0.63577256882E+03  0.16500000000E+03 0.  0.
   -5000001    1    1    2    0    0  0.78924054741E+02 -0.52303764693E+02 -0.45187234759E+03  0.49028390626E+03  0.16500000000E+03 0.  0.
<mgrwt>
<rscale>  0 0.38411731E+03</rscale>
<asrwt>0</asrwt>
<pdfrwt beam="1">  1        2 0.16804404E+00 0.38411731E+03</pdfrwt>
<pdfrwt beam="2">  1       -2 0.51953873E-02 0.38411731E+03</pdfrwt>
<totfact> 0.42806884E+03</totfact>
</mgrwt>
</event>
<event>
 4    1  0.1573232E-005  0.6303643E+03  0.7818608E-02  0.9844338E-01
         -2   -1    0    0    0  501 -0.00000000000E+00  0.00000000000E+00  0.48597901517E+02  0.48597901583E+02  0.25500000000E-02 0.  1.
          2   -1    0    0  501    0  0.00000000000E+00 -0.00000000000E+00 -0.20441167970E+04  0.20441167970E+04  0.25500000000E-02 0. -1.
    5000001    1    1    2    0    0  0.22328180716E+03 -0.35989345059E+02 -0.14784478676E+04  0.15047202715E+04  0.16500000000E+03 0.  0.
   -5000001    1    1    2    0    0 -0.22328180716E+03  0.35989345059E+02 -0.51707102791E+03  0.58799442708E+03  0.16500000000E+03 0.  0.
<mgrwt>
<rscale>  0 0.63036430E+03</rscale>
<asrwt>0</asrwt>
<pdfrwt beam="1">  1        2 0.31447944E+00 0.63036430E+03</pdfrwt>
<pdfrwt beam="2">  1       -2 0.74766018E-02 0.63036430E+03</pdfrwt>
<totfact> 0.71492800E+02</totfact>
</mgrwt>
</event>
<event>
 4    1  0.1573232E-005  0.7210701E+03  0.7818608E-02  0.9681863E-01
          2   -1    0    0  501    0  0.00000000000E+00  0.00000000000E+00  0.23523199317E+04  0.23523199317E+04  0.25500000000E-02 0.  1.
         -2   -1    0    0    0  501 -0.00000000000E+00 -0.00000000000E+00 -0.55258444134E+02  0.55258444192E+02  0.25500000000E-02 0. -1.
    5000001    1    1    2    0    0 -0.10468677910E+03 -0.22668456362E+03  0.18197678608E+04  0.18442140007E+04  0.16500000000E+03 0.  0.
   -5000001    1    1    2    0    0  0.10468677910E+03  0.22668456362E+03  0.47729362671E+03  0.56336437516E+03  0.16500000000E+03 0.  0.
<mgrwt>
<rscale>  0 0.72107015E+03</rscale>
<asrwt>0</asrwt>
<pdfrwt beam="1">  1        2 0.36189536E+00 0.72107015E+03</pdfrwt>
<pdfrwt beam="2">  1       -2 0.85012994E-02 0.72107015E+03</pdfrwt>
<totfact> 0.39139912E+02</totfact>
</mgrwt>
</event>
<event>
 4    1  0.1573232E-005  0.5803248E+03  0.7818608E-02  0.9947088E-01
          2   -1    0    0  501    0  0.00000000000E+00  0.00000000000E+00  0.10579835457E+04  0.10579835457E+04  0.25500000000E-02 0.  1.
         -2   -1    0    0    0  501 -0.00000000000E+00 -0.00000000000E+00 -0.79579888830E+02  0.79579888871E+02  0.25500000000E-02 0. -1.
    5000001    1    1    2    0    0  0.97700304950E+02 -0.18646750914E+03  0.26869917829E+03  0.37913022824E+03  0.16500000000E+03 0.  0.
   -5000001    1    1    2    0    0 -0.97700304950E+02  0.18646750914E+03  0.70970447858E+03  0.75843320633E+03  0.16500000000E+03 0.  0.
<mgrwt>
<rscale>  0 0.58032478E+03</rscale>
<asrwt>0</asrwt>
<pdfrwt beam="1">  1        2 0.16276669E+00 0.58032478E+03</pdfrwt>
<pdfrwt beam="2">  1       -2 0.12243060E-01 0.58032478E+03</pdfrwt>
<totfact> 0.11494559E+03</totfact>
</mgrwt>
</event>
<event>
 4    1  0.1573232E-005  0.4017564E+03  0.7818608E-02  0.1043173E+00
          2   -1    0    0  501    0  0.00000000000E+00  0.00000000000E+00  0.27478830239E+04  0.27478830239E+04  0.25500000000E-02 0.  1.
         -2   -1    0    0    0  501 -0.00000000000E+00 -0.00000000000E+00 -0.14684778306E+02  0.14684778528E+02  0.25500000000E-02 0. -1.
    5000001    1    1    2    0    0  0.10187091346E+03 -0.10834256927E+02  0.10138286869E+04  0.10322638571E+04  0.16500000000E+03 0.  0.
   -5000001    1    1    2    0    0 -0.10187091346E+03  0.10834256927E+02  0.17193695586E+04  0.17303039454E+04  0.16500000000E+03 0.  0.
<mgrwt>
<rscale>  0 0.40175641E+03</rscale>
<asrwt>0</asrwt>
<pdfrwt beam="1">  1        2 0.42275116E+00 0.40175641E+03</pdfrwt>
<pdfrwt beam="2">  1       -2 0.22591971E-02 0.40175641E+03</pdfrwt>
<totfact> 0.18581702E+03</totfact>
</mgrwt>
</event>
<event>
 4    1  0.1573232E-005  0.7047954E+03  0.7818608E-02  0.9709066E-01
         -2   -1    0    0    0  501 -0.00000000000E+00  0.00000000000E+00  0.89078843840E+03  0.89078843841E+03  0.25500000000E-02 0. -1.
          2   -1    0    0  501    0  0.00000000000E+00 -0.00000000000E+00 -0.13940922838E+03  0.13940922841E+03  0.25500000000E-02 0.  1.
    5000001    1    1    2    0    0 -0.44370790008E+02  0.30816547105E+03  0.38291049587E+03  0.52036542199E+03  0.16500000000E+03 0.  0.
   -5000001    1    1    2    0    0  0.44370790008E+02 -0.30816547105E+03  0.36846871415E+03  0.50983224483E+03  0.16500000000E+03 0.  0.
<mgrwt>
<rscale>  0 0.70479537E+03</rscale>
<asrwt>0</asrwt>
<pdfrwt beam="1">  1        2 0.21447574E-01 0.70479537E+03</pdfrwt>
<pdfrwt beam="2">  1       -2 0.13704437E+00 0.70479537E+03</pdfrwt>
<totfact> 0.10054761E+02</totfact>
</mgrwt>
</event>
<event>
 4    1  0.1573232E-005  0.4436596E+03  0.7818608E-02  0.1029630E+00
          2   -1    0    0  501    0  0.00000000000E+00  0.00000000000E+00  0.57420948703E+03  0.57420948703E+03  0.25500000000E-02 0.  1.
         -2   -1    0    0    0  501 -0.00000000000E+00 -0.00000000000E+00 -0.85697748307E+02  0.85697748345E+02  0.25500000000E-02 0. -1.
    5000001    1    1    2    0    0  0.29492040956E+02 -0.14401947373E+03  0.27294687760E+03  0.35119280642E+03  0.16500000000E+03 0.  0.
   -5000001    1    1    2    0    0 -0.29492040956E+02  0.14401947373E+03  0.21556486112E+03  0.30871442896E+03  0.16500000000E+03 0.  0.
<mgrwt>
<rscale>  0 0.44365960E+03</rscale>
<asrwt>0</asrwt>
<pdfrwt beam="1">  1        2 0.88339920E-01 0.44365960E+03</pdfrwt>
<pdfrwt beam="2">  1       -2 0.13184269E-01 0.44365960E+03</pdfrwt>
<totfact> 0.22642042E+03</totfact>
</mgrwt>
</event>
<event>
 4    1  0.1573232E-005  0.4292189E+03  0.7818608E-02  0.1034107E+00
         -2   -1    0    0    0  501 -0.00000000000E+00  0.00000000000E+00  0.44549246924E+03  0.44549246925E+03  0.25500000000E-02 0. -1.
          2   -1    0    0  501    0  0.00000000000E+00 -0.00000000000E+00 -0.10338495959E+03  0.10338495962E+03  0.25500000000E-02 0.  1.
    5000001    1    1    2    0    0 -0.96704409262E+02  0.85625278699E+02  0.23033174633E+03  0.31138584504E+03  0.16500000000E+03 0.  0.
   -5000001    1    1    2    0    0  0.96704409262E+02 -0.85625278699E+02  0.11177576333E+03  0.23749158383E+03  0.16500000000E+03 0.  0.
<mgrwt>
<rscale>  0 0.42921892E+03</rscale>
<asrwt>0</asrwt>
<pdfrwt beam="1">  1        2 0.15905379E-01 0.42921892E+03</pdfrwt>
<pdfrwt beam="2">  1       -2 0.68537302E-01 0.42921892E+03</pdfrwt>
<totfact> 0.73018743E+02</totfact>
</mgrwt>
</event>
<event>
 4    1  0.1573232E-005  0.4747677E+03  0.7818608E-02  0.1020583E+00
          2   -1    0    0  501    0  0.00000000000E+00  0.00000000000E+00  0.45647284416E+04  0.45647284416E+04  0.25500000000E-02 0. -1.
         -2   -1    0    0    0  501 -0.00000000000E+00 -0.00000000000E+00 -0.12344895011E+02  0.12344895274E+02  0.25500000000E-02 0.  1.
    5000001    1    1    2    0    0 -0.79570721217E+02 -0.89210923038E+02  0.34504542747E+04  0.34564649268E+04  0.16500000000E+03 0.  0.
   -5000001    1    1    2    0    0  0.79570721217E+02  0.89210923038E+02  0.11019292719E+04  0.11206084100E+04  0.16500000000E+03 0.  0.
<mgrwt>
<rscale>  0 0.47476771E+03</rscale>
<asrwt>0</asrwt>
<pdfrwt beam="1">  1        2 0.70226643E+00 0.47476771E+03</pdfrwt>
<pdfrwt beam="2">  1       -2 0.18992132E-02 0.47476771E+03</pdfrwt>
<totfact> 0.11535458E+02</totfact>
</mgrwt>
</event>
<event>
 4    1  0.1573232E-005  0.4658941E+03  0.7818608E-02  0.1023086E+00
          2   -1    0    0  501    0  0.00000000000E+00  0.00000000000E+00  0.64571754536E+03  0.64571754536E+03  0.25500000000E-02 0.  1.
         -2   -1    0    0    0  501 -0.00000000000E+00 -0.00000000000E+00 -0.84037253542E+02  0.84037253580E+02  0.25500000000E-02 0. -1.
    5000001    1    1    2    0    0 -0.16316272834E+03 -0.14216525732E+02  0.25786523008E+03  0.34719398383E+03  0.16500000000E+03 0.  0.
   -5000001    1    1    2    0    0  0.16316272834E+03  0.14216525732E+02  0.30381506174E+03  0.38256081511E+03  0.16500000000E+03 0.  0.
<mgrwt>
<rscale>  0 0.46589410E+03</rscale>
<asrwt>0</asrwt>
<pdfrwt beam="1">  1        2 0.99341165E-01 0.46589410E+03</pdfrwt>
<pdfrwt beam="2">  1       -2 0.12928808E-01 0.46589410E+03</pdfrwt>
<totfact> 0.20340090E+03</totfact>
</mgrwt>
</event>
<event>
 4    1  0.1573232E-005  0.4469718E+03  0.7818608E-02  0.1028629E+00
         -2   -1    0    0    0  501 -0.00000000000E+00  0.00000000000E+00  0.51807509228E+02  0.51807509291E+02  0.25500000000E-02 0. -1.
          2   -1    0    0  501    0  0.00000000000E+00 -0.00000000000E+00 -0.96406762351E+03  0.96406762351E+03  0.25500000000E-02 0.  1.
    5000001    1    1    2    0    0  0.12337416538E+03 -0.74718402313E+02 -0.35662114082E+03  0.41857814373E+03  0.16500000000E+03 0.  0.
   -5000001    1    1    2    0    0 -0.12337416538E+03  0.74718402313E+02 -0.55563897347E+03  0.59729698908E+03  0.16500000000E+03 0.  0.
<mgrwt>
<rscale>  0 0.44697178E+03</rscale>
<asrwt>0</asrwt>
<pdfrwt beam="1">  1        2 0.14831808E+00 0.44697178E+03</pdfrwt>
<pdfrwt beam="2">  1       -2 0.79703867E-02 0.44697178E+03</pdfrwt>
<totfact> 0.26367763E+03</totfact>
</mgrwt>
</event>
<event>
 4    1  0.1573232E-005  0.8134836E+03  0.7818608E-02  0.9540703E-01
         -2   -1    0    0    0  501 -0.00000000000E+00  0.00000000000E+00  0.13671664438E+04  0.13671664438E+04  0.25500000000E-02 0. -1.
          2   -1    0    0  501    0  0.00000000000E+00 -0.00000000000E+00 -0.12100859987E+03  0.12100859990E+03  0.25500000000E-02 0.  1.
    5000001    1    1    2    0    0  0.36540720025E+03 -0.56957937633E+02  0.55348364508E+03  0.68581030470E+03  0.16500000000E+03 0.  0.
   -5000001    1    1    2    0    0 -0.36540720025E+03  0.56957937633E+02  0.69267419887E+03  0.80236473903E+03  0.16500000000E+03 0.  0.
<mgrwt>
<rscale>  0 0.81348361E+03</rscale>
<asrwt>0</asrwt>
<pdfrwt beam="1">  1        2 0.18616707E-01 0.81348361E+03</pdfrwt>
<pdfrwt beam="2">  1       -2 0.21033331E+00 0.81348361E+03</pdfrwt>
<totfact> 0.35755851E+01</totfact>
</mgrwt>
</event>
<event>
 4    1  0.1573232E-005  0.5037396E+03  0.7818608E-02  0.1012807E+00
          2   -1    0    0  501    0  0.00000000000E+00  0.00000000000E+00  0.22152874858E+04  0.22152874858E+04  0.25500000000E-02 0.  1.
         -2   -1    0    0    0  501 -0.00000000000E+00 -0.00000000000E+00 -0.28636645608E+02  0.28636645721E+02  0.25500000000E-02 0. -1.
    5000001    1    1    2    0    0  0.33442579972E+02 -0.12895089028E+03  0.16986611142E+04  0.17118473411E+04  0.16500000000E+03 0.  0.
   -5000001    1    1    2    0    0 -0.33442579972E+02  0.12895089028E+03  0.48798972603E+03  0.53207679048E+03  0.16500000000E+03 0.  0.
<mgrwt>
<rscale>  0 0.50373963E+03</rscale>
<asrwt>0</asrwt>
<pdfrwt beam="1">  1        2 0.34081351E+00 0.50373963E+03</pdfrwt>
<pdfrwt beam="2">  1       -2 0.44056372E-02 0.50373963E+03</pdfrwt>
<totfact> 0.13293971E+03</totfact>
</mgrwt>
</event>
<event>
 4    1  0.1573232E-005  0.4352399E+03  0.7818608E-02  0.1032217E+00
         -2   -1    0    0    0  501 -0.00000000000E+00  0.00000000000E+00  0.12251181614E+02  0.12251181879E+02  0.25500000000E-02 0. -1.
          2   -1    0    0  501    0  0.00000000000E+00 -0.00000000000E+00 -0.38656222639E+04  0.38656222639E+04  0.25500000000E-02 0.  1.
    5000001    1    1    2    0    0 -0.11490255931E+03 -0.66466940987E+02 -0.14800428907E+04  0.14951161864E+04  0.16500000000E+03 0.  0.
   -5000001    1    1    2    0    0  0.11490255931E+03  0.66466940987E+02 -0.23733281915E+04  0.23827572594E+04  0.16500000000E+03 0.  0.
<mgrwt>
<rscale>  0 0.43523989E+03</rscale>
<asrwt>0</asrwt>
<pdfrwt beam="1">  1        2 0.59471014E+00 0.43523989E+03</pdfrwt>
<pdfrwt beam="2">  1       -2 0.18848003E-02 0.43523989E+03</pdfrwt>
<totfact> 0.45850826E+02</totfact>
</mgrwt>
</event>
<event>
 4    1  0.1573232E-005  0.4620944E+03  0.7818608E-02  0.1024176E+00
         -2   -1    0    0    0  501 -0.00000000000E+00  0.00000000000E+00  0.40393333873E+03  0.40393333874E+03  0.25500000000E-02 0. -1.
          2   -1    0    0  501    0  0.00000000000E+00 -0.00000000000E+00 -0.13215744637E+03  0.13215744639E+03  0.25500000000E-02 0.  1.
    5000001    1    1    2    0    0  0.98633751242E+02 -0.12402926691E+03  0.98368410414E+02  0.24902453715E+03  0.16500000000E+03 0.  0.
   -5000001    1    1    2    0    0 -0.98633751242E+02  0.12402926691E+03  0.17340748195E+03  0.28706624798E+03  0.16500000000E+03 0.  0.
<mgrwt>
<rscale>  0 0.46209436E+03</rscale>
<asrwt>0</asrwt>
<pdfrwt beam="1">  1        2 0.20331915E-01 0.46209436E+03</pdfrwt>
<pdfrwt beam="2">  1       -2 0.62143590E-01 0.46209436E+03</pdfrwt>
<totfact> 0.67373264E+02</totfact>
</mgrwt>
</event>
<event>
 4    1  0.1573232E-005  0.4564090E+03  0.7818608E-02  0.1025828E+00
          2   -1    0    0  501    0  0.00000000000E+00  0.00000000000E+00  0.86765866046E+03  0.86765866046E+03  0.25500000000E-02 0.  1.
         -2   -1    0    0    0  501 -0.00000000000E+00 -0.00000000000E+00 -0.60020474586E+02  0.60020474640E+02  0.25500000000E-02 0. -1.
    5000001    1    1    2    0    0 -0.86560502436E+02 -0.48010006482E+02  0.15442952347E+03  0.24672081190E+03  0.16500000000E+03 0.  0.
   -5000001    1    1    2    0    0  0.86560502436E+02  0.48010006482E+02  0.65320866240E+03  0.68095832320E+03  0.16500000000E+03 0.  0.
<mgrwt>
<rscale>  0 0.45640896E+03</rscale>
<asrwt>0</asrwt>
<pdfrwt beam="1">  1        2 0.13348595E+00 0.45640896E+03</pdfrwt>
<pdfrwt beam="2">  1       -2 0.92339192E-02 0.45640896E+03</pdfrwt>
<totfact> 0.24124709E+03</totfact>
</mgrwt>
</event>
<event>
 4    1  0.1573232E-005  0.5581431E+03  0.7818608E-02  0.9996265E-01
          2   -1    0    0  501    0  0.00000000000E+00  0.00000000000E+00  0.19193589084E+04  0.19193589084E+04  0.25500000000E-02 0.  1.
         -2   -1    0    0    0  501 -0.00000000000E+00 -0.00000000000E+00 -0.40576540188E+02  0.40576540269E+02  0.25500000000E-02 0. -1.
    5000001    1    1    2    0    0 -0.11857364610E+03  0.19127124160E+03  0.95132343386E+03  0.99140590740E+03  0.16500000000E+03 0.  0.
   -5000001    1    1    2    0    0  0.11857364610E+03 -0.19127124160E+03  0.92745893440E+03  0.96852954132E+03  0.16500000000E+03 0.  0.
<mgrwt>
<rscale>  0 0.55814315E+03</rscale>
<asrwt>0</asrwt>
<pdfrwt beam="1">  1        2 0.29528597E+00 0.55814315E+03</pdfrwt>
<pdfrwt beam="2">  1       -2 0.62425450E-02 0.55814315E+03</pdfrwt>
<totfact> 0.11155780E+03</totfact>
</mgrwt>
</event>
<event>
 4    1  0.1573232E-005  0.3574143E+03  0.7818608E-02  0.1059612E+00
          2   -1    0    0  501    0  0.00000000000E+00  0.00000000000E+00  0.18758331077E+03  0.18758331079E+03  0.25500000000E-02 0.  1.
         -2   -1    0    0    0  501 -0.00000000000E+00 -0.00000000000E+00 -0.17025096517E+03  0.17025096518E+03  0.25500000000E-02 0. -1.
    5000001    1    1    2    0    0 -0.51848827407E+02 -0.32640815944E+02 -0.22313944668E+02  0.17741656038E+03  0.16500000000E+03 0.  0.
   -5000001    1    1    2    0    0  0.51848827407E+02  0.32640815944E+02  0.39646290275E+02  0.18041771560E+03  0.16500000000E+03 0.  0.
<mgrwt>
<rscale>  0 0.35741427E+03</rscale>
<asrwt>0</asrwt>
<pdfrwt beam="1">  1        2 0.28858971E-01 0.35741427E+03</pdfrwt>
<pdfrwt beam="2">  1       -2 0.26192456E-01 0.35741427E+03</pdfrwt>
<totfact> 0.24062105E+03</totfact>
</mgrwt>
</event>
<event>
 4    1  0.1573232E-005  0.5082218E+03  0.7818608E-02  0.1011655E+00
         -2   -1    0    0    0  501 -0.00000000000E+00  0.00000000000E+00  0.14607154439E+03  0.14607154441E+03  0.25500000000E-02 0. -1.
          2   -1    0    0  501    0  0.00000000000E+00 -0.00000000000E+00 -0.44205977294E+03  0.44205977295E+03  0.25500000000E-02 0.  1.
    5000001    1    1    2    0    0 -0.15528704223E+03  0.10617593662E+03 -0.96761741831E+02  0.26828199657E+03  0.16500000000E+03 0.  0.
   -5000001    1    1    2    0    0  0.15528704223E+03 -0.10617593662E+03 -0.19922648672E+03  0.31984932079E+03  0.16500000000E+03 0.  0.
<mgrwt>
<rscale>  0 0.50822182E+03</rscale>
<asrwt>0</asrwt>
<pdfrwt beam="1">  1        2 0.68009195E-01 0.50822182E+03</pdfrwt>
<pdfrwt beam="2">  1       -2 0.22472545E-01 0.50822182E+03</pdfrwt>
<totfact> 0.12326423E+03</totfact>
</mgrwt>
</event>
<event>
 4    1  0.1573232E-005  0.4952823E+03  0.7818608E-02  0.1015018E+00
          2   -1    0    0  501    0  0.00000000000E+00  0.00000000000E+00  0.40452166081E+03  0.40452166082E+03  0.25500000000E-02 0.  1.
         -2   -1    0    0    0  501 -0.00000000000E+00 -0.00000000000E+00 -0.15160164592E+03  0.15160164594E+03  0.25500000000E-02 0. -1.
    5000001    1    1    2    0    0  0.54767860748E+02  0.17625790746E+03  0.11983799772E+03  0.27505002129E+03  0.16500000000E+03 0.  0.
   -5000001    1    1    2    0    0 -0.54767860748E+02 -0.17625790746E+03  0.13308201717E+03  0.28107328547E+03  0.16500000000E+03 0.  0.
<mgrwt>
<rscale>  0 0.49528234E+03</rscale>
<asrwt>0</asrwt>
<pdfrwt beam="1">  1        2 0.62234101E-01 0.49528234E+03</pdfrwt>
<pdfrwt beam="2">  1       -2 0.23323330E-01 0.49528234E+03</pdfrwt>
<totfact> 0.12747503E+03</totfact>
</mgrwt>
</event>
<event>
 4    1  0.1573232E-005  0.4389066E+03  0.7818608E-02  0.1031083E+00
          2   -1    0    0  501    0  0.00000000000E+00  0.00000000000E+00  0.81565188717E+03  0.81565188718E+03  0.25500000000E-02 0.  1.
         -2   -1    0    0    0  501 -0.00000000000E+00 -0.00000000000E+00 -0.59044482751E+02  0.59044482807E+02  0.25500000000E-02 0. -1.
    5000001    1    1    2    0    0 -0.88918952768E+02  0.51064622303E+02  0.17486623491E+03  0.26137592835E+03  0.16500000000E+03 0.  0.
   -5000001    1    1    2    0    0  0.88918952768E+02 -0.51064622303E+02  0.58174116952E+03  0.61332044163E+03  0.16500000000E+03 0.  0.
<mgrwt>
<rscale>  0 0.43890657E+03</rscale>
<asrwt>0</asrwt>
<pdfrwt beam="1">  1        2 0.12548489E+00 0.43890657E+03</pdfrwt>
<pdfrwt beam="2">  1       -2 0.90837675E-02 0.43890657E+03</pdfrwt>
<totfact> 0.26879507E+03</totfact>
</mgrwt>
</event>
<event>
 4    1  0.1573232E-005  0.4251534E+03  0.7818608E-02  0.1035402E+00
          2   -1    0    0  501    0  0.00000000000E+00  0.00000000000E+00  0.38207930544E+03  0.38207930545E+03  0.25500000000E-02 0.  1.
         -2   -1    0    0    0  501 -0.00000000000E+00 -0.00000000000E+00 -0.11827085478E+03  0.11827085481E+03  0.25500000000E-02 0. -1.
    5000001    1    1    2    0    0 -0.88320086863E+02 -0.57719668433E+02  0.22917839348E+03  0.30146265756E+03  0.16500000000E+03 0.  0.
   -5000001    1    1    2    0    0  0.88320086863E+02  0.57719668433E+02  0.34630057176E+02  0.19888750269E+03  0.16500000000E+03 0.  0.
<mgrwt>
<rscale>  0 0.42515337E+03</rscale>
<asrwt>0</asrwt>
<pdfrwt beam="1">  1        2 0.58781431E-01 0.42515337E+03</pdfrwt>
<pdfrwt beam="2">  1       -2 0.18195516E-01 0.42515337E+03</pdfrwt>
<totfact> 0.20893510E+03</totfact>
</mgrwt>
</event>
<event>
 4    1  0.1573232E-005  0.6390369E+03  0.7818608E-02  0.9827571E-01
          2   -1    0    0  501    0  0.00000000000E+00  0.00000000000E+00  0.38721691345E+03  0.38721691346E+03  0.25500000000E-02 0.  1.
         -2   -1    0    0    0  501 -0.00000000000E+00 -0.00000000000E+00 -0.26365596257E+03  0.26365596258E+03  0.25500000000E-02 0. -1.
    5000001    1    1    2    0    0  0.15533877543E+03  0.22254686856E+03  0.26354015113E+02  0.31871111994E+03  0.16500000000E+03 0.  0.
   -5000001    1    1    2    0    0 -0.15533877543E+03 -0.22254686856E+03  0.97206935763E+02  0.33216175610E+03  0.16500000000E+03 0.  0.
<mgrwt>
<rscale>  0 0.63903693E+03</rscale>
<asrwt>0</asrwt>
<pdfrwt beam="1">  1        2 0.59571833E-01 0.63903693E+03</pdfrwt>
<pdfrwt beam="2">  1       -2 0.40562456E-01 0.63903693E+03</pdfrwt>
<totfact> 0.47853584E+02</totfact>
</mgrwt>
</event>
<event>
 4    1  0.1573232E-005  0.4813331E+03  0.7818608E-02  0.1018769E+00
          2   -1    0    0  501    0  0.00000000000E+00  0.00000000000E+00  0.59523102003E+03  0.59523102004E+03  0.25500000000E-02 0.  1.
         -2   -1    0    0    0  501 -0.00000000000E+00 -0.00000000000E+00 -0.97307426878E+02  0.97307426912E+02  0.25500000000E-02 0. -1.
    5000001    1    1    2    0    0 -0.16732684488E+03 -0.26229651649E+02  0.18447032551E+03  0.29990093137E+03  0.16500000000E+03 0.  0.
   -5000001    1    1    2    0    0  0.16732684488E+03  0.26229651649E+02  0.31345326765E+03  0.39263751558E+03  0.16500000000E+03 0.  0.
<mgrwt>
<rscale>  0 0.48133314E+03</rscale>
<asrwt>0</asrwt>
<pdfrwt beam="1">  1        2 0.91574003E-01 0.48133314E+03</pdfrwt>
<pdfrwt beam="2">  1       -2 0.14970373E-01 0.48133314E+03</pdfrwt>
<totfact> 0.17575972E+03</totfact>
</mgrwt>
</event>
<event>
 4    1  0.1573232E-005  0.3739115E+03  0.7818608E-02  0.1053207E+00
         -2   -1    0    0    0  501 -0.00000000000E+00  0.00000000000E+00  0.13311050785E+02  0.13311051029E+02  0.25500000000E-02 0. -1.
          2   -1    0    0  501    0  0.00000000000E+00 -0.00000000000E+00 -0.26258218195E+04  0.26258218195E+04  0.25500000000E-02 0.  1.
    5000001    1    1    2    0    0 -0.82510619165E+01  0.84390358635E+02 -0.11425977257E+04  0.11575596639E+04  0.16500000000E+03 0.  0.
   -5000001    1    1    2    0    0  0.82510619165E+01 -0.84390358635E+02 -0.14699130430E+04  0.14815732066E+04  0.16500000000E+03 0.  0.
<mgrwt>
<rscale>  0 0.37391148E+03</rscale>
<asrwt>0</asrwt>
<pdfrwt beam="1">  1        2 0.40397218E+00 0.37391148E+03</pdfrwt>
<pdfrwt beam="2">  1       -2 0.20478561E-02 0.37391148E+03</pdfrwt>
<totfact> 0.25299180E+03</totfact>
</mgrwt>
</event>
<event>
 4    1  0.1573232E-005  0.1319438E+04  0.7818608E-02  0.9014291E-01
          2   -1    0    0  501    0  0.00000000000E+00  0.00000000000E+00  0.92698840957E+03  0.92698840957E+03  0.25500000000E-02 0.  1.
         -2   -1    0    0    0  501 -0.00000000000E+00 -0.00000000000E+00 -0.46950872275E+03  0.46950872276E+03  0.25500000000E-02 0. -1.
    5000001    1    1    2    0    0  0.35884814408E+03 -0.16041960825E+03  0.76163047116E+03  0.87281866148E+03  0.16500000000E+03 0.  0.
   -5000001    1    1    2    0    0 -0.35884814408E+03  0.16041960825E+03 -0.30415078435E+03  0.52367847086E+03  0.16500000000E+03 0.  0.
<mgrwt>
<rscale>  0 0.13194380E+04</rscale>
<asrwt>0</asrwt>
<pdfrwt beam="1">  1        2 0.14261360E+00 0.13194380E+04</pdfrwt>
<pdfrwt beam="2">  1       -2 0.72232112E-01 0.13194380E+04</pdfrwt>
<totfact> 0.47779883E+01</totfact>
</mgrwt>
</event>
<event>
 4    1  0.1573232E-005  0.3864842E+03  0.7818608E-02  0.1048563E+00
          2   -1    0    0  501    0  0.00000000000E+00  0.00000000000E+00  0.15396930556E+04  0.15396930556E+04  0.25500000000E-02 0.  1.
         -2   -1    0    0    0  501 -0.00000000000E+00 -0.00000000000E+00 -0.24253218112E+02  0.24253218246E+02  0.25500000000E-02 0. -1.
    5000001    1    1    2    0    0  0.60381820583E+02  0.77090994985E+02  0.66468988332E+03  0.69182846627E+03  0.16500000000E+03 0.  0.
   -5000001    1    1    2    0    0 -0.60381820583E+02 -0.77090994985E+02  0.85074995416E+03  0.87211780756E+03  0.16500000000E+03 0.  0.
<mgrwt>
<rscale>  0 0.38648421E+03</rscale>
<asrwt>0</asrwt>
<pdfrwt beam="1">  1        2 0.23687583E+00 0.38648421E+03</pdfrwt>
<pdfrwt beam="2">  1       -2 0.37312647E-02 0.38648421E+03</pdfrwt>
<totfact> 0.39714408E+03</totfact>
</mgrwt>
</event>
<event>
 4    1  0.1573232E-005  0.5248674E+03  0.7818608E-02  0.1007485E+00
         -2   -1    0    0    0  501 -0.00000000000E+00  0.00000000000E+00  0.12883392740E+03  0.12883392742E+03  0.25500000000E-02 0. -1.
          2   -1    0    0  501    0  0.00000000000E+00 -0.00000000000E+00 -0.53457536377E+03  0.53457536378E+03  0.25500000000E-02 0.  1.
    5000001    1    1    2    0    0  0.70443519792E+02  0.15811027900E+03 -0.33950251481E+03  0.41526871706E+03  0.16500000000E+03 0.  0.
   -5000001    1    1    2    0    0 -0.70443519792E+02 -0.15811027900E+03 -0.66238921569E+02  0.24814057415E+03  0.16500000000E+03 0.  0.
<mgrwt>
<rscale>  0 0.52486739E+03</rscale>
<asrwt>0</asrwt>
<pdfrwt beam="1">  1        2 0.82242362E-01 0.52486739E+03</pdfrwt>
<pdfrwt beam="2">  1       -2 0.19820605E-01 0.52486739E+03</pdfrwt>
<totfact> 0.12358263E+03</totfact>
</mgrwt>
</event>
<event>
 4    1  0.1573232E-005  0.5052666E+03  0.7818608E-02  0.1012413E+00
         -2   -1    0    0    0  501 -0.00000000000E+00  0.00000000000E+00  0.36555628909E+02  0.36555628998E+02  0.25500000000E-02 0. -1.
          2   -1    0    0  501    0  0.00000000000E+00 -0.00000000000E+00 -0.17459306653E+04  0.17459306653E+04  0.25500000000E-02 0.  1.
    5000001    1    1    2    0    0  0.12627258944E+03  0.13074917437E+03 -0.64424288727E+03  0.68943020766E+03  0.16500000000E+03 0.  0.
   -5000001    1    1    2    0    0 -0.12627258944E+03 -0.13074917437E+03 -0.10651321491E+04  0.10930560866E+04  0.16500000000E+03 0.  0.
<mgrwt>
<rscale>  0 0.50526664E+03</rscale>
<asrwt>0</asrwt>
<pdfrwt beam="1">  1        2 0.26860465E+00 0.50526664E+03</pdfrwt>
<pdfrwt beam="2">  1       -2 0.56239443E-02 0.50526664E+03</pdfrwt>
<totfact> 0.16326799E+03</totfact>
</mgrwt>
</event>
<event>
 4    1  0.1573232E-005  0.5792565E+03  0.7818608E-02  0.9949402E-01
          2   -1    0    0  501    0  0.00000000000E+00  0.00000000000E+00  0.31813435690E+03  0.31813435691E+03  0.25500000000E-02 0.  1.
         -2   -1    0    0    0  501 -0.00000000000E+00 -0.00000000000E+00 -0.26367639520E+03  0.26367639522E+03  0.25500000000E-02 0. -1.
    5000001    1    1    2    0    0 -0.10022261563E+03 -0.20309800953E+03 -0.46348021052E+02  0.28401850858E+03  0.16500000000E+03 0.  0.
   -5000001    1    1    2    0    0  0.10022261563E+03  0.20309800953E+03  0.10080598274E+03  0.29779224355E+03  0.16500000000E+03 0.  0.
<mgrwt>
<rscale>  0 0.57925649E+03</rscale>
<asrwt>0</asrwt>
<pdfrwt beam="1">  1        2 0.48943748E-01 0.57925649E+03</pdfrwt>
<pdfrwt beam="2">  1       -2 0.40565599E-01 0.57925649E+03</pdfrwt>
<totfact> 0.59582390E+02</totfact>
</mgrwt>
</event>
<event>
 4    1  0.1573232E-005  0.5174679E+03  0.7818608E-02  0.1009318E+00
          2   -1    0    0  501    0  0.00000000000E+00  0.00000000000E+00  0.56476219925E+03  0.56476219926E+03  0.25500000000E-02 0.  1.
         -2   -1    0    0    0  501 -0.00000000000E+00 -0.00000000000E+00 -0.11853350674E+03  0.11853350677E+03  0.25500000000E-02 0. -1.
    5000001    1    1    2    0    0 -0.11378055173E+03  0.69609237284E+02  0.27584621396E+02  0.21395647035E+03  0.16500000000E+03 0.  0.
   -5000001    1    1    2    0    0  0.11378055173E+03 -0.69609237284E+02  0.41864407111E+03  0.46933923568E+03  0.16500000000E+03 0.  0.
<mgrwt>
<rscale>  0 0.51746785E+03</rscale>
<asrwt>0</asrwt>
<pdfrwt beam="1">  1        2 0.86886492E-01 0.51746785E+03</pdfrwt>
<pdfrwt beam="2">  1       -2 0.18235924E-01 0.51746785E+03</pdfrwt>
<totfact> 0.13383448E+03</totfact>
</mgrwt>
</event>
<event>
 4    1  0.1573232E-005  0.4319404E+03  0.7818608E-02  0.1033249E+00
         -2   -1    0    0    0  501 -0.00000000000E+00  0.00000000000E+00  0.96265299463E+02  0.96265299496E+02  0.25500000000E-02 0. -1.
          2   -1    0    0  501    0  0.00000000000E+00 -0.00000000000E+00 -0.48452700121E+03  0.48452700122E+03  0.25500000000E-02 0.  1.
    5000001    1    1    2    0    0  0.47469452766E+02 -0.11469998779E+03 -0.27926401944E+03  0.34730797385E+03  0.16500000000E+03 0.  0.
   -5000001    1    1    2    0    0 -0.47469452766E+02  0.11469998779E+03 -0.10899768231E+03  0.23348432687E+03  0.16500000000E+03 0.  0.
<mgrwt>
<rscale>  0 0.43194044E+03</rscale>
<asrwt>0</asrwt>
<pdfrwt beam="1">  1        2 0.74542614E-01 0.43194044E+03</pdfrwt>
<pdfrwt beam="2">  1       -2 0.14810046E-01 0.43194044E+03</pdfrwt>
<totfact> 0.22695389E+03</totfact>
</mgrwt>
</event>
<event>
 4    1  0.1573232E-005  0.3476321E+03  0.7818608E-02  0.1063591E+00
         -2   -1    0    0    0  501 -0.00000000000E+00  0.00000000000E+00  0.19159614439E+03  0.19159614441E+03  0.25500000000E-02 0. -1.
          2   -1    0    0  501    0  0.00000000000E+00 -0.00000000000E+00 -0.15768590136E+03  0.15768590138E+03  0.25500000000E-02 0.  1.
    5000001    1    1    2    0    0  0.12284811682E+02  0.53008729505E+02  0.11815303046E+02  0.17414202074E+03  0.16500000000E+03 0.  0.
   -5000001    1    1    2    0    0 -0.12284811682E+02 -0.53008729505E+02  0.22094939989E+02  0.17514002505E+03  0.16500000000E+03 0.  0.
<mgrwt>
<rscale>  0 0.34763205E+03</rscale>
<asrwt>0</asrwt>
<pdfrwt beam="1">  1        2 0.24259369E-01 0.34763205E+03</pdfrwt>
<pdfrwt beam="2">  1       -2 0.29476330E-01 0.34763205E+03</pdfrwt>
<totfact> 0.23605822E+03</totfact>
</mgrwt>
</event>
<event>
 4    1  0.1573232E-005  0.4843071E+03  0.7818608E-02  0.1017958E+00
         -2   -1    0    0    0  501 -0.00000000000E+00  0.00000000000E+00  0.24631597368E+03  0.24631597369E+03  0.25500000000E-02 0. -1.
          2   -1    0    0  501    0  0.00000000000E+00 -0.00000000000E+00 -0.23806150133E+03  0.23806150134E+03  0.25500000000E-02 0.  1.
    5000001    1    1    2    0    0  0.11292390049E+03 -0.13544004704E+03  0.21949388075E+02  0.24249245201E+03  0.16500000000E+03 0.  0.
   -5000001    1    1    2    0    0 -0.11292390049E+03  0.13544004704E+03 -0.13694915727E+02  0.24188502302E+03  0.16500000000E+03 0.  0.
<mgrwt>
<rscale>  0 0.48430714E+03</rscale>
<asrwt>0</asrwt>
<pdfrwt beam="1">  1        2 0.36624846E-01 0.48430714E+03</pdfrwt>
<pdfrwt beam="2">  1       -2 0.37894765E-01 0.48430714E+03</pdfrwt>
<totfact> 0.93607569E+02</totfact>
</mgrwt>
</event>
<event>
 4    1  0.1573232E-005  0.7783381E+03  0.7818608E-02  0.9591912E-01
          2   -1    0    0  501    0  0.00000000000E+00  0.00000000000E+00  0.18782159212E+04  0.18782159212E+04  0.25500000000E-02 0.  1.
         -2   -1    0    0    0  501 -0.00000000000E+00 -0.00000000000E+00 -0.80636389533E+02  0.80636389574E+02  0.25500000000E-02 0. -1.
    5000001    1    1    2    0    0 -0.12808878512E+02 -0.26555529942E+03  0.31643415343E+03  0.44501601980E+03  0.16500000000E+03 0.  0.
   -5000001    1    1    2    0    0  0.12808878512E+02  0.26555529942E+03  0.14811453783E+04  0.15138362910E+04  0.16500000000E+03 0.  0.
<mgrwt>
<rscale>  0 0.77833810E+03</rscale>
<asrwt>0</asrwt>
<pdfrwt beam="1">  1        2 0.28895625E+00 0.77833810E+03</pdfrwt>
<pdfrwt beam="2">  1       -2 0.12405600E-01 0.77833810E+03</pdfrwt>
<totfact> 0.38304901E+02</totfact>
</mgrwt>
</event>
<event>
 4    1  0.1573232E-005  0.3378652E+03  0.7818608E-02  0.1067709E+00
         -2   -1    0    0    0  501 -0.00000000000E+00  0.00000000000E+00  0.93088755154E+02  0.93088755189E+02  0.25500000000E-02 0. -1.
          2   -1    0    0  501    0  0.00000000000E+00 -0.00000000000E+00 -0.30656996750E+03  0.30656996751E+03  0.25500000000E-02 0.  1.
    5000001    1    1    2    0    0 -0.22326781111E+02 -0.21705328208E+02 -0.84813620946E+02  0.18811686986E+03  0.16500000000E+03 0.  0.
   -5000001    1    1    2    0    0  0.22326781111E+02  0.21705328208E+02 -0.12866759140E+03  0.21154185285E+03  0.16500000000E+03 0.  0.
<mgrwt>
<rscale>  0 0.33786516E+03</rscale>
<asrwt>0</asrwt>
<pdfrwt beam="1">  1        2 0.47164610E-01 0.33786516E+03</pdfrwt>
<pdfrwt beam="2">  1       -2 0.14321347E-01 0.33786516E+03</pdfrwt>
<totfact> 0.39574322E+03</totfact>
</mgrwt>
</event>
<event>
 4    1  0.1573232E-005  0.5023239E+03  0.7818608E-02  0.1013174E+00
         -2   -1    0    0    0  501 -0.00000000000E+00  0.00000000000E+00  0.12587695836E+03  0.12587695839E+03  0.25500000000E-02 0. -1.
          2   -1    0    0  501    0  0.00000000000E+00 -0.00000000000E+00 -0.50114280032E+03  0.50114280033E+03  0.25500000000E-02 0.  1.
    5000001    1    1    2    0    0 -0.12551564586E+03 -0.13706350370E+02 -0.36378617929E+03  0.41893606390E+03  0.16500000000E+03 0.  0.
   -5000001    1    1    2    0    0  0.12551564586E+03  0.13706350370E+02 -0.11479662673E+02  0.20808369482E+03  0.16500000000E+03 0.  0.
<mgrwt>
<rscale>  0 0.50232393E+03</rscale>
<asrwt>0</asrwt>
<pdfrwt beam="1">  1        2 0.77098891E-01 0.50232393E+03</pdfrwt>
<pdfrwt beam="2">  1       -2 0.19365686E-01 0.50232393E+03</pdfrwt>
<totfact> 0.13861835E+03</totfact>
</mgrwt>
</event>
<event>
 4    1  0.1573232E-005  0.4971916E+03  0.7818608E-02  0.1014515E+00
          2   -1    0    0  501    0  0.00000000000E+00  0.00000000000E+00  0.68887793769E+03  0.68887793769E+03  0.25500000000E-02 0.  1.
         -2   -1    0    0    0  501 -0.00000000000E+00 -0.00000000000E+00 -0.89710906205E+02  0.89710906241E+02  0.25500000000E-02 0. -1.
    5000001    1    1    2    0    0  0.10285505291E+03 -0.15061722458E+03  0.35626556786E+03  0.43291438540E+03  0.16500000000E+03 0.  0.
   -5000001    1    1    2    0    0 -0.10285505291E+03  0.15061722458E+03  0.24290146363E+03  0.34567445853E+03  0.16500000000E+03 0.  0.
<mgrwt>
<rscale>  0 0.49719157E+03</rscale>
<asrwt>0</asrwt>
<pdfrwt beam="1">  1        2 0.10598122E+00 0.49719157E+03</pdfrwt>
<pdfrwt beam="2">  1       -2 0.13801678E-01 0.49719157E+03</pdfrwt>
<totfact> 0.16866269E+03</totfact>
</mgrwt>
</event>
<event>
 4    1  0.1573232E-005  0.5398954E+03  0.7818608E-02  0.1003860E+00
         -2   -1    0    0    0  501 -0.00000000000E+00  0.00000000000E+00  0.12778009497E+04  0.12778009497E+04  0.25500000000E-02 0. -1.
          2   -1    0    0  501    0  0.00000000000E+00 -0.00000000000E+00 -0.57029039790E+02  0.57029039847E+02  0.25500000000E-02 0.  1.
    5000001    1    1    2    0    0 -0.41729675234E+02  0.18579081560E+03  0.37084287544E+03  0.44834030738E+03  0.16500000000E+03 0.  0.
   -5000001    1    1    2    0    0  0.41729675234E+02 -0.18579081560E+03  0.84992903447E+03  0.88648968217E+03  0.16500000000E+03 0.  0.
<mgrwt>
<rscale>  0 0.53989540E+03</rscale>
<asrwt>0</asrwt>
<pdfrwt beam="1">  1        2 0.87736988E-02 0.53989540E+03</pdfrwt>
<pdfrwt beam="2">  1       -2 0.19658475E+00 0.53989540E+03</pdfrwt>
<totfact> 0.11310052E+02</totfact>
</mgrwt>
</event>
<event>
 4    1  0.1573232E-005  0.1088455E+04  0.7818608E-02  0.9216518E-01
         -2   -1    0    0    0  501 -0.00000000000E+00  0.00000000000E+00  0.30874986833E+03  0.30874986834E+03  0.25500000000E-02 0. -1.
          2   -1    0    0  501    0  0.00000000000E+00 -0.00000000000E+00 -0.95929935118E+03  0.95929935118E+03  0.25500000000E-02 0.  1.
    5000001    1    1    2    0    0  0.52879293204E+02  0.38020957154E+03 -0.73152889363E+03  0.84244587966E+03  0.16500000000E+03 0.  0.
   -5000001    1    1    2    0    0 -0.52879293204E+02 -0.38020957154E+03  0.80979410777E+02  0.42560333987E+03  0.16500000000E+03 0.  0.
<mgrwt>
<rscale>  0 0.10884550E+04</rscale>
<asrwt>0</asrwt>
<pdfrwt beam="1">  1        2 0.14758451E+00 0.10884550E+04</pdfrwt>
<pdfrwt beam="2">  1       -2 0.47499980E-01 0.10884550E+04</pdfrwt>
<totfact> 0.11168080E+02</totfact>
</mgrwt>
</event>
<event>
 4    1  0.1573232E-005  0.1100686E+04  0.7818608E-02  0.9204524E-01
          2   -1    0    0  501    0  0.00000000000E+00  0.00000000000E+00  0.14618066634E+04  0.14618066634E+04  0.25500000000E-02 0.  1.
         -2   -1    0    0    0  501 -0.00000000000E+00 -0.00000000000E+00 -0.20719379402E+03  0.20719379403E+03  0.25500000000E-02 0. -1.
    5000001    1    1    2    0    0 -0.49869934538E+03  0.12741282545E+03  0.47033021738E+03  0.71649883360E+03  0.16500000000E+03 0.  0.
   -5000001    1    1    2    0    0  0.49869934538E+03 -0.12741282545E+03  0.78428265203E+03  0.95250162385E+03  0.16500000000E+03 0.  0.
<mgrwt>
<rscale>  0 0.11006857E+04</rscale>
<asrwt>0</asrwt>
<pdfrwt beam="1">  1        2 0.22489334E+00 0.11006857E+04</pdfrwt>
<pdfrwt beam="2">  1       -2 0.31875967E-01 0.11006857E+04</pdfrwt>
<totfact> 0.12111592E+02</totfact>
</mgrwt>
</event>
<event>
 4    1  0.1573232E-005  0.5373111E+03  0.7818608E-02  0.1004474E+00
         -2   -1    0    0    0  501 -0.00000000000E+00  0.00000000000E+00  0.51830682482E+03  0.51830682482E+03  0.25500000000E-02 0. -1.
          2   -1    0    0  501    0  0.00000000000E+00 -0.00000000000E+00 -0.13925306872E+03  0.13925306875E+03  0.25500000000E-02 0.  1.
    5000001    1    1    2    0    0 -0.16312244848E+03 -0.81172562285E+02  0.32219969502E+03  0.40525986914E+03  0.16500000000E+03 0.  0.
   -5000001    1    1    2    0    0  0.16312244848E+03  0.81172562285E+02  0.56854061070E+02  0.25230002443E+03  0.16500000000E+03 0.  0.
<mgrwt>
<rscale>  0 0.53731114E+03</rscale>
<asrwt>0</asrwt>
<pdfrwt beam="1">  1        2 0.21423549E-01 0.53731114E+03</pdfrwt>
<pdfrwt beam="2">  1       -2 0.79739511E-01 0.53731114E+03</pdfrwt>
<totfact> 0.36882546E+02</totfact>
</mgrwt>
</event>
<event>
 4    1  0.1573232E-005  0.6246151E+03  0.7818608E-02  0.9855614E-01
         -2   -1    0    0    0  501 -0.00000000000E+00  0.00000000000E+00  0.50498946990E+02  0.50498947055E+02  0.25500000000E-02 0.  1.
          2   -1    0    0  501    0  0.00000000000E+00 -0.00000000000E+00 -0.19314464916E+04  0.19314464916E+04  0.25500000000E-02 0. -1.
    5000001    1    1    2    0    0 -0.24942023880E+03 -0.58628704081E+02 -0.72379179876E+03  0.78533263552E+03  0.16500000000E+03 0.  0.
   -5000001    1    1    2    0    0  0.24942023880E+03  0.58628704081E+02 -0.11571557459E+04  0.11966128032E+04  0.16500000000E+03 0.  0.
<mgrwt>
<rscale>  0 0.62461513E+03</rscale>
<asrwt>0</asrwt>
<pdfrwt beam="1">  1        2 0.29714556E+00 0.62461513E+03</pdfrwt>
<pdfrwt beam="2">  1       -2 0.77690703E-02 0.62461513E+03</pdfrwt>
<totfact> 0.77454013E+02</totfact>
</mgrwt>
</event>
<event>
 4    1  0.1573232E-005  0.3902888E+03  0.7818608E-02  0.1047195E+00
         -2   -1    0    0    0  501 -0.00000000000E+00  0.00000000000E+00  0.14924191152E+03  0.14924191154E+03  0.25500000000E-02 0. -1.
          2   -1    0    0  501    0  0.00000000000E+00 -0.00000000000E+00 -0.25516514880E+03  0.25516514881E+03  0.25500000000E-02 0.  1.
    5000001    1    1    2    0    0  0.82656652245E+02 -0.61866813939E+02 -0.67494294420E+02  0.20600996240E+03  0.16500000000E+03 0.  0.
   -5000001    1    1    2    0    0 -0.82656652245E+02  0.61866813939E+02 -0.38428942863E+02  0.19839709796E+03  0.16500000000E+03 0.  0.
<mgrwt>
<rscale>  0 0.39028879E+03</rscale>
<asrwt>0</asrwt>
<pdfrwt beam="1">  1        2 0.39256177E-01 0.39028879E+03</pdfrwt>
<pdfrwt beam="2">  1       -2 0.22960294E-01 0.39028879E+03</pdfrwt>
<totfact> 0.21689291E+03</totfact>
</mgrwt>
</event>
<event>
 4    1  0.1573232E-005  0.5887751E+03  0.7818608E-02  0.9928972E-01
         -2   -1    0    0    0  501 -0.00000000000E+00  0.00000000000E+00  0.63274494877E+02  0.63274494928E+02  0.25500000000E-02 0. -1.
          2   -1    0    0  501    0  0.00000000000E+00 -0.00000000000E+00 -0.13696520682E+04  0.13696520682E+04  0.25500000000E-02 0.  1.
    5000001    1    1    2    0    0 -0.54124771615E+01 -0.20088578775E+03 -0.31723856432E+03  0.41018252196E+03  0.16500000000E+03 0.  0.
   -5000001    1    1    2    0    0  0.54124771615E+01  0.20088578775E+03 -0.98913900904E+03  0.10227440412E+04  0.16500000000E+03 0.  0.
<mgrwt>
<rscale>  0 0.58877514E+03</rscale>
<asrwt>0</asrwt>
<pdfrwt beam="1">  1        2 0.21071568E+00 0.58877514E+03</pdfrwt>
<pdfrwt beam="2">  1       -2 0.97345387E-02 0.58877514E+03</pdfrwt>
<totfact> 0.10971579E+03</totfact>
</mgrwt>
</event>
<event>
 4    1  0.1573232E-005  0.3825222E+03  0.7818608E-02  0.1050005E+00
         -2   -1    0    0    0  501 -0.00000000000E+00  0.00000000000E+00  0.40093320019E+02  0.40093320100E+02  0.25500000000E-02 0. -1.
          2   -1    0    0  501    0  0.00000000000E+00 -0.00000000000E+00 -0.91239160600E+03  0.91239160600E+03  0.25500000000E-02 0.  1.
    5000001    1    1    2    0    0 -0.68510074270E+02  0.59391754872E+02 -0.52002958656E+03  0.55306128207E+03  0.16500000000E+03 0.  0.
   -5000001    1    1    2    0    0  0.68510074270E+02 -0.59391754872E+02 -0.35226869941E+03  0.39942364403E+03  0.16500000000E+03 0.  0.
<mgrwt>
<rscale>  0 0.38252220E+03</rscale>
<asrwt>0</asrwt>
<pdfrwt beam="1">  1        2 0.14036792E+00 0.38252220E+03</pdfrwt>
<pdfrwt beam="2">  1       -2 0.61682038E-02 0.38252220E+03</pdfrwt>
<totfact> 0.42492746E+03</totfact>
</mgrwt>
</event>
<event>
 4    1  0.1573232E-005  0.5813908E+03  0.7818608E-02  0.9944785E-01
         -2   -1    0    0    0  501 -0.00000000000E+00  0.00000000000E+00  0.15270354067E+03  0.15270354069E+03  0.25500000000E-02 0. -1.
          2   -1    0    0  501    0  0.00000000000E+00 -0.00000000000E+00 -0.55338470350E+03  0.55338470351E+03  0.25500000000E-02 0.  1.
    5000001    1    1    2    0    0 -0.13382718412E+03 -0.19841240021E+03 -0.19880061944E+03  0.35217024584E+03  0.16500000000E+03 0.  0.
   -5000001    1    1    2    0    0  0.13382718412E+03  0.19841240021E+03 -0.20188054339E+03  0.35391799836E+03  0.16500000000E+03 0.  0.
<mgrwt>
<rscale>  0 0.58139076E+03</rscale>
<asrwt>0</asrwt>
<pdfrwt beam="1">  1        2 0.85136107E-01 0.58139076E+03</pdfrwt>
<pdfrwt beam="2">  1       -2 0.23492853E-01 0.58139076E+03</pdfrwt>
<totfact> 0.87995268E+02</totfact>
</mgrwt>
</event>
<event>
 4    1  0.1573232E-005  0.9254431E+03  0.7818608E-02  0.9394324E-01
          2   -1    0    0  501    0  0.00000000000E+00  0.00000000000E+00  0.46519114111E+03  0.46519114112E+03  0.25500000000E-02 0.  1.
         -2   -1    0    0    0  501 -0.00000000000E+00 -0.00000000000E+00 -0.46026507490E+03  0.46026507490E+03  0.25500000000E-02 0. -1.
    5000001    1    1    2    0    0  0.23046046593E+03  0.35793505931E+03  0.77675150807E+02  0.46312845096E+03  0.16500000000E+03 0.  0.
   -5000001    1    1    2    0    0 -0.23046046593E+03 -0.35793505931E+03 -0.72749084589E+02  0.46232776506E+03  0.16500000000E+03 0.  0.
<mgrwt>
<rscale>  0 0.92544311E+03</rscale>
<asrwt>0</asrwt>
<pdfrwt beam="1">  1        2 0.71567868E-01 0.92544311E+03</pdfrwt>
<pdfrwt beam="2">  1       -2 0.70810011E-01 0.92544311E+03</pdfrwt>
<totfact> 0.12170383E+02</totfact>
</mgrwt>
</event>
<event>
 4    1  0.1573232E-005  0.4770997E+03  0.7818608E-02  0.1019935E+00
          2   -1    0    0  501    0  0.00000000000E+00  0.00000000000E+00  0.25273051726E+04  0.25273051726E+04  0.25500000000E-02 0.  1.
         -2   -1    0    0    0  501 -0.00000000000E+00 -0.00000000000E+00 -0.22516484298E+02  0.22516484443E+02  0.25500000000E-02 0. -1.
    5000001    1    1    2    0    0 -0.90733128412E+02  0.98935093649E+02  0.67528658015E+03  0.70799549340E+03  0.16500000000E+03 0.  0.
   -5000001    1    1    2    0    0  0.90733128412E+02 -0.98935093649E+02  0.18295021082E+04  0.18418261637E+04  0.16500000000E+03 0.  0.
<mgrwt>
<rscale>  0 0.47709969E+03</rscale>
<asrwt>0</asrwt>
<pdfrwt beam="1">  1        2 0.38881600E+00 0.47709969E+03</pdfrwt>
<pdfrwt beam="2">  1       -2 0.34640762E-02 0.47709969E+03</pdfrwt>
<totfact> 0.12938586E+03</totfact>
</mgrwt>
</event>
<event>
 4    1  0.1573232E-005  0.5597599E+03  0.7818608E-02  0.9992598E-01
         -2   -1    0    0    0  501 -0.00000000000E+00  0.00000000000E+00  0.39695356387E+02  0.39695356469E+02  0.25500000000E-02 0. -1.
          2   -1    0    0  501    0  0.00000000000E+00 -0.00000000000E+00 -0.19733489026E+04  0.19733489026E+04  0.25500000000E-02 0.  1.
    5000001    1    1    2    0    0  0.82753823114E+02  0.16653726977E+03 -0.50452947255E+03  0.56245697270E+03  0.16500000000E+03 0.  0.
   -5000001    1    1    2    0    0 -0.82753823114E+02 -0.16653726977E+03 -0.14291240736E+04  0.14505872863E+04  0.16500000000E+03 0.  0.
<mgrwt>
<rscale>  0 0.55975991E+03</rscale>
<asrwt>0</asrwt>
<pdfrwt beam="1">  1        2 0.30359206E+00 0.55975991E+03</pdfrwt>
<pdfrwt beam="2">  1       -2 0.61069794E-02 0.55975991E+03</pdfrwt>
<totfact> 0.10795708E+03</totfact>
</mgrwt>
</event>
<event>
 4    1  0.1573232E-005  0.4882123E+03  0.7818608E-02  0.1016902E+00
         -2   -1    0    0    0  501 -0.00000000000E+00  0.00000000000E+00  0.52603163835E+02  0.52603163897E+02  0.25500000000E-02 0. -1.
          2   -1    0    0  501    0  0.00000000000E+00 -0.00000000000E+00 -0.11327798506E+04  0.11327798506E+04  0.25500000000E-02 0.  1.
    5000001    1    1    2    0    0  0.14244678246E+03  0.10970612823E+03 -0.52546300848E+03  0.57936421505E+03  0.16500000000E+03 0.  0.
   -5000001    1    1    2    0    0 -0.14244678246E+03 -0.10970612823E+03 -0.55471367830E+03  0.60601879946E+03  0.16500000000E+03 0.  0.
<mgrwt>
<rscale>  0 0.48821227E+03</rscale>
<asrwt>0</asrwt>
<pdfrwt beam="1">  1        2 0.17427381E+00 0.48821227E+03</pdfrwt>
<pdfrwt beam="2">  1       -2 0.80927953E-02 0.48821227E+03</pdfrwt>
<totfact> 0.20269098E+03</totfact>
</mgrwt>
</event>
<event>
 4    1  0.1573232E-005  0.3972158E+03  0.7818608E-02  0.1044748E+00
         -2   -1    0    0    0  501 -0.00000000000E+00  0.00000000000E+00  0.50434658233E+03  0.50434658234E+03  0.25500000000E-02 0. -1.
          2   -1    0    0  501    0  0.00000000000E+00 -0.00000000000E+00 -0.78210315492E+02  0.78210315534E+02  0.25500000000E-02 0.  1.
    5000001    1    1    2    0    0  0.33541175273E+02  0.10482849788E+03  0.22817347152E+03  0.30232789735E+03  0.16500000000E+03 0.  0.
   -5000001    1    1    2    0    0 -0.33541175273E+02 -0.10482849788E+03  0.19796279531E+03  0.28022900053E+03  0.16500000000E+03 0.  0.
<mgrwt>
<rscale>  0 0.39721584E+03</rscale>
<asrwt>0</asrwt>
<pdfrwt beam="1">  1        2 0.12032357E-01 0.39721584E+03</pdfrwt>
<pdfrwt beam="2">  1       -2 0.77591779E-01 0.39721584E+03</pdfrwt>
<totfact> 0.78123358E+02</totfact>
</mgrwt>
</event>
<event>
 4    1  0.1573232E-005  0.4390080E+03  0.7818608E-02  0.1031052E+00
          2   -1    0    0  501    0  0.00000000000E+00  0.00000000000E+00  0.99586106194E+03  0.99586106195E+03  0.25500000000E-02 0.  1.
         -2   -1    0    0    0  501 -0.00000000000E+00 -0.00000000000E+00 -0.48382246590E+02  0.48382246657E+02  0.25500000000E-02 0. -1.
    5000001    1    1    2    0    0  0.75505319611E+01  0.13727455864E+03  0.36589264219E+03  0.42426847702E+03  0.16500000000E+03 0.  0.
   -5000001    1    1    2    0    0 -0.75505319611E+01 -0.13727455864E+03  0.58158617317E+03  0.61997483159E+03  0.16500000000E+03 0.  0.
<mgrwt>
<rscale>  0 0.43900795E+03</rscale>
<asrwt>0</asrwt>
<pdfrwt beam="1">  1        2 0.15320940E+00 0.43900795E+03</pdfrwt>
<pdfrwt beam="2">  1       -2 0.74434223E-02 0.43900795E+03</pdfrwt>
<totfact> 0.28046956E+03</totfact>
</mgrwt>
</event>
<event>
 4    1  0.1573232E-005  0.3523723E+03  0.7818608E-02  0.1061646E+00
         -2   -1    0    0    0  501 -0.00000000000E+00  0.00000000000E+00  0.27600170797E+02  0.27600170915E+02  0.25500000000E-02 0. -1.
          2   -1    0    0  501    0  0.00000000000E+00 -0.00000000000E+00 -0.11246874605E+04  0.11246874605E+04  0.25500000000E-02 0.  1.
    5000001    1    1    2    0    0  0.45478413455E+02 -0.35320560470E+02 -0.47536836984E+03  0.50647400242E+03  0.16500000000E+03 0.  0.
   -5000001    1    1    2    0    0 -0.45478413455E+02  0.35320560470E+02 -0.62171891982E+03  0.64581362896E+03  0.16500000000E+03 0.  0.
<mgrwt>
<rscale>  0 0.35237234E+03</rscale>
<asrwt>0</asrwt>
<pdfrwt beam="1">  1        2 0.17302880E+00 0.35237234E+03</pdfrwt>
<pdfrwt beam="2">  1       -2 0.42461810E-02 0.35237234E+03</pdfrwt>
<totfact> 0.55693764E+03</totfact>
</mgrwt>
</event>
<event>
 4    1  0.1573232E-005  0.4112988E+03  0.7818608E-02  0.1039936E+00
         -2   -1    0    0    0  501 -0.00000000000E+00  0.00000000000E+00  0.11870024152E+02  0.11870024426E+02  0.25500000000E-02 0. -1.
          2   -1    0    0  501    0  0.00000000000E+00 -0.00000000000E+00 -0.35628971818E+04  0.35628971818E+04  0.25500000000E-02 0.  1.
    5000001    1    1    2    0    0  0.45399126067E+02  0.44099328498E+02 -0.26895941280E+04  0.26953937384E+04  0.16500000000E+03 0.  0.
   -5000001    1    1    2    0    0 -0.45399126067E+02 -0.44099328498E+02 -0.86143302969E+03  0.87937346791E+03  0.16500000000E+03 0.  0.
<mgrwt>
<rscale>  0 0.41129880E+03</rscale>
<asrwt>0</asrwt>
<pdfrwt beam="1">  1        2 0.54813718E+00 0.41129880E+03</pdfrwt>
<pdfrwt beam="2">  1       -2 0.18261604E-02 0.41129880E+03</pdfrwt>
<totfact> 0.79242454E+02</totfact>
</mgrwt>
</event>
<event>
 4    1  0.1573232E-005  0.3924135E+03  0.7818608E-02  0.1046439E+00
          2   -1    0    0  501    0  0.00000000000E+00  0.00000000000E+00  0.12263400436E+04  0.12263400436E+04  0.25500000000E-02 0.  1.
         -2   -1    0    0    0  501 -0.00000000000E+00 -0.00000000000E+00 -0.31391862440E+02  0.31391862544E+02  0.25500000000E-02 0. -1.
    5000001    1    1    2    0    0 -0.45271912896E+02  0.92157692378E+02  0.68404265272E+03  0.71111316758E+03  0.16500000000E+03 0.  0.
   -5000001    1    1    2    0    0  0.45271912896E+02 -0.92157692378E+02  0.51090552839E+03  0.54661873852E+03  0.16500000000E+03 0.  0.
<mgrwt>
<rscale>  0 0.39241355E+03</rscale>
<asrwt>0</asrwt>
<pdfrwt beam="1">  1        2 0.18866771E+00 0.39241355E+03</pdfrwt>
<pdfrwt beam="2">  1       -2 0.48295171E-02 0.39241355E+03</pdfrwt>
<totfact> 0.39983824E+03</totfact>
</mgrwt>
</event>
<event>
 4    1  0.1573232E-005  0.3993386E+03  0.7818608E-02  0.1044009E+00
         -2   -1    0    0    0  501 -0.00000000000E+00  0.00000000000E+00  0.41446564055E+02  0.41446564133E+02  0.25500000000E-02 0. -1.
          2   -1    0    0  501    0  0.00000000000E+00 -0.00000000000E+00 -0.96190896890E+03  0.96190896890E+03  0.25500000000E-02 0.  1.
    5000001    1    1    2    0    0 -0.87714461247E+01  0.10372861923E+03 -0.35344789343E+03  0.40371645753E+03  0.16500000000E+03 0.  0.
   -5000001    1    1    2    0    0  0.87714461247E+01 -0.10372861923E+03 -0.56701451141E+03  0.59963907550E+03  0.16500000000E+03 0.  0.
<mgrwt>
<rscale>  0 0.39933856E+03</rscale>
<asrwt>0</asrwt>
<pdfrwt beam="1">  1        2 0.14798598E+00 0.39933856E+03</pdfrwt>
<pdfrwt beam="2">  1       -2 0.63763952E-02 0.39933856E+03</pdfrwt>
<totfact> 0.37522370E+03</totfact>
</mgrwt>
</event>
<event>
 4    1  0.1573232E-005  0.7303769E+03  0.7818608E-02  0.9666649E-01
         -2   -1    0    0    0  501 -0.00000000000E+00  0.00000000000E+00  0.11155855214E+03  0.11155855217E+03  0.25500000000E-02 0. -1.
          2   -1    0    0  501    0  0.00000000000E+00 -0.00000000000E+00 -0.11954495551E+04  0.11954495551E+04  0.25500000000E-02 0.  1.
    5000001    1    1    2    0    0  0.32963806746E+02  0.31179072742E+03 -0.70036966453E+03  0.78488390049E+03  0.16500000000E+03 0.  0.
   -5000001    1    1    2    0    0 -0.32963806746E+02 -0.31179072742E+03 -0.38352133841E+03  0.52212420675E+03  0.16500000000E+03 0.  0.
<mgrwt>
<rscale>  0 0.73037695E+03</rscale>
<asrwt>0</asrwt>
<pdfrwt beam="1">  1        2 0.18391531E+00 0.73037695E+03</pdfrwt>
<pdfrwt beam="2">  1       -2 0.17162855E-01 0.73037695E+03</pdfrwt>
<totfact> 0.53509135E+02</totfact>
</mgrwt>
</event>
<event>
 4    1  0.1573232E-005  0.6295945E+03  0.7818608E-02  0.9845840E-01
         -2   -1    0    0    0  501 -0.00000000000E+00  0.00000000000E+00  0.62739140364E+02  0.62739140415E+02  0.25500000000E-02 0. -1.
          2   -1    0    0  501    0  0.00000000000E+00 -0.00000000000E+00 -0.15795133096E+04  0.15795133096E+04  0.25500000000E-02 0.  1.
    5000001    1    1    2    0    0  0.77595433393E+02  0.24640034891E+03 -0.57141305470E+03  0.64843817154E+03  0.16500000000E+03 0.  0.
   -5000001    1    1    2    0    0 -0.77595433393E+02 -0.24640034891E+03 -0.94536111449E+03  0.99381427843E+03  0.16500000000E+03 0.  0.
<mgrwt>
<rscale>  0 0.62959450E+03</rscale>
<asrwt>0</asrwt>
<pdfrwt beam="1">  1        2 0.24300202E+00 0.62959450E+03</pdfrwt>
<pdfrwt beam="2">  1       -2 0.96521766E-02 0.62959450E+03</pdfrwt>
<totfact> 0.84901107E+02</totfact>
</mgrwt>
</event>
<event>
 4    1  0.1573232E-005  0.5174415E+03  0.7818608E-02  0.1009324E+00
          2   -1    0    0  501    0  0.00000000000E+00  0.00000000000E+00  0.24700415333E+03  0.24700415334E+03  0.25500000000E-02 0.  1.
         -2   -1    0    0    0  501 -0.00000000000E+00 -0.00000000000E+00 -0.27099307598E+03  0.27099307599E+03  0.25500000000E-02 0. -1.
    5000001    1    1    2    0    0  0.25244213501E+02 -0.17983477203E+03  0.70152190128E+02  0.25519432855E+03  0.16500000000E+03 0.  0.
   -5000001    1    1    2    0    0 -0.25244213501E+02  0.17983477203E+03 -0.94141112778E+02  0.26280290078E+03  0.16500000000E+03 0.  0.
<mgrwt>
<rscale>  0 0.51744146E+03</rscale>
<asrwt>0</asrwt>
<pdfrwt beam="1">  1        2 0.38000639E-01 0.51744146E+03</pdfrwt>
<pdfrwt beam="2">  1       -2 0.41691242E-01 0.51744146E+03</pdfrwt>
<totfact> 0.74717671E+02</totfact>
</mgrwt>
</event>
<event>
 4    1  0.1573232E-005  0.4675718E+03  0.7818608E-02  0.1022608E+00
         -2   -1    0    0    0  501 -0.00000000000E+00  0.00000000000E+00  0.80801448061E+02  0.80801448101E+02  0.25500000000E-02 0. -1.
          2   -1    0    0  501    0  0.00000000000E+00 -0.00000000000E+00 -0.67642175160E+03  0.67642175160E+03  0.25500000000E-02 0.  1.
    5000001    1    1    2    0    0  0.15275375472E+03  0.26637291697E+02 -0.20355138321E+03  0.30446907970E+03  0.16500000000E+03 0.  0.
   -5000001    1    1    2    0    0 -0.15275375472E+03 -0.26637291697E+02 -0.39206892033E+03  0.45275412000E+03  0.16500000000E+03 0.  0.
<mgrwt>
<rscale>  0 0.46757184E+03</rscale>
<asrwt>0</asrwt>
<pdfrwt beam="1">  1        2 0.10406488E+00 0.46757184E+03</pdfrwt>
<pdfrwt beam="2">  1       -2 0.12430992E-01 0.46757184E+03</pdfrwt>
<totfact> 0.20503393E+03</totfact>
</mgrwt>
</event>
<event>
 4    1  0.1573232E-005  0.7734629E+03  0.7818608E-02  0.9599243E-01
         -2   -1    0    0    0  501 -0.00000000000E+00  0.00000000000E+00  0.24474758365E+03  0.24474758366E+03  0.25500000000E-02 0. -1.
          2   -1    0    0  501    0  0.00000000000E+00 -0.00000000000E+00 -0.61108350965E+03  0.61108350965E+03  0.25500000000E-02 0.  1.
    5000001    1    1    2    0    0  0.37117282306E+02 -0.34672024022E+03 -0.21334084135E+03  0.44083095650E+03  0.16500000000E+03 0.  0.
   -5000001    1    1    2    0    0 -0.37117282306E+02  0.34672024022E+03 -0.15299508465E+03  0.41500013681E+03  0.16500000000E+03 0.  0.
<mgrwt>
<rscale>  0 0.77346289E+03</rscale>
<asrwt>0</asrwt>
<pdfrwt beam="1">  1        2 0.94012847E-01 0.77346289E+03</pdfrwt>
<pdfrwt beam="2">  1       -2 0.37653474E-01 0.77346289E+03</pdfrwt>
<totfact> 0.32479212E+02</totfact>
</mgrwt>
</event>
<event>
 4    1  0.1573232E-005  0.4257533E+03  0.7818608E-02  0.1035210E+00
          2   -1    0    0  501    0  0.00000000000E+00  0.00000000000E+00  0.18887202333E+03  0.18887202335E+03  0.25500000000E-02 0.  1.
         -2   -1    0    0    0  501 -0.00000000000E+00 -0.00000000000E+00 -0.23993215686E+03  0.23993215688E+03  0.25500000000E-02 0. -1.
    5000001    1    1    2    0    0 -0.28250628763E+02  0.12020356686E+03  0.28185744412E+02  0.20800584535E+03  0.16500000000E+03 0.  0.
   -5000001    1    1    2    0    0  0.28250628763E+02 -0.12020356686E+03 -0.79245877943E+02  0.22079833487E+03  0.16500000000E+03 0.  0.
<mgrwt>
<rscale>  0 0.42575332E+03</rscale>
<asrwt>0</asrwt>
<pdfrwt beam="1">  1        2 0.29057234E-01 0.42575332E+03</pdfrwt>
<pdfrwt beam="2">  1       -2 0.36912640E-01 0.42575332E+03</pdfrwt>
<totfact> 0.12717124E+03</totfact>
</mgrwt>
</event>
<event>
 4    1  0.1573232E-005  0.3559329E+03  0.7818608E-02  0.1060206E+00
         -2   -1    0    0    0  501 -0.00000000000E+00  0.00000000000E+00  0.23742302227E+02  0.23742302364E+02  0.25500000000E-02 0. -1.
          2   -1    0    0  501    0  0.00000000000E+00 -0.00000000000E+00 -0.13339923990E+04  0.13339923990E+04  0.25500000000E-02 0.  1.
    5000001    1    1    2    0    0 -0.42048603811E+02  0.29390567398E+02 -0.81764411443E+03  0.83570257174E+03  0.16500000000E+03 0.  0.
   -5000001    1    1    2    0    0  0.42048603811E+02 -0.29390567398E+02 -0.49260598237E+03  0.52203212966E+03  0.16500000000E+03 0.  0.
<mgrwt>
<rscale>  0 0.35593286E+03</rscale>
<asrwt>0</asrwt>
<pdfrwt beam="1">  1        2 0.20522954E+00 0.35593286E+03</pdfrwt>
<pdfrwt beam="2">  1       -2 0.36526629E-02 0.35593286E+03</pdfrwt>
<totfact> 0.53141694E+03</totfact>
</mgrwt>
</event>
<event>
 4    1  0.1573232E-005  0.5017810E+03  0.7818608E-02  0.1013315E+00
          2   -1    0    0  501    0  0.00000000000E+00  0.00000000000E+00  0.71299716427E+03  0.71299716428E+03  0.25500000000E-02 0.  1.
         -2   -1    0    0    0  501 -0.00000000000E+00 -0.00000000000E+00 -0.88283738921E+02  0.88283738958E+02  0.25500000000E-02 0. -1.
    5000001    1    1    2    0    0  0.53478381296E+01 -0.80847512526E+02  0.39687867258E+02  0.18805596630E+03  0.16500000000E+03 0.  0.
   -5000001    1    1    2    0    0 -0.53478381296E+01  0.80847512526E+02  0.58502555809E+03  0.61322493693E+03  0.16500000000E+03 0.  0.
<mgrwt>
<rscale>  0 0.50178105E+03</rscale>
<asrwt>0</asrwt>
<pdfrwt beam="1">  1        2 0.10969188E+00 0.50178105E+03</pdfrwt>
<pdfrwt beam="2">  1       -2 0.13582113E-01 0.50178105E+03</pdfrwt>
<totfact> 0.16595111E+03</totfact>
</mgrwt>
</event>
<event>
 4    1  0.1573232E-005  0.6173435E+03  0.7818608E-02  0.9870063E-01
          2   -1    0    0  501    0  0.00000000000E+00  0.00000000000E+00  0.63436246454E+03  0.63436246454E+03  0.25500000000E-02 0.  1.
         -2   -1    0    0    0  501 -0.00000000000E+00 -0.00000000000E+00 -0.15019528940E+03  0.15019528942E+03  0.25500000000E-02 0. -1.
    5000001    1    1    2    0    0 -0.93796066824E+02 -0.22539759542E+03  0.35891625820E+03  0.46437878781E+03  0.16500000000E+03 0.  0.
   -5000001    1    1    2    0    0  0.93796066824E+02  0.22539759542E+03  0.12525091694E+03  0.32017896615E+03  0.16500000000E+03 0.  0.
<mgrwt>
<rscale>  0 0.61734352E+03</rscale>
<asrwt>0</asrwt>
<pdfrwt beam="1">  1        2 0.97594225E-01 0.61734352E+03</pdfrwt>
<pdfrwt beam="2">  1       -2 0.23106968E-01 0.61734352E+03</pdfrwt>
<totfact> 0.76929837E+02</totfact>
</mgrwt>
</event>
<event>
 4    1  0.1573232E-005  0.4301553E+03  0.7818608E-02  0.1033811E+00
          2   -1    0    0  501    0  0.00000000000E+00  0.00000000000E+00  0.14453091101E+04  0.14453091101E+04  0.25500000000E-02 0.  1.
         -2   -1    0    0    0  501 -0.00000000000E+00 -0.00000000000E+00 -0.32005883087E+02  0.32005883189E+02  0.25500000000E-02 0. -1.
    5000001    1    1    2    0    0 -0.79288126469E+02 -0.10028207346E+03  0.52851727682E+03  0.56824168551E+03  0.16500000000E+03 0.  0.
   -5000001    1    1    2    0    0  0.79288126469E+02  0.10028207346E+03  0.88478595021E+03  0.90907330779E+03  0.16500000000E+03 0.  0.
<mgrwt>
<rscale>  0 0.43015530E+03</rscale>
<asrwt>0</asrwt>
<pdfrwt beam="1">  1        2 0.22235523E+00 0.43015530E+03</pdfrwt>
<pdfrwt beam="2">  1       -2 0.49239825E-02 0.43015530E+03</pdfrwt>
<totfact> 0.29262901E+03</totfact>
</mgrwt>
</event>
<event>
 4    1  0.1573232E-005  0.4413628E+03  0.7818608E-02  0.1030329E+00
         -2   -1    0    0    0  501 -0.00000000000E+00  0.00000000000E+00  0.45033354549E+02  0.45033354621E+02  0.25500000000E-02 0. -1.
          2   -1    0    0  501    0  0.00000000000E+00 -0.00000000000E+00 -0.10814270056E+04  0.10814270056E+04  0.25500000000E-02 0.  1.
    5000001    1    1    2    0    0 -0.14497901759E+03  0.20278668039E+02 -0.53534544878E+03  0.57900767650E+03  0.16500000000E+03 0.  0.
   -5000001    1    1    2    0    0  0.14497901759E+03 -0.20278668039E+02 -0.50104820229E+03  0.54745268374E+03  0.16500000000E+03 0.  0.
<mgrwt>
<rscale>  0 0.44136282E+03</rscale>
<asrwt>0</asrwt>
<pdfrwt beam="1">  1        2 0.16637337E+00 0.44136282E+03</pdfrwt>
<pdfrwt beam="2">  1       -2 0.69282092E-02 0.44136282E+03</pdfrwt>
<totfact> 0.27812813E+03</totfact>
</mgrwt>
</event>
<event>
 4    1  0.1573232E-005  0.4782217E+03  0.7818608E-02  0.1019625E+00
          2   -1    0    0  501    0  0.00000000000E+00  0.00000000000E+00  0.67606003467E+03  0.67606003468E+03  0.25500000000E-02 0.  1.
         -2   -1    0    0    0  501 -0.00000000000E+00 -0.00000000000E+00 -0.84569406725E+02  0.84569406763E+02  0.25500000000E-02 0. -1.
    5000001    1    1    2    0    0 -0.64880563675E+01 -0.94932644132E+02  0.65833190545E+02  0.20152744422E+03  0.16500000000E+03 0.  0.
   -5000001    1    1    2    0    0  0.64880563675E+01  0.94932644132E+02  0.52565743740E+03  0.55910199722E+03  0.16500000000E+03 0.  0.
<mgrwt>
<rscale>  0 0.47822169E+03</rscale>
<asrwt>0</asrwt>
<pdfrwt beam="1">  1        2 0.10400924E+00 0.47822169E+03</pdfrwt>
<pdfrwt beam="2">  1       -2 0.13010678E-01 0.47822169E+03</pdfrwt>
<totfact> 0.19034407E+03</totfact>
</mgrwt>
</event>
<event>
 4    1  0.1573232E-005  0.5706502E+03  0.7818608E-02  0.9968241E-01
         -2   -1    0    0    0  501 -0.00000000000E+00  0.00000000000E+00  0.47092268346E+02  0.47092268415E+02  0.25500000000E-02 0. -1.
          2   -1    0    0  501    0  0.00000000000E+00 -0.00000000000E+00 -0.17287427488E+04  0.17287427488E+04  0.25500000000E-02 0.  1.
    5000001    1    1    2    0    0  0.99988971952E+02 -0.19536197840E+03 -0.59934672524E+03  0.65924623182E+03  0.16500000000E+03 0.  0.
   -5000001    1    1    2    0    0 -0.99988971952E+02  0.19536197840E+03 -0.10823037552E+04  0.11165887854E+04  0.16500000000E+03 0.  0.
<mgrwt>
<rscale>  0 0.57065022E+03</rscale>
<asrwt>0</asrwt>
<pdfrwt beam="1">  1        2 0.26596037E+00 0.57065022E+03</pdfrwt>
<pdfrwt beam="2">  1       -2 0.72449657E-02 0.57065022E+03</pdfrwt>
<totfact> 0.11175680E+03</totfact>
</mgrwt>
</event>
<event>
 4    1  0.1573232E-005  0.6073634E+03  0.7818608E-02  0.9890246E-01
          2   -1    0    0  501    0  0.00000000000E+00  0.00000000000E+00  0.22444980180E+03  0.22444980181E+03  0.25500000000E-02 0.  1.
         -2   -1    0    0    0  501 -0.00000000000E+00 -0.00000000000E+00 -0.41088283561E+03  0.41088283562E+03  0.25500000000E-02 0. -1.
    5000001    1    1    2    0    0  0.23022169148E+03  0.61234726673E+02 -0.18820486309E+03  0.34553985222E+03  0.16500000000E+03 0.  0.
   -5000001    1    1    2    0    0 -0.23022169148E+03 -0.61234726673E+02  0.17718292832E+01  0.28979278521E+03  0.16500000000E+03 0.  0.
<mgrwt>
<rscale>  0 0.60736339E+03</rscale>
<asrwt>0</asrwt>
<pdfrwt beam="1">  1        2 0.34530739E-01 0.60736339E+03</pdfrwt>
<pdfrwt beam="2">  1       -2 0.63212744E-01 0.60736339E+03</pdfrwt>
<totfact> 0.35551044E+02</totfact>
</mgrwt>
</event>
<event>
 4    1  0.1573232E-005  0.3902142E+03  0.7818608E-02  0.1047222E+00
          2   -1    0    0  501    0  0.00000000000E+00  0.00000000000E+00  0.45764849757E+04  0.45764849757E+04  0.25500000000E-02 0.  1.
         -2   -1    0    0    0  501 -0.00000000000E+00 -0.00000000000E+00 -0.83179097155E+01  0.83179101064E+01  0.25500000000E-02 0. -1.
    5000001    1    1    2    0    0  0.37163920879E+02 -0.61192986550E+02  0.31723956756E+04  0.31774903715E+04  0.16500000000E+03 0.  0.
   -5000001    1    1    2    0    0 -0.37163920879E+02  0.61192986550E+02  0.13957713904E+04  0.14073125143E+04  0.16500000000E+03 0.  0.
<mgrwt>
<rscale>  0 0.39021425E+03</rscale>
<asrwt>0</asrwt>
<pdfrwt beam="1">  1        2 0.70407356E+00 0.39021425E+03</pdfrwt>
<pdfrwt beam="2">  1       -2 0.12796804E-02 0.39021425E+03</pdfrwt>
<totfact> 0.20616152E+02</totfact>
</mgrwt>
</event>
<event>
 4    1  0.1573232E-005  0.4277583E+03  0.7818608E-02  0.1034570E+00
          2   -1    0    0  501    0  0.00000000000E+00  0.00000000000E+00  0.35709688713E+04  0.35709688713E+04  0.25500000000E-02 0.  1.
         -2   -1    0    0    0  501 -0.00000000000E+00 -0.00000000000E+00 -0.12810048382E+02  0.12810048636E+02  0.25500000000E-02 0. -1.
    5000001    1    1    2    0    0  0.80853548165E+02  0.10372320136E+03  0.14860290593E+04  0.15009340971E+04  0.16500000000E+03 0.  0.
   -5000001    1    1    2    0    0 -0.80853548165E+02 -0.10372320136E+03  0.20721297637E+04  0.20828448229E+04  0.16500000000E+03 0.  0.
<mgrwt>
<rscale>  0 0.42775827E+03</rscale>
<asrwt>0</asrwt>
<pdfrwt beam="1">  1        2 0.54938025E+00 0.42775827E+03</pdfrwt>
<pdfrwt beam="2">  1       -2 0.19707752E-02 0.42775827E+03</pdfrwt>
<totfact> 0.69680875E+02</totfact>
</mgrwt>
</event>
<event>
 4    1  0.1573232E-005  0.5586936E+03  0.7818608E-02  0.9995015E-01
         -2   -1    0    0    0  501 -0.00000000000E+00  0.00000000000E+00  0.14030957234E+03  0.14030957236E+03  0.25500000000E-02 0. -1.
          2   -1    0    0  501    0  0.00000000000E+00 -0.00000000000E+00 -0.55616053714E+03  0.55616053714E+03  0.25500000000E-02 0.  1.
    5000001    1    1    2    0    0  0.10496228029E+03  0.13974161784E+03 -0.38538545778E+03  0.45419351725E+03  0.16500000000E+03 0.  0.
   -5000001    1    1    2    0    0 -0.10496228029E+03 -0.13974161784E+03 -0.30465507017E+02  0.24227659226E+03  0.16500000000E+03 0.  0.
<mgrwt>
<rscale>  0 0.55869364E+03</rscale>
<asrwt>0</asrwt>
<pdfrwt beam="1">  1        2 0.85563159E-01 0.55869364E+03</pdfrwt>
<pdfrwt beam="2">  1       -2 0.21586088E-01 0.55869364E+03</pdfrwt>
<totfact> 0.10163444E+03</totfact>
</mgrwt>
</event>
<event>
 4    1  0.1573232E-005  0.5055941E+03  0.7818608E-02  0.1012329E+00
          2   -1    0    0  501    0  0.00000000000E+00  0.00000000000E+00  0.11211671091E+04  0.11211671091E+04  0.25500000000E-02 0. -1.
         -2   -1    0    0    0  501 -0.00000000000E+00 -0.00000000000E+00 -0.56999844832E+02  0.56999844889E+02  0.25500000000E-02 0.  1.
    5000001    1    1    2    0    0  0.10570887857E+03  0.40328006098E+02  0.17197977213E+03  0.26382334451E+03  0.16500000000E+03 0.  0.
   -5000001    1    1    2    0    0 -0.10570887857E+03 -0.40328006098E+02  0.89218749218E+03  0.91434360953E+03  0.16500000000E+03 0.  0.
<mgrwt>
<rscale>  0 0.50559411E+03</rscale>
<asrwt>0</asrwt>
<pdfrwt beam="1">  1        2 0.17248724E+00 0.50559411E+03</pdfrwt>
<pdfrwt beam="2">  1       -2 0.87692072E-02 0.50559411E+03</pdfrwt>
<totfact> 0.18117440E+03</totfact>
</mgrwt>
</event>
<event>
 4    1  0.1573232E-005  0.7974814E+03  0.7818608E-02  0.9563670E-01
         -2   -1    0    0    0  501 -0.00000000000E+00  0.00000000000E+00  0.78839412582E+03  0.78839412583E+03  0.25500000000E-02 0. -1.
          2   -1    0    0  501    0  0.00000000000E+00 -0.00000000000E+00 -0.20166833599E+03  0.20166833601E+03  0.25500000000E-02 0.  1.
    5000001    1    1    2    0    0 -0.34077960329E+03 -0.90435388839E+02  0.40059050598E+03  0.55857591342E+03  0.16500000000E+03 0.  0.
   -5000001    1    1    2    0    0  0.34077960329E+03  0.90435388839E+02  0.18613528385E+03  0.43148654842E+03  0.16500000000E+03 0.  0.
<mgrwt>
<rscale>  0 0.79748136E+03</rscale>
<asrwt>0</asrwt>
<pdfrwt beam="1">  1        2 0.31025898E-01 0.79748136E+03</pdfrwt>
<pdfrwt beam="2">  1       -2 0.12129140E+00 0.79748136E+03</pdfrwt>
<totfact> 0.89234453E+01</totfact>
</mgrwt>
</event>
<event>
 4    1  0.1573232E-005  0.3615083E+03  0.7818608E-02  0.1057988E+00
         -2   -1    0    0    0  501 -0.00000000000E+00  0.00000000000E+00  0.12549169642E+03  0.12549169644E+03  0.25500000000E-02 0. -1.
          2   -1    0    0  501    0  0.00000000000E+00 -0.00000000000E+00 -0.26035242832E+03  0.26035242834E+03  0.25500000000E-02 0.  1.
    5000001    1    1    2    0    0  0.23288028454E+02  0.36762650644E+02 -0.38085518528E+01  0.17068488456E+03  0.16500000000E+03 0.  0.
   -5000001    1    1    2    0    0 -0.23288028454E+02 -0.36762650644E+02 -0.13105218005E+03  0.21515924021E+03  0.16500000000E+03 0.  0.
<mgrwt>
<rscale>  0 0.36150833E+03</rscale>
<asrwt>0</asrwt>
<pdfrwt beam="1">  1        2 0.40054220E-01 0.36150833E+03</pdfrwt>
<pdfrwt beam="2">  1       -2 0.19306415E-01 0.36150833E+03</pdfrwt>
<totfact> 0.28630581E+03</totfact>
</mgrwt>
</event>
<event>
 4    1  0.1573232E-005  0.8393772E+03  0.7818608E-02  0.9504706E-01
          2   -1    0    0  501    0  0.00000000000E+00  0.00000000000E+00  0.12340764876E+04  0.12340764876E+04  0.25500000000E-02 0.  1.
         -2   -1    0    0    0  501 -0.00000000000E+00 -0.00000000000E+00 -0.14272901488E+03  0.14272901491E+03  0.25500000000E-02 0. -1.
    5000001    1    1    2    0    0 -0.76798653309E+02 -0.37408214982E+03  0.45467149495E+03  0.61626833140E+03  0.16500000000E+03 0.  0.
   -5000001    1    1    2    0    0  0.76798653309E+02  0.37408214982E+03  0.63667597773E+03  0.76053717107E+03  0.16500000000E+03 0.  0.
<mgrwt>
<rscale>  0 0.83937720E+03</rscale>
<asrwt>0</asrwt>
<pdfrwt beam="1">  1        2 0.18985793E+00 0.83937720E+03</pdfrwt>
<pdfrwt beam="2">  1       -2 0.21958309E-01 0.83937720E+03</pdfrwt>
<totfact> 0.32856431E+02</totfact>
</mgrwt>
</event>
<event>
 4    1  0.1573232E-005  0.3908566E+03  0.7818608E-02  0.1046993E+00
          2   -1    0    0  501    0  0.00000000000E+00  0.00000000000E+00  0.95833063544E+02  0.95833063578E+02  0.25500000000E-02 0.  1.
         -2   -1    0    0    0  501 -0.00000000000E+00 -0.00000000000E+00 -0.39852856139E+03  0.39852856140E+03  0.25500000000E-02 0. -1.
    5000001    1    1    2    0    0  0.78211627031E+02  0.55610444138E+02 -0.20437406122E+03  0.27964859556E+03  0.16500000000E+03 0.  0.
   -5000001    1    1    2    0    0 -0.78211627031E+02 -0.55610444138E+02 -0.98321436628E+02  0.21471302942E+03  0.16500000000E+03 0.  0.
<mgrwt>
<rscale>  0 0.39085656E+03</rscale>
<asrwt>0</asrwt>
<pdfrwt beam="1">  1        2 0.14743549E-01 0.39085656E+03</pdfrwt>
<pdfrwt beam="2">  1       -2 0.61312085E-01 0.39085656E+03</pdfrwt>
<totfact> 0.10124701E+03</totfact>
</mgrwt>
</event>
<event>
 4    1  0.1573232E-005  0.6632508E+03  0.7818608E-02  0.9782228E-01
          2   -1    0    0  501    0  0.00000000000E+00  0.00000000000E+00  0.27068787641E+03  0.27068787642E+03  0.25500000000E-02 0.  1.
         -2   -1    0    0    0  501 -0.00000000000E+00 -0.00000000000E+00 -0.40628128068E+03  0.40628128068E+03  0.25500000000E-02 0. -1.
    5000001    1    1    2    0    0 -0.13861354835E+03  0.29430255950E+02 -0.32331550870E+03  0.38966366769E+03  0.16500000000E+03 0.  0.
   -5000001    1    1    2    0    0  0.13861354835E+03 -0.29430255950E+02  0.18772210443E+03  0.28730548941E+03  0.16500000000E+03 0.  0.
<mgrwt>
<rscale>  0 0.66325083E+03</rscale>
<asrwt>0</asrwt>
<pdfrwt beam="1">  1        2 0.41644289E-01 0.66325083E+03</pdfrwt>
<pdfrwt beam="2">  1       -2 0.62504813E-01 0.66325083E+03</pdfrwt>
<totfact> 0.29528956E+02</totfact>
</mgrwt>
</event>
