<event>
 4    1  0.5312547E-005  0.1249130E+04  0.7818608E-02  0.9070908E-01
         -2   -1    0    0    0  501 -0.00000000000E+00  0.00000000000E+00  0.52410360547E+03  0.52410360547E+03  0.25500000000E-02 0. -1.
          2   -1    0    0  501    0  0.00000000000E+00 -0.00000000000E+00 -0.74428260317E+03  0.74428260318E+03  0.25500000000E-02 0.  1.
    5000001    1    1    2    0    0 -0.14553314639E+03  0.55552825548E+03 -0.29472959407E+03  0.66624475454E+03  0.16500000000E+03 0.  0.
   -5000001    1    1    2    0    0  0.14553314639E+03 -0.55552825548E+03  0.74550596364E+02  0.60214145411E+03  0.16500000000E+03 0.  0.
<mgrwt>
<rscale>  0 0.12491296E+04</rscale>
<asrwt>0</asrwt>
<pdfrwt beam="1">  1        2 0.10632609E+00 0.12491296E+04</pdfrwt>
<pdfrwt beam="2">  1       -2 0.74871944E-01 0.12491296E+04</pdfrwt>
<totfact> 0.65809257E+01</totfact>
</mgrwt>
</event>
<event>
 4    1  0.5312547E-005  0.4795677E+03  0.7818608E-02  0.1019254E+00
          2   -1    0    0  501    0  0.00000000000E+00  0.00000000000E+00  0.13535305924E+04  0.13535305924E+04  0.25500000000E-02 0.  1.
         -2   -1    0    0    0  501 -0.00000000000E+00 -0.00000000000E+00 -0.42478754646E+02  0.42478754723E+02  0.25500000000E-02 0. -1.
    5000001    1    1    2    0    0  0.14056135788E+03  0.94760407677E+02  0.54150397937E+03  0.59092181366E+03  0.16500000000E+03 0.  0.
   -5000001    1    1    2    0    0 -0.14056135788E+03 -0.94760407677E+02  0.76954785841E+03  0.80508753349E+03  0.16500000000E+03 0.  0.
<mgrwt>
<rscale>  0 0.47956770E+03</rscale>
<asrwt>0</asrwt>
<pdfrwt beam="1">  1        2 0.19336155E+00 0.47956770E+03</pdfrwt>
<pdfrwt beam="2">  1       -2 0.60683924E-02 0.47956770E+03</pdfrwt>
<totfact> 0.26993888E+03</totfact>
</mgrwt>
</event>
<event>
 4    1  0.5312547E-005  0.4478248E+03  0.7818608E-02  0.1028373E+00
          2   -1    0    0  501    0  0.00000000000E+00  0.00000000000E+00  0.84265077310E+02  0.84265077349E+02  0.25500000000E-02 0.  1.
         -2   -1    0    0    0  501 -0.00000000000E+00 -0.00000000000E+00 -0.59498853847E+03  0.59498853848E+03  0.25500000000E-02 0. -1.
    5000001    1    1    2    0    0  0.12234688548E+03  0.85437688208E+02 -0.29383535635E+03  0.36855471180E+03  0.16500000000E+03 0.  0.
   -5000001    1    1    2    0    0 -0.12234688548E+03 -0.85437688208E+02 -0.21688810482E+03  0.31069890403E+03  0.16500000000E+03 0.  0.
<mgrwt>
<rscale>  0 0.44782477E+03</rscale>
<asrwt>0</asrwt>
<pdfrwt beam="1">  1        2 0.12037869E-01 0.44782477E+03</pdfrwt>
<pdfrwt beam="2">  1       -2 0.84998360E-01 0.44782477E+03</pdfrwt>
<totfact> 0.63774588E+02</totfact>
</mgrwt>
</event>
<event>
 4    1  0.5312547E-005  0.4063081E+03  0.7818608E-02  0.1041617E+00
          2   -1    0    0  501    0  0.00000000000E+00  0.00000000000E+00  0.31144205541E+03  0.31144205542E+03  0.25500000000E-02 0.  1.
         -2   -1    0    0    0  501 -0.00000000000E+00 -0.00000000000E+00 -0.13251767516E+03  0.13251767519E+03  0.25500000000E-02 0. -1.
    5000001    1    1    2    0    0  0.81802263635E+02  0.47713394915E+02  0.16732883281E+03  0.25336163222E+03  0.16500000000E+03 0.  0.
   -5000001    1    1    2    0    0 -0.81802263635E+02 -0.47713394915E+02  0.11595547439E+02  0.19059809839E+03  0.16500000000E+03 0.  0.
<mgrwt>
<rscale>  0 0.40630814E+03</rscale>
<asrwt>0</asrwt>
<pdfrwt beam="1">  1        2 0.44491722E-01 0.40630814E+03</pdfrwt>
<pdfrwt beam="2">  1       -2 0.18931097E-01 0.40630814E+03</pdfrwt>
<totfact> 0.26482750E+03</totfact>
</mgrwt>
</event>
<event>
 4    1  0.5312547E-005  0.5052502E+03  0.7818608E-02  0.1012418E+00
          2   -1    0    0  501    0  0.00000000000E+00  0.00000000000E+00  0.12610906651E+04  0.12610906651E+04  0.25500000000E-02 0.  1.
         -2   -1    0    0    0  501 -0.00000000000E+00 -0.00000000000E+00 -0.50606546167E+02  0.50606546231E+02  0.25500000000E-02 0. -1.
    5000001    1    1    2    0    0  0.15782451413E+03 -0.61852100639E+01  0.88542744909E+03  0.91441434902E+03  0.16500000000E+03 0.  0.
   -5000001    1    1    2    0    0 -0.15782451413E+03  0.61852100639E+01  0.32505666987E+03  0.39728286234E+03  0.16500000000E+03 0.  0.
<mgrwt>
<rscale>  0 0.50525021E+03</rscale>
<asrwt>0</asrwt>
<pdfrwt beam="1">  1        2 0.18015579E+00 0.50525021E+03</pdfrwt>
<pdfrwt beam="2">  1       -2 0.72295072E-02 0.50525021E+03</pdfrwt>
<totfact> 0.23001053E+03</totfact>
</mgrwt>
</event>
<event>
 4    1  0.5312547E-005  0.8425656E+03  0.7818608E-02  0.9500370E-01
         -2   -1    0    0    0  501 -0.00000000000E+00  0.00000000000E+00  0.12441765444E+03  0.12441765447E+03  0.25500000000E-02 0. -1.
          2   -1    0    0  501    0  0.00000000000E+00 -0.00000000000E+00 -0.14264793537E+04  0.14264793537E+04  0.25500000000E-02 0.  1.
    5000001    1    1    2    0    0 -0.20691139733E+03 -0.12274165641E+03 -0.91582921404E+02  0.30576178973E+03  0.16500000000E+03 0.  0.
   -5000001    1    1    2    0    0  0.20691139733E+03  0.12274165641E+03 -0.12104787779E+04  0.12451352184E+04  0.16500000000E+03 0.  0.
<mgrwt>
<rscale>  0 0.84256564E+03</rscale>
<asrwt>0</asrwt>
<pdfrwt beam="1">  1        2 0.20378276E+00 0.84256564E+03</pdfrwt>
<pdfrwt beam="2">  1       -2 0.17773951E-01 0.84256564E+03</pdfrwt>
<totfact> 0.42136185E+02</totfact>
</mgrwt>
</event>
<event>
 4    1  0.5312547E-005  0.4399683E+03  0.7818608E-02  0.1030757E+00
         -2   -1    0    0    0  501 -0.00000000000E+00  0.00000000000E+00  0.15894346796E+03  0.15894346798E+03  0.25500000000E-02 0. -1.
          2   -1    0    0  501    0  0.00000000000E+00 -0.00000000000E+00 -0.30446692159E+03  0.30446692160E+03  0.25500000000E-02 0.  1.
    5000001    1    1    2    0    0 -0.13955421904E+03  0.31880087861E+02 -0.45370168232E+02  0.22310350114E+03  0.16500000000E+03 0.  0.
   -5000001    1    1    2    0    0  0.13955421904E+03 -0.31880087861E+02 -0.10015328540E+03  0.24030688844E+03  0.16500000000E+03 0.  0.
<mgrwt>
<rscale>  0 0.43996831E+03</rscale>
<asrwt>0</asrwt>
<pdfrwt beam="1">  1        2 0.43495274E-01 0.43996831E+03</pdfrwt>
<pdfrwt beam="2">  1       -2 0.22706210E-01 0.43996831E+03</pdfrwt>
<totfact> 0.19815539E+03</totfact>
</mgrwt>
</event>
<event>
 4    1  0.5312547E-005  0.5782135E+03  0.7818608E-02  0.9951666E-01
         -2   -1    0    0    0  501 -0.00000000000E+00  0.00000000000E+00  0.89157303487E+02  0.89157303523E+02  0.25500000000E-02 0. -1.
          2   -1    0    0  501    0  0.00000000000E+00 -0.00000000000E+00 -0.93747458600E+03  0.93747458600E+03  0.25500000000E-02 0.  1.
    5000001    1    1    2    0    0 -0.94350072147E+02  0.19112794018E+03 -0.23856855876E+03  0.35996080739E+03  0.16500000000E+03 0.  0.
   -5000001    1    1    2    0    0  0.94350072147E+02 -0.19112794018E+03 -0.60974872375E+03  0.66667108213E+03  0.16500000000E+03 0.  0.
<mgrwt>
<rscale>  0 0.57821348E+03</rscale>
<asrwt>0</asrwt>
<pdfrwt beam="1">  1        2 0.13392494E+00 0.57821348E+03</pdfrwt>
<pdfrwt beam="2">  1       -2 0.12736758E-01 0.57821348E+03</pdfrwt>
<totfact> 0.14225897E+03</totfact>
</mgrwt>
</event>
<event>
 4    1  0.5312547E-005  0.7285517E+03  0.7818608E-02  0.9669613E-01
          2   -1    0    0  501    0  0.00000000000E+00  0.00000000000E+00  0.70297639908E+03  0.70297639909E+03  0.25500000000E-02 0.  1.
         -2   -1    0    0    0  501 -0.00000000000E+00 -0.00000000000E+00 -0.18876437275E+03  0.18876437276E+03  0.25500000000E-02 0. -1.
    5000001    1    1    2    0    0  0.62364075977E+02 -0.26241628227E+03  0.47851078908E+03  0.57354089518E+03  0.16500000000E+03 0.  0.
   -5000001    1    1    2    0    0 -0.62364075977E+02  0.26241628227E+03  0.35701237262E+02  0.31819987668E+03  0.16500000000E+03 0.  0.
<mgrwt>
<rscale>  0 0.72855171E+03</rscale>
<asrwt>0</asrwt>
<pdfrwt beam="1">  1        2 0.10042520E+00 0.72855171E+03</pdfrwt>
<pdfrwt beam="2">  1       -2 0.26966339E-01 0.72855171E+03</pdfrwt>
<totfact> 0.56106232E+02</totfact>
</mgrwt>
</event>
<event>
 4    1  0.5312547E-005  0.5893932E+03  0.7818608E-02  0.9927659E-01
         -2   -1    0    0    0  501 -0.00000000000E+00  0.00000000000E+00  0.17965886058E+03  0.17965886060E+03  0.25500000000E-02 0. -1.
          2   -1    0    0  501    0  0.00000000000E+00 -0.00000000000E+00 -0.48339442549E+03  0.48339442550E+03  0.25500000000E-02 0.  1.
    5000001    1    1    2    0    0  0.16158705547E+03 -0.11710680410E+03 -0.31015280604E+03  0.40403482913E+03  0.16500000000E+03 0.  0.
   -5000001    1    1    2    0    0 -0.16158705547E+03  0.11710680410E+03  0.64172411279E+01  0.25901845696E+03  0.16500000000E+03 0.  0.
<mgrwt>
<rscale>  0 0.58939322E+03</rscale>
<asrwt>0</asrwt>
<pdfrwt beam="1">  1        2 0.69056346E-01 0.58939322E+03</pdfrwt>
<pdfrwt beam="2">  1       -2 0.25665552E-01 0.58939322E+03</pdfrwt>
<totfact> 0.95594874E+02</totfact>
</mgrwt>
</event>
<event>
 4    1  0.5312547E-005  0.6113842E+03  0.7818608E-02  0.9882065E-01
         -2   -1    0    0    0  501 -0.00000000000E+00  0.00000000000E+00  0.98107866750E+02  0.98107866783E+02  0.25500000000E-02 0. -1.
          2   -1    0    0  501    0  0.00000000000E+00 -0.00000000000E+00 -0.95249908088E+03  0.95249908088E+03  0.25500000000E-02 0.  1.
    5000001    1    1    2    0    0  0.64193232274E+02 -0.23138181685E+03 -0.58622336643E+03  0.65463054587E+03  0.16500000000E+03 0.  0.
   -5000001    1    1    2    0    0 -0.64193232274E+02  0.23138181685E+03 -0.26816784769E+03  0.39597640179E+03  0.16500000000E+03 0.  0.
<mgrwt>
<rscale>  0 0.61138418E+03</rscale>
<asrwt>0</asrwt>
<pdfrwt beam="1">  1        2 0.13607129E+00 0.61138418E+03</pdfrwt>
<pdfrwt beam="2">  1       -2 0.14015410E-01 0.61138418E+03</pdfrwt>
<totfact> 0.11865195E+03</totfact>
</mgrwt>
</event>
<event>
 4    1  0.5312547E-005  0.6967397E+03  0.7818608E-02  0.9722824E-01
         -2   -1    0    0    0  501 -0.00000000000E+00  0.00000000000E+00  0.60419365653E+02  0.60419365707E+02  0.25500000000E-02 0. -1.
          2   -1    0    0  501    0  0.00000000000E+00 -0.00000000000E+00 -0.20086530376E+04  0.20086530376E+04  0.25500000000E-02 0.  1.
    5000001    1    1    2    0    0  0.15194906629E+03 -0.26654510588E+03 -0.97802301888E+03  0.10382142542E+04  0.16500000000E+03 0.  0.
   -5000001    1    1    2    0    0 -0.15194906629E+03  0.26654510588E+03 -0.97021065308E+03  0.10308581491E+04  0.16500000000E+03 0.  0.
<mgrwt>
<rscale>  0 0.69673967E+03</rscale>
<asrwt>0</asrwt>
<pdfrwt beam="1">  1        2 0.28695039E+00 0.69673967E+03</pdfrwt>
<pdfrwt beam="2">  1       -2 0.86313392E-02 0.69673967E+03</pdfrwt>
<totfact> 0.70779605E+02</totfact>
</mgrwt>
</event>
<event>
 4    1  0.5312547E-005  0.4962049E+03  0.7818608E-02  0.1014774E+00
          2   -1    0    0  501    0  0.00000000000E+00  0.00000000000E+00  0.30025087791E+04  0.30025087791E+04  0.25500000000E-02 0.  1.
         -2   -1    0    0    0  501 -0.00000000000E+00 -0.00000000000E+00 -0.20501127766E+02  0.20501127925E+02  0.25500000000E-02 0. -1.
    5000001    1    1    2    0    0 -0.13477682673E+03 -0.11771029877E+03  0.11982385478E+04  0.12227105647E+04  0.16500000000E+03 0.  0.
   -5000001    1    1    2    0    0  0.13477682673E+03  0.11771029877E+03  0.17837691035E+04  0.18002993424E+04  0.16500000000E+03 0.  0.
<mgrwt>
<rscale>  0 0.49620486E+03</rscale>
<asrwt>0</asrwt>
<pdfrwt beam="1">  1        2 0.42892977E+00 0.49620486E+03</pdfrwt>
<pdfrwt beam="2">  1       -2 0.29287329E-02 0.49620486E+03</pdfrwt>
<totfact> 0.11822990E+03</totfact>
</mgrwt>
</event>
<event>
 4    1  0.5312547E-005  0.6416951E+03  0.7818608E-02  0.9822489E-01
         -2   -1    0    0    0  501 -0.00000000000E+00  0.00000000000E+00  0.10978470465E+04  0.10978470465E+04  0.25500000000E-02 0. -1.
          2   -1    0    0  501    0  0.00000000000E+00 -0.00000000000E+00 -0.93768219566E+02  0.93768219601E+02  0.25500000000E-02 0.  1.
    5000001    1    1    2    0    0 -0.25762497957E+03 -0.39923246796E+02  0.66555565145E+03  0.73358968157E+03  0.16500000000E+03 0.  0.
   -5000001    1    1    2    0    0  0.25762497957E+03  0.39923246796E+02  0.33852317544E+03  0.45802558448E+03  0.16500000000E+03 0.  0.
<mgrwt>
<rscale>  0 0.64169514E+03</rscale>
<asrwt>0</asrwt>
<pdfrwt beam="1">  1        2 0.13395461E-01 0.64169514E+03</pdfrwt>
<pdfrwt beam="2">  1       -2 0.15683528E+00 0.64169514E+03</pdfrwt>
<totfact> 0.12447848E+02</totfact>
</mgrwt>
</event>
<event>
 4    1  0.5312547E-005  0.3759697E+03  0.7818608E-02  0.1052433E+00
          2   -1    0    0  501    0  0.00000000000E+00  0.00000000000E+00  0.67146941835E+03  0.67146941836E+03  0.25500000000E-02 0.  1.
         -2   -1    0    0    0  501 -0.00000000000E+00 -0.00000000000E+00 -0.52628325294E+02  0.52628325356E+02  0.25500000000E-02 0. -1.
    5000001    1    1    2    0    0 -0.21822537020E+01 -0.90039704869E+02  0.30714147974E+03  0.36010109589E+03  0.16500000000E+03 0.  0.
   -5000001    1    1    2    0    0  0.21822537020E+01  0.90039704869E+02  0.31169961332E+03  0.36399664783E+03  0.16500000000E+03 0.  0.
<mgrwt>
<rscale>  0 0.37596974E+03</rscale>
<asrwt>0</asrwt>
<pdfrwt beam="1">  1        2 0.95924199E-01 0.37596974E+03</pdfrwt>
<pdfrwt beam="2">  1       -2 0.75183324E-02 0.37596974E+03</pdfrwt>
<totfact> 0.50572076E+03</totfact>
</mgrwt>
</event>
<event>
 4    1  0.5312547E-005  0.4206309E+03  0.7818608E-02  0.1036861E+00
          2   -1    0    0  501    0  0.00000000000E+00  0.00000000000E+00  0.20653757888E+04  0.20653757889E+04  0.25500000000E-02 0.  1.
         -2   -1    0    0    0  501 -0.00000000000E+00 -0.00000000000E+00 -0.21416241105E+02  0.21416241257E+02  0.25500000000E-02 0. -1.
    5000001    1    1    2    0    0 -0.97815706261E+01  0.12695800016E+03  0.11617361003E+04  0.11802837709E+04  0.16500000000E+03 0.  0.
   -5000001    1    1    2    0    0  0.97815706261E+01 -0.12695800016E+03  0.88222344741E+03  0.90650825925E+03  0.16500000000E+03 0.  0.
<mgrwt>
<rscale>  0 0.42063089E+03</rscale>
<asrwt>0</asrwt>
<pdfrwt beam="1">  1        2 0.29505371E+00 0.42063089E+03</pdfrwt>
<pdfrwt beam="2">  1       -2 0.30594627E-02 0.42063089E+03</pdfrwt>
<totfact> 0.33626975E+03</totfact>
</mgrwt>
</event>
<event>
 4    1  0.5312547E-005  0.4051036E+03  0.7818608E-02  0.1042027E+00
          2   -1    0    0  501    0  0.00000000000E+00  0.00000000000E+00  0.35082739060E+04  0.35082739060E+04  0.25500000000E-02 0.  1.
         -2   -1    0    0    0  501 -0.00000000000E+00 -0.00000000000E+00 -0.11694421944E+02  0.11694422222E+02  0.25500000000E-02 0. -1.
    5000001    1    1    2    0    0 -0.10187959760E+03 -0.51972067388E+02  0.15148647960E+04  0.15281102376E+04  0.16500000000E+03 0.  0.
   -5000001    1    1    2    0    0  0.10187959760E+03  0.51972067388E+02  0.19817146880E+04  0.19918580905E+04  0.16500000000E+03 0.  0.
<mgrwt>
<rscale>  0 0.40510362E+03</rscale>
<asrwt>0</asrwt>
<pdfrwt beam="1">  1        2 0.50118295E+00 0.40510362E+03</pdfrwt>
<pdfrwt beam="2">  1       -2 0.16706285E-02 0.40510362E+03</pdfrwt>
<totfact> 0.14356080E+03</totfact>
</mgrwt>
</event>
<event>
 4    1  0.5312547E-005  0.6102887E+03  0.7818608E-02  0.9884287E-01
         -2   -1    0    0    0  501 -0.00000000000E+00  0.00000000000E+00  0.14574204380E+03  0.14574204382E+03  0.25500000000E-02 0. -1.
          2   -1    0    0  501    0  0.00000000000E+00 -0.00000000000E+00 -0.63888948944E+03  0.63888948945E+03  0.25500000000E-02 0.  1.
    5000001    1    1    2    0    0  0.23955877444E+03 -0.50253080377E+02 -0.14719960129E+03  0.32985830461E+03  0.16500000000E+03 0.  0.
   -5000001    1    1    2    0    0 -0.23955877444E+03  0.50253080377E+02 -0.34594784434E+03  0.45477322866E+03  0.16500000000E+03 0.  0.
<mgrwt>
<rscale>  0 0.61028865E+03</rscale>
<asrwt>0</asrwt>
<pdfrwt beam="1">  1        2 0.91269926E-01 0.61028865E+03</pdfrwt>
<pdfrwt beam="2">  1       -2 0.20820292E-01 0.61028865E+03</pdfrwt>
<totfact> 0.10026945E+03</totfact>
</mgrwt>
</event>
<event>
 4    1  0.5312547E-005  0.5624299E+03  0.7818608E-02  0.9986571E-01
          2   -1    0    0  501    0  0.00000000000E+00  0.00000000000E+00  0.48101930559E+03  0.48101930560E+03  0.25500000000E-02 0.  1.
         -2   -1    0    0    0  501 -0.00000000000E+00 -0.00000000000E+00 -0.16440472938E+03  0.16440472940E+03  0.25500000000E-02 0. -1.
    5000001    1    1    2    0    0 -0.17600990016E+03 -0.14412689807E+03  0.14655940584E+03  0.31694906080E+03  0.16500000000E+03 0.  0.
   -5000001    1    1    2    0    0  0.17600990016E+03  0.14412689807E+03  0.17005517038E+03  0.32847497420E+03  0.16500000000E+03 0.  0.
<mgrwt>
<rscale>  0 0.56242990E+03</rscale>
<asrwt>0</asrwt>
<pdfrwt beam="1">  1        2 0.68717044E-01 0.56242990E+03</pdfrwt>
<pdfrwt beam="2">  1       -2 0.23486390E-01 0.56242990E+03</pdfrwt>
<totfact> 0.11269249E+03</totfact>
</mgrwt>
</event>
<event>
 4    1  0.5312547E-005  0.5317346E+03  0.7818608E-02  0.1005812E+00
         -2   -1    0    0    0  501 -0.00000000000E+00  0.00000000000E+00  0.34255857954E+02  0.34255858049E+02  0.25500000000E-02 0.  1.
          2   -1    0    0  501    0  0.00000000000E+00 -0.00000000000E+00 -0.20634553457E+04  0.20634553457E+04  0.25500000000E-02 0. -1.
    5000001    1    1    2    0    0  0.19426154217E+03  0.63481499784E+02 -0.85227774244E+03  0.89183507323E+03  0.16500000000E+03 0.  0.
   -5000001    1    1    2    0    0 -0.19426154217E+03 -0.63481499784E+02 -0.11769217453E+04  0.12058761305E+04  0.16500000000E+03 0.  0.
<mgrwt>
<rscale>  0 0.53173465E+03</rscale>
<asrwt>0</asrwt>
<pdfrwt beam="1">  1        2 0.29477926E+00 0.53173465E+03</pdfrwt>
<pdfrwt beam="2">  1       -2 0.48936953E-02 0.53173465E+03</pdfrwt>
<totfact> 0.16385020E+03</totfact>
</mgrwt>
</event>
<event>
 4    1  0.5312547E-005  0.4658220E+03  0.7818608E-02  0.1023106E+00
          2   -1    0    0  501    0  0.00000000000E+00  0.00000000000E+00  0.75171895672E+03  0.75171895673E+03  0.25500000000E-02 0.  1.
         -2   -1    0    0    0  501 -0.00000000000E+00 -0.00000000000E+00 -0.72164640067E+02  0.72164640112E+02  0.25500000000E-02 0. -1.
    5000001    1    1    2    0    0  0.48344308142E+02 -0.69189434758E+02  0.58926681176E+03  0.61772544505E+03  0.16500000000E+03 0.  0.
   -5000001    1    1    2    0    0 -0.48344308142E+02  0.69189434758E+02  0.90287504895E+02  0.20615815180E+03  0.16500000000E+03 0.  0.
<mgrwt>
<rscale>  0 0.46582197E+03</rscale>
<asrwt>0</asrwt>
<pdfrwt beam="1">  1        2 0.10738842E+00 0.46582197E+03</pdfrwt>
<pdfrwt beam="2">  1       -2 0.10309235E-01 0.46582197E+03</pdfrwt>
<totfact> 0.26762387E+03</totfact>
</mgrwt>
</event>
<event>
 4    1  0.5312547E-005  0.5114139E+03  0.7818608E-02  0.1010842E+00
         -2   -1    0    0    0  501 -0.00000000000E+00  0.00000000000E+00  0.63516224556E+02  0.63516224607E+02  0.25500000000E-02 0. -1.
          2   -1    0    0  501    0  0.00000000000E+00 -0.00000000000E+00 -0.10294384773E+04  0.10294384773E+04  0.25500000000E-02 0.  1.
    5000001    1    1    2    0    0  0.10431489263E+03  0.11098544773E+03 -0.22155257011E+03  0.31545191037E+03  0.16500000000E+03 0.  0.
   -5000001    1    1    2    0    0 -0.10431489263E+03 -0.11098544773E+03 -0.74436968267E+03  0.77750279158E+03  0.16500000000E+03 0.  0.
<mgrwt>
<rscale>  0 0.51141390E+03</rscale>
<asrwt>0</asrwt>
<pdfrwt beam="1">  1        2 0.14706263E+00 0.51141390E+03</pdfrwt>
<pdfrwt beam="2">  1       -2 0.90737470E-02 0.51141390E+03</pdfrwt>
<totfact> 0.21712915E+03</totfact>
</mgrwt>
</event>
<event>
 4    1  0.5312547E-005  0.5347114E+03  0.7818608E-02  0.1005096E+00
          2   -1    0    0  501    0  0.00000000000E+00  0.00000000000E+00  0.36164457770E+04  0.36164457770E+04  0.25500000000E-02 0.  1.
         -2   -1    0    0    0  501 -0.00000000000E+00 -0.00000000000E+00 -0.19765007452E+02  0.19765007616E+02  0.25500000000E-02 0. -1.
    5000001    1    1    2    0    0 -0.40785018174E+02  0.89176355484E+02  0.53270828996E+03  0.56623225118E+03  0.16500000000E+03 0.  0.
   -5000001    1    1    2    0    0  0.40785018174E+02 -0.89176355484E+02  0.30639724796E+04  0.30699785334E+04  0.16500000000E+03 0.  0.
<mgrwt>
<rscale>  0 0.53471143E+03</rscale>
<asrwt>0</asrwt>
<pdfrwt beam="1">  1        2 0.51663501E+00 0.53471143E+03</pdfrwt>
<pdfrwt beam="2">  1       -2 0.28235730E-02 0.53471143E+03</pdfrwt>
<totfact> 0.55501418E+02</totfact>
</mgrwt>
</event>
<event>
 4    1  0.5312547E-005  0.4269000E+03  0.7818608E-02  0.1034844E+00
          2   -1    0    0  501    0  0.00000000000E+00  0.00000000000E+00  0.17544017877E+04  0.17544017877E+04  0.25500000000E-02 0.  1.
         -2   -1    0    0    0  501 -0.00000000000E+00 -0.00000000000E+00 -0.25969482983E+02  0.25969483109E+02  0.25500000000E-02 0. -1.
    5000001    1    1    2    0    0 -0.57165379136E+02 -0.51943658690E+02  0.13280550855E+04  0.13404929446E+04  0.16500000000E+03 0.  0.
   -5000001    1    1    2    0    0  0.57165379136E+02  0.51943658690E+02  0.40037721919E+03  0.43987832624E+03  0.16500000000E+03 0.  0.
<mgrwt>
<rscale>  0 0.42690002E+03</rscale>
<asrwt>0</asrwt>
<pdfrwt beam="1">  1        2 0.25062888E+00 0.42690002E+03</pdfrwt>
<pdfrwt beam="2">  1       -2 0.37099253E-02 0.42690002E+03</pdfrwt>
<totfact> 0.35848504E+03</totfact>
</mgrwt>
</event>
<event>
 4    1  0.5312547E-005  0.3712005E+03  0.7818608E-02  0.1054235E+00
          2   -1    0    0  501    0  0.00000000000E+00  0.00000000000E+00  0.51257508985E+03  0.51257508986E+03  0.25500000000E-02 0.  1.
         -2   -1    0    0    0  501 -0.00000000000E+00 -0.00000000000E+00 -0.67204696717E+02  0.67204696766E+02  0.25500000000E-02 0. -1.
    5000001    1    1    2    0    0  0.31532801890E+02 -0.68508134343E+02  0.16149577281E+03  0.24288591294E+03  0.16500000000E+03 0.  0.
   -5000001    1    1    2    0    0 -0.31532801890E+02  0.68508134343E+02  0.28387462032E+03  0.33689387369E+03  0.16500000000E+03 0.  0.
<mgrwt>
<rscale>  0 0.37120050E+03</rscale>
<asrwt>0</asrwt>
<pdfrwt beam="1">  1        2 0.73225015E-01 0.37120050E+03</pdfrwt>
<pdfrwt beam="2">  1       -2 0.96006707E-02 0.37120050E+03</pdfrwt>
<totfact> 0.46873974E+03</totfact>
</mgrwt>
</event>
<event>
 4    1  0.5312547E-005  0.1048954E+04  0.7818608E-02  0.9256425E-01
          2   -1    0    0  501    0  0.00000000000E+00  0.00000000000E+00  0.14072603923E+03  0.14072603925E+03  0.25500000000E-02 0.  1.
         -2   -1    0    0    0  501 -0.00000000000E+00 -0.00000000000E+00 -0.19546924402E+04  0.19546924402E+04  0.25500000000E-02 0. -1.
    5000001    1    1    2    0    0 -0.16418486173E+03 -0.46981253093E+03 -0.88088820005E+03  0.10251192633E+04  0.16500000000E+03 0.  0.
   -5000001    1    1    2    0    0  0.16418486173E+03  0.46981253093E+03 -0.93307820096E+03  0.10702992162E+04  0.16500000000E+03 0.  0.
<mgrwt>
<rscale>  0 0.10489540E+04</rscale>
<asrwt>0</asrwt>
<pdfrwt beam="1">  1        2 0.20103721E-01 0.10489540E+04</pdfrwt>
<pdfrwt beam="2">  1       -2 0.27924176E+00 0.10489540E+04</pdfrwt>
<totfact> 0.12118377E+01</totfact>
</mgrwt>
</event>
<event>
 4    1  0.5312547E-005  0.4150654E+03  0.7818608E-02  0.1038684E+00
         -2   -1    0    0    0  501 -0.00000000000E+00  0.00000000000E+00  0.18459772066E+03  0.18459772068E+03  0.25500000000E-02 0. -1.
          2   -1    0    0  501    0  0.00000000000E+00 -0.00000000000E+00 -0.23331714323E+03  0.23331714324E+03  0.25500000000E-02 0.  1.
    5000001    1    1    2    0    0 -0.43805494728E+02  0.57624317937E+02  0.79329462074E+02  0.19686961914E+03  0.16500000000E+03 0.  0.
   -5000001    1    1    2    0    0  0.43805494728E+02 -0.57624317937E+02 -0.12804888464E+03  0.22104524479E+03  0.16500000000E+03 0.  0.
<mgrwt>
<rscale>  0 0.41506536E+03</rscale>
<asrwt>0</asrwt>
<pdfrwt beam="1">  1        2 0.33331020E-01 0.41506536E+03</pdfrwt>
<pdfrwt beam="2">  1       -2 0.26371103E-01 0.41506536E+03</pdfrwt>
<totfact> 0.20328188E+03</totfact>
</mgrwt>
</event>
<event>
 4    1  0.5312547E-005  0.7068420E+03  0.7818608E-02  0.9705603E-01
         -2   -1    0    0    0  501 -0.00000000000E+00  0.00000000000E+00  0.32714374849E+03  0.32714374850E+03  0.25500000000E-02 0. -1.
          2   -1    0    0  501    0  0.00000000000E+00 -0.00000000000E+00 -0.38180887715E+03  0.38180887715E+03  0.25500000000E-02 0.  1.
    5000001    1    1    2    0    0  0.28528374677E+03 -0.50951421336E+02  0.90057618732E+02  0.34542472147E+03  0.16500000000E+03 0.  0.
   -5000001    1    1    2    0    0 -0.28528374677E+03  0.50951421336E+02 -0.14472274739E+03  0.36352790419E+03  0.16500000000E+03 0.  0.
<mgrwt>
<rscale>  0 0.70684195E+03</rscale>
<asrwt>0</asrwt>
<pdfrwt beam="1">  1        2 0.54544125E-01 0.70684195E+03</pdfrwt>
<pdfrwt beam="2">  1       -2 0.46734821E-01 0.70684195E+03</pdfrwt>
<totfact> 0.39850053E+02</totfact>
</mgrwt>
</event>
<event>
 4    1  0.5312547E-005  0.4063735E+03  0.7818608E-02  0.1041595E+00
          2   -1    0    0  501    0  0.00000000000E+00  0.00000000000E+00  0.48162391835E+03  0.48162391835E+03  0.25500000000E-02 0.  1.
         -2   -1    0    0    0  501 -0.00000000000E+00 -0.00000000000E+00 -0.85720125360E+02  0.85720125398E+02  0.25500000000E-02 0. -1.
    5000001    1    1    2    0    0 -0.84416499246E+02  0.82574702751E+02  0.18297139835E+03  0.27321833667E+03  0.16500000000E+03 0.  0.
   -5000001    1    1    2    0    0  0.84416499246E+02 -0.82574702751E+02  0.21293239464E+03  0.29412570708E+03  0.16500000000E+03 0.  0.
<mgrwt>
<rscale>  0 0.40637354E+03</rscale>
<asrwt>0</asrwt>
<pdfrwt beam="1">  1        2 0.68803414E-01 0.40637354E+03</pdfrwt>
<pdfrwt beam="2">  1       -2 0.12245733E-01 0.40637354E+03</pdfrwt>
<totfact> 0.33989754E+03</totfact>
</mgrwt>
</event>
<event>
 4    1  0.5312547E-005  0.4224376E+03  0.7818608E-02  0.1036276E+00
         -2   -1    0    0    0  501 -0.00000000000E+00  0.00000000000E+00  0.20324624611E+02  0.20324624771E+02  0.25500000000E-02 0. -1.
          2   -1    0    0  501    0  0.00000000000E+00 -0.00000000000E+00 -0.21950404195E+04  0.21950404195E+04  0.25500000000E-02 0.  1.
    5000001    1    1    2    0    0  0.46807203538E+02 -0.12270464379E+03 -0.11496361876E+04  0.11688180816E+04  0.16500000000E+03 0.  0.
   -5000001    1    1    2    0    0 -0.46807203538E+02  0.12270464379E+03 -0.10250796072E+04  0.10465469627E+04  0.16500000000E+03 0.  0.
<mgrwt>
<rscale>  0 0.42243756E+03</rscale>
<asrwt>0</asrwt>
<pdfrwt beam="1">  1        2 0.31357705E+00 0.42243756E+03</pdfrwt>
<pdfrwt beam="2">  1       -2 0.29035192E-02 0.42243756E+03</pdfrwt>
<totfact> 0.31370421E+03</totfact>
</mgrwt>
</event>
<event>
 4    1  0.5312547E-005  0.5061254E+03  0.7818608E-02  0.1012192E+00
         -2   -1    0    0    0  501 -0.00000000000E+00  0.00000000000E+00  0.11743515324E+04  0.11743515324E+04  0.25500000000E-02 0. -1.
          2   -1    0    0  501    0  0.00000000000E+00 -0.00000000000E+00 -0.54532854946E+02  0.54532855006E+02  0.25500000000E-02 0.  1.
    5000001    1    1    2    0    0 -0.13164540907E+02 -0.15569855874E+03  0.28953179263E+03  0.36806114339E+03  0.16500000000E+03 0.  0.
   -5000001    1    1    2    0    0  0.13164540907E+02  0.15569855874E+03  0.83028688484E+03  0.86082324403E+03  0.16500000000E+03 0.  0.
<mgrwt>
<rscale>  0 0.50612545E+03</rscale>
<asrwt>0</asrwt>
<pdfrwt beam="1">  1        2 0.77904082E-02 0.50612545E+03</pdfrwt>
<pdfrwt beam="2">  1       -2 0.16776450E+00 0.50612545E+03</pdfrwt>
<totfact> 0.20694771E+02</totfact>
</mgrwt>
</event>
<event>
 4    1  0.5312547E-005  0.3833149E+03  0.7818608E-02  0.1049715E+00
          2   -1    0    0  501    0  0.00000000000E+00  0.00000000000E+00  0.11431440921E+03  0.11431440924E+03  0.25500000000E-02 0.  1.
         -2   -1    0    0    0  501 -0.00000000000E+00 -0.00000000000E+00 -0.32132941686E+03  0.32132941687E+03  0.25500000000E-02 0. -1.
    5000001    1    1    2    0    0  0.99861371646E+01 -0.85009916107E+02 -0.15658628745E+03  0.24304459300E+03  0.16500000000E+03 0.  0.
   -5000001    1    1    2    0    0 -0.99861371646E+01  0.85009916107E+02 -0.50428720206E+02  0.19259923311E+03  0.16500000000E+03 0.  0.
<mgrwt>
<rscale>  0 0.38331492E+03</rscale>
<asrwt>0</asrwt>
<pdfrwt beam="1">  1        2 0.16330630E-01 0.38331492E+03</pdfrwt>
<pdfrwt beam="2">  1       -2 0.45904202E-01 0.38331492E+03</pdfrwt>
<totfact> 0.16156234E+03</totfact>
</mgrwt>
</event>
<event>
 4    1  0.5312547E-005  0.5331945E+03  0.7818608E-02  0.1005460E+00
          2   -1    0    0  501    0  0.00000000000E+00  0.00000000000E+00  0.19447769075E+03  0.19447769077E+03  0.25500000000E-02 0.  1.
         -2   -1    0    0    0  501 -0.00000000000E+00 -0.00000000000E+00 -0.36546137772E+03  0.36546137773E+03  0.25500000000E-02 0. -1.
    5000001    1    1    2    0    0  0.78725883774E+02  0.19162796386E+03 -0.11751814340E+03  0.28974912483E+03  0.16500000000E+03 0.  0.
   -5000001    1    1    2    0    0 -0.78725883774E+02 -0.19162796386E+03 -0.53465543567E+02  0.27018994367E+03  0.16500000000E+03 0.  0.
<mgrwt>
<rscale>  0 0.53319447E+03</rscale>
<asrwt>0</asrwt>
<pdfrwt beam="1">  1        2 0.27782527E-01 0.53319447E+03</pdfrwt>
<pdfrwt beam="2">  1       -2 0.52208768E-01 0.53319447E+03</pdfrwt>
<totfact> 0.67654300E+02</totfact>
</mgrwt>
</event>
<event>
 4    1  0.5312547E-005  0.6474811E+03  0.7818608E-02  0.9811517E-01
          2   -1    0    0  501    0  0.00000000000E+00  0.00000000000E+00  0.11498835502E+04  0.11498835502E+04  0.25500000000E-02 0.  1.
         -2   -1    0    0    0  501 -0.00000000000E+00 -0.00000000000E+00 -0.91146558046E+02  0.91146558081E+02  0.25500000000E-02 0. -1.
    5000001    1    1    2    0    0 -0.18815777009E+03 -0.17447063427E+03  0.73704220462E+03  0.79768387226E+03  0.16500000000E+03 0.  0.
   -5000001    1    1    2    0    0  0.18815777009E+03  0.17447063427E+03  0.32169478751E+03  0.44334623600E+03  0.16500000000E+03 0.  0.
<mgrwt>
<rscale>  0 0.64748105E+03</rscale>
<asrwt>0</asrwt>
<pdfrwt beam="1">  1        2 0.16426907E+00 0.64748105E+03</pdfrwt>
<pdfrwt beam="2">  1       -2 0.13020938E-01 0.64748105E+03</pdfrwt>
<totfact> 0.10218847E+03</totfact>
</mgrwt>
</event>
<event>
 4    1  0.5312547E-005  0.5516232E+03  0.7818608E-02  0.1001119E+00
          2   -1    0    0  501    0  0.00000000000E+00  0.00000000000E+00  0.20072135571E+04  0.20072135571E+04  0.25500000000E-02 0.  1.
         -2   -1    0    0    0  501 -0.00000000000E+00 -0.00000000000E+00 -0.37899319589E+02  0.37899319675E+02  0.25500000000E-02 0. -1.
    5000001    1    1    2    0    0 -0.21927899324E+03 -0.22200672303E+02  0.92363821251E+03  0.96379909438E+03  0.16500000000E+03 0.  0.
   -5000001    1    1    2    0    0  0.21927899324E+03  0.22200672303E+02  0.10456760250E+04  0.10813137824E+04  0.16500000000E+03 0.  0.
<mgrwt>
<rscale>  0 0.55162316E+03</rscale>
<asrwt>0</asrwt>
<pdfrwt beam="1">  1        2 0.28674487E+00 0.55162316E+03</pdfrwt>
<pdfrwt beam="2">  1       -2 0.54141871E-02 0.55162316E+03</pdfrwt>
<totfact> 0.14932053E+03</totfact>
</mgrwt>
</event>
<event>
 4    1  0.5312547E-005  0.3480270E+03  0.7818608E-02  0.1063428E+00
          2   -1    0    0  501    0  0.00000000000E+00  0.00000000000E+00  0.49800261387E+03  0.49800261387E+03  0.25500000000E-02 0.  1.
         -2   -1    0    0    0  501 -0.00000000000E+00 -0.00000000000E+00 -0.60804295110E+02  0.60804295163E+02  0.25500000000E-02 0. -1.
    5000001    1    1    2    0    0  0.21357437384E+02  0.26453386513E+02  0.28858336606E+03  0.33415756905E+03  0.16500000000E+03 0.  0.
   -5000001    1    1    2    0    0 -0.21357437384E+02 -0.26453386513E+02  0.14861495270E+03  0.22464933998E+03  0.16500000000E+03 0.  0.
<mgrwt>
<rscale>  0 0.34802700E+03</rscale>
<asrwt>0</asrwt>
<pdfrwt beam="1">  1        2 0.71143235E-01 0.34802700E+03</pdfrwt>
<pdfrwt beam="2">  1       -2 0.86863273E-02 0.34802700E+03</pdfrwt>
<totfact> 0.56669558E+03</totfact>
</mgrwt>
</event>
<event>
 4    1  0.5312547E-005  0.5167377E+03  0.7818608E-02  0.1009500E+00
          2   -1    0    0  501    0  0.00000000000E+00  0.00000000000E+00  0.37111507833E+04  0.37111507833E+04  0.25500000000E-02 0.  1.
         -2   -1    0    0    0  501 -0.00000000000E+00 -0.00000000000E+00 -0.17987538984E+02  0.17987539165E+02  0.25500000000E-02 0. -1.
    5000001    1    1    2    0    0  0.60971018050E+02  0.18051903069E+03  0.22564037343E+04  0.22704377106E+04  0.16500000000E+03 0.  0.
   -5000001    1    1    2    0    0 -0.60971018050E+02 -0.18051903069E+03  0.14367595100E+04  0.14587006119E+04  0.16500000000E+03 0.  0.
<mgrwt>
<rscale>  0 0.51673773E+03</rscale>
<asrwt>0</asrwt>
<pdfrwt beam="1">  1        2 0.53016429E+00 0.51673773E+03</pdfrwt>
<pdfrwt beam="2">  1       -2 0.25696490E-02 0.51673773E+03</pdfrwt>
<totfact> 0.56118271E+02</totfact>
</mgrwt>
</event>
<event>
 4    1  0.5312547E-005  0.5093859E+03  0.7818608E-02  0.1011358E+00
          2   -1    0    0  501    0  0.00000000000E+00  0.00000000000E+00  0.13010129484E+04  0.13010129484E+04  0.25500000000E-02 0.  1.
         -2   -1    0    0    0  501 -0.00000000000E+00 -0.00000000000E+00 -0.49859998387E+02  0.49859998452E+02  0.25500000000E-02 0. -1.
    5000001    1    1    2    0    0  0.54168627736E+02  0.16338955918E+03  0.86296966935E+03  0.89530555594E+03  0.16500000000E+03 0.  0.
   -5000001    1    1    2    0    0 -0.54168627736E+02 -0.16338955918E+03  0.38818328068E+03  0.45556739093E+03  0.16500000000E+03 0.  0.
<mgrwt>
<rscale>  0 0.50938592E+03</rscale>
<asrwt>0</asrwt>
<pdfrwt beam="1">  1        2 0.18585898E+00 0.50938592E+03</pdfrwt>
<pdfrwt beam="2">  1       -2 0.71228573E-02 0.50938592E+03</pdfrwt>
<totfact> 0.22398062E+03</totfact>
</mgrwt>
</event>
<event>
 4    1  0.5312547E-005  0.1196934E+04  0.7818608E-02  0.9115545E-01
         -2   -1    0    0    0  501 -0.00000000000E+00  0.00000000000E+00  0.46781511283E+03  0.46781511283E+03  0.25500000000E-02 0. -1.
          2   -1    0    0  501    0  0.00000000000E+00 -0.00000000000E+00 -0.76560691085E+03  0.76560691085E+03  0.25500000000E-02 0.  1.
    5000001    1    1    2    0    0  0.44656561076E+03 -0.70491150028E+02  0.21768402420E+03  0.52820562410E+03  0.16500000000E+03 0.  0.
   -5000001    1    1    2    0    0 -0.44656561076E+03  0.70491150028E+02 -0.51547582222E+03  0.70521639958E+03  0.16500000000E+03 0.  0.
<mgrwt>
<rscale>  0 0.11969336E+04</rscale>
<asrwt>0</asrwt>
<pdfrwt beam="1">  1        2 0.10937242E+00 0.11969336E+04</pdfrwt>
<pdfrwt beam="2">  1       -2 0.66830731E-01 0.11969336E+04</pdfrwt>
<totfact> 0.81698697E+01</totfact>
</mgrwt>
</event>
<event>
 4    1  0.5312547E-005  0.5561260E+03  0.7818608E-02  0.1000086E+00
         -2   -1    0    0    0  501 -0.00000000000E+00  0.00000000000E+00  0.82893882706E+02  0.82893882745E+02  0.25500000000E-02 0. -1.
          2   -1    0    0  501    0  0.00000000000E+00 -0.00000000000E+00 -0.93274728095E+03  0.93274728096E+03  0.25500000000E-02 0.  1.
    5000001    1    1    2    0    0  0.32638171783E+01  0.21364695356E+03 -0.54659539021E+03  0.60962873445E+03  0.16500000000E+03 0.  0.
   -5000001    1    1    2    0    0 -0.32638171783E+01 -0.21364695356E+03 -0.30325800804E+03  0.40601242926E+03  0.16500000000E+03 0.  0.
<mgrwt>
<rscale>  0 0.55612604E+03</rscale>
<asrwt>0</asrwt>
<pdfrwt beam="1">  1        2 0.13324961E+00 0.55612604E+03</pdfrwt>
<pdfrwt beam="2">  1       -2 0.11841984E-01 0.55612604E+03</pdfrwt>
<totfact> 0.16155171E+03</totfact>
</mgrwt>
</event>
<event>
 4    1  0.5312547E-005  0.4837123E+03  0.7818608E-02  0.1018120E+00
         -2   -1    0    0    0  501 -0.00000000000E+00  0.00000000000E+00  0.15280460322E+03  0.15280460324E+03  0.25500000000E-02 0. -1.
          2   -1    0    0  501    0  0.00000000000E+00 -0.00000000000E+00 -0.38280512617E+03  0.38280512618E+03  0.25500000000E-02 0.  1.
    5000001    1    1    2    0    0 -0.85345322822E+02  0.15027525809E+03 -0.15647426711E+03  0.28561455423E+03  0.16500000000E+03 0.  0.
   -5000001    1    1    2    0    0  0.85345322822E+02 -0.15027525809E+03 -0.73526255837E+02  0.24999517519E+03  0.16500000000E+03 0.  0.
<mgrwt>
<rscale>  0 0.48371225E+03</rscale>
<asrwt>0</asrwt>
<pdfrwt beam="1">  1        2 0.54686446E-01 0.48371225E+03</pdfrwt>
<pdfrwt beam="2">  1       -2 0.21829229E-01 0.48371225E+03</pdfrwt>
<totfact> 0.16534057E+03</totfact>
</mgrwt>
</event>
<event>
 4    1  0.5312547E-005  0.4478116E+03  0.7818608E-02  0.1028377E+00
          2   -1    0    0  501    0  0.00000000000E+00  0.00000000000E+00  0.15613998338E+04  0.15613998338E+04  0.25500000000E-02 0.  1.
         -2   -1    0    0    0  501 -0.00000000000E+00 -0.00000000000E+00 -0.32108245883E+02  0.32108245984E+02  0.25500000000E-02 0. -1.
    5000001    1    1    2    0    0 -0.16066446976E+02  0.12840197854E+03  0.10440137125E+04  0.10648637616E+04  0.16500000000E+03 0.  0.
   -5000001    1    1    2    0    0  0.16066446976E+02 -0.12840197854E+03  0.48527787537E+03  0.52864431818E+03  0.16500000000E+03 0.  0.
<mgrwt>
<rscale>  0 0.44781161E+03</rscale>
<asrwt>0</asrwt>
<pdfrwt beam="1">  1        2 0.22305720E+00 0.44781161E+03</pdfrwt>
<pdfrwt beam="2">  1       -2 0.45868907E-02 0.44781161E+03</pdfrwt>
<totfact> 0.32444833E+03</totfact>
</mgrwt>
</event>
<event>
 4    1  0.5312547E-005  0.4698579E+03  0.7818608E-02  0.1021960E+00
          2   -1    0    0  501    0  0.00000000000E+00  0.00000000000E+00  0.23940978069E+03  0.23940978071E+03  0.25500000000E-02 0.  1.
         -2   -1    0    0    0  501 -0.00000000000E+00 -0.00000000000E+00 -0.23053195180E+03  0.23053195181E+03  0.25500000000E-02 0. -1.
    5000001    1    1    2    0    0  0.13585144154E+03 -0.40543108062E+02  0.93152244539E+02  0.23664677991E+03  0.16500000000E+03 0.  0.
   -5000001    1    1    2    0    0 -0.13585144154E+03  0.40543108062E+02 -0.84274415642E+02  0.23329495261E+03  0.16500000000E+03 0.  0.
<mgrwt>
<rscale>  0 0.46985787E+03</rscale>
<asrwt>0</asrwt>
<pdfrwt beam="1">  1        2 0.34201397E-01 0.46985787E+03</pdfrwt>
<pdfrwt beam="2">  1       -2 0.32933136E-01 0.46985787E+03</pdfrwt>
<totfact> 0.13168753E+03</totfact>
</mgrwt>
</event>
<event>
 4    1  0.5312547E-005  0.4006324E+03  0.7818608E-02  0.1043561E+00
         -2   -1    0    0    0  501 -0.00000000000E+00  0.00000000000E+00  0.87966851468E+02  0.87966851505E+02  0.25500000000E-02 0. -1.
          2   -1    0    0  501    0  0.00000000000E+00 -0.00000000000E+00 -0.45615575938E+03  0.45615575938E+03  0.25500000000E-02 0.  1.
    5000001    1    1    2    0    0 -0.71287655382E+02  0.86290442224E+02 -0.21034650497E+03  0.28982515830E+03  0.16500000000E+03 0.  0.
   -5000001    1    1    2    0    0  0.71287655382E+02 -0.86290442224E+02 -0.15784240294E+03  0.25429745259E+03  0.16500000000E+03 0.  0.
<mgrwt>
<rscale>  0 0.40063243E+03</rscale>
<asrwt>0</asrwt>
<pdfrwt beam="1">  1        2 0.65165107E-01 0.40063243E+03</pdfrwt>
<pdfrwt beam="2">  1       -2 0.12566693E-01 0.40063243E+03</pdfrwt>
<totfact> 0.34603048E+03</totfact>
</mgrwt>
</event>
<event>
 4    1  0.5312547E-005  0.6164941E+03  0.7818608E-02  0.9871765E-01
          2   -1    0    0  501    0  0.00000000000E+00  0.00000000000E+00  0.21867579659E+03  0.21867579660E+03  0.25500000000E-02 0.  1.
         -2   -1    0    0    0  501 -0.00000000000E+00 -0.00000000000E+00 -0.43450729488E+03  0.43450729489E+03  0.25500000000E-02 0. -1.
    5000001    1    1    2    0    0  0.59450226239E+02  0.18603844975E+03 -0.29034457010E+03  0.38687155953E+03  0.16500000000E+03 0.  0.
   -5000001    1    1    2    0    0 -0.59450226239E+02 -0.18603844975E+03  0.74513071804E+02  0.26631153196E+03  0.16500000000E+03 0.  0.
<mgrwt>
<rscale>  0 0.61649405E+03</rscale>
<asrwt>0</asrwt>
<pdfrwt beam="1">  1        2 0.31239399E-01 0.61649405E+03</pdfrwt>
<pdfrwt beam="2">  1       -2 0.62072471E-01 0.61649405E+03</pdfrwt>
<totfact> 0.41334541E+02</totfact>
</mgrwt>
</event>
<event>
 4    1  0.5312547E-005  0.4421132E+03  0.7818608E-02  0.1030100E+00
         -2   -1    0    0    0  501 -0.00000000000E+00  0.00000000000E+00  0.45792098696E+02  0.45792098767E+02  0.25500000000E-02 0. -1.
          2   -1    0    0  501    0  0.00000000000E+00 -0.00000000000E+00 -0.10671278877E+04  0.10671278877E+04  0.25500000000E-02 0.  1.
    5000001    1    1    2    0    0 -0.61627572588E+02  0.10083369557E+03 -0.29012779894E+03  0.35406854080E+03  0.16500000000E+03 0.  0.
   -5000001    1    1    2    0    0  0.61627572588E+02 -0.10083369557E+03 -0.73120799003E+03  0.75885144564E+03  0.16500000000E+03 0.  0.
<mgrwt>
<rscale>  0 0.44211322E+03</rscale>
<asrwt>0</asrwt>
<pdfrwt beam="1">  1        2 0.15244682E+00 0.44211322E+03</pdfrwt>
<pdfrwt beam="2">  1       -2 0.65417291E-02 0.44211322E+03</pdfrwt>
<totfact> 0.34604706E+03</totfact>
</mgrwt>
</event>
<event>
 4    1  0.5312547E-005  0.6424032E+03  0.7818608E-02  0.9821139E-01
         -2   -1    0    0    0  501 -0.00000000000E+00  0.00000000000E+00  0.66285611792E+02  0.66285611841E+02  0.25500000000E-02 0. -1.
          2   -1    0    0  501    0  0.00000000000E+00 -0.00000000000E+00 -0.15564533982E+04  0.15564533982E+04  0.25500000000E-02 0.  1.
    5000001    1    1    2    0    0 -0.24100083513E+03  0.12903204688E+03 -0.65704140173E+03  0.73051972954E+03  0.16500000000E+03 0.  0.
   -5000001    1    1    2    0    0  0.24100083513E+03 -0.12903204688E+03 -0.83312638465E+03  0.89221928048E+03  0.16500000000E+03 0.  0.
<mgrwt>
<rscale>  0 0.64240319E+03</rscale>
<asrwt>0</asrwt>
<pdfrwt beam="1">  1        2 0.22235046E+00 0.64240319E+03</pdfrwt>
<pdfrwt beam="2">  1       -2 0.94693741E-02 0.64240319E+03</pdfrwt>
<totfact> 0.10383579E+03</totfact>
</mgrwt>
</event>
<event>
 4    1  0.5312547E-005  0.4087621E+03  0.7818608E-02  0.1040787E+00
         -2   -1    0    0    0  501 -0.00000000000E+00  0.00000000000E+00  0.76018939615E+03  0.76018939616E+03  0.25500000000E-02 0. -1.
          2   -1    0    0  501    0  0.00000000000E+00 -0.00000000000E+00 -0.54948969124E+02  0.54948969183E+02  0.25500000000E-02 0.  1.
    5000001    1    1    2    0    0  0.77810495436E+02 -0.75237273000E+02  0.45873335967E+03  0.49937602638E+03  0.16500000000E+03 0.  0.
   -5000001    1    1    2    0    0 -0.77810495436E+02  0.75237273000E+02  0.24650706736E+03  0.31576233897E+03  0.16500000000E+03 0.  0.
<mgrwt>
<rscale>  0 0.40876215E+03</rscale>
<asrwt>0</asrwt>
<pdfrwt beam="1">  1        2 0.78498528E-02 0.40876215E+03</pdfrwt>
<pdfrwt beam="2">  1       -2 0.10859848E+00 0.40876215E+03</pdfrwt>
<totfact> 0.61933712E+02</totfact>
</mgrwt>
</event>
<event>
 4    1  0.5312547E-005  0.4866135E+03  0.7818608E-02  0.1017333E+00
          2   -1    0    0  501    0  0.00000000000E+00  0.00000000000E+00  0.13577388192E+03  0.13577388194E+03  0.25500000000E-02 0.  1.
         -2   -1    0    0    0  501 -0.00000000000E+00 -0.00000000000E+00 -0.43600565004E+03  0.43600565005E+03  0.25500000000E-02 0. -1.
    5000001    1    1    2    0    0 -0.89564506990E+02 -0.12745352541E+03 -0.25326998101E+03  0.34005423881E+03  0.16500000000E+03 0.  0.
   -5000001    1    1    2    0    0  0.89564506990E+02  0.12745352541E+03 -0.46961787114E+02  0.23172529318E+03  0.16500000000E+03 0.  0.
<mgrwt>
<rscale>  0 0.48661352E+03</rscale>
<asrwt>0</asrwt>
<pdfrwt beam="1">  1        2 0.19396269E-01 0.48661352E+03</pdfrwt>
<pdfrwt beam="2">  1       -2 0.62286521E-01 0.48661352E+03</pdfrwt>
<totfact> 0.70868538E+02</totfact>
</mgrwt>
</event>
<event>
 4    1  0.5312547E-005  0.5161376E+03  0.7818608E-02  0.1009651E+00
          2   -1    0    0  501    0  0.00000000000E+00  0.00000000000E+00  0.70207782165E+03  0.70207782165E+03  0.25500000000E-02 0.  1.
         -2   -1    0    0    0  501 -0.00000000000E+00 -0.00000000000E+00 -0.94860560163E+02  0.94860560198E+02  0.25500000000E-02 0. -1.
    5000001    1    1    2    0    0  0.81271620896E+02 -0.10738463887E+03  0.52862580245E+03  0.56991821873E+03  0.16500000000E+03 0.  0.
   -5000001    1    1    2    0    0 -0.81271620896E+02  0.10738463887E+03  0.78591459039E+02  0.22702016312E+03  0.16500000000E+03 0.  0.
<mgrwt>
<rscale>  0 0.51613756E+03</rscale>
<asrwt>0</asrwt>
<pdfrwt beam="1">  1        2 0.10029684E+00 0.51613756E+03</pdfrwt>
<pdfrwt beam="2">  1       -2 0.13551508E-01 0.51613756E+03</pdfrwt>
<totfact> 0.18610050E+03</totfact>
</mgrwt>
</event>
<event>
 4    1  0.5312547E-005  0.5385372E+03  0.7818608E-02  0.1004182E+00
         -2   -1    0    0    0  501 -0.00000000000E+00  0.00000000000E+00  0.14383061483E+03  0.14383061485E+03  0.25500000000E-02 0. -1.
          2   -1    0    0  501    0  0.00000000000E+00 -0.00000000000E+00 -0.50410400343E+03  0.50410400344E+03  0.25500000000E-02 0.  1.
    5000001    1    1    2    0    0  0.40949732352E+02  0.20169571576E+03 -0.11509435443E+03  0.28780158574E+03  0.16500000000E+03 0.  0.
   -5000001    1    1    2    0    0 -0.40949732352E+02 -0.20169571576E+03 -0.24517903417E+03  0.36013303255E+03  0.16500000000E+03 0.  0.
<mgrwt>
<rscale>  0 0.53853724E+03</rscale>
<asrwt>0</asrwt>
<pdfrwt beam="1">  1        2 0.72014856E-01 0.53853724E+03</pdfrwt>
<pdfrwt beam="2">  1       -2 0.20547231E-01 0.53853724E+03</pdfrwt>
<totfact> 0.13523360E+03</totfact>
</mgrwt>
</event>
<event>
 4    1  0.5312547E-005  0.3938255E+03  0.7818608E-02  0.1045939E+00
          2   -1    0    0  501    0  0.00000000000E+00  0.00000000000E+00  0.16520082535E+04  0.16520082535E+04  0.25500000000E-02 0.  1.
         -2   -1    0    0    0  501 -0.00000000000E+00 -0.00000000000E+00 -0.23471207696E+02  0.23471207834E+02  0.25500000000E-02 0. -1.
    5000001    1    1    2    0    0  0.58603662511E+02 -0.88267559804E+02  0.89085635543E+03  0.91218177870E+03  0.16500000000E+03 0.  0.
   -5000001    1    1    2    0    0 -0.58603662511E+02  0.88267559804E+02  0.73768069036E+03  0.76329768262E+03  0.16500000000E+03 0.  0.
<mgrwt>
<rscale>  0 0.39382549E+03</rscale>
<asrwt>0</asrwt>
<pdfrwt beam="1">  1        2 0.23600124E+00 0.39382549E+03</pdfrwt>
<pdfrwt beam="2">  1       -2 0.33530288E-02 0.39382549E+03</pdfrwt>
<totfact> 0.47031126E+03</totfact>
</mgrwt>
</event>
<event>
 4    1  0.5312547E-005  0.5961078E+03  0.7818608E-02  0.9913514E-01
         -2   -1    0    0    0  501 -0.00000000000E+00  0.00000000000E+00  0.16605945389E+03  0.16605945391E+03  0.25500000000E-02 0. -1.
          2   -1    0    0  501    0  0.00000000000E+00 -0.00000000000E+00 -0.53496575644E+03  0.53496575644E+03  0.25500000000E-02 0.  1.
    5000001    1    1    2    0    0  0.10382260914E+03  0.22530385828E+03 -0.17460285144E+03  0.34532900031E+03  0.16500000000E+03 0.  0.
   -5000001    1    1    2    0    0 -0.10382260914E+03 -0.22530385828E+03 -0.19430345110E+03  0.35569621004E+03  0.16500000000E+03 0.  0.
<mgrwt>
<rscale>  0 0.59610778E+03</rscale>
<asrwt>0</asrwt>
<pdfrwt beam="1">  1        2 0.76423679E-01 0.59610778E+03</pdfrwt>
<pdfrwt beam="2">  1       -2 0.23722779E-01 0.59610778E+03</pdfrwt>
<totfact> 0.98046250E+02</totfact>
</mgrwt>
</event>
<event>
 4    1  0.5312547E-005  0.3377866E+03  0.7818608E-02  0.1067743E+00
          2   -1    0    0  501    0  0.00000000000E+00  0.00000000000E+00  0.27527683445E+03  0.27527683446E+03  0.25500000000E-02 0.  1.
         -2   -1    0    0    0  501 -0.00000000000E+00 -0.00000000000E+00 -0.10362277733E+03  0.10362277736E+03  0.25500000000E-02 0. -1.
    5000001    1    1    2    0    0 -0.31319223151E+02  0.98716311449E+01  0.10252538541E+03  0.19701471390E+03  0.16500000000E+03 0.  0.
   -5000001    1    1    2    0    0  0.31319223151E+02 -0.98716311449E+01  0.69128671710E+02  0.18188489792E+03  0.16500000000E+03 0.  0.
<mgrwt>
<rscale>  0 0.33778662E+03</rscale>
<asrwt>0</asrwt>
<pdfrwt beam="1">  1        2 0.39325262E-01 0.33778662E+03</pdfrwt>
<pdfrwt beam="2">  1       -2 0.14803254E-01 0.33778662E+03</pdfrwt>
<totfact> 0.45664032E+03</totfact>
</mgrwt>
</event>
<event>
 4    1  0.5312547E-005  0.8556296E+03  0.7818608E-02  0.9482812E-01
         -2   -1    0    0    0  501 -0.00000000000E+00  0.00000000000E+00  0.63314867633E+03  0.63314867634E+03  0.25500000000E-02 0. -1.
          2   -1    0    0  501    0  0.00000000000E+00 -0.00000000000E+00 -0.28907191334E+03  0.28907191335E+03  0.25500000000E-02 0.  1.
    5000001    1    1    2    0    0  0.10468813859E+03  0.34832327541E+03  0.33730755447E+03  0.52277155322E+03  0.16500000000E+03 0.  0.
   -5000001    1    1    2    0    0 -0.10468813859E+03 -0.34832327541E+03  0.67692085194E+01  0.39944903647E+03  0.16500000000E+03 0.  0.
<mgrwt>
<rscale>  0 0.85562959E+03</rscale>
<asrwt>0</asrwt>
<pdfrwt beam="1">  1        2 0.41295988E-01 0.85562959E+03</pdfrwt>
<pdfrwt beam="2">  1       -2 0.90449810E-01 0.85562959E+03</pdfrwt>
<totfact> 0.13055969E+02</totfact>
</mgrwt>
</event>
<event>
 4    1  0.5312547E-005  0.4314559E+03  0.7818608E-02  0.1033401E+00
          2   -1    0    0  501    0  0.00000000000E+00  0.00000000000E+00  0.11868274650E+04  0.11868274650E+04  0.25500000000E-02 0.  1.
         -2   -1    0    0    0  501 -0.00000000000E+00 -0.00000000000E+00 -0.39212564355E+02  0.39212564438E+02  0.25500000000E-02 0. -1.
    5000001    1    1    2    0    0  0.10398429723E+03  0.79760114416E+02  0.44237951423E+03  0.48999902503E+03  0.16500000000E+03 0.  0.
   -5000001    1    1    2    0    0 -0.10398429723E+03 -0.79760114416E+02  0.70523538643E+03  0.73604100443E+03  0.16500000000E+03 0.  0.
<mgrwt>
<rscale>  0 0.43145590E+03</rscale>
<asrwt>0</asrwt>
<pdfrwt beam="1">  1        2 0.16954680E+00 0.43145590E+03</pdfrwt>
<pdfrwt beam="2">  1       -2 0.56017941E-02 0.43145590E+03</pdfrwt>
<totfact> 0.37647714E+03</totfact>
</mgrwt>
</event>
<event>
 4    1  0.5312547E-005  0.8167121E+03  0.7818608E-02  0.9536137E-01
          2   -1    0    0  501    0  0.00000000000E+00  0.00000000000E+00  0.53315881678E+03  0.53315881679E+03  0.25500000000E-02 0.  1.
         -2   -1    0    0    0  501 -0.00000000000E+00 -0.00000000000E+00 -0.31276735795E+03  0.31276735796E+03  0.25500000000E-02 0. -1.
    5000001    1    1    2    0    0  0.36526132858E+03 -0.38323292124E+02  0.18078909275E+03  0.44135496930E+03  0.16500000000E+03 0.  0.
   -5000001    1    1    2    0    0 -0.36526132858E+03  0.38323292124E+02  0.39602366084E+02  0.40457120544E+03  0.16500000000E+03 0.  0.
<mgrwt>
<rscale>  0 0.81671213E+03</rscale>
<asrwt>0</asrwt>
<pdfrwt beam="1">  1        2 0.76165545E-01 0.81671213E+03</pdfrwt>
<pdfrwt beam="2">  1       -2 0.44681051E-01 0.81671213E+03</pdfrwt>
<totfact> 0.29764783E+02</totfact>
</mgrwt>
</event>
<event>
 4    1  0.5312547E-005  0.4203531E+03  0.7818608E-02  0.1036951E+00
          2   -1    0    0  501    0  0.00000000000E+00  0.00000000000E+00  0.39833607130E+04  0.39833607130E+04  0.25500000000E-02 0.  1.
         -2   -1    0    0    0  501 -0.00000000000E+00 -0.00000000000E+00 -0.11089676833E+02  0.11089677126E+02  0.25500000000E-02 0. -1.
    5000001    1    1    2    0    0 -0.12808655973E+03 -0.22826924805E+02  0.20306543191E+04  0.20414968036E+04  0.16500000000E+03 0.  0.
   -5000001    1    1    2    0    0  0.12808655973E+03  0.22826924805E+02  0.19416167170E+04  0.19529535865E+04  0.16500000000E+03 0.  0.
<mgrwt>
<rscale>  0 0.42035311E+03</rscale>
<asrwt>0</asrwt>
<pdfrwt beam="1">  1        2 0.56905048E+00 0.42035311E+03</pdfrwt>
<pdfrwt beam="2">  1       -2 0.15842425E-02 0.42035311E+03</pdfrwt>
<totfact> 0.78610450E+02</totfact>
</mgrwt>
</event>
<event>
 4    1  0.5312547E-005  0.3868629E+03  0.7818608E-02  0.1048426E+00
         -2   -1    0    0    0  501 -0.00000000000E+00  0.00000000000E+00  0.29523914976E+02  0.29523915086E+02  0.25500000000E-02 0. -1.
          2   -1    0    0  501    0  0.00000000000E+00 -0.00000000000E+00 -0.12673024478E+04  0.12673024478E+04  0.25500000000E-02 0.  1.
    5000001    1    1    2    0    0 -0.66573591666E+02  0.72783550271E+02 -0.54689649210E+03  0.57969842277E+03  0.16500000000E+03 0.  0.
   -5000001    1    1    2    0    0  0.66573591666E+02 -0.72783550271E+02 -0.69088204075E+03  0.71712794014E+03  0.16500000000E+03 0.  0.
<mgrwt>
<rscale>  0 0.38686292E+03</rscale>
<asrwt>0</asrwt>
<pdfrwt beam="1">  1        2 0.18104317E+00 0.38686292E+03</pdfrwt>
<pdfrwt beam="2">  1       -2 0.42177030E-02 0.38686292E+03</pdfrwt>
<totfact> 0.52539890E+03</totfact>
</mgrwt>
</event>
<event>
 4    1  0.5312547E-005  0.6874571E+03  0.7818608E-02  0.9738926E-01
         -2   -1    0    0    0  501 -0.00000000000E+00  0.00000000000E+00  0.61646516884E+02  0.61646516937E+02  0.25500000000E-02 0. -1.
          2   -1    0    0  501    0  0.00000000000E+00 -0.00000000000E+00 -0.19165612731E+04  0.19165612731E+04  0.25500000000E-02 0.  1.
    5000001    1    1    2    0    0  0.58655553303E+02 -0.20672091818E+03 -0.31872789836E+03  0.41831385960E+03  0.16500000000E+03 0.  0.
   -5000001    1    1    2    0    0 -0.58655553303E+02  0.20672091818E+03 -0.15361868578E+04  0.15598939304E+04  0.16500000000E+03 0.  0.
<mgrwt>
<rscale>  0 0.68745713E+03</rscale>
<asrwt>0</asrwt>
<pdfrwt beam="1">  1        2 0.27379443E+00 0.68745713E+03</pdfrwt>
<pdfrwt beam="2">  1       -2 0.88066465E-02 0.68745713E+03</pdfrwt>
<totfact> 0.76311890E+02</totfact>
</mgrwt>
</event>
<event>
 4    1  0.5312547E-005  0.3873907E+03  0.7818608E-02  0.1048235E+00
         -2   -1    0    0    0  501 -0.00000000000E+00  0.00000000000E+00  0.30406282352E+03  0.30406282353E+03  0.25500000000E-02 0. -1.
          2   -1    0    0  501    0  0.00000000000E+00 -0.00000000000E+00 -0.12338857991E+03  0.12338857994E+03  0.25500000000E-02 0.  1.
    5000001    1    1    2    0    0  0.12345579055E+02  0.80083761748E+02  0.15770000544E+03  0.24219850110E+03  0.16500000000E+03 0.  0.
   -5000001    1    1    2    0    0 -0.12345579055E+02 -0.80083761748E+02  0.22974238162E+02  0.18525290237E+03  0.16500000000E+03 0.  0.
<mgrwt>
<rscale>  0 0.38739066E+03</rscale>
<asrwt>0</asrwt>
<pdfrwt beam="1">  1        2 0.17626940E-01 0.38739066E+03</pdfrwt>
<pdfrwt beam="2">  1       -2 0.43437545E-01 0.38739066E+03</pdfrwt>
<totfact> 0.16458169E+03</totfact>
</mgrwt>
</event>
<event>
 4    1  0.5312547E-005  0.4305758E+03  0.7818608E-02  0.1033678E+00
         -2   -1    0    0    0  501 -0.00000000000E+00  0.00000000000E+00  0.19414286057E+02  0.19414286224E+02  0.25500000000E-02 0. -1.
          2   -1    0    0  501    0  0.00000000000E+00 -0.00000000000E+00 -0.23873597437E+04  0.23873597437E+04  0.25500000000E-02 0.  1.
    5000001    1    1    2    0    0 -0.12205140825E+01 -0.10884638909E+03 -0.16607307058E+04  0.16724534383E+04  0.16500000000E+03 0.  0.
   -5000001    1    1    2    0    0  0.12205140825E+01  0.10884638909E+03 -0.70721475187E+03  0.73432059166E+03  0.16500000000E+03 0.  0.
<mgrwt>
<rscale>  0 0.43057582E+03</rscale>
<asrwt>0</asrwt>
<pdfrwt beam="1">  1        2 0.34105121E+00 0.43057582E+03</pdfrwt>
<pdfrwt beam="2">  1       -2 0.27734710E-02 0.43057582E+03</pdfrwt>
<totfact> 0.26925809E+03</totfact>
</mgrwt>
</event>
<event>
 4    1  0.5312547E-005  0.3619222E+03  0.7818608E-02  0.1057825E+00
         -2   -1    0    0    0  501 -0.00000000000E+00  0.00000000000E+00  0.68913988239E+02  0.68913988286E+02  0.25500000000E-02 0. -1.
          2   -1    0    0  501    0  0.00000000000E+00 -0.00000000000E+00 -0.47518542226E+03  0.47518542227E+03  0.25500000000E-02 0.  1.
    5000001    1    1    2    0    0  0.53813494129E+02 -0.33025461643E+02 -0.26204267793E+03  0.31603471064E+03  0.16500000000E+03 0.  0.
   -5000001    1    1    2    0    0 -0.53813494129E+02  0.33025461643E+02 -0.14422875609E+03  0.22806469992E+03  0.16500000000E+03 0.  0.
<mgrwt>
<rscale>  0 0.36192222E+03</rscale>
<asrwt>0</asrwt>
<pdfrwt beam="1">  1        2 0.67883630E-01 0.36192222E+03</pdfrwt>
<pdfrwt beam="2">  1       -2 0.98448557E-02 0.36192222E+03</pdfrwt>
<totfact> 0.48974905E+03</totfact>
</mgrwt>
</event>
<event>
 4    1  0.5312547E-005  0.6036340E+03  0.7818608E-02  0.9897895E-01
         -2   -1    0    0    0  501 -0.00000000000E+00  0.00000000000E+00  0.84423542282E+02  0.84423542321E+02  0.25500000000E-02 0. -1.
          2   -1    0    0  501    0  0.00000000000E+00 -0.00000000000E+00 -0.10790059521E+04  0.10790059521E+04  0.25500000000E-02 0.  1.
    5000001    1    1    2    0    0 -0.13890832067E+03  0.16905908603E+03 -0.25355621786E+03  0.37335271759E+03  0.16500000000E+03 0.  0.
   -5000001    1    1    2    0    0  0.13890832067E+03 -0.16905908603E+03 -0.74102619198E+03  0.79007677685E+03  0.16500000000E+03 0.  0.
<mgrwt>
<rscale>  0 0.60363401E+03</rscale>
<asrwt>0</asrwt>
<pdfrwt beam="1">  1        2 0.15414370E+00 0.60363401E+03</pdfrwt>
<pdfrwt beam="2">  1       -2 0.12060507E-01 0.60363401E+03</pdfrwt>
<totfact> 0.12765382E+03</totfact>
</mgrwt>
</event>
<event>
 4    1  0.5312547E-005  0.3966458E+03  0.7818608E-02  0.1044947E+00
          2   -1    0    0  501    0  0.00000000000E+00  0.00000000000E+00  0.72058207152E+03  0.72058207152E+03  0.25500000000E-02 0.  1.
         -2   -1    0    0    0  501 -0.00000000000E+00 -0.00000000000E+00 -0.54583625570E+02  0.54583625630E+02  0.25500000000E-02 0. -1.
    5000001    1    1    2    0    0 -0.47367737941E+02 -0.77824553804E+02  0.45357534065E+03  0.49117812800E+03  0.16500000000E+03 0.  0.
   -5000001    1    1    2    0    0  0.47367737941E+02  0.77824553804E+02  0.21242310529E+03  0.28398756915E+03  0.16500000000E+03 0.  0.
<mgrwt>
<rscale>  0 0.39664585E+03</rscale>
<asrwt>0</asrwt>
<pdfrwt beam="1">  1        2 0.10294029E+00 0.39664585E+03</pdfrwt>
<pdfrwt beam="2">  1       -2 0.77976611E-02 0.39664585E+03</pdfrwt>
<totfact> 0.43915166E+03</totfact>
</mgrwt>
</event>
<event>
 4    1  0.5312547E-005  0.5386431E+03  0.7818608E-02  0.1004157E+00
          2   -1    0    0  501    0  0.00000000000E+00  0.00000000000E+00  0.10753063789E+04  0.10753063789E+04  0.25500000000E-02 0.  1.
         -2   -1    0    0    0  501 -0.00000000000E+00 -0.00000000000E+00 -0.67454358551E+02  0.67454358599E+02  0.25500000000E-02 0. -1.
    5000001    1    1    2    0    0  0.13530597092E+03  0.96597318918E+02  0.78594400729E+03  0.82010470696E+03  0.16500000000E+03 0.  0.
   -5000001    1    1    2    0    0 -0.13530597092E+03 -0.96597318918E+02  0.22190801309E+03  0.32265603056E+03  0.16500000000E+03 0.  0.
<mgrwt>
<rscale>  0 0.53864312E+03</rscale>
<asrwt>0</asrwt>
<pdfrwt beam="1">  1        2 0.15361520E+00 0.53864312E+03</pdfrwt>
<pdfrwt beam="2">  1       -2 0.96363365E-02 0.53864312E+03</pdfrwt>
<totfact> 0.18513657E+03</totfact>
</mgrwt>
</event>
<event>
 4    1  0.5312547E-005  0.1174238E+04  0.7818608E-02  0.9135710E-01
         -2   -1    0    0    0  501 -0.00000000000E+00  0.00000000000E+00  0.28454212056E+03  0.28454212057E+03  0.25500000000E-02 0. -1.
          2   -1    0    0  501    0  0.00000000000E+00 -0.00000000000E+00 -0.12114504723E+04  0.12114504723E+04  0.25500000000E-02 0.  1.
    5000001    1    1    2    0    0  0.16746855571E+03  0.51463294476E+03 -0.26367024322E+03  0.62421132811E+03  0.16500000000E+03 0.  0.
   -5000001    1    1    2    0    0 -0.16746855571E+03 -0.51463294476E+03 -0.66323810853E+03  0.87178126477E+03  0.16500000000E+03 0.  0.
<mgrwt>
<rscale>  0 0.11742379E+04</rscale>
<asrwt>0</asrwt>
<pdfrwt beam="1">  1        2 0.17306435E+00 0.11742379E+04</pdfrwt>
<pdfrwt beam="2">  1       -2 0.40648875E-01 0.11742379E+04</pdfrwt>
<totfact> 0.11913501E+02</totfact>
</mgrwt>
</event>
<event>
 4    1  0.5312547E-005  0.4417020E+03  0.7818608E-02  0.1030226E+00
          2   -1    0    0  501    0  0.00000000000E+00  0.00000000000E+00  0.23545593262E+04  0.23545593262E+04  0.25500000000E-02 0.  1.
         -2   -1    0    0    0  501 -0.00000000000E+00 -0.00000000000E+00 -0.20715194100E+02  0.20715194257E+02  0.25500000000E-02 0. -1.
    5000001    1    1    2    0    0 -0.63193728412E+02 -0.13225139567E+03  0.11231438237E+04  0.11446226136E+04  0.16500000000E+03 0.  0.
   -5000001    1    1    2    0    0  0.63193728412E+02  0.13225139567E+03  0.12107003084E+04  0.12306519068E+04  0.16500000000E+03 0.  0.
<mgrwt>
<rscale>  0 0.44170195E+03</rscale>
<asrwt>0</asrwt>
<pdfrwt beam="1">  1        2 0.33636584E+00 0.44170195E+03</pdfrwt>
<pdfrwt beam="2">  1       -2 0.29593115E-02 0.44170195E+03</pdfrwt>
<totfact> 0.25351307E+03</totfact>
</mgrwt>
</event>
<event>
 4    1  0.5312547E-005  0.5724182E+03  0.7818608E-02  0.9964342E-01
          2   -1    0    0  501    0  0.00000000000E+00  0.00000000000E+00  0.19656048862E+03  0.19656048864E+03  0.25500000000E-02 0.  1.
         -2   -1    0    0    0  501 -0.00000000000E+00 -0.00000000000E+00 -0.41674518281E+03  0.41674518282E+03  0.25500000000E-02 0. -1.
    5000001    1    1    2    0    0 -0.67740138943E+02  0.15465705045E+03  0.63277741200E+02  0.24441072441E+03  0.16500000000E+03 0.  0.
   -5000001    1    1    2    0    0  0.67740138943E+02 -0.15465705045E+03 -0.28346243538E+03  0.36889494704E+03  0.16500000000E+03 0.  0.
<mgrwt>
<rscale>  0 0.57241816E+03</rscale>
<asrwt>0</asrwt>
<pdfrwt beam="1">  1        2 0.28080070E-01 0.57241816E+03</pdfrwt>
<pdfrwt beam="2">  1       -2 0.59535026E-01 0.57241816E+03</pdfrwt>
<totfact> 0.50925784E+02</totfact>
</mgrwt>
</event>
<event>
 4    1  0.5312547E-005  0.5551518E+03  0.7818608E-02  0.1000308E+00
          2   -1    0    0  501    0  0.00000000000E+00  0.00000000000E+00  0.13613606282E+04  0.13613606282E+04  0.25500000000E-02 0.  1.
         -2   -1    0    0    0  501 -0.00000000000E+00 -0.00000000000E+00 -0.56596604679E+02  0.56596604736E+02  0.25500000000E-02 0. -1.
    5000001    1    1    2    0    0  0.49012371938E+02  0.19324344245E+03  0.90879601270E+03  0.94492350661E+03  0.16500000000E+03 0.  0.
   -5000001    1    1    2    0    0 -0.49012371938E+02 -0.19324344245E+03  0.39596801087E+03  0.47303372637E+03  0.16500000000E+03 0.  0.
<mgrwt>
<rscale>  0 0.55515183E+03</rscale>
<asrwt>0</asrwt>
<pdfrwt beam="1">  1        2 0.19448009E+00 0.55515183E+03</pdfrwt>
<pdfrwt beam="2">  1       -2 0.80852292E-02 0.55515183E+03</pdfrwt>
<totfact> 0.16990743E+03</totfact>
</mgrwt>
</event>
<event>
 4    1  0.5312547E-005  0.9208944E+03  0.7818608E-02  0.9399833E-01
         -2   -1    0    0    0  501 -0.00000000000E+00  0.00000000000E+00  0.17012970830E+03  0.17012970832E+03  0.25500000000E-02 0. -1.
          2   -1    0    0  501    0  0.00000000000E+00 -0.00000000000E+00 -0.12461763224E+04  0.12461763224E+04  0.25500000000E-02 0.  1.
    5000001    1    1    2    0    0 -0.78306692234E+02  0.23440326309E+03 -0.10789635740E+04  0.11191354797E+04  0.16500000000E+03 0.  0.
   -5000001    1    1    2    0    0  0.78306692234E+02 -0.23440326309E+03  0.29169598560E+01  0.29717055112E+03  0.16500000000E+03 0.  0.
<mgrwt>
<rscale>  0 0.92089438E+03</rscale>
<asrwt>0</asrwt>
<pdfrwt beam="1">  1        2 0.17802518E+00 0.92089438E+03</pdfrwt>
<pdfrwt beam="2">  1       -2 0.24304245E-01 0.92089438E+03</pdfrwt>
<totfact> 0.30331842E+02</totfact>
</mgrwt>
</event>
<event>
 4    1  0.5312547E-005  0.5201942E+03  0.7818608E-02  0.1008638E+00
          2   -1    0    0  501    0  0.00000000000E+00  0.00000000000E+00  0.80359060040E+03  0.80359060041E+03  0.25500000000E-02 0.  1.
         -2   -1    0    0    0  501 -0.00000000000E+00 -0.00000000000E+00 -0.84185280188E+02  0.84185280227E+02  0.25500000000E-02 0. -1.
    5000001    1    1    2    0    0 -0.12832502570E+03 -0.76447158540E+02  0.58939433671E+03  0.63001759056E+03  0.16500000000E+03 0.  0.
   -5000001    1    1    2    0    0  0.12832502570E+03  0.76447158540E+02  0.13001098350E+03  0.25775829007E+03  0.16500000000E+03 0.  0.
<mgrwt>
<rscale>  0 0.52019419E+03</rscale>
<asrwt>0</asrwt>
<pdfrwt beam="1">  1        2 0.11479866E+00 0.52019419E+03</pdfrwt>
<pdfrwt beam="2">  1       -2 0.12026468E-01 0.52019419E+03</pdfrwt>
<totfact> 0.19157518E+03</totfact>
</mgrwt>
</event>
<event>
 4    1  0.5312547E-005  0.5913114E+03  0.7818608E-02  0.9923598E-01
          2   -1    0    0  501    0  0.00000000000E+00  0.00000000000E+00  0.36103428246E+03  0.36103428247E+03  0.25500000000E-02 0.  1.
         -2   -1    0    0    0  501 -0.00000000000E+00 -0.00000000000E+00 -0.24211634390E+03  0.24211634392E+03  0.25500000000E-02 0. -1.
    5000001    1    1    2    0    0  0.67498418651E+02  0.23086638383E+03  0.10871638523E+03  0.31128696747E+03  0.16500000000E+03 0.  0.
   -5000001    1    1    2    0    0 -0.67498418651E+02 -0.23086638383E+03  0.10201553321E+02  0.29186365891E+03  0.16500000000E+03 0.  0.
<mgrwt>
<rscale>  0 0.59131143E+03</rscale>
<asrwt>0</asrwt>
<pdfrwt beam="1">  1        2 0.51576326E-01 0.59131143E+03</pdfrwt>
<pdfrwt beam="2">  1       -2 0.34588049E-01 0.59131143E+03</pdfrwt>
<totfact> 0.76349776E+02</totfact>
</mgrwt>
</event>
<event>
 4    1  0.5312547E-005  0.4998966E+03  0.7818608E-02  0.1013806E+00
          2   -1    0    0  501    0  0.00000000000E+00  0.00000000000E+00  0.50353430511E+03  0.50353430512E+03  0.25500000000E-02 0.  1.
         -2   -1    0    0    0  501 -0.00000000000E+00 -0.00000000000E+00 -0.12407129719E+03  0.12407129721E+03  0.25500000000E-02 0. -1.
    5000001    1    1    2    0    0  0.44277521067E+02 -0.17385957521E+03  0.12026522852E+03  0.27180208969E+03  0.16500000000E+03 0.  0.
   -5000001    1    1    2    0    0 -0.44277521067E+02  0.17385957521E+03  0.25919777940E+03  0.35580351265E+03  0.16500000000E+03 0.  0.
<mgrwt>
<rscale>  0 0.49989661E+03</rscale>
<asrwt>0</asrwt>
<pdfrwt beam="1">  1        2 0.71933472E-01 0.49989661E+03</pdfrwt>
<pdfrwt beam="2">  1       -2 0.17724471E-01 0.49989661E+03</pdfrwt>
<totfact> 0.17473061E+03</totfact>
</mgrwt>
</event>
<event>
 4    1  0.5312547E-005  0.3499587E+03  0.7818608E-02  0.1062632E+00
         -2   -1    0    0    0  501 -0.00000000000E+00  0.00000000000E+00  0.15074763408E+03  0.15074763410E+03  0.25500000000E-02 0. -1.
          2   -1    0    0  501    0  0.00000000000E+00 -0.00000000000E+00 -0.20310619214E+03  0.20310619216E+03  0.25500000000E-02 0.  1.
    5000001    1    1    2    0    0  0.37093014555E+02 -0.45260496128E+01  0.18999133276E+02  0.17024201573E+03  0.16500000000E+03 0.  0.
   -5000001    1    1    2    0    0 -0.37093014555E+02  0.45260496128E+01 -0.71357691336E+02  0.18361181053E+03  0.16500000000E+03 0.  0.
<mgrwt>
<rscale>  0 0.34995873E+03</rscale>
<asrwt>0</asrwt>
<pdfrwt beam="1">  1        2 0.29015170E-01 0.34995873E+03</pdfrwt>
<pdfrwt beam="2">  1       -2 0.21535376E-01 0.34995873E+03</pdfrwt>
<totfact> 0.33785459E+03</totfact>
</mgrwt>
</event>
<event>
 4    1  0.5312547E-005  0.6722520E+03  0.7818608E-02  0.9765898E-01
          2   -1    0    0  501    0  0.00000000000E+00  0.00000000000E+00  0.19100129986E+04  0.19100129986E+04  0.25500000000E-02 0.  1.
         -2   -1    0    0    0  501 -0.00000000000E+00 -0.00000000000E+00 -0.59151784118E+02  0.59151784172E+02  0.25500000000E-02 0. -1.
    5000001    1    1    2    0    0  0.21335352312E+03  0.19706570592E+03  0.10350728949E+04  0.10876375849E+04  0.16500000000E+03 0.  0.
   -5000001    1    1    2    0    0 -0.21335352312E+03 -0.19706570592E+03  0.81578831962E+03  0.88152719794E+03  0.16500000000E+03 0.  0.
<mgrwt>
<rscale>  0 0.67225197E+03</rscale>
<asrwt>0</asrwt>
<pdfrwt beam="1">  1        2 0.27285900E+00 0.67225197E+03</pdfrwt>
<pdfrwt beam="2">  1       -2 0.84502550E-02 0.67225197E+03</pdfrwt>
<totfact> 0.82242274E+02</totfact>
</mgrwt>
</event>
<event>
 4    1  0.5312547E-005  0.1050355E+04  0.7818608E-02  0.9254978E-01
         -2   -1    0    0    0  501 -0.00000000000E+00  0.00000000000E+00  0.39187214460E+03  0.39187214461E+03  0.25500000000E-02 0. -1.
          2   -1    0    0  501    0  0.00000000000E+00 -0.00000000000E+00 -0.70382989519E+03  0.70382989519E+03  0.25500000000E-02 0.  1.
    5000001    1    1    2    0    0 -0.38218293565E+03 -0.54635955884E+02 -0.48509538639E+03  0.64155390878E+03  0.16500000000E+03 0.  0.
   -5000001    1    1    2    0    0  0.38218293565E+03  0.54635955884E+02  0.17313763580E+03  0.45414813102E+03  0.16500000000E+03 0.  0.
<mgrwt>
<rscale>  0 0.10503549E+04</rscale>
<asrwt>0</asrwt>
<pdfrwt beam="1">  1        2 0.10054713E+00 0.10503549E+04</pdfrwt>
<pdfrwt beam="2">  1       -2 0.55981735E-01 0.10503549E+04</pdfrwt>
<totfact> 0.13341873E+02</totfact>
</mgrwt>
</event>
<event>
 4    1  0.5312547E-005  0.4407614E+03  0.7818608E-02  0.1030513E+00
         -2   -1    0    0    0  501 -0.00000000000E+00  0.00000000000E+00  0.36978118979E+02  0.36978119067E+02  0.25500000000E-02 0. -1.
          2   -1    0    0  501    0  0.00000000000E+00 -0.00000000000E+00 -0.13134159471E+04  0.13134159471E+04  0.25500000000E-02 0.  1.
    5000001    1    1    2    0    0 -0.33627526705E+02  0.93079704176E+02 -0.96745735614E+03  0.98640426694E+03  0.16500000000E+03 0.  0.
   -5000001    1    1    2    0    0  0.33627526705E+02 -0.93079704176E+02 -0.30898047200E+03  0.36398979925E+03  0.16500000000E+03 0.  0.
<mgrwt>
<rscale>  0 0.44076139E+03</rscale>
<asrwt>0</asrwt>
<pdfrwt beam="1">  1        2 0.18763082E+00 0.44076139E+03</pdfrwt>
<pdfrwt beam="2">  1       -2 0.52825893E-02 0.44076139E+03</pdfrwt>
<totfact> 0.35168253E+03</totfact>
</mgrwt>
</event>
<event>
 4    1  0.5312547E-005  0.3840873E+03  0.7818608E-02  0.1049433E+00
          2   -1    0    0  501    0  0.00000000000E+00  0.00000000000E+00  0.47387574954E+03  0.47387574954E+03  0.25500000000E-02 0.  1.
         -2   -1    0    0    0  501 -0.00000000000E+00 -0.00000000000E+00 -0.77827915436E+02  0.77827915477E+02  0.25500000000E-02 0. -1.
    5000001    1    1    2    0    0 -0.85199204359E+02 -0.48897324097E+02  0.19453223500E+03  0.27334528198E+03  0.16500000000E+03 0.  0.
   -5000001    1    1    2    0    0  0.85199204359E+02  0.48897324097E+02  0.20151559910E+03  0.27835838304E+03  0.16500000000E+03 0.  0.
<mgrwt>
<rscale>  0 0.38408729E+03</rscale>
<asrwt>0</asrwt>
<pdfrwt beam="1">  1        2 0.67696537E-01 0.38408729E+03</pdfrwt>
<pdfrwt beam="2">  1       -2 0.11118273E-01 0.38408729E+03</pdfrwt>
<totfact> 0.40450584E+03</totfact>
</mgrwt>
</event>
<event>
 4    1  0.5312547E-005  0.4314226E+03  0.7818608E-02  0.1033412E+00
          2   -1    0    0  501    0  0.00000000000E+00  0.00000000000E+00  0.35674529014E+03  0.35674529015E+03  0.25500000000E-02 0.  1.
         -2   -1    0    0    0  501 -0.00000000000E+00 -0.00000000000E+00 -0.13043302586E+03  0.13043302588E+03  0.25500000000E-02 0. -1.
    5000001    1    1    2    0    0  0.32553499686E+02 -0.12915260819E+03  0.15784654386E+03  0.26434949963E+03  0.16500000000E+03 0.  0.
   -5000001    1    1    2    0    0 -0.32553499686E+02  0.12915260819E+03  0.68465720422E+02  0.22282881640E+03  0.16500000000E+03 0.  0.
<mgrwt>
<rscale>  0 0.43142261E+03</rscale>
<asrwt>0</asrwt>
<pdfrwt beam="1">  1        2 0.50963612E-01 0.43142261E+03</pdfrwt>
<pdfrwt beam="2">  1       -2 0.18633290E-01 0.43142261E+03</pdfrwt>
<totfact> 0.23480975E+03</totfact>
</mgrwt>
</event>
<event>
 4    1  0.5312547E-005  0.3966444E+03  0.7818608E-02  0.1044948E+00
         -2   -1    0    0    0  501 -0.00000000000E+00  0.00000000000E+00  0.52417352050E+02  0.52417352112E+02  0.25500000000E-02 0. -1.
          2   -1    0    0  501    0  0.00000000000E+00 -0.00000000000E+00 -0.75035627545E+03  0.75035627545E+03  0.25500000000E-02 0.  1.
    5000001    1    1    2    0    0 -0.55017117889E+02 -0.93157005491E+02 -0.30841143301E+03  0.36612528313E+03  0.16500000000E+03 0.  0.
   -5000001    1    1    2    0    0  0.55017117889E+02  0.93157005491E+02 -0.38952749039E+03  0.43664834444E+03  0.16500000000E+03 0.  0.
<mgrwt>
<rscale>  0 0.39664437E+03</rscale>
<asrwt>0</asrwt>
<pdfrwt beam="1">  1        2 0.10719375E+00 0.39664437E+03</pdfrwt>
<pdfrwt beam="2">  1       -2 0.74881936E-02 0.39664437E+03</pdfrwt>
<totfact> 0.44542558E+03</totfact>
</mgrwt>
</event>
<event>
 4    1  0.5312547E-005  0.6793653E+03  0.7818608E-02  0.9753186E-01
         -2   -1    0    0    0  501 -0.00000000000E+00  0.00000000000E+00  0.16449986706E+03  0.16449986708E+03  0.25500000000E-02 0. -1.
          2   -1    0    0  501    0  0.00000000000E+00 -0.00000000000E+00 -0.70142485981E+03  0.70142485981E+03  0.25500000000E-02 0.  1.
    5000001    1    1    2    0    0  0.11898299673E+02 -0.29665936154E+03 -0.26424474089E+03  0.43034710341E+03  0.16500000000E+03 0.  0.
   -5000001    1    1    2    0    0 -0.11898299673E+02  0.29665936154E+03 -0.27268025185E+03  0.43557762348E+03  0.16500000000E+03 0.  0.
<mgrwt>
<rscale>  0 0.67936528E+03</rscale>
<asrwt>0</asrwt>
<pdfrwt beam="1">  1        2 0.10020355E+00 0.67936528E+03</pdfrwt>
<pdfrwt beam="2">  1       -2 0.23499981E-01 0.67936528E+03</pdfrwt>
<totfact> 0.72191720E+02</totfact>
</mgrwt>
</event>
<event>
 4    1  0.5312547E-005  0.7007039E+03  0.7818608E-02  0.9716029E-01
          2   -1    0    0  501    0  0.00000000000E+00  0.00000000000E+00  0.50604280282E+03  0.50604280283E+03  0.25500000000E-02 0.  1.
         -2   -1    0    0    0  501 -0.00000000000E+00 -0.00000000000E+00 -0.24256149128E+03  0.24256149129E+03  0.25500000000E-02 0. -1.
    5000001    1    1    2    0    0  0.23404983903E+03 -0.20178643851E+03  0.13701829052E+03  0.37615968132E+03  0.16500000000E+03 0.  0.
   -5000001    1    1    2    0    0 -0.23404983903E+03  0.20178643851E+03  0.12646302102E+03  0.37244461280E+03  0.16500000000E+03 0.  0.
<mgrwt>
<rscale>  0 0.70070392E+03</rscale>
<asrwt>0</asrwt>
<pdfrwt beam="1">  1        2 0.72291828E-01 0.70070392E+03</pdfrwt>
<pdfrwt beam="2">  1       -2 0.34651642E-01 0.70070392E+03</pdfrwt>
<totfact> 0.51988766E+02</totfact>
</mgrwt>
</event>
<event>
 4    1  0.5312547E-005  0.5705819E+03  0.7818608E-02  0.9968392E-01
          2   -1    0    0  501    0  0.00000000000E+00  0.00000000000E+00  0.67527708333E+03  0.67527708333E+03  0.25500000000E-02 0.  1.
         -2   -1    0    0    0  501 -0.00000000000E+00 -0.00000000000E+00 -0.12052967223E+03  0.12052967226E+03  0.25500000000E-02 0. -1.
    5000001    1    1    2    0    0  0.17529318064E+03  0.10910261460E+03  0.12757932213E+03  0.29348349719E+03  0.16500000000E+03 0.  0.
   -5000001    1    1    2    0    0 -0.17529318064E+03 -0.10910261460E+03  0.42716808897E+03  0.50232325840E+03  0.16500000000E+03 0.  0.
<mgrwt>
<rscale>  0 0.57058190E+03</rscale>
<asrwt>0</asrwt>
<pdfrwt beam="1">  1        2 0.96468152E-01 0.57058190E+03</pdfrwt>
<pdfrwt beam="2">  1       -2 0.17218525E-01 0.57058190E+03</pdfrwt>
<totfact> 0.13034286E+03</totfact>
</mgrwt>
</event>
<event>
 4    1  0.5312547E-005  0.9633847E+03  0.7818608E-02  0.9349641E-01
         -2   -1    0    0    0  501 -0.00000000000E+00  0.00000000000E+00  0.49412127808E+03  0.49412127809E+03  0.25500000000E-02 0. -1.
          2   -1    0    0  501    0  0.00000000000E+00 -0.00000000000E+00 -0.46957602403E+03  0.46957602404E+03  0.25500000000E-02 0.  1.
    5000001    1    1    2    0    0  0.24989929664E+03 -0.35050674707E+03 -0.12740744930E+03  0.47829101637E+03  0.16500000000E+03 0.  0.
   -5000001    1    1    2    0    0 -0.24989929664E+03  0.35050674707E+03  0.15195270335E+03  0.48540628576E+03  0.16500000000E+03 0.  0.
<mgrwt>
<rscale>  0 0.96338467E+03</rscale>
<asrwt>0</asrwt>
<pdfrwt beam="1">  1        2 0.67082289E-01 0.96338467E+03</pdfrwt>
<pdfrwt beam="2">  1       -2 0.70588754E-01 0.96338467E+03</pdfrwt>
<totfact> 0.13182002E+02</totfact>
</mgrwt>
</event>
<event>
 4    1  0.5312547E-005  0.4148331E+03  0.7818608E-02  0.1038761E+00
          2   -1    0    0  501    0  0.00000000000E+00  0.00000000000E+00  0.70932468527E+03  0.70932468527E+03  0.25500000000E-02 0.  1.
         -2   -1    0    0    0  501 -0.00000000000E+00 -0.00000000000E+00 -0.60651528905E+02  0.60651528959E+02  0.25500000000E-02 0. -1.
    5000001    1    1    2    0    0 -0.10776645729E+03  0.58632023127E+02  0.27366430365E+03  0.34229880886E+03  0.16500000000E+03 0.  0.
   -5000001    1    1    2    0    0  0.10776645729E+03 -0.58632023127E+02  0.37500885272E+03  0.42767740538E+03  0.16500000000E+03 0.  0.
<mgrwt>
<rscale>  0 0.41483311E+03</rscale>
<asrwt>0</asrwt>
<pdfrwt beam="1">  1        2 0.10133210E+00 0.41483311E+03</pdfrwt>
<pdfrwt beam="2">  1       -2 0.86645044E-02 0.41483311E+03</pdfrwt>
<totfact> 0.37915273E+03</totfact>
</mgrwt>
</event>
<event>
 4    1  0.5312547E-005  0.3487211E+03  0.7818608E-02  0.1063141E+00
          2   -1    0    0  501    0  0.00000000000E+00  0.00000000000E+00  0.95581783867E+03  0.95581783867E+03  0.25500000000E-02 0.  1.
         -2   -1    0    0    0  501 -0.00000000000E+00 -0.00000000000E+00 -0.31806891808E+02  0.31806891911E+02  0.25500000000E-02 0. -1.
    5000001    1    1    2    0    0  0.37276918301E+02 -0.36828654561E+02  0.40323093664E+03  0.43882354848E+03  0.16500000000E+03 0.  0.
   -5000001    1    1    2    0    0 -0.37276918301E+02  0.36828654561E+02  0.52078001022E+03  0.54880118210E+03  0.16500000000E+03 0.  0.
<mgrwt>
<rscale>  0 0.34872106E+03</rscale>
<asrwt>0</asrwt>
<pdfrwt beam="1">  1        2 0.13654540E+00 0.34872106E+03</pdfrwt>
<pdfrwt beam="2">  1       -2 0.45438418E-02 0.34872106E+03</pdfrwt>
<totfact> 0.70488635E+03</totfact>
</mgrwt>
</event>
<event>
 4    1  0.5312547E-005  0.4266558E+03  0.7818608E-02  0.1034922E+00
          2   -1    0    0  501    0  0.00000000000E+00  0.00000000000E+00  0.19026302822E+04  0.19026302822E+04  0.25500000000E-02 0.  1.
         -2   -1    0    0    0  501 -0.00000000000E+00 -0.00000000000E+00 -0.23918879985E+02  0.23918880121E+02  0.25500000000E-02 0. -1.
    5000001    1    1    2    0    0 -0.99349454004E+02  0.60174585781E+02  0.62675991595E+03  0.65844079994E+03  0.16500000000E+03 0.  0.
   -5000001    1    1    2    0    0  0.99349454004E+02 -0.60174585781E+02  0.12519514863E+04  0.12681083624E+04  0.16500000000E+03 0.  0.
<mgrwt>
<rscale>  0 0.42665577E+03</rscale>
<asrwt>0</asrwt>
<pdfrwt beam="1">  1        2 0.27180445E+00 0.42665577E+03</pdfrwt>
<pdfrwt beam="2">  1       -2 0.34169813E-02 0.42665577E+03</pdfrwt>
<totfact> 0.34262134E+03</totfact>
</mgrwt>
</event>
<event>
 4    1  0.5312547E-005  0.4446683E+03  0.7818608E-02  0.1029324E+00
          2   -1    0    0  501    0  0.00000000000E+00  0.00000000000E+00  0.31670587378E+04  0.31670587378E+04  0.25500000000E-02 0.  1.
         -2   -1    0    0    0  501 -0.00000000000E+00 -0.00000000000E+00 -0.15608320484E+02  0.15608320692E+02  0.25500000000E-02 0. -1.
    5000001    1    1    2    0    0 -0.12690304732E+03  0.70436185517E+02  0.18175804462E+04  0.18308165713E+04  0.16500000000E+03 0.  0.
   -5000001    1    1    2    0    0  0.12690304732E+03 -0.70436185517E+02  0.13338699712E+04  0.13518504872E+04  0.16500000000E+03 0.  0.
<mgrwt>
<rscale>  0 0.44466827E+03</rscale>
<asrwt>0</asrwt>
<pdfrwt beam="1">  1        2 0.45243679E+00 0.44466827E+03</pdfrwt>
<pdfrwt beam="2">  1       -2 0.22297610E-02 0.44466827E+03</pdfrwt>
<totfact> 0.14553434E+03</totfact>
</mgrwt>
</event>
<event>
 4    1  0.5312547E-005  0.5213484E+03  0.7818608E-02  0.1008352E+00
          2   -1    0    0  501    0  0.00000000000E+00  0.00000000000E+00  0.82531777672E+03  0.82531777672E+03  0.25500000000E-02 0.  1.
         -2   -1    0    0    0  501 -0.00000000000E+00 -0.00000000000E+00 -0.82333175451E+02  0.82333175491E+02  0.25500000000E-02 0. -1.
    5000001    1    1    2    0    0  0.10037828538E+03  0.16854715036E+03  0.45392840921E+03  0.52130599724E+03  0.16500000000E+03 0.  0.
   -5000001    1    1    2    0    0 -0.10037828538E+03 -0.16854715036E+03  0.28905619205E+03  0.38634495497E+03  0.16500000000E+03 0.  0.
<mgrwt>
<rscale>  0 0.52134838E+03</rscale>
<asrwt>0</asrwt>
<pdfrwt beam="1">  1        2 0.11790254E+00 0.52134838E+03</pdfrwt>
<pdfrwt beam="2">  1       -2 0.11761882E-01 0.52134838E+03</pdfrwt>
<totfact> 0.19202500E+03</totfact>
</mgrwt>
</event>
<event>
 4    1  0.5312547E-005  0.5415250E+03  0.7818608E-02  0.1003475E+00
         -2   -1    0    0    0  501 -0.00000000000E+00  0.00000000000E+00  0.59870545985E+02  0.59870546039E+02  0.25500000000E-02 0. -1.
          2   -1    0    0  501    0  0.00000000000E+00 -0.00000000000E+00 -0.12245143533E+04  0.12245143534E+04  0.25500000000E-02 0.  1.
    5000001    1    1    2    0    0 -0.21136302868E+03 -0.90807828034E+01 -0.66883714865E+03  0.72064202064E+03  0.16500000000E+03 0.  0.
   -5000001    1    1    2    0    0  0.21136302868E+03  0.90807828034E+01 -0.49580665872E+03  0.56374287875E+03  0.16500000000E+03 0.  0.
<mgrwt>
<rscale>  0 0.54152504E+03</rscale>
<asrwt>0</asrwt>
<pdfrwt beam="1">  1        2 0.17493061E+00 0.54152504E+03</pdfrwt>
<pdfrwt beam="2">  1       -2 0.85529359E-02 0.54152504E+03</pdfrwt>
<totfact> 0.18439379E+03</totfact>
</mgrwt>
</event>
<event>
 4    1  0.5312547E-005  0.3823806E+03  0.7818608E-02  0.1050057E+00
         -2   -1    0    0    0  501 -0.00000000000E+00  0.00000000000E+00  0.13913834555E+03  0.13913834557E+03  0.25500000000E-02 0.  1.
          2   -1    0    0  501    0  0.00000000000E+00 -0.00000000000E+00 -0.26271493903E+03  0.26271493904E+03  0.25500000000E-02 0. -1.
    5000001    1    1    2    0    0 -0.35362445108E+02 -0.89357705851E+02 -0.71945901746E+02  0.20405027542E+03  0.16500000000E+03 0.  0.
   -5000001    1    1    2    0    0  0.35362445108E+02  0.89357705851E+02 -0.51630691732E+02  0.19780300920E+03  0.16500000000E+03 0.  0.
<mgrwt>
<rscale>  0 0.38238055E+03</rscale>
<asrwt>0</asrwt>
<pdfrwt beam="1">  1        2 0.37530706E-01 0.38238055E+03</pdfrwt>
<pdfrwt beam="2">  1       -2 0.19876907E-01 0.38238055E+03</pdfrwt>
<totfact> 0.29290546E+03</totfact>
</mgrwt>
</event>
<event>
 4    1  0.5312547E-005  0.5080845E+03  0.7818608E-02  0.1011690E+00
          2   -1    0    0  501    0  0.00000000000E+00  0.00000000000E+00  0.10552147517E+03  0.10552147520E+03  0.25500000000E-02 0.  1.
         -2   -1    0    0    0  501 -0.00000000000E+00 -0.00000000000E+00 -0.61160513549E+03  0.61160513549E+03  0.25500000000E-02 0. -1.
    5000001    1    1    2    0    0 -0.18475848397E+03  0.30038632798E+02 -0.18572883175E+03  0.31105982673E+03  0.16500000000E+03 0.  0.
   -5000001    1    1    2    0    0  0.18475848397E+03 -0.30038632798E+02 -0.32035482856E+03  0.40606678397E+03  0.16500000000E+03 0.  0.
<mgrwt>
<rscale>  0 0.50808454E+03</rscale>
<asrwt>0</asrwt>
<pdfrwt beam="1">  1        2 0.15074497E-01 0.50808454E+03</pdfrwt>
<pdfrwt beam="2">  1       -2 0.87372160E-01 0.50808454E+03</pdfrwt>
<totfact> 0.45524319E+02</totfact>
</mgrwt>
</event>
<event>
 4    1  0.5312547E-005  0.3850300E+03  0.7818608E-02  0.1049090E+00
         -2   -1    0    0    0  501 -0.00000000000E+00  0.00000000000E+00  0.10518820073E+03  0.10518820076E+03  0.25500000000E-02 0. -1.
          2   -1    0    0  501    0  0.00000000000E+00 -0.00000000000E+00 -0.35234018898E+03  0.35234018899E+03  0.25500000000E-02 0.  1.
    5000001    1    1    2    0    0  0.76441345883E+02  0.52678129891E+02 -0.82091712183E+02  0.20635482533E+03  0.16500000000E+03 0.  0.
   -5000001    1    1    2    0    0 -0.76441345883E+02 -0.52678129891E+02 -0.16506027606E+03  0.25117356442E+03  0.16500000000E+03 0.  0.
<mgrwt>
<rscale>  0 0.38503003E+03</rscale>
<asrwt>0</asrwt>
<pdfrwt beam="1">  1        2 0.50334312E-01 0.38503003E+03</pdfrwt>
<pdfrwt beam="2">  1       -2 0.15026886E-01 0.38503003E+03</pdfrwt>
<totfact> 0.34166442E+03</totfact>
</mgrwt>
</event>
<event>
 4    1  0.5312547E-005  0.4321504E+03  0.7818608E-02  0.1033183E+00
         -2   -1    0    0    0  501 -0.00000000000E+00  0.00000000000E+00  0.73629083826E+02  0.73629083870E+02  0.25500000000E-02 0. -1.
          2   -1    0    0  501    0  0.00000000000E+00 -0.00000000000E+00 -0.63410379652E+03  0.63410379653E+03  0.25500000000E-02 0.  1.
    5000001    1    1    2    0    0 -0.19803729521E+02 -0.13101447174E+03 -0.35174511174E+03  0.41049555800E+03  0.16500000000E+03 0.  0.
   -5000001    1    1    2    0    0  0.19803729521E+02  0.13101447174E+03 -0.20872960096E+03  0.29723732240E+03  0.16500000000E+03 0.  0.
<mgrwt>
<rscale>  0 0.43215035E+03</rscale>
<asrwt>0</asrwt>
<pdfrwt beam="1">  1        2 0.90586254E-01 0.43215035E+03</pdfrwt>
<pdfrwt beam="2">  1       -2 0.10518441E-01 0.43215035E+03</pdfrwt>
<totfact> 0.31791056E+03</totfact>
</mgrwt>
</event>
<event>
 4    1  0.5312547E-005  0.4723476E+03  0.7818608E-02  0.1021260E+00
          2   -1    0    0  501    0  0.00000000000E+00  0.00000000000E+00  0.10005389912E+04  0.10005389912E+04  0.25500000000E-02 0. -1.
         -2   -1    0    0    0  501 -0.00000000000E+00 -0.00000000000E+00 -0.55748024999E+02  0.55748025057E+02  0.25500000000E-02 0.  1.
    5000001    1    1    2    0    0 -0.15914330049E+03  0.55923213925E+02  0.49465450839E+03  0.54805298887E+03  0.16500000000E+03 0.  0.
   -5000001    1    1    2    0    0  0.15914330049E+03 -0.55923213925E+02  0.45013645785E+03  0.50823402742E+03  0.16500000000E+03 0.  0.
<mgrwt>
<rscale>  0 0.47234764E+03</rscale>
<asrwt>0</asrwt>
<pdfrwt beam="1">  1        2 0.14293413E+00 0.47234764E+03</pdfrwt>
<pdfrwt beam="2">  1       -2 0.79640042E-02 0.47234764E+03</pdfrwt>
<totfact> 0.27819004E+03</totfact>
</mgrwt>
</event>
<event>
 4    1  0.5312547E-005  0.4209755E+03  0.7818608E-02  0.1036749E+00
         -2   -1    0    0    0  501 -0.00000000000E+00  0.00000000000E+00  0.37319028682E+02  0.37319028769E+02  0.25500000000E-02 0. -1.
          2   -1    0    0  501    0  0.00000000000E+00 -0.00000000000E+00 -0.11871984710E+04  0.11871984710E+04  0.25500000000E-02 0.  1.
    5000001    1    1    2    0    0 -0.35053646239E+02 -0.12332594456E+03 -0.50123562508E+03  0.54304714212E+03  0.16500000000E+03 0.  0.
   -5000001    1    1    2    0    0  0.35053646239E+02  0.12332594456E+03 -0.64864381720E+03  0.68147035762E+03  0.16500000000E+03 0.  0.
<mgrwt>
<rscale>  0 0.42097550E+03</rscale>
<asrwt>0</asrwt>
<pdfrwt beam="1">  1        2 0.16959976E+00 0.42097550E+03</pdfrwt>
<pdfrwt beam="2">  1       -2 0.53312905E-02 0.42097550E+03</pdfrwt>
<totfact> 0.40614956E+03</totfact>
</mgrwt>
</event>
<event>
 4    1  0.5312547E-005  0.5207582E+03  0.7818608E-02  0.1008498E+00
         -2   -1    0    0    0  501 -0.00000000000E+00  0.00000000000E+00  0.56280043142E+03  0.56280043143E+03  0.25500000000E-02 0. -1.
          2   -1    0    0  501    0  0.00000000000E+00 -0.00000000000E+00 -0.12046414660E+03  0.12046414663E+03  0.25500000000E-02 0.  1.
    5000001    1    1    2    0    0 -0.92223905161E+02  0.53183631180E+02 -0.31841626964E+01  0.19638962855E+03  0.16500000000E+03 0.  0.
   -5000001    1    1    2    0    0  0.92223905161E+02 -0.53183631180E+02  0.44552044752E+03  0.48687494951E+03  0.16500000000E+03 0.  0.
<mgrwt>
<rscale>  0 0.52075819E+03</rscale>
<asrwt>0</asrwt>
<pdfrwt beam="1">  1        2 0.17209164E-01 0.52075819E+03</pdfrwt>
<pdfrwt beam="2">  1       -2 0.80400063E-01 0.52075819E+03</pdfrwt>
<totfact> 0.46854994E+02</totfact>
</mgrwt>
</event>
<event>
 4    1  0.5312547E-005  0.6327235E+03  0.7818608E-02  0.9839748E-01
          2   -1    0    0  501    0  0.00000000000E+00  0.00000000000E+00  0.18405289508E+04  0.18405289508E+04  0.25500000000E-02 0.  1.
         -2   -1    0    0    0  501 -0.00000000000E+00 -0.00000000000E+00 -0.54378264243E+02  0.54378264303E+02  0.25500000000E-02 0. -1.
    5000001    1    1    2    0    0  0.94543759099E+02  0.24848183966E+03  0.10328425077E+04  0.10791989588E+04  0.16500000000E+03 0.  0.
   -5000001    1    1    2    0    0 -0.94543759099E+02 -0.24848183966E+03  0.75330817888E+03  0.81570825630E+03  0.16500000000E+03 0.  0.
<mgrwt>
<rscale>  0 0.63272354E+03</rscale>
<asrwt>0</asrwt>
<pdfrwt beam="1">  1        2 0.26293277E+00 0.63272354E+03</pdfrwt>
<pdfrwt beam="2">  1       -2 0.77683215E-02 0.63272354E+03</pdfrwt>
<totfact> 0.10220989E+03</totfact>
</mgrwt>
</event>
<event>
 4    1  0.5312547E-005  0.5196682E+03  0.7818608E-02  0.1008769E+00
         -2   -1    0    0    0  501 -0.00000000000E+00  0.00000000000E+00  0.98993450205E+02  0.98993450238E+02  0.25500000000E-02 0. -1.
          2   -1    0    0  501    0  0.00000000000E+00 -0.00000000000E+00 -0.68200215724E+03  0.68200215725E+03  0.25500000000E-02 0.  1.
    5000001    1    1    2    0    0 -0.19253847253E+03  0.30636540116E+02 -0.36325119893E+03  0.44405640916E+03  0.16500000000E+03 0.  0.
   -5000001    1    1    2    0    0  0.19253847253E+03 -0.30636540116E+02 -0.21975750811E+03  0.33693919832E+03  0.16500000000E+03 0.  0.
<mgrwt>
<rscale>  0 0.51966815E+03</rscale>
<asrwt>0</asrwt>
<pdfrwt beam="1">  1        2 0.97428877E-01 0.51966815E+03</pdfrwt>
<pdfrwt beam="2">  1       -2 0.14141922E-01 0.51966815E+03</pdfrwt>
<totfact> 0.17956243E+03</totfact>
</mgrwt>
</event>
<event>
 4    1  0.5312547E-005  0.8480817E+03  0.7818608E-02  0.9492915E-01
          2   -1    0    0  501    0  0.00000000000E+00  0.00000000000E+00  0.18666940492E+04  0.18666940492E+04  0.25500000000E-02 0.  1.
         -2   -1    0    0    0  501 -0.00000000000E+00 -0.00000000000E+00 -0.96325707137E+02  0.96325707170E+02  0.25500000000E-02 0. -1.
    5000001    1    1    2    0    0  0.78005578192E+02  0.38262568495E+03  0.86223058251E+03  0.96080896251E+03  0.16500000000E+03 0.  0.
   -5000001    1    1    2    0    0 -0.78005578192E+02 -0.38262568495E+03  0.90813775955E+03  0.10022107939E+04  0.16500000000E+03 0.  0.
<mgrwt>
<rscale>  0 0.84808166E+03</rscale>
<asrwt>0</asrwt>
<pdfrwt beam="1">  1        2 0.26667058E+00 0.84808166E+03</pdfrwt>
<pdfrwt beam="2">  1       -2 0.13760815E-01 0.84808166E+03</pdfrwt>
<totfact> 0.38488826E+02</totfact>
</mgrwt>
</event>
<event>
 4    1  0.5312547E-005  0.4342097E+03  0.7818608E-02  0.1032538E+00
         -2   -1    0    0    0  501 -0.00000000000E+00  0.00000000000E+00  0.35830097706E+02  0.35830097796E+02  0.25500000000E-02 0. -1.
          2   -1    0    0  501    0  0.00000000000E+00 -0.00000000000E+00 -0.13155007111E+04  0.13155007111E+04  0.25500000000E-02 0.  1.
    5000001    1    1    2    0    0 -0.62440069580E+02  0.12619626173E+03 -0.61109869243E+03  0.64845267418E+03  0.16500000000E+03 0.  0.
   -5000001    1    1    2    0    0  0.62440069580E+02 -0.12619626173E+03 -0.66857192096E+03  0.70287813471E+03  0.16500000000E+03 0.  0.
<mgrwt>
<rscale>  0 0.43420971E+03</rscale>
<asrwt>0</asrwt>
<pdfrwt beam="1">  1        2 0.18792864E+00 0.43420971E+03</pdfrwt>
<pdfrwt beam="2">  1       -2 0.51185862E-02 0.43420971E+03</pdfrwt>
<totfact> 0.36825573E+03</totfact>
</mgrwt>
</event>
<event>
 4    1  0.5312547E-005  0.6863813E+03  0.7818608E-02  0.9740810E-01
         -2   -1    0    0    0  501 -0.00000000000E+00  0.00000000000E+00  0.24180207854E+02  0.24180207989E+02  0.25500000000E-02 0. -1.
          2   -1    0    0  501    0  0.00000000000E+00 -0.00000000000E+00 -0.48709182535E+04  0.48709182535E+04  0.25500000000E-02 0.  1.
    5000001    1    1    2    0    0  0.18860311787E+02  0.29038928658E+03 -0.29699218886E+04  0.29887025067E+04  0.16500000000E+03 0.  0.
   -5000001    1    1    2    0    0 -0.18860311787E+02 -0.29038928658E+03 -0.18768161571E+04  0.19063959548E+04  0.16500000000E+03 0.  0.
<mgrwt>
<rscale>  0 0.68638128E+03</rscale>
<asrwt>0</asrwt>
<pdfrwt beam="1">  1        2 0.69584484E+00 0.68638128E+03</pdfrwt>
<pdfrwt beam="2">  1       -2 0.34543185E-02 0.68638128E+03</pdfrwt>
<totfact> 0.48997442E+01</totfact>
</mgrwt>
</event>
<event>
 4    1  0.5312547E-005  0.9108535E+03  0.7818608E-02  0.9412115E-01
          2   -1    0    0  501    0  0.00000000000E+00  0.00000000000E+00  0.10922577225E+04  0.10922577225E+04  0.25500000000E-02 0.  1.
         -2   -1    0    0    0  501 -0.00000000000E+00 -0.00000000000E+00 -0.18989430523E+03  0.18989430524E+03  0.25500000000E-02 0. -1.
    5000001    1    1    2    0    0 -0.15602014034E+03  0.38071916849E+03  0.59813771742E+03  0.74450191299E+03  0.16500000000E+03 0.  0.
   -5000001    1    1    2    0    0  0.15602014034E+03 -0.38071916849E+03  0.30422569987E+03  0.53765011477E+03  0.16500000000E+03 0.  0.
<mgrwt>
<rscale>  0 0.91085349E+03</rscale>
<asrwt>0</asrwt>
<pdfrwt beam="1">  1        2 0.15603681E+00 0.91085349E+03</pdfrwt>
<pdfrwt beam="2">  1       -2 0.27127758E-01 0.91085349E+03</pdfrwt>
<totfact> 0.30475025E+02</totfact>
</mgrwt>
</event>
<event>
 4    1  0.5312547E-005  0.4095286E+03  0.7818608E-02  0.1040529E+00
          2   -1    0    0  501    0  0.00000000000E+00  0.00000000000E+00  0.77862150208E+03  0.77862150209E+03  0.25500000000E-02 0. -1.
         -2   -1    0    0    0  501 -0.00000000000E+00 -0.00000000000E+00 -0.53849545241E+02  0.53849545302E+02  0.25500000000E-02 0.  1.
    5000001    1    1    2    0    0  0.72763560473E+02 -0.90928285211E+02  0.29372444748E+03  0.35645692563E+03  0.16500000000E+03 0.  0.
   -5000001    1    1    2    0    0 -0.72763560473E+02  0.90928285211E+02  0.43104750936E+03  0.47601412176E+03  0.16500000000E+03 0.  0.
<mgrwt>
<rscale>  0 0.40952858E+03</rscale>
<asrwt>0</asrwt>
<pdfrwt beam="1">  1        2 0.11123164E+00 0.40952858E+03</pdfrwt>
<pdfrwt beam="2">  1       -2 0.76927921E-02 0.40952858E+03</pdfrwt>
<totfact> 0.40802890E+03</totfact>
</mgrwt>
</event>
<event>
 4    1  0.5312547E-005  0.9841462E+03  0.7818608E-02  0.9326106E-01
         -2   -1    0    0    0  501 -0.00000000000E+00  0.00000000000E+00  0.27757083594E+03  0.27757083596E+03  0.25500000000E-02 0. -1.
          2   -1    0    0  501    0  0.00000000000E+00 -0.00000000000E+00 -0.87233919895E+03  0.87233919896E+03  0.25500000000E-02 0.  1.
    5000001    1    1    2    0    0 -0.43071585273E+03  0.27629064876E+02 -0.49509280986E+03  0.67721591933E+03  0.16500000000E+03 0.  0.
   -5000001    1    1    2    0    0  0.43071585273E+03 -0.27629064876E+02 -0.99675553152E+02  0.47269411559E+03  0.16500000000E+03 0.  0.
<mgrwt>
<rscale>  0 0.98414617E+03</rscale>
<asrwt>0</asrwt>
<pdfrwt beam="1">  1        2 0.12461988E+00 0.98414617E+03</pdfrwt>
<pdfrwt beam="2">  1       -2 0.39652977E-01 0.98414617E+03</pdfrwt>
<totfact> 0.20354372E+02</totfact>
</mgrwt>
</event>
<event>
 4    1  0.5312547E-005  0.4323288E+03  0.7818608E-02  0.1033127E+00
          2   -1    0    0  501    0  0.00000000000E+00  0.00000000000E+00  0.19049438248E+04  0.19049438248E+04  0.25500000000E-02 0.  1.
         -2   -1    0    0    0  501 -0.00000000000E+00 -0.00000000000E+00 -0.24529358423E+02  0.24529358555E+02  0.25500000000E-02 0. -1.
    5000001    1    1    2    0    0 -0.54965917460E+01  0.13808610488E+03  0.85049529490E+03  0.87730566596E+03  0.16500000000E+03 0.  0.
   -5000001    1    1    2    0    0  0.54965917460E+01 -0.13808610488E+03  0.10299191715E+04  0.10521675174E+04  0.16500000000E+03 0.  0.
<mgrwt>
<rscale>  0 0.43232881E+03</rscale>
<asrwt>0</asrwt>
<pdfrwt beam="1">  1        2 0.27213479E+00 0.43232881E+03</pdfrwt>
<pdfrwt beam="2">  1       -2 0.35041946E-02 0.43232881E+03</pdfrwt>
<totfact> 0.32887346E+03</totfact>
</mgrwt>
</event>
<event>
 4    1  0.5312547E-005  0.4425109E+03  0.7818608E-02  0.1029979E+00
          2   -1    0    0  501    0  0.00000000000E+00  0.00000000000E+00  0.19973331378E+04  0.19973331378E+04  0.25500000000E-02 0.  1.
         -2   -1    0    0    0  501 -0.00000000000E+00 -0.00000000000E+00 -0.24509674044E+02  0.24509674177E+02  0.25500000000E-02 0. -1.
    5000001    1    1    2    0    0  0.10542849519E+03 -0.89417725481E+02  0.75261846406E+03  0.78279642927E+03  0.16500000000E+03 0.  0.
   -5000001    1    1    2    0    0 -0.10542849519E+03  0.89417725481E+02  0.12202049996E+04  0.12390463827E+04  0.16500000000E+03 0.  0.
<mgrwt>
<rscale>  0 0.44251095E+03</rscale>
<asrwt>0</asrwt>
<pdfrwt beam="1">  1        2 0.28533343E+00 0.44251095E+03</pdfrwt>
<pdfrwt beam="2">  1       -2 0.35013804E-02 0.44251095E+03</pdfrwt>
<totfact> 0.29618050E+03</totfact>
</mgrwt>
</event>
<event>
 4    1  0.5312547E-005  0.4484669E+03  0.7818608E-02  0.1028180E+00
          2   -1    0    0  501    0  0.00000000000E+00  0.00000000000E+00  0.81057400846E+02  0.81057400886E+02  0.25500000000E-02 0.  1.
         -2   -1    0    0    0  501 -0.00000000000E+00 -0.00000000000E+00 -0.62030902077E+03  0.62030902078E+03  0.25500000000E-02 0. -1.
    5000001    1    1    2    0    0 -0.10702271507E+03  0.90556746199E+02 -0.36083402130E+03  0.42080943044E+03  0.16500000000E+03 0.  0.
   -5000001    1    1    2    0    0  0.10702271507E+03 -0.90556746199E+02 -0.17841759863E+03  0.28055699122E+03  0.16500000000E+03 0.  0.
<mgrwt>
<rscale>  0 0.44846689E+03</rscale>
<asrwt>0</asrwt>
<pdfrwt beam="1">  1        2 0.11579629E-01 0.44846689E+03</pdfrwt>
<pdfrwt beam="2">  1       -2 0.88615572E-01 0.44846689E+03</pdfrwt>
<totfact> 0.60882198E+02</totfact>
</mgrwt>
</event>
<event>
 4    1  0.5312547E-005  0.5515169E+03  0.7818608E-02  0.1001143E+00
         -2   -1    0    0    0  501 -0.00000000000E+00  0.00000000000E+00  0.23516249954E+02  0.23516250092E+02  0.25500000000E-02 0. -1.
          2   -1    0    0  501    0  0.00000000000E+00 -0.00000000000E+00 -0.32336249372E+04  0.32336249372E+04  0.25500000000E-02 0.  1.
    5000001    1    1    2    0    0 -0.16725944691E+03 -0.11183452420E+03 -0.10658767782E+04  0.10971786498E+04  0.16500000000E+03 0.  0.
   -5000001    1    1    2    0    0  0.16725944691E+03  0.11183452420E+03 -0.21442319090E+04  0.21599625374E+04  0.16500000000E+03 0.  0.
<mgrwt>
<rscale>  0 0.55151694E+03</rscale>
<asrwt>0</asrwt>
<pdfrwt beam="1">  1        2 0.46194614E+00 0.55151694E+03</pdfrwt>
<pdfrwt beam="2">  1       -2 0.33594663E-02 0.55151694E+03</pdfrwt>
<totfact> 0.71184540E+02</totfact>
</mgrwt>
</event>
<event>
 4    1  0.5312547E-005  0.5682930E+03  0.7818608E-02  0.9973463E-01
          2   -1    0    0  501    0  0.00000000000E+00  0.00000000000E+00  0.97138381944E+03  0.97138381944E+03  0.25500000000E-02 0.  1.
         -2   -1    0    0    0  501 -0.00000000000E+00 -0.00000000000E+00 -0.83117738958E+02  0.83117738997E+02  0.25500000000E-02 0. -1.
    5000001    1    1    2    0    0  0.19712873320E+03 -0.12072695748E+03  0.42758928778E+03  0.51331504433E+03  0.16500000000E+03 0.  0.
   -5000001    1    1    2    0    0 -0.19712873320E+03  0.12072695748E+03  0.46067679270E+03  0.54118651410E+03  0.16500000000E+03 0.  0.
<mgrwt>
<rscale>  0 0.56829298E+03</rscale>
<asrwt>0</asrwt>
<pdfrwt beam="1">  1        2 0.13876912E+00 0.56829298E+03</pdfrwt>
<pdfrwt beam="2">  1       -2 0.11873963E-01 0.56829298E+03</pdfrwt>
<totfact> 0.15212731E+03</totfact>
</mgrwt>
</event>
<event>
 4    1  0.5312547E-005  0.8126417E+03  0.7818608E-02  0.9541897E-01
          2   -1    0    0  501    0  0.00000000000E+00  0.00000000000E+00  0.55108325958E+03  0.55108325958E+03  0.25500000000E-02 0.  1.
         -2   -1    0    0    0  501 -0.00000000000E+00 -0.00000000000E+00 -0.29958563837E+03  0.29958563838E+03  0.25500000000E-02 0. -1.
    5000001    1    1    2    0    0  0.14277463951E+03  0.18052569507E+03  0.43075518808E+03  0.51550863846E+03  0.16500000000E+03 0.  0.
   -5000001    1    1    2    0    0 -0.14277463951E+03 -0.18052569507E+03 -0.17925756688E+03  0.33516025951E+03  0.16500000000E+03 0.  0.
<mgrwt>
<rscale>  0 0.81264169E+03</rscale>
<asrwt>0</asrwt>
<pdfrwt beam="1">  1        2 0.78726181E-01 0.81264169E+03</pdfrwt>
<pdfrwt beam="2">  1       -2 0.42797948E-01 0.81264169E+03</pdfrwt>
<totfact> 0.31199565E+02</totfact>
</mgrwt>
</event>
<event>
 4    1  0.5312547E-005  0.7094203E+03  0.7818608E-02  0.9701256E-01
          2   -1    0    0  501    0  0.00000000000E+00  0.00000000000E+00  0.19795384367E+04  0.19795384367E+04  0.25500000000E-02 0.  1.
         -2   -1    0    0    0  501 -0.00000000000E+00 -0.00000000000E+00 -0.63559921188E+02  0.63559921239E+02  0.25500000000E-02 0. -1.
    5000001    1    1    2    0    0  0.20657707906E+03 -0.87617307019E+02  0.32542492454E+03  0.42834246065E+03  0.16500000000E+03 0.  0.
   -5000001    1    1    2    0    0 -0.20657707906E+03  0.87617307019E+02  0.15905535910E+04  0.16147558973E+04  0.16500000000E+03 0.  0.
<mgrwt>
<rscale>  0 0.70942035E+03</rscale>
<asrwt>0</asrwt>
<pdfrwt beam="1">  1        2 0.28279115E+00 0.70942035E+03</pdfrwt>
<pdfrwt beam="2">  1       -2 0.90799905E-02 0.70942035E+03</pdfrwt>
<totfact> 0.67425273E+02</totfact>
</mgrwt>
</event>
<event>
 4    1  0.5312547E-005  0.4666795E+03  0.7818608E-02  0.1022862E+00
         -2   -1    0    0    0  501 -0.00000000000E+00  0.00000000000E+00  0.62595675870E+02  0.62595675922E+02  0.25500000000E-02 0. -1.
          2   -1    0    0  501    0  0.00000000000E+00 -0.00000000000E+00 -0.86982733624E+03  0.86982733625E+03  0.25500000000E-02 0.  1.
    5000001    1    1    2    0    0  0.25601281617E+02  0.15802676029E+03 -0.48339931786E+03  0.53528290006E+03  0.16500000000E+03 0.  0.
   -5000001    1    1    2    0    0 -0.25601281617E+02 -0.15802676029E+03 -0.32383234252E+03  0.39714011211E+03  0.16500000000E+03 0.  0.
<mgrwt>
<rscale>  0 0.46667946E+03</rscale>
<asrwt>0</asrwt>
<pdfrwt beam="1">  1        2 0.12426104E+00 0.46667946E+03</pdfrwt>
<pdfrwt beam="2">  1       -2 0.89422399E-02 0.46667946E+03</pdfrwt>
<totfact> 0.27937604E+03</totfact>
</mgrwt>
</event>
<event>
 4    1  0.5312547E-005  0.6204986E+03  0.7818608E-02  0.9863768E-01
         -2   -1    0    0    0  501 -0.00000000000E+00  0.00000000000E+00  0.56516721204E+03  0.56516721205E+03  0.25500000000E-02 0. -1.
          2   -1    0    0  501    0  0.00000000000E+00 -0.00000000000E+00 -0.17031175313E+03  0.17031175315E+03  0.25500000000E-02 0.  1.
    5000001    1    1    2    0    0 -0.15798183436E+03  0.52078341758E+02  0.43848240691E+03  0.49715413590E+03  0.16500000000E+03 0.  0.
   -5000001    1    1    2    0    0  0.15798183436E+03 -0.52078341758E+02 -0.43626948003E+02  0.23832482930E+03  0.16500000000E+03 0.  0.
<mgrwt>
<rscale>  0 0.62049857E+03</rscale>
<asrwt>0</asrwt>
<pdfrwt beam="1">  1        2 0.24330250E-01 0.62049857E+03</pdfrwt>
<pdfrwt beam="2">  1       -2 0.80738174E-01 0.62049857E+03</pdfrwt>
<totfact> 0.30930925E+02</totfact>
</mgrwt>
</event>
<event>
 4    1  0.5312547E-005  0.4887434E+03  0.7818608E-02  0.1016760E+00
          2   -1    0    0  501    0  0.00000000000E+00  0.00000000000E+00  0.10771035528E+04  0.10771035528E+04  0.25500000000E-02 0.  1.
         -2   -1    0    0    0  501 -0.00000000000E+00 -0.00000000000E+00 -0.55442708824E+02  0.55442708883E+02  0.25500000000E-02 0. -1.
    5000001    1    1    2    0    0 -0.12253615699E+03  0.45392578163E+02  0.79855312758E+03  0.82582546188E+03  0.16500000000E+03 0.  0.
   -5000001    1    1    2    0    0  0.12253615699E+03 -0.45392578163E+02  0.22310771643E+03  0.30672079984E+03  0.16500000000E+03 0.  0.
<mgrwt>
<rscale>  0 0.48874344E+03</rscale>
<asrwt>0</asrwt>
<pdfrwt beam="1">  1        2 0.15387193E+00 0.48874344E+03</pdfrwt>
<pdfrwt beam="2">  1       -2 0.79203874E-02 0.48874344E+03</pdfrwt>
<totfact> 0.25277792E+03</totfact>
</mgrwt>
</event>
<event>
 4    1  0.5312547E-005  0.5659702E+03  0.7818608E-02  0.9978636E-01
         -2   -1    0    0    0  501 -0.00000000000E+00  0.00000000000E+00  0.27411057192E+03  0.27411057193E+03  0.25500000000E-02 0. -1.
          2   -1    0    0  501    0  0.00000000000E+00 -0.00000000000E+00 -0.29214698200E+03  0.29214698201E+03  0.25500000000E-02 0.  1.
    5000001    1    1    2    0    0  0.12599558965E+03 -0.12840662403E+03 -0.15224263825E+03  0.28769075516E+03  0.16500000000E+03 0.  0.
   -5000001    1    1    2    0    0 -0.12599558965E+03  0.12840662403E+03  0.13420622816E+03  0.27856679878E+03  0.16500000000E+03 0.  0.
<mgrwt>
<rscale>  0 0.56597023E+03</rscale>
<asrwt>0</asrwt>
<pdfrwt beam="1">  1        2 0.41735283E-01 0.56597023E+03</pdfrwt>
<pdfrwt beam="2">  1       -2 0.39158653E-01 0.56597023E+03</pdfrwt>
<totfact> 0.76092958E+02</totfact>
</mgrwt>
</event>
<event>
 4    1  0.5312547E-005  0.7189465E+03  0.7818608E-02  0.9685369E-01
          2   -1    0    0  501    0  0.00000000000E+00  0.00000000000E+00  0.96455366105E+03  0.96455366105E+03  0.25500000000E-02 0.  1.
         -2   -1    0    0    0  501 -0.00000000000E+00 -0.00000000000E+00 -0.13396975230E+03  0.13396975232E+03  0.25500000000E-02 0. -1.
    5000001    1    1    2    0    0  0.14386996941E+03  0.24491431770E+03  0.19221764979E+03  0.38059718339E+03  0.16500000000E+03 0.  0.
   -5000001    1    1    2    0    0 -0.14386996941E+03 -0.24491431770E+03  0.63836625896E+03  0.71792622998E+03  0.16500000000E+03 0.  0.
<mgrwt>
<rscale>  0 0.71894649E+03</rscale>
<asrwt>0</asrwt>
<pdfrwt beam="1">  1        2 0.13779338E+00 0.71894649E+03</pdfrwt>
<pdfrwt beam="2">  1       -2 0.19138536E-01 0.71894649E+03</pdfrwt>
<totfact> 0.68382655E+02</totfact>
</mgrwt>
</event>
<event>
 4    1  0.5312547E-005  0.5816195E+03  0.7818608E-02  0.9944291E-01
          2   -1    0    0  501    0  0.00000000000E+00  0.00000000000E+00  0.11068252535E+04  0.11068252535E+04  0.25500000000E-02 0.  1.
         -2   -1    0    0    0  501 -0.00000000000E+00 -0.00000000000E+00 -0.76407998064E+02  0.76407998106E+02  0.25500000000E-02 0. -1.
    5000001    1    1    2    0    0 -0.14178027383E+03 -0.15638452160E+03  0.28515722533E+03  0.39127663846E+03  0.16500000000E+03 0.  0.
   -5000001    1    1    2    0    0  0.14178027383E+03  0.15638452160E+03  0.74526003006E+03  0.79195661311E+03  0.16500000000E+03 0.  0.
<mgrwt>
<rscale>  0 0.58161947E+03</rscale>
<asrwt>0</asrwt>
<pdfrwt beam="1">  1        2 0.15811789E+00 0.58161947E+03</pdfrwt>
<pdfrwt beam="2">  1       -2 0.10915428E-01 0.58161947E+03</pdfrwt>
<totfact> 0.14488937E+03</totfact>
</mgrwt>
</event>
<event>
 4    1  0.5312547E-005  0.4214246E+03  0.7818608E-02  0.1036604E+00
         -2   -1    0    0    0  501 -0.00000000000E+00  0.00000000000E+00  0.61292711166E+02  0.61292711219E+02  0.25500000000E-02 0. -1.
          2   -1    0    0  501    0  0.00000000000E+00 -0.00000000000E+00 -0.72438737584E+03  0.72438737585E+03  0.25500000000E-02 0.  1.
    5000001    1    1    2    0    0 -0.55984023167E+02 -0.11820572153E+03 -0.34690558074E+03  0.40580202735E+03  0.16500000000E+03 0.  0.
   -5000001    1    1    2    0    0  0.55984023167E+02  0.11820572153E+03 -0.31618908394E+03  0.37987805972E+03  0.16500000000E+03 0.  0.
<mgrwt>
<rscale>  0 0.42142457E+03</rscale>
<asrwt>0</asrwt>
<pdfrwt beam="1">  1        2 0.10348391E+00 0.42142457E+03</pdfrwt>
<pdfrwt beam="2">  1       -2 0.87561020E-02 0.42142457E+03</pdfrwt>
<totfact> 0.36353587E+03</totfact>
</mgrwt>
</event>
<event>
 4    1  0.5312547E-005  0.4647254E+03  0.7818608E-02  0.1023420E+00
         -2   -1    0    0    0  501 -0.00000000000E+00  0.00000000000E+00  0.18328365134E+02  0.18328365311E+02  0.25500000000E-02 0. -1.
          2   -1    0    0  501    0  0.00000000000E+00 -0.00000000000E+00 -0.29458396089E+04  0.29458396089E+04  0.25500000000E-02 0.  1.
    5000001    1    1    2    0    0 -0.26484361014E+02 -0.14679864460E+03 -0.10351171974E+04  0.10587463699E+04  0.16500000000E+03 0.  0.
   -5000001    1    1    2    0    0  0.26484361014E+02  0.14679864460E+03 -0.18923940464E+04  0.19054216043E+04  0.16500000000E+03 0.  0.
<mgrwt>
<rscale>  0 0.46472540E+03</rscale>
<asrwt>0</asrwt>
<pdfrwt beam="1">  1        2 0.42083393E+00 0.46472540E+03</pdfrwt>
<pdfrwt beam="2">  1       -2 0.26183398E-02 0.46472540E+03</pdfrwt>
<totfact> 0.15061021E+03</totfact>
</mgrwt>
</event>
<event>
 4    1  0.5312547E-005  0.5999687E+03  0.7818608E-02  0.9905471E-01
          2   -1    0    0  501    0  0.00000000000E+00  0.00000000000E+00  0.91447698583E+02  0.91447698619E+02  0.25500000000E-02 0.  1.
         -2   -1    0    0    0  501 -0.00000000000E+00 -0.00000000000E+00 -0.98406645828E+03  0.98406645828E+03  0.25500000000E-02 0. -1.
    5000001    1    1    2    0    0 -0.94856513587E+02  0.23006659205E+03 -0.39444050917E+03  0.49470871250E+03  0.16500000000E+03 0.  0.
   -5000001    1    1    2    0    0  0.94856513587E+02 -0.23006659205E+03 -0.49817825053E+03  0.58080544440E+03  0.16500000000E+03 0.  0.
<mgrwt>
<rscale>  0 0.59996871E+03</rscale>
<asrwt>0</asrwt>
<pdfrwt beam="1">  1        2 0.13063958E-01 0.59996871E+03</pdfrwt>
<pdfrwt beam="2">  1       -2 0.14058092E+00 0.59996871E+03</pdfrwt>
<totfact> 0.17137590E+02</totfact>
</mgrwt>
</event>
<event>
 4    1  0.5312547E-005  0.5041639E+03  0.7818608E-02  0.1012698E+00
          2   -1    0    0  501    0  0.00000000000E+00  0.00000000000E+00  0.11426266141E+04  0.11426266141E+04  0.25500000000E-02 0.  1.
         -2   -1    0    0    0  501 -0.00000000000E+00 -0.00000000000E+00 -0.55613368652E+02  0.55613368710E+02  0.25500000000E-02 0. -1.
    5000001    1    1    2    0    0 -0.18348500337E+03 -0.49496768257E+02  0.50959081798E+03  0.56835242438E+03  0.16500000000E+03 0.  0.
   -5000001    1    1    2    0    0  0.18348500337E+03  0.49496768257E+02  0.57742242748E+03  0.62988755844E+03  0.16500000000E+03 0.  0.
<mgrwt>
<rscale>  0 0.50416392E+03</rscale>
<asrwt>0</asrwt>
<pdfrwt beam="1">  1        2 0.16323238E+00 0.50416392E+03</pdfrwt>
<pdfrwt beam="2">  1       -2 0.79447668E-02 0.50416392E+03</pdfrwt>
<totfact> 0.23061537E+03</totfact>
</mgrwt>
</event>
<event>
 4    1  0.5312547E-005  0.3615538E+03  0.7818608E-02  0.1057970E+00
          2   -1    0    0  501    0  0.00000000000E+00  0.00000000000E+00  0.23290739425E+04  0.23290739425E+04  0.25500000000E-02 0.  1.
         -2   -1    0    0    0  501 -0.00000000000E+00 -0.00000000000E+00 -0.14031447563E+02  0.14031447795E+02  0.25500000000E-02 0. -1.
    5000001    1    1    2    0    0 -0.47228148930E+02  0.39065586337E+02  0.89042221383E+03  0.90765265216E+03  0.16500000000E+03 0.  0.
   -5000001    1    1    2    0    0  0.47228148930E+02 -0.39065586337E+02  0.14246202811E+04  0.14354527381E+04  0.16500000000E+03 0.  0.
<mgrwt>
<rscale>  0 0.36155375E+03</rscale>
<asrwt>0</asrwt>
<pdfrwt beam="1">  1        2 0.33272437E+00 0.36155375E+03</pdfrwt>
<pdfrwt beam="2">  1       -2 0.20044954E-02 0.36155375E+03</pdfrwt>
<totfact> 0.46889129E+03</totfact>
</mgrwt>
</event>
<event>
 4    1  0.5312547E-005  0.4468049E+03  0.7818608E-02  0.1028679E+00
         -2   -1    0    0    0  501 -0.00000000000E+00  0.00000000000E+00  0.30213080356E+02  0.30213080463E+02  0.25500000000E-02 0. -1.
          2   -1    0    0  501    0  0.00000000000E+00 -0.00000000000E+00 -0.16518891267E+04  0.16518891267E+04  0.25500000000E-02 0.  1.
    5000001    1    1    2    0    0  0.14852520607E+03 -0.19057502316E+02 -0.87162815544E+03  0.89965747181E+03  0.16500000000E+03 0.  0.
   -5000001    1    1    2    0    0 -0.14852520607E+03  0.19057502316E+02 -0.75004789093E+03  0.78244473538E+03  0.16500000000E+03 0.  0.
<mgrwt>
<rscale>  0 0.44680492E+03</rscale>
<asrwt>0</asrwt>
<pdfrwt beam="1">  1        2 0.23598410E+00 0.44680492E+03</pdfrwt>
<pdfrwt beam="2">  1       -2 0.43161554E-02 0.44680492E+03</pdfrwt>
<totfact> 0.32038855E+03</totfact>
</mgrwt>
</event>
<event>
 4    1  0.5312547E-005  0.4867758E+03  0.7818608E-02  0.1017289E+00
         -2   -1    0    0    0  501 -0.00000000000E+00  0.00000000000E+00  0.44581124534E+02  0.44581124606E+02  0.25500000000E-02 0. -1.
          2   -1    0    0  501    0  0.00000000000E+00 -0.00000000000E+00 -0.13287612235E+04  0.13287612235E+04  0.25500000000E-02 0.  1.
    5000001    1    1    2    0    0 -0.12097551355E+03 -0.12926586253E+03 -0.56917522921E+03  0.61849024216E+03  0.16500000000E+03 0.  0.
   -5000001    1    1    2    0    0  0.12097551355E+03  0.12926586253E+03 -0.71500486979E+03  0.75485210599E+03  0.16500000000E+03 0.  0.
<mgrwt>
<rscale>  0 0.48677580E+03</rscale>
<asrwt>0</asrwt>
<pdfrwt beam="1">  1        2 0.18982301E+00 0.48677580E+03</pdfrwt>
<pdfrwt beam="2">  1       -2 0.63687329E-02 0.48677580E+03</pdfrwt>
<totfact> 0.25804963E+03</totfact>
</mgrwt>
</event>
<event>
 4    1  0.5312547E-005  0.4421421E+03  0.7818608E-02  0.1030092E+00
         -2   -1    0    0    0  501 -0.00000000000E+00  0.00000000000E+00  0.10521440681E+02  0.10521440990E+02  0.25500000000E-02 0. -1.
          2   -1    0    0  501    0  0.00000000000E+00 -0.00000000000E+00 -0.46450296178E+04  0.46450296178E+04  0.25500000000E-02 0.  1.
    5000001    1    1    2    0    0 -0.95532615894E+02  0.30974463336E+02 -0.11850715446E+04  0.12007103997E+04  0.16500000000E+03 0.  0.
   -5000001    1    1    2    0    0  0.95532615894E+02 -0.30974463336E+02 -0.34494366325E+04  0.34548406591E+04  0.16500000000E+03 0.  0.
<mgrwt>
<rscale>  0 0.44214208E+03</rscale>
<asrwt>0</asrwt>
<pdfrwt beam="1">  1        2 0.66357435E+00 0.44214208E+03</pdfrwt>
<pdfrwt beam="2">  1       -2 0.15030660E-02 0.44214208E+03</pdfrwt>
<totfact> 0.27999983E+02</totfact>
</mgrwt>
</event>
<event>
 4    1  0.5312547E-005  0.1301393E+04  0.7818608E-02  0.9028461E-01
         -2   -1    0    0    0  501 -0.00000000000E+00  0.00000000000E+00  0.33991254801E+03  0.33991254802E+03  0.25500000000E-02 0. -1.
          2   -1    0    0  501    0  0.00000000000E+00 -0.00000000000E+00 -0.12456320160E+04  0.12456320160E+04  0.25500000000E-02 0.  1.
    5000001    1    1    2    0    0  0.57492496589E+03  0.22076314646E+03 -0.61127197220E+03  0.88326298872E+03  0.16500000000E+03 0.  0.
   -5000001    1    1    2    0    0 -0.57492496589E+03 -0.22076314646E+03 -0.29444749578E+03  0.70228157530E+03  0.16500000000E+03 0.  0.
<mgrwt>
<rscale>  0 0.13013930E+04</rscale>
<asrwt>0</asrwt>
<pdfrwt beam="1">  1        2 0.17794743E+00 0.13013930E+04</pdfrwt>
<pdfrwt beam="2">  1       -2 0.48558936E-01 0.13013930E+04</pdfrwt>
<totfact> 0.79284769E+01</totfact>
</mgrwt>
</event>
<event>
 4    1  0.5312547E-005  0.4602146E+03  0.7818608E-02  0.1024719E+00
          2   -1    0    0  501    0  0.00000000000E+00  0.00000000000E+00  0.88319683026E+02  0.88319683063E+02  0.25500000000E-02 0.  1.
         -2   -1    0    0    0  501 -0.00000000000E+00 -0.00000000000E+00 -0.59951937703E+03  0.59951937704E+03  0.25500000000E-02 0. -1.
    5000001    1    1    2    0    0 -0.65084249325E+02 -0.13892429334E+03 -0.32551866095E+03  0.39588295924E+03  0.16500000000E+03 0.  0.
   -5000001    1    1    2    0    0  0.65084249325E+02  0.13892429334E+03 -0.18568103306E+03  0.29195610086E+03  0.16500000000E+03 0.  0.
<mgrwt>
<rscale>  0 0.46021456E+03</rscale>
<asrwt>0</asrwt>
<pdfrwt beam="1">  1        2 0.12617098E-01 0.46021456E+03</pdfrwt>
<pdfrwt beam="2">  1       -2 0.85645623E-01 0.46021456E+03</pdfrwt>
<totfact> 0.59167416E+02</totfact>
</mgrwt>
</event>
<event>
 4    1  0.5312547E-005  0.6067746E+03  0.7818608E-02  0.9891450E-01
         -2   -1    0    0    0  501 -0.00000000000E+00  0.00000000000E+00  0.55167575242E+02  0.55167575301E+02  0.25500000000E-02 0. -1.
          2   -1    0    0  501    0  0.00000000000E+00 -0.00000000000E+00 -0.16684410624E+04  0.16684410624E+04  0.25500000000E-02 0.  1.
    5000001    1    1    2    0    0  0.25305680232E+03  0.16327695040E+02 -0.74220382502E+03  0.80149601166E+03  0.16500000000E+03 0.  0.
   -5000001    1    1    2    0    0 -0.25305680232E+03 -0.16327695040E+02 -0.87106966217E+03  0.92211262608E+03  0.16500000000E+03 0.  0.
<mgrwt>
<rscale>  0 0.60677458E+03</rscale>
<asrwt>0</asrwt>
<pdfrwt beam="1">  1        2 0.23834869E+00 0.60677458E+03</pdfrwt>
<pdfrwt beam="2">  1       -2 0.78810832E-02 0.60677458E+03</pdfrwt>
<totfact> 0.12227773E+03</totfact>
</mgrwt>
</event>
<event>
 4    1  0.5312547E-005  0.5852567E+03  0.7818608E-02  0.9936475E-01
         -2   -1    0    0    0  501 -0.00000000000E+00  0.00000000000E+00  0.17922346706E+03  0.17922346708E+03  0.25500000000E-02 0. -1.
          2   -1    0    0  501    0  0.00000000000E+00 -0.00000000000E+00 -0.47779088282E+03  0.47779088283E+03  0.25500000000E-02 0.  1.
    5000001    1    1    2    0    0 -0.19688362290E+03  0.11890633485E+03 -0.65995043577E+02  0.29065825846E+03  0.16500000000E+03 0.  0.
   -5000001    1    1    2    0    0  0.19688362290E+03 -0.11890633485E+03 -0.23257237219E+03  0.36635609145E+03  0.16500000000E+03 0.  0.
<mgrwt>
<rscale>  0 0.58525666E+03</rscale>
<asrwt>0</asrwt>
<pdfrwt beam="1">  1        2 0.68255840E-01 0.58525666E+03</pdfrwt>
<pdfrwt beam="2">  1       -2 0.25603353E-01 0.58525666E+03</pdfrwt>
<totfact> 0.97291913E+02</totfact>
</mgrwt>
</event>
<event>
 4    1  0.5312547E-005  0.5215592E+03  0.7818608E-02  0.1008300E+00
          2   -1    0    0  501    0  0.00000000000E+00  0.00000000000E+00  0.38180529266E+03  0.38180529267E+03  0.25500000000E-02 0. -1.
         -2   -1    0    0    0  501 -0.00000000000E+00 -0.00000000000E+00 -0.17811695882E+03  0.17811695883E+03  0.25500000000E-02 0.  1.
    5000001    1    1    2    0    0 -0.11438336846E+03  0.71431781798E+02 -0.59528415847E+02  0.22125706028E+03  0.16500000000E+03 0.  0.
   -5000001    1    1    2    0    0  0.11438336846E+03 -0.71431781798E+02  0.26321674969E+03  0.33866519123E+03  0.16500000000E+03 0.  0.
<mgrwt>
<rscale>  0 0.52155919E+03</rscale>
<asrwt>0</asrwt>
<pdfrwt beam="1">  1        2 0.54543613E-01 0.52155919E+03</pdfrwt>
<pdfrwt beam="2">  1       -2 0.25445280E-01 0.52155919E+03</pdfrwt>
<totfact> 0.12636922E+03</totfact>
</mgrwt>
</event>
<event>
 4    1  0.5312547E-005  0.4973363E+03  0.7818608E-02  0.1014477E+00
         -2   -1    0    0    0  501 -0.00000000000E+00  0.00000000000E+00  0.66731513931E+02  0.66731513980E+02  0.25500000000E-02 0. -1.
          2   -1    0    0  501    0  0.00000000000E+00 -0.00000000000E+00 -0.92663652838E+03  0.92663652838E+03  0.25500000000E-02 0.  1.
    5000001    1    1    2    0    0 -0.13107056030E+03 -0.13157724044E+03 -0.45172267237E+03  0.51552927629E+03  0.16500000000E+03 0.  0.
   -5000001    1    1    2    0    0  0.13107056030E+03  0.13157724044E+03 -0.40818234207E+03  0.47783876607E+03  0.16500000000E+03 0.  0.
<mgrwt>
<rscale>  0 0.49733634E+03</rscale>
<asrwt>0</asrwt>
<pdfrwt beam="1">  1        2 0.13237664E+00 0.49733634E+03</pdfrwt>
<pdfrwt beam="2">  1       -2 0.95330740E-02 0.49733634E+03</pdfrwt>
<totfact> 0.23190942E+03</totfact>
</mgrwt>
</event>
<event>
 4    1  0.5312547E-005  0.4744073E+03  0.7818608E-02  0.1020684E+00
          2   -1    0    0  501    0  0.00000000000E+00  0.00000000000E+00  0.39591740286E+03  0.39591740287E+03  0.25500000000E-02 0.  1.
         -2   -1    0    0    0  501 -0.00000000000E+00 -0.00000000000E+00 -0.14211443762E+03  0.14211443765E+03  0.25500000000E-02 0. -1.
    5000001    1    1    2    0    0  0.55988729246E+02 -0.11801817598E+03  0.27818140208E+01  0.21046559375E+03  0.16500000000E+03 0.  0.
   -5000001    1    1    2    0    0 -0.55988729246E+02  0.11801817598E+03  0.25102115121E+03  0.32756624676E+03  0.16500000000E+03 0.  0.
<mgrwt>
<rscale>  0 0.47440733E+03</rscale>
<asrwt>0</asrwt>
<pdfrwt beam="1">  1        2 0.56559630E-01 0.47440733E+03</pdfrwt>
<pdfrwt beam="2">  1       -2 0.20302062E-01 0.47440733E+03</pdfrwt>
<totfact> 0.18077971E+03</totfact>
</mgrwt>
</event>
<event>
 4    1  0.5312547E-005  0.1064314E+04  0.7818608E-02  0.9240689E-01
          2   -1    0    0  501    0  0.00000000000E+00  0.00000000000E+00  0.15483736369E+04  0.15483736369E+04  0.25500000000E-02 0.  1.
         -2   -1    0    0    0  501 -0.00000000000E+00 -0.00000000000E+00 -0.18289587001E+03  0.18289587003E+03  0.25500000000E-02 0. -1.
    5000001    1    1    2    0    0 -0.38434614268E+03 -0.23131571485E+03  0.10633103669E+04  0.11657970894E+04  0.16500000000E+03 0.  0.
   -5000001    1    1    2    0    0  0.38434614268E+03  0.23131571485E+03  0.30216739993E+03  0.56547241746E+03  0.16500000000E+03 0.  0.
<mgrwt>
<rscale>  0 0.10643141E+04</rscale>
<asrwt>0</asrwt>
<pdfrwt beam="1">  1        2 0.22119624E+00 0.10643141E+04</pdfrwt>
<pdfrwt beam="2">  1       -2 0.26127981E-01 0.10643141E+04</pdfrwt>
<totfact> 0.18112311E+02</totfact>
</mgrwt>
</event>
<event>
 4    1  0.5312547E-005  0.5106378E+03  0.7818608E-02  0.1011039E+00
          2   -1    0    0  501    0  0.00000000000E+00  0.00000000000E+00  0.12557880036E+03  0.12557880039E+03  0.25500000000E-02 0.  1.
         -2   -1    0    0    0  501 -0.00000000000E+00 -0.00000000000E+00 -0.51909829155E+03  0.51909829155E+03  0.25500000000E-02 0. -1.
    5000001    1    1    2    0    0 -0.19400651134E+03  0.14558740285E+02 -0.18338342371E+03  0.31417346077E+03  0.16500000000E+03 0.  0.
   -5000001    1    1    2    0    0  0.19400651134E+03 -0.14558740285E+02 -0.21013606748E+03  0.33050363117E+03  0.16500000000E+03 0.  0.
<mgrwt>
<rscale>  0 0.51063780E+03</rscale>
<asrwt>0</asrwt>
<pdfrwt beam="1">  1        2 0.17939829E-01 0.51063780E+03</pdfrwt>
<pdfrwt beam="2">  1       -2 0.74156898E-01 0.51063780E+03</pdfrwt>
<totfact> 0.53354391E+02</totfact>
</mgrwt>
</event>
<event>
 4    1  0.5312547E-005  0.5745204E+03  0.7818608E-02  0.9959725E-01
          2   -1    0    0  501    0  0.00000000000E+00  0.00000000000E+00  0.75328238140E+03  0.75328238140E+03  0.25500000000E-02 0.  1.
         -2   -1    0    0    0  501 -0.00000000000E+00 -0.00000000000E+00 -0.10954513163E+03  0.10954513166E+03  0.25500000000E-02 0. -1.
    5000001    1    1    2    0    0  0.14708571636E+03 -0.11193251739E+03  0.10355964846E+03  0.26853807402E+03  0.16500000000E+03 0.  0.
   -5000001    1    1    2    0    0 -0.14708571636E+03  0.11193251739E+03  0.54017760131E+03  0.59428943905E+03  0.16500000000E+03 0.  0.
<mgrwt>
<rscale>  0 0.57452038E+03</rscale>
<asrwt>0</asrwt>
<pdfrwt beam="1">  1        2 0.10761177E+00 0.57452038E+03</pdfrwt>
<pdfrwt beam="2">  1       -2 0.15649305E-01 0.57452038E+03</pdfrwt>
<totfact> 0.13403286E+03</totfact>
</mgrwt>
</event>
<event>
 4    1  0.5312547E-005  0.7394922E+03  0.7818608E-02  0.9651981E-01
          2   -1    0    0  501    0  0.00000000000E+00  0.00000000000E+00  0.19818835476E+03  0.19818835478E+03  0.25500000000E-02 0.  1.
         -2   -1    0    0    0  501 -0.00000000000E+00 -0.00000000000E+00 -0.68980941451E+03  0.68980941452E+03  0.25500000000E-02 0. -1.
    5000001    1    1    2    0    0 -0.17354411075E+03  0.27850515793E+03 -0.29682085525E+03  0.47223966530E+03  0.16500000000E+03 0.  0.
   -5000001    1    1    2    0    0  0.17354411075E+03 -0.27850515793E+03 -0.19480020450E+03  0.41575810400E+03  0.16500000000E+03 0.  0.
<mgrwt>
<rscale>  0 0.73949224E+03</rscale>
<asrwt>0</asrwt>
<pdfrwt beam="1">  1        2 0.28312622E-01 0.73949224E+03</pdfrwt>
<pdfrwt beam="2">  1       -2 0.98544201E-01 0.73949224E+03</pdfrwt>
<totfact> 0.16400121E+02</totfact>
</mgrwt>
</event>
<event>
 4    1  0.5312547E-005  0.5300490E+03  0.7818608E-02  0.1006220E+00
         -2   -1    0    0    0  501 -0.00000000000E+00  0.00000000000E+00  0.56914351360E+02  0.56914351417E+02  0.25500000000E-02 0. -1.
          2   -1    0    0  501    0  0.00000000000E+00 -0.00000000000E+00 -0.12340998404E+04  0.12340998404E+04  0.25500000000E-02 0.  1.
    5000001    1    1    2    0    0 -0.18968996613E+03  0.83817304738E+02 -0.58294952190E+03  0.64036143615E+03  0.16500000000E+03 0.  0.
   -5000001    1    1    2    0    0  0.18968996613E+03 -0.83817304738E+02 -0.59423596718E+03  0.65065275571E+03  0.16500000000E+03 0.  0.
<mgrwt>
<rscale>  0 0.53004902E+03</rscale>
<asrwt>0</asrwt>
<pdfrwt beam="1">  1        2 0.17629996E+00 0.53004902E+03</pdfrwt>
<pdfrwt beam="2">  1       -2 0.81306224E-02 0.53004902E+03</pdfrwt>
<totfact> 0.19751311E+03</totfact>
</mgrwt>
</event>
<event>
 4    1  0.5312547E-005  0.9803604E+03  0.7818608E-02  0.9330351E-01
         -2   -1    0    0    0  501 -0.00000000000E+00  0.00000000000E+00  0.16640898781E+03  0.16640898783E+03  0.25500000000E-02 0. -1.
          2   -1    0    0  501    0  0.00000000000E+00 -0.00000000000E+00 -0.14438922420E+04  0.14438922420E+04  0.25500000000E-02 0.  1.
    5000001    1    1    2    0    0 -0.27547270887E+03 -0.10735496435E+03 -0.56520935109E+02  0.34326362727E+03  0.16500000000E+03 0.  0.
   -5000001    1    1    2    0    0  0.27547270887E+03  0.10735496435E+03 -0.12209623191E+04  0.12670376026E+04  0.16500000000E+03 0.  0.
<mgrwt>
<rscale>  0 0.98036044E+03</rscale>
<asrwt>0</asrwt>
<pdfrwt beam="1">  1        2 0.20627031E+00 0.98036044E+03</pdfrwt>
<pdfrwt beam="2">  1       -2 0.23772713E-01 0.98036044E+03</pdfrwt>
<totfact> 0.24534445E+02</totfact>
</mgrwt>
</event>
<event>
 4    1  0.5312547E-005  0.5787665E+03  0.7818608E-02  0.9950465E-01
          2   -1    0    0  501    0  0.00000000000E+00  0.00000000000E+00  0.14523290566E+04  0.14523290566E+04  0.25500000000E-02 0. -1.
         -2   -1    0    0    0  501 -0.00000000000E+00 -0.00000000000E+00 -0.57660941065E+02  0.57660941121E+02  0.25500000000E-02 0.  1.
    5000001    1    1    2    0    0 -0.21408966615E+03 -0.74542825872E+02  0.51052961529E+03  0.58245729983E+03  0.16500000000E+03 0.  0.
   -5000001    1    1    2    0    0  0.21408966615E+03  0.74542825872E+02  0.88413850025E+03  0.92753269790E+03  0.16500000000E+03 0.  0.
<mgrwt>
<rscale>  0 0.57876648E+03</rscale>
<asrwt>0</asrwt>
<pdfrwt beam="1">  1        2 0.20747555E+00 0.57876648E+03</pdfrwt>
<pdfrwt beam="2">  1       -2 0.82372786E-02 0.57876648E+03</pdfrwt>
<totfact> 0.14752816E+03</totfact>
</mgrwt>
</event>
<event>
 4    1  0.5312547E-005  0.6400809E+03  0.7818608E-02  0.9825572E-01
          2   -1    0    0  501    0  0.00000000000E+00  0.00000000000E+00  0.14110475337E+04  0.14110475337E+04  0.25500000000E-02 0.  1.
         -2   -1    0    0    0  501 -0.00000000000E+00 -0.00000000000E+00 -0.72588549897E+02  0.72588549942E+02  0.25500000000E-02 0. -1.
    5000001    1    1    2    0    0 -0.20384498928E+03  0.39583558208E+02  0.25406691896E+03  0.36728005261E+03  0.16500000000E+03 0.  0.
   -5000001    1    1    2    0    0  0.20384498928E+03 -0.39583558208E+02  0.10843920649E+04  0.11163560311E+04  0.16500000000E+03 0.  0.
<mgrwt>
<rscale>  0 0.64008091E+03</rscale>
<asrwt>0</asrwt>
<pdfrwt beam="1">  1        2 0.20157822E+00 0.64008091E+03</pdfrwt>
<pdfrwt beam="2">  1       -2 0.10369793E-01 0.64008091E+03</pdfrwt>
<totfact> 0.10681063E+03</totfact>
</mgrwt>
</event>
<event>
 4    1  0.5312547E-005  0.3919574E+03  0.7818608E-02  0.1046601E+00
         -2   -1    0    0    0  501 -0.00000000000E+00  0.00000000000E+00  0.65221547476E+02  0.65221547525E+02  0.25500000000E-02 0. -1.
          2   -1    0    0  501    0  0.00000000000E+00 -0.00000000000E+00 -0.58887982570E+03  0.58887982571E+03  0.25500000000E-02 0.  1.
    5000001    1    1    2    0    0 -0.70001337371E+02  0.46071993013E+02 -0.15419640470E+03  0.24088243397E+03  0.16500000000E+03 0.  0.
   -5000001    1    1    2    0    0  0.70001337371E+02 -0.46071993013E+02 -0.36946187353E+03  0.41321893926E+03  0.16500000000E+03 0.  0.
<mgrwt>
<rscale>  0 0.39195741E+03</rscale>
<asrwt>0</asrwt>
<pdfrwt beam="1">  1        2 0.84125687E-01 0.39195741E+03</pdfrwt>
<pdfrwt beam="2">  1       -2 0.93173642E-02 0.39195741E+03</pdfrwt>
<totfact> 0.42035248E+03</totfact>
</mgrwt>
</event>
<event>
 4    1  0.5312547E-005  0.4298259E+03  0.7818608E-02  0.1033915E+00
         -2   -1    0    0    0  501 -0.00000000000E+00  0.00000000000E+00  0.56027023509E+02  0.56027023567E+02  0.25500000000E-02 0. -1.
          2   -1    0    0  501    0  0.00000000000E+00 -0.00000000000E+00 -0.82438046275E+03  0.82438046275E+03  0.25500000000E-02 0.  1.
    5000001    1    1    2    0    0  0.12693938271E+03  0.47335521953E+02 -0.33365722832E+03  0.39611413069E+03  0.16500000000E+03 0.  0.
   -5000001    1    1    2    0    0 -0.12693938271E+03 -0.47335521953E+02 -0.43469621092E+03  0.48429335563E+03  0.16500000000E+03 0.  0.
<mgrwt>
<rscale>  0 0.42982593E+03</rscale>
<asrwt>0</asrwt>
<pdfrwt beam="1">  1        2 0.11776863E+00 0.42982593E+03</pdfrwt>
<pdfrwt beam="2">  1       -2 0.80038610E-02 0.42982593E+03</pdfrwt>
<totfact> 0.35685984E+03</totfact>
</mgrwt>
</event>
<event>
 4    1  0.5312547E-005  0.5756150E+03  0.7818608E-02  0.9957330E-01
          2   -1    0    0  501    0  0.00000000000E+00  0.00000000000E+00  0.11216945467E+04  0.11216945467E+04  0.25500000000E-02 0.  1.
         -2   -1    0    0    0  501 -0.00000000000E+00 -0.00000000000E+00 -0.73846445683E+02  0.73846445727E+02  0.25500000000E-02 0. -1.
    5000001    1    1    2    0    0 -0.17012540920E+03 -0.13382314500E+03  0.71828398161E+03  0.76811989118E+03  0.16500000000E+03 0.  0.
   -5000001    1    1    2    0    0  0.17012540920E+03  0.13382314500E+03  0.32956411941E+03  0.42742110125E+03  0.16500000000E+03 0.  0.
<mgrwt>
<rscale>  0 0.57561499E+03</rscale>
<asrwt>0</asrwt>
<pdfrwt beam="1">  1        2 0.16024207E+00 0.57561499E+03</pdfrwt>
<pdfrwt beam="2">  1       -2 0.10549493E-01 0.57561499E+03</pdfrwt>
<totfact> 0.15018419E+03</totfact>
</mgrwt>
</event>
<event>
 4    1  0.5312547E-005  0.3908124E+03  0.7818608E-02  0.1047008E+00
         -2   -1    0    0    0  501 -0.00000000000E+00  0.00000000000E+00  0.91713579188E+02  0.91713579223E+02  0.25500000000E-02 0. -1.
          2   -1    0    0  501    0  0.00000000000E+00 -0.00000000000E+00 -0.41633501519E+03  0.41633501520E+03  0.25500000000E-02 0.  1.
    5000001    1    1    2    0    0 -0.59526704256E+02 -0.49557896050E+02 -0.25385707446E+03  0.31251852398E+03  0.16500000000E+03 0.  0.
   -5000001    1    1    2    0    0  0.59526704256E+02  0.49557896050E+02 -0.70764361545E+02  0.19553007044E+03  0.16500000000E+03 0.  0.
<mgrwt>
<rscale>  0 0.39081236E+03</rscale>
<asrwt>0</asrwt>
<pdfrwt beam="1">  1        2 0.59476430E-01 0.39081236E+03</pdfrwt>
<pdfrwt beam="2">  1       -2 0.13101940E-01 0.39081236E+03</pdfrwt>
<totfact> 0.35724323E+03</totfact>
</mgrwt>
</event>
<event>
 4    1  0.5312547E-005  0.4341914E+03  0.7818608E-02  0.1032544E+00
          2   -1    0    0  501    0  0.00000000000E+00  0.00000000000E+00  0.26231730484E+03  0.26231730485E+03  0.25500000000E-02 0.  1.
         -2   -1    0    0    0  501 -0.00000000000E+00 -0.00000000000E+00 -0.17966994947E+03  0.17966994948E+03  0.25500000000E-02 0. -1.
    5000001    1    1    2    0    0 -0.82105265543E+02  0.10096350828E+03 -0.14158436793E+02  0.21061900666E+03  0.16500000000E+03 0.  0.
   -5000001    1    1    2    0    0  0.82105265543E+02 -0.10096350828E+03  0.96805792166E+02  0.23136824767E+03  0.16500000000E+03 0.  0.
<mgrwt>
<rscale>  0 0.43419137E+03</rscale>
<asrwt>0</asrwt>
<pdfrwt beam="1">  1        2 0.37473901E-01 0.43419137E+03</pdfrwt>
<pdfrwt beam="2">  1       -2 0.25667136E-01 0.43419137E+03</pdfrwt>
<totfact> 0.18765500E+03</totfact>
</mgrwt>
</event>
<event>
 4    1  0.5312547E-005  0.4113452E+03  0.7818608E-02  0.1039921E+00
         -2   -1    0    0    0  501 -0.00000000000E+00  0.00000000000E+00  0.71106226278E+02  0.71106226324E+02  0.25500000000E-02 0. -1.
          2   -1    0    0  501    0  0.00000000000E+00 -0.00000000000E+00 -0.59490171936E+03  0.59490171936E+03  0.25500000000E-02 0.  1.
    5000001    1    1    2    0    0  0.15797527371E+02 -0.10333695174E+03 -0.15761820698E+03  0.25099120829E+03  0.16500000000E+03 0.  0.
   -5000001    1    1    2    0    0 -0.15797527371E+02  0.10333695174E+03 -0.36617728610E+03  0.41501673740E+03  0.16500000000E+03 0.  0.
<mgrwt>
<rscale>  0 0.41134519E+03</rscale>
<asrwt>0</asrwt>
<pdfrwt beam="1">  1        2 0.84985957E-01 0.41134519E+03</pdfrwt>
<pdfrwt beam="2">  1       -2 0.10158033E-01 0.41134519E+03</pdfrwt>
<totfact> 0.36206545E+03</totfact>
</mgrwt>
</event>
<event>
 4    1  0.5312547E-005  0.6134093E+03  0.7818608E-02  0.9877970E-01
         -2   -1    0    0    0  501 -0.00000000000E+00  0.00000000000E+00  0.18617176643E+04  0.18617176643E+04  0.25500000000E-02 0. -1.
          2   -1    0    0  501    0  0.00000000000E+00 -0.00000000000E+00 -0.50527389459E+02  0.50527389523E+02  0.25500000000E-02 0.  1.
    5000001    1    1    2    0    0  0.12612393126E+03  0.66955619495E+02  0.15774839983E+04  0.15925046517E+04  0.16500000000E+03 0.  0.
   -5000001    1    1    2    0    0 -0.12612393126E+03 -0.66955619495E+02  0.23370627659E+03  0.31974040210E+03  0.16500000000E+03 0.  0.
<mgrwt>
<rscale>  0 0.61340927E+03</rscale>
<asrwt>0</asrwt>
<pdfrwt beam="1">  1        2 0.72182007E-02 0.61340927E+03</pdfrwt>
<pdfrwt beam="2">  1       -2 0.26595958E+00 0.61340927E+03</pdfrwt>
<totfact> 0.54270784E+01</totfact>
</mgrwt>
</event>
<event>
 4    1  0.5312547E-005  0.4369886E+03  0.7818608E-02  0.1031675E+00
         -2   -1    0    0    0  501 -0.00000000000E+00  0.00000000000E+00  0.56031969325E+02  0.56031969383E+02  0.25500000000E-02 0. -1.
          2   -1    0    0  501    0  0.00000000000E+00 -0.00000000000E+00 -0.85200925424E+03  0.85200925424E+03  0.25500000000E-02 0.  1.
    5000001    1    1    2    0    0  0.72387988486E+02 -0.11221334528E+03 -0.29035754496E+03  0.35967257284E+03  0.16500000000E+03 0.  0.
   -5000001    1    1    2    0    0 -0.72387988486E+02  0.11221334528E+03 -0.50561973995E+03  0.54836865079E+03  0.16500000000E+03 0.  0.
<mgrwt>
<rscale>  0 0.43698859E+03</rscale>
<asrwt>0</asrwt>
<pdfrwt beam="1">  1        2 0.12171560E+00 0.43698859E+03</pdfrwt>
<pdfrwt beam="2">  1       -2 0.80045675E-02 0.43698859E+03</pdfrwt>
<totfact> 0.34207711E+03</totfact>
</mgrwt>
</event>
<event>
 4    1  0.5312547E-005  0.5844526E+03  0.7818608E-02  0.9938197E-01
          2   -1    0    0  501    0  0.00000000000E+00  0.00000000000E+00  0.93345831940E+03  0.93345831940E+03  0.25500000000E-02 0.  1.
         -2   -1    0    0    0  501 -0.00000000000E+00 -0.00000000000E+00 -0.91483696870E+02  0.91483696905E+02  0.25500000000E-02 0. -1.
    5000001    1    1    2    0    0 -0.20095461798E+03 -0.94685965619E+02  0.58571203817E+03  0.64778992137E+03  0.16500000000E+03 0.  0.
   -5000001    1    1    2    0    0  0.20095461798E+03  0.94685965619E+02  0.25626258436E+03  0.37715209494E+03  0.16500000000E+03 0.  0.
<mgrwt>
<rscale>  0 0.58445263E+03</rscale>
<asrwt>0</asrwt>
<pdfrwt beam="1">  1        2 0.13335119E+00 0.58445263E+03</pdfrwt>
<pdfrwt beam="2">  1       -2 0.13069099E-01 0.58445263E+03</pdfrwt>
<totfact> 0.13710071E+03</totfact>
</mgrwt>
</event>
<event>
 4    1  0.5312547E-005  0.4440997E+03  0.7818608E-02  0.1029496E+00
         -2   -1    0    0    0  501 -0.00000000000E+00  0.00000000000E+00  0.14524864492E+02  0.14524864716E+02  0.25500000000E-02 0. -1.
          2   -1    0    0  501    0  0.00000000000E+00 -0.00000000000E+00 -0.33946023092E+04  0.33946023092E+04  0.25500000000E-02 0.  1.
    5000001    1    1    2    0    0  0.79640060327E+02 -0.12522024706E+03 -0.16313301577E+04  0.16463552875E+04  0.16500000000E+03 0.  0.
   -5000001    1    1    2    0    0 -0.79640060327E+02  0.12522024706E+03 -0.17487472871E+04  0.17627718864E+04  0.16500000000E+03 0.  0.
<mgrwt>
<rscale>  0 0.44409971E+03</rscale>
<asrwt>0</asrwt>
<pdfrwt beam="1">  1        2 0.48494268E+00 0.44409971E+03</pdfrwt>
<pdfrwt beam="2">  1       -2 0.20749828E-02 0.44409971E+03</pdfrwt>
<totfact> 0.12057354E+03</totfact>
</mgrwt>
</event>
<event>
 4    1  0.5312547E-005  0.5927866E+03  0.7818608E-02  0.9920486E-01
          2   -1    0    0  501    0  0.00000000000E+00  0.00000000000E+00  0.14991524552E+04  0.14991524552E+04  0.25500000000E-02 0.  1.
         -2   -1    0    0    0  501 -0.00000000000E+00 -0.00000000000E+00 -0.58599106819E+02  0.58599106875E+02  0.25500000000E-02 0. -1.
    5000001    1    1    2    0    0  0.18455287448E+03  0.12286972601E+03  0.10016802853E+04  0.10391078515E+04  0.16500000000E+03 0.  0.
   -5000001    1    1    2    0    0 -0.18455287448E+03 -0.12286972601E+03  0.43887306314E+03  0.51864371065E+03  0.16500000000E+03 0.  0.
<mgrwt>
<rscale>  0 0.59278662E+03</rscale>
<asrwt>0</asrwt>
<pdfrwt beam="1">  1        2 0.21416460E+00 0.59278662E+03</pdfrwt>
<pdfrwt beam="2">  1       -2 0.83713026E-02 0.59278662E+03</pdfrwt>
<totfact> 0.13582830E+03</totfact>
</mgrwt>
</event>
<event>
 4    1  0.5312547E-005  0.5749476E+03  0.7818608E-02  0.9958790E-01
         -2   -1    0    0    0  501 -0.00000000000E+00  0.00000000000E+00  0.88561335382E+02  0.88561335418E+02  0.25500000000E-02 0. -1.
          2   -1    0    0  501    0  0.00000000000E+00 -0.00000000000E+00 -0.93315205374E+03  0.93315205374E+03  0.25500000000E-02 0.  1.
    5000001    1    1    2    0    0  0.19808596086E+03 -0.12717479693E+03 -0.42615412663E+03  0.51404651201E+03  0.16500000000E+03 0.  0.
   -5000001    1    1    2    0    0 -0.19808596086E+03  0.12717479693E+03 -0.41843659173E+03  0.50766687715E+03  0.16500000000E+03 0.  0.
<mgrwt>
<rscale>  0 0.57494762E+03</rscale>
<asrwt>0</asrwt>
<pdfrwt beam="1">  1        2 0.13330743E+00 0.57494762E+03</pdfrwt>
<pdfrwt beam="2">  1       -2 0.12651620E-01 0.57494762E+03</pdfrwt>
<totfact> 0.14475809E+03</totfact>
</mgrwt>
</event>
<event>
 4    1  0.5312547E-005  0.4717790E+03  0.7818608E-02  0.1021419E+00
         -2   -1    0    0    0  501 -0.00000000000E+00  0.00000000000E+00  0.34167088329E+02  0.34167088424E+02  0.25500000000E-02 0. -1.
          2   -1    0    0  501    0  0.00000000000E+00 -0.00000000000E+00 -0.16285802437E+04  0.16285802437E+04  0.25500000000E-02 0.  1.
    5000001    1    1    2    0    0 -0.27005982326E+02  0.16500811016E+03 -0.72146469248E+03  0.75874455648E+03  0.16500000000E+03 0.  0.
   -5000001    1    1    2    0    0  0.27005982326E+02 -0.16500811016E+03 -0.87294846286E+03  0.90400277561E+03  0.16500000000E+03 0.  0.
<mgrwt>
<rscale>  0 0.47177895E+03</rscale>
<asrwt>0</asrwt>
<pdfrwt beam="1">  1        2 0.23265427E+00 0.47177895E+03</pdfrwt>
<pdfrwt beam="2">  1       -2 0.48810137E-02 0.47177895E+03</pdfrwt>
<totfact> 0.27244975E+03</totfact>
</mgrwt>
</event>
<event>
 4    1  0.5312547E-005  0.4322174E+03  0.7818608E-02  0.1033162E+00
          2   -1    0    0  501    0  0.00000000000E+00  0.00000000000E+00  0.17507676323E+04  0.17507676323E+04  0.25500000000E-02 0.  1.
         -2   -1    0    0    0  501 -0.00000000000E+00 -0.00000000000E+00 -0.26675711113E+02  0.26675711235E+02  0.25500000000E-02 0. -1.
    5000001    1    1    2    0    0 -0.39287051315E+02 -0.12329717776E+03  0.10770061922E+04  0.10972296954E+04  0.16500000000E+03 0.  0.
   -5000001    1    1    2    0    0  0.39287051315E+02  0.12329717776E+03  0.64708572899E+03  0.68021364813E+03  0.16500000000E+03 0.  0.
<mgrwt>
<rscale>  0 0.43221741E+03</rscale>
<asrwt>0</asrwt>
<pdfrwt beam="1">  1        2 0.25010968E+00 0.43221741E+03</pdfrwt>
<pdfrwt beam="2">  1       -2 0.38108157E-02 0.43221741E+03</pdfrwt>
<totfact> 0.34557910E+03</totfact>
</mgrwt>
</event>
<event>
 4    1  0.5312547E-005  0.4870285E+03  0.7818608E-02  0.1017221E+00
          2   -1    0    0  501    0  0.00000000000E+00  0.00000000000E+00  0.15664399710E+03  0.15664399712E+03  0.25500000000E-02 0.  1.
         -2   -1    0    0    0  501 -0.00000000000E+00 -0.00000000000E+00 -0.37856027671E+03  0.37856027672E+03  0.25500000000E-02 0. -1.
    5000001    1    1    2    0    0  0.10797355245E+03 -0.90747589777E+02  0.10325650438E+02  0.21731321206E+03  0.16500000000E+03 0.  0.
   -5000001    1    1    2    0    0 -0.10797355245E+03  0.90747589777E+02 -0.23224193005E+03  0.31789106177E+03  0.16500000000E+03 0.  0.
<mgrwt>
<rscale>  0 0.48702852E+03</rscale>
<asrwt>0</asrwt>
<pdfrwt beam="1">  1        2 0.22377714E-01 0.48702852E+03</pdfrwt>
<pdfrwt beam="2">  1       -2 0.54080039E-01 0.48702852E+03</pdfrwt>
<totfact> 0.80559028E+02</totfact>
</mgrwt>
</event>
<event>
 4    1  0.5312547E-005  0.9565829E+03  0.7818608E-02  0.9357489E-01
          2   -1    0    0  501    0  0.00000000000E+00  0.00000000000E+00  0.44539557114E+03  0.44539557115E+03  0.25500000000E-02 0.  1.
         -2   -1    0    0    0  501 -0.00000000000E+00 -0.00000000000E+00 -0.51361698408E+03  0.51361698409E+03  0.25500000000E-02 0. -1.
    5000001    1    1    2    0    0  0.34011600346E+03  0.51763934825E+02  0.25503008724E+03  0.45893762774E+03  0.16500000000E+03 0.  0.
   -5000001    1    1    2    0    0 -0.34011600346E+03 -0.51763934825E+02 -0.32325150018E+03  0.50007492751E+03  0.16500000000E+03 0.  0.
<mgrwt>
<rscale>  0 0.95658294E+03</rscale>
<asrwt>0</asrwt>
<pdfrwt beam="1">  1        2 0.63627939E-01 0.95658294E+03</pdfrwt>
<pdfrwt beam="2">  1       -2 0.73373854E-01 0.95658294E+03</pdfrwt>
<totfact> 0.12860326E+02</totfact>
</mgrwt>
</event>
<event>
 4    1  0.5312547E-005  0.1173988E+04  0.7818608E-02  0.9135935E-01
          2   -1    0    0  501    0  0.00000000000E+00  0.00000000000E+00  0.11353455101E+04  0.11353455101E+04  0.25500000000E-02 0.  1.
         -2   -1    0    0    0  501 -0.00000000000E+00 -0.00000000000E+00 -0.30348634166E+03  0.30348634167E+03  0.25500000000E-02 0. -1.
    5000001    1    1    2    0    0 -0.48336380352E+03 -0.16997888476E+03  0.70284274393E+03  0.88529447672E+03  0.16500000000E+03 0.  0.
   -5000001    1    1    2    0    0  0.48336380352E+03  0.16997888476E+03  0.12901642455E+03  0.55353737509E+03  0.16500000000E+03 0.  0.
<mgrwt>
<rscale>  0 0.11739878E+04</rscale>
<asrwt>0</asrwt>
<pdfrwt beam="1">  1        2 0.16219222E+00 0.11739878E+04</pdfrwt>
<pdfrwt beam="2">  1       -2 0.43355191E-01 0.11739878E+04</pdfrwt>
<totfact> 0.11605273E+02</totfact>
</mgrwt>
</event>
<event>
 4    1  0.5312547E-005  0.5292931E+03  0.7818608E-02  0.1006404E+00
         -2   -1    0    0    0  501 -0.00000000000E+00  0.00000000000E+00  0.10315139473E+03  0.10315139476E+03  0.25500000000E-02 0. -1.
          2   -1    0    0  501    0  0.00000000000E+00 -0.00000000000E+00 -0.67898064792E+03  0.67898064793E+03  0.25500000000E-02 0.  1.
    5000001    1    1    2    0    0 -0.19824642759E+03 -0.54259198378E+02 -0.25272526170E+03  0.36515854715E+03  0.16500000000E+03 0.  0.
   -5000001    1    1    2    0    0  0.19824642759E+03  0.54259198378E+02 -0.32310399150E+03  0.41697349554E+03  0.16500000000E+03 0.  0.
<mgrwt>
<rscale>  0 0.52929312E+03</rscale>
<asrwt>0</asrwt>
<pdfrwt beam="1">  1        2 0.96997233E-01 0.52929312E+03</pdfrwt>
<pdfrwt beam="2">  1       -2 0.14735914E-01 0.52929312E+03</pdfrwt>
<totfact> 0.16852761E+03</totfact>
</mgrwt>
</event>
<event>
 4    1  0.5312547E-005  0.4659638E+03  0.7818608E-02  0.1023066E+00
          2   -1    0    0  501    0  0.00000000000E+00  0.00000000000E+00  0.39578404413E+04  0.39578404413E+04  0.25500000000E-02 0.  1.
         -2   -1    0    0    0  501 -0.00000000000E+00 -0.00000000000E+00 -0.13714694183E+02  0.13714694420E+02  0.25500000000E-02 0. -1.
    5000001    1    1    2    0    0  0.42375759422E+02  0.89574663184E+02  0.30910619848E+04  0.30970483560E+04  0.16500000000E+03 0.  0.
   -5000001    1    1    2    0    0 -0.42375759422E+02 -0.89574663184E+02  0.85306376231E+03  0.87450677976E+03  0.16500000000E+03 0.  0.
<mgrwt>
<rscale>  0 0.46596383E+03</rscale>
<asrwt>0</asrwt>
<pdfrwt beam="1">  1        2 0.56540615E+00 0.46596383E+03</pdfrwt>
<pdfrwt beam="2">  1       -2 0.19592407E-02 0.46596383E+03</pdfrwt>
<totfact> 0.59151936E+02</totfact>
</mgrwt>
</event>
<event>
 4    1  0.5312547E-005  0.4756118E+03  0.7818608E-02  0.1020348E+00
          2   -1    0    0  501    0  0.00000000000E+00  0.00000000000E+00  0.16734508228E+03  0.16734508230E+03  0.25500000000E-02 0.  1.
         -2   -1    0    0    0  501 -0.00000000000E+00 -0.00000000000E+00 -0.33793438788E+03  0.33793438789E+03  0.25500000000E-02 0. -1.
    5000001    1    1    2    0    0  0.18143438079E+02 -0.70519703195E+02  0.79372004222E+02  0.19704600462E+03  0.16500000000E+03 0.  0.
   -5000001    1    1    2    0    0 -0.18143438079E+02  0.70519703195E+02 -0.24996130982E+03  0.30823346556E+03  0.16500000000E+03 0.  0.
<mgrwt>
<rscale>  0 0.47561185E+03</rscale>
<asrwt>0</asrwt>
<pdfrwt beam="1">  1        2 0.23906440E-01 0.47561185E+03</pdfrwt>
<pdfrwt beam="2">  1       -2 0.48276341E-01 0.47561185E+03</pdfrwt>
<totfact> 0.94002190E+02</totfact>
</mgrwt>
</event>
<event>
 4    1  0.5312547E-005  0.5031425E+03  0.7818608E-02  0.1012962E+00
         -2   -1    0    0    0  501 -0.00000000000E+00  0.00000000000E+00  0.13140504342E+03  0.13140504344E+03  0.25500000000E-02 0. -1.
          2   -1    0    0  501    0  0.00000000000E+00 -0.00000000000E+00 -0.48162599732E+03  0.48162599733E+03  0.25500000000E-02 0.  1.
    5000001    1    1    2    0    0  0.12854743520E+03 -0.11037312486E+03 -0.70608474597E+02  0.24681415371E+03  0.16500000000E+03 0.  0.
   -5000001    1    1    2    0    0 -0.12854743520E+03  0.11037312486E+03 -0.27961247931E+03  0.36621688706E+03  0.16500000000E+03 0.  0.
<mgrwt>
<rscale>  0 0.50314247E+03</rscale>
<asrwt>0</asrwt>
<pdfrwt beam="1">  1        2 0.68803713E-01 0.50314247E+03</pdfrwt>
<pdfrwt beam="2">  1       -2 0.18772149E-01 0.50314247E+03</pdfrwt>
<totfact> 0.16650614E+03</totfact>
</mgrwt>
</event>
<event>
 4    1  0.5312547E-005  0.5156691E+03  0.7818608E-02  0.1009768E+00
          2   -1    0    0  501    0  0.00000000000E+00  0.00000000000E+00  0.43176800726E+03  0.43176800727E+03  0.25500000000E-02 0. -1.
         -2   -1    0    0    0  501 -0.00000000000E+00 -0.00000000000E+00 -0.15396844350E+03  0.15396844352E+03  0.25500000000E-02 0.  1.
    5000001    1    1    2    0    0 -0.55916012085E+02 -0.14610598963E+03  0.80741679920E+00  0.22737460838E+03  0.16500000000E+03 0.  0.
   -5000001    1    1    2    0    0  0.55916012085E+02  0.14610598963E+03  0.27699214696E+03  0.35836184241E+03  0.16500000000E+03 0.  0.
<mgrwt>
<rscale>  0 0.51566907E+03</rscale>
<asrwt>0</asrwt>
<pdfrwt beam="1">  1        2 0.61681144E-01 0.51566907E+03</pdfrwt>
<pdfrwt beam="2">  1       -2 0.21995492E-01 0.51566907E+03</pdfrwt>
<totfact> 0.14283721E+03</totfact>
</mgrwt>
</event>
<event>
 4    1  0.5312547E-005  0.3964519E+03  0.7818608E-02  0.1045015E+00
         -2   -1    0    0    0  501 -0.00000000000E+00  0.00000000000E+00  0.19438941145E+04  0.19438941145E+04  0.25500000000E-02 0. -1.
          2   -1    0    0  501    0  0.00000000000E+00 -0.00000000000E+00 -0.20213823482E+02  0.20213823643E+02  0.25500000000E-02 0.  1.
    5000001    1    1    2    0    0  0.86175681377E+02  0.38560088270E+02  0.68354712384E+03  0.70948911124E+03  0.16500000000E+03 0.  0.
   -5000001    1    1    2    0    0 -0.86175681377E+02 -0.38560088270E+02  0.12401331672E+04  0.12546188269E+04  0.16500000000E+03 0.  0.
<mgrwt>
<rscale>  0 0.39645193E+03</rscale>
<asrwt>0</asrwt>
<pdfrwt beam="1">  1        2 0.28876888E-02 0.39645193E+03</pdfrwt>
<pdfrwt beam="2">  1       -2 0.27769918E+00 0.39645193E+03</pdfrwt>
<totfact> 0.16195197E+02</totfact>
</mgrwt>
</event>
<event>
 4    1  0.5312547E-005  0.3685481E+03  0.7818608E-02  0.1055250E+00
         -2   -1    0    0    0  501 -0.00000000000E+00  0.00000000000E+00  0.43646447623E+02  0.43646447698E+02  0.25500000000E-02 0. -1.
          2   -1    0    0  501    0  0.00000000000E+00 -0.00000000000E+00 -0.77799985789E+03  0.77799985789E+03  0.25500000000E-02 0.  1.
    5000001    1    1    2    0    0  0.77841728711E+02  0.25880849362E+02 -0.37089186694E+03  0.41414361042E+03  0.16500000000E+03 0.  0.
   -5000001    1    1    2    0    0 -0.77841728711E+02 -0.25880849362E+02 -0.36346154333E+03  0.40750269517E+03  0.16500000000E+03 0.  0.
<mgrwt>
<rscale>  0 0.36854812E+03</rscale>
<asrwt>0</asrwt>
<pdfrwt beam="1">  1        2 0.11114283E+00 0.36854812E+03</pdfrwt>
<pdfrwt beam="2">  1       -2 0.62352073E-02 0.36854812E+03</pdfrwt>
<totfact> 0.56603100E+03</totfact>
</mgrwt>
</event>
<event>
 4    1  0.5312547E-005  0.8215006E+03  0.7818608E-02  0.9529407E-01
         -2   -1    0    0    0  501 -0.00000000000E+00  0.00000000000E+00  0.45756168555E+03  0.45756168556E+03  0.25500000000E-02 0.  1.
          2   -1    0    0  501    0  0.00000000000E+00 -0.00000000000E+00 -0.36872800066E+03  0.36872800067E+03  0.25500000000E-02 0. -1.
    5000001    1    1    2    0    0 -0.21298060664E+03  0.31004696562E+03  0.43438647912E+02  0.41303967827E+03  0.16500000000E+03 0.  0.
   -5000001    1    1    2    0    0  0.21298060664E+03 -0.31004696562E+03  0.45395036978E+02  0.41325000796E+03  0.16500000000E+03 0.  0.
<mgrwt>
<rscale>  0 0.82150059E+03</rscale>
<asrwt>0</asrwt>
<pdfrwt beam="1">  1        2 0.52675429E-01 0.82150059E+03</pdfrwt>
<pdfrwt beam="2">  1       -2 0.65365955E-01 0.82150059E+03</pdfrwt>
<totfact> 0.20570012E+02</totfact>
</mgrwt>
</event>
<event>
 4    1  0.5312547E-005  0.7206425E+03  0.7818608E-02  0.9682568E-01
         -2   -1    0    0    0  501 -0.00000000000E+00  0.00000000000E+00  0.75386491223E+02  0.75386491266E+02  0.25500000000E-02 0. -1.
          2   -1    0    0  501    0  0.00000000000E+00 -0.00000000000E+00 -0.17222103927E+04  0.17222103927E+04  0.25500000000E-02 0.  1.
    5000001    1    1    2    0    0  0.27773176268E+03  0.13054677340E+03 -0.10524252172E+04  0.11086032788E+04  0.16500000000E+03 0.  0.
   -5000001    1    1    2    0    0 -0.27773176268E+03 -0.13054677340E+03 -0.59439868427E+03  0.68899360513E+03  0.16500000000E+03 0.  0.
<mgrwt>
<rscale>  0 0.72064249E+03</rscale>
<asrwt>0</asrwt>
<pdfrwt beam="1">  1        2 0.24603003E+00 0.72064249E+03</pdfrwt>
<pdfrwt beam="2">  1       -2 0.10769500E-01 0.72064249E+03</pdfrwt>
<totfact> 0.68963551E+02</totfact>
</mgrwt>
</event>
<event>
 4    1  0.5312547E-005  0.5841859E+03  0.7818608E-02  0.9938770E-01
         -2   -1    0    0    0  501 -0.00000000000E+00  0.00000000000E+00  0.70030793898E+02  0.70030793944E+02  0.25500000000E-02 0. -1.
          2   -1    0    0  501    0  0.00000000000E+00 -0.00000000000E+00 -0.12182968010E+04  0.12182968010E+04  0.25500000000E-02 0.  1.
    5000001    1    1    2    0    0  0.23439946020E+03 -0.53547233628E+02 -0.53704139919E+03  0.61110463720E+03  0.16500000000E+03 0.  0.
   -5000001    1    1    2    0    0 -0.23439946020E+03  0.53547233628E+02 -0.61122460788E+03  0.67722295771E+03  0.16500000000E+03 0.  0.
<mgrwt>
<rscale>  0 0.58418590E+03</rscale>
<asrwt>0</asrwt>
<pdfrwt beam="1">  1        2 0.17404239E+00 0.58418590E+03</pdfrwt>
<pdfrwt beam="2">  1       -2 0.10004400E-01 0.58418590E+03</pdfrwt>
<totfact> 0.14430649E+03</totfact>
</mgrwt>
</event>
<event>
 4    1  0.5312547E-005  0.5793456E+03  0.7818608E-02  0.9949209E-01
          2   -1    0    0  501    0  0.00000000000E+00  0.00000000000E+00  0.90051850561E+03  0.90051850561E+03  0.25500000000E-02 0.  1.
         -2   -1    0    0    0  501 -0.00000000000E+00 -0.00000000000E+00 -0.93180032355E+02  0.93180032390E+02  0.25500000000E-02 0. -1.
    5000001    1    1    2    0    0 -0.18191253066E+03  0.15244209821E+03  0.43596718048E+03  0.52308999663E+03  0.16500000000E+03 0.  0.
   -5000001    1    1    2    0    0  0.18191253066E+03 -0.15244209821E+03  0.37137129277E+03  0.47060854137E+03  0.16500000000E+03 0.  0.
<mgrwt>
<rscale>  0 0.57934564E+03</rscale>
<asrwt>0</asrwt>
<pdfrwt beam="1">  1        2 0.12864551E+00 0.57934564E+03</pdfrwt>
<pdfrwt beam="2">  1       -2 0.13311432E-01 0.57934564E+03</pdfrwt>
<totfact> 0.13958560E+03</totfact>
</mgrwt>
</event>
<event>
 4    1  0.5312547E-005  0.4064848E+03  0.7818608E-02  0.1041557E+00
         -2   -1    0    0    0  501 -0.00000000000E+00  0.00000000000E+00  0.56739734760E+02  0.56739734817E+02  0.25500000000E-02 0. -1.
          2   -1    0    0  501    0  0.00000000000E+00 -0.00000000000E+00 -0.72801667193E+03  0.72801667194E+03  0.25500000000E-02 0.  1.
    5000001    1    1    2    0    0  0.97176523898E+02 -0.41438512183E+02 -0.43999846861E+03  0.48164725627E+03  0.16500000000E+03 0.  0.
   -5000001    1    1    2    0    0 -0.97176523898E+02  0.41438512183E+02 -0.23127846856E+03  0.30310915048E+03  0.16500000000E+03 0.  0.
<mgrwt>
<rscale>  0 0.40648480E+03</rscale>
<asrwt>0</asrwt>
<pdfrwt beam="1">  1        2 0.10400238E+00 0.40648480E+03</pdfrwt>
<pdfrwt beam="2">  1       -2 0.81056768E-02 0.40648480E+03</pdfrwt>
<totfact> 0.40815210E+03</totfact>
</mgrwt>
</event>
<event>
 4    1  0.5312547E-005  0.3796562E+03  0.7818608E-02  0.1051061E+00
         -2   -1    0    0    0  501 -0.00000000000E+00  0.00000000000E+00  0.57572809201E+02  0.57572809257E+02  0.25500000000E-02 0. -1.
          2   -1    0    0  501    0  0.00000000000E+00 -0.00000000000E+00 -0.62589789789E+03  0.62589789790E+03  0.25500000000E-02 0.  1.
    5000001    1    1    2    0    0 -0.60698863395E+02  0.36711457602E+01 -0.15545043911E+03  0.23470762311E+03  0.16500000000E+03 0.  0.
   -5000001    1    1    2    0    0  0.60698863395E+02 -0.36711457602E+01 -0.41287464959E+03  0.44876308404E+03  0.16500000000E+03 0.  0.
<mgrwt>
<rscale>  0 0.37965616E+03</rscale>
<asrwt>0</asrwt>
<pdfrwt beam="1">  1        2 0.89413982E-01 0.37965616E+03</pdfrwt>
<pdfrwt beam="2">  1       -2 0.82246874E-02 0.37965616E+03</pdfrwt>
<totfact> 0.47706303E+03</totfact>
</mgrwt>
</event>
<event>
 4    1  0.5312547E-005  0.4095619E+03  0.7818608E-02  0.1040518E+00
         -2   -1    0    0    0  501 -0.00000000000E+00  0.00000000000E+00  0.18897785393E+03  0.18897785394E+03  0.25500000000E-02 0.  1.
          2   -1    0    0  501    0  0.00000000000E+00 -0.00000000000E+00 -0.22190559881E+03  0.22190559882E+03  0.25500000000E-02 0. -1.
    5000001    1    1    2    0    0  0.65121482980E+02  0.10185422821E+03 -0.66777834829E+01  0.20465748005E+03  0.16500000000E+03 0.  0.
   -5000001    1    1    2    0    0 -0.65121482980E+02 -0.10185422821E+03 -0.26249961400E+02  0.20622597272E+03  0.16500000000E+03 0.  0.
<mgrwt>
<rscale>  0 0.40956193E+03</rscale>
<asrwt>0</asrwt>
<pdfrwt beam="1">  1        2 0.31700800E-01 0.40956193E+03</pdfrwt>
<pdfrwt beam="2">  1       -2 0.26996836E-01 0.40956193E+03</pdfrwt>
<totfact> 0.20596223E+03</totfact>
</mgrwt>
</event>
<event>
 4    1  0.5312547E-005  0.8275439E+03  0.7818608E-02  0.9520982E-01
         -2   -1    0    0    0  501 -0.00000000000E+00  0.00000000000E+00  0.52033939814E+02  0.52033939876E+02  0.25500000000E-02 0. -1.
          2   -1    0    0  501    0  0.00000000000E+00 -0.00000000000E+00 -0.32902991164E+04  0.32902991165E+04  0.25500000000E-02 0.  1.
    5000001    1    1    2    0    0 -0.24871956679E+03 -0.25479979832E+03 -0.21487911117E+04  0.21843334456E+04  0.16500000000E+03 0.  0.
   -5000001    1    1    2    0    0  0.24871956679E+03  0.25479979832E+03 -0.10894740650E+04  0.11579996107E+04  0.16500000000E+03 0.  0.
<mgrwt>
<rscale>  0 0.82754390E+03</rscale>
<asrwt>0</asrwt>
<pdfrwt beam="1">  1        2 0.47004260E+00 0.82754390E+03</pdfrwt>
<pdfrwt beam="2">  1       -2 0.74334220E-02 0.82754390E+03</pdfrwt>
<totfact> 0.18640974E+02</totfact>
</mgrwt>
</event>
<event>
 4    1  0.5312547E-005  0.5286200E+03  0.7818608E-02  0.1006567E+00
          2   -1    0    0  501    0  0.00000000000E+00  0.00000000000E+00  0.16375454851E+04  0.16375454851E+04  0.25500000000E-02 0.  1.
         -2   -1    0    0    0  501 -0.00000000000E+00 -0.00000000000E+00 -0.42661268184E+02  0.42661268260E+02  0.25500000000E-02 0. -1.
    5000001    1    1    2    0    0  0.10227330775E+02 -0.20599136365E+03  0.76602064625E+03  0.81027752694E+03  0.16500000000E+03 0.  0.
   -5000001    1    1    2    0    0 -0.10227330775E+02  0.20599136365E+03  0.82886357063E+03  0.86992922638E+03  0.16500000000E+03 0.  0.
<mgrwt>
<rscale>  0 0.52861997E+03</rscale>
<asrwt>0</asrwt>
<pdfrwt beam="1">  1        2 0.23393502E+00 0.52861997E+03</pdfrwt>
<pdfrwt beam="2">  1       -2 0.60944683E-02 0.52861997E+03</pdfrwt>
<totfact> 0.19076294E+03</totfact>
</mgrwt>
</event>
<event>
 4    1  0.5312547E-005  0.4190305E+03  0.7818608E-02  0.1037382E+00
          2   -1    0    0  501    0  0.00000000000E+00  0.00000000000E+00  0.30697415542E+03  0.30697415543E+03  0.25500000000E-02 0.  1.
         -2   -1    0    0    0  501 -0.00000000000E+00 -0.00000000000E+00 -0.14299784698E+03  0.14299784701E+03  0.25500000000E-02 0. -1.
    5000001    1    1    2    0    0 -0.98065266321E+02  0.83969495557E+02  0.84127946924E+02  0.22576577264E+03  0.16500000000E+03 0.  0.
   -5000001    1    1    2    0    0  0.98065266321E+02 -0.83969495557E+02  0.79848361513E+02  0.22420622980E+03  0.16500000000E+03 0.  0.
<mgrwt>
<rscale>  0 0.41903052E+03</rscale>
<asrwt>0</asrwt>
<pdfrwt beam="1">  1        2 0.43853451E-01 0.41903052E+03</pdfrwt>
<pdfrwt beam="2">  1       -2 0.20428264E-01 0.41903052E+03</pdfrwt>
<totfact> 0.23606224E+03</totfact>
</mgrwt>
</event>
<event>
 4    1  0.5312547E-005  0.5468200E+03  0.7818608E-02  0.1002233E+00
         -2   -1    0    0    0  501 -0.00000000000E+00  0.00000000000E+00  0.11735793941E+04  0.11735793941E+04  0.25500000000E-02 0. -1.
          2   -1    0    0  501    0  0.00000000000E+00 -0.00000000000E+00 -0.63696599962E+02  0.63696600013E+02  0.25500000000E-02 0.  1.
    5000001    1    1    2    0    0 -0.21756780414E+03 -0.96644866377E+01  0.53244335804E+03  0.59845641547E+03  0.16500000000E+03 0.  0.
   -5000001    1    1    2    0    0  0.21756780414E+03  0.96644866377E+01  0.57743943613E+03  0.63881957867E+03  0.16500000000E+03 0.  0.
<mgrwt>
<rscale>  0 0.54681996E+03</rscale>
<asrwt>0</asrwt>
<pdfrwt beam="1">  1        2 0.90995147E-02 0.54681996E+03</pdfrwt>
<pdfrwt beam="2">  1       -2 0.16765419E+00 0.54681996E+03</pdfrwt>
<totfact> 0.16947739E+02</totfact>
</mgrwt>
</event>
<event>
 4    1  0.5312547E-005  0.5806514E+03  0.7818608E-02  0.9946382E-01
          2   -1    0    0  501    0  0.00000000000E+00  0.00000000000E+00  0.12598941130E+04  0.12598941130E+04  0.25500000000E-02 0.  1.
         -2   -1    0    0    0  501 -0.00000000000E+00 -0.00000000000E+00 -0.66901663901E+02  0.66901663950E+02  0.25500000000E-02 0. -1.
    5000001    1    1    2    0    0  0.20014585931E+03  0.25980383519E+02  0.30449103745E+03  0.40084053839E+03  0.16500000000E+03 0.  0.
   -5000001    1    1    2    0    0 -0.20014585931E+03 -0.25980383519E+02  0.88850141166E+03  0.92595523858E+03  0.16500000000E+03 0.  0.
<mgrwt>
<rscale>  0 0.58065140E+03</rscale>
<asrwt>0</asrwt>
<pdfrwt beam="1">  1        2 0.17998486E+00 0.58065140E+03</pdfrwt>
<pdfrwt beam="2">  1       -2 0.95573811E-02 0.58065140E+03</pdfrwt>
<totfact> 0.14737596E+03</totfact>
</mgrwt>
</event>
<event>
 4    1  0.5312547E-005  0.5381820E+03  0.7818608E-02  0.1004267E+00
          2   -1    0    0  501    0  0.00000000000E+00  0.00000000000E+00  0.14121422488E+04  0.14121422488E+04  0.25500000000E-02 0.  1.
         -2   -1    0    0    0  501 -0.00000000000E+00 -0.00000000000E+00 -0.51276670651E+02  0.51276670714E+02  0.25500000000E-02 0. -1.
    5000001    1    1    2    0    0  0.17997394502E+03 -0.10689311335E+03  0.78101321129E+03  0.82524141605E+03  0.16500000000E+03 0.  0.
   -5000001    1    1    2    0    0 -0.17997394502E+03  0.10689311335E+03  0.57985236682E+03  0.63817750342E+03  0.16500000000E+03 0.  0.
<mgrwt>
<rscale>  0 0.53818195E+03</rscale>
<asrwt>0</asrwt>
<pdfrwt beam="1">  1        2 0.20173461E+00 0.53818195E+03</pdfrwt>
<pdfrwt beam="2">  1       -2 0.73252386E-02 0.53818195E+03</pdfrwt>
<totfact> 0.18683374E+03</totfact>
</mgrwt>
</event>
<event>
 4    1  0.5312547E-005  0.5464043E+03  0.7818608E-02  0.1002330E+00
          2   -1    0    0  501    0  0.00000000000E+00  0.00000000000E+00  0.70188060406E+03  0.70188060406E+03  0.25500000000E-02 0.  1.
         -2   -1    0    0    0  501 -0.00000000000E+00 -0.00000000000E+00 -0.10634204749E+03  0.10634204752E+03  0.25500000000E-02 0. -1.
    5000001    1    1    2    0    0 -0.12996102295E+03  0.78016015736E+02  0.66536069487E+02  0.23372722293E+03  0.16500000000E+03 0.  0.
   -5000001    1    1    2    0    0  0.12996102295E+03 -0.78016015736E+02  0.52900248708E+03  0.57449542865E+03  0.16500000000E+03 0.  0.
<mgrwt>
<rscale>  0 0.54640432E+03</rscale>
<asrwt>0</asrwt>
<pdfrwt beam="1">  1        2 0.10026866E+00 0.54640432E+03</pdfrwt>
<pdfrwt beam="2">  1       -2 0.15191721E-01 0.54640432E+03</pdfrwt>
<totfact> 0.15379490E+03</totfact>
</mgrwt>
</event>
<event>
 4    1  0.5312547E-005  0.4528494E+03  0.7818608E-02  0.1026876E+00
          2   -1    0    0  501    0  0.00000000000E+00  0.00000000000E+00  0.35612438141E+04  0.35612438141E+04  0.25500000000E-02 0.  1.
         -2   -1    0    0    0  501 -0.00000000000E+00 -0.00000000000E+00 -0.14396131333E+02  0.14396131559E+02  0.25500000000E-02 0. -1.
    5000001    1    1    2    0    0 -0.98258724784E+02 -0.11196720553E+03  0.14336534181E+04  0.14507854960E+04  0.16500000000E+03 0.  0.
   -5000001    1    1    2    0    0  0.98258724784E+02  0.11196720553E+03  0.21131942647E+04  0.21248544497E+04  0.16500000000E+03 0.  0.
<mgrwt>
<rscale>  0 0.45284935E+03</rscale>
<asrwt>0</asrwt>
<pdfrwt beam="1">  1        2 0.50874866E+00 0.45284935E+03</pdfrwt>
<pdfrwt beam="2">  1       -2 0.20565920E-02 0.45284935E+03</pdfrwt>
<totfact> 0.97476368E+02</totfact>
</mgrwt>
</event>
<event>
 4    1  0.5312547E-005  0.7961657E+03  0.7818608E-02  0.9565584E-01
         -2   -1    0    0    0  501 -0.00000000000E+00  0.00000000000E+00  0.13938829009E+03  0.13938829011E+03  0.25500000000E-02 0. -1.
          2   -1    0    0  501    0  0.00000000000E+00 -0.00000000000E+00 -0.11368958451E+04  0.11368958451E+04  0.25500000000E-02 0.  1.
    5000001    1    1    2    0    0 -0.13504687710E+03  0.27397508627E+03 -0.18649047727E+03  0.39408591072E+03  0.16500000000E+03 0.  0.
   -5000001    1    1    2    0    0  0.13504687710E+03 -0.27397508627E+03 -0.81101707773E+03  0.88219822448E+03  0.16500000000E+03 0.  0.
<mgrwt>
<rscale>  0 0.79616573E+03</rscale>
<asrwt>0</asrwt>
<pdfrwt beam="1">  1        2 0.16241369E+00 0.79616573E+03</pdfrwt>
<pdfrwt beam="2">  1       -2 0.19912613E-01 0.79616573E+03</pdfrwt>
<totfact> 0.50143529E+02</totfact>
</mgrwt>
</event>
<event>
 4    1  0.5312547E-005  0.7249312E+03  0.7818608E-02  0.9675521E-01
          2   -1    0    0  501    0  0.00000000000E+00  0.00000000000E+00  0.66841186615E+03  0.66841186616E+03  0.25500000000E-02 0.  1.
         -2   -1    0    0    0  501 -0.00000000000E+00 -0.00000000000E+00 -0.19655743778E+03  0.19655743780E+03  0.25500000000E-02 0. -1.
    5000001    1    1    2    0    0 -0.28355487999E+03 -0.36629012854E+02  0.41455010339E+03  0.52992626163E+03  0.16500000000E+03 0.  0.
   -5000001    1    1    2    0    0  0.28355487999E+03  0.36629012854E+02  0.57304324984E+02  0.33504304232E+03  0.16500000000E+03 0.  0.
<mgrwt>
<rscale>  0 0.72493123E+03</rscale>
<asrwt>0</asrwt>
<pdfrwt beam="1">  1        2 0.95487409E-01 0.72493123E+03</pdfrwt>
<pdfrwt beam="2">  1       -2 0.28079634E-01 0.72493123E+03</pdfrwt>
<totfact> 0.55428802E+02</totfact>
</mgrwt>
</event>
<event>
 4    1  0.5312547E-005  0.8943229E+03  0.7818608E-02  0.9432706E-01
          2   -1    0    0  501    0  0.00000000000E+00  0.00000000000E+00  0.51830078782E+03  0.51830078782E+03  0.25500000000E-02 0. -1.
         -2   -1    0    0    0  501 -0.00000000000E+00 -0.00000000000E+00 -0.38578630666E+03  0.38578630666E+03  0.25500000000E-02 0.  1.
    5000001    1    1    2    0    0  0.32648314028E+03 -0.20554267149E+03  0.22250643717E+03  0.47494541294E+03  0.16500000000E+03 0.  0.
   -5000001    1    1    2    0    0 -0.32648314028E+03  0.20554267149E+03 -0.89991956010E+02  0.42914168155E+03  0.16500000000E+03 0.  0.
<mgrwt>
<rscale>  0 0.89432286E+03</rscale>
<asrwt>0</asrwt>
<pdfrwt beam="1">  1        2 0.74042969E-01 0.89432286E+03</pdfrwt>
<pdfrwt beam="2">  1       -2 0.55112330E-01 0.89432286E+03</pdfrwt>
<totfact> 0.20011584E+02</totfact>
</mgrwt>
</event>
<event>
 4    1  0.5312547E-005  0.9030232E+03  0.7818608E-02  0.9421810E-01
          2   -1    0    0  501    0  0.00000000000E+00  0.00000000000E+00  0.10557167129E+04  0.10557167129E+04  0.25500000000E-02 0.  1.
         -2   -1    0    0    0  501 -0.00000000000E+00 -0.00000000000E+00 -0.19310362080E+03  0.19310362082E+03  0.25500000000E-02 0. -1.
    5000001    1    1    2    0    0 -0.33133487847E+03 -0.57294676465E+02  0.82620305827E+02  0.38355781386E+03  0.16500000000E+03 0.  0.
   -5000001    1    1    2    0    0  0.33133487847E+03  0.57294676465E+02  0.77999278629E+03  0.86526251988E+03  0.16500000000E+03 0.  0.
<mgrwt>
<rscale>  0 0.90302319E+03</rscale>
<asrwt>0</asrwt>
<pdfrwt beam="1">  1        2 0.15081667E+00 0.90302319E+03</pdfrwt>
<pdfrwt beam="2">  1       -2 0.27586231E-01 0.90302319E+03</pdfrwt>
<totfact> 0.31084871E+02</totfact>
</mgrwt>
</event>
<event>
 4    1  0.5312547E-005  0.8917743E+03  0.7818608E-02  0.9435923E-01
          2   -1    0    0  501    0  0.00000000000E+00  0.00000000000E+00  0.27164638737E+04  0.27164638737E+04  0.25500000000E-02 0.  1.
         -2   -1    0    0    0  501 -0.00000000000E+00 -0.00000000000E+00 -0.73189033281E+02  0.73189033325E+02  0.25500000000E-02 0. -1.
    5000001    1    1    2    0    0  0.36243830562E+03 -0.18899127054E+03  0.15317433535E+04  0.15939077536E+04  0.16500000000E+03 0.  0.
   -5000001    1    1    2    0    0 -0.36243830562E+03  0.18899127054E+03  0.11115314868E+04  0.11957451534E+04  0.16500000000E+03 0.  0.
<mgrwt>
<rscale>  0 0.89177433E+03</rscale>
<asrwt>0</asrwt>
<pdfrwt beam="1">  1        2 0.38806627E+00 0.89177433E+03</pdfrwt>
<pdfrwt beam="2">  1       -2 0.10455576E-01 0.89177433E+03</pdfrwt>
<totfact> 0.22107357E+02</totfact>
</mgrwt>
</event>
<event>
 4    1  0.5312547E-005  0.4129612E+03  0.7818608E-02  0.1039382E+00
          2   -1    0    0  501    0  0.00000000000E+00  0.00000000000E+00  0.58616274253E+03  0.58616274254E+03  0.25500000000E-02 0.  1.
         -2   -1    0    0    0  501 -0.00000000000E+00 -0.00000000000E+00 -0.72734461426E+02  0.72734461471E+02  0.25500000000E-02 0. -1.
    5000001    1    1    2    0    0 -0.10028907672E+02 -0.11384831380E+03  0.33401508150E+03  0.38968332298E+03  0.16500000000E+03 0.  0.
   -5000001    1    1    2    0    0  0.10028907672E+02  0.11384831380E+03  0.17941319961E+03  0.26921388103E+03  0.16500000000E+03 0.  0.
<mgrwt>
<rscale>  0 0.41296117E+03</rscale>
<asrwt>0</asrwt>
<pdfrwt beam="1">  1        2 0.83737530E-01 0.41296117E+03</pdfrwt>
<pdfrwt beam="2">  1       -2 0.10390638E-01 0.41296117E+03</pdfrwt>
<totfact> 0.35515381E+03</totfact>
</mgrwt>
</event>
<event>
 4    1  0.5312547E-005  0.9452960E+03  0.7818608E-02  0.9370666E-01
         -2   -1    0    0    0  501 -0.00000000000E+00  0.00000000000E+00  0.62732713172E+02  0.62732713223E+02  0.25500000000E-02 0. -1.
          2   -1    0    0  501    0  0.00000000000E+00 -0.00000000000E+00 -0.35610790365E+04  0.35610790365E+04  0.25500000000E-02 0.  1.
    5000001    1    1    2    0    0  0.25091756206E+03 -0.27153369847E+03 -0.26841198330E+04  0.27144823540E+04  0.16500000000E+03 0.  0.
   -5000001    1    1    2    0    0 -0.25091756206E+03  0.27153369847E+03 -0.81422649033E+03  0.90932939571E+03  0.16500000000E+03 0.  0.
<mgrwt>
<rscale>  0 0.94529604E+03</rscale>
<asrwt>0</asrwt>
<pdfrwt beam="1">  1        2 0.50872545E+00 0.94529604E+03</pdfrwt>
<pdfrwt beam="2">  1       -2 0.89618185E-02 0.94529604E+03</pdfrwt>
<totfact> 0.94246667E+01</totfact>
</mgrwt>
</event>
<event>
 4    1  0.5312547E-005  0.6670705E+03  0.7818608E-02  0.9775265E-01
         -2   -1    0    0    0  501 -0.00000000000E+00  0.00000000000E+00  0.99892982797E+02  0.99892982829E+02  0.25500000000E-02 0. -1.
          2   -1    0    0  501    0  0.00000000000E+00 -0.00000000000E+00 -0.11136494288E+04  0.11136494288E+04  0.25500000000E-02 0.  1.
    5000001    1    1    2    0    0 -0.12734578261E+03 -0.21459907973E+03 -0.77517986799E+03  0.83090224522E+03  0.16500000000E+03 0.  0.
   -5000001    1    1    2    0    0  0.12734578261E+03  0.21459907973E+03 -0.23857657799E+03  0.38264016639E+03  0.16500000000E+03 0.  0.
<mgrwt>
<rscale>  0 0.66707050E+03</rscale>
<asrwt>0</asrwt>
<pdfrwt beam="1">  1        2 0.15909277E+00 0.66707050E+03</pdfrwt>
<pdfrwt beam="2">  1       -2 0.14270427E-01 0.66707050E+03</pdfrwt>
<totfact> 0.91950729E+02</totfact>
</mgrwt>
</event>
<event>
 4    1  0.5312547E-005  0.4553502E+03  0.7818608E-02  0.1026138E+00
          2   -1    0    0  501    0  0.00000000000E+00  0.00000000000E+00  0.49337446634E+02  0.49337446700E+02  0.25500000000E-02 0.  1.
         -2   -1    0    0    0  501 -0.00000000000E+00 -0.00000000000E+00 -0.10506410479E+04  0.10506410479E+04  0.25500000000E-02 0. -1.
    5000001    1    1    2    0    0 -0.12727738335E+03 -0.91595362749E+02 -0.51190581289E+03  0.56023370486E+03  0.16500000000E+03 0.  0.
   -5000001    1    1    2    0    0  0.12727738335E+03  0.91595362749E+02 -0.48939778841E+03  0.53974478978E+03  0.16500000000E+03 0.  0.
<mgrwt>
<rscale>  0 0.45535018E+03</rscale>
<asrwt>0</asrwt>
<pdfrwt beam="1">  1        2 0.70482074E-02 0.45535018E+03</pdfrwt>
<pdfrwt beam="2">  1       -2 0.15009156E+00 0.45535018E+03</pdfrwt>
<totfact> 0.31781450E+02</totfact>
</mgrwt>
</event>
<event>
 4    1  0.5312547E-005  0.6902286E+03  0.7818608E-02  0.9734090E-01
         -2   -1    0    0    0  501 -0.00000000000E+00  0.00000000000E+00  0.16935294099E+03  0.16935294101E+03  0.25500000000E-02 0. -1.
          2   -1    0    0  501    0  0.00000000000E+00 -0.00000000000E+00 -0.70328787385E+03  0.70328787385E+03  0.25500000000E-02 0.  1.
    5000001    1    1    2    0    0  0.13970920468E+03  0.26853145595E+03 -0.28699999463E+03  0.44857753134E+03  0.16500000000E+03 0.  0.
   -5000001    1    1    2    0    0 -0.13970920468E+03 -0.26853145595E+03 -0.24693493823E+03  0.42406328352E+03  0.16500000000E+03 0.  0.
<mgrwt>
<rscale>  0 0.69022857E+03</rscale>
<asrwt>0</asrwt>
<pdfrwt beam="1">  1        2 0.10046969E+00 0.69022857E+03</pdfrwt>
<pdfrwt beam="2">  1       -2 0.24193278E-01 0.69022857E+03</pdfrwt>
<totfact> 0.68293240E+02</totfact>
</mgrwt>
</event>
<event>
 4    1  0.5312547E-005  0.5132604E+03  0.7818608E-02  0.1010375E+00
          2   -1    0    0  501    0  0.00000000000E+00  0.00000000000E+00  0.29189561882E+03  0.29189561884E+03  0.25500000000E-02 0.  1.
         -2   -1    0    0    0  501 -0.00000000000E+00 -0.00000000000E+00 -0.22562538811E+03  0.22562538812E+03  0.25500000000E-02 0. -1.
    5000001    1    1    2    0    0 -0.13465445492E+03  0.10886934756E+03  0.12691093519E+03  0.27076879905E+03  0.16500000000E+03 0.  0.
   -5000001    1    1    2    0    0  0.13465445492E+03 -0.10886934756E+03 -0.60640704476E+02  0.24675220791E+03  0.16500000000E+03 0.  0.
<mgrwt>
<rscale>  0 0.51326041E+03</rscale>
<asrwt>0</asrwt>
<pdfrwt beam="1">  1        2 0.41699375E-01 0.51326041E+03</pdfrwt>
<pdfrwt beam="2">  1       -2 0.32232198E-01 0.51326041E+03</pdfrwt>
<totfact> 0.11020167E+03</totfact>
</mgrwt>
</event>
<event>
 4    1  0.5312547E-005  0.5438676E+03  0.7818608E-02  0.1002923E+00
         -2   -1    0    0    0  501 -0.00000000000E+00  0.00000000000E+00  0.27305418057E+03  0.27305418058E+03  0.25500000000E-02 0. -1.
          2   -1    0    0  501    0  0.00000000000E+00 -0.00000000000E+00 -0.27081800342E+03  0.27081800344E+03  0.25500000000E-02 0.  1.
    5000001    1    1    2    0    0 -0.16072512973E+03 -0.69414672172E+02 -0.12565846951E+03  0.27141483931E+03  0.16500000000E+03 0.  0.
   -5000001    1    1    2    0    0  0.16072512973E+03  0.69414672172E+02  0.12789464666E+03  0.27245734470E+03  0.16500000000E+03 0.  0.
<mgrwt>
<rscale>  0 0.54386759E+03</rscale>
<asrwt>0</asrwt>
<pdfrwt beam="1">  1        2 0.38688286E-01 0.54386759E+03</pdfrwt>
<pdfrwt beam="2">  1       -2 0.39007740E-01 0.54386759E+03</pdfrwt>
<totfact> 0.83361686E+02</totfact>
</mgrwt>
</event>
<event>
 4    1  0.5312547E-005  0.3927138E+03  0.7818608E-02  0.1046332E+00
          2   -1    0    0  501    0  0.00000000000E+00  0.00000000000E+00  0.16726760251E+03  0.16726760253E+03  0.25500000000E-02 0.  1.
         -2   -1    0    0    0  501 -0.00000000000E+00 -0.00000000000E+00 -0.23050509164E+03  0.23050509165E+03  0.25500000000E-02 0. -1.
    5000001    1    1    2    0    0  0.87699028800E+02 -0.35822955671E+02 -0.80789232426E+02  0.20670342010E+03  0.16500000000E+03 0.  0.
   -5000001    1    1    2    0    0 -0.87699028800E+02  0.35822955671E+02  0.17551743304E+02  0.19106927408E+03  0.16500000000E+03 0.  0.
<mgrwt>
<rscale>  0 0.39271381E+03</rscale>
<asrwt>0</asrwt>
<pdfrwt beam="1">  1        2 0.23895372E-01 0.39271381E+03</pdfrwt>
<pdfrwt beam="2">  1       -2 0.32929299E-01 0.39271381E+03</pdfrwt>
<totfact> 0.19639805E+03</totfact>
</mgrwt>
</event>
<event>
 4    1  0.5312547E-005  0.3838875E+03  0.7818608E-02  0.1049506E+00
         -2   -1    0    0    0  501 -0.00000000000E+00  0.00000000000E+00  0.22543565680E+02  0.22543565824E+02  0.25500000000E-02 0. -1.
          2   -1    0    0  501    0  0.00000000000E+00 -0.00000000000E+00 -0.16342755239E+04  0.16342755239E+04  0.25500000000E-02 0.  1.
    5000001    1    1    2    0    0 -0.52364741911E+02 -0.82109649351E+02 -0.75602959484E+03  0.77992936154E+03  0.16500000000E+03 0.  0.
   -5000001    1    1    2    0    0  0.52364741911E+02  0.82109649351E+02 -0.85570236339E+03  0.87688972820E+03  0.16500000000E+03 0.  0.
<mgrwt>
<rscale>  0 0.38388747E+03</rscale>
<asrwt>0</asrwt>
<pdfrwt beam="1">  1        2 0.23346786E+00 0.38388747E+03</pdfrwt>
<pdfrwt beam="2">  1       -2 0.32205104E-02 0.38388747E+03</pdfrwt>
<totfact> 0.51013777E+03</totfact>
</mgrwt>
</event>
<event>
 4    1  0.5312547E-005  0.7321276E+03  0.7818608E-02  0.9663814E-01
         -2   -1    0    0    0  501 -0.00000000000E+00  0.00000000000E+00  0.78174812269E+02  0.78174812310E+02  0.25500000000E-02 0. -1.
          2   -1    0    0  501    0  0.00000000000E+00 -0.00000000000E+00 -0.17141417656E+04  0.17141417656E+04  0.25500000000E-02 0.  1.
    5000001    1    1    2    0    0  0.32862363709E+02 -0.32465079340E+03 -0.86036011430E+03  0.93483827419E+03  0.16500000000E+03 0.  0.
   -5000001    1    1    2    0    0 -0.32862363709E+02  0.32465079340E+03 -0.77560683899E+03  0.85747830369E+03  0.16500000000E+03 0.  0.
<mgrwt>
<rscale>  0 0.73212761E+03</rscale>
<asrwt>0</asrwt>
<pdfrwt beam="1">  1        2 0.24487737E+00 0.73212761E+03</pdfrwt>
<pdfrwt beam="2">  1       -2 0.11167831E-01 0.73212761E+03</pdfrwt>
<totfact> 0.65557214E+02</totfact>
</mgrwt>
</event>
<event>
 4    1  0.5312547E-005  0.4053985E+03  0.7818608E-02  0.1041926E+00
          2   -1    0    0  501    0  0.00000000000E+00  0.00000000000E+00  0.20622283743E+04  0.20622283743E+04  0.25500000000E-02 0.  1.
         -2   -1    0    0    0  501 -0.00000000000E+00 -0.00000000000E+00 -0.19923591572E+02  0.19923591735E+02  0.25500000000E-02 0. -1.
    5000001    1    1    2    0    0 -0.10120322567E+03 -0.48320377878E+02  0.83703735007E+03  0.86048444334E+03  0.16500000000E+03 0.  0.
   -5000001    1    1    2    0    0  0.10120322567E+03  0.48320377878E+02  0.12052674326E+04  0.12216675227E+04  0.16500000000E+03 0.  0.
<mgrwt>
<rscale>  0 0.40539855E+03</rscale>
<asrwt>0</asrwt>
<pdfrwt beam="1">  1        2 0.29460389E+00 0.40539855E+03</pdfrwt>
<pdfrwt beam="2">  1       -2 0.28462289E-02 0.40539855E+03</pdfrwt>
<totfact> 0.37639526E+03</totfact>
</mgrwt>
</event>
<event>
 4    1  0.5312547E-005  0.7536312E+03  0.7818608E-02  0.9629671E-01
         -2   -1    0    0    0  501 -0.00000000000E+00  0.00000000000E+00  0.50127768886E+03  0.50127768887E+03  0.25500000000E-02 0. -1.
          2   -1    0    0  501    0  0.00000000000E+00 -0.00000000000E+00 -0.28325615586E+03  0.28325615587E+03  0.25500000000E-02 0.  1.
    5000001    1    1    2    0    0  0.32879152696E+03  0.90235330606E+01  0.24569287881E+02  0.36880068093E+03  0.16500000000E+03 0.  0.
   -5000001    1    1    2    0    0 -0.32879152696E+03 -0.90235330606E+01  0.19345224512E+03  0.41573316381E+03  0.16500000000E+03 0.  0.
<mgrwt>
<rscale>  0 0.75363119E+03</rscale>
<asrwt>0</asrwt>
<pdfrwt beam="1">  1        2 0.40465165E-01 0.75363119E+03</pdfrwt>
<pdfrwt beam="2">  1       -2 0.71611098E-01 0.75363119E+03</pdfrwt>
<totfact> 0.22675143E+02</totfact>
</mgrwt>
</event>
<event>
 4    1  0.5312547E-005  0.4831216E+03  0.7818608E-02  0.1018281E+00
          2   -1    0    0  501    0  0.00000000000E+00  0.00000000000E+00  0.47693518600E+03  0.47693518601E+03  0.25500000000E-02 0.  1.
         -2   -1    0    0    0  501 -0.00000000000E+00 -0.00000000000E+00 -0.12234704208E+03  0.12234704211E+03  0.25500000000E-02 0. -1.
    5000001    1    1    2    0    0 -0.90805396227E+02  0.14320875599E+03  0.23771041500E+03  0.33538874337E+03  0.16500000000E+03 0.  0.
   -5000001    1    1    2    0    0  0.90805396227E+02 -0.14320875599E+03  0.11687772892E+03  0.26389348475E+03  0.16500000000E+03 0.  0.
<mgrwt>
<rscale>  0 0.48312156E+03</rscale>
<asrwt>0</asrwt>
<pdfrwt beam="1">  1        2 0.68133598E-01 0.48312156E+03</pdfrwt>
<pdfrwt beam="2">  1       -2 0.17478149E-01 0.48312156E+03</pdfrwt>
<totfact> 0.19020986E+03</totfact>
</mgrwt>
</event>
<event>
 4    1  0.5312547E-005  0.7350655E+03  0.7818608E-02  0.9659076E-01
          2   -1    0    0  501    0  0.00000000000E+00  0.00000000000E+00  0.10290093843E+04  0.10290093843E+04  0.25500000000E-02 0.  1.
         -2   -1    0    0    0  501 -0.00000000000E+00 -0.00000000000E+00 -0.13127219942E+03  0.13127219945E+03  0.25500000000E-02 0. -1.
    5000001    1    1    2    0    0  0.25189752816E+03  0.10086845451E+03  0.74090122651E+03  0.80609331795E+03  0.16500000000E+03 0.  0.
   -5000001    1    1    2    0    0 -0.25189752816E+03 -0.10086845451E+03  0.15683595841E+03  0.35418826584E+03  0.16500000000E+03 0.  0.
<mgrwt>
<rscale>  0 0.73506551E+03</rscale>
<asrwt>0</asrwt>
<pdfrwt beam="1">  1        2 0.14700134E+00 0.73506551E+03</pdfrwt>
<pdfrwt beam="2">  1       -2 0.18753171E-01 0.73506551E+03</pdfrwt>
<totfact> 0.64628459E+02</totfact>
</mgrwt>
</event>
<event>
 4    1  0.5312547E-005  0.8029295E+03  0.7818608E-02  0.9555786E-01
          2   -1    0    0  501    0  0.00000000000E+00  0.00000000000E+00  0.15693450351E+04  0.15693450351E+04  0.25500000000E-02 0.  1.
         -2   -1    0    0    0  501 -0.00000000000E+00 -0.00000000000E+00 -0.10270140182E+03  0.10270140185E+03  0.25500000000E-02 0. -1.
    5000001    1    1    2    0    0  0.27767545620E+03  0.22139871597E+03  0.54907790588E+03  0.67441277949E+03  0.16500000000E+03 0.  0.
   -5000001    1    1    2    0    0 -0.27767545620E+03 -0.22139871597E+03  0.91756572744E+03  0.99763365750E+03  0.16500000000E+03 0.  0.
<mgrwt>
<rscale>  0 0.80292947E+03</rscale>
<asrwt>0</asrwt>
<pdfrwt beam="1">  1        2 0.22419214E+00 0.80292947E+03</pdfrwt>
<pdfrwt beam="2">  1       -2 0.14671629E-01 0.80292947E+03</pdfrwt>
<totfact> 0.49251785E+02</totfact>
</mgrwt>
</event>
<event>
 4    1  0.5312547E-005  0.6018065E+03  0.7818608E-02  0.9901665E-01
         -2   -1    0    0    0  501 -0.00000000000E+00  0.00000000000E+00  0.46986070280E+02  0.46986070349E+02  0.25500000000E-02 0. -1.
          2   -1    0    0  501    0  0.00000000000E+00 -0.00000000000E+00 -0.19270126437E+04  0.19270126437E+04  0.25500000000E-02 0.  1.
    5000001    1    1    2    0    0 -0.19002231004E+03  0.12839892422E+03 -0.60035050164E+03  0.66350620712E+03  0.16500000000E+03 0.  0.
   -5000001    1    1    2    0    0  0.19002231004E+03 -0.12839892422E+03 -0.12796760718E+04  0.13104925070E+04  0.16500000000E+03 0.  0.
<mgrwt>
<rscale>  0 0.60180645E+03</rscale>
<asrwt>0</asrwt>
<pdfrwt beam="1">  1        2 0.27528747E+00 0.60180645E+03</pdfrwt>
<pdfrwt beam="2">  1       -2 0.67122970E-02 0.60180645E+03</pdfrwt>
<totfact> 0.11672166E+03</totfact>
</mgrwt>
</event>
<event>
 4    1  0.5312547E-005  0.4253015E+03  0.7818608E-02  0.1035355E+00
          2   -1    0    0  501    0  0.00000000000E+00  0.00000000000E+00  0.20831455050E+04  0.20831455050E+04  0.25500000000E-02 0.  1.
         -2   -1    0    0    0  501 -0.00000000000E+00 -0.00000000000E+00 -0.21707717634E+02  0.21707717783E+02  0.25500000000E-02 0. -1.
    5000001    1    1    2    0    0  0.74477996092E+02 -0.99386804988E+02  0.12816441375E+04  0.12981761837E+04  0.16500000000E+03 0.  0.
   -5000001    1    1    2    0    0 -0.74477996092E+02  0.99386804988E+02  0.77979364984E+03  0.80667703899E+03  0.16500000000E+03 0.  0.
<mgrwt>
<rscale>  0 0.42530147E+03</rscale>
<asrwt>0</asrwt>
<pdfrwt beam="1">  1        2 0.29759205E+00 0.42530147E+03</pdfrwt>
<pdfrwt beam="2">  1       -2 0.31011042E-02 0.42530147E+03</pdfrwt>
<totfact> 0.32282040E+03</totfact>
</mgrwt>
</event>
<event>
 4    1  0.5312547E-005  0.4263424E+03  0.7818608E-02  0.1035022E+00
          2   -1    0    0  501    0  0.00000000000E+00  0.00000000000E+00  0.14016664761E+04  0.14016664761E+04  0.25500000000E-02 0.  1.
         -2   -1    0    0    0  501 -0.00000000000E+00 -0.00000000000E+00 -0.32419951209E+02  0.32419951309E+02  0.25500000000E-02 0. -1.
    5000001    1    1    2    0    0  0.11813510775E+03  0.13790605266E+02  0.47000797344E+03  0.51213140850E+03  0.16500000000E+03 0.  0.
   -5000001    1    1    2    0    0 -0.11813510775E+03 -0.13790605266E+02  0.89923855140E+03  0.92195501886E+03  0.16500000000E+03 0.  0.
<mgrwt>
<rscale>  0 0.42634239E+03</rscale>
<asrwt>0</asrwt>
<pdfrwt beam="1">  1        2 0.20023805E+00 0.42634239E+03</pdfrwt>
<pdfrwt beam="2">  1       -2 0.46314220E-02 0.42634239E+03</pdfrwt>
<totfact> 0.38662747E+03</totfact>
</mgrwt>
</event>
<event>
 4    1  0.5312547E-005  0.5903225E+03  0.7818608E-02  0.9925690E-01
         -2   -1    0    0    0  501 -0.00000000000E+00  0.00000000000E+00  0.27915482851E+02  0.27915482968E+02  0.25500000000E-02 0. -1.
          2   -1    0    0  501    0  0.00000000000E+00 -0.00000000000E+00 -0.31208551148E+04  0.31208551148E+04  0.25500000000E-02 0.  1.
    5000001    1    1    2    0    0  0.19274375079E+03 -0.14328708574E+03 -0.12954983799E+04  0.13278638465E+04  0.16500000000E+03 0.  0.
   -5000001    1    1    2    0    0 -0.19274375079E+03  0.14328708574E+03 -0.17974412520E+04  0.18209067512E+04  0.16500000000E+03 0.  0.
<mgrwt>
<rscale>  0 0.59032255E+03</rscale>
<asrwt>0</asrwt>
<pdfrwt beam="1">  1        2 0.44583622E+00 0.59032255E+03</pdfrwt>
<pdfrwt beam="2">  1       -2 0.39879281E-02 0.59032255E+03</pdfrwt>
<totfact> 0.63055257E+02</totfact>
</mgrwt>
</event>
<event>
 4    1  0.5312547E-005  0.5175448E+03  0.7818608E-02  0.1009298E+00
         -2   -1    0    0    0  501 -0.00000000000E+00  0.00000000000E+00  0.21608999183E+02  0.21608999333E+02  0.25500000000E-02 0. -1.
          2   -1    0    0  501    0  0.00000000000E+00 -0.00000000000E+00 -0.30988550621E+04  0.30988550621E+04  0.25500000000E-02 0.  1.
    5000001    1    1    2    0    0 -0.98128466399E+02  0.16841769269E+03 -0.17904483831E+04  0.18085696358E+04  0.16500000000E+03 0.  0.
   -5000001    1    1    2    0    0  0.98128466399E+02 -0.16841769269E+03 -0.12867976798E+04  0.13118944256E+04  0.16500000000E+03 0.  0.
<mgrwt>
<rscale>  0 0.51754481E+03</rscale>
<asrwt>0</asrwt>
<pdfrwt beam="1">  1        2 0.44269330E+00 0.51754481E+03</pdfrwt>
<pdfrwt beam="2">  1       -2 0.30870019E-02 0.51754481E+03</pdfrwt>
<totfact> 0.96540417E+02</totfact>
</mgrwt>
</event>
<event>
 4    1  0.5312547E-005  0.4017729E+03  0.7818608E-02  0.1043168E+00
          2   -1    0    0  501    0  0.00000000000E+00  0.00000000000E+00  0.95987271930E+03  0.95987271930E+03  0.25500000000E-02 0.  1.
         -2   -1    0    0    0  501 -0.00000000000E+00 -0.00000000000E+00 -0.42042406894E+02  0.42042406972E+02  0.25500000000E-02 0. -1.
    5000001    1    1    2    0    0  0.11155491854E+03  0.15728810585E+02  0.51113281156E+03  0.54879289936E+03  0.16500000000E+03 0.  0.
   -5000001    1    1    2    0    0 -0.11155491854E+03 -0.15728810585E+02  0.40669750084E+03  0.45312222691E+03  0.16500000000E+03 0.  0.
<mgrwt>
<rscale>  0 0.40177287E+03</rscale>
<asrwt>0</asrwt>
<pdfrwt beam="1">  1        2 0.13712468E+00 0.40177287E+03</pdfrwt>
<pdfrwt beam="2">  1       -2 0.60060580E-02 0.40177287E+03</pdfrwt>
<totfact> 0.45769238E+03</totfact>
</mgrwt>
</event>
<event>
 4    1  0.5312547E-005  0.3536063E+03  0.7818608E-02  0.1061145E+00
         -2   -1    0    0    0  501 -0.00000000000E+00  0.00000000000E+00  0.23603280310E+02  0.23603280448E+02  0.25500000000E-02 0. -1.
          2   -1    0    0  501    0  0.00000000000E+00 -0.00000000000E+00 -0.13243649189E+04  0.13243649189E+04  0.25500000000E-02 0.  1.
    5000001    1    1    2    0    0 -0.27939125135E+02  0.40669767772E+02 -0.49791123335E+03  0.52685407943E+03  0.16500000000E+03 0.  0.
   -5000001    1    1    2    0    0  0.27939125135E+02 -0.40669767772E+02 -0.80285040522E+03  0.82111411989E+03  0.16500000000E+03 0.  0.
<mgrwt>
<rscale>  0 0.35360632E+03</rscale>
<asrwt>0</asrwt>
<pdfrwt beam="1">  1        2 0.18919494E+00 0.35360632E+03</pdfrwt>
<pdfrwt beam="2">  1       -2 0.33718980E-02 0.35360632E+03</pdfrwt>
<totfact> 0.68650651E+03</totfact>
</mgrwt>
</event>
<event>
 4    1  0.5312547E-005  0.7497250E+03  0.7818608E-02  0.9635782E-01
         -2   -1    0    0    0  501 -0.00000000000E+00  0.00000000000E+00  0.31316541875E+03  0.31316541876E+03  0.25500000000E-02 0. -1.
          2   -1    0    0  501    0  0.00000000000E+00 -0.00000000000E+00 -0.44871460285E+03  0.44871460286E+03  0.25500000000E-02 0.  1.
    5000001    1    1    2    0    0  0.28538154140E+03 -0.72528630387E+02 -0.23349475824E+03  0.41042396193E+03  0.16500000000E+03 0.  0.
   -5000001    1    1    2    0    0 -0.28538154140E+03  0.72528630387E+02  0.97945574144E+02  0.35145605969E+03  0.16500000000E+03 0.  0.
<mgrwt>
<rscale>  0 0.74972501E+03</rscale>
<asrwt>0</asrwt>
<pdfrwt beam="1">  1        2 0.64102086E-01 0.74972501E+03</pdfrwt>
<pdfrwt beam="2">  1       -2 0.44737917E-01 0.74972501E+03</pdfrwt>
<totfact> 0.36239801E+02</totfact>
</mgrwt>
</event>
<event>
 4    1  0.5312547E-005  0.1501501E+04  0.7818608E-02  0.8883455E-01
          2   -1    0    0  501    0  0.00000000000E+00  0.00000000000E+00  0.27584090462E+04  0.27584090462E+04  0.25500000000E-02 0.  1.
         -2   -1    0    0    0  501 -0.00000000000E+00 -0.00000000000E+00 -0.20433033793E+03  0.20433033794E+03  0.25500000000E-02 0. -1.
    5000001    1    1    2    0    0  0.46106713343E+03  0.52630562026E+03  0.85007785983E+03  0.11133004425E+04  0.16500000000E+03 0.  0.
   -5000001    1    1    2    0    0 -0.46106713343E+03 -0.52630562026E+03  0.17040008484E+04  0.18494389416E+04  0.16500000000E+03 0.  0.
<mgrwt>
<rscale>  0 0.15015015E+04</rscale>
<asrwt>0</asrwt>
<pdfrwt beam="1">  1        2 0.39405841E+00 0.15015015E+04</pdfrwt>
<pdfrwt beam="2">  1       -2 0.29190050E-01 0.15015015E+04</pdfrwt>
<totfact> 0.33572651E+01</totfact>
</mgrwt>
</event>
<event>
 4    1  0.5312547E-005  0.4893323E+03  0.7818608E-02  0.1016601E+00
          2   -1    0    0  501    0  0.00000000000E+00  0.00000000000E+00  0.17693719675E+04  0.17693719675E+04  0.25500000000E-02 0.  1.
         -2   -1    0    0    0  501 -0.00000000000E+00 -0.00000000000E+00 -0.33832070214E+02  0.33832070310E+02  0.25500000000E-02 0. -1.
    5000001    1    1    2    0    0  0.15123082467E+03 -0.98613101843E+02  0.84411373777E+03  0.87883349303E+03  0.16500000000E+03 0.  0.
   -5000001    1    1    2    0    0 -0.15123082467E+03  0.98613101843E+02  0.89142615952E+03  0.92437054478E+03  0.16500000000E+03 0.  0.
<mgrwt>
<rscale>  0 0.48933227E+03</rscale>
<asrwt>0</asrwt>
<pdfrwt beam="1">  1        2 0.25276739E+00 0.48933227E+03</pdfrwt>
<pdfrwt beam="2">  1       -2 0.48331535E-02 0.48933227E+03</pdfrwt>
<totfact> 0.23477071E+03</totfact>
</mgrwt>
</event>
<event>
 4    1  0.5312547E-005  0.4551083E+03  0.7818608E-02  0.1026210E+00
          2   -1    0    0  501    0  0.00000000000E+00  0.00000000000E+00  0.14748078983E+03  0.14748078986E+03  0.25500000000E-02 0.  1.
         -2   -1    0    0    0  501 -0.00000000000E+00 -0.00000000000E+00 -0.35110257659E+03  0.35110257660E+03  0.25500000000E-02 0. -1.
    5000001    1    1    2    0    0 -0.95763255529E+02  0.38401279980E+02  0.27399184997E+02  0.19652219913E+03  0.16500000000E+03 0.  0.
   -5000001    1    1    2    0    0  0.95763255529E+02 -0.38401279980E+02 -0.23102097175E+03  0.30206116732E+03  0.16500000000E+03 0.  0.
<mgrwt>
<rscale>  0 0.45510827E+03</rscale>
<asrwt>0</asrwt>
<pdfrwt beam="1">  1        2 0.21068684E-01 0.45510827E+03</pdfrwt>
<pdfrwt beam="2">  1       -2 0.50157511E-01 0.45510827E+03</pdfrwt>
<totfact> 0.10062897E+03</totfact>
</mgrwt>
</event>
<event>
 4    1  0.5312547E-005  0.4390475E+03  0.7818608E-02  0.1031039E+00
          2   -1    0    0  501    0  0.00000000000E+00  0.00000000000E+00  0.21757681845E+04  0.21757681845E+04  0.25500000000E-02 0.  1.
         -2   -1    0    0    0  501 -0.00000000000E+00 -0.00000000000E+00 -0.22148809528E+02  0.22148809675E+02  0.25500000000E-02 0. -1.
    5000001    1    1    2    0    0  0.11012939201E+03 -0.24493311493E+02  0.15311606321E+04  0.15441522873E+04  0.16500000000E+03 0.  0.
   -5000001    1    1    2    0    0 -0.11012939201E+03  0.24493311493E+02  0.62245874290E+03  0.65376470684E+03  0.16500000000E+03 0.  0.
<mgrwt>
<rscale>  0 0.43904749E+03</rscale>
<asrwt>0</asrwt>
<pdfrwt beam="1">  1        2 0.31082401E+00 0.43904749E+03</pdfrwt>
<pdfrwt beam="2">  1       -2 0.31641158E-02 0.43904749E+03</pdfrwt>
<totfact> 0.28153972E+03</totfact>
</mgrwt>
</event>
<event>
 4    1  0.5312547E-005  0.5516467E+03  0.7818608E-02  0.1001113E+00
         -2   -1    0    0    0  501 -0.00000000000E+00  0.00000000000E+00  0.59499210173E+02  0.59499210228E+02  0.25500000000E-02 0. -1.
          2   -1    0    0  501    0  0.00000000000E+00 -0.00000000000E+00 -0.12786476077E+04  0.12786476077E+04  0.25500000000E-02 0.  1.
    5000001    1    1    2    0    0  0.21714469490E+03 -0.27389827452E+02 -0.68439933207E+03  0.73724450958E+03  0.16500000000E+03 0.  0.
   -5000001    1    1    2    0    0 -0.21714469490E+03  0.27389827452E+02 -0.53474906548E+03  0.60090230837E+03  0.16500000000E+03 0.  0.
<mgrwt>
<rscale>  0 0.55164671E+03</rscale>
<asrwt>0</asrwt>
<pdfrwt beam="1">  1        2 0.18266393E+00 0.55164671E+03</pdfrwt>
<pdfrwt beam="2">  1       -2 0.84998880E-02 0.55164671E+03</pdfrwt>
<totfact> 0.17387226E+03</totfact>
</mgrwt>
</event>
<event>
 4    1  0.5312547E-005  0.4780836E+03  0.7818608E-02  0.1019663E+00
         -2   -1    0    0    0  501 -0.00000000000E+00  0.00000000000E+00  0.33219662352E+03  0.33219662353E+03  0.25500000000E-02 0. -1.
          2   -1    0    0  501    0  0.00000000000E+00 -0.00000000000E+00 -0.17200949509E+03  0.17200949510E+03  0.25500000000E-02 0.  1.
    5000001    1    1    2    0    0  0.15031387991E+03 -0.34752023578E+02 -0.23709859847E+01  0.22590393359E+03  0.16500000000E+03 0.  0.
   -5000001    1    1    2    0    0 -0.15031387991E+03  0.34752023578E+02  0.16255811442E+03  0.27830218504E+03  0.16500000000E+03 0.  0.
<mgrwt>
<rscale>  0 0.47808356E+03</rscale>
<asrwt>0</asrwt>
<pdfrwt beam="1">  1        2 0.24572785E-01 0.47808356E+03</pdfrwt>
<pdfrwt beam="2">  1       -2 0.47456660E-01 0.47808356E+03</pdfrwt>
<totfact> 0.94277456E+02</totfact>
</mgrwt>
</event>
<event>
 4    1  0.5312547E-005  0.3785131E+03  0.7818608E-02  0.1051485E+00
          2   -1    0    0  501    0  0.00000000000E+00  0.00000000000E+00  0.39556790361E+03  0.39556790362E+03  0.25500000000E-02 0. -1.
         -2   -1    0    0    0  501 -0.00000000000E+00 -0.00000000000E+00 -0.90548409880E+02  0.90548409916E+02  0.25500000000E-02 0.  1.
    5000001    1    1    2    0    0 -0.89755043777E+02  0.14584921390E+02  0.17563949008E+03  0.25757119072E+03  0.16500000000E+03 0.  0.
   -5000001    1    1    2    0    0  0.89755043777E+02 -0.14584921390E+02  0.12938000365E+03  0.22854512281E+03  0.16500000000E+03 0.  0.
<mgrwt>
<rscale>  0 0.37851312E+03</rscale>
<asrwt>0</asrwt>
<pdfrwt beam="1">  1        2 0.56509702E-01 0.37851312E+03</pdfrwt>
<pdfrwt beam="2">  1       -2 0.12935487E-01 0.37851312E+03</pdfrwt>
<totfact> 0.38561666E+03</totfact>
</mgrwt>
</event>
<event>
 4    1  0.5312547E-005  0.5026226E+03  0.7818608E-02  0.1013097E+00
          2   -1    0    0  501    0  0.00000000000E+00  0.00000000000E+00  0.32159613605E+04  0.32159613605E+04  0.25500000000E-02 0.  1.
         -2   -1    0    0    0  501 -0.00000000000E+00 -0.00000000000E+00 -0.19638720321E+02  0.19638720487E+02  0.25500000000E-02 0. -1.
    5000001    1    1    2    0    0  0.84091466318E+02 -0.12864155083E+03  0.23124654887E+04  0.23234331623E+04  0.16500000000E+03 0.  0.
   -5000001    1    1    2    0    0 -0.84091466318E+02  0.12864155083E+03  0.88385715153E+03  0.91216691873E+03  0.16500000000E+03 0.  0.
<mgrwt>
<rscale>  0 0.50262259E+03</rscale>
<asrwt>0</asrwt>
<pdfrwt beam="1">  1        2 0.45942293E+00 0.50262259E+03</pdfrwt>
<pdfrwt beam="2">  1       -2 0.28055323E-02 0.50262259E+03</pdfrwt>
<totfact> 0.96209009E+02</totfact>
</mgrwt>
</event>
<event>
 4    1  0.5312547E-005  0.1111922E+04  0.7818608E-02  0.9193649E-01
          2   -1    0    0  501    0  0.00000000000E+00  0.00000000000E+00  0.16238426307E+04  0.16238426307E+04  0.25500000000E-02 0.  1.
         -2   -1    0    0    0  501 -0.00000000000E+00 -0.00000000000E+00 -0.19034652081E+03  0.19034652083E+03  0.25500000000E-02 0. -1.
    5000001    1    1    2    0    0 -0.51115211737E+03 -0.67344947210E+02  0.51000717978E+03  0.74373661496E+03  0.16500000000E+03 0.  0.
   -5000001    1    1    2    0    0  0.51115211737E+03  0.67344947210E+02  0.92348893009E+03  0.10704525365E+04  0.16500000000E+03 0.  0.
<mgrwt>
<rscale>  0 0.11119223E+04</rscale>
<asrwt>0</asrwt>
<pdfrwt beam="1">  1        2 0.23197752E+00 0.11119223E+04</pdfrwt>
<pdfrwt beam="2">  1       -2 0.27192359E-01 0.11119223E+04</pdfrwt>
<totfact> 0.15325741E+02</totfact>
</mgrwt>
</event>
<event>
 4    1  0.5312547E-005  0.4077729E+03  0.7818608E-02  0.1041121E+00
          2   -1    0    0  501    0  0.00000000000E+00  0.00000000000E+00  0.57308400364E+03  0.57308400364E+03  0.25500000000E-02 0.  1.
         -2   -1    0    0    0  501 -0.00000000000E+00 -0.00000000000E+00 -0.72536798100E+02  0.72536798144E+02  0.25500000000E-02 0. -1.
    5000001    1    1    2    0    0 -0.82099577944E+02 -0.73426762319E+02  0.32475280770E+03  0.38055382830E+03  0.16500000000E+03 0.  0.
   -5000001    1    1    2    0    0  0.82099577944E+02  0.73426762319E+02  0.17579439784E+03  0.26506697349E+03  0.16500000000E+03 0.  0.
<mgrwt>
<rscale>  0 0.40777287E+03</rscale>
<asrwt>0</asrwt>
<pdfrwt beam="1">  1        2 0.81869141E-01 0.40777287E+03</pdfrwt>
<pdfrwt beam="2">  1       -2 0.10362400E-01 0.40777287E+03</pdfrwt>
<totfact> 0.36603841E+03</totfact>
</mgrwt>
</event>
<event>
 4    1  0.5312547E-005  0.9387725E+03  0.7818608E-02  0.9378371E-01
          2   -1    0    0  501    0  0.00000000000E+00  0.00000000000E+00  0.10917008677E+04  0.10917008677E+04  0.25500000000E-02 0.  1.
         -2   -1    0    0    0  501 -0.00000000000E+00 -0.00000000000E+00 -0.20181667788E+03  0.20181667790E+03  0.25500000000E-02 0. -1.
    5000001    1    1    2    0    0 -0.37217301621E+03 -0.78682815795E+02  0.74805950945E+03  0.85529045895E+03  0.16500000000E+03 0.  0.
   -5000001    1    1    2    0    0  0.37217301621E+03  0.78682815795E+02  0.14182468036E+03  0.43822708663E+03  0.16500000000E+03 0.  0.
<mgrwt>
<rscale>  0 0.93877248E+03</rscale>
<asrwt>0</asrwt>
<pdfrwt beam="1">  1        2 0.15595726E+00 0.93877248E+03</pdfrwt>
<pdfrwt beam="2">  1       -2 0.28830954E-01 0.93877248E+03</pdfrwt>
<totfact> 0.27229915E+02</totfact>
</mgrwt>
</event>
<event>
 4    1  0.5312547E-005  0.4501749E+03  0.7818608E-02  0.1027670E+00
          2   -1    0    0  501    0  0.00000000000E+00  0.00000000000E+00  0.60192327213E+03  0.60192327214E+03  0.25500000000E-02 0.  1.
         -2   -1    0    0    0  501 -0.00000000000E+00 -0.00000000000E+00 -0.84170794032E+02  0.84170794071E+02  0.25500000000E-02 0. -1.
    5000001    1    1    2    0    0 -0.13960140927E+03 -0.13997001415E+02  0.16548610207E+03  0.27257131085E+03  0.16500000000E+03 0.  0.
   -5000001    1    1    2    0    0  0.13960140927E+03  0.13997001415E+02  0.35226637603E+03  0.41352275536E+03  0.16500000000E+03 0.  0.
<mgrwt>
<rscale>  0 0.45017490E+03</rscale>
<asrwt>0</asrwt>
<pdfrwt beam="1">  1        2 0.85989038E-01 0.45017490E+03</pdfrwt>
<pdfrwt beam="2">  1       -2 0.12024399E-01 0.45017490E+03</pdfrwt>
<totfact> 0.27199471E+03</totfact>
</mgrwt>
</event>
<event>
 4    1  0.5312547E-005  0.4619063E+03  0.7818608E-02  0.1024230E+00
          2   -1    0    0  501    0  0.00000000000E+00  0.00000000000E+00  0.90886418391E+02  0.90886418427E+02  0.25500000000E-02 0.  1.
         -2   -1    0    0    0  501 -0.00000000000E+00 -0.00000000000E+00 -0.58687921035E+03  0.58687921035E+03  0.25500000000E-02 0. -1.
    5000001    1    1    2    0    0  0.58112307047E+02  0.14711581322E+03 -0.19945823488E+03  0.30336230846E+03  0.16500000000E+03 0.  0.
   -5000001    1    1    2    0    0 -0.58112307047E+02 -0.14711581322E+03 -0.29653455708E+03  0.37440332032E+03  0.16500000000E+03 0.  0.
<mgrwt>
<rscale>  0 0.46190627E+03</rscale>
<asrwt>0</asrwt>
<pdfrwt beam="1">  1        2 0.12983774E-01 0.46190627E+03</pdfrwt>
<pdfrwt beam="2">  1       -2 0.83839886E-01 0.46190627E+03</pdfrwt>
<totfact> 0.59935980E+02</totfact>
</mgrwt>
</event>
<event>
 4    1  0.5312547E-005  0.4205142E+03  0.7818608E-02  0.1036899E+00
         -2   -1    0    0    0  501 -0.00000000000E+00  0.00000000000E+00  0.31291921205E+02  0.31291921308E+02  0.25500000000E-02 0. -1.
          2   -1    0    0  501    0  0.00000000000E+00 -0.00000000000E+00 -0.14127624234E+04  0.14127624234E+04  0.25500000000E-02 0.  1.
    5000001    1    1    2    0    0  0.44164809636E+02  0.11110955791E+03 -0.86874826110E+03  0.89232528006E+03  0.16500000000E+03 0.  0.
   -5000001    1    1    2    0    0 -0.44164809636E+02 -0.11110955791E+03 -0.51272224111E+03  0.55172906467E+03  0.16500000000E+03 0.  0.
<mgrwt>
<rscale>  0 0.42051421E+03</rscale>
<asrwt>0</asrwt>
<pdfrwt beam="1">  1        2 0.20182316E+00 0.42051421E+03</pdfrwt>
<pdfrwt beam="2">  1       -2 0.44702753E-02 0.42051421E+03</pdfrwt>
<totfact> 0.40274607E+03</totfact>
</mgrwt>
</event>
<event>
 4    1  0.5312547E-005  0.4695879E+03  0.7818608E-02  0.1022037E+00
          2   -1    0    0  501    0  0.00000000000E+00  0.00000000000E+00  0.23144339553E+03  0.23144339554E+03  0.25500000000E-02 0.  1.
         -2   -1    0    0    0  501 -0.00000000000E+00 -0.00000000000E+00 -0.23819300872E+03  0.23819300874E+03  0.25500000000E-02 0. -1.
    5000001    1    1    2    0    0 -0.20019277440E+02  0.15068646274E+03  0.65885629861E+02  0.23382279133E+03  0.16500000000E+03 0.  0.
   -5000001    1    1    2    0    0  0.20019277440E+02 -0.15068646274E+03 -0.72635243055E+02  0.23581361296E+03  0.16500000000E+03 0.  0.
<mgrwt>
<rscale>  0 0.46958790E+03</rscale>
<asrwt>0</asrwt>
<pdfrwt beam="1">  1        2 0.33063342E-01 0.46958790E+03</pdfrwt>
<pdfrwt beam="2">  1       -2 0.34027573E-01 0.46958790E+03</pdfrwt>
<totfact> 0.12860139E+03</totfact>
</mgrwt>
</event>
<event>
 4    1  0.5312547E-005  0.5551538E+03  0.7818608E-02  0.1000308E+00
          2   -1    0    0  501    0  0.00000000000E+00  0.00000000000E+00  0.17005989416E+03  0.17005989418E+03  0.25500000000E-02 0.  1.
         -2   -1    0    0    0  501 -0.00000000000E+00 -0.00000000000E+00 -0.45306948758E+03  0.45306948759E+03  0.25500000000E-02 0. -1.
    5000001    1    1    2    0    0 -0.21781959722E+02 -0.19196722091E+03 -0.26698827523E+03  0.36855611077E+03  0.16500000000E+03 0.  0.
   -5000001    1    1    2    0    0  0.21781959722E+02  0.19196722091E+03 -0.16021318190E+02  0.25457327100E+03  0.16500000000E+03 0.  0.
<mgrwt>
<rscale>  0 0.55515385E+03</rscale>
<asrwt>0</asrwt>
<pdfrwt beam="1">  1        2 0.24294271E-01 0.55515385E+03</pdfrwt>
<pdfrwt beam="2">  1       -2 0.64724212E-01 0.55515385E+03</pdfrwt>
<totfact> 0.50322231E+02</totfact>
</mgrwt>
</event>
<event>
 4    1  0.5312547E-005  0.5895966E+03  0.7818608E-02  0.9927228E-01
         -2   -1    0    0    0  501 -0.00000000000E+00  0.00000000000E+00  0.57339927165E+02  0.57339927221E+02  0.25500000000E-02 0. -1.
          2   -1    0    0  501    0  0.00000000000E+00 -0.00000000000E+00 -0.15156284712E+04  0.15156284712E+04  0.25500000000E-02 0.  1.
    5000001    1    1    2    0    0  0.18918438040E+02  0.21498333028E+03 -0.42373071060E+03  0.50333731702E+03  0.16500000000E+03 0.  0.
   -5000001    1    1    2    0    0 -0.18918438040E+02 -0.21498333028E+03 -0.10345578335E+04  0.10696310814E+04  0.16500000000E+03 0.  0.
<mgrwt>
<rscale>  0 0.58959656E+03</rscale>
<asrwt>0</asrwt>
<pdfrwt beam="1">  1        2 0.21651833E+00 0.58959656E+03</pdfrwt>
<pdfrwt beam="2">  1       -2 0.81914191E-02 0.58959656E+03</pdfrwt>
<totfact> 0.13788996E+03</totfact>
</mgrwt>
</event>
<event>
 4    1  0.5312547E-005  0.4607480E+03  0.7818608E-02  0.1024565E+00
          2   -1    0    0  501    0  0.00000000000E+00  0.00000000000E+00  0.17653372719E+04  0.17653372719E+04  0.25500000000E-02 0.  1.
         -2   -1    0    0    0  501 -0.00000000000E+00 -0.00000000000E+00 -0.30063472498E+02  0.30063472606E+02  0.25500000000E-02 0. -1.
    5000001    1    1    2    0    0  0.61224100779E+02 -0.12031329660E+03  0.12078686745E+04  0.12265379793E+04  0.16500000000E+03 0.  0.
   -5000001    1    1    2    0    0 -0.61224100779E+02  0.12031329660E+03  0.52740512491E+03  0.56886276520E+03  0.16500000000E+03 0.  0.
<mgrwt>
<rscale>  0 0.46074795E+03</rscale>
<asrwt>0</asrwt>
<pdfrwt beam="1">  1        2 0.25219108E+00 0.46074795E+03</pdfrwt>
<pdfrwt beam="2">  1       -2 0.42947811E-02 0.46074795E+03</pdfrwt>
<totfact> 0.28300434E+03</totfact>
</mgrwt>
</event>
<event>
 4    1  0.5312547E-005  0.4787170E+03  0.7818608E-02  0.1019488E+00
         -2   -1    0    0    0  501 -0.00000000000E+00  0.00000000000E+00  0.19420321225E+02  0.19420321392E+02  0.25500000000E-02 0. -1.
          2   -1    0    0  501    0  0.00000000000E+00 -0.00000000000E+00 -0.29501304094E+04  0.29501304094E+04  0.25500000000E-02 0.  1.
    5000001    1    1    2    0    0  0.84976278543E+02  0.55420264093E-01 -0.24029642641E+04  0.24101209981E+04  0.16500000000E+03 0.  0.
   -5000001    1    1    2    0    0 -0.84976278543E+02 -0.55420264093E-01 -0.52774582415E+03  0.55942973275E+03  0.16500000000E+03 0.  0.
<mgrwt>
<rscale>  0 0.47871695E+03</rscale>
<asrwt>0</asrwt>
<pdfrwt beam="1">  1        2 0.42144692E+00 0.47871695E+03</pdfrwt>
<pdfrwt beam="2">  1       -2 0.27743335E-02 0.47871695E+03</pdfrwt>
<totfact> 0.13713869E+03</totfact>
</mgrwt>
</event>
<event>
 4    1  0.5312547E-005  0.6622073E+03  0.7818608E-02  0.9784139E-01
         -2   -1    0    0    0  501 -0.00000000000E+00  0.00000000000E+00  0.99309471229E+03  0.99309471229E+03  0.25500000000E-02 0. -1.
          2   -1    0    0  501    0  0.00000000000E+00 -0.00000000000E+00 -0.11039191045E+03  0.11039191048E+03  0.25500000000E-02 0.  1.
    5000001    1    1    2    0    0  0.27930261000E+03 -0.20309630006E+02  0.33619534245E+03  0.46762670723E+03  0.16500000000E+03 0.  0.
   -5000001    1    1    2    0    0 -0.27930261000E+03  0.20309630006E+02  0.54650745939E+03  0.63585991554E+03  0.16500000000E+03 0.  0.
<mgrwt>
<rscale>  0 0.66220729E+03</rscale>
<asrwt>0</asrwt>
<pdfrwt beam="1">  1        2 0.15770272E-01 0.66220729E+03</pdfrwt>
<pdfrwt beam="2">  1       -2 0.14187069E+00 0.66220729E+03</pdfrwt>
<totfact> 0.13272447E+02</totfact>
</mgrwt>
</event>
<event>
 4    1  0.5312547E-005  0.4364898E+03  0.7818608E-02  0.1031829E+00
          2   -1    0    0  501    0  0.00000000000E+00  0.00000000000E+00  0.80684803222E+03  0.80684803223E+03  0.25500000000E-02 0.  1.
         -2   -1    0    0    0  501 -0.00000000000E+00 -0.00000000000E+00 -0.59033223232E+02  0.59033223287E+02  0.25500000000E-02 0. -1.
    5000001    1    1    2    0    0 -0.81602763721E+02  0.89649862712E+02  0.22401071215E+03  0.30348296178E+03  0.16500000000E+03 0.  0.
   -5000001    1    1    2    0    0  0.81602763721E+02 -0.89649862712E+02  0.52380409684E+03  0.56239829373E+03  0.16500000000E+03 0.  0.
<mgrwt>
<rscale>  0 0.43648982E+03</rscale>
<asrwt>0</asrwt>
<pdfrwt beam="1">  1        2 0.11526400E+00 0.43648982E+03</pdfrwt>
<pdfrwt beam="2">  1       -2 0.84333179E-02 0.43648982E+03</pdfrwt>
<totfact> 0.33764965E+03</totfact>
</mgrwt>
</event>
<event>
 4    1  0.5312547E-005  0.4929783E+03  0.7818608E-02  0.1015628E+00
         -2   -1    0    0    0  501 -0.00000000000E+00  0.00000000000E+00  0.11503560316E+03  0.11503560319E+03  0.25500000000E-02 0. -1.
          2   -1    0    0  501    0  0.00000000000E+00 -0.00000000000E+00 -0.52815744735E+03  0.52815744735E+03  0.25500000000E-02 0.  1.
    5000001    1    1    2    0    0 -0.16361457832E+03 -0.80427871781E+02 -0.18420742510E+03  0.30723891072E+03  0.16500000000E+03 0.  0.
   -5000001    1    1    2    0    0  0.16361457832E+03  0.80427871781E+02 -0.22891441909E+03  0.33595413982E+03  0.16500000000E+03 0.  0.
<mgrwt>
<rscale>  0 0.49297834E+03</rscale>
<asrwt>0</asrwt>
<pdfrwt beam="1">  1        2 0.75451063E-01 0.49297834E+03</pdfrwt>
<pdfrwt beam="2">  1       -2 0.16433658E-01 0.49297834E+03</pdfrwt>
<totfact> 0.18820326E+03</totfact>
</mgrwt>
</event>
<event>
 4    1  0.5312547E-005  0.3919455E+03  0.7818608E-02  0.1046605E+00
         -2   -1    0    0    0  501 -0.00000000000E+00  0.00000000000E+00  0.32379843541E+02  0.32379843641E+02  0.25500000000E-02 0. -1.
          2   -1    0    0  501    0  0.00000000000E+00 -0.00000000000E+00 -0.11860870805E+04  0.11860870805E+04  0.25500000000E-02 0.  1.
    5000001    1    1    2    0    0 -0.90660775634E+02 -0.54072987440E+02 -0.59577626479E+03  0.62715039815E+03  0.16500000000E+03 0.  0.
   -5000001    1    1    2    0    0  0.90660775634E+02  0.54072987440E+02 -0.55793097213E+03  0.59131652596E+03  0.16500000000E+03 0.  0.
<mgrwt>
<rscale>  0 0.39194548E+03</rscale>
<asrwt>0</asrwt>
<pdfrwt beam="1">  1        2 0.16944098E+00 0.39194548E+03</pdfrwt>
<pdfrwt beam="2">  1       -2 0.46256927E-02 0.39194548E+03</pdfrwt>
<totfact> 0.50550533E+03</totfact>
</mgrwt>
</event>
<event>
 4    1  0.5312547E-005  0.4124708E+03  0.7818608E-02  0.1039545E+00
          2   -1    0    0  501    0  0.00000000000E+00  0.00000000000E+00  0.57546033045E+03  0.57546033046E+03  0.25500000000E-02 0.  1.
         -2   -1    0    0    0  501 -0.00000000000E+00 -0.00000000000E+00 -0.73911331603E+02  0.73911331647E+02  0.25500000000E-02 0. -1.
    5000001    1    1    2    0    0 -0.11820475531E+03 -0.22160648923E+01  0.19334293019E+03  0.28032795754E+03  0.16500000000E+03 0.  0.
   -5000001    1    1    2    0    0  0.11820475531E+03  0.22160648923E+01  0.30820606866E+03  0.36904370457E+03  0.16500000000E+03 0.  0.
<mgrwt>
<rscale>  0 0.41247080E+03</rscale>
<asrwt>0</asrwt>
<pdfrwt beam="1">  1        2 0.82208622E-01 0.41247080E+03</pdfrwt>
<pdfrwt beam="2">  1       -2 0.10558761E-01 0.41247080E+03</pdfrwt>
<totfact> 0.35350490E+03</totfact>
</mgrwt>
</event>
<event>
 4    1  0.5312547E-005  0.4043731E+03  0.7818608E-02  0.1042276E+00
         -2   -1    0    0    0  501 -0.00000000000E+00  0.00000000000E+00  0.12038949919E+02  0.12038950189E+02  0.25500000000E-02 0. -1.
          2   -1    0    0  501    0  0.00000000000E+00 -0.00000000000E+00 -0.33955951374E+04  0.33955951374E+04  0.25500000000E-02 0.  1.
    5000001    1    1    2    0    0  0.72702975199E+02 -0.91462936450E+02 -0.17068736811E+04  0.17188059677E+04  0.16500000000E+03 0.  0.
   -5000001    1    1    2    0    0 -0.72702975199E+02  0.91462936450E+02 -0.16766825064E+04  0.16888281200E+04  0.16500000000E+03 0.  0.
<mgrwt>
<rscale>  0 0.40437310E+03</rscale>
<asrwt>0</asrwt>
<pdfrwt beam="1">  1        2 0.48508441E+00 0.40437310E+03</pdfrwt>
<pdfrwt beam="2">  1       -2 0.17198522E-02 0.40437310E+03</pdfrwt>
<totfact> 0.15991000E+03</totfact>
</mgrwt>
</event>
<event>
 4    1  0.5312547E-005  0.5845941E+03  0.7818608E-02  0.9937894E-01
         -2   -1    0    0    0  501 -0.00000000000E+00  0.00000000000E+00  0.41577865930E+02  0.41577866008E+02  0.25500000000E-02 0. -1.
          2   -1    0    0  501    0  0.00000000000E+00 -0.00000000000E+00 -0.20548811250E+04  0.20548811250E+04  0.25500000000E-02 0.  1.
    5000001    1    1    2    0    0  0.20217471298E+03 -0.10387705350E+03 -0.71646982027E+03  0.76955770425E+03  0.16500000000E+03 0.  0.
   -5000001    1    1    2    0    0 -0.20217471298E+03  0.10387705350E+03 -0.12968334388E+04  0.13269012867E+04  0.16500000000E+03 0.  0.
<mgrwt>
<rscale>  0 0.58459412E+03</rscale>
<asrwt>0</asrwt>
<pdfrwt beam="1">  1        2 0.29355438E+00 0.58459412E+03</pdfrwt>
<pdfrwt beam="2">  1       -2 0.59396964E-02 0.58459412E+03</pdfrwt>
<totfact> 0.12210883E+03</totfact>
</mgrwt>
</event>
<event>
 4    1  0.5312547E-005  0.5335737E+03  0.7818608E-02  0.1005369E+00
         -2   -1    0    0    0  501 -0.00000000000E+00  0.00000000000E+00  0.52259326344E+02  0.52259326406E+02  0.25500000000E-02 0. -1.
          2   -1    0    0  501    0  0.00000000000E+00 -0.00000000000E+00 -0.13619620878E+04  0.13619620878E+04  0.25500000000E-02 0.  1.
    5000001    1    1    2    0    0 -0.11792369483E+03  0.76444229906E+02 -0.10671721375E+04  0.10889587179E+04  0.16500000000E+03 0.  0.
   -5000001    1    1    2    0    0  0.11792369483E+03 -0.76444229906E+02 -0.24253062390E+03  0.32526269632E+03  0.16500000000E+03 0.  0.
<mgrwt>
<rscale>  0 0.53357369E+03</rscale>
<asrwt>0</asrwt>
<pdfrwt beam="1">  1        2 0.19456599E+00 0.53357369E+03</pdfrwt>
<pdfrwt beam="2">  1       -2 0.74656189E-02 0.53357369E+03</pdfrwt>
<totfact> 0.19278494E+03</totfact>
</mgrwt>
</event>
<event>
 4    1  0.5312547E-005  0.4202675E+03  0.7818608E-02  0.1036979E+00
          2   -1    0    0  501    0  0.00000000000E+00  0.00000000000E+00  0.26507134791E+04  0.26507134791E+04  0.25500000000E-02 0.  1.
         -2   -1    0    0    0  501 -0.00000000000E+00 -0.00000000000E+00 -0.16658227027E+02  0.16658227222E+02  0.25500000000E-02 0. -1.
    5000001    1    1    2    0    0  0.69820673871E+02 -0.10526027492E+03  0.15153637007E+04  0.15295446373E+04  0.16500000000E+03 0.  0.
   -5000001    1    1    2    0    0 -0.69820673871E+02  0.10526027492E+03  0.11186915513E+04  0.11378270690E+04  0.16500000000E+03 0.  0.
<mgrwt>
<rscale>  0 0.42026747E+03</rscale>
<asrwt>0</asrwt>
<pdfrwt beam="1">  1        2 0.37867339E+00 0.42026747E+03</pdfrwt>
<pdfrwt beam="2">  1       -2 0.23797465E-02 0.42026747E+03</pdfrwt>
<totfact> 0.24906394E+03</totfact>
</mgrwt>
</event>
<event>
 4    1  0.5312547E-005  0.4710407E+03  0.7818608E-02  0.1021627E+00
          2   -1    0    0  501    0  0.00000000000E+00  0.00000000000E+00  0.15675106132E+04  0.15675106132E+04  0.25500000000E-02 0.  1.
         -2   -1    0    0    0  501 -0.00000000000E+00 -0.00000000000E+00 -0.35387218955E+02  0.35387219047E+02  0.25500000000E-02 0. -1.
    5000001    1    1    2    0    0  0.16459269130E+03 -0.26894686959E+02  0.83668802925E+03  0.86895680934E+03  0.16500000000E+03 0.  0.
   -5000001    1    1    2    0    0 -0.16459269130E+03  0.26894686959E+02  0.69543536498E+03  0.73394102289E+03  0.16500000000E+03 0.  0.
<mgrwt>
<rscale>  0 0.47104073E+03</rscale>
<asrwt>0</asrwt>
<pdfrwt beam="1">  1        2 0.22393008E+00 0.47104073E+03</pdfrwt>
<pdfrwt beam="2">  1       -2 0.50553173E-02 0.47104073E+03</pdfrwt>
<totfact> 0.27727144E+03</totfact>
</mgrwt>
</event>
<event>
 4    1  0.5312547E-005  0.3820198E+03  0.7818608E-02  0.1050190E+00
          2   -1    0    0  501    0  0.00000000000E+00  0.00000000000E+00  0.34938253732E+04  0.34938253732E+04  0.25500000000E-02 0.  1.
         -2   -1    0    0    0  501 -0.00000000000E+00 -0.00000000000E+00 -0.10442645859E+02  0.10442646170E+02  0.25500000000E-02 0. -1.
    5000001    1    1    2    0    0 -0.65380712119E+02 -0.69513265789E+02  0.18551736491E+04  0.18649399454E+04  0.16500000000E+03 0.  0.
   -5000001    1    1    2    0    0  0.65380712119E+02  0.69513265789E+02  0.16282090782E+04  0.16393280739E+04  0.16500000000E+03 0.  0.
<mgrwt>
<rscale>  0 0.38201980E+03</rscale>
<asrwt>0</asrwt>
<pdfrwt beam="1">  1        2 0.49911885E+00 0.38201980E+03</pdfrwt>
<pdfrwt beam="2">  1       -2 0.14918038E-02 0.38201980E+03</pdfrwt>
<totfact> 0.17355865E+03</totfact>
</mgrwt>
</event>
<event>
 4    1  0.5312547E-005  0.7202816E+03  0.7818608E-02  0.9683163E-01
          2   -1    0    0  501    0  0.00000000000E+00  0.00000000000E+00  0.18859742223E+04  0.18859742223E+04  0.25500000000E-02 0.  1.
         -2   -1    0    0    0  501 -0.00000000000E+00 -0.00000000000E+00 -0.68771569835E+02  0.68771569882E+02  0.25500000000E-02 0. -1.
    5000001    1    1    2    0    0 -0.28833575038E+03 -0.23104781099E+02  0.12807576883E+04  0.13233429608E+04  0.16500000000E+03 0.  0.
   -5000001    1    1    2    0    0  0.28833575038E+03  0.23104781099E+02  0.53644496419E+03  0.63140283137E+03  0.16500000000E+03 0.  0.
<mgrwt>
<rscale>  0 0.72028163E+03</rscale>
<asrwt>0</asrwt>
<pdfrwt beam="1">  1        2 0.26942490E+00 0.72028163E+03</pdfrwt>
<pdfrwt beam="2">  1       -2 0.98245096E-02 0.72028163E+03</pdfrwt>
<totfact> 0.66133564E+02</totfact>
</mgrwt>
</event>
<event>
 4    1  0.5312547E-005  0.6155622E+03  0.7818608E-02  0.9873635E-01
          2   -1    0    0  501    0  0.00000000000E+00  0.00000000000E+00  0.18145998552E+03  0.18145998554E+03  0.25500000000E-02 0.  1.
         -2   -1    0    0    0  501 -0.00000000000E+00 -0.00000000000E+00 -0.52203904032E+03  0.52203904032E+03  0.25500000000E-02 0. -1.
    5000001    1    1    2    0    0  0.86347810507E+02 -0.22502353648E+03 -0.59410917749E+02  0.29807078605E+03  0.16500000000E+03 0.  0.
   -5000001    1    1    2    0    0 -0.86347810507E+02  0.22502353648E+03 -0.28116813705E+03  0.40542823981E+03  0.16500000000E+03 0.  0.
<mgrwt>
<rscale>  0 0.61556217E+03</rscale>
<asrwt>0</asrwt>
<pdfrwt beam="1">  1        2 0.25922855E-01 0.61556217E+03</pdfrwt>
<pdfrwt beam="2">  1       -2 0.74577006E-01 0.61556217E+03</pdfrwt>
<totfact> 0.34326872E+02</totfact>
</mgrwt>
</event>
<event>
 4    1  0.5312547E-005  0.4688890E+03  0.7818608E-02  0.1022234E+00
         -2   -1    0    0    0  501 -0.00000000000E+00  0.00000000000E+00  0.13098916390E+03  0.13098916393E+03  0.25500000000E-02 0. -1.
          2   -1    0    0  501    0  0.00000000000E+00 -0.00000000000E+00 -0.41960895759E+03  0.41960895760E+03  0.25500000000E-02 0.  1.
    5000001    1    1    2    0    0  0.70166249416E+02  0.14821167094E+03 -0.11009021681E+03  0.25736133703E+03  0.16500000000E+03 0.  0.
   -5000001    1    1    2    0    0 -0.70166249416E+02 -0.14821167094E+03 -0.17852957687E+03  0.29323678449E+03  0.16500000000E+03 0.  0.
<mgrwt>
<rscale>  0 0.46888901E+03</rscale>
<asrwt>0</asrwt>
<pdfrwt beam="1">  1        2 0.59944136E-01 0.46888901E+03</pdfrwt>
<pdfrwt beam="2">  1       -2 0.18712738E-01 0.46888901E+03</pdfrwt>
<totfact> 0.19515337E+03</totfact>
</mgrwt>
</event>
<event>
 4    1  0.5312547E-005  0.6783375E+03  0.7818608E-02  0.9755012E-01
         -2   -1    0    0    0  501 -0.00000000000E+00  0.00000000000E+00  0.30366638876E+03  0.30366638877E+03  0.25500000000E-02 0. -1.
          2   -1    0    0  501    0  0.00000000000E+00 -0.00000000000E+00 -0.37882175544E+03  0.37882175545E+03  0.25500000000E-02 0.  1.
    5000001    1    1    2    0    0 -0.26755621237E+03  0.11672887798E+03  0.13709484011E+02  0.33559634636E+03  0.16500000000E+03 0.  0.
   -5000001    1    1    2    0    0  0.26755621237E+03 -0.11672887798E+03 -0.88864850697E+02  0.34689179786E+03  0.16500000000E+03 0.  0.
<mgrwt>
<rscale>  0 0.67833748E+03</rscale>
<asrwt>0</asrwt>
<pdfrwt beam="1">  1        2 0.54117393E-01 0.67833748E+03</pdfrwt>
<pdfrwt beam="2">  1       -2 0.43380913E-01 0.67833748E+03</pdfrwt>
<totfact> 0.46653386E+02</totfact>
</mgrwt>
</event>
<event>
 4    1  0.5312547E-005  0.6866537E+03  0.7818608E-02  0.9740332E-01
          2   -1    0    0  501    0  0.00000000000E+00  0.00000000000E+00  0.92517231902E+03  0.92517231902E+03  0.25500000000E-02 0.  1.
         -2   -1    0    0    0  501 -0.00000000000E+00 -0.00000000000E+00 -0.12740688899E+03  0.12740688901E+03  0.25500000000E-02 0. -1.
    5000001    1    1    2    0    0  0.28610175687E+02 -0.25821690210E+03  0.16562913829E+03  0.34950325053E+03  0.16500000000E+03 0.  0.
   -5000001    1    1    2    0    0 -0.28610175687E+02  0.25821690210E+03  0.63213629174E+03  0.70307595750E+03  0.16500000000E+03 0.  0.
<mgrwt>
<rscale>  0 0.68665370E+03</rscale>
<asrwt>0</asrwt>
<pdfrwt beam="1">  1        2 0.13216747E+00 0.68665370E+03</pdfrwt>
<pdfrwt beam="2">  1       -2 0.18200984E-01 0.68665370E+03</pdfrwt>
<totfact> 0.79071541E+02</totfact>
</mgrwt>
</event>
<event>
 4    1  0.5312547E-005  0.5876798E+03  0.7818608E-02  0.9931301E-01
         -2   -1    0    0    0  501 -0.00000000000E+00  0.00000000000E+00  0.14156384351E+03  0.14156384353E+03  0.25500000000E-02 0.  1.
          2   -1    0    0  501    0  0.00000000000E+00 -0.00000000000E+00 -0.60991479548E+03  0.60991479549E+03  0.25500000000E-02 0. -1.
    5000001    1    1    2    0    0  0.49080774840E+02 -0.21590492434E+03 -0.10570996833E+03  0.29567457824E+03  0.16500000000E+03 0.  0.
   -5000001    1    1    2    0    0 -0.49080774840E+02  0.21590492434E+03 -0.36264098364E+03  0.45580406078E+03  0.16500000000E+03 0.  0.
<mgrwt>
<rscale>  0 0.58767979E+03</rscale>
<asrwt>0</asrwt>
<pdfrwt beam="1">  1        2 0.87130684E-01 0.58767979E+03</pdfrwt>
<pdfrwt beam="2">  1       -2 0.20223407E-01 0.58767979E+03</pdfrwt>
<totfact> 0.11150791E+03</totfact>
</mgrwt>
</event>
<event>
 4    1  0.5312547E-005  0.4177884E+03  0.7818608E-02  0.1037789E+00
          2   -1    0    0  501    0  0.00000000000E+00  0.00000000000E+00  0.58966348302E+03  0.58966348303E+03  0.25500000000E-02 0.  1.
         -2   -1    0    0    0  501 -0.00000000000E+00 -0.00000000000E+00 -0.74002871836E+02  0.74002871880E+02  0.25500000000E-02 0. -1.
    5000001    1    1    2    0    0  0.79173738870E+01 -0.11080689139E+03  0.15647634845E+03  0.25308239688E+03  0.16500000000E+03 0.  0.
   -5000001    1    1    2    0    0 -0.79173738870E+01  0.11080689139E+03  0.35918426273E+03  0.41058395802E+03  0.16500000000E+03 0.  0.
<mgrwt>
<rscale>  0 0.41778842E+03</rscale>
<asrwt>0</asrwt>
<pdfrwt beam="1">  1        2 0.84237643E-01 0.41778842E+03</pdfrwt>
<pdfrwt beam="2">  1       -2 0.10571839E-01 0.41778842E+03</pdfrwt>
<totfact> 0.34307561E+03</totfact>
</mgrwt>
</event>
<event>
 4    1  0.5312547E-005  0.6507642E+03  0.7818608E-02  0.9805346E-01
         -2   -1    0    0    0  501 -0.00000000000E+00  0.00000000000E+00  0.15866664217E+03  0.15866664219E+03  0.25500000000E-02 0. -1.
          2   -1    0    0  501    0  0.00000000000E+00 -0.00000000000E+00 -0.66727018595E+03  0.66727018596E+03  0.25500000000E-02 0.  1.
    5000001    1    1    2    0    0 -0.99926270576E+02 -0.17321037757E+02  0.77542621781E+02  0.20862199331E+03  0.16500000000E+03 0.  0.
   -5000001    1    1    2    0    0  0.99926270576E+02  0.17321037757E+02 -0.58614616556E+03  0.61731483483E+03  0.16500000000E+03 0.  0.
<mgrwt>
<rscale>  0 0.65076423E+03</rscale>
<asrwt>0</asrwt>
<pdfrwt beam="1">  1        2 0.95324311E-01 0.65076423E+03</pdfrwt>
<pdfrwt beam="2">  1       -2 0.22666663E-01 0.65076423E+03</pdfrwt>
<totfact> 0.81866951E+02</totfact>
</mgrwt>
</event>
<event>
 4    1  0.5312547E-005  0.5117111E+03  0.7818608E-02  0.1010767E+00
         -2   -1    0    0    0  501 -0.00000000000E+00  0.00000000000E+00  0.80196793851E+02  0.80196793891E+02  0.25500000000E-02 0. -1.
          2   -1    0    0  501    0  0.00000000000E+00 -0.00000000000E+00 -0.81626790627E+03  0.81626790627E+03  0.25500000000E-02 0.  1.
    5000001    1    1    2    0    0  0.14598897139E+03 -0.11360637967E+03 -0.25698856359E+03  0.35705365295E+03  0.16500000000E+03 0.  0.
   -5000001    1    1    2    0    0 -0.14598897139E+03  0.11360637967E+03 -0.47908254883E+03  0.53941104722E+03  0.16500000000E+03 0.  0.
<mgrwt>
<rscale>  0 0.51171113E+03</rscale>
<asrwt>0</asrwt>
<pdfrwt beam="1">  1        2 0.11660970E+00 0.51171113E+03</pdfrwt>
<pdfrwt beam="2">  1       -2 0.11456685E-01 0.51171113E+03</pdfrwt>
<totfact> 0.20332134E+03</totfact>
</mgrwt>
</event>
<event>
 4    1  0.5312547E-005  0.4785575E+03  0.7818608E-02  0.1019532E+00
          2   -1    0    0  501    0  0.00000000000E+00  0.00000000000E+00  0.20512126611E+04  0.20512126611E+04  0.25500000000E-02 0.  1.
         -2   -1    0    0    0  501 -0.00000000000E+00 -0.00000000000E+00 -0.27912422429E+02  0.27912422546E+02  0.25500000000E-02 0. -1.
    5000001    1    1    2    0    0  0.16983889778E+03  0.41853443790E+01  0.11600376703E+04  0.11839658630E+04  0.16500000000E+03 0.  0.
   -5000001    1    1    2    0    0 -0.16983889778E+03 -0.41853443790E+01  0.86326256840E+03  0.89515922065E+03  0.16500000000E+03 0.  0.
<mgrwt>
<rscale>  0 0.47855748E+03</rscale>
<asrwt>0</asrwt>
<pdfrwt beam="1">  1        2 0.29303040E+00 0.47855748E+03</pdfrwt>
<pdfrwt beam="2">  1       -2 0.39874887E-02 0.47855748E+03</pdfrwt>
<totfact> 0.22816750E+03</totfact>
</mgrwt>
</event>
<event>
 4    1  0.5312547E-005  0.5512606E+03  0.7818608E-02  0.1001203E+00
         -2   -1    0    0    0  501 -0.00000000000E+00  0.00000000000E+00  0.91536997934E+02  0.91536997970E+02  0.25500000000E-02 0. -1.
          2   -1    0    0  501    0  0.00000000000E+00 -0.00000000000E+00 -0.82996026231E+03  0.82996026231E+03  0.25500000000E-02 0.  1.
    5000001    1    1    2    0    0  0.19006364637E+03 -0.71412609841E+02 -0.51420097263E+03  0.57693291705E+03  0.16500000000E+03 0.  0.
   -5000001    1    1    2    0    0 -0.19006364637E+03  0.71412609841E+02 -0.22422229174E+03  0.34456434324E+03  0.16500000000E+03 0.  0.
<mgrwt>
<rscale>  0 0.55126063E+03</rscale>
<asrwt>0</asrwt>
<pdfrwt beam="1">  1        2 0.11856575E+00 0.55126063E+03</pdfrwt>
<pdfrwt beam="2">  1       -2 0.13076714E-01 0.55126063E+03</pdfrwt>
<totfact> 0.16008114E+03</totfact>
</mgrwt>
</event>
<event>
 4    1  0.5312547E-005  0.4854404E+03  0.7818608E-02  0.1017651E+00
          2   -1    0    0  501    0  0.00000000000E+00  0.00000000000E+00  0.98054492120E+03  0.98054492120E+03  0.25500000000E-02 0.  1.
         -2   -1    0    0    0  501 -0.00000000000E+00 -0.00000000000E+00 -0.60082000140E+02  0.60082000194E+02  0.25500000000E-02 0. -1.
    5000001    1    1    2    0    0  0.68457757039E+01  0.17646116360E+03  0.50829443401E+03  0.56282647286E+03  0.16500000000E+03 0.  0.
   -5000001    1    1    2    0    0 -0.68457757039E+01 -0.17646116360E+03  0.41216848705E+03  0.47780044854E+03  0.16500000000E+03 0.  0.
<mgrwt>
<rscale>  0 0.48544042E+03</rscale>
<asrwt>0</asrwt>
<pdfrwt beam="1">  1        2 0.14007785E+00 0.48544042E+03</pdfrwt>
<pdfrwt beam="2">  1       -2 0.85831427E-02 0.48544042E+03</pdfrwt>
<totfact> 0.25400355E+03</totfact>
</mgrwt>
</event>
<event>
 4    1  0.5312547E-005  0.5727104E+03  0.7818608E-02  0.9963699E-01
         -2   -1    0    0    0  501 -0.00000000000E+00  0.00000000000E+00  0.81577289293E+02  0.81577289333E+02  0.25500000000E-02 0. -1.
          2   -1    0    0  501    0  0.00000000000E+00 -0.00000000000E+00 -0.10051732150E+04  0.10051732150E+04  0.25500000000E-02 0.  1.
    5000001    1    1    2    0    0 -0.18683591953E+03 -0.69893573960E+02 -0.22953877496E+03  0.34598529119E+03  0.16500000000E+03 0.  0.
   -5000001    1    1    2    0    0  0.18683591953E+03  0.69893573960E+02 -0.69405715074E+03  0.74076521314E+03  0.16500000000E+03 0.  0.
<mgrwt>
<rscale>  0 0.57271042E+03</rscale>
<asrwt>0</asrwt>
<pdfrwt beam="1">  1        2 0.14359617E+00 0.57271042E+03</pdfrwt>
<pdfrwt beam="2">  1       -2 0.11653899E-01 0.57271042E+03</pdfrwt>
<totfact> 0.14956557E+03</totfact>
</mgrwt>
</event>
<event>
 4    1  0.5312547E-005  0.8786423E+03  0.7818608E-02  0.9452681E-01
          2   -1    0    0  501    0  0.00000000000E+00  0.00000000000E+00  0.15043938481E+04  0.15043938481E+04  0.25500000000E-02 0.  1.
         -2   -1    0    0    0  501 -0.00000000000E+00 -0.00000000000E+00 -0.12829291684E+03  0.12829291686E+03  0.25500000000E-02 0. -1.
    5000001    1    1    2    0    0 -0.10185808501E+03 -0.36677748378E+03  0.41956069165E+03  0.59004827436E+03  0.16500000000E+03 0.  0.
   -5000001    1    1    2    0    0  0.10185808501E+03  0.36677748378E+03  0.95654023960E+03  0.10426384906E+04  0.16500000000E+03 0.  0.
<mgrwt>
<rscale>  0 0.87864230E+03</rscale>
<asrwt>0</asrwt>
<pdfrwt beam="1">  1        2 0.21491338E+00 0.87864230E+03</pdfrwt>
<pdfrwt beam="2">  1       -2 0.18327562E-01 0.87864230E+03</pdfrwt>
<totfact> 0.36260129E+02</totfact>
</mgrwt>
</event>
<event>
 4    1  0.5312547E-005  0.5056636E+03  0.7818608E-02  0.1012311E+00
         -2   -1    0    0    0  501 -0.00000000000E+00  0.00000000000E+00  0.14628392180E+03  0.14628392183E+03  0.25500000000E-02 0. -1.
          2   -1    0    0  501    0  0.00000000000E+00 -0.00000000000E+00 -0.43698519910E+03  0.43698519911E+03  0.25500000000E-02 0.  1.
    5000001    1    1    2    0    0  0.10368486994E+02 -0.16333673872E+03 -0.26019223273E+03  0.34887160061E+03  0.16500000000E+03 0.  0.
   -5000001    1    1    2    0    0 -0.10368486994E+02  0.16333673872E+03 -0.30509044573E+02  0.23439752033E+03  0.16500000000E+03 0.  0.
<mgrwt>
<rscale>  0 0.50566356E+03</rscale>
<asrwt>0</asrwt>
<pdfrwt beam="1">  1        2 0.62426456E-01 0.50566356E+03</pdfrwt>
<pdfrwt beam="2">  1       -2 0.20897703E-01 0.50566356E+03</pdfrwt>
<totfact> 0.15415833E+03</totfact>
</mgrwt>
</event>
<event>
 4    1  0.5312547E-005  0.4799637E+03  0.7818608E-02  0.1019145E+00
          2   -1    0    0  501    0  0.00000000000E+00  0.00000000000E+00  0.14023168752E+04  0.14023168752E+04  0.25500000000E-02 0.  1.
         -2   -1    0    0    0  501 -0.00000000000E+00 -0.00000000000E+00 -0.41068677511E+02  0.41068677590E+02  0.25500000000E-02 0. -1.
    5000001    1    1    2    0    0  0.12555452267E+03 -0.66169956021E+02  0.98470012436E+03  0.10084650396E+04  0.16500000000E+03 0.  0.
   -5000001    1    1    2    0    0 -0.12555452267E+03  0.66169956021E+02  0.37654807335E+03  0.43492051318E+03  0.16500000000E+03 0.  0.
<mgrwt>
<rscale>  0 0.47996375E+03</rscale>
<asrwt>0</asrwt>
<pdfrwt beam="1">  1        2 0.20033094E+00 0.47996375E+03</pdfrwt>
<pdfrwt beam="2">  1       -2 0.58669552E-02 0.47996375E+03</pdfrwt>
<totfact> 0.26808899E+03</totfact>
</mgrwt>
</event>
<event>
 4    1  0.5312547E-005  0.4110448E+03  0.7818608E-02  0.1040021E+00
          2   -1    0    0  501    0  0.00000000000E+00  0.00000000000E+00  0.12058152765E+04  0.12058152765E+04  0.25500000000E-02 0.  1.
         -2   -1    0    0    0  501 -0.00000000000E+00 -0.00000000000E+00 -0.35029796380E+02  0.35029796473E+02  0.25500000000E-02 0. -1.
    5000001    1    1    2    0    0 -0.11335032269E+03 -0.43265562800E+02  0.63717646782E+03  0.66928249321E+03  0.16500000000E+03 0.  0.
   -5000001    1    1    2    0    0  0.11335032269E+03  0.43265562800E+02  0.53360901233E+03  0.57156257979E+03  0.16500000000E+03 0.  0.
<mgrwt>
<rscale>  0 0.41104483E+03</rscale>
<asrwt>0</asrwt>
<pdfrwt beam="1">  1        2 0.17225929E+00 0.41104483E+03</pdfrwt>
<pdfrwt beam="2">  1       -2 0.50042576E-02 0.41104483E+03</pdfrwt>
<totfact> 0.43717162E+03</totfact>
</mgrwt>
</event>
<event>
 4    1  0.5312547E-005  0.9139430E+03  0.7818608E-02  0.9408318E-01
          2   -1    0    0  501    0  0.00000000000E+00  0.00000000000E+00  0.11150618772E+04  0.11150618772E+04  0.25500000000E-02 0.  1.
         -2   -1    0    0    0  501 -0.00000000000E+00 -0.00000000000E+00 -0.18727475463E+03  0.18727475465E+03  0.25500000000E-02 0. -1.
    5000001    1    1    2    0    0  0.36930289450E+03 -0.20924344425E+03  0.40999874851E+03  0.61277354759E+03  0.16500000000E+03 0.  0.
   -5000001    1    1    2    0    0 -0.36930289450E+03  0.20924344425E+03  0.51778837402E+03  0.68956308422E+03  0.16500000000E+03 0.  0.
<mgrwt>
<rscale>  0 0.91394297E+03</rscale>
<asrwt>0</asrwt>
<pdfrwt beam="1">  1        2 0.15929455E+00 0.91394297E+03</pdfrwt>
<pdfrwt beam="2">  1       -2 0.26753536E-01 0.91394297E+03</pdfrwt>
<totfact> 0.30302603E+02</totfact>
</mgrwt>
</event>
<event>
 4    1  0.5312547E-005  0.4884827E+03  0.7818608E-02  0.1016830E+00
          2   -1    0    0  501    0  0.00000000000E+00  0.00000000000E+00  0.63063876326E+03  0.63063876326E+03  0.25500000000E-02 0.  1.
         -2   -1    0    0    0  501 -0.00000000000E+00 -0.00000000000E+00 -0.94592741048E+02  0.94592741082E+02  0.25500000000E-02 0. -1.
    5000001    1    1    2    0    0 -0.86782231367E+02  0.12543681195E+03  0.41014241497E+03  0.46766157639E+03  0.16500000000E+03 0.  0.
   -5000001    1    1    2    0    0  0.86782231367E+02 -0.12543681195E+03  0.12590360724E+03  0.25756992796E+03  0.16500000000E+03 0.  0.
<mgrwt>
<rscale>  0 0.48848275E+03</rscale>
<asrwt>0</asrwt>
<pdfrwt beam="1">  1        2 0.90091247E-01 0.48848275E+03</pdfrwt>
<pdfrwt beam="2">  1       -2 0.13513249E-01 0.48848275E+03</pdfrwt>
<totfact> 0.21262762E+03</totfact>
</mgrwt>
</event>
<event>
 4    1  0.5312547E-005  0.5478260E+03  0.7818608E-02  0.1001998E+00
         -2   -1    0    0    0  501 -0.00000000000E+00  0.00000000000E+00  0.42452899196E+02  0.42452899273E+02  0.25500000000E-02 0. -1.
          2   -1    0    0  501    0  0.00000000000E+00 -0.00000000000E+00 -0.17673311773E+04  0.17673311773E+04  0.25500000000E-02 0.  1.
    5000001    1    1    2    0    0 -0.12789161487E+03 -0.10487318567E+03 -0.13348466376E+04  0.13551365968E+04  0.16500000000E+03 0.  0.
   -5000001    1    1    2    0    0  0.12789161487E+03  0.10487318567E+03 -0.39003164055E+03  0.45464747976E+03  0.16500000000E+03 0.  0.
<mgrwt>
<rscale>  0 0.54782600E+03</rscale>
<asrwt>0</asrwt>
<pdfrwt beam="1">  1        2 0.25247584E+00 0.54782600E+03</pdfrwt>
<pdfrwt beam="2">  1       -2 0.60647010E-02 0.54782600E+03</pdfrwt>
<totfact> 0.16510884E+03</totfact>
</mgrwt>
</event>
<event>
 4    1  0.5312547E-005  0.5290579E+03  0.7818608E-02  0.1006461E+00
         -2   -1    0    0    0  501 -0.00000000000E+00  0.00000000000E+00  0.90780140015E+03  0.90780140015E+03  0.25500000000E-02 0. -1.
          2   -1    0    0  501    0  0.00000000000E+00 -0.00000000000E+00 -0.77082468858E+02  0.77082468900E+02  0.25500000000E-02 0.  1.
    5000001    1    1    2    0    0  0.19828170507E+03  0.57029130099E+02  0.44051608745E+03  0.51366076310E+03  0.16500000000E+03 0.  0.
   -5000001    1    1    2    0    0 -0.19828170507E+03 -0.57029130099E+02  0.39020284384E+03  0.47122310595E+03  0.16500000000E+03 0.  0.
<mgrwt>
<rscale>  0 0.52905793E+03</rscale>
<asrwt>0</asrwt>
<pdfrwt beam="1">  1        2 0.11011782E-01 0.52905793E+03</pdfrwt>
<pdfrwt beam="2">  1       -2 0.12968590E+00 0.52905793E+03</pdfrwt>
<totfact> 0.26067786E+02</totfact>
</mgrwt>
</event>
<event>
 4    1  0.5312547E-005  0.4470219E+03  0.7818608E-02  0.1028614E+00
          2   -1    0    0  501    0  0.00000000000E+00  0.00000000000E+00  0.10471774014E+04  0.10471774014E+04  0.25500000000E-02 0.  1.
         -2   -1    0    0    0  501 -0.00000000000E+00 -0.00000000000E+00 -0.47706466779E+02  0.47706466847E+02  0.25500000000E-02 0. -1.
    5000001    1    1    2    0    0  0.10365207081E+03 -0.10520126810E+03  0.42540157299E+03  0.47958581807E+03  0.16500000000E+03 0.  0.
   -5000001    1    1    2    0    0 -0.10365207081E+03  0.10520126810E+03  0.57406936163E+03  0.61529805018E+03  0.16500000000E+03 0.  0.
<mgrwt>
<rscale>  0 0.44702185E+03</rscale>
<asrwt>0</asrwt>
<pdfrwt beam="1">  1        2 0.14959676E+00 0.44702185E+03</pdfrwt>
<pdfrwt beam="2">  1       -2 0.68152103E-02 0.44702185E+03</pdfrwt>
<totfact> 0.33344428E+03</totfact>
</mgrwt>
</event>
<event>
 4    1  0.5312547E-005  0.4278429E+03  0.7818608E-02  0.1034544E+00
         -2   -1    0    0    0  501 -0.00000000000E+00  0.00000000000E+00  0.95790561022E+02  0.95790561056E+02  0.25500000000E-02 0. -1.
          2   -1    0    0  501    0  0.00000000000E+00 -0.00000000000E+00 -0.47773370081E+03  0.47773370081E+03  0.25500000000E-02 0.  1.
    5000001    1    1    2    0    0 -0.66532570300E+02  0.70396635798E+02 -0.31923394691E+03  0.37217950253E+03  0.16500000000E+03 0.  0.
   -5000001    1    1    2    0    0  0.66532570300E+02 -0.70396635798E+02 -0.62709192871E+02  0.20134475934E+03  0.16500000000E+03 0.  0.
<mgrwt>
<rscale>  0 0.42784286E+03</rscale>
<asrwt>0</asrwt>
<pdfrwt beam="1">  1        2 0.68247671E-01 0.42784286E+03</pdfrwt>
<pdfrwt beam="2">  1       -2 0.13684366E-01 0.42784286E+03</pdfrwt>
<totfact> 0.28595240E+03</totfact>
</mgrwt>
</event>
<event>
 4    1  0.5312547E-005  0.5939815E+03  0.7818608E-02  0.9917972E-01
          2   -1    0    0  501    0  0.00000000000E+00  0.00000000000E+00  0.90265535117E+03  0.90265535117E+03  0.25500000000E-02 0.  1.
         -2   -1    0    0    0  501 -0.00000000000E+00 -0.00000000000E+00 -0.97715608357E+02  0.97715608391E+02  0.25500000000E-02 0. -1.
    5000001    1    1    2    0    0 -0.20784498494E+03 -0.13328005312E+03  0.39585928946E+03  0.49486633284E+03  0.16500000000E+03 0.  0.
   -5000001    1    1    2    0    0  0.20784498494E+03  0.13328005312E+03  0.40908045336E+03  0.50550462673E+03  0.16500000000E+03 0.  0.
<mgrwt>
<rscale>  0 0.59398154E+03</rscale>
<asrwt>0</asrwt>
<pdfrwt beam="1">  1        2 0.12895076E+00 0.59398154E+03</pdfrwt>
<pdfrwt beam="2">  1       -2 0.13959373E-01 0.59398154E+03</pdfrwt>
<totfact> 0.12852048E+03</totfact>
</mgrwt>
</event>
<event>
 4    1  0.5312547E-005  0.4544225E+03  0.7818608E-02  0.1026411E+00
         -2   -1    0    0    0  501 -0.00000000000E+00  0.00000000000E+00  0.25931200020E+02  0.25931200146E+02  0.25500000000E-02 0.  1.
          2   -1    0    0  501    0  0.00000000000E+00 -0.00000000000E+00 -0.19908435170E+04  0.19908435170E+04  0.25500000000E-02 0. -1.
    5000001    1    1    2    0    0  0.13834258300E+03  0.48375083972E+02 -0.74258728374E+03  0.77468683544E+03  0.16500000000E+03 0.  0.
   -5000001    1    1    2    0    0 -0.13834258300E+03 -0.48375083972E+02 -0.12223250332E+04  0.12420878817E+04  0.16500000000E+03 0.  0.
<mgrwt>
<rscale>  0 0.45442254E+03</rscale>
<asrwt>0</asrwt>
<pdfrwt beam="1">  1        2 0.28440612E+00 0.45442254E+03</pdfrwt>
<pdfrwt beam="2">  1       -2 0.37044584E-02 0.45442254E+03</pdfrwt>
<totfact> 0.27379378E+03</totfact>
</mgrwt>
</event>
<event>
 4    1  0.5312547E-005  0.4134953E+03  0.7818608E-02  0.1039204E+00
         -2   -1    0    0    0  501 -0.00000000000E+00  0.00000000000E+00  0.28812465377E+03  0.28812465378E+03  0.25500000000E-02 0. -1.
          2   -1    0    0  501    0  0.00000000000E+00 -0.00000000000E+00 -0.14835447393E+03  0.14835447396E+03  0.25500000000E-02 0.  1.
    5000001    1    1    2    0    0 -0.44763742547E+02  0.11427790258E+03  0.47335332564E+02  0.21101863751E+03  0.16500000000E+03 0.  0.
   -5000001    1    1    2    0    0  0.44763742547E+02 -0.11427790258E+03  0.92434847274E+02  0.22546049023E+03  0.16500000000E+03 0.  0.
<mgrwt>
<rscale>  0 0.41349525E+03</rscale>
<asrwt>0</asrwt>
<pdfrwt beam="1">  1        2 0.21193497E-01 0.41349525E+03</pdfrwt>
<pdfrwt beam="2">  1       -2 0.41160664E-01 0.41349525E+03</pdfrwt>
<totfact> 0.14762435E+03</totfact>
</mgrwt>
</event>
<event>
 4    1  0.5312547E-005  0.1129671E+04  0.7818608E-02  0.9176746E-01
          2   -1    0    0  501    0  0.00000000000E+00  0.00000000000E+00  0.26220239593E+04  0.26220239593E+04  0.25500000000E-02 0.  1.
         -2   -1    0    0    0  501 -0.00000000000E+00 -0.00000000000E+00 -0.12167656873E+03  0.12167656875E+03  0.25500000000E-02 0. -1.
    5000001    1    1    2    0    0  0.53040210561E+03 -0.93647299440E+02  0.11495142476E+04  0.12801188288E+04  0.16500000000E+03 0.  0.
   -5000001    1    1    2    0    0 -0.53040210561E+03  0.93647299440E+02  0.13508331429E+04  0.14635816993E+04  0.16500000000E+03 0.  0.
<mgrwt>
<rscale>  0 0.11296705E+04</rscale>
<asrwt>0</asrwt>
<pdfrwt beam="1">  1        2 0.37457480E+00 0.11296705E+04</pdfrwt>
<pdfrwt beam="2">  1       -2 0.17382369E-01 0.11296705E+04</pdfrwt>
<totfact> 0.10349283E+02</totfact>
</mgrwt>
</event>
<event>
 4    1  0.5312547E-005  0.3813103E+03  0.7818608E-02  0.1050451E+00
          2   -1    0    0  501    0  0.00000000000E+00  0.00000000000E+00  0.32482993853E+03  0.32482993854E+03  0.25500000000E-02 0.  1.
         -2   -1    0    0    0  501 -0.00000000000E+00 -0.00000000000E+00 -0.11190280497E+03  0.11190280500E+03  0.25500000000E-02 0. -1.
    5000001    1    1    2    0    0  0.92710103469E+02 -0.20188373711E+02  0.11909605582E+03  0.22452528639E+03  0.16500000000E+03 0.  0.
   -5000001    1    1    2    0    0 -0.92710103469E+02  0.20188373711E+02  0.93831077740E+02  0.21220745715E+03  0.16500000000E+03 0.  0.
<mgrwt>
<rscale>  0 0.38131027E+03</rscale>
<asrwt>0</asrwt>
<pdfrwt beam="1">  1        2 0.46404278E-01 0.38131027E+03</pdfrwt>
<pdfrwt beam="2">  1       -2 0.15986115E-01 0.38131027E+03</pdfrwt>
<totfact> 0.33653173E+03</totfact>
</mgrwt>
</event>
<event>
 4    1  0.5312547E-005  0.8361764E+03  0.7818608E-02  0.9509081E-01
          2   -1    0    0  501    0  0.00000000000E+00  0.00000000000E+00  0.13253886410E+04  0.13253886410E+04  0.25500000000E-02 0.  1.
         -2   -1    0    0    0  501 -0.00000000000E+00 -0.00000000000E+00 -0.13188413226E+03  0.13188413229E+03  0.25500000000E-02 0. -1.
    5000001    1    1    2    0    0 -0.46451242165E+02  0.31884133352E+03  0.96130290781E+03  0.10272028984E+04  0.16500000000E+03 0.  0.
   -5000001    1    1    2    0    0  0.46451242165E+02 -0.31884133352E+03  0.23220160096E+03  0.43006987496E+03  0.16500000000E+03 0.  0.
<mgrwt>
<rscale>  0 0.83617637E+03</rscale>
<asrwt>0</asrwt>
<pdfrwt beam="1">  1        2 0.18934124E+00 0.83617637E+03</pdfrwt>
<pdfrwt beam="2">  1       -2 0.18840590E-01 0.83617637E+03</pdfrwt>
<totfact> 0.43206513E+02</totfact>
</mgrwt>
</event>
<event>
 4    1  0.5312547E-005  0.3483557E+03  0.7818608E-02  0.1063292E+00
          2   -1    0    0  501    0  0.00000000000E+00  0.00000000000E+00  0.16698108642E+04  0.16698108642E+04  0.25500000000E-02 0.  1.
         -2   -1    0    0    0  501 -0.00000000000E+00 -0.00000000000E+00 -0.18168481513E+02  0.18168481692E+02  0.25500000000E-02 0. -1.
    5000001    1    1    2    0    0  0.51528775478E+02 -0.20533257932E+02  0.79670803664E+03  0.81550323422E+03  0.16500000000E+03 0.  0.
   -5000001    1    1    2    0    0 -0.51528775478E+02  0.20533257932E+02  0.85493434609E+03  0.87247611171E+03  0.16500000000E+03 0.  0.
<mgrwt>
<rscale>  0 0.34835573E+03</rscale>
<asrwt>0</asrwt>
<pdfrwt beam="1">  1        2 0.23854446E+00 0.34835573E+03</pdfrwt>
<pdfrwt beam="2">  1       -2 0.25954968E-02 0.34835573E+03</pdfrwt>
<totfact> 0.67621526E+03</totfact>
</mgrwt>
</event>
<event>
 4    1  0.5312547E-005  0.3883395E+03  0.7818608E-02  0.1047894E+00
         -2   -1    0    0    0  501 -0.00000000000E+00  0.00000000000E+00  0.39363919392E+02  0.39363919475E+02  0.25500000000E-02 0. -1.
          2   -1    0    0  501    0  0.00000000000E+00 -0.00000000000E+00 -0.95777765199E+03  0.95777765200E+03  0.25500000000E-02 0.  1.
    5000001    1    1    2    0    0  0.74285331842E+02 -0.65234008866E+02 -0.52729204638E+03  0.56128040106E+03  0.16500000000E+03 0.  0.
   -5000001    1    1    2    0    0 -0.74285331842E+02  0.65234008866E+02 -0.39112168622E+03  0.43586117041E+03  0.16500000000E+03 0.  0.
<mgrwt>
<rscale>  0 0.38833945E+03</rscale>
<asrwt>0</asrwt>
<pdfrwt beam="1">  1        2 0.13682536E+00 0.38833945E+03</pdfrwt>
<pdfrwt beam="2">  1       -2 0.56234177E-02 0.38833945E+03</pdfrwt>
<totfact> 0.50800177E+03</totfact>
</mgrwt>
</event>
<event>
 4    1  0.5312547E-005  0.3699363E+03  0.7818608E-02  0.1054717E+00
          2   -1    0    0  501    0  0.00000000000E+00  0.00000000000E+00  0.10618664092E+03  0.10618664095E+03  0.25500000000E-02 0.  1.
         -2   -1    0    0    0  501 -0.00000000000E+00 -0.00000000000E+00 -0.32219894948E+03  0.32219894949E+03  0.25500000000E-02 0. -1.
    5000001    1    1    2    0    0  0.70847270424E+02 -0.42460321271E+02 -0.93085962812E+02  0.20666932787E+03  0.16500000000E+03 0.  0.
   -5000001    1    1    2    0    0 -0.70847270424E+02  0.42460321271E+02 -0.12292634575E+03  0.22171626257E+03  0.16500000000E+03 0.  0.
<mgrwt>
<rscale>  0 0.36993634E+03</rscale>
<asrwt>0</asrwt>
<pdfrwt beam="1">  1        2 0.15169520E-01 0.36993634E+03</pdfrwt>
<pdfrwt beam="2">  1       -2 0.46028421E-01 0.36993634E+03</pdfrwt>
<totfact> 0.17535090E+03</totfact>
</mgrwt>
</event>
<event>
 4    1  0.5312547E-005  0.5358071E+03  0.7818608E-02  0.1004833E+00
          2   -1    0    0  501    0  0.00000000000E+00  0.00000000000E+00  0.51136593951E+03  0.51136593952E+03  0.25500000000E-02 0.  1.
         -2   -1    0    0    0  501 -0.00000000000E+00 -0.00000000000E+00 -0.14035412871E+03  0.14035412874E+03  0.25500000000E-02 0. -1.
    5000001    1    1    2    0    0  0.48643184639E+02  0.34572756423E+02 -0.60740425083E+02  0.18567669250E+03  0.16500000000E+03 0.  0.
   -5000001    1    1    2    0    0 -0.48643184639E+02 -0.34572756423E+02  0.43175223588E+03  0.46604337576E+03  0.16500000000E+03 0.  0.
<mgrwt>
<rscale>  0 0.53580713E+03</rscale>
<asrwt>0</asrwt>
<pdfrwt beam="1">  1        2 0.73052277E-01 0.53580713E+03</pdfrwt>
<pdfrwt beam="2">  1       -2 0.20050590E-01 0.53580713E+03</pdfrwt>
<totfact> 0.13884349E+03</totfact>
</mgrwt>
</event>
<event>
 4    1  0.5312547E-005  0.4240252E+03  0.7818608E-02  0.1035764E+00
         -2   -1    0    0    0  501 -0.00000000000E+00  0.00000000000E+00  0.11189547231E+03  0.11189547234E+03  0.25500000000E-02 0. -1.
          2   -1    0    0  501    0  0.00000000000E+00 -0.00000000000E+00 -0.40170836032E+03  0.40170836033E+03  0.25500000000E-02 0.  1.
    5000001    1    1    2    0    0  0.11124710984E+03  0.25765530479E+02 -0.62003264046E+02  0.21002187210E+03  0.16500000000E+03 0.  0.
   -5000001    1    1    2    0    0 -0.11124710984E+03 -0.25765530479E+02 -0.22780962397E+03  0.30358196056E+03  0.16500000000E+03 0.  0.
<mgrwt>
<rscale>  0 0.42402522E+03</rscale>
<asrwt>0</asrwt>
<pdfrwt beam="1">  1        2 0.57386908E-01 0.42402522E+03</pdfrwt>
<pdfrwt beam="2">  1       -2 0.15985068E-01 0.42402522E+03</pdfrwt>
<totfact> 0.26731864E+03</totfact>
</mgrwt>
</event>
<event>
 4    1  0.5312547E-005  0.1032795E+04  0.7818608E-02  0.9273289E-01
         -2   -1    0    0    0  501 -0.00000000000E+00  0.00000000000E+00  0.15958379333E+03  0.15958379335E+03  0.25500000000E-02 0. -1.
          2   -1    0    0  501    0  0.00000000000E+00 -0.00000000000E+00 -0.16710127698E+04  0.16710127698E+04  0.25500000000E-02 0.  1.
    5000001    1    1    2    0    0  0.22011684231E+03  0.40872921057E+03 -0.48152244755E+03  0.68891208390E+03  0.16500000000E+03 0.  0.
   -5000001    1    1    2    0    0 -0.22011684231E+03 -0.40872921057E+03 -0.10299065289E+04  0.11416844792E+04  0.16500000000E+03 0.  0.
<mgrwt>
<rscale>  0 0.10327953E+04</rscale>
<asrwt>0</asrwt>
<pdfrwt beam="1">  1        2 0.23871610E+00 0.10327953E+04</pdfrwt>
<pdfrwt beam="2">  1       -2 0.22797686E-01 0.10327953E+04</pdfrwt>
<totfact> 0.20025456E+02</totfact>
</mgrwt>
</event>
<event>
 4    1  0.5312547E-005  0.5565245E+03  0.7818608E-02  0.9999950E-01
         -2   -1    0    0    0  501 -0.00000000000E+00  0.00000000000E+00  0.15191089139E+03  0.15191089141E+03  0.25500000000E-02 0. -1.
          2   -1    0    0  501    0  0.00000000000E+00 -0.00000000000E+00 -0.50970587451E+03  0.50970587451E+03  0.25500000000E-02 0.  1.
    5000001    1    1    2    0    0 -0.94283385803E+02 -0.15917638789E+03 -0.32917320550E+03  0.41207581647E+03  0.16500000000E+03 0.  0.
   -5000001    1    1    2    0    0  0.94283385803E+02  0.15917638789E+03 -0.28621777617E+02  0.24954094946E+03  0.16500000000E+03 0.  0.
<mgrwt>
<rscale>  0 0.55652448E+03</rscale>
<asrwt>0</asrwt>
<pdfrwt beam="1">  1        2 0.72815124E-01 0.55652448E+03</pdfrwt>
<pdfrwt beam="2">  1       -2 0.21701556E-01 0.55652448E+03</pdfrwt>
<totfact> 0.12135165E+03</totfact>
</mgrwt>
</event>
<event>
 4    1  0.5312547E-005  0.4831044E+03  0.7818608E-02  0.1018285E+00
         -2   -1    0    0    0  501 -0.00000000000E+00  0.00000000000E+00  0.57515774038E+02  0.57515774095E+02  0.25500000000E-02 0. -1.
          2   -1    0    0  501    0  0.00000000000E+00 -0.00000000000E+00 -0.10144604086E+04  0.10144604086E+04  0.25500000000E-02 0.  1.
    5000001    1    1    2    0    0 -0.12940364602E+03 -0.92516862626E+02 -0.64772033092E+03  0.68707445053E+03  0.16500000000E+03 0.  0.
   -5000001    1    1    2    0    0  0.12940364602E+03  0.92516862626E+02 -0.30922430367E+03  0.38490173220E+03  0.16500000000E+03 0.  0.
<mgrwt>
<rscale>  0 0.48310444E+03</rscale>
<asrwt>0</asrwt>
<pdfrwt beam="1">  1        2 0.14492290E+00 0.48310444E+03</pdfrwt>
<pdfrwt beam="2">  1       -2 0.82165398E-02 0.48310444E+03</pdfrwt>
<totfact> 0.25970070E+03</totfact>
</mgrwt>
</event>
<event>
 4    1  0.5312547E-005  0.6184261E+03  0.7818608E-02  0.9867898E-01
          2   -1    0    0  501    0  0.00000000000E+00  0.00000000000E+00  0.18677137086E+04  0.18677137086E+04  0.25500000000E-02 0.  1.
         -2   -1    0    0    0  501 -0.00000000000E+00 -0.00000000000E+00 -0.51192372317E+02  0.51192372381E+02  0.25500000000E-02 0. -1.
    5000001    1    1    2    0    0  0.20267124241E+03 -0.23937395161E+02  0.40087400850E+03  0.47913839554E+03  0.16500000000E+03 0.  0.
   -5000001    1    1    2    0    0 -0.20267124241E+03  0.23937395161E+02  0.14156473278E+04  0.14397676855E+04  0.16500000000E+03 0.  0.
<mgrwt>
<rscale>  0 0.61842605E+03</rscale>
<asrwt>0</asrwt>
<pdfrwt beam="1">  1        2 0.26681629E+00 0.61842605E+03</pdfrwt>
<pdfrwt beam="2">  1       -2 0.73131948E-02 0.61842605E+03</pdfrwt>
<totfact> 0.10908361E+03</totfact>
</mgrwt>
</event>
<event>
 4    1  0.5312547E-005  0.3780556E+03  0.7818608E-02  0.1051655E+00
         -2   -1    0    0    0  501 -0.00000000000E+00  0.00000000000E+00  0.17585566889E+02  0.17585567074E+02  0.25500000000E-02 0.  1.
          2   -1    0    0  501    0  0.00000000000E+00 -0.00000000000E+00 -0.20318651249E+04  0.20318651249E+04  0.25500000000E-02 0. -1.
    5000001    1    1    2    0    0 -0.92228822009E+02  0.41105479772E-01 -0.10103144674E+04  0.10278455528E+04  0.16500000000E+03 0.  0.
   -5000001    1    1    2    0    0  0.92228822009E+02 -0.41105479772E-01 -0.10039650906E+04  0.10216051392E+04  0.16500000000E+03 0.  0.
<mgrwt>
<rscale>  0 0.37805555E+03</rscale>
<asrwt>0</asrwt>
<pdfrwt beam="1">  1        2 0.29026630E+00 0.37805555E+03</pdfrwt>
<pdfrwt beam="2">  1       -2 0.25122251E-02 0.37805555E+03</pdfrwt>
<totfact> 0.46999650E+03</totfact>
</mgrwt>
</event>
<event>
 4    1  0.5312547E-005  0.6239645E+03  0.7818608E-02  0.9856898E-01
          2   -1    0    0  501    0  0.00000000000E+00  0.00000000000E+00  0.15514162324E+04  0.15514162324E+04  0.25500000000E-02 0.  1.
         -2   -1    0    0    0  501 -0.00000000000E+00 -0.00000000000E+00 -0.62738108197E+02  0.62738108249E+02  0.25500000000E-02 0. -1.
    5000001    1    1    2    0    0  0.10506026904E+03 -0.20900790941E+03  0.10652225655E+04  0.11030168087E+04  0.16500000000E+03 0.  0.
   -5000001    1    1    2    0    0 -0.10506026904E+03  0.20900790941E+03  0.42345555873E+03  0.51113753193E+03  0.16500000000E+03 0.  0.
<mgrwt>
<rscale>  0 0.62396448E+03</rscale>
<asrwt>0</asrwt>
<pdfrwt beam="1">  1        2 0.22163092E+00 0.62396448E+03</pdfrwt>
<pdfrwt beam="2">  1       -2 0.89625856E-02 0.62396448E+03</pdfrwt>
<totfact> 0.11423681E+03</totfact>
</mgrwt>
</event>
<event>
 4    1  0.5312547E-005  0.7990370E+03  0.7818608E-02  0.9561412E-01
          2   -1    0    0  501    0  0.00000000000E+00  0.00000000000E+00  0.27707983627E+03  0.27707983629E+03  0.25500000000E-02 0.  1.
         -2   -1    0    0    0  501 -0.00000000000E+00 -0.00000000000E+00 -0.57606156487E+03  0.57606156487E+03  0.25500000000E-02 0. -1.
    5000001    1    1    2    0    0 -0.26185689875E+03  0.20075851442E+03 -0.31322729730E+03  0.48395181197E+03  0.16500000000E+03 0.  0.
   -5000001    1    1    2    0    0  0.26185689875E+03 -0.20075851442E+03  0.14245568708E+02  0.36918958919E+03  0.16500000000E+03 0.  0.
<mgrwt>
<rscale>  0 0.79903703E+03</rscale>
<asrwt>0</asrwt>
<pdfrwt beam="1">  1        2 0.39582834E-01 0.79903703E+03</pdfrwt>
<pdfrwt beam="2">  1       -2 0.82294509E-01 0.79903703E+03</pdfrwt>
<totfact> 0.17022884E+02</totfact>
</mgrwt>
</event>
<event>
 4    1  0.5312547E-005  0.6963300E+03  0.7818608E-02  0.9723529E-01
         -2   -1    0    0    0  501 -0.00000000000E+00  0.00000000000E+00  0.63949308473E+03  0.63949308473E+03  0.25500000000E-02 0. -1.
          2   -1    0    0  501    0  0.00000000000E+00 -0.00000000000E+00 -0.18955464196E+03  0.18955464198E+03  0.25500000000E-02 0.  1.
    5000001    1    1    2    0    0 -0.19217915687E+03  0.23746012882E+03  0.19406547841E+03  0.39775187118E+03  0.16500000000E+03 0.  0.
   -5000001    1    1    2    0    0  0.19217915687E+03 -0.23746012882E+03  0.25587296435E+03  0.43129585554E+03  0.16500000000E+03 0.  0.
<mgrwt>
<rscale>  0 0.69633004E+03</rscale>
<asrwt>0</asrwt>
<pdfrwt beam="1">  1        2 0.27079235E-01 0.69633004E+03</pdfrwt>
<pdfrwt beam="2">  1       -2 0.91356154E-01 0.69633004E+03</pdfrwt>
<totfact> 0.20614906E+02</totfact>
</mgrwt>
</event>
<event>
 4    1  0.5312547E-005  0.8541160E+03  0.7818608E-02  0.9484829E-01
         -2   -1    0    0    0  501 -0.00000000000E+00  0.00000000000E+00  0.15595015820E+03  0.15595015822E+03  0.25500000000E-02 0. -1.
          2   -1    0    0  501    0  0.00000000000E+00 -0.00000000000E+00 -0.11694666880E+04  0.11694666880E+04  0.25500000000E-02 0.  1.
    5000001    1    1    2    0    0  0.16427569104E+02  0.39229422799E+03 -0.55555708889E+03  0.70002378914E+03  0.16500000000E+03 0.  0.
   -5000001    1    1    2    0    0 -0.16427569104E+02 -0.39229422799E+03 -0.45795944095E+03  0.62539305712E+03  0.16500000000E+03 0.  0.
<mgrwt>
<rscale>  0 0.85411595E+03</rscale>
<asrwt>0</asrwt>
<pdfrwt beam="1">  1        2 0.16706666E+00 0.85411595E+03</pdfrwt>
<pdfrwt beam="2">  1       -2 0.22278595E-01 0.85411595E+03</pdfrwt>
<totfact> 0.39297124E+02</totfact>
</mgrwt>
</event>
<event>
 4    1  0.5312547E-005  0.4997213E+03  0.7818608E-02  0.1013852E+00
         -2   -1    0    0    0  501 -0.00000000000E+00  0.00000000000E+00  0.72855704348E+02  0.72855704393E+02  0.25500000000E-02 0. -1.
          2   -1    0    0  501    0  0.00000000000E+00 -0.00000000000E+00 -0.85690416293E+03  0.85690416293E+03  0.25500000000E-02 0.  1.
    5000001    1    1    2    0    0  0.11752784049E+03  0.11991347193E+03 -0.23621083332E+03  0.33348551965E+03  0.16500000000E+03 0.  0.
   -5000001    1    1    2    0    0 -0.11752784049E+03 -0.11991347193E+03 -0.54783762526E+03  0.59627434767E+03  0.16500000000E+03 0.  0.
<mgrwt>
<rscale>  0 0.49972135E+03</rscale>
<asrwt>0</asrwt>
<pdfrwt beam="1">  1        2 0.12241487E+00 0.49972135E+03</pdfrwt>
<pdfrwt beam="2">  1       -2 0.10407958E-01 0.49972135E+03</pdfrwt>
<totfact> 0.22323073E+03</totfact>
</mgrwt>
</event>
<event>
 4    1  0.5312547E-005  0.3925432E+03  0.7818608E-02  0.1046393E+00
         -2   -1    0    0    0  501 -0.00000000000E+00  0.00000000000E+00  0.11772093006E+02  0.11772093282E+02  0.25500000000E-02 0. -1.
          2   -1    0    0  501    0  0.00000000000E+00 -0.00000000000E+00 -0.32723606142E+04  0.32723606142E+04  0.25500000000E-02 0.  1.
    5000001    1    1    2    0    0 -0.87924877975E+02 -0.43386422677E+01 -0.11319602205E+04  0.11473049066E+04  0.16500000000E+03 0.  0.
   -5000001    1    1    2    0    0  0.87924877975E+02  0.43386422677E+01 -0.21286283008E+04  0.21368278009E+04  0.16500000000E+03 0.  0.
<mgrwt>
<rscale>  0 0.39254316E+03</rscale>
<asrwt>0</asrwt>
<pdfrwt beam="1">  1        2 0.46747951E+00 0.39254316E+03</pdfrwt>
<pdfrwt beam="2">  1       -2 0.16817297E-02 0.39254316E+03</pdfrwt>
<totfact> 0.19446659E+03</totfact>
</mgrwt>
</event>
<event>
 4    1  0.5312547E-005  0.5186668E+03  0.7818608E-02  0.1009018E+00
         -2   -1    0    0    0  501 -0.00000000000E+00  0.00000000000E+00  0.24800407623E+03  0.24800407624E+03  0.25500000000E-02 0. -1.
          2   -1    0    0  501    0  0.00000000000E+00 -0.00000000000E+00 -0.27118025230E+03  0.27118025231E+03  0.25500000000E-02 0.  1.
    5000001    1    1    2    0    0 -0.19586657566E+02 -0.16206796204E+03 -0.12737176676E+03  0.26476070034E+03  0.16500000000E+03 0.  0.
   -5000001    1    1    2    0    0  0.19586657566E+02  0.16206796204E+03  0.10419559069E+03  0.25442362822E+03  0.16500000000E+03 0.  0.
<mgrwt>
<rscale>  0 0.51866678E+03</rscale>
<asrwt>0</asrwt>
<pdfrwt beam="1">  1        2 0.38740036E-01 0.51866678E+03</pdfrwt>
<pdfrwt beam="2">  1       -2 0.35429154E-01 0.51866678E+03</pdfrwt>
<totfact> 0.10005198E+03</totfact>
</mgrwt>
</event>
<event>
 4    1  0.5312547E-005  0.3991151E+03  0.7818608E-02  0.1044087E+00
          2   -1    0    0  501    0  0.00000000000E+00  0.00000000000E+00  0.15595939029E+03  0.15595939031E+03  0.25500000000E-02 0.  1.
         -2   -1    0    0    0  501 -0.00000000000E+00 -0.00000000000E+00 -0.25534348258E+03  0.25534348259E+03  0.25500000000E-02 0. -1.
    5000001    1    1    2    0    0 -0.37406649082E+02 -0.10485589652E+03 -0.64418179675E+02  0.20920974715E+03  0.16500000000E+03 0.  0.
   -5000001    1    1    2    0    0  0.37406649082E+02  0.10485589652E+03 -0.34965912610E+02  0.20209312575E+03  0.16500000000E+03 0.  0.
<mgrwt>
<rscale>  0 0.39911509E+03</rscale>
<asrwt>0</asrwt>
<pdfrwt beam="1">  1        2 0.22279913E-01 0.39911509E+03</pdfrwt>
<pdfrwt beam="2">  1       -2 0.36477640E-01 0.39911509E+03</pdfrwt>
<totfact> 0.17559013E+03</totfact>
</mgrwt>
</event>
<event>
 4    1  0.5312547E-005  0.7468729E+03  0.7818608E-02  0.9640269E-01
         -2   -1    0    0    0  501 -0.00000000000E+00  0.00000000000E+00  0.26036644431E+03  0.26036644432E+03  0.25500000000E-02 0. -1.
          2   -1    0    0  501    0  0.00000000000E+00 -0.00000000000E+00 -0.53560970236E+03  0.53560970236E+03  0.25500000000E-02 0.  1.
    5000001    1    1    2    0    0  0.26587225230E+03 -0.30385627847E+02 -0.35241210589E+03  0.47226119182E+03  0.16500000000E+03 0.  0.
   -5000001    1    1    2    0    0 -0.26587225230E+03  0.30385627847E+02  0.77168847839E+02  0.32371495486E+03  0.16500000000E+03 0.  0.
<mgrwt>
<rscale>  0 0.74687293E+03</rscale>
<asrwt>0</asrwt>
<pdfrwt beam="1">  1        2 0.76515672E-01 0.74687293E+03</pdfrwt>
<pdfrwt beam="2">  1       -2 0.37195206E-01 0.74687293E+03</pdfrwt>
<totfact> 0.42481355E+02</totfact>
</mgrwt>
</event>
<event>
 4    1  0.5312547E-005  0.3402073E+03  0.7818608E-02  0.1066708E+00
          2   -1    0    0  501    0  0.00000000000E+00  0.00000000000E+00  0.13754219140E+03  0.13754219142E+03  0.25500000000E-02 0.  1.
         -2   -1    0    0    0  501 -0.00000000000E+00 -0.00000000000E+00 -0.21037367508E+03  0.21037367509E+03  0.25500000000E-02 0. -1.
    5000001    1    1    2    0    0  0.39991609446E+02 -0.40483922784E+01 -0.46359115060E+02  0.17603944403E+03  0.16500000000E+03 0.  0.
   -5000001    1    1    2    0    0 -0.39991609446E+02  0.40483922784E+01 -0.26472368619E+02  0.17187642249E+03  0.16500000000E+03 0.  0.
<mgrwt>
<rscale>  0 0.34020733E+03</rscale>
<asrwt>0</asrwt>
<pdfrwt beam="1">  1        2 0.19648885E-01 0.34020733E+03</pdfrwt>
<pdfrwt beam="2">  1       -2 0.30053382E-01 0.34020733E+03</pdfrwt>
<totfact> 0.28999774E+03</totfact>
</mgrwt>
</event>
<event>
 4    1  0.5312547E-005  0.5699904E+03  0.7818608E-02  0.9969700E-01
         -2   -1    0    0    0  501 -0.00000000000E+00  0.00000000000E+00  0.13850321840E+03  0.13850321842E+03  0.25500000000E-02 0. -1.
          2   -1    0    0  501    0  0.00000000000E+00 -0.00000000000E+00 -0.58642876260E+03  0.58642876261E+03  0.25500000000E-02 0.  1.
    5000001    1    1    2    0    0  0.80738939415E+02  0.21785435098E+03 -0.22935516109E+03  0.36579787383E+03  0.16500000000E+03 0.  0.
   -5000001    1    1    2    0    0 -0.80738939415E+02 -0.21785435098E+03 -0.21857038311E+03  0.35913410720E+03  0.16500000000E+03 0.  0.
<mgrwt>
<rscale>  0 0.56999042E+03</rscale>
<asrwt>0</asrwt>
<pdfrwt beam="1">  1        2 0.83775536E-01 0.56999042E+03</pdfrwt>
<pdfrwt beam="2">  1       -2 0.19786174E-01 0.56999042E+03</pdfrwt>
<totfact> 0.12131672E+03</totfact>
</mgrwt>
</event>
<event>
 4    1  0.5312547E-005  0.4927717E+03  0.7818608E-02  0.1015683E+00
         -2   -1    0    0    0  501 -0.00000000000E+00  0.00000000000E+00  0.26861293322E+02  0.26861293443E+02  0.25500000000E-02 0. -1.
          2   -1    0    0  501    0  0.00000000000E+00 -0.00000000000E+00 -0.22599798749E+04  0.22599798749E+04  0.25500000000E-02 0.  1.
    5000001    1    1    2    0    0 -0.12870769932E+03  0.12336688212E+03 -0.92544492914E+03  0.95679589064E+03  0.16500000000E+03 0.  0.
   -5000001    1    1    2    0    0  0.12870769932E+03 -0.12336688212E+03 -0.13076736524E+04  0.13300452777E+04  0.16500000000E+03 0.  0.
<mgrwt>
<rscale>  0 0.49277168E+03</rscale>
<asrwt>0</asrwt>
<pdfrwt beam="1">  1        2 0.32285415E+00 0.49277168E+03</pdfrwt>
<pdfrwt beam="2">  1       -2 0.38373291E-02 0.49277168E+03</pdfrwt>
<totfact> 0.19016304E+03</totfact>
</mgrwt>
</event>
<event>
 4    1  0.5312547E-005  0.8006055E+03  0.7818608E-02  0.9559141E-01
          2   -1    0    0  501    0  0.00000000000E+00  0.00000000000E+00  0.17905054003E+04  0.17905054003E+04  0.25500000000E-02 0.  1.
         -2   -1    0    0    0  501 -0.00000000000E+00 -0.00000000000E+00 -0.89495565934E+02  0.89495565970E+02  0.25500000000E-02 0. -1.
    5000001    1    1    2    0    0 -0.29293446079E+03 -0.75949198979E+02  0.13285194138E+04  0.13725041756E+04  0.16500000000E+03 0.  0.
   -5000001    1    1    2    0    0  0.29293446079E+03  0.75949198979E+02  0.37249042056E+03  0.50749679068E+03  0.16500000000E+03 0.  0.
<mgrwt>
<rscale>  0 0.80060551E+03</rscale>
<asrwt>0</asrwt>
<pdfrwt beam="1">  1        2 0.25578650E+00 0.80060551E+03</pdfrwt>
<pdfrwt beam="2">  1       -2 0.12785080E-01 0.80060551E+03</pdfrwt>
<totfact> 0.47734610E+02</totfact>
</mgrwt>
</event>
<event>
 4    1  0.5312547E-005  0.5393499E+03  0.7818608E-02  0.1003989E+00
         -2   -1    0    0    0  501 -0.00000000000E+00  0.00000000000E+00  0.31375942068E+03  0.31375942069E+03  0.25500000000E-02 0. -1.
          2   -1    0    0  501    0  0.00000000000E+00 -0.00000000000E+00 -0.23178455963E+03  0.23178455965E+03  0.25500000000E-02 0.  1.
    5000001    1    1    2    0    0  0.86160219376E+01  0.20967762864E+03  0.23301296177E+01  0.26696324333E+03  0.16500000000E+03 0.  0.
   -5000001    1    1    2    0    0 -0.86160219376E+01 -0.20967762864E+03  0.79644731426E+02  0.27858073700E+03  0.16500000000E+03 0.  0.
<mgrwt>
<rscale>  0 0.53934994E+03</rscale>
<asrwt>0</asrwt>
<pdfrwt beam="1">  1        2 0.33112080E-01 0.53934994E+03</pdfrwt>
<pdfrwt beam="2">  1       -2 0.44822775E-01 0.53934994E+03</pdfrwt>
<totfact> 0.75511285E+02</totfact>
</mgrwt>
</event>
<event>
 4    1  0.5312547E-005  0.7739740E+03  0.7818608E-02  0.9598472E-01
         -2   -1    0    0    0  501 -0.00000000000E+00  0.00000000000E+00  0.44918370635E+02  0.44918370707E+02  0.25500000000E-02 0. -1.
          2   -1    0    0  501    0  0.00000000000E+00 -0.00000000000E+00 -0.33340244698E+04  0.33340244698E+04  0.25500000000E-02 0.  1.
    5000001    1    1    2    0    0 -0.51185126690E+02 -0.28931631150E+03 -0.24753011038E+04  0.24981321822E+04  0.16500000000E+03 0.  0.
   -5000001    1    1    2    0    0  0.51185126690E+02  0.28931631150E+03 -0.81380499534E+03  0.88081065828E+03  0.16500000000E+03 0.  0.
<mgrwt>
<rscale>  0 0.77397402E+03</rscale>
<asrwt>0</asrwt>
<pdfrwt beam="1">  1        2 0.47628905E+00 0.77397402E+03</pdfrwt>
<pdfrwt beam="2">  1       -2 0.64169122E-02 0.77397402E+03</pdfrwt>
<totfact> 0.22340660E+02</totfact>
</mgrwt>
</event>
<event>
 4    1  0.5312547E-005  0.6350813E+03  0.7818608E-02  0.9835183E-01
          2   -1    0    0  501    0  0.00000000000E+00  0.00000000000E+00  0.20752791951E+04  0.20752791951E+04  0.25500000000E-02 0.  1.
         -2   -1    0    0    0  501 -0.00000000000E+00 -0.00000000000E+00 -0.48587221925E+02  0.48587221991E+02  0.25500000000E-02 0. -1.
    5000001    1    1    2    0    0 -0.15026258117E+03 -0.19644388559E+03  0.64037649619E+03  0.70602839912E+03  0.16500000000E+03 0.  0.
   -5000001    1    1    2    0    0  0.15026258117E+03  0.19644388559E+03  0.13863154770E+04  0.14178380180E+04  0.16500000000E+03 0.  0.
<mgrwt>
<rscale>  0 0.63508126E+03</rscale>
<asrwt>0</asrwt>
<pdfrwt beam="1">  1        2 0.29646834E+00 0.63508126E+03</pdfrwt>
<pdfrwt beam="2">  1       -2 0.69410345E-02 0.63508126E+03</pdfrwt>
<totfact> 0.93074587E+02</totfact>
</mgrwt>
</event>
<event>
 4    1  0.5312547E-005  0.7153929E+03  0.7818608E-02  0.9691264E-01
          2   -1    0    0  501    0  0.00000000000E+00  0.00000000000E+00  0.14740436887E+04  0.14740436887E+04  0.25500000000E-02 0.  1.
         -2   -1    0    0    0  501 -0.00000000000E+00 -0.00000000000E+00 -0.86799832512E+02  0.86799832550E+02  0.25500000000E-02 0. -1.
    5000001    1    1    2    0    0 -0.28321907591E+03 -0.11781485867E+03  0.51599133143E+03  0.62254754035E+03  0.16500000000E+03 0.  0.
   -5000001    1    1    2    0    0  0.28321907591E+03  0.11781485867E+03  0.87125252473E+03  0.93829598088E+03  0.16500000000E+03 0.  0.
<mgrwt>
<rscale>  0 0.71539289E+03</rscale>
<asrwt>0</asrwt>
<pdfrwt beam="1">  1        2 0.21057766E+00 0.71539289E+03</pdfrwt>
<pdfrwt beam="2">  1       -2 0.12399977E-01 0.71539289E+03</pdfrwt>
<totfact> 0.73522882E+02</totfact>
</mgrwt>
</event>
<event>
 4    1  0.5312547E-005  0.4535293E+03  0.7818608E-02  0.1026675E+00
         -2   -1    0    0    0  501 -0.00000000000E+00  0.00000000000E+00  0.13519113930E+03  0.13519113932E+03  0.25500000000E-02 0. -1.
          2   -1    0    0  501    0  0.00000000000E+00 -0.00000000000E+00 -0.38036661534E+03  0.38036661535E+03  0.25500000000E-02 0.  1.
    5000001    1    1    2    0    0 -0.13621247058E+03 -0.67591397901E+02 -0.15985505645E+03  0.27550149416E+03  0.16500000000E+03 0.  0.
   -5000001    1    1    2    0    0  0.13621247058E+03  0.67591397901E+02 -0.85320419586E+02  0.24005626051E+03  0.16500000000E+03 0.  0.
<mgrwt>
<rscale>  0 0.45352925E+03</rscale>
<asrwt>0</asrwt>
<pdfrwt beam="1">  1        2 0.54338088E-01 0.45352925E+03</pdfrwt>
<pdfrwt beam="2">  1       -2 0.19313020E-01 0.45352925E+03</pdfrwt>
<totfact> 0.20590643E+03</totfact>
</mgrwt>
</event>
<event>
 4    1  0.5312547E-005  0.3862374E+03  0.7818608E-02  0.1048652E+00
         -2   -1    0    0    0  501 -0.00000000000E+00  0.00000000000E+00  0.73635728445E+02  0.73635728490E+02  0.25500000000E-02 0. -1.
          2   -1    0    0  501    0  0.00000000000E+00 -0.00000000000E+00 -0.50647728898E+03  0.50647728899E+03  0.25500000000E-02 0.  1.
    5000001    1    1    2    0    0  0.79818612788E+01  0.25236424612E+02 -0.71038845755E+02  0.18158222612E+03  0.16500000000E+03 0.  0.
   -5000001    1    1    2    0    0 -0.79818612788E+01 -0.25236424612E+02 -0.36180271478E+03  0.39853079136E+03  0.16500000000E+03 0.  0.
<mgrwt>
<rscale>  0 0.38623736E+03</rscale>
<asrwt>0</asrwt>
<pdfrwt beam="1">  1        2 0.72353896E-01 0.38623736E+03</pdfrwt>
<pdfrwt beam="2">  1       -2 0.10519390E-01 0.38623736E+03</pdfrwt>
<totfact> 0.41067449E+03</totfact>
</mgrwt>
</event>
<event>
 4    1  0.5312547E-005  0.4202811E+03  0.7818608E-02  0.1036975E+00
          2   -1    0    0  501    0  0.00000000000E+00  0.00000000000E+00  0.11099285833E+04  0.11099285833E+04  0.25500000000E-02 0.  1.
         -2   -1    0    0    0  501 -0.00000000000E+00 -0.00000000000E+00 -0.39785480440E+02  0.39785480521E+02  0.25500000000E-02 0. -1.
    5000001    1    1    2    0    0 -0.49738547492E+02  0.10298140622E+03  0.36522398174E+03  0.41676450182E+03  0.16500000000E+03 0.  0.
   -5000001    1    1    2    0    0  0.49738547492E+02 -0.10298140622E+03  0.70491912112E+03  0.73294956201E+03  0.16500000000E+03 0.  0.
<mgrwt>
<rscale>  0 0.42028106E+03</rscale>
<asrwt>0</asrwt>
<pdfrwt beam="1">  1        2 0.15856121E+00 0.42028106E+03</pdfrwt>
<pdfrwt beam="2">  1       -2 0.56836405E-02 0.42028106E+03</pdfrwt>
<totfact> 0.40666617E+03</totfact>
</mgrwt>
</event>
<event>
 4    1  0.5312547E-005  0.6404909E+03  0.7818608E-02  0.9824788E-01
         -2   -1    0    0    0  501 -0.00000000000E+00  0.00000000000E+00  0.10739877418E+03  0.10739877421E+03  0.25500000000E-02 0. -1.
          2   -1    0    0  501    0  0.00000000000E+00 -0.00000000000E+00 -0.95491902309E+03  0.95491902309E+03  0.25500000000E-02 0.  1.
    5000001    1    1    2    0    0 -0.13213197606E+03  0.10521352677E+03 -0.78258303886E+03  0.81742887032E+03  0.16500000000E+03 0.  0.
   -5000001    1    1    2    0    0  0.13213197606E+03 -0.10521352677E+03 -0.64937210043E+02  0.24488892699E+03  0.16500000000E+03 0.  0.
<mgrwt>
<rscale>  0 0.64049085E+03</rscale>
<asrwt>0</asrwt>
<pdfrwt beam="1">  1        2 0.13641700E+00 0.64049085E+03</pdfrwt>
<pdfrwt beam="2">  1       -2 0.15342683E-01 0.64049085E+03</pdfrwt>
<totfact> 0.10148711E+03</totfact>
</mgrwt>
</event>
<event>
 4    1  0.5312547E-005  0.1223488E+04  0.7818608E-02  0.9092543E-01
         -2   -1    0    0    0  501 -0.00000000000E+00  0.00000000000E+00  0.17406923457E+03  0.17406923458E+03  0.25500000000E-02 0. -1.
          2   -1    0    0  501    0  0.00000000000E+00 -0.00000000000E+00 -0.21498949409E+04  0.21498949409E+04  0.25500000000E-02 0.  1.
    5000001    1    1    2    0    0  0.77296383267E+02 -0.44591598370E+03 -0.27166392898E+03  0.55302991392E+03  0.16500000000E+03 0.  0.
   -5000001    1    1    2    0    0 -0.77296383267E+02  0.44591598370E+03 -0.17041617773E+04  0.17709342615E+04  0.16500000000E+03 0.  0.
<mgrwt>
<rscale>  0 0.12234877E+04</rscale>
<asrwt>0</asrwt>
<pdfrwt beam="1">  1        2 0.30712783E+00 0.12234877E+04</pdfrwt>
<pdfrwt beam="2">  1       -2 0.24867035E-01 0.12234877E+04</pdfrwt>
<totfact> 0.95951211E+01</totfact>
</mgrwt>
</event>
<event>
 4    1  0.5312547E-005  0.1133426E+04  0.7818608E-02  0.9173212E-01
          2   -1    0    0  501    0  0.00000000000E+00  0.00000000000E+00  0.11057387603E+04  0.11057387603E+04  0.25500000000E-02 0.  1.
         -2   -1    0    0    0  501 -0.00000000000E+00 -0.00000000000E+00 -0.29045142865E+03  0.29045142866E+03  0.25500000000E-02 0. -1.
    5000001    1    1    2    0    0 -0.40205823475E+03 -0.15308404036E+03  0.12270330630E+01  0.46077332079E+03  0.16500000000E+03 0.  0.
   -5000001    1    1    2    0    0  0.40205823475E+03  0.15308404036E+03  0.81406029856E+03  0.93541686815E+03  0.16500000000E+03 0.  0.
<mgrwt>
<rscale>  0 0.11334256E+04</rscale>
<asrwt>0</asrwt>
<pdfrwt beam="1">  1        2 0.15796268E+00 0.11334256E+04</pdfrwt>
<pdfrwt beam="2">  1       -2 0.41493060E-01 0.11334256E+04</pdfrwt>
<totfact> 0.13206017E+02</totfact>
</mgrwt>
</event>
<event>
 4    1  0.5312547E-005  0.8076328E+03  0.7818608E-02  0.9549034E-01
         -2   -1    0    0    0  501 -0.00000000000E+00  0.00000000000E+00  0.82660491780E+03  0.82660491781E+03  0.25500000000E-02 0. -1.
          2   -1    0    0  501    0  0.00000000000E+00 -0.00000000000E+00 -0.19727402358E+03  0.19727402360E+03  0.25500000000E-02 0.  1.
    5000001    1    1    2    0    0  0.31316227977E+03  0.14964979066E+03  0.47187196405E+03  0.60856702488E+03  0.16500000000E+03 0.  0.
   -5000001    1    1    2    0    0 -0.31316227977E+03 -0.14964979066E+03  0.15745893017E+03  0.41531191652E+03  0.16500000000E+03 0.  0.
<mgrwt>
<rscale>  0 0.80763278E+03</rscale>
<asrwt>0</asrwt>
<pdfrwt beam="1">  1        2 0.28182003E-01 0.80763278E+03</pdfrwt>
<pdfrwt beam="2">  1       -2 0.11808642E+00 0.80763278E+03</pdfrwt>
<totfact> 0.10632831E+02</totfact>
</mgrwt>
</event>
<event>
 4    1  0.5312547E-005  0.3434227E+03  0.7818608E-02  0.1065347E+00
         -2   -1    0    0    0  501 -0.00000000000E+00  0.00000000000E+00  0.19660281676E+02  0.19660281841E+02  0.25500000000E-02 0. -1.
          2   -1    0    0  501    0  0.00000000000E+00 -0.00000000000E+00 -0.14997131239E+04  0.14997131239E+04  0.25500000000E-02 0.  1.
    5000001    1    1    2    0    0 -0.46168141558E+02  0.54087037944E+01 -0.78405367412E+03  0.80257455434E+03  0.16500000000E+03 0.  0.
   -5000001    1    1    2    0    0  0.46168141558E+02 -0.54087037944E+01 -0.69599916806E+03  0.71679885136E+03  0.16500000000E+03 0.  0.
<mgrwt>
<rscale>  0 0.34342267E+03</rscale>
<asrwt>0</asrwt>
<pdfrwt beam="1">  1        2 0.21424466E+00 0.34342267E+03</pdfrwt>
<pdfrwt beam="2">  1       -2 0.28086126E-02 0.34342267E+03</pdfrwt>
<totfact> 0.73212400E+03</totfact>
</mgrwt>
</event>
<event>
 4    1  0.5312547E-005  0.3477145E+03  0.7818608E-02  0.1063557E+00
         -2   -1    0    0    0  501 -0.00000000000E+00  0.00000000000E+00  0.17562855335E+02  0.17562855520E+02  0.25500000000E-02 0.  1.
          2   -1    0    0  501    0  0.00000000000E+00 -0.00000000000E+00 -0.17210383736E+04  0.17210383736E+04  0.25500000000E-02 0. -1.
    5000001    1    1    2    0    0 -0.25595493043E+02 -0.48437782430E+02 -0.85168442412E+03  0.86924835710E+03  0.16500000000E+03 0.  0.
   -5000001    1    1    2    0    0  0.25595493043E+02  0.48437782430E+02 -0.85179109414E+03  0.86935287202E+03  0.16500000000E+03 0.  0.
<mgrwt>
<rscale>  0 0.34771453E+03</rscale>
<asrwt>0</asrwt>
<pdfrwt beam="1">  1        2 0.24586252E+00 0.34771453E+03</pdfrwt>
<pdfrwt beam="2">  1       -2 0.25089804E-02 0.34771453E+03</pdfrwt>
<totfact> 0.67067519E+03</totfact>
</mgrwt>
</event>
<event>
 4    1  0.5312547E-005  0.6664741E+03  0.7818608E-02  0.9776349E-01
          2   -1    0    0  501    0  0.00000000000E+00  0.00000000000E+00  0.14950600440E+04  0.14950600440E+04  0.25500000000E-02 0.  1.
         -2   -1    0    0    0  501 -0.00000000000E+00 -0.00000000000E+00 -0.74275890924E+02  0.74275890968E+02  0.25500000000E-02 0. -1.
    5000001    1    1    2    0    0 -0.15070170305E+02 -0.20347351122E+03  0.22671599835E+03  0.34677618677E+03  0.16500000000E+03 0.  0.
   -5000001    1    1    2    0    0  0.15070170305E+02  0.20347351122E+03  0.11940681547E+04  0.12225597482E+04  0.16500000000E+03 0.  0.
<mgrwt>
<rscale>  0 0.66647406E+03</rscale>
<asrwt>0</asrwt>
<pdfrwt beam="1">  1        2 0.21358000E+00 0.66647406E+03</pdfrwt>
<pdfrwt beam="2">  1       -2 0.10610842E-01 0.66647406E+03</pdfrwt>
<totfact> 0.92810253E+02</totfact>
</mgrwt>
</event>
<event>
 4    1  0.5312547E-005  0.4034154E+03  0.7818608E-02  0.1042603E+00
         -2   -1    0    0    0  501 -0.00000000000E+00  0.00000000000E+00  0.39953277978E+02  0.39953278060E+02  0.25500000000E-02 0. -1.
          2   -1    0    0  501    0  0.00000000000E+00 -0.00000000000E+00 -0.10183393772E+04  0.10183393772E+04  0.25500000000E-02 0.  1.
    5000001    1    1    2    0    0  0.10188206053E+03  0.55499375115E+02 -0.48675834233E+03  0.52689545331E+03  0.16500000000E+03 0.  0.
   -5000001    1    1    2    0    0 -0.10188206053E+03 -0.55499375115E+02 -0.49162775693E+03  0.53139720199E+03  0.16500000000E+03 0.  0.
<mgrwt>
<rscale>  0 0.40341540E+03</rscale>
<asrwt>0</asrwt>
<pdfrwt beam="1">  1        2 0.14547704E+00 0.40341540E+03</pdfrwt>
<pdfrwt beam="2">  1       -2 0.57076118E-02 0.40341540E+03</pdfrwt>
<totfact> 0.45664927E+03</totfact>
</mgrwt>
</event>
<event>
 4    1  0.5312547E-005  0.4983414E+03  0.7818608E-02  0.1014213E+00
         -2   -1    0    0    0  501 -0.00000000000E+00  0.00000000000E+00  0.41775332643E+02  0.41775332721E+02  0.25500000000E-02 0. -1.
          2   -1    0    0  501    0  0.00000000000E+00 -0.00000000000E+00 -0.14861887765E+04  0.14861887765E+04  0.25500000000E-02 0.  1.
    5000001    1    1    2    0    0 -0.16719481223E+03  0.50462435559E+02 -0.51974041619E+03  0.57258681688E+03  0.16500000000E+03 0.  0.
   -5000001    1    1    2    0    0  0.16719481223E+03 -0.50462435559E+02 -0.92467302769E+03  0.95537729237E+03  0.16500000000E+03 0.  0.
<mgrwt>
<rscale>  0 0.49834137E+03</rscale>
<asrwt>0</asrwt>
<pdfrwt beam="1">  1        2 0.21231265E+00 0.49834137E+03</pdfrwt>
<pdfrwt beam="2">  1       -2 0.59679056E-02 0.49834137E+03</pdfrwt>
<totfact> 0.23593993E+03</totfact>
</mgrwt>
</event>
<event>
 4    1  0.5312547E-005  0.6495701E+03  0.7818608E-02  0.9807586E-01
         -2   -1    0    0    0  501 -0.00000000000E+00  0.00000000000E+00  0.16540455304E+03  0.16540455306E+03  0.25500000000E-02 0. -1.
          2   -1    0    0  501    0  0.00000000000E+00 -0.00000000000E+00 -0.63774144029E+03  0.63774144030E+03  0.25500000000E-02 0.  1.
    5000001    1    1    2    0    0  0.21091631200E+03 -0.98882497182E+02 -0.42770250332E+03  0.51421578181E+03  0.16500000000E+03 0.  0.
   -5000001    1    1    2    0    0 -0.21091631200E+03  0.98882497182E+02 -0.44634383940E+02  0.28893021155E+03  0.16500000000E+03 0.  0.
<mgrwt>
<rscale>  0 0.64957013E+03</rscale>
<asrwt>0</asrwt>
<pdfrwt beam="1">  1        2 0.91105918E-01 0.64957013E+03</pdfrwt>
<pdfrwt beam="2">  1       -2 0.23629222E-01 0.64957013E+03</pdfrwt>
<totfact> 0.80288281E+02</totfact>
</mgrwt>
</event>
<event>
 4    1  0.5312547E-005  0.1102257E+04  0.7818608E-02  0.9202995E-01
          2   -1    0    0  501    0  0.00000000000E+00  0.00000000000E+00  0.42964590064E+03  0.42964590064E+03  0.25500000000E-02 0.  1.
         -2   -1    0    0    0  501 -0.00000000000E+00 -0.00000000000E+00 -0.70695987228E+03  0.70695987229E+03  0.25500000000E-02 0. -1.
    5000001    1    1    2    0    0 -0.42665339927E+03  0.21377957072E+03 -0.36640759134E+03  0.62387046008E+03  0.16500000000E+03 0.  0.
   -5000001    1    1    2    0    0  0.42665339927E+03 -0.21377957072E+03  0.89093619697E+02  0.51273531285E+03  0.16500000000E+03 0.  0.
<mgrwt>
<rscale>  0 0.11022566E+04</rscale>
<asrwt>0</asrwt>
<pdfrwt beam="1">  1        2 0.61377986E-01 0.11022566E+04</pdfrwt>
<pdfrwt beam="2">  1       -2 0.10099427E+00 0.11022566E+04</pdfrwt>
<totfact> 0.63968157E+01</totfact>
</mgrwt>
</event>
<event>
 4    1  0.5312547E-005  0.5868527E+03  0.7818608E-02  0.9933064E-01
          2   -1    0    0  501    0  0.00000000000E+00  0.00000000000E+00  0.31793532733E+04  0.31793532733E+04  0.25500000000E-02 0.  1.
         -2   -1    0    0    0  501 -0.00000000000E+00 -0.00000000000E+00 -0.27080668942E+02  0.27080669062E+02  0.25500000000E-02 0. -1.
    5000001    1    1    2    0    0  0.20100943330E+03  0.26988795341E+02  0.84838978584E+03  0.88776315314E+03  0.16500000000E+03 0.  0.
   -5000001    1    1    2    0    0 -0.20100943330E+03 -0.26988795341E+02  0.23038828185E+04  0.23186707892E+04  0.16500000000E+03 0.  0.
<mgrwt>
<rscale>  0 0.58685267E+03</rscale>
<asrwt>0</asrwt>
<pdfrwt beam="1">  1        2 0.45419294E+00 0.58685267E+03</pdfrwt>
<pdfrwt beam="2">  1       -2 0.38686703E-02 0.58685267E+03</pdfrwt>
<totfact> 0.61312827E+02</totfact>
</mgrwt>
</event>
<event>
 4    1  0.5312547E-005  0.4680561E+03  0.7818608E-02  0.1022470E+00
          2   -1    0    0  501    0  0.00000000000E+00  0.00000000000E+00  0.44749764149E+03  0.44749764149E+03  0.25500000000E-02 0.  1.
         -2   -1    0    0    0  501 -0.00000000000E+00 -0.00000000000E+00 -0.12238977984E+03  0.12238977986E+03  0.25500000000E-02 0. -1.
    5000001    1    1    2    0    0 -0.13886487308E+03  0.54347493832E+02  0.25125259714E+03  0.33554429012E+03  0.16500000000E+03 0.  0.
   -5000001    1    1    2    0    0  0.13886487308E+03 -0.54347493832E+02  0.73855264506E+02  0.23434313124E+03  0.16500000000E+03 0.  0.
<mgrwt>
<rscale>  0 0.46805614E+03</rscale>
<asrwt>0</asrwt>
<pdfrwt beam="1">  1        2 0.63928236E-01 0.46805614E+03</pdfrwt>
<pdfrwt beam="2">  1       -2 0.17484254E-01 0.46805614E+03</pdfrwt>
<totfact> 0.20407591E+03</totfact>
</mgrwt>
</event>
<event>
 4    1  0.5312547E-005  0.7236944E+03  0.7818608E-02  0.9677548E-01
         -2   -1    0    0    0  501 -0.00000000000E+00  0.00000000000E+00  0.19092894531E+03  0.19092894532E+03  0.25500000000E-02 0. -1.
          2   -1    0    0  501    0  0.00000000000E+00 -0.00000000000E+00 -0.68577024624E+03  0.68577024624E+03  0.25500000000E-02 0.  1.
    5000001    1    1    2    0    0 -0.12525632658E+03  0.29627463954E+03 -0.22863070226E+03  0.42774385723E+03  0.16500000000E+03 0.  0.
   -5000001    1    1    2    0    0  0.12525632658E+03 -0.29627463954E+03 -0.26621059868E+03  0.44895533434E+03  0.16500000000E+03 0.  0.
<mgrwt>
<rscale>  0 0.72369438E+03</rscale>
<asrwt>0</asrwt>
<pdfrwt beam="1">  1        2 0.97967177E-01 0.72369438E+03</pdfrwt>
<pdfrwt beam="2">  1       -2 0.27275564E-01 0.72369438E+03</pdfrwt>
<totfact> 0.56658265E+02</totfact>
</mgrwt>
</event>
<event>
 4    1  0.5312547E-005  0.5186350E+03  0.7818608E-02  0.1009026E+00
          2   -1    0    0  501    0  0.00000000000E+00  0.00000000000E+00  0.43766320041E+03  0.43766320042E+03  0.25500000000E-02 0.  1.
         -2   -1    0    0    0  501 -0.00000000000E+00 -0.00000000000E+00 -0.15364683055E+03  0.15364683057E+03  0.25500000000E-02 0. -1.
    5000001    1    1    2    0    0 -0.35783566683E+02 -0.18041935567E+03  0.23170192451E+03  0.33873646005E+03  0.16500000000E+03 0.  0.
   -5000001    1    1    2    0    0  0.35783566683E+02  0.18041935567E+03  0.52314445359E+02  0.25257357094E+03  0.16500000000E+03 0.  0.
<mgrwt>
<rscale>  0 0.51863499E+03</rscale>
<asrwt>0</asrwt>
<pdfrwt beam="1">  1        2 0.62523315E-01 0.51863499E+03</pdfrwt>
<pdfrwt beam="2">  1       -2 0.21949547E-01 0.51863499E+03</pdfrwt>
<totfact> 0.14121587E+03</totfact>
</mgrwt>
</event>
<event>
 4    1  0.5312547E-005  0.5460891E+03  0.7818608E-02  0.1002403E+00
         -2   -1    0    0    0  501 -0.00000000000E+00  0.00000000000E+00  0.57191194419E+02  0.57191194476E+02  0.25500000000E-02 0. -1.
          2   -1    0    0  501    0  0.00000000000E+00 -0.00000000000E+00 -0.13035804302E+04  0.13035804302E+04  0.25500000000E-02 0.  1.
    5000001    1    1    2    0    0 -0.12692027883E+03 -0.17462911226E+03 -0.69025443350E+03  0.74180878061E+03  0.16500000000E+03 0.  0.
   -5000001    1    1    2    0    0  0.12692027883E+03  0.17462911226E+03 -0.55613480230E+03  0.61896284408E+03  0.16500000000E+03 0.  0.
<mgrwt>
<rscale>  0 0.54608908E+03</rscale>
<asrwt>0</asrwt>
<pdfrwt beam="1">  1        2 0.18622576E+00 0.54608908E+03</pdfrwt>
<pdfrwt beam="2">  1       -2 0.81701715E-02 0.54608908E+03</pdfrwt>
<totfact> 0.17953228E+03</totfact>
</mgrwt>
</event>
<event>
 4    1  0.5312547E-005  0.3877993E+03  0.7818608E-02  0.1048088E+00
         -2   -1    0    0    0  501 -0.00000000000E+00  0.00000000000E+00  0.13455564854E+02  0.13455565095E+02  0.25500000000E-02 0. -1.
          2   -1    0    0  501    0  0.00000000000E+00 -0.00000000000E+00 -0.27941656288E+04  0.27941656288E+04  0.25500000000E-02 0.  1.
    5000001    1    1    2    0    0 -0.65986439592E+02  0.50216061793E+02 -0.18184404991E+04  0.18277928525E+04  0.16500000000E+03 0.  0.
   -5000001    1    1    2    0    0  0.65986439592E+02 -0.50216061793E+02 -0.96226956484E+03  0.97982834134E+03  0.16500000000E+03 0.  0.
<mgrwt>
<rscale>  0 0.38779931E+03</rscale>
<asrwt>0</asrwt>
<pdfrwt beam="1">  1        2 0.39916615E+00 0.38779931E+03</pdfrwt>
<pdfrwt beam="2">  1       -2 0.19222254E-02 0.38779931E+03</pdfrwt>
<totfact> 0.28916606E+03</totfact>
</mgrwt>
</event>
<event>
 4    1  0.5312547E-005  0.6272771E+03  0.7818608E-02  0.9850377E-01
         -2   -1    0    0    0  501 -0.00000000000E+00  0.00000000000E+00  0.13751435285E+03  0.13751435287E+03  0.25500000000E-02 0. -1.
          2   -1    0    0  501    0  0.00000000000E+00 -0.00000000000E+00 -0.71533726006E+03  0.71533726007E+03  0.25500000000E-02 0.  1.
    5000001    1    1    2    0    0  0.16713332713E+03 -0.11647918984E+03 -0.52299802889E+03  0.58502383621E+03  0.16500000000E+03 0.  0.
   -5000001    1    1    2    0    0 -0.16713332713E+03  0.11647918984E+03 -0.54824878321E+02  0.26782777673E+03  0.16500000000E+03 0.  0.
<mgrwt>
<rscale>  0 0.62727710E+03</rscale>
<asrwt>0</asrwt>
<pdfrwt beam="1">  1        2 0.10219103E+00 0.62727710E+03</pdfrwt>
<pdfrwt beam="2">  1       -2 0.19644908E-01 0.62727710E+03</pdfrwt>
<totfact> 0.96721799E+02</totfact>
</mgrwt>
</event>
<event>
 4    1  0.5312547E-005  0.3969248E+03  0.7818608E-02  0.1044850E+00
          2   -1    0    0  501    0  0.00000000000E+00  0.00000000000E+00  0.29924917051E+02  0.29924917160E+02  0.25500000000E-02 0.  1.
         -2   -1    0    0    0  501 -0.00000000000E+00 -0.00000000000E+00 -0.13162048650E+04  0.13162048650E+04  0.25500000000E-02 0. -1.
    5000001    1    1    2    0    0 -0.10867942334E+03 -0.55033436428E+01 -0.70388459526E+03  0.73110876571E+03  0.16500000000E+03 0.  0.
   -5000001    1    1    2    0    0  0.10867942334E+03  0.55033436428E+01 -0.58239535268E+03  0.61502101644E+03  0.16500000000E+03 0.  0.
<mgrwt>
<rscale>  0 0.39692479E+03</rscale>
<asrwt>0</asrwt>
<pdfrwt beam="1">  1        2 0.42749890E-02 0.39692479E+03</pdfrwt>
<pdfrwt beam="2">  1       -2 0.18802923E+00 0.39692479E+03</pdfrwt>
<totfact> 0.33446029E+02</totfact>
</mgrwt>
</event>
<event>
 4    1  0.5312547E-005  0.4280807E+03  0.7818608E-02  0.1034468E+00
          2   -1    0    0  501    0  0.00000000000E+00  0.00000000000E+00  0.19252505454E+04  0.19252505454E+04  0.25500000000E-02 0.  1.
         -2   -1    0    0    0  501 -0.00000000000E+00 -0.00000000000E+00 -0.23796008726E+02  0.23796008863E+02  0.25500000000E-02 0. -1.
    5000001    1    1    2    0    0  0.65502383540E+02 -0.11897190119E+03  0.89620470845E+03  0.92133205468E+03  0.16500000000E+03 0.  0.
   -5000001    1    1    2    0    0 -0.65502383540E+02  0.11897190119E+03  0.10052498282E+04  0.10277144996E+04  0.16500000000E+03 0.  0.
<mgrwt>
<rscale>  0 0.42808073E+03</rscale>
<asrwt>0</asrwt>
<pdfrwt beam="1">  1        2 0.27503578E+00 0.42808073E+03</pdfrwt>
<pdfrwt beam="2">  1       -2 0.33994300E-02 0.42808073E+03</pdfrwt>
<totfact> 0.33647811E+03</totfact>
</mgrwt>
</event>
<event>
 4    1  0.5312547E-005  0.5415134E+03  0.7818608E-02  0.1003478E+00
          2   -1    0    0  501    0  0.00000000000E+00  0.00000000000E+00  0.17540857812E+04  0.17540857812E+04  0.25500000000E-02 0.  1.
         -2   -1    0    0    0  501 -0.00000000000E+00 -0.00000000000E+00 -0.41793383888E+02  0.41793383966E+02  0.25500000000E-02 0. -1.
    5000001    1    1    2    0    0 -0.81740696880E+02  0.34035381461E+02  0.20758508639E+03  0.27956487049E+03  0.16500000000E+03 0.  0.
   -5000001    1    1    2    0    0  0.81740696880E+02 -0.34035381461E+02  0.15047073109E+04  0.15163142947E+04  0.16500000000E+03 0.  0.
<mgrwt>
<rscale>  0 0.54151336E+03</rscale>
<asrwt>0</asrwt>
<pdfrwt beam="1">  1        2 0.25058372E+00 0.54151336E+03</pdfrwt>
<pdfrwt beam="2">  1       -2 0.59704826E-02 0.54151336E+03</pdfrwt>
<totfact> 0.17186355E+03</totfact>
</mgrwt>
</event>
<event>
 4    1  0.5312547E-005  0.4848650E+03  0.7818608E-02  0.1017807E+00
          2   -1    0    0  501    0  0.00000000000E+00  0.00000000000E+00  0.58140395707E+03  0.58140395707E+03  0.25500000000E-02 0.  1.
         -2   -1    0    0    0  501 -0.00000000000E+00 -0.00000000000E+00 -0.10108894183E+03  0.10108894186E+03  0.25500000000E-02 0. -1.
    5000001    1    1    2    0    0 -0.16929116057E+02  0.14447429574E+03  0.96685836715E+02  0.24027602486E+03  0.16500000000E+03 0.  0.
   -5000001    1    1    2    0    0  0.16929116057E+02 -0.14447429574E+03  0.38362917852E+03  0.44221687407E+03  0.16500000000E+03 0.  0.
<mgrwt>
<rscale>  0 0.48486497E+03</rscale>
<asrwt>0</asrwt>
<pdfrwt beam="1">  1        2 0.83057706E-01 0.48486497E+03</pdfrwt>
<pdfrwt beam="2">  1       -2 0.14441278E-01 0.48486497E+03</pdfrwt>
<totfact> 0.20938325E+03</totfact>
</mgrwt>
</event>
<event>
 4    1  0.5312547E-005  0.5967132E+03  0.7818608E-02  0.9912249E-01
          2   -1    0    0  501    0  0.00000000000E+00  0.00000000000E+00  0.47593899571E+03  0.47593899572E+03  0.25500000000E-02 0. -1.
         -2   -1    0    0    0  501 -0.00000000000E+00 -0.00000000000E+00 -0.18703377133E+03  0.18703377135E+03  0.25500000000E-02 0.  1.
    5000001    1    1    2    0    0 -0.30313364923E+02 -0.20068590266E+03 -0.15003753276E+02  0.26199970273E+03  0.16500000000E+03 0.  0.
   -5000001    1    1    2    0    0  0.30313364923E+02  0.20068590266E+03  0.30390897766E+03  0.40097306433E+03  0.16500000000E+03 0.  0.
<mgrwt>
<rscale>  0 0.59671322E+03</rscale>
<asrwt>0</asrwt>
<pdfrwt beam="1">  1        2 0.67991284E-01 0.59671322E+03</pdfrwt>
<pdfrwt beam="2">  1       -2 0.26719111E-01 0.59671322E+03</pdfrwt>
<totfact> 0.90460622E+02</totfact>
</mgrwt>
</event>
<event>
 4    1  0.5312547E-005  0.9318478E+03  0.7818608E-02  0.9386623E-01
         -2   -1    0    0    0  501 -0.00000000000E+00  0.00000000000E+00  0.12991176986E+03  0.12991176989E+03  0.25500000000E-02 0. -1.
          2   -1    0    0  501    0  0.00000000000E+00 -0.00000000000E+00 -0.16710194690E+04  0.16710194690E+04  0.25500000000E-02 0.  1.
    5000001    1    1    2    0    0 -0.30030297529E+03 -0.30133872153E+03 -0.58850324080E+03  0.74467977446E+03  0.16500000000E+03 0.  0.
   -5000001    1    1    2    0    0  0.30030297529E+03  0.30133872153E+03 -0.95260445838E+03  0.10562514645E+04  0.16500000000E+03 0.  0.
<mgrwt>
<rscale>  0 0.93184783E+03</rscale>
<asrwt>0</asrwt>
<pdfrwt beam="1">  1        2 0.23871705E+00 0.93184783E+03</pdfrwt>
<pdfrwt beam="2">  1       -2 0.18558825E-01 0.93184783E+03</pdfrwt>
<totfact> 0.28952655E+02</totfact>
</mgrwt>
</event>
<event>
 4    1  0.5312547E-005  0.4905618E+03  0.7818608E-02  0.1016272E+00
         -2   -1    0    0    0  501 -0.00000000000E+00  0.00000000000E+00  0.30211843654E+03  0.30211843655E+03  0.25500000000E-02 0. -1.
          2   -1    0    0  501    0  0.00000000000E+00 -0.00000000000E+00 -0.19913619858E+03  0.19913619859E+03  0.25500000000E-02 0.  1.
    5000001    1    1    2    0    0  0.15828999869E+03 -0.59991492502E+02 -0.15380130582E+02  0.23688868963E+03  0.16500000000E+03 0.  0.
   -5000001    1    1    2    0    0 -0.15828999869E+03  0.59991492502E+02  0.11836236855E+03  0.26436594551E+03  0.16500000000E+03 0.  0.
<mgrwt>
<rscale>  0 0.49056179E+03</rscale>
<asrwt>0</asrwt>
<pdfrwt beam="1">  1        2 0.28448029E-01 0.49056179E+03</pdfrwt>
<pdfrwt beam="2">  1       -2 0.43159776E-01 0.49056179E+03</pdfrwt>
<totfact> 0.96405467E+02</totfact>
</mgrwt>
</event>
<event>
 4    1  0.5312547E-005  0.4402955E+03  0.7818608E-02  0.1030656E+00
         -2   -1    0    0    0  501 -0.00000000000E+00  0.00000000000E+00  0.67835588243E+02  0.67835588290E+02  0.25500000000E-02 0. -1.
          2   -1    0    0  501    0  0.00000000000E+00 -0.00000000000E+00 -0.71444834373E+03  0.71444834374E+03  0.25500000000E-02 0.  1.
    5000001    1    1    2    0    0 -0.45413384565E+02 -0.99870223968E+02 -0.49375706245E+03  0.53203145946E+03  0.16500000000E+03 0.  0.
   -5000001    1    1    2    0    0  0.45413384565E+02  0.99870223968E+02 -0.15285569304E+03  0.25025247257E+03  0.16500000000E+03 0.  0.
<mgrwt>
<rscale>  0 0.44029546E+03</rscale>
<asrwt>0</asrwt>
<pdfrwt beam="1">  1        2 0.10206404E+00 0.44029546E+03</pdfrwt>
<pdfrwt beam="2">  1       -2 0.96907987E-02 0.44029546E+03</pdfrwt>
<totfact> 0.31455369E+03</totfact>
</mgrwt>
</event>
<event>
 4    1  0.5312547E-005  0.6091533E+03  0.7818608E-02  0.9886596E-01
          2   -1    0    0  501    0  0.00000000000E+00  0.00000000000E+00  0.21722482630E+04  0.21722482631E+04  0.25500000000E-02 0.  1.
         -2   -1    0    0    0  501 -0.00000000000E+00 -0.00000000000E+00 -0.42705495340E+02  0.42705495417E+02  0.25500000000E-02 0. -1.
    5000001    1    1    2    0    0  0.12589914837E+03 -0.20647596027E+03  0.13702707239E+04  0.14011958373E+04  0.16500000000E+03 0.  0.
   -5000001    1    1    2    0    0 -0.12589914837E+03  0.20647596027E+03  0.75927204378E+03  0.81375792113E+03  0.16500000000E+03 0.  0.
<mgrwt>
<rscale>  0 0.60915331E+03</rscale>
<asrwt>0</asrwt>
<pdfrwt beam="1">  1        2 0.31032127E+00 0.60915331E+03</pdfrwt>
<pdfrwt beam="2">  1       -2 0.61007832E-02 0.60915331E+03</pdfrwt>
<totfact> 0.10208072E+03</totfact>
</mgrwt>
</event>
<event>
 4    1  0.5312547E-005  0.5307543E+03  0.7818608E-02  0.1006049E+00
         -2   -1    0    0    0  501 -0.00000000000E+00  0.00000000000E+00  0.38552760109E+03  0.38552760110E+03  0.25500000000E-02 0. -1.
          2   -1    0    0  501    0  0.00000000000E+00 -0.00000000000E+00 -0.18267180445E+03  0.18267180446E+03  0.25500000000E-02 0.  1.
    5000001    1    1    2    0    0 -0.43657888755E+02 -0.16031233200E+03  0.23511379539E+03  0.33182759353E+03  0.16500000000E+03 0.  0.
   -5000001    1    1    2    0    0  0.43657888755E+02  0.16031233200E+03 -0.32257998747E+02  0.23637181204E+03  0.16500000000E+03 0.  0.
<mgrwt>
<rscale>  0 0.53075427E+03</rscale>
<asrwt>0</asrwt>
<pdfrwt beam="1">  1        2 0.26095972E-01 0.53075427E+03</pdfrwt>
<pdfrwt beam="2">  1       -2 0.55075371E-01 0.53075427E+03</pdfrwt>
<totfact> 0.65084100E+02</totfact>
</mgrwt>
</event>
<event>
 4    1  0.5312547E-005  0.3789215E+03  0.7818608E-02  0.1051333E+00
          2   -1    0    0  501    0  0.00000000000E+00  0.00000000000E+00  0.22056042217E+03  0.22056042218E+03  0.25500000000E-02 0.  1.
         -2   -1    0    0    0  501 -0.00000000000E+00 -0.00000000000E+00 -0.16274624276E+03  0.16274624278E+03  0.25500000000E-02 0. -1.
    5000001    1    1    2    0    0  0.67872015138E+02 -0.57314148078E+02  0.57138088402E+02  0.19591141660E+03  0.16500000000E+03 0.  0.
   -5000001    1    1    2    0    0 -0.67872015138E+02  0.57314148078E+02  0.67609100793E+00  0.18739524836E+03  0.16500000000E+03 0.  0.
<mgrwt>
<rscale>  0 0.37892152E+03</rscale>
<asrwt>0</asrwt>
<pdfrwt beam="1">  1        2 0.31508632E-01 0.37892152E+03</pdfrwt>
<pdfrwt beam="2">  1       -2 0.23249463E-01 0.37892152E+03</pdfrwt>
<totfact> 0.27018391E+03</totfact>
</mgrwt>
</event>
<event>
 4    1  0.5312547E-005  0.5064082E+03  0.7818608E-02  0.1012120E+00
          2   -1    0    0  501    0  0.00000000000E+00  0.00000000000E+00  0.28373597453E+03  0.28373597454E+03  0.25500000000E-02 0.  1.
         -2   -1    0    0    0  501 -0.00000000000E+00 -0.00000000000E+00 -0.22595769980E+03  0.22595769981E+03  0.25500000000E-02 0. -1.
    5000001    1    1    2    0    0 -0.21580531754E+02 -0.18931695096E+03  0.53143212546E+02  0.25759625058E+03  0.16500000000E+03 0.  0.
   -5000001    1    1    2    0    0  0.21580531754E+02  0.18931695096E+03  0.46350621822E+01  0.25209742378E+03  0.16500000000E+03 0.  0.
<mgrwt>
<rscale>  0 0.50640825E+03</rscale>
<asrwt>0</asrwt>
<pdfrwt beam="1">  1        2 0.40533711E-01 0.50640825E+03</pdfrwt>
<pdfrwt beam="2">  1       -2 0.32279671E-01 0.50640825E+03</pdfrwt>
<totfact> 0.11337792E+03</totfact>
</mgrwt>
</event>
<event>
 4    1  0.5312547E-005  0.1077844E+04  0.7818608E-02  0.9227060E-01
         -2   -1    0    0    0  501 -0.00000000000E+00  0.00000000000E+00  0.17780341329E+03  0.17780341331E+03  0.25500000000E-02 0. -1.
          2   -1    0    0  501    0  0.00000000000E+00 -0.00000000000E+00 -0.16334720919E+04  0.16334720919E+04  0.25500000000E-02 0.  1.
    5000001    1    1    2    0    0 -0.11257645035E+03 -0.35748703784E+03 -0.13165753367E+04  0.13787915203E+04  0.16500000000E+03 0.  0.
   -5000001    1    1    2    0    0  0.11257645035E+03  0.35748703784E+03 -0.13909334191E+03  0.43248398486E+03  0.16500000000E+03 0.  0.
<mgrwt>
<rscale>  0 0.10778440E+04</rscale>
<asrwt>0</asrwt>
<pdfrwt beam="1">  1        2 0.23335315E+00 0.10778440E+04</pdfrwt>
<pdfrwt beam="2">  1       -2 0.25400489E-01 0.10778440E+04</pdfrwt>
<totfact> 0.17192279E+02</totfact>
</mgrwt>
</event>
<event>
 4    1  0.5312547E-005  0.4713764E+03  0.7818608E-02  0.1021532E+00
          2   -1    0    0  501    0  0.00000000000E+00  0.00000000000E+00  0.43505884842E+03  0.43505884843E+03  0.25500000000E-02 0.  1.
         -2   -1    0    0    0  501 -0.00000000000E+00 -0.00000000000E+00 -0.12768143481E+03  0.12768143484E+03  0.25500000000E-02 0. -1.
    5000001    1    1    2    0    0 -0.58425253574E+02 -0.15197475830E+03  0.20453634800E+03  0.30914390673E+03  0.16500000000E+03 0.  0.
   -5000001    1    1    2    0    0  0.58425253574E+02  0.15197475830E+03  0.10284106561E+03  0.25359637653E+03  0.16500000000E+03 0.  0.
<mgrwt>
<rscale>  0 0.47137644E+03</rscale>
<asrwt>0</asrwt>
<pdfrwt beam="1">  1        2 0.62151265E-01 0.47137644E+03</pdfrwt>
<pdfrwt beam="2">  1       -2 0.18240205E-01 0.47137644E+03</pdfrwt>
<totfact> 0.19590145E+03</totfact>
</mgrwt>
</event>
<event>
 4    1  0.5312547E-005  0.5972526E+03  0.7818608E-02  0.9911122E-01
         -2   -1    0    0    0  501 -0.00000000000E+00  0.00000000000E+00  0.40346192296E+02  0.40346192377E+02  0.25500000000E-02 0. -1.
          2   -1    0    0  501    0  0.00000000000E+00 -0.00000000000E+00 -0.22103118047E+04  0.22103118047E+04  0.25500000000E-02 0.  1.
    5000001    1    1    2    0    0 -0.22204563887E+03  0.99059624201E+02 -0.88431707900E+03  0.93185769895E+03  0.16500000000E+03 0.  0.
   -5000001    1    1    2    0    0  0.22204563887E+03 -0.99059624201E+02 -0.12856485334E+04  0.13188002981E+04  0.16500000000E+03 0.  0.
<mgrwt>
<rscale>  0 0.59725259E+03</rscale>
<asrwt>0</asrwt>
<pdfrwt beam="1">  1        2 0.31575875E+00 0.59725259E+03</pdfrwt>
<pdfrwt beam="2">  1       -2 0.57637432E-02 0.59725259E+03</pdfrwt>
<totfact> 0.10683433E+03</totfact>
</mgrwt>
</event>
<event>
 4    1  0.5312547E-005  0.1198318E+04  0.7818608E-02  0.9114330E-01
          2   -1    0    0  501    0  0.00000000000E+00  0.00000000000E+00  0.23725741062E+04  0.23725741062E+04  0.25500000000E-02 0.  1.
         -2   -1    0    0    0  501 -0.00000000000E+00 -0.00000000000E+00 -0.15130897757E+03  0.15130897760E+03  0.25500000000E-02 0. -1.
    5000001    1    1    2    0    0 -0.52660075886E+03 -0.22836582599E+03  0.12118052747E+04  0.13509834690E+04  0.16500000000E+03 0.  0.
   -5000001    1    1    2    0    0  0.52660075886E+03  0.22836582599E+03  0.10094598540E+04  0.11728996149E+04  0.16500000000E+03 0.  0.
<mgrwt>
<rscale>  0 0.11983184E+04</rscale>
<asrwt>0</asrwt>
<pdfrwt beam="1">  1        2 0.33893918E+00 0.11983184E+04</pdfrwt>
<pdfrwt beam="2">  1       -2 0.21615567E-01 0.11983184E+04</pdfrwt>
<totfact> 0.94888235E+01</totfact>
</mgrwt>
</event>
<event>
 4    1  0.5312547E-005  0.4088888E+03  0.7818608E-02  0.1040745E+00
          2   -1    0    0  501    0  0.00000000000E+00  0.00000000000E+00  0.22026086011E+04  0.22026086011E+04  0.25500000000E-02 0.  1.
         -2   -1    0    0    0  501 -0.00000000000E+00 -0.00000000000E+00 -0.18976364405E+02  0.18976364576E+02  0.25500000000E-02 0. -1.
    5000001    1    1    2    0    0  0.52864607658E+02  0.10040749356E+03  0.13155814095E+04  0.13307350512E+04  0.16500000000E+03 0.  0.
   -5000001    1    1    2    0    0 -0.52864607658E+02 -0.10040749356E+03  0.86805082722E+03  0.89084991449E+03  0.16500000000E+03 0.  0.
<mgrwt>
<rscale>  0 0.40888876E+03</rscale>
<asrwt>0</asrwt>
<pdfrwt beam="1">  1        2 0.31465810E+00 0.40888876E+03</pdfrwt>
<pdfrwt beam="2">  1       -2 0.27109115E-02 0.40888876E+03</pdfrwt>
<totfact> 0.34494928E+03</totfact>
</mgrwt>
</event>
<event>
 4    1  0.5312547E-005  0.5080942E+03  0.7818608E-02  0.1011688E+00
          2   -1    0    0  501    0  0.00000000000E+00  0.00000000000E+00  0.24377098763E+04  0.24377098763E+04  0.25500000000E-02 0.  1.
         -2   -1    0    0    0  501 -0.00000000000E+00 -0.00000000000E+00 -0.26475639386E+02  0.26475639509E+02  0.25500000000E-02 0. -1.
    5000001    1    1    2    0    0  0.11604922584E+02 -0.19281121796E+03  0.12154226723E+04  0.12416876066E+04  0.16500000000E+03 0.  0.
   -5000001    1    1    2    0    0 -0.11604922584E+02  0.19281121796E+03  0.11958115646E+04  0.12224979092E+04  0.16500000000E+03 0.  0.
<mgrwt>
<rscale>  0 0.50809420E+03</rscale>
<asrwt>0</asrwt>
<pdfrwt beam="1">  1        2 0.34824419E+00 0.50809420E+03</pdfrwt>
<pdfrwt beam="2">  1       -2 0.37822351E-02 0.50809420E+03</pdfrwt>
<totfact> 0.15800428E+03</totfact>
</mgrwt>
</event>
<event>
 4    1  0.5312547E-005  0.6272915E+03  0.7818608E-02  0.9850349E-01
         -2   -1    0    0    0  501 -0.00000000000E+00  0.00000000000E+00  0.76680206105E+02  0.76680206148E+02  0.25500000000E-02 0. -1.
          2   -1    0    0  501    0  0.00000000000E+00 -0.00000000000E+00 -0.12829080899E+04  0.12829080899E+04  0.25500000000E-02 0.  1.
    5000001    1    1    2    0    0 -0.25510367393E+03  0.39453334365E+02 -0.45749135687E+03  0.55059766768E+03  0.16500000000E+03 0.  0.
   -5000001    1    1    2    0    0  0.25510367393E+03 -0.39453334365E+02 -0.74873652696E+03  0.80899062840E+03  0.16500000000E+03 0.  0.
<mgrwt>
<rscale>  0 0.62729150E+03</rscale>
<asrwt>0</asrwt>
<pdfrwt beam="1">  1        2 0.18327257E+00 0.62729150E+03</pdfrwt>
<pdfrwt beam="2">  1       -2 0.10954316E-01 0.62729150E+03</pdfrwt>
<totfact> 0.11454964E+03</totfact>
</mgrwt>
</event>
<event>
 4    1  0.5312547E-005  0.4895228E+03  0.7818608E-02  0.1016550E+00
          2   -1    0    0  501    0  0.00000000000E+00  0.00000000000E+00  0.27585128626E+03  0.27585128627E+03  0.25500000000E-02 0.  1.
         -2   -1    0    0    0  501 -0.00000000000E+00 -0.00000000000E+00 -0.21717550746E+03  0.21717550748E+03  0.25500000000E-02 0. -1.
    5000001    1    1    2    0    0  0.15851092842E+03 -0.53716056786E+02  0.98179284061E+02  0.25470630342E+03  0.16500000000E+03 0.  0.
   -5000001    1    1    2    0    0 -0.15851092842E+03  0.53716056786E+02 -0.39503505264E+02  0.23832049033E+03  0.16500000000E+03 0.  0.
<mgrwt>
<rscale>  0 0.48952280E+03</rscale>
<asrwt>0</asrwt>
<pdfrwt beam="1">  1        2 0.39407327E-01 0.48952280E+03</pdfrwt>
<pdfrwt beam="2">  1       -2 0.31025072E-01 0.48952280E+03</pdfrwt>
<totfact> 0.12586687E+03</totfact>
</mgrwt>
</event>
<event>
 4    1  0.5312547E-005  0.4988363E+03  0.7818608E-02  0.1014083E+00
         -2   -1    0    0    0  501 -0.00000000000E+00  0.00000000000E+00  0.43579962294E+03  0.43579962295E+03  0.25500000000E-02 0. -1.
          2   -1    0    0  501    0  0.00000000000E+00 -0.00000000000E+00 -0.14274776610E+03  0.14274776612E+03  0.25500000000E-02 0.  1.
    5000001    1    1    2    0    0 -0.82882244022E+02 -0.86302040002E+02 -0.20205962217E+02  0.20481891854E+03  0.16500000000E+03 0.  0.
   -5000001    1    1    2    0    0  0.82882244022E+02  0.86302040002E+02  0.31325781906E+03  0.37372847053E+03  0.16500000000E+03 0.  0.
<mgrwt>
<rscale>  0 0.49883634E+03</rscale>
<asrwt>0</asrwt>
<pdfrwt beam="1">  1        2 0.20392538E-01 0.49883634E+03</pdfrwt>
<pdfrwt beam="2">  1       -2 0.62257090E-01 0.49883634E+03</pdfrwt>
<totfact> 0.66913902E+02</totfact>
</mgrwt>
</event>
<event>
 4    1  0.5312547E-005  0.3972376E+03  0.7818608E-02  0.1044740E+00
          2   -1    0    0  501    0  0.00000000000E+00  0.00000000000E+00  0.48081506309E+03  0.48081506310E+03  0.25500000000E-02 0.  1.
         -2   -1    0    0    0  501 -0.00000000000E+00 -0.00000000000E+00 -0.82046985752E+02  0.82046985791E+02  0.25500000000E-02 0. -1.
    5000001    1    1    2    0    0  0.63449661034E+02  0.81410740466E+02  0.14322493646E+03  0.24164426451E+03  0.16500000000E+03 0.  0.
   -5000001    1    1    2    0    0 -0.63449661034E+02 -0.81410740466E+02  0.25554314088E+03  0.32121778438E+03  0.16500000000E+03 0.  0.
<mgrwt>
<rscale>  0 0.39723759E+03</rscale>
<asrwt>0</asrwt>
<pdfrwt beam="1">  1        2 0.68687868E-01 0.39723759E+03</pdfrwt>
<pdfrwt beam="2">  1       -2 0.11720998E-01 0.39723759E+03</pdfrwt>
<totfact> 0.36558705E+03</totfact>
</mgrwt>
</event>
<event>
 4    1  0.5312547E-005  0.4957210E+03  0.7818608E-02  0.1014902E+00
         -2   -1    0    0    0  501 -0.00000000000E+00  0.00000000000E+00  0.70635280034E+03  0.70635280034E+03  0.25500000000E-02 0. -1.
          2   -1    0    0  501    0  0.00000000000E+00 -0.00000000000E+00 -0.86974706279E+02  0.86974706317E+02  0.25500000000E-02 0.  1.
    5000001    1    1    2    0    0 -0.13241872970E+02  0.74895187548E+02  0.39873548807E+02  0.18600950570E+03  0.16500000000E+03 0.  0.
   -5000001    1    1    2    0    0  0.13241872970E+02 -0.74895187548E+02  0.57950454525E+03  0.60731800095E+03  0.16500000000E+03 0.  0.
<mgrwt>
<rscale>  0 0.49572100E+03</rscale>
<asrwt>0</asrwt>
<pdfrwt beam="1">  1        2 0.12424958E-01 0.49572100E+03</pdfrwt>
<pdfrwt beam="2">  1       -2 0.10090754E+00 0.49572100E+03</pdfrwt>
<totfact> 0.41303078E+02</totfact>
</mgrwt>
</event>
<event>
 4    1  0.5312547E-005  0.5589509E+03  0.7818608E-02  0.9994431E-01
          2   -1    0    0  501    0  0.00000000000E+00  0.00000000000E+00  0.67312470988E+02  0.67312471036E+02  0.25500000000E-02 0.  1.
         -2   -1    0    0    0  501 -0.00000000000E+00 -0.00000000000E+00 -0.11603576075E+04  0.11603576075E+04  0.25500000000E-02 0. -1.
    5000001    1    1    2    0    0 -0.57275193123E+02 -0.21155394804E+03 -0.42934978729E+03  0.50951129578E+03  0.16500000000E+03 0.  0.
   -5000001    1    1    2    0    0  0.57275193123E+02  0.21155394804E+03 -0.66369534922E+03  0.71815878276E+03  0.16500000000E+03 0.  0.
<mgrwt>
<rscale>  0 0.55895094E+03</rscale>
<asrwt>0</asrwt>
<pdfrwt beam="1">  1        2 0.96160680E-02 0.55895094E+03</pdfrwt>
<pdfrwt beam="2">  1       -2 0.16576536E+00 0.55895094E+03</pdfrwt>
<totfact> 0.16283364E+02</totfact>
</mgrwt>
</event>
<event>
 4    1  0.5312547E-005  0.5575758E+03  0.7818608E-02  0.9997555E-01
          2   -1    0    0  501    0  0.00000000000E+00  0.00000000000E+00  0.78567283911E+03  0.78567283912E+03  0.25500000000E-02 0.  1.
         -2   -1    0    0    0  501 -0.00000000000E+00 -0.00000000000E+00 -0.98924997207E+02  0.98924997240E+02  0.25500000000E-02 0. -1.
    5000001    1    1    2    0    0 -0.16584578064E+03  0.15059179985E+03  0.37153029854E+03  0.46415781354E+03  0.16500000000E+03 0.  0.
   -5000001    1    1    2    0    0  0.16584578064E+03 -0.15059179985E+03  0.31521754337E+03  0.42044002282E+03  0.16500000000E+03 0.  0.
<mgrwt>
<rscale>  0 0.55757577E+03</rscale>
<asrwt>0</asrwt>
<pdfrwt beam="1">  1        2 0.11223897E+00 0.55757577E+03</pdfrwt>
<pdfrwt beam="2">  1       -2 0.14132143E-01 0.55757577E+03</pdfrwt>
<totfact> 0.15089618E+03</totfact>
</mgrwt>
</event>
<event>
 4    1  0.5312547E-005  0.6555600E+03  0.7818608E-02  0.9796402E-01
         -2   -1    0    0    0  501 -0.00000000000E+00  0.00000000000E+00  0.11072661676E+03  0.11072661679E+03  0.25500000000E-02 0. -1.
          2   -1    0    0  501    0  0.00000000000E+00 -0.00000000000E+00 -0.97031523224E+03  0.97031523224E+03  0.25500000000E-02 0.  1.
    5000001    1    1    2    0    0 -0.24129148856E+03  0.14802265999E+03 -0.41482232033E+03  0.52861597381E+03  0.16500000000E+03 0.  0.
   -5000001    1    1    2    0    0  0.24129148856E+03 -0.14802265999E+03 -0.44476629514E+03  0.55242587522E+03  0.16500000000E+03 0.  0.
<mgrwt>
<rscale>  0 0.65555998E+03</rscale>
<asrwt>0</asrwt>
<pdfrwt beam="1">  1        2 0.13861646E+00 0.65555998E+03</pdfrwt>
<pdfrwt beam="2">  1       -2 0.15818089E-01 0.65555998E+03</pdfrwt>
<totfact> 0.94233568E+02</totfact>
</mgrwt>
</event>
<event>
 4    1  0.5312547E-005  0.5000963E+03  0.7818608E-02  0.1013754E+00
          2   -1    0    0  501    0  0.00000000000E+00  0.00000000000E+00  0.43605306534E+03  0.43605306535E+03  0.25500000000E-02 0.  1.
         -2   -1    0    0    0  501 -0.00000000000E+00 -0.00000000000E+00 -0.14338638440E+03  0.14338638442E+03  0.25500000000E-02 0. -1.
    5000001    1    1    2    0    0 -0.16859583760E+03 -0.59301488481E+02  0.21347391391E+03  0.32363148011E+03  0.16500000000E+03 0.  0.
   -5000001    1    1    2    0    0  0.16859583760E+03  0.59301488481E+02  0.79192767031E+02  0.25580796966E+03  0.16500000000E+03 0.  0.
<mgrwt>
<rscale>  0 0.50009628E+03</rscale>
<asrwt>0</asrwt>
<pdfrwt beam="1">  1        2 0.62293296E-01 0.50009628E+03</pdfrwt>
<pdfrwt beam="2">  1       -2 0.20483769E-01 0.50009628E+03</pdfrwt>
<totfact> 0.16000305E+03</totfact>
</mgrwt>
</event>
<event>
 4    1  0.5312547E-005  0.7060795E+03  0.7818608E-02  0.9706892E-01
          2   -1    0    0  501    0  0.00000000000E+00  0.00000000000E+00  0.17347185046E+04  0.17347185046E+04  0.25500000000E-02 0.  1.
         -2   -1    0    0    0  501 -0.00000000000E+00 -0.00000000000E+00 -0.71848576737E+02  0.71848576782E+02  0.25500000000E-02 0. -1.
    5000001    1    1    2    0    0 -0.51435935900E+02 -0.22272553530E+03  0.28771384272E+03  0.40281084254E+03  0.16500000000E+03 0.  0.
   -5000001    1    1    2    0    0  0.51435935900E+02  0.22272553530E+03  0.13751560851E+04  0.14037562388E+04  0.16500000000E+03 0.  0.
<mgrwt>
<rscale>  0 0.70607947E+03</rscale>
<asrwt>0</asrwt>
<pdfrwt beam="1">  1        2 0.24781690E+00 0.70607947E+03</pdfrwt>
<pdfrwt beam="2">  1       -2 0.10264084E-01 0.70607947E+03</pdfrwt>
<totfact> 0.73563602E+02</totfact>
</mgrwt>
</event>
<event>
 4    1  0.5312547E-005  0.4635118E+03  0.7818608E-02  0.1023768E+00
          2   -1    0    0  501    0  0.00000000000E+00  0.00000000000E+00  0.26934671049E+03  0.26934671050E+03  0.25500000000E-02 0.  1.
         -2   -1    0    0    0  501 -0.00000000000E+00 -0.00000000000E+00 -0.19941140546E+03  0.19941140548E+03  0.25500000000E-02 0. -1.
    5000001    1    1    2    0    0  0.58039073715E+02 -0.97922446261E+02 -0.82660765213E+02  0.21682975272E+03  0.16500000000E+03 0.  0.
   -5000001    1    1    2    0    0 -0.58039073715E+02  0.97922446261E+02  0.15259607024E+03  0.25192836325E+03  0.16500000000E+03 0.  0.
<mgrwt>
<rscale>  0 0.46351184E+03</rscale>
<asrwt>0</asrwt>
<pdfrwt beam="1">  1        2 0.38478101E-01 0.46351184E+03</pdfrwt>
<pdfrwt beam="2">  1       -2 0.28487344E-01 0.46351184E+03</pdfrwt>
<totfact> 0.15108427E+03</totfact>
</mgrwt>
</event>
<event>
 4    1  0.5312547E-005  0.4285753E+03  0.7818608E-02  0.1034311E+00
         -2   -1    0    0    0  501 -0.00000000000E+00  0.00000000000E+00  0.40302929387E+02  0.40302929468E+02  0.25500000000E-02 0. -1.
          2   -1    0    0  501    0  0.00000000000E+00 -0.00000000000E+00 -0.11393512585E+04  0.11393512585E+04  0.25500000000E-02 0.  1.
    5000001    1    1    2    0    0  0.72958645052E+02 -0.11191280073E+03 -0.62961933936E+03  0.66444935951E+03  0.16500000000E+03 0.  0.
   -5000001    1    1    2    0    0 -0.72958645052E+02  0.11191280073E+03 -0.46942898978E+03  0.51520482849E+03  0.16500000000E+03 0.  0.
<mgrwt>
<rscale>  0 0.42857528E+03</rscale>
<asrwt>0</asrwt>
<pdfrwt beam="1">  1        2 0.16276445E+00 0.42857528E+03</pdfrwt>
<pdfrwt beam="2">  1       -2 0.57575620E-02 0.42857528E+03</pdfrwt>
<totfact> 0.38360498E+03</totfact>
</mgrwt>
</event>
<event>
 4    1  0.5312547E-005  0.4928436E+03  0.7818608E-02  0.1015664E+00
          2   -1    0    0  501    0  0.00000000000E+00  0.00000000000E+00  0.31672641949E+04  0.31672641949E+04  0.25500000000E-02 0.  1.
         -2   -1    0    0    0  501 -0.00000000000E+00 -0.00000000000E+00 -0.19172290262E+02  0.19172290432E+02  0.25500000000E-02 0. -1.
    5000001    1    1    2    0    0  0.33502949889E+02 -0.66234545209E+02  0.26557083360E+04  0.26618642393E+04  0.16500000000E+03 0.  0.
   -5000001    1    1    2    0    0 -0.33502949889E+02  0.66234545209E+02  0.49238356865E+03  0.52457224603E+03  0.16500000000E+03 0.  0.
<mgrwt>
<rscale>  0 0.49284362E+03</rscale>
<asrwt>0</asrwt>
<pdfrwt beam="1">  1        2 0.45246630E+00 0.49284362E+03</pdfrwt>
<pdfrwt beam="2">  1       -2 0.27388987E-02 0.49284362E+03</pdfrwt>
<totfact> 0.10630463E+03</totfact>
</mgrwt>
</event>
<event>
 4    1  0.5312547E-005  0.3750331E+03  0.7818608E-02  0.1052785E+00
          2   -1    0    0  501    0  0.00000000000E+00  0.00000000000E+00  0.27027200682E+03  0.27027200683E+03  0.25500000000E-02 0.  1.
         -2   -1    0    0    0  501 -0.00000000000E+00 -0.00000000000E+00 -0.13010027265E+03  0.13010027268E+03  0.25500000000E-02 0. -1.
    5000001    1    1    2    0    0  0.43260009972E+02  0.70959173833E+02  0.10436167310E+03  0.21218621922E+03  0.16500000000E+03 0.  0.
   -5000001    1    1    2    0    0 -0.43260009972E+02 -0.70959173833E+02  0.35810061068E+02  0.18818606029E+03  0.16500000000E+03 0.  0.
<mgrwt>
<rscale>  0 0.37503313E+03</rscale>
<asrwt>0</asrwt>
<pdfrwt beam="1">  1        2 0.38610286E-01 0.37503313E+03</pdfrwt>
<pdfrwt beam="2">  1       -2 0.18585753E-01 0.37503313E+03</pdfrwt>
<totfact> 0.31850676E+03</totfact>
</mgrwt>
</event>
<event>
 4    1  0.5312547E-005  0.5810122E+03  0.7818608E-02  0.9945602E-01
         -2   -1    0    0    0  501 -0.00000000000E+00  0.00000000000E+00  0.33942420290E+03  0.33942420291E+03  0.25500000000E-02 0. -1.
          2   -1    0    0  501    0  0.00000000000E+00 -0.00000000000E+00 -0.24863814354E+03  0.24863814355E+03  0.25500000000E-02 0.  1.
    5000001    1    1    2    0    0  0.12944670258E+01 -0.23068629293E+03 -0.18226365915E+02  0.28420950337E+03  0.16500000000E+03 0.  0.
   -5000001    1    1    2    0    0 -0.12944670258E+01  0.23068629293E+03  0.10901242528E+03  0.30385284309E+03  0.16500000000E+03 0.  0.
<mgrwt>
<rscale>  0 0.58101223E+03</rscale>
<asrwt>0</asrwt>
<pdfrwt beam="1">  1        2 0.35519735E-01 0.58101223E+03</pdfrwt>
<pdfrwt beam="2">  1       -2 0.48489172E-01 0.58101223E+03</pdfrwt>
<totfact> 0.59675011E+02</totfact>
</mgrwt>
</event>
<event>
 4    1  0.5312547E-005  0.5203134E+03  0.7818608E-02  0.1008609E+00
          2   -1    0    0  501    0  0.00000000000E+00  0.00000000000E+00  0.74566415336E+03  0.74566415336E+03  0.25500000000E-02 0. -1.
         -2   -1    0    0    0  501 -0.00000000000E+00 -0.00000000000E+00 -0.90766759962E+02  0.90766759998E+02  0.25500000000E-02 0.  1.
    5000001    1    1    2    0    0  0.10155850322E+03  0.17219172119E+03  0.36312044642E+03  0.44614524208E+03  0.16500000000E+03 0.  0.
   -5000001    1    1    2    0    0 -0.10155850322E+03 -0.17219172119E+03  0.29177694698E+03  0.39028567128E+03  0.16500000000E+03 0.  0.
<mgrwt>
<rscale>  0 0.52031344E+03</rscale>
<asrwt>0</asrwt>
<pdfrwt beam="1">  1        2 0.10652346E+00 0.52031344E+03</pdfrwt>
<pdfrwt beam="2">  1       -2 0.12966679E-01 0.52031344E+03</pdfrwt>
<totfact> 0.18592161E+03</totfact>
</mgrwt>
</event>
<event>
 4    1  0.5312547E-005  0.6644725E+03  0.7818608E-02  0.9779995E-01
          2   -1    0    0  501    0  0.00000000000E+00  0.00000000000E+00  0.13663476864E+04  0.13663476864E+04  0.25500000000E-02 0.  1.
         -2   -1    0    0    0  501 -0.00000000000E+00 -0.00000000000E+00 -0.80785386275E+02  0.80785386315E+02  0.25500000000E-02 0. -1.
    5000001    1    1    2    0    0 -0.26553947142E+03 -0.27657012448E+02  0.88015676525E+03  0.93443943230E+03  0.16500000000E+03 0.  0.
   -5000001    1    1    2    0    0  0.26553947142E+03  0.27657012448E+02  0.40540553490E+03  0.51269364044E+03  0.16500000000E+03 0.  0.
<mgrwt>
<rscale>  0 0.66447250E+03</rscale>
<asrwt>0</asrwt>
<pdfrwt beam="1">  1        2 0.19519251E+00 0.66447250E+03</pdfrwt>
<pdfrwt beam="2">  1       -2 0.11540770E-01 0.66447250E+03</pdfrwt>
<totfact> 0.94639993E+02</totfact>
</mgrwt>
</event>
<event>
 4    1  0.5312547E-005  0.6307724E+03  0.7818608E-02  0.9843543E-01
         -2   -1    0    0    0  501 -0.00000000000E+00  0.00000000000E+00  0.19973383604E+03  0.19973383606E+03  0.25500000000E-02 0. -1.
          2   -1    0    0  501    0  0.00000000000E+00 -0.00000000000E+00 -0.49800508403E+03  0.49800508403E+03  0.25500000000E-02 0.  1.
    5000001    1    1    2    0    0 -0.95210740153E+02 -0.20801652815E+03 -0.30520894001E+03  0.41558808704E+03  0.16500000000E+03 0.  0.
   -5000001    1    1    2    0    0  0.95210740153E+02  0.20801652815E+03  0.69376920220E+01  0.28215083306E+03  0.16500000000E+03 0.  0.
<mgrwt>
<rscale>  0 0.63077243E+03</rscale>
<asrwt>0</asrwt>
<pdfrwt beam="1">  1        2 0.71143583E-01 0.63077243E+03</pdfrwt>
<pdfrwt beam="2">  1       -2 0.28533405E-01 0.63077243E+03</pdfrwt>
<totfact> 0.76184120E+02</totfact>
</mgrwt>
</event>
<event>
 4    1  0.5312547E-005  0.6946893E+03  0.7818608E-02  0.9726358E-01
         -2   -1    0    0    0  501 -0.00000000000E+00  0.00000000000E+00  0.37789136016E+02  0.37789136102E+02  0.25500000000E-02 0. -1.
          2   -1    0    0  501    0  0.00000000000E+00 -0.00000000000E+00 -0.31926713231E+04  0.31926713231E+04  0.25500000000E-02 0.  1.
    5000001    1    1    2    0    0 -0.15007217017E+03  0.64361128985E+02 -0.27789573973E+04  0.27886364459E+04  0.16500000000E+03 0.  0.
   -5000001    1    1    2    0    0  0.15007217017E+03 -0.64361128985E+02 -0.37592478974E+03  0.44182401330E+03  0.16500000000E+03 0.  0.
<mgrwt>
<rscale>  0 0.69468926E+03</rscale>
<asrwt>0</asrwt>
<pdfrwt beam="1">  1        2 0.45609573E+00 0.69468926E+03</pdfrwt>
<pdfrwt beam="2">  1       -2 0.53984500E-02 0.69468926E+03</pdfrwt>
<totfact> 0.35590245E+02</totfact>
</mgrwt>
</event>
<event>
 4    1  0.5312547E-005  0.3982270E+03  0.7818608E-02  0.1044395E+00
         -2   -1    0    0    0  501 -0.00000000000E+00  0.00000000000E+00  0.22732145086E+02  0.22732145229E+02  0.25500000000E-02 0. -1.
          2   -1    0    0  501    0  0.00000000000E+00 -0.00000000000E+00 -0.17440583093E+04  0.17440583093E+04  0.25500000000E-02 0.  1.
    5000001    1    1    2    0    0  0.82264717283E+02  0.26713814719E+02 -0.11724953916E+04  0.11872032492E+04  0.16500000000E+03 0.  0.
   -5000001    1    1    2    0    0 -0.82264717283E+02 -0.26713814719E+02 -0.54883077264E+03  0.57958720535E+03  0.16500000000E+03 0.  0.
<mgrwt>
<rscale>  0 0.39822700E+03</rscale>
<asrwt>0</asrwt>
<pdfrwt beam="1">  1        2 0.24915110E+00 0.39822700E+03</pdfrwt>
<pdfrwt beam="2">  1       -2 0.32474504E-02 0.39822700E+03</pdfrwt>
<totfact> 0.44387592E+03</totfact>
</mgrwt>
</event>
<event>
 4    1  0.5312547E-005  0.7495578E+03  0.7818608E-02  0.9636044E-01
         -2   -1    0    0    0  501 -0.00000000000E+00  0.00000000000E+00  0.30774723259E+02  0.30774723365E+02  0.25500000000E-02 0. -1.
          2   -1    0    0  501    0  0.00000000000E+00 -0.00000000000E+00 -0.45641101214E+04  0.45641101214E+04  0.25500000000E-02 0.  1.
    5000001    1    1    2    0    0  0.11022409039E+03  0.31556849729E+03 -0.25041972479E+04  0.25317902131E+04  0.16500000000E+03 0.  0.
   -5000001    1    1    2    0    0 -0.11022409039E+03 -0.31556849729E+03 -0.20291381502E+04  0.20630946317E+04  0.16500000000E+03 0.  0.
<mgrwt>
<rscale>  0 0.74955781E+03</rscale>
<asrwt>0</asrwt>
<pdfrwt beam="1">  1        2 0.65201530E+00 0.74955781E+03</pdfrwt>
<pdfrwt beam="2">  1       -2 0.43963919E-02 0.74955781E+03</pdfrwt>
<totfact> 0.60583410E+01</totfact>
</mgrwt>
</event>
<event>
 4    1  0.5312547E-005  0.5210670E+03  0.7818608E-02  0.1008422E+00
          2   -1    0    0  501    0  0.00000000000E+00  0.00000000000E+00  0.65261378717E+03  0.65261378718E+03  0.25500000000E-02 0.  1.
         -2   -1    0    0    0  501 -0.00000000000E+00 -0.00000000000E+00 -0.10400901407E+03  0.10400901410E+03  0.25500000000E-02 0. -1.
    5000001    1    1    2    0    0 -0.17225701066E+03  0.38143801543E+02  0.41602035036E+03  0.48106689684E+03  0.16500000000E+03 0.  0.
   -5000001    1    1    2    0    0  0.17225701066E+03 -0.38143801543E+02  0.13258442274E+03  0.27555590444E+03  0.16500000000E+03 0.  0.
<mgrwt>
<rscale>  0 0.52106705E+03</rscale>
<asrwt>0</asrwt>
<pdfrwt beam="1">  1        2 0.93230537E-01 0.52106705E+03</pdfrwt>
<pdfrwt beam="2">  1       -2 0.14858431E-01 0.52106705E+03</pdfrwt>
<totfact> 0.17430380E+03</totfact>
</mgrwt>
</event>
<event>
 4    1  0.5312547E-005  0.3964045E+03  0.7818608E-02  0.1045032E+00
         -2   -1    0    0    0  501 -0.00000000000E+00  0.00000000000E+00  0.56085500551E+02  0.56085500609E+02  0.25500000000E-02 0.  1.
          2   -1    0    0  501    0  0.00000000000E+00 -0.00000000000E+00 -0.70043284219E+03  0.70043284219E+03  0.25500000000E-02 0. -1.
    5000001    1    1    2    0    0  0.53210397714E+02 -0.48937671784E+02 -0.16441873591E+03  0.24389498326E+03  0.16500000000E+03 0.  0.
   -5000001    1    1    2    0    0 -0.53210397714E+02  0.48937671784E+02 -0.47992860573E+03  0.51262335954E+03  0.16500000000E+03 0.  0.
<mgrwt>
<rscale>  0 0.39640447E+03</rscale>
<asrwt>0</asrwt>
<pdfrwt beam="1">  1        2 0.10006183E+00 0.39640447E+03</pdfrwt>
<pdfrwt beam="2">  1       -2 0.80122148E-02 0.39640447E+03</pdfrwt>
<totfact> 0.43544383E+03</totfact>
</mgrwt>
</event>
<event>
 4    1  0.5312547E-005  0.5933706E+03  0.7818608E-02  0.9919256E-01
         -2   -1    0    0    0  501 -0.00000000000E+00  0.00000000000E+00  0.37398388571E+03  0.37398388572E+03  0.25500000000E-02 0. -1.
          2   -1    0    0  501    0  0.00000000000E+00 -0.00000000000E+00 -0.23536355963E+03  0.23536355965E+03  0.25500000000E-02 0.  1.
    5000001    1    1    2    0    0 -0.12294176410E+03  0.82919830406E+02 -0.13298843597E+03  0.25865285565E+03  0.16500000000E+03 0.  0.
   -5000001    1    1    2    0    0  0.12294176410E+03 -0.82919830406E+02  0.27160876204E+03  0.35069458971E+03  0.16500000000E+03 0.  0.
<mgrwt>
<rscale>  0 0.59337064E+03</rscale>
<asrwt>0</asrwt>
<pdfrwt beam="1">  1        2 0.33623366E-01 0.59337064E+03</pdfrwt>
<pdfrwt beam="2">  1       -2 0.53426269E-01 0.59337064E+03</pdfrwt>
<totfact> 0.52076247E+02</totfact>
</mgrwt>
</event>
<event>
 4    1  0.5312547E-005  0.4850832E+03  0.7818608E-02  0.1017747E+00
          2   -1    0    0  501    0  0.00000000000E+00  0.00000000000E+00  0.13477166382E+04  0.13477166382E+04  0.25500000000E-02 0.  1.
         -2   -1    0    0    0  501 -0.00000000000E+00 -0.00000000000E+00 -0.43648951514E+02  0.43648951588E+02  0.25500000000E-02 0. -1.
    5000001    1    1    2    0    0  0.17197166340E+03 -0.30035972287E+02  0.55582778922E+03  0.60551295933E+03  0.16500000000E+03 0.  0.
   -5000001    1    1    2    0    0 -0.17197166340E+03  0.30035972287E+02  0.74823989747E+03  0.78585263047E+03  0.16500000000E+03 0.  0.
<mgrwt>
<rscale>  0 0.48508316E+03</rscale>
<asrwt>0</asrwt>
<pdfrwt beam="1">  1        2 0.19253098E+00 0.48508316E+03</pdfrwt>
<pdfrwt beam="2">  1       -2 0.62355635E-02 0.48508316E+03</pdfrwt>
<totfact> 0.26057023E+03</totfact>
</mgrwt>
</event>
<event>
 4    1  0.5312547E-005  0.4407639E+03  0.7818608E-02  0.1030513E+00
         -2   -1    0    0    0  501 -0.00000000000E+00  0.00000000000E+00  0.14317512519E+02  0.14317512746E+02  0.25500000000E-02 0. -1.
          2   -1    0    0  501    0  0.00000000000E+00 -0.00000000000E+00 -0.33922231651E+04  0.33922231651E+04  0.25500000000E-02 0.  1.
    5000001    1    1    2    0    0 -0.26091194437E+01 -0.13084691049E+03 -0.11871525152E+04  0.12056881089E+04  0.16500000000E+03 0.  0.
   -5000001    1    1    2    0    0  0.26091194437E+01  0.13084691049E+03 -0.21907531373E+04  0.22008525689E+04  0.16500000000E+03 0.  0.
<mgrwt>
<rscale>  0 0.44076387E+03</rscale>
<asrwt>0</asrwt>
<pdfrwt beam="1">  1        2 0.48460280E+00 0.44076387E+03</pdfrwt>
<pdfrwt beam="2">  1       -2 0.20453611E-02 0.44076387E+03</pdfrwt>
<totfact> 0.12362524E+03</totfact>
</mgrwt>
</event>
<event>
 4    1  0.5312547E-005  0.5404309E+03  0.7818608E-02  0.1003733E+00
         -2   -1    0    0    0  501 -0.00000000000E+00  0.00000000000E+00  0.20090664297E+03  0.20090664299E+03  0.25500000000E-02 0. -1.
          2   -1    0    0  501    0  0.00000000000E+00 -0.00000000000E+00 -0.36343445945E+03  0.36343445946E+03  0.25500000000E-02 0.  1.
    5000001    1    1    2    0    0  0.20166343331E+03  0.21816084437E+02 -0.15245121405E+03  0.30267218990E+03  0.16500000000E+03 0.  0.
   -5000001    1    1    2    0    0 -0.20166343331E+03 -0.21816084437E+02 -0.10076602421E+02  0.26166891254E+03  0.16500000000E+03 0.  0.
<mgrwt>
<rscale>  0 0.54043093E+03</rscale>
<asrwt>0</asrwt>
<pdfrwt beam="1">  1        2 0.51919208E-01 0.54043093E+03</pdfrwt>
<pdfrwt beam="2">  1       -2 0.28700949E-01 0.54043093E+03</pdfrwt>
<totfact> 0.10727779E+03</totfact>
</mgrwt>
</event>
<event>
 4    1  0.5312547E-005  0.9086233E+03  0.7818608E-02  0.9414866E-01
          2   -1    0    0  501    0  0.00000000000E+00  0.00000000000E+00  0.95658731461E+03  0.95658731461E+03  0.25500000000E-02 0.  1.
         -2   -1    0    0    0  501 -0.00000000000E+00 -0.00000000000E+00 -0.21576606110E+03  0.21576606111E+03  0.25500000000E-02 0. -1.
    5000001    1    1    2    0    0  0.26198882977E+02 -0.27405624336E+03  0.78526412884E+03  0.84832656332E+03  0.16500000000E+03 0.  0.
   -5000001    1    1    2    0    0 -0.26198882977E+02  0.27405624336E+03 -0.44442875323E+02  0.32402681241E+03  0.16500000000E+03 0.  0.
<mgrwt>
<rscale>  0 0.90862330E+03</rscale>
<asrwt>0</asrwt>
<pdfrwt beam="1">  1        2 0.13665533E+00 0.90862330E+03</pdfrwt>
<pdfrwt beam="2">  1       -2 0.30823722E-01 0.90862330E+03</pdfrwt>
<totfact> 0.29125494E+02</totfact>
</mgrwt>
</event>
<event>
 4    1  0.5312547E-005  0.5424792E+03  0.7818608E-02  0.1003250E+00
         -2   -1    0    0    0  501 -0.00000000000E+00  0.00000000000E+00  0.10192889086E+03  0.10192889090E+03  0.25500000000E-02 0. -1.
          2   -1    0    0  501    0  0.00000000000E+00 -0.00000000000E+00 -0.72178685242E+03  0.72178685243E+03  0.25500000000E-02 0.  1.
    5000001    1    1    2    0    0  0.21062710978E+03  0.32302279439E+02 -0.35645131621E+03  0.44686659917E+03  0.16500000000E+03 0.  0.
   -5000001    1    1    2    0    0 -0.21062710978E+03 -0.32302279439E+02 -0.26340664535E+03  0.37684914415E+03  0.16500000000E+03 0.  0.
<mgrwt>
<rscale>  0 0.54247925E+03</rscale>
<asrwt>0</asrwt>
<pdfrwt beam="1">  1        2 0.10311240E+00 0.54247925E+03</pdfrwt>
<pdfrwt beam="2">  1       -2 0.14561271E-01 0.54247925E+03</pdfrwt>
<totfact> 0.15957264E+03</totfact>
</mgrwt>
</event>
<event>
 4    1  0.5312547E-005  0.1069042E+04  0.7818608E-02  0.9235902E-01
         -2   -1    0    0    0  501 -0.00000000000E+00  0.00000000000E+00  0.20364964951E+03  0.20364964953E+03  0.25500000000E-02 0. -1.
          2   -1    0    0  501    0  0.00000000000E+00 -0.00000000000E+00 -0.14029628746E+04  0.14029628746E+04  0.25500000000E-02 0.  1.
    5000001    1    1    2    0    0  0.26859051166E+03  0.16531627787E+03 -0.36420407217E+00  0.35594306753E+03  0.16500000000E+03 0.  0.
   -5000001    1    1    2    0    0 -0.26859051166E+03 -0.16531627787E+03 -0.11989490211E+04  0.12506694566E+04  0.16500000000E+03 0.  0.
<mgrwt>
<rscale>  0 0.10690424E+04</rscale>
<asrwt>0</asrwt>
<pdfrwt beam="1">  1        2 0.20042326E+00 0.10690424E+04</pdfrwt>
<pdfrwt beam="2">  1       -2 0.29092808E-01 0.10690424E+04</pdfrwt>
<totfact> 0.17765436E+02</totfact>
</mgrwt>
</event>
<event>
 4    1  0.5312547E-005  0.4422333E+03  0.7818608E-02  0.1030064E+00
         -2   -1    0    0    0  501 -0.00000000000E+00  0.00000000000E+00  0.20261108020E+02  0.20261108181E+02  0.25500000000E-02 0. -1.
          2   -1    0    0  501    0  0.00000000000E+00 -0.00000000000E+00 -0.24131246091E+04  0.24131246091E+04  0.25500000000E-02 0.  1.
    5000001    1    1    2    0    0  0.11202078715E+03  0.93483280340E+02 -0.13036665857E+04  0.13221419543E+04  0.16500000000E+03 0.  0.
   -5000001    1    1    2    0    0 -0.11202078715E+03 -0.93483280340E+02 -0.10891969153E+04  0.11112437630E+04  0.16500000000E+03 0.  0.
<mgrwt>
<rscale>  0 0.44223333E+03</rscale>
<asrwt>0</asrwt>
<pdfrwt beam="1">  1        2 0.34473190E+00 0.44223333E+03</pdfrwt>
<pdfrwt beam="2">  1       -2 0.28944455E-02 0.44223333E+03</pdfrwt>
<totfact> 0.24492094E+03</totfact>
</mgrwt>
</event>
<event>
 4    1  0.5312547E-005  0.4601294E+03  0.7818608E-02  0.1024744E+00
          2   -1    0    0  501    0  0.00000000000E+00  0.00000000000E+00  0.15070082635E+03  0.15070082637E+03  0.25500000000E-02 0.  1.
         -2   -1    0    0    0  501 -0.00000000000E+00 -0.00000000000E+00 -0.35122410865E+03  0.35122410866E+03  0.25500000000E-02 0. -1.
    5000001    1    1    2    0    0  0.94807512667E+02  0.12928942838E+03 -0.10106521275E+03  0.25128350120E+03  0.16500000000E+03 0.  0.
   -5000001    1    1    2    0    0 -0.94807512667E+02 -0.12928942838E+03 -0.99458069551E+02  0.25064143382E+03  0.16500000000E+03 0.  0.
<mgrwt>
<rscale>  0 0.46012939E+03</rscale>
<asrwt>0</asrwt>
<pdfrwt beam="1">  1        2 0.21528690E-01 0.46012939E+03</pdfrwt>
<pdfrwt beam="2">  1       -2 0.50174872E-01 0.46012939E+03</pdfrwt>
<totfact> 0.98086790E+02</totfact>
</mgrwt>
</event>
<event>
 4    1  0.5312547E-005  0.4126636E+03  0.7818608E-02  0.1039481E+00
          2   -1    0    0  501    0  0.00000000000E+00  0.00000000000E+00  0.61827185869E+03  0.61827185870E+03  0.25500000000E-02 0.  1.
         -2   -1    0    0    0  501 -0.00000000000E+00 -0.00000000000E+00 -0.68857770746E+02  0.68857770793E+02  0.25500000000E-02 0. -1.
    5000001    1    1    2    0    0  0.12102221802E+03  0.20075858753E+02  0.30347077313E+03  0.36656367456E+03  0.16500000000E+03 0.  0.
   -5000001    1    1    2    0    0 -0.12102221802E+03 -0.20075858753E+02  0.24594331481E+03  0.32056595493E+03  0.16500000000E+03 0.  0.
<mgrwt>
<rscale>  0 0.41266365E+03</rscale>
<asrwt>0</asrwt>
<pdfrwt beam="1">  1        2 0.88324550E-01 0.41266365E+03</pdfrwt>
<pdfrwt beam="2">  1       -2 0.98368245E-02 0.41266365E+03</pdfrwt>
<totfact> 0.36454772E+03</totfact>
</mgrwt>
</event>
<event>
 4    1  0.5312547E-005  0.7852197E+03  0.7818608E-02  0.9581661E-01
         -2   -1    0    0    0  501 -0.00000000000E+00  0.00000000000E+00  0.25041262055E+03  0.25041262057E+03  0.25500000000E-02 0. -1.
          2   -1    0    0  501    0  0.00000000000E+00 -0.00000000000E+00 -0.61555405433E+03  0.61555405434E+03  0.25500000000E-02 0.  1.
    5000001    1    1    2    0    0 -0.31608779018E+03 -0.43956787059E+02 -0.79401854498E+01  0.35934904588E+03  0.16500000000E+03 0.  0.
   -5000001    1    1    2    0    0  0.31608779018E+03  0.43956787059E+02 -0.35720124833E+03  0.50661762903E+03  0.16500000000E+03 0.  0.
<mgrwt>
<rscale>  0 0.78521972E+03</rscale>
<asrwt>0</asrwt>
<pdfrwt beam="1">  1        2 0.87936293E-01 0.78521972E+03</pdfrwt>
<pdfrwt beam="2">  1       -2 0.35773232E-01 0.78521972E+03</pdfrwt>
<totfact> 0.38827862E+02</totfact>
</mgrwt>
</event>
<event>
 4    1  0.5312547E-005  0.5105214E+03  0.7818608E-02  0.1011069E+00
          2   -1    0    0  501    0  0.00000000000E+00  0.00000000000E+00  0.30310459775E+04  0.30310459775E+04  0.25500000000E-02 0.  1.
         -2   -1    0    0    0  501 -0.00000000000E+00 -0.00000000000E+00 -0.21496877039E+02  0.21496877190E+02  0.25500000000E-02 0. -1.
    5000001    1    1    2    0    0  0.30013341270E+02 -0.17141831285E+03  0.20276777727E+04  0.20418097826E+04  0.16500000000E+03 0.  0.
   -5000001    1    1    2    0    0 -0.30013341270E+02  0.17141831285E+03  0.98187132778E+03  0.10107330721E+04  0.16500000000E+03 0.  0.
<mgrwt>
<rscale>  0 0.51052139E+03</rscale>
<asrwt>0</asrwt>
<pdfrwt beam="1">  1        2 0.43300682E+00 0.51052139E+03</pdfrwt>
<pdfrwt beam="2">  1       -2 0.30709807E-02 0.51052139E+03</pdfrwt>
<totfact> 0.10604695E+03</totfact>
</mgrwt>
</event>
<event>
 4    1  0.5312547E-005  0.5286159E+03  0.7818608E-02  0.1006568E+00
          2   -1    0    0  501    0  0.00000000000E+00  0.00000000000E+00  0.34679471141E+03  0.34679471142E+03  0.25500000000E-02 0.  1.
         -2   -1    0    0    0  501 -0.00000000000E+00 -0.00000000000E+00 -0.20144103604E+03  0.20144103606E+03  0.25500000000E-02 0. -1.
    5000001    1    1    2    0    0  0.96105971927E+02 -0.17107558722E+03  0.13933095287E+03  0.29178987099E+03  0.16500000000E+03 0.  0.
   -5000001    1    1    2    0    0 -0.96105971927E+02  0.17107558722E+03  0.60227225025E+01  0.25644587649E+03  0.16500000000E+03 0.  0.
<mgrwt>
<rscale>  0 0.52861588E+03</rscale>
<asrwt>0</asrwt>
<pdfrwt beam="1">  1        2 0.49542102E-01 0.52861588E+03</pdfrwt>
<pdfrwt beam="2">  1       -2 0.28777291E-01 0.52861588E+03</pdfrwt>
<totfact> 0.11241895E+03</totfact>
</mgrwt>
</event>
<event>
 4    1  0.5312547E-005  0.5491822E+03  0.7818608E-02  0.1001683E+00
          2   -1    0    0  501    0  0.00000000000E+00  0.00000000000E+00  0.18220995136E+04  0.18220995136E+04  0.25500000000E-02 0.  1.
         -2   -1    0    0    0  501 -0.00000000000E+00 -0.00000000000E+00 -0.41380988499E+02  0.41380988577E+02  0.25500000000E-02 0. -1.
    5000001    1    1    2    0    0  0.66739159518E+02  0.20857557386E+03  0.94038941459E+03  0.97954843500E+03  0.16500000000E+03 0.  0.
   -5000001    1    1    2    0    0 -0.66739159518E+02 -0.20857557386E+03  0.84032911051E+03  0.88393206718E+03  0.16500000000E+03 0.  0.
<mgrwt>
<rscale>  0 0.54918223E+03</rscale>
<asrwt>0</asrwt>
<pdfrwt beam="1">  1        2 0.26029997E+00 0.54918223E+03</pdfrwt>
<pdfrwt beam="2">  1       -2 0.59115689E-02 0.54918223E+03</pdfrwt>
<totfact> 0.16125714E+03</totfact>
</mgrwt>
</event>
<event>
 4    1  0.5312547E-005  0.6177471E+03  0.7818608E-02  0.9869255E-01
          2   -1    0    0  501    0  0.00000000000E+00  0.00000000000E+00  0.11374992984E+04  0.11374992984E+04  0.25500000000E-02 0.  1.
         -2   -1    0    0    0  501 -0.00000000000E+00 -0.00000000000E+00 -0.83870719427E+02  0.83870719465E+02  0.25500000000E-02 0. -1.
    5000001    1    1    2    0    0  0.44230496352E+02  0.23894092795E+03  0.71571904564E+03  0.77364582087E+03  0.16500000000E+03 0.  0.
   -5000001    1    1    2    0    0 -0.44230496352E+02 -0.23894092795E+03  0.33790953333E+03  0.44772419700E+03  0.16500000000E+03 0.  0.
<mgrwt>
<rscale>  0 0.61774715E+03</rscale>
<asrwt>0</asrwt>
<pdfrwt beam="1">  1        2 0.16249990E+00 0.61774715E+03</pdfrwt>
<pdfrwt beam="2">  1       -2 0.11981532E-01 0.61774715E+03</pdfrwt>
<totfact> 0.11929853E+03</totfact>
</mgrwt>
</event>
<event>
 4    1  0.5312547E-005  0.3771431E+03  0.7818608E-02  0.1051995E+00
          2   -1    0    0  501    0  0.00000000000E+00  0.00000000000E+00  0.23460333150E+03  0.23460333151E+03  0.25500000000E-02 0.  1.
         -2   -1    0    0    0  501 -0.00000000000E+00 -0.00000000000E+00 -0.15157171479E+03  0.15157171482E+03  0.25500000000E-02 0. -1.
    5000001    1    1    2    0    0  0.30973334992E+02 -0.85492980299E+02  0.49823816048E+02  0.19487383048E+03  0.16500000000E+03 0.  0.
   -5000001    1    1    2    0    0 -0.30973334992E+02  0.85492980299E+02  0.33207800659E+02  0.19130121585E+03  0.16500000000E+03 0.  0.
<mgrwt>
<rscale>  0 0.37714310E+03</rscale>
<asrwt>0</asrwt>
<pdfrwt beam="1">  1        2 0.33514761E-01 0.37714310E+03</pdfrwt>
<pdfrwt beam="2">  1       -2 0.21653102E-01 0.37714310E+03</pdfrwt>
<totfact> 0.28585187E+03</totfact>
</mgrwt>
</event>
<event>
 4    1  0.5312547E-005  0.3604738E+03  0.7818608E-02  0.1058396E+00
         -2   -1    0    0    0  501 -0.00000000000E+00  0.00000000000E+00  0.11084610573E+03  0.11084610576E+03  0.25500000000E-02 0. -1.
          2   -1    0    0  501    0  0.00000000000E+00 -0.00000000000E+00 -0.29306702619E+03  0.29306702620E+03  0.25500000000E-02 0.  1.
    5000001    1    1    2    0    0  0.63283265958E+02  0.22383456135E+02 -0.12188968196E+03  0.21584226979E+03  0.16500000000E+03 0.  0.
   -5000001    1    1    2    0    0 -0.63283265958E+02 -0.22383456135E+02 -0.60331238504E+02  0.18807086217E+03  0.16500000000E+03 0.  0.
<mgrwt>
<rscale>  0 0.36047379E+03</rscale>
<asrwt>0</asrwt>
<pdfrwt beam="1">  1        2 0.41866718E-01 0.36047379E+03</pdfrwt>
<pdfrwt beam="2">  1       -2 0.15835158E-01 0.36047379E+03</pdfrwt>
<totfact> 0.38192413E+03</totfact>
</mgrwt>
</event>
<event>
 4    1  0.5312547E-005  0.4838522E+03  0.7818608E-02  0.1018082E+00
         -2   -1    0    0    0  501 -0.00000000000E+00  0.00000000000E+00  0.27656580543E+03  0.27656580544E+03  0.25500000000E-02 0. -1.
          2   -1    0    0  501    0  0.00000000000E+00 -0.00000000000E+00 -0.21162503006E+03  0.21162503008E+03  0.25500000000E-02 0.  1.
    5000001    1    1    2    0    0  0.46155490168E+02  0.56278272405E+02 -0.13023836776E+03  0.22245135571E+03  0.16500000000E+03 0.  0.
   -5000001    1    1    2    0    0 -0.46155490168E+02 -0.56278272405E+02  0.19517914313E+03  0.26573947981E+03  0.16500000000E+03 0.  0.
<mgrwt>
<rscale>  0 0.48385224E+03</rscale>
<asrwt>0</asrwt>
<pdfrwt beam="1">  1        2 0.30232147E-01 0.48385224E+03</pdfrwt>
<pdfrwt beam="2">  1       -2 0.39509401E-01 0.48385224E+03</pdfrwt>
<totfact> 0.10694325E+03</totfact>
</mgrwt>
</event>
<event>
 4    1  0.5312547E-005  0.1239857E+04  0.7818608E-02  0.9078668E-01
         -2   -1    0    0    0  501 -0.00000000000E+00  0.00000000000E+00  0.13488763079E+03  0.13488763082E+03  0.25500000000E-02 0. -1.
          2   -1    0    0  501    0  0.00000000000E+00 -0.00000000000E+00 -0.28491224601E+04  0.28491224601E+04  0.25500000000E-02 0.  1.
    5000001    1    1    2    0    0  0.46949350689E+03 -0.36924999381E+03 -0.13999456790E+04  0.15309613369E+04  0.16500000000E+03 0.  0.
   -5000001    1    1    2    0    0 -0.46949350689E+03  0.36924999381E+03 -0.13142891504E+04  0.14530487541E+04  0.16500000000E+03 0.  0.
<mgrwt>
<rscale>  0 0.12398571E+04</rscale>
<asrwt>0</asrwt>
<pdfrwt beam="1">  1        2 0.40701746E+00 0.12398571E+04</pdfrwt>
<pdfrwt beam="2">  1       -2 0.19269663E-01 0.12398571E+04</pdfrwt>
<totfact> 0.64770925E+01</totfact>
</mgrwt>
</event>
<event>
 4    1  0.5312547E-005  0.8938977E+03  0.7818608E-02  0.9433242E-01
          2   -1    0    0  501    0  0.00000000000E+00  0.00000000000E+00  0.20241213323E+04  0.20241213323E+04  0.25500000000E-02 0.  1.
         -2   -1    0    0    0  501 -0.00000000000E+00 -0.00000000000E+00 -0.98691361358E+02  0.98691361391E+02  0.25500000000E-02 0. -1.
    5000001    1    1    2    0    0  0.42362242018E+02  0.39270344564E+03  0.12680175821E+04  0.13383213905E+04  0.16500000000E+03 0.  0.
   -5000001    1    1    2    0    0 -0.42362242018E+02 -0.39270344564E+03  0.65741238882E+03  0.78449130317E+03  0.16500000000E+03 0.  0.
<mgrwt>
<rscale>  0 0.89389773E+03</rscale>
<asrwt>0</asrwt>
<pdfrwt beam="1">  1        2 0.28916018E+00 0.89389773E+03</pdfrwt>
<pdfrwt beam="2">  1       -2 0.14098766E-01 0.89389773E+03</pdfrwt>
<totfact> 0.30636834E+02</totfact>
</mgrwt>
</event>
<event>
 4    1  0.5312547E-005  0.6581328E+03  0.7818608E-02  0.9791637E-01
          2   -1    0    0  501    0  0.00000000000E+00  0.00000000000E+00  0.43453787325E+03  0.43453787326E+03  0.25500000000E-02 0.  1.
         -2   -1    0    0    0  501 -0.00000000000E+00 -0.00000000000E+00 -0.24919510559E+03  0.24919510561E+03  0.25500000000E-02 0. -1.
    5000001    1    1    2    0    0  0.23293655900E+03  0.30202116274E+02 -0.74485041005E+02  0.29655459814E+03  0.16500000000E+03 0.  0.
   -5000001    1    1    2    0    0 -0.23293655900E+03 -0.30202116274E+02  0.25982780867E+03  0.38717838072E+03  0.16500000000E+03 0.  0.
<mgrwt>
<rscale>  0 0.65813285E+03</rscale>
<asrwt>0</asrwt>
<pdfrwt beam="1">  1        2 0.62076840E-01 0.65813285E+03</pdfrwt>
<pdfrwt beam="2">  1       -2 0.35599300E-01 0.65813285E+03</pdfrwt>
<totfact> 0.58748496E+02</totfact>
</mgrwt>
</event>
<event>
 4    1  0.5312547E-005  0.6391232E+03  0.7818608E-02  0.9827406E-01
         -2   -1    0    0    0  501 -0.00000000000E+00  0.00000000000E+00  0.32691725191E+02  0.32691725290E+02  0.25500000000E-02 0. -1.
          2   -1    0    0  501    0  0.00000000000E+00 -0.00000000000E+00 -0.31237144636E+04  0.31237144636E+04  0.25500000000E-02 0.  1.
    5000001    1    1    2    0    0  0.72638977594E+02  0.23473946030E+03 -0.21405230594E+04  0.21608894010E+04  0.16500000000E+03 0.  0.
   -5000001    1    1    2    0    0 -0.72638977594E+02 -0.23473946030E+03 -0.95049967898E+03  0.99551678792E+03  0.16500000000E+03 0.  0.
<mgrwt>
<rscale>  0 0.63912320E+03</rscale>
<asrwt>0</asrwt>
<pdfrwt beam="1">  1        2 0.44624474E+00 0.63912320E+03</pdfrwt>
<pdfrwt beam="2">  1       -2 0.46702484E-02 0.63912320E+03</pdfrwt>
<totfact> 0.49006371E+02</totfact>
</mgrwt>
</event>
<event>
 4    1  0.5312547E-005  0.4487687E+03  0.7818608E-02  0.1028090E+00
          2   -1    0    0  501    0  0.00000000000E+00  0.00000000000E+00  0.73084780757E+03  0.73084780757E+03  0.25500000000E-02 0.  1.
         -2   -1    0    0    0  501 -0.00000000000E+00 -0.00000000000E+00 -0.68890305002E+02  0.68890305049E+02  0.25500000000E-02 0. -1.
    5000001    1    1    2    0    0  0.14362868005E+03  0.40353099972E+02  0.27854347962E+03  0.35646744655E+03  0.16500000000E+03 0.  0.
   -5000001    1    1    2    0    0 -0.14362868005E+03 -0.40353099972E+02  0.38341402295E+03  0.44327066607E+03  0.16500000000E+03 0.  0.
<mgrwt>
<rscale>  0 0.44876866E+03</rscale>
<asrwt>0</asrwt>
<pdfrwt beam="1">  1        2 0.10440683E+00 0.44876866E+03</pdfrwt>
<pdfrwt beam="2">  1       -2 0.98414722E-02 0.44876866E+03</pdfrwt>
<totfact> 0.29851682E+03</totfact>
</mgrwt>
</event>
<event>
 4    1  0.5312547E-005  0.6365571E+03  0.7818608E-02  0.9832336E-01
         -2   -1    0    0    0  501 -0.00000000000E+00  0.00000000000E+00  0.16567742761E+03  0.16567742763E+03  0.25500000000E-02 0. -1.
          2   -1    0    0  501    0  0.00000000000E+00 -0.00000000000E+00 -0.61143661010E+03  0.61143661011E+03  0.25500000000E-02 0.  1.
    5000001    1    1    2    0    0 -0.11209329876E+03  0.15820566312E+03 -0.45605809111E+03  0.52231017790E+03  0.16500000000E+03 0.  0.
   -5000001    1    1    2    0    0  0.11209329876E+03 -0.15820566312E+03  0.10298908626E+02  0.25480385984E+03  0.16500000000E+03 0.  0.
<mgrwt>
<rscale>  0 0.63655713E+03</rscale>
<asrwt>0</asrwt>
<pdfrwt beam="1">  1        2 0.87348086E-01 0.63655713E+03</pdfrwt>
<pdfrwt beam="2">  1       -2 0.23668204E-01 0.63655713E+03</pdfrwt>
<totfact> 0.84189370E+02</totfact>
</mgrwt>
</event>
<event>
 4    1  0.5312547E-005  0.6162794E+03  0.7818608E-02  0.9872195E-01
          2   -1    0    0  501    0  0.00000000000E+00  0.00000000000E+00  0.23022099726E+04  0.23022099726E+04  0.25500000000E-02 0.  1.
         -2   -1    0    0    0  501 -0.00000000000E+00 -0.00000000000E+00 -0.41243012232E+02  0.41243012311E+02  0.25500000000E-02 0. -1.
    5000001    1    1    2    0    0  0.11089668088E+02 -0.24727228960E+03  0.14360773959E+04  0.14665639614E+04  0.16500000000E+03 0.  0.
   -5000001    1    1    2    0    0 -0.11089668088E+02  0.24727228960E+03  0.82488956449E+03  0.87688902350E+03  0.16500000000E+03 0.  0.
<mgrwt>
<rscale>  0 0.61627940E+03</rscale>
<asrwt>0</asrwt>
<pdfrwt beam="1">  1        2 0.32888711E+00 0.61627940E+03</pdfrwt>
<pdfrwt beam="2">  1       -2 0.58918595E-02 0.61627940E+03</pdfrwt>
<totfact> 0.92646221E+02</totfact>
</mgrwt>
</event>
<event>
 4    1  0.5312547E-005  0.5880216E+03  0.7818608E-02  0.9930574E-01
         -2   -1    0    0    0  501 -0.00000000000E+00  0.00000000000E+00  0.96786485158E+02  0.96786485191E+02  0.25500000000E-02 0. -1.
          2   -1    0    0  501    0  0.00000000000E+00 -0.00000000000E+00 -0.89312417923E+03  0.89312417923E+03  0.25500000000E-02 0.  1.
    5000001    1    1    2    0    0 -0.20283679729E+03 -0.52238950767E+02 -0.60671190341E+03  0.66271864924E+03  0.16500000000E+03 0.  0.
   -5000001    1    1    2    0    0  0.20283679729E+03  0.52238950767E+02 -0.18962579066E+03  0.32719201518E+03  0.16500000000E+03 0.  0.
<mgrwt>
<rscale>  0 0.58802160E+03</rscale>
<asrwt>0</asrwt>
<pdfrwt beam="1">  1        2 0.12758916E+00 0.58802160E+03</pdfrwt>
<pdfrwt beam="2">  1       -2 0.13826641E-01 0.58802160E+03</pdfrwt>
<totfact> 0.13246458E+03</totfact>
</mgrwt>
</event>
<event>
 4    1  0.5312547E-005  0.6808828E+03  0.7818608E-02  0.9750495E-01
          2   -1    0    0  501    0  0.00000000000E+00  0.00000000000E+00  0.13212392983E+04  0.13212392983E+04  0.25500000000E-02 0.  1.
         -2   -1    0    0    0  501 -0.00000000000E+00 -0.00000000000E+00 -0.87720945071E+02  0.87720945108E+02  0.25500000000E-02 0. -1.
    5000001    1    1    2    0    0 -0.24793028634E+03 -0.14544883636E+03  0.45579676812E+03  0.56356054219E+03  0.16500000000E+03 0.  0.
   -5000001    1    1    2    0    0  0.24793028634E+03  0.14544883636E+03  0.77772158512E+03  0.84539970123E+03  0.16500000000E+03 0.  0.
<mgrwt>
<rscale>  0 0.68088284E+03</rscale>
<asrwt>0</asrwt>
<pdfrwt beam="1">  1        2 0.18874848E+00 0.68088284E+03</pdfrwt>
<pdfrwt beam="2">  1       -2 0.12531563E-01 0.68088284E+03</pdfrwt>
<totfact> 0.87322908E+02</totfact>
</mgrwt>
</event>
<event>
 4    1  0.5312547E-005  0.3983064E+03  0.7818608E-02  0.1044368E+00
          2   -1    0    0  501    0  0.00000000000E+00  0.00000000000E+00  0.24673914175E+04  0.24673914175E+04  0.25500000000E-02 0.  1.
         -2   -1    0    0    0  501 -0.00000000000E+00 -0.00000000000E+00 -0.16074465977E+02  0.16074466179E+02  0.25500000000E-02 0. -1.
    5000001    1    1    2    0    0  0.11483611179E+01 -0.10912262178E+03  0.13689204232E+04  0.13831403365E+04  0.16500000000E+03 0.  0.
   -5000001    1    1    2    0    0 -0.11483611179E+01  0.10912262178E+03  0.10823965283E+04  0.11003255472E+04  0.16500000000E+03 0.  0.
<mgrwt>
<rscale>  0 0.39830641E+03</rscale>
<asrwt>0</asrwt>
<pdfrwt beam="1">  1        2 0.35248471E+00 0.39830641E+03</pdfrwt>
<pdfrwt beam="2">  1       -2 0.22963509E-02 0.39830641E+03</pdfrwt>
<totfact> 0.32609484E+03</totfact>
</mgrwt>
</event>
<event>
 4    1  0.5312547E-005  0.4993465E+03  0.7818608E-02  0.1013950E+00
          2   -1    0    0  501    0  0.00000000000E+00  0.00000000000E+00  0.89833603596E+03  0.89833603597E+03  0.25500000000E-02 0.  1.
         -2   -1    0    0    0  501 -0.00000000000E+00 -0.00000000000E+00 -0.69391327494E+02  0.69391327541E+02  0.25500000000E-02 0. -1.
    5000001    1    1    2    0    0 -0.18219161274E+03  0.22144131947E+02  0.48769607901E+03  0.54658632604E+03  0.16500000000E+03 0.  0.
   -5000001    1    1    2    0    0  0.18219161274E+03 -0.22144131947E+02  0.34124862946E+03  0.42114103747E+03  0.16500000000E+03 0.  0.
<mgrwt>
<rscale>  0 0.49934649E+03</rscale>
<asrwt>0</asrwt>
<pdfrwt beam="1">  1        2 0.12833372E+00 0.49934649E+03</pdfrwt>
<pdfrwt beam="2">  1       -2 0.99130470E-02 0.49934649E+03</pdfrwt>
<totfact> 0.22697847E+03</totfact>
</mgrwt>
</event>
<event>
 4    1  0.5312547E-005  0.4682998E+03  0.7818608E-02  0.1022401E+00
          2   -1    0    0  501    0  0.00000000000E+00  0.00000000000E+00  0.51889703458E+04  0.51889703459E+04  0.25500000000E-02 0.  1.
         -2   -1    0    0    0  501 -0.00000000000E+00 -0.00000000000E+00 -0.10565904559E+02  0.10565904867E+02  0.25500000000E-02 0. -1.
    5000001    1    1    2    0    0  0.14354751870E+03 -0.74030011432E+01  0.35141882404E+04  0.35209948429E+04  0.16500000000E+03 0.  0.
   -5000001    1    1    2    0    0 -0.14354751870E+03  0.74030011432E+01  0.16642162009E+04  0.16785414078E+04  0.16500000000E+03 0.  0.
<mgrwt>
<rscale>  0 0.46829976E+03</rscale>
<asrwt>0</asrwt>
<pdfrwt beam="1">  1        2 0.74127892E+00 0.46829976E+03</pdfrwt>
<pdfrwt beam="2">  1       -2 0.15094202E-02 0.46829976E+03</pdfrwt>
<totfact> 0.89035864E+01</totfact>
</mgrwt>
</event>
<event>
 4    1  0.5312547E-005  0.4888897E+03  0.7818608E-02  0.1016720E+00
          2   -1    0    0  501    0  0.00000000000E+00  0.00000000000E+00  0.22929153877E+03  0.22929153879E+03  0.25500000000E-02 0.  1.
         -2   -1    0    0    0  501 -0.00000000000E+00 -0.00000000000E+00 -0.26059956022E+03  0.26059956023E+03  0.25500000000E-02 0. -1.
    5000001    1    1    2    0    0  0.11699799769E+03  0.62160900916E+02 -0.13828019344E+03  0.25278235888E+03  0.16500000000E+03 0.  0.
   -5000001    1    1    2    0    0 -0.11699799769E+03 -0.62160900916E+02  0.10697217200E+03  0.23710874013E+03  0.16500000000E+03 0.  0.
<mgrwt>
<rscale>  0 0.48888966E+03</rscale>
<asrwt>0</asrwt>
<pdfrwt beam="1">  1        2 0.32755934E-01 0.48888966E+03</pdfrwt>
<pdfrwt beam="2">  1       -2 0.37228508E-01 0.48888966E+03</pdfrwt>
<totfact> 0.10963137E+03</totfact>
</mgrwt>
</event>
<event>
 4    1  0.5312547E-005  0.5660116E+03  0.7818608E-02  0.9978543E-01
          2   -1    0    0  501    0  0.00000000000E+00  0.00000000000E+00  0.23351963166E+04  0.23351963166E+04  0.25500000000E-02 0.  1.
         -2   -1    0    0    0  501 -0.00000000000E+00 -0.00000000000E+00 -0.34297884360E+02  0.34297884455E+02  0.25500000000E-02 0. -1.
    5000001    1    1    2    0    0 -0.62714955237E+02 -0.21012946984E+03  0.14398716139E+04  0.14657908529E+04  0.16500000000E+03 0.  0.
   -5000001    1    1    2    0    0  0.62714955237E+02  0.21012946984E+03  0.86102681831E+03  0.90370334821E+03  0.16500000000E+03 0.  0.
<mgrwt>
<rscale>  0 0.56601164E+03</rscale>
<asrwt>0</asrwt>
<pdfrwt beam="1">  1        2 0.33359942E+00 0.56601164E+03</pdfrwt>
<pdfrwt beam="2">  1       -2 0.48996985E-02 0.56601164E+03</pdfrwt>
<totfact> 0.11918214E+03</totfact>
</mgrwt>
</event>
<event>
 4    1  0.5312547E-005  0.4355419E+03  0.7818608E-02  0.1032123E+00
         -2   -1    0    0    0  501 -0.00000000000E+00  0.00000000000E+00  0.28539275887E+02  0.28539276001E+02  0.25500000000E-02 0. -1.
          2   -1    0    0  501    0  0.00000000000E+00 -0.00000000000E+00 -0.16617162833E+04  0.16617162833E+04  0.25500000000E-02 0.  1.
    5000001    1    1    2    0    0 -0.10012612377E+03  0.92465122320E+02 -0.66018942102E+03  0.69401016645E+03  0.16500000000E+03 0.  0.
   -5000001    1    1    2    0    0  0.10012612377E+03 -0.92465122320E+02 -0.97298758641E+03  0.99624539287E+03  0.16500000000E+03 0.  0.
<mgrwt>
<rscale>  0 0.43554187E+03</rscale>
<asrwt>0</asrwt>
<pdfrwt beam="1">  1        2 0.23738798E+00 0.43554187E+03</pdfrwt>
<pdfrwt beam="2">  1       -2 0.40770405E-02 0.43554187E+03</pdfrwt>
<totfact> 0.34561312E+03</totfact>
</mgrwt>
</event>
<event>
 4    1  0.5312547E-005  0.5124919E+03  0.7818608E-02  0.1010569E+00
         -2   -1    0    0    0  501 -0.00000000000E+00  0.00000000000E+00  0.62885349868E+02  0.62885349920E+02  0.25500000000E-02 0. -1.
          2   -1    0    0  501    0  0.00000000000E+00 -0.00000000000E+00 -0.10441538773E+04  0.10441538773E+04  0.25500000000E-02 0.  1.
    5000001    1    1    2    0    0  0.64890901919E+02  0.17310872693E+03 -0.63161391262E+03  0.67848256802E+03  0.16500000000E+03 0.  0.
   -5000001    1    1    2    0    0 -0.64890901919E+02 -0.17310872693E+03 -0.34965461482E+03  0.42855665921E+03  0.16500000000E+03 0.  0.
<mgrwt>
<rscale>  0 0.51249188E+03</rscale>
<asrwt>0</asrwt>
<pdfrwt beam="1">  1        2 0.14916483E+00 0.51249188E+03</pdfrwt>
<pdfrwt beam="2">  1       -2 0.89836221E-02 0.51249188E+03</pdfrwt>
<totfact> 0.21622616E+03</totfact>
</mgrwt>
</event>
<event>
 4    1  0.5312547E-005  0.5233255E+03  0.7818608E-02  0.1007864E+00
         -2   -1    0    0    0  501 -0.00000000000E+00  0.00000000000E+00  0.15372005338E+03  0.15372005340E+03  0.25500000000E-02 0. -1.
          2   -1    0    0  501    0  0.00000000000E+00 -0.00000000000E+00 -0.44540307805E+03  0.44540307805E+03  0.25500000000E-02 0.  1.
    5000001    1    1    2    0    0 -0.14024369643E+03  0.96086975628E+02 -0.18659366409E+02  0.23764295325E+03  0.16500000000E+03 0.  0.
   -5000001    1    1    2    0    0  0.14024369643E+03 -0.96086975628E+02 -0.27302365825E+03  0.36148017821E+03  0.16500000000E+03 0.  0.
<mgrwt>
<rscale>  0 0.52332546E+03</rscale>
<asrwt>0</asrwt>
<pdfrwt beam="1">  1        2 0.63629011E-01 0.52332546E+03</pdfrwt>
<pdfrwt beam="2">  1       -2 0.21960008E-01 0.52332546E+03</pdfrwt>
<totfact> 0.13836675E+03</totfact>
</mgrwt>
</event>
<event>
 4    1  0.5312547E-005  0.6319272E+03  0.7818608E-02  0.9841295E-01
         -2   -1    0    0    0  501 -0.00000000000E+00  0.00000000000E+00  0.46391785467E+02  0.46391785538E+02  0.25500000000E-02 0. -1.
          2   -1    0    0  501    0  0.00000000000E+00 -0.00000000000E+00 -0.21519538658E+04  0.21519538658E+04  0.25500000000E-02 0.  1.
    5000001    1    1    2    0    0  0.20449008431E+03  0.12653670763E+03 -0.14757123516E+04  0.15042538608E+04  0.16500000000E+03 0.  0.
   -5000001    1    1    2    0    0 -0.20449008431E+03 -0.12653670763E+03 -0.62984972875E+03  0.69409179059E+03  0.16500000000E+03 0.  0.
<mgrwt>
<rscale>  0 0.63192715E+03</rscale>
<asrwt>0</asrwt>
<pdfrwt beam="1">  1        2 0.30742192E+00 0.63192715E+03</pdfrwt>
<pdfrwt beam="2">  1       -2 0.66273993E-02 0.63192715E+03</pdfrwt>
<totfact> 0.91625656E+02</totfact>
</mgrwt>
</event>
<event>
 4    1  0.5312547E-005  0.8377073E+03  0.7818608E-02  0.9506986E-01
          2   -1    0    0  501    0  0.00000000000E+00  0.00000000000E+00  0.53205133381E+03  0.53205133382E+03  0.25500000000E-02 0.  1.
         -2   -1    0    0    0  501 -0.00000000000E+00 -0.00000000000E+00 -0.32973957331E+03  0.32973957332E+03  0.25500000000E-02 0. -1.
    5000001    1    1    2    0    0 -0.11813257700E+03  0.25688302548E+03 -0.16763960371E+03  0.36779373466E+03  0.16500000000E+03 0.  0.
   -5000001    1    1    2    0    0  0.11813257700E+03 -0.25688302548E+03  0.36995136421E+03  0.49399717247E+03  0.16500000000E+03 0.  0.
<mgrwt>
<rscale>  0 0.83770730E+03</rscale>
<asrwt>0</asrwt>
<pdfrwt beam="1">  1        2 0.76007334E-01 0.83770730E+03</pdfrwt>
<pdfrwt beam="2">  1       -2 0.47105653E-01 0.83770730E+03</pdfrwt>
<totfact> 0.26821260E+02</totfact>
</mgrwt>
</event>
<event>
 4    1  0.5312547E-005  0.6260894E+03  0.7818608E-02  0.9852710E-01
         -2   -1    0    0    0  501 -0.00000000000E+00  0.00000000000E+00  0.11357550708E+03  0.11357550710E+03  0.25500000000E-02 0. -1.
          2   -1    0    0  501    0  0.00000000000E+00 -0.00000000000E+00 -0.86283546664E+03  0.86283546664E+03  0.25500000000E-02 0.  1.
    5000001    1    1    2    0    0  0.25418771094E+03  0.50613167920E+02 -0.46818791666E+03  0.55999822363E+03  0.16500000000E+03 0.  0.
   -5000001    1    1    2    0    0 -0.25418771094E+03 -0.50613167920E+02 -0.28107204290E+03  0.41641275012E+03  0.16500000000E+03 0.  0.
<mgrwt>
<rscale>  0 0.62608937E+03</rscale>
<asrwt>0</asrwt>
<pdfrwt beam="1">  1        2 0.12326221E+00 0.62608937E+03</pdfrwt>
<pdfrwt beam="2">  1       -2 0.16225073E-01 0.62608937E+03</pdfrwt>
<totfact> 0.10584396E+03</totfact>
</mgrwt>
</event>
<event>
 4    1  0.5312547E-005  0.5322832E+03  0.7818608E-02  0.1005680E+00
          2   -1    0    0  501    0  0.00000000000E+00  0.00000000000E+00  0.24338593560E+04  0.24338593560E+04  0.25500000000E-02 0.  1.
         -2   -1    0    0    0  501 -0.00000000000E+00 -0.00000000000E+00 -0.29102479346E+02  0.29102479458E+02  0.25500000000E-02 0. -1.
    5000001    1    1    2    0    0 -0.57111667133E+02  0.14543730652E+03  0.56134344869E+03  0.60559493066E+03  0.16500000000E+03 0.  0.
   -5000001    1    1    2    0    0  0.57111667133E+02 -0.14543730652E+03  0.18434134280E+04  0.18573669048E+04  0.16500000000E+03 0.  0.
<mgrwt>
<rscale>  0 0.53228316E+03</rscale>
<asrwt>0</asrwt>
<pdfrwt beam="1">  1        2 0.34769418E+00 0.53228316E+03</pdfrwt>
<pdfrwt beam="2">  1       -2 0.41574972E-02 0.53228316E+03</pdfrwt>
<totfact> 0.13711122E+03</totfact>
</mgrwt>
</event>
<event>
 4    1  0.5312547E-005  0.6810061E+03  0.7818608E-02  0.9750277E-01
          2   -1    0    0  501    0  0.00000000000E+00  0.00000000000E+00  0.25998238265E+04  0.25998238265E+04  0.25500000000E-02 0.  1.
         -2   -1    0    0    0  501 -0.00000000000E+00 -0.00000000000E+00 -0.44596230916E+02  0.44596230988E+02  0.25500000000E-02 0. -1.
    5000001    1    1    2    0    0 -0.65234452134E+02 -0.23494140438E+03  0.19418902000E+04  0.19640813491E+04  0.16500000000E+03 0.  0.
   -5000001    1    1    2    0    0  0.65234452134E+02  0.23494140438E+03  0.61333739560E+03  0.68033870835E+03  0.16500000000E+03 0.  0.
<mgrwt>
<rscale>  0 0.68100615E+03</rscale>
<asrwt>0</asrwt>
<pdfrwt beam="1">  1        2 0.37140353E+00 0.68100615E+03</pdfrwt>
<pdfrwt beam="2">  1       -2 0.63708879E-02 0.68100615E+03</pdfrwt>
<totfact> 0.57391959E+02</totfact>
</mgrwt>
</event>
<event>
 4    1  0.5312547E-005  0.5246777E+03  0.7818608E-02  0.1007531E+00
         -2   -1    0    0    0  501 -0.00000000000E+00  0.00000000000E+00  0.28172055226E+02  0.28172055342E+02  0.25500000000E-02 0. -1.
          2   -1    0    0  501    0  0.00000000000E+00 -0.00000000000E+00 -0.24429059524E+04  0.24429059524E+04  0.25500000000E-02 0.  1.
    5000001    1    1    2    0    0 -0.30422775244E+02 -0.20163779407E+03 -0.12245662770E+04  0.12523461630E+04  0.16500000000E+03 0.  0.
   -5000001    1    1    2    0    0  0.30422775244E+02  0.20163779407E+03 -0.11901676202E+04  0.12187318448E+04  0.16500000000E+03 0.  0.
<mgrwt>
<rscale>  0 0.52467774E+03</rscale>
<asrwt>0</asrwt>
<pdfrwt beam="1">  1        2 0.34898643E+00 0.52467774E+03</pdfrwt>
<pdfrwt beam="2">  1       -2 0.40245809E-02 0.52467774E+03</pdfrwt>
<totfact> 0.14266650E+03</totfact>
</mgrwt>
</event>
<event>
 4    1  0.5312547E-005  0.4526361E+03  0.7818608E-02  0.1026939E+00
         -2   -1    0    0    0  501 -0.00000000000E+00  0.00000000000E+00  0.86273029672E+02  0.86273029710E+02  0.25500000000E-02 0. -1.
          2   -1    0    0  501    0  0.00000000000E+00 -0.00000000000E+00 -0.59369482380E+03  0.59369482381E+03  0.25500000000E-02 0.  1.
    5000001    1    1    2    0    0  0.13876200435E+03 -0.37698383634E+02 -0.16716847163E+03  0.27540217844E+03  0.16500000000E+03 0.  0.
   -5000001    1    1    2    0    0 -0.13876200435E+03  0.37698383634E+02 -0.34025332249E+03  0.40456567508E+03  0.16500000000E+03 0.  0.
<mgrwt>
<rscale>  0 0.45263606E+03</rscale>
<asrwt>0</asrwt>
<pdfrwt beam="1">  1        2 0.84813544E-01 0.45263606E+03</pdfrwt>
<pdfrwt beam="2">  1       -2 0.12324719E-01 0.45263606E+03</pdfrwt>
<totfact> 0.26545868E+03</totfact>
</mgrwt>
</event>
<event>
 4    1  0.5312547E-005  0.5388994E+03  0.7818608E-02  0.1004096E+00
          2   -1    0    0  501    0  0.00000000000E+00  0.00000000000E+00  0.19257034392E+04  0.19257034392E+04  0.25500000000E-02 0.  1.
         -2   -1    0    0    0  501 -0.00000000000E+00 -0.00000000000E+00 -0.37702136789E+02  0.37702136875E+02  0.25500000000E-02 0. -1.
    5000001    1    1    2    0    0  0.19523490267E+03 -0.85212789996E+02  0.94218712972E+03  0.97995891455E+03  0.16500000000E+03 0.  0.
   -5000001    1    1    2    0    0 -0.19523490267E+03  0.85212789996E+02  0.94581417269E+03  0.98344666152E+03  0.16500000000E+03 0.  0.
<mgrwt>
<rscale>  0 0.53889938E+03</rscale>
<asrwt>0</asrwt>
<pdfrwt beam="1">  1        2 0.27510049E+00 0.53889938E+03</pdfrwt>
<pdfrwt beam="2">  1       -2 0.53860196E-02 0.53889938E+03</pdfrwt>
<totfact> 0.16546463E+03</totfact>
</mgrwt>
</event>
<event>
 4    1  0.5312547E-005  0.5847783E+03  0.7818608E-02  0.9937499E-01
          2   -1    0    0  501    0  0.00000000000E+00  0.00000000000E+00  0.19723367311E+04  0.19723367311E+04  0.25500000000E-02 0.  1.
         -2   -1    0    0    0  501 -0.00000000000E+00 -0.00000000000E+00 -0.43345241187E+02  0.43345241262E+02  0.25500000000E-02 0. -1.
    5000001    1    1    2    0    0  0.63496755958E+02 -0.21439025457E+03  0.12779831358E+04  0.13078459063E+04  0.16500000000E+03 0.  0.
   -5000001    1    1    2    0    0 -0.63496755958E+02  0.21439025457E+03  0.65100835405E+03  0.70783606599E+03  0.16500000000E+03 0.  0.
<mgrwt>
<rscale>  0 0.58477829E+03</rscale>
<asrwt>0</asrwt>
<pdfrwt beam="1">  1        2 0.28176233E+00 0.58477829E+03</pdfrwt>
<pdfrwt beam="2">  1       -2 0.61921785E-02 0.58477829E+03</pdfrwt>
<totfact> 0.12584732E+03</totfact>
</mgrwt>
</event>
<event>
 4    1  0.5312547E-005  0.4567492E+03  0.7818608E-02  0.1025728E+00
          2   -1    0    0  501    0  0.00000000000E+00  0.00000000000E+00  0.24870819887E+04  0.24870819887E+04  0.25500000000E-02 0. -1.
         -2   -1    0    0    0  501 -0.00000000000E+00 -0.00000000000E+00 -0.20970342314E+02  0.20970342469E+02  0.25500000000E-02 0.  1.
    5000001    1    1    2    0    0 -0.17526126805E+02  0.12465232056E+03  0.17564291254E+04  0.17686474037E+04  0.16500000000E+03 0.  0.
   -5000001    1    1    2    0    0  0.17526126805E+02 -0.12465232056E+03  0.70968252100E+03  0.73940492746E+03  0.16500000000E+03 0.  0.
<mgrwt>
<rscale>  0 0.45674921E+03</rscale>
<asrwt>0</asrwt>
<pdfrwt beam="1">  1        2 0.35529761E+00 0.45674921E+03</pdfrwt>
<pdfrwt beam="2">  1       -2 0.29957617E-02 0.45674921E+03</pdfrwt>
<totfact> 0.21315730E+03</totfact>
</mgrwt>
</event>
<event>
 4    1  0.5312547E-005  0.4374263E+03  0.7818608E-02  0.1031539E+00
         -2   -1    0    0    0  501 -0.00000000000E+00  0.00000000000E+00  0.50349558635E+02  0.50349558699E+02  0.25500000000E-02 0. -1.
          2   -1    0    0  501    0  0.00000000000E+00 -0.00000000000E+00 -0.95006679779E+03  0.95006679779E+03  0.25500000000E-02 0.  1.
    5000001    1    1    2    0    0 -0.81649127812E+01  0.10778061949E+03 -0.23377020740E+03  0.30587062233E+03  0.16500000000E+03 0.  0.
   -5000001    1    1    2    0    0  0.81649127812E+01 -0.10778061949E+03 -0.66594703176E+03  0.69454573416E+03  0.16500000000E+03 0.  0.
<mgrwt>
<rscale>  0 0.43742631E+03</rscale>
<asrwt>0</asrwt>
<pdfrwt beam="1">  1        2 0.13572382E+00 0.43742631E+03</pdfrwt>
<pdfrwt beam="2">  1       -2 0.71927947E-02 0.43742631E+03</pdfrwt>
<totfact> 0.35057974E+03</totfact>
</mgrwt>
</event>
<event>
 4    1  0.5312547E-005  0.4719963E+03  0.7818608E-02  0.1021358E+00
          2   -1    0    0  501    0  0.00000000000E+00  0.00000000000E+00  0.93346688066E+02  0.93346688101E+02  0.25500000000E-02 0.  1.
         -2   -1    0    0    0  501 -0.00000000000E+00 -0.00000000000E+00 -0.59664806960E+03  0.59664806960E+03  0.25500000000E-02 0. -1.
    5000001    1    1    2    0    0  0.28076665603E+02  0.71794693727E+02 -0.47106361956E+03  0.50504327624E+03  0.16500000000E+03 0.  0.
   -5000001    1    1    2    0    0 -0.28076665603E+02 -0.71794693727E+02 -0.32237761966E+02  0.18495148146E+03  0.16500000000E+03 0.  0.
<mgrwt>
<rscale>  0 0.47199628E+03</rscale>
<asrwt>0</asrwt>
<pdfrwt beam="1">  1        2 0.13335241E-01 0.47199628E+03</pdfrwt>
<pdfrwt beam="2">  1       -2 0.85235437E-01 0.47199628E+03</pdfrwt>
<totfact> 0.55890675E+02</totfact>
</mgrwt>
</event>
<event>
 4    1  0.5312547E-005  0.4600526E+03  0.7818608E-02  0.1024766E+00
         -2   -1    0    0    0  501 -0.00000000000E+00  0.00000000000E+00  0.26008030892E+02  0.26008031017E+02  0.25500000000E-02 0.  1.
          2   -1    0    0  501    0  0.00000000000E+00 -0.00000000000E+00 -0.20344518898E+04  0.20344518898E+04  0.25500000000E-02 0. -1.
    5000001    1    1    2    0    0 -0.33801454500E+02  0.12880802490E+03 -0.14036360073E+04  0.14195608781E+04  0.16500000000E+03 0.  0.
   -5000001    1    1    2    0    0  0.33801454500E+02 -0.12880802490E+03 -0.60480785154E+03  0.64089904267E+03  0.16500000000E+03 0.  0.
<mgrwt>
<rscale>  0 0.46005255E+03</rscale>
<asrwt>0</asrwt>
<pdfrwt beam="1">  1        2 0.29063588E+00 0.46005255E+03</pdfrwt>
<pdfrwt beam="2">  1       -2 0.37154343E-02 0.46005255E+03</pdfrwt>
<totfact> 0.25924000E+03</totfact>
</mgrwt>
</event>
<event>
 4    1  0.5312547E-005  0.7974666E+03  0.7818608E-02  0.9563691E-01
         -2   -1    0    0    0  501 -0.00000000000E+00  0.00000000000E+00  0.26192813513E+03  0.26192813514E+03  0.25500000000E-02 0. -1.
          2   -1    0    0  501    0  0.00000000000E+00 -0.00000000000E+00 -0.60699183926E+03  0.60699183926E+03  0.25500000000E-02 0.  1.
    5000001    1    1    2    0    0  0.48331960004E+01 -0.23600762513E+03 -0.47299356704E+03  0.55377872238E+03  0.16500000000E+03 0.  0.
   -5000001    1    1    2    0    0 -0.48331960004E+01  0.23600762513E+03  0.12792986291E+03  0.31514125202E+03  0.16500000000E+03 0.  0.
<mgrwt>
<rscale>  0 0.79746659E+03</rscale>
<asrwt>0</asrwt>
<pdfrwt beam="1">  1        2 0.86713119E-01 0.79746659E+03</pdfrwt>
<pdfrwt beam="2">  1       -2 0.37418305E-01 0.79746659E+03</pdfrwt>
<totfact> 0.36203054E+02</totfact>
</mgrwt>
</event>
<event>
 4    1  0.5312547E-005  0.7992253E+03  0.7818608E-02  0.9561139E-01
         -2   -1    0    0    0  501 -0.00000000000E+00  0.00000000000E+00  0.21472254021E+03  0.21472254022E+03  0.25500000000E-02 0. -1.
          2   -1    0    0  501    0  0.00000000000E+00 -0.00000000000E+00 -0.74370524275E+03  0.74370524276E+03  0.25500000000E-02 0.  1.
    5000001    1    1    2    0    0  0.12040500292E+03  0.29494402293E+03 -0.47554962855E+03  0.59570277035E+03  0.16500000000E+03 0.  0.
   -5000001    1    1    2    0    0 -0.12040500292E+03 -0.29494402293E+03 -0.53433073997E+02  0.36272501263E+03  0.16500000000E+03 0.  0.
<mgrwt>
<rscale>  0 0.79922532E+03</rscale>
<asrwt>0</asrwt>
<pdfrwt beam="1">  1        2 0.10624360E+00 0.79922532E+03</pdfrwt>
<pdfrwt beam="2">  1       -2 0.30674649E-01 0.79922532E+03</pdfrwt>
<totfact> 0.41155537E+02</totfact>
</mgrwt>
</event>
<event>
 4    1  0.5312547E-005  0.5822944E+03  0.7818608E-02  0.9942836E-01
          2   -1    0    0  501    0  0.00000000000E+00  0.00000000000E+00  0.81232878885E+03  0.81232878886E+03  0.25500000000E-02 0.  1.
         -2   -1    0    0    0  501 -0.00000000000E+00 -0.00000000000E+00 -0.10435021304E+03  0.10435021307E+03  0.25500000000E-02 0. -1.
    5000001    1    1    2    0    0 -0.23104862232E+03  0.51295684012E+02  0.29247304236E+03  0.41082866694E+03  0.16500000000E+03 0.  0.
   -5000001    1    1    2    0    0  0.23104862232E+03 -0.51295684012E+02  0.41550553346E+03  0.50585033499E+03  0.16500000000E+03 0.  0.
<mgrwt>
<rscale>  0 0.58229437E+03</rscale>
<asrwt>0</asrwt>
<pdfrwt beam="1">  1        2 0.11604697E+00 0.58229437E+03</pdfrwt>
<pdfrwt beam="2">  1       -2 0.14907173E-01 0.58229437E+03</pdfrwt>
<totfact> 0.13220166E+03</totfact>
</mgrwt>
</event>
<event>
 4    1  0.5312547E-005  0.5734530E+03  0.7818608E-02  0.9962067E-01
         -2   -1    0    0    0  501 -0.00000000000E+00  0.00000000000E+00  0.37785143846E+02  0.37785143932E+02  0.25500000000E-02 0. -1.
          2   -1    0    0  501    0  0.00000000000E+00 -0.00000000000E+00 -0.21757781115E+04  0.21757781115E+04  0.25500000000E-02 0.  1.
    5000001    1    1    2    0    0 -0.22607967068E+03  0.41459570463E+02 -0.88975597964E+03  0.93366033266E+03  0.16500000000E+03 0.  0.
   -5000001    1    1    2    0    0  0.22607967068E+03 -0.41459570463E+02 -0.12482369880E+04  0.12799029228E+04  0.16500000000E+03 0.  0.
<mgrwt>
<rscale>  0 0.57345301E+03</rscale>
<asrwt>0</asrwt>
<pdfrwt beam="1">  1        2 0.31082537E+00 0.57345301E+03</pdfrwt>
<pdfrwt beam="2">  1       -2 0.53978791E-02 0.57345301E+03</pdfrwt>
<totfact> 0.12334593E+03</totfact>
</mgrwt>
</event>
<event>
 4    1  0.5312547E-005  0.3695363E+03  0.7818608E-02  0.1054870E+00
          2   -1    0    0  501    0  0.00000000000E+00  0.00000000000E+00  0.64979020565E+03  0.64979020565E+03  0.25500000000E-02 0. -1.
         -2   -1    0    0    0  501 -0.00000000000E+00 -0.00000000000E+00 -0.52538919566E+02  0.52538919628E+02  0.25500000000E-02 0.  1.
    5000001    1    1    2    0    0 -0.15409170670E+02  0.81711014632E+02  0.29790713711E+03  0.35055355481E+03  0.16500000000E+03 0.  0.
   -5000001    1    1    2    0    0  0.15409170670E+02 -0.81711014632E+02  0.29934414897E+03  0.35177557047E+03  0.16500000000E+03 0.  0.
<mgrwt>
<rscale>  0 0.36953633E+03</rscale>
<asrwt>0</asrwt>
<pdfrwt beam="1">  1        2 0.92827177E-01 0.36953633E+03</pdfrwt>
<pdfrwt beam="2">  1       -2 0.75055595E-02 0.36953633E+03</pdfrwt>
<totfact> 0.52694960E+03</totfact>
</mgrwt>
</event>
<event>
 4    1  0.5312547E-005  0.1379455E+04  0.7818608E-02  0.8968826E-01
          2   -1    0    0  501    0  0.00000000000E+00  0.00000000000E+00  0.25287837357E+04  0.25287837357E+04  0.25500000000E-02 0.  1.
         -2   -1    0    0    0  501 -0.00000000000E+00 -0.00000000000E+00 -0.18812367726E+03  0.18812367728E+03  0.25500000000E-02 0. -1.
    5000001    1    1    2    0    0 -0.64842653924E+03  0.14030945126E+03  0.99029779132E+03  0.12033529966E+04  0.16500000000E+03 0.  0.
   -5000001    1    1    2    0    0  0.64842653924E+03 -0.14030945126E+03  0.13503622672E+04  0.15135544164E+04  0.16500000000E+03 0.  0.
<mgrwt>
<rscale>  0 0.13794551E+04</rscale>
<asrwt>0</asrwt>
<pdfrwt beam="1">  1        2 0.36125478E+00 0.13794551E+04</pdfrwt>
<pdfrwt beam="2">  1       -2 0.26874814E-01 0.13794551E+04</pdfrwt>
<totfact> 0.52340582E+01</totfact>
</mgrwt>
</event>
<event>
 4    1  0.5312547E-005  0.4559825E+03  0.7818608E-02  0.1025953E+00
         -2   -1    0    0    0  501 -0.00000000000E+00  0.00000000000E+00  0.22834018984E+02  0.22834019127E+02  0.25500000000E-02 0. -1.
          2   -1    0    0  501    0  0.00000000000E+00 -0.00000000000E+00 -0.22764279888E+04  0.22764279888E+04  0.25500000000E-02 0.  1.
    5000001    1    1    2    0    0 -0.10751712648E+03 -0.66327822277E+02 -0.15997034239E+04  0.16131445555E+04  0.16500000000E+03 0.  0.
   -5000001    1    1    2    0    0  0.10751712648E+03  0.66327822277E+02 -0.65389054594E+03  0.68611745246E+03  0.16500000000E+03 0.  0.
<mgrwt>
<rscale>  0 0.45598246E+03</rscale>
<asrwt>0</asrwt>
<pdfrwt beam="1">  1        2 0.32520385E+00 0.45598246E+03</pdfrwt>
<pdfrwt beam="2">  1       -2 0.32620042E-02 0.45598246E+03</pdfrwt>
<totfact> 0.23930844E+03</totfact>
</mgrwt>
</event>
<event>
 4    1  0.5312547E-005  0.4048705E+03  0.7818608E-02  0.1042106E+00
          2   -1    0    0  501    0  0.00000000000E+00  0.00000000000E+00  0.46957547509E+04  0.46957547509E+04  0.25500000000E-02 0.  1.
         -2   -1    0    0    0  501 -0.00000000000E+00 -0.00000000000E+00 -0.87270374297E+01  0.87270378022E+01  0.25500000000E-02 0. -1.
    5000001    1    1    2    0    0 -0.52581788606E+02 -0.46973700316E+02  0.34325274778E+04  0.34372141712E+04  0.16500000000E+03 0.  0.
   -5000001    1    1    2    0    0  0.52581788606E+02  0.46973700316E+02  0.12545002357E+04  0.12672676176E+04  0.16500000000E+03 0.  0.
<mgrwt>
<rscale>  0 0.40487049E+03</rscale>
<asrwt>0</asrwt>
<pdfrwt beam="1">  1        2 0.67082104E+00 0.40487049E+03</pdfrwt>
<pdfrwt beam="2">  1       -2 0.12467216E-02 0.40487049E+03</pdfrwt>
<totfact> 0.33829879E+02</totfact>
</mgrwt>
</event>
<event>
 4    1  0.5312547E-005  0.3508743E+03  0.7818608E-02  0.1062257E+00
          2   -1    0    0  501    0  0.00000000000E+00  0.00000000000E+00  0.35894982242E+03  0.35894982243E+03  0.25500000000E-02 0.  1.
         -2   -1    0    0    0  501 -0.00000000000E+00 -0.00000000000E+00 -0.85745105675E+02  0.85745105713E+02  0.25500000000E-02 0. -1.
    5000001    1    1    2    0    0  0.38178982077E+02 -0.42296432974E+02  0.11441151891E+03  0.20871420310E+03  0.16500000000E+03 0.  0.
   -5000001    1    1    2    0    0 -0.38178982077E+02  0.42296432974E+02  0.15879319784E+03  0.23598072505E+03  0.16500000000E+03 0.  0.
<mgrwt>
<rscale>  0 0.35087428E+03</rscale>
<asrwt>0</asrwt>
<pdfrwt beam="1">  1        2 0.51278546E-01 0.35087428E+03</pdfrwt>
<pdfrwt beam="2">  1       -2 0.12249301E-01 0.35087428E+03</pdfrwt>
<totfact> 0.46782680E+03</totfact>
</mgrwt>
</event>
<event>
 4    1  0.5312547E-005  0.5056898E+03  0.7818608E-02  0.1012304E+00
          2   -1    0    0  501    0  0.00000000000E+00  0.00000000000E+00  0.30726280508E+04  0.30726280508E+04  0.25500000000E-02 0.  1.
         -2   -1    0    0    0  501 -0.00000000000E+00 -0.00000000000E+00 -0.20806471626E+02  0.20806471783E+02  0.25500000000E-02 0. -1.
    5000001    1    1    2    0    0  0.13901244106E+03  0.99033131329E+02  0.20582713277E+04  0.20719164747E+04  0.16500000000E+03 0.  0.
   -5000001    1    1    2    0    0 -0.13901244106E+03 -0.99033131329E+02  0.99355025157E+03  0.10215180479E+04  0.16500000000E+03 0.  0.
<mgrwt>
<rscale>  0 0.50568982E+03</rscale>
<asrwt>0</asrwt>
<pdfrwt beam="1">  1        2 0.43894681E+00 0.50568982E+03</pdfrwt>
<pdfrwt beam="2">  1       -2 0.29723535E-02 0.50568982E+03</pdfrwt>
<totfact> 0.10580032E+03</totfact>
</mgrwt>
</event>
<event>
 4    1  0.5312547E-005  0.5563746E+03  0.7818608E-02  0.1000029E+00
         -2   -1    0    0    0  501 -0.00000000000E+00  0.00000000000E+00  0.16149966708E+03  0.16149966710E+03  0.25500000000E-02 0. -1.
          2   -1    0    0  501    0  0.00000000000E+00 -0.00000000000E+00 -0.47918476767E+03  0.47918476768E+03  0.25500000000E-02 0.  1.
    5000001    1    1    2    0    0  0.10588708213E+03  0.19168784826E+03 -0.10474647734E+03  0.29351853408E+03  0.16500000000E+03 0.  0.
   -5000001    1    1    2    0    0 -0.10588708213E+03 -0.19168784826E+03 -0.21293862325E+03  0.34716590070E+03  0.16500000000E+03 0.  0.
<mgrwt>
<rscale>  0 0.55637462E+03</rscale>
<asrwt>0</asrwt>
<pdfrwt beam="1">  1        2 0.68454966E-01 0.55637462E+03</pdfrwt>
<pdfrwt beam="2">  1       -2 0.23071381E-01 0.55637462E+03</pdfrwt>
<totfact> 0.11682174E+03</totfact>
</mgrwt>
</event>
<event>
 4    1  0.5312547E-005  0.5566189E+03  0.7818608E-02  0.9999734E-01
          2   -1    0    0  501    0  0.00000000000E+00  0.00000000000E+00  0.57413002700E+03  0.57413002701E+03  0.25500000000E-02 0.  1.
         -2   -1    0    0    0  501 -0.00000000000E+00 -0.00000000000E+00 -0.13491046527E+03  0.13491046530E+03  0.25500000000E-02 0. -1.
    5000001    1    1    2    0    0  0.13406640372E+03 -0.11977264140E+03  0.49125842634E+02  0.24891290575E+03  0.16500000000E+03 0.  0.
   -5000001    1    1    2    0    0 -0.13406640372E+03  0.11977264140E+03  0.39009371909E+03  0.46012758655E+03  0.16500000000E+03 0.  0.
<mgrwt>
<rscale>  0 0.55661890E+03</rscale>
<asrwt>0</asrwt>
<pdfrwt beam="1">  1        2 0.82018576E-01 0.55661890E+03</pdfrwt>
<pdfrwt beam="2">  1       -2 0.19272923E-01 0.55661890E+03</pdfrwt>
<totfact> 0.13016139E+03</totfact>
</mgrwt>
</event>
<event>
 4    1  0.5312547E-005  0.6837466E+03  0.7818608E-02  0.9745439E-01
          2   -1    0    0  501    0  0.00000000000E+00  0.00000000000E+00  0.41012127254E+03  0.41012127255E+03  0.25500000000E-02 0.  1.
         -2   -1    0    0    0  501 -0.00000000000E+00 -0.00000000000E+00 -0.28498244018E+03  0.28498244019E+03  0.25500000000E-02 0. -1.
    5000001    1    1    2    0    0  0.11087412936E+03 -0.10498026878E+03  0.32441003209E+03  0.39469076290E+03  0.16500000000E+03 0.  0.
   -5000001    1    1    2    0    0 -0.11087412936E+03  0.10498026878E+03 -0.19927119973E+03  0.30041294984E+03  0.16500000000E+03 0.  0.
<mgrwt>
<rscale>  0 0.68374662E+03</rscale>
<asrwt>0</asrwt>
<pdfrwt beam="1">  1        2 0.58588753E-01 0.68374662E+03</pdfrwt>
<pdfrwt beam="2">  1       -2 0.40711778E-01 0.68374662E+03</pdfrwt>
<totfact> 0.48364596E+02</totfact>
</mgrwt>
</event>
<event>
 4    1  0.5312547E-005  0.4256299E+03  0.7818608E-02  0.1035249E+00
         -2   -1    0    0    0  501 -0.00000000000E+00  0.00000000000E+00  0.74039207248E+02  0.74039207292E+02  0.25500000000E-02 0. -1.
          2   -1    0    0  501    0  0.00000000000E+00 -0.00000000000E+00 -0.61170563572E+03  0.61170563573E+03  0.25500000000E-02 0.  1.
    5000001    1    1    2    0    0 -0.77113699562E+02  0.40515526327E+00 -0.44619298139E+03  0.48193346372E+03  0.16500000000E+03 0.  0.
   -5000001    1    1    2    0    0  0.77113699562E+02 -0.40515526327E+00 -0.91473447085E+02  0.20381137930E+03  0.16500000000E+03 0.  0.
<mgrwt>
<rscale>  0 0.42562989E+03</rscale>
<asrwt>0</asrwt>
<pdfrwt beam="1">  1        2 0.87386517E-01 0.42562989E+03</pdfrwt>
<pdfrwt beam="2">  1       -2 0.10577030E-01 0.42562989E+03</pdfrwt>
<totfact> 0.32857593E+03</totfact>
</mgrwt>
</event>
<event>
 4    1  0.5312547E-005  0.5712930E+03  0.7818608E-02  0.9966821E-01
         -2   -1    0    0    0  501 -0.00000000000E+00  0.00000000000E+00  0.23834733645E+03  0.23834733646E+03  0.25500000000E-02 0. -1.
          2   -1    0    0  501    0  0.00000000000E+00 -0.00000000000E+00 -0.34233202262E+03  0.34233202263E+03  0.25500000000E-02 0.  1.
    5000001    1    1    2    0    0 -0.86783841807E+02  0.20959405611E+03 -0.10680254529E+03  0.30015477214E+03  0.16500000000E+03 0.  0.
   -5000001    1    1    2    0    0  0.86783841807E+02 -0.20959405611E+03  0.28178591200E+01  0.28052458695E+03  0.16500000000E+03 0.  0.
<mgrwt>
<rscale>  0 0.57129301E+03</rscale>
<asrwt>0</asrwt>
<pdfrwt beam="1">  1        2 0.48904574E-01 0.57129301E+03</pdfrwt>
<pdfrwt beam="2">  1       -2 0.34049620E-01 0.57129301E+03</pdfrwt>
<totfact> 0.83420035E+02</totfact>
</mgrwt>
</event>
<event>
 4    1  0.5312547E-005  0.8010901E+03  0.7818608E-02  0.9558441E-01
          2   -1    0    0  501    0  0.00000000000E+00  0.00000000000E+00  0.59489674779E+03  0.59489674779E+03  0.25500000000E-02 0.  1.
         -2   -1    0    0    0  501 -0.00000000000E+00 -0.00000000000E+00 -0.26968767599E+03  0.26968767600E+03  0.25500000000E-02 0. -1.
    5000001    1    1    2    0    0 -0.29571121915E+03  0.17448433353E+03  0.29014064652E+02  0.38204282970E+03  0.16500000000E+03 0.  0.
   -5000001    1    1    2    0    0  0.29571121915E+03 -0.17448433353E+03  0.29619500715E+03  0.48254159410E+03  0.16500000000E+03 0.  0.
<mgrwt>
<rscale>  0 0.80109006E+03</rscale>
<asrwt>0</asrwt>
<pdfrwt beam="1">  1        2 0.84985249E-01 0.80109006E+03</pdfrwt>
<pdfrwt beam="2">  1       -2 0.38526811E-01 0.80109006E+03</pdfrwt>
<totfact> 0.35040927E+02</totfact>
</mgrwt>
</event>
<event>
 4    1  0.5312547E-005  0.6989461E+03  0.7818608E-02  0.9719036E-01
         -2   -1    0    0    0  501 -0.00000000000E+00  0.00000000000E+00  0.15552313370E+03  0.15552313372E+03  0.25500000000E-02 0. -1.
          2   -1    0    0  501    0  0.00000000000E+00 -0.00000000000E+00 -0.78529412723E+03  0.78529412724E+03  0.25500000000E-02 0.  1.
    5000001    1    1    2    0    0 -0.14148217091E+02 -0.29951434293E+03 -0.21973014395E+03  0.40671285919E+03  0.16500000000E+03 0.  0.
   -5000001    1    1    2    0    0  0.14148217091E+02  0.29951434293E+03 -0.41004084958E+03  0.53410440177E+03  0.16500000000E+03 0.  0.
<mgrwt>
<rscale>  0 0.69894607E+03</rscale>
<asrwt>0</asrwt>
<pdfrwt beam="1">  1        2 0.11218487E+00 0.69894607E+03</pdfrwt>
<pdfrwt beam="2">  1       -2 0.22217591E-01 0.69894607E+03</pdfrwt>
<totfact> 0.69211520E+02</totfact>
</mgrwt>
</event>
<event>
 4    1  0.5312547E-005  0.6903363E+03  0.7818608E-02  0.9733903E-01
         -2   -1    0    0    0  501 -0.00000000000E+00  0.00000000000E+00  0.35353301013E+03  0.35353301014E+03  0.25500000000E-02 0. -1.
          2   -1    0    0  501    0  0.00000000000E+00 -0.00000000000E+00 -0.33700118302E+03  0.33700118303E+03  0.25500000000E-02 0.  1.
    5000001    1    1    2    0    0  0.14856101330E+03 -0.23209185032E+03  0.13471038637E+03  0.34829425757E+03  0.16500000000E+03 0.  0.
   -5000001    1    1    2    0    0 -0.14856101330E+03  0.23209185032E+03 -0.11817855926E+03  0.34223993561E+03  0.16500000000E+03 0.  0.
<mgrwt>
<rscale>  0 0.69033627E+03</rscale>
<asrwt>0</asrwt>
<pdfrwt beam="1">  1        2 0.48143026E-01 0.69033627E+03</pdfrwt>
<pdfrwt beam="2">  1       -2 0.50504716E-01 0.69033627E+03</pdfrwt>
<totfact> 0.39156076E+02</totfact>
</mgrwt>
</event>
<event>
 4    1  0.5312547E-005  0.4468159E+03  0.7818608E-02  0.1028676E+00
         -2   -1    0    0    0  501 -0.00000000000E+00  0.00000000000E+00  0.14290993661E+03  0.14290993663E+03  0.25500000000E-02 0.  1.
          2   -1    0    0  501    0  0.00000000000E+00 -0.00000000000E+00 -0.34924871153E+03  0.34924871154E+03  0.25500000000E-02 0. -1.
    5000001    1    1    2    0    0 -0.10961267701E+03  0.10271613343E+03 -0.91074748607E+02  0.24100861574E+03  0.16500000000E+03 0.  0.
   -5000001    1    1    2    0    0  0.10961267701E+03 -0.10271613343E+03 -0.11526402631E+03  0.25115003243E+03  0.16500000000E+03 0.  0.
<mgrwt>
<rscale>  0 0.44681590E+03</rscale>
<asrwt>0</asrwt>
<pdfrwt beam="1">  1        2 0.49892673E-01 0.44681590E+03</pdfrwt>
<pdfrwt beam="2">  1       -2 0.20415705E-01 0.44681590E+03</pdfrwt>
<totfact> 0.20538851E+03</totfact>
</mgrwt>
</event>
<event>
 4    1  0.5312547E-005  0.4747916E+03  0.7818608E-02  0.1020576E+00
         -2   -1    0    0    0  501 -0.00000000000E+00  0.00000000000E+00  0.11390551303E+03  0.11390551306E+03  0.25500000000E-02 0. -1.
          2   -1    0    0  501    0  0.00000000000E+00 -0.00000000000E+00 -0.49476769929E+03  0.49476769930E+03  0.25500000000E-02 0.  1.
    5000001    1    1    2    0    0 -0.96491283915E+02  0.11688401577E+03 -0.89819551420E+02  0.24138142603E+03  0.16500000000E+03 0.  0.
   -5000001    1    1    2    0    0  0.96491283915E+02 -0.11688401577E+03 -0.29104263483E+03  0.36729178633E+03  0.16500000000E+03 0.  0.
<mgrwt>
<rscale>  0 0.47479161E+03</rscale>
<asrwt>0</asrwt>
<pdfrwt beam="1">  1        2 0.70681099E-01 0.47479161E+03</pdfrwt>
<pdfrwt beam="2">  1       -2 0.16272216E-01 0.47479161E+03</pdfrwt>
<totfact> 0.20602847E+03</totfact>
</mgrwt>
</event>
<event>
 4    1  0.5312547E-005  0.6750942E+03  0.7818608E-02  0.9760799E-01
         -2   -1    0    0    0  501 -0.00000000000E+00  0.00000000000E+00  0.16318800588E+03  0.16318800590E+03  0.25500000000E-02 0.  1.
          2   -1    0    0  501    0  0.00000000000E+00 -0.00000000000E+00 -0.69820112316E+03  0.69820112316E+03  0.25500000000E-02 0. -1.
    5000001    1    1    2    0    0 -0.21143119736E+03  0.20206290982E+03 -0.31134589766E+03  0.45792339832E+03  0.16500000000E+03 0.  0.
   -5000001    1    1    2    0    0  0.21143119736E+03 -0.20206290982E+03 -0.22366721963E+03  0.40346573074E+03  0.16500000000E+03 0.  0.
<mgrwt>
<rscale>  0 0.67509421E+03</rscale>
<asrwt>0</asrwt>
<pdfrwt beam="1">  1        2 0.99743016E-01 0.67509421E+03</pdfrwt>
<pdfrwt beam="2">  1       -2 0.23312573E-01 0.67509421E+03</pdfrwt>
<totfact> 0.73652837E+02</totfact>
</mgrwt>
</event>
<event>
 4    1  0.5312547E-005  0.6158344E+03  0.7818608E-02  0.9873089E-01
         -2   -1    0    0    0  501 -0.00000000000E+00  0.00000000000E+00  0.91906665142E+02  0.91906665178E+02  0.25500000000E-02 0. -1.
          2   -1    0    0  501    0  0.00000000000E+00 -0.00000000000E+00 -0.10316226179E+04  0.10316226179E+04  0.25500000000E-02 0.  1.
    5000001    1    1    2    0    0  0.18998855972E+02 -0.17502730351E+03 -0.12086523286E+03  0.26986833459E+03  0.16500000000E+03 0.  0.
   -5000001    1    1    2    0    0 -0.18998855972E+02  0.17502730351E+03 -0.81885071994E+03  0.85366094853E+03  0.16500000000E+03 0.  0.
<mgrwt>
<rscale>  0 0.61583438E+03</rscale>
<asrwt>0</asrwt>
<pdfrwt beam="1">  1        2 0.14737465E+00 0.61583438E+03</pdfrwt>
<pdfrwt beam="2">  1       -2 0.13129524E-01 0.61583438E+03</pdfrwt>
<totfact> 0.11831115E+03</totfact>
</mgrwt>
</event>
<event>
 4    1  0.5312547E-005  0.1426436E+04  0.7818608E-02  0.8934902E-01
          2   -1    0    0  501    0  0.00000000000E+00  0.00000000000E+00  0.22261236871E+04  0.22261236871E+04  0.25500000000E-02 0.  1.
         -2   -1    0    0    0  501 -0.00000000000E+00 -0.00000000000E+00 -0.22850484493E+03  0.22850484495E+03  0.25500000000E-02 0. -1.
    5000001    1    1    2    0    0  0.16237015366E+02 -0.41377194663E+03  0.40726280029E+02  0.44760975679E+03  0.16500000000E+03 0.  0.
   -5000001    1    1    2    0    0 -0.16237015366E+02  0.41377194663E+03  0.19568925622E+04  0.20070187753E+04  0.16500000000E+03 0.  0.
<mgrwt>
<rscale>  0 0.14264362E+04</rscale>
<asrwt>0</asrwt>
<pdfrwt beam="1">  1        2 0.31801765E+00 0.14264362E+04</pdfrwt>
<pdfrwt beam="2">  1       -2 0.32643551E-01 0.14264362E+04</pdfrwt>
<totfact> 0.52193236E+01</totfact>
</mgrwt>
</event>
<event>
 4    1  0.5312547E-005  0.4098645E+03  0.7818608E-02  0.1040416E+00
         -2   -1    0    0    0  501 -0.00000000000E+00  0.00000000000E+00  0.50117418236E+02  0.50117418301E+02  0.25500000000E-02 0.  1.
          2   -1    0    0  501    0  0.00000000000E+00 -0.00000000000E+00 -0.83797649758E+03  0.83797649758E+03  0.25500000000E-02 0. -1.
    5000001    1    1    2    0    0 -0.11986836327E+03 -0.96096496207E+01 -0.35569006368E+03  0.41012338543E+03  0.16500000000E+03 0.  0.
   -5000001    1    1    2    0    0  0.11986836327E+03  0.96096496207E+01 -0.43216901567E+03  0.47797053045E+03  0.16500000000E+03 0.  0.
<mgrwt>
<rscale>  0 0.40986446E+03</rscale>
<asrwt>0</asrwt>
<pdfrwt beam="1">  1        2 0.11971092E+00 0.40986446E+03</pdfrwt>
<pdfrwt beam="2">  1       -2 0.71596317E-02 0.40986446E+03</pdfrwt>
<totfact> 0.41628477E+03</totfact>
</mgrwt>
</event>
<event>
 4    1  0.5312547E-005  0.3688488E+03  0.7818608E-02  0.1055134E+00
          2   -1    0    0  501    0  0.00000000000E+00  0.00000000000E+00  0.48652783445E+03  0.48652783446E+03  0.25500000000E-02 0.  1.
         -2   -1    0    0    0  501 -0.00000000000E+00 -0.00000000000E+00 -0.69908338281E+02  0.69908338327E+02  0.25500000000E-02 0. -1.
    5000001    1    1    2    0    0  0.40396885847E+02  0.69107130255E+02  0.23770369673E+03  0.30022616688E+03  0.16500000000E+03 0.  0.
   -5000001    1    1    2    0    0 -0.40396885847E+02 -0.69107130255E+02  0.17891579944E+03  0.25621000591E+03  0.16500000000E+03 0.  0.
<mgrwt>
<rscale>  0 0.36884876E+03</rscale>
<asrwt>0</asrwt>
<pdfrwt beam="1">  1        2 0.69503977E-01 0.36884876E+03</pdfrwt>
<pdfrwt beam="2">  1       -2 0.99869054E-02 0.36884876E+03</pdfrwt>
<totfact> 0.46646041E+03</totfact>
</mgrwt>
</event>
<event>
 4    1  0.5312547E-005  0.5292463E+03  0.7818608E-02  0.1006415E+00
          2   -1    0    0  501    0  0.00000000000E+00  0.00000000000E+00  0.70197436991E+03  0.70197436992E+03  0.25500000000E-02 0.  1.
         -2   -1    0    0    0  501 -0.00000000000E+00 -0.00000000000E+00 -0.99754932589E+02  0.99754932622E+02  0.25500000000E-02 0. -1.
    5000001    1    1    2    0    0  0.17989940032E+03 -0.41504454752E+02  0.44251919736E+03  0.50708446440E+03  0.16500000000E+03 0.  0.
   -5000001    1    1    2    0    0 -0.17989940032E+03  0.41504454752E+02  0.15970023996E+03  0.29464483814E+03  0.16500000000E+03 0.  0.
<mgrwt>
<rscale>  0 0.52924628E+03</rscale>
<asrwt>0</asrwt>
<pdfrwt beam="1">  1        2 0.10028206E+00 0.52924628E+03</pdfrwt>
<pdfrwt beam="2">  1       -2 0.14250704E-01 0.52924628E+03</pdfrwt>
<totfact> 0.17117534E+03</totfact>
</mgrwt>
</event>
<event>
 4    1  0.5312547E-005  0.4893253E+03  0.7818608E-02  0.1016603E+00
          2   -1    0    0  501    0  0.00000000000E+00  0.00000000000E+00  0.98396812395E+03  0.98396812395E+03  0.25500000000E-02 0.  1.
         -2   -1    0    0    0  501 -0.00000000000E+00 -0.00000000000E+00 -0.60835116294E+02  0.60835116348E+02  0.25500000000E-02 0. -1.
    5000001    1    1    2    0    0 -0.33594472104E+02  0.17552208346E+03  0.40514631846E+03  0.47255172172E+03  0.16500000000E+03 0.  0.
   -5000001    1    1    2    0    0  0.33594472104E+02 -0.17552208346E+03  0.51798668919E+03  0.57225151858E+03  0.16500000000E+03 0.  0.
<mgrwt>
<rscale>  0 0.48932531E+03</rscale>
<asrwt>0</asrwt>
<pdfrwt beam="1">  1        2 0.14056687E+00 0.48932531E+03</pdfrwt>
<pdfrwt beam="2">  1       -2 0.86907312E-02 0.48932531E+03</pdfrwt>
<totfact> 0.24781529E+03</totfact>
</mgrwt>
</event>
<event>
 4    1  0.5312547E-005  0.5432803E+03  0.7818608E-02  0.1003061E+00
          2   -1    0    0  501    0  0.00000000000E+00  0.00000000000E+00  0.12962825913E+04  0.12962825913E+04  0.25500000000E-02 0.  1.
         -2   -1    0    0    0  501 -0.00000000000E+00 -0.00000000000E+00 -0.56923053472E+02  0.56923053529E+02  0.25500000000E-02 0. -1.
    5000001    1    1    2    0    0  0.20966391027E+03 -0.48353438563E+02  0.66033052873E+03  0.71383360628E+03  0.16500000000E+03 0.  0.
   -5000001    1    1    2    0    0 -0.20966391027E+03  0.48353438563E+02  0.57902900905E+03  0.63937203850E+03  0.16500000000E+03 0.  0.
<mgrwt>
<rscale>  0 0.54328027E+03</rscale>
<asrwt>0</asrwt>
<pdfrwt beam="1">  1        2 0.18518318E+00 0.54328027E+03</pdfrwt>
<pdfrwt beam="2">  1       -2 0.81318667E-02 0.54328027E+03</pdfrwt>
<totfact> 0.18254647E+03</totfact>
</mgrwt>
</event>
<event>
 4    1  0.5312547E-005  0.9512811E+03  0.7818608E-02  0.9363654E-01
          2   -1    0    0  501    0  0.00000000000E+00  0.00000000000E+00  0.96918887387E+03  0.96918887388E+03  0.25500000000E-02 0.  1.
         -2   -1    0    0    0  501 -0.00000000000E+00 -0.00000000000E+00 -0.23342604846E+03  0.23342604847E+03  0.25500000000E-02 0. -1.
    5000001    1    1    2    0    0 -0.36339577222E+03 -0.23945987261E+03  0.49182135866E+03  0.67713423093E+03  0.16500000000E+03 0.  0.
   -5000001    1    1    2    0    0  0.36339577222E+03  0.23945987261E+03  0.24394146675E+03  0.52548069142E+03  0.16500000000E+03 0.  0.
<mgrwt>
<rscale>  0 0.95128109E+03</rscale>
<asrwt>0</asrwt>
<pdfrwt beam="1">  1        2 0.13845555E+00 0.95128109E+03</pdfrwt>
<pdfrwt beam="2">  1       -2 0.33346578E-01 0.95128109E+03</pdfrwt>
<totfact> 0.24617255E+02</totfact>
</mgrwt>
</event>
<event>
 4    1  0.5312547E-005  0.4592288E+03  0.7818608E-02  0.1025005E+00
          2   -1    0    0  501    0  0.00000000000E+00  0.00000000000E+00  0.21316405406E+04  0.21316405406E+04  0.25500000000E-02 0.  1.
         -2   -1    0    0    0  501 -0.00000000000E+00 -0.00000000000E+00 -0.24733427120E+02  0.24733427251E+02  0.25500000000E-02 0. -1.
    5000001    1    1    2    0    0  0.13381328842E+03 -0.55772450016E+02  0.13677885853E+04  0.13853112201E+04  0.16500000000E+03 0.  0.
   -5000001    1    1    2    0    0 -0.13381328842E+03  0.55772450016E+02  0.73911852814E+03  0.77106274776E+03  0.16500000000E+03 0.  0.
<mgrwt>
<rscale>  0 0.45922881E+03</rscale>
<asrwt>0</asrwt>
<pdfrwt beam="1">  1        2 0.30452011E+00 0.45922881E+03</pdfrwt>
<pdfrwt beam="2">  1       -2 0.35333464E-02 0.45922881E+03</pdfrwt>
<totfact> 0.25034258E+03</totfact>
</mgrwt>
</event>
<event>
 4    1  0.5312547E-005  0.5033233E+03  0.7818608E-02  0.1012915E+00
          2   -1    0    0  501    0  0.00000000000E+00  0.00000000000E+00  0.10402570914E+03  0.10402570917E+03  0.25500000000E-02 0.  1.
         -2   -1    0    0    0  501 -0.00000000000E+00 -0.00000000000E+00 -0.60882628495E+03  0.60882628495E+03  0.25500000000E-02 0. -1.
    5000001    1    1    2    0    0  0.20263636832E+02  0.55386066327E+02 -0.50823721563E+03  0.53759492062E+03  0.16500000000E+03 0.  0.
   -5000001    1    1    2    0    0 -0.20263636832E+02 -0.55386066327E+02  0.34366398219E+01  0.17525707351E+03  0.16500000000E+03 0.  0.
<mgrwt>
<rscale>  0 0.50332330E+03</rscale>
<asrwt>0</asrwt>
<pdfrwt beam="1">  1        2 0.14860816E-01 0.50332330E+03</pdfrwt>
<pdfrwt beam="2">  1       -2 0.86975182E-01 0.50332330E+03</pdfrwt>
<totfact> 0.46800034E+02</totfact>
</mgrwt>
</event>
<event>
 4    1  0.5312547E-005  0.9191572E+03  0.7818608E-02  0.9401946E-01
          2   -1    0    0  501    0  0.00000000000E+00  0.00000000000E+00  0.21654110077E+04  0.21654110077E+04  0.25500000000E-02 0.  1.
         -2   -1    0    0    0  501 -0.00000000000E+00 -0.00000000000E+00 -0.97539221340E+02  0.97539221373E+02  0.25500000000E-02 0. -1.
    5000001    1    1    2    0    0 -0.42198577162E+03  0.12625105251E+02  0.84714742022E+03  0.96078880943E+03  0.16500000000E+03 0.  0.
   -5000001    1    1    2    0    0  0.42198577162E+03 -0.12625105251E+02  0.12207243661E+04  0.13021614196E+04  0.16500000000E+03 0.  0.
<mgrwt>
<rscale>  0 0.91915723E+03</rscale>
<asrwt>0</asrwt>
<pdfrwt beam="1">  1        2 0.30934440E+00 0.91915723E+03</pdfrwt>
<pdfrwt beam="2">  1       -2 0.13934176E-01 0.91915723E+03</pdfrwt>
<totfact> 0.26432719E+02</totfact>
</mgrwt>
</event>
<event>
 4    1  0.5312547E-005  0.7213317E+03  0.7818608E-02  0.9681432E-01
          2   -1    0    0  501    0  0.00000000000E+00  0.00000000000E+00  0.28938130367E+04  0.28938130367E+04  0.25500000000E-02 0.  1.
         -2   -1    0    0    0  501 -0.00000000000E+00 -0.00000000000E+00 -0.44951019976E+02  0.44951020048E+02  0.25500000000E-02 0. -1.
    5000001    1    1    2    0    0 -0.15064658934E+03 -0.24603878519E+03  0.19951714273E+04  0.20226624788E+04  0.16500000000E+03 0.  0.
   -5000001    1    1    2    0    0  0.15064658934E+03  0.24603878519E+03  0.85369058934E+03  0.91610157790E+03  0.16500000000E+03 0.  0.
<mgrwt>
<rscale>  0 0.72133168E+03</rscale>
<asrwt>0</asrwt>
<pdfrwt beam="1">  1        2 0.41340197E+00 0.72133168E+03</pdfrwt>
<pdfrwt beam="2">  1       -2 0.64215727E-02 0.72133168E+03</pdfrwt>
<totfact> 0.39481710E+02</totfact>
</mgrwt>
</event>
<event>
 4    1  0.5312547E-005  0.7675382E+03  0.7818608E-02  0.9608230E-01
         -2   -1    0    0    0  501 -0.00000000000E+00  0.00000000000E+00  0.20213160527E+03  0.20213160528E+03  0.25500000000E-02 0. -1.
          2   -1    0    0  501    0  0.00000000000E+00 -0.00000000000E+00 -0.72862791646E+03  0.72862791646E+03  0.25500000000E-02 0.  1.
    5000001    1    1    2    0    0 -0.39567505499E+02  0.30699410642E+03 -0.45205968975E+03  0.57218347754E+03  0.16500000000E+03 0.  0.
   -5000001    1    1    2    0    0  0.39567505499E+02 -0.30699410642E+03 -0.74436621441E+02  0.35857604421E+03  0.16500000000E+03 0.  0.
<mgrwt>
<rscale>  0 0.76753822E+03</rscale>
<asrwt>0</asrwt>
<pdfrwt beam="1">  1        2 0.10408970E+00 0.76753822E+03</pdfrwt>
<pdfrwt beam="2">  1       -2 0.28875944E-01 0.76753822E+03</pdfrwt>
<totfact> 0.47281118E+02</totfact>
</mgrwt>
</event>
<event>
 4    1  0.5312547E-005  0.5875388E+03  0.7818608E-02  0.9931602E-01
          2   -1    0    0  501    0  0.00000000000E+00  0.00000000000E+00  0.25703955492E+03  0.25703955493E+03  0.25500000000E-02 0.  1.
         -2   -1    0    0    0  501 -0.00000000000E+00 -0.00000000000E+00 -0.33574775091E+03  0.33574775092E+03  0.25500000000E-02 0. -1.
    5000001    1    1    2    0    0 -0.10086591588E+03  0.13450455144E+03 -0.21645000750E+03  0.31990781967E+03  0.16500000000E+03 0.  0.
   -5000001    1    1    2    0    0  0.10086591588E+03 -0.13450455144E+03  0.13774181150E+03  0.27287948618E+03  0.16500000000E+03 0.  0.
<mgrwt>
<rscale>  0 0.58753877E+03</rscale>
<asrwt>0</asrwt>
<pdfrwt beam="1">  1        2 0.36719936E-01 0.58753877E+03</pdfrwt>
<pdfrwt beam="2">  1       -2 0.47963965E-01 0.58753877E+03</pdfrwt>
<totfact> 0.58781875E+02</totfact>
</mgrwt>
</event>
<event>
 4    1  0.5312547E-005  0.5084147E+03  0.7818608E-02  0.1011606E+00
         -2   -1    0    0    0  501 -0.00000000000E+00  0.00000000000E+00  0.54900795546E+03  0.54900795546E+03  0.25500000000E-02 0. -1.
          2   -1    0    0  501    0  0.00000000000E+00 -0.00000000000E+00 -0.11770570038E+03  0.11770570041E+03  0.25500000000E-02 0.  1.
    5000001    1    1    2    0    0 -0.13277009095E+03  0.13525686144E+03  0.16530368201E+03  0.30078667342E+03  0.16500000000E+03 0.  0.
   -5000001    1    1    2    0    0  0.13277009095E+03 -0.13525686144E+03  0.26599857306E+03  0.36592698246E+03  0.16500000000E+03 0.  0.
<mgrwt>
<rscale>  0 0.50841466E+03</rscale>
<asrwt>0</asrwt>
<pdfrwt beam="1">  1        2 0.16815100E-01 0.50841466E+03</pdfrwt>
<pdfrwt beam="2">  1       -2 0.78429709E-01 0.50841466E+03</pdfrwt>
<totfact> 0.50909524E+02</totfact>
</mgrwt>
</event>
<event>
 4    1  0.5312547E-005  0.4583545E+03  0.7818608E-02  0.1025260E+00
          2   -1    0    0  501    0  0.00000000000E+00  0.00000000000E+00  0.20978000616E+04  0.20978000616E+04  0.25500000000E-02 0.  1.
         -2   -1    0    0    0  501 -0.00000000000E+00 -0.00000000000E+00 -0.25036800119E+02  0.25036800249E+02  0.25500000000E-02 0. -1.
    5000001    1    1    2    0    0 -0.92532050453E+02  0.92904541813E+02  0.61945596451E+03  0.65432723176E+03  0.16500000000E+03 0.  0.
   -5000001    1    1    2    0    0  0.92532050453E+02 -0.92904541813E+02  0.14533072970E+04  0.14685096301E+04  0.16500000000E+03 0.  0.
<mgrwt>
<rscale>  0 0.45835445E+03</rscale>
<asrwt>0</asrwt>
<pdfrwt beam="1">  1        2 0.29968585E+00 0.45835445E+03</pdfrwt>
<pdfrwt beam="2">  1       -2 0.35766843E-02 0.45835445E+03</pdfrwt>
<totfact> 0.25547718E+03</totfact>
</mgrwt>
</event>
<event>
 4    1  0.5312547E-005  0.4319718E+03  0.7818608E-02  0.1033239E+00
         -2   -1    0    0    0  501 -0.00000000000E+00  0.00000000000E+00  0.65105551631E+02  0.65105551681E+02  0.25500000000E-02 0. -1.
          2   -1    0    0  501    0  0.00000000000E+00 -0.00000000000E+00 -0.71652744752E+03  0.71652744752E+03  0.25500000000E-02 0.  1.
    5000001    1    1    2    0    0 -0.13483177340E+03  0.11972268873E+02 -0.38577751673E+03  0.44087666615E+03  0.16500000000E+03 0.  0.
   -5000001    1    1    2    0    0  0.13483177340E+03 -0.11972268873E+02 -0.26564437916E+03  0.34075633306E+03  0.16500000000E+03 0.  0.
<mgrwt>
<rscale>  0 0.43197183E+03</rscale>
<asrwt>0</asrwt>
<pdfrwt beam="1">  1        2 0.10236106E+00 0.43197183E+03</pdfrwt>
<pdfrwt beam="2">  1       -2 0.93007935E-02 0.43197183E+03</pdfrwt>
<totfact> 0.33469530E+03</totfact>
</mgrwt>
</event>
<event>
 4    1  0.5312547E-005  0.6075623E+03  0.7818608E-02  0.9889840E-01
          2   -1    0    0  501    0  0.00000000000E+00  0.00000000000E+00  0.18465470763E+03  0.18465470765E+03  0.25500000000E-02 0.  1.
         -2   -1    0    0    0  501 -0.00000000000E+00 -0.00000000000E+00 -0.49975970986E+03  0.49975970987E+03  0.25500000000E-02 0. -1.
    5000001    1    1    2    0    0  0.20874717627E+03  0.23358684032E+02  0.54466232268E+01  0.26716226797E+03  0.16500000000E+03 0.  0.
   -5000001    1    1    2    0    0 -0.20874717627E+03 -0.23358684032E+02 -0.32055162546E+03  0.41725214955E+03  0.16500000000E+03 0.  0.
<mgrwt>
<rscale>  0 0.60756229E+03</rscale>
<asrwt>0</asrwt>
<pdfrwt beam="1">  1        2 0.26379244E-01 0.60756229E+03</pdfrwt>
<pdfrwt beam="2">  1       -2 0.71394244E-01 0.60756229E+03</pdfrwt>
<totfact> 0.37036940E+02</totfact>
</mgrwt>
</event>
<event>
 4    1  0.5312547E-005  0.5443859E+03  0.7818608E-02  0.1002802E+00
          2   -1    0    0  501    0  0.00000000000E+00  0.00000000000E+00  0.43752590260E+03  0.43752590261E+03  0.25500000000E-02 0.  1.
         -2   -1    0    0    0  501 -0.00000000000E+00 -0.00000000000E+00 -0.16933626630E+03  0.16933626632E+03  0.25500000000E-02 0. -1.
    5000001    1    1    2    0    0  0.15275762878E+03 -0.14702377493E+03  0.85335883052E+02  0.28188312557E+03  0.16500000000E+03 0.  0.
   -5000001    1    1    2    0    0 -0.15275762878E+03  0.14702377493E+03  0.18285375325E+03  0.32497904336E+03  0.16500000000E+03 0.  0.
<mgrwt>
<rscale>  0 0.54438590E+03</rscale>
<asrwt>0</asrwt>
<pdfrwt beam="1">  1        2 0.62503700E-01 0.54438590E+03</pdfrwt>
<pdfrwt beam="2">  1       -2 0.24190895E-01 0.54438590E+03</pdfrwt>
<totfact> 0.11892507E+03</totfact>
</mgrwt>
</event>
<event>
 4    1  0.5312547E-005  0.5703782E+03  0.7818608E-02  0.9968842E-01
          2   -1    0    0  501    0  0.00000000000E+00  0.00000000000E+00  0.29291393101E+03  0.29291393102E+03  0.25500000000E-02 0.  1.
         -2   -1    0    0    0  501 -0.00000000000E+00 -0.00000000000E+00 -0.27766802716E+03  0.27766802717E+03  0.25500000000E-02 0. -1.
    5000001    1    1    2    0    0  0.22336597172E+03 -0.41808232737E+02  0.57315111118E+02  0.28661874958E+03  0.16500000000E+03 0.  0.
   -5000001    1    1    2    0    0 -0.22336597172E+03  0.41808232737E+02 -0.42069207265E+02  0.28396320861E+03  0.16500000000E+03 0.  0.
<mgrwt>
<rscale>  0 0.57037824E+03</rscale>
<asrwt>0</asrwt>
<pdfrwt beam="1">  1        2 0.41844848E-01 0.57037824E+03</pdfrwt>
<pdfrwt beam="2">  1       -2 0.39666861E-01 0.57037824E+03</pdfrwt>
<totfact> 0.74001856E+02</totfact>
</mgrwt>
</event>
<event>
 4    1  0.5312547E-005  0.4274055E+03  0.7818608E-02  0.1034683E+00
          2   -1    0    0  501    0  0.00000000000E+00  0.00000000000E+00  0.26701594976E+04  0.26701594976E+04  0.25500000000E-02 0.  1.
         -2   -1    0    0    0  501 -0.00000000000E+00 -0.00000000000E+00 -0.17103424603E+02  0.17103424793E+02  0.25500000000E-02 0. -1.
    5000001    1    1    2    0    0 -0.11842848579E+03 -0.15673166446E+02  0.92037479644E+03  0.94264824845E+03  0.16500000000E+03 0.  0.
   -5000001    1    1    2    0    0  0.11842848579E+03  0.15673166446E+02  0.17326812766E+04  0.17446146740E+04  0.16500000000E+03 0.  0.
<mgrwt>
<rscale>  0 0.42740553E+03</rscale>
<asrwt>0</asrwt>
<pdfrwt beam="1">  1        2 0.38145129E+00 0.42740553E+03</pdfrwt>
<pdfrwt beam="2">  1       -2 0.24433468E-02 0.42740553E+03</pdfrwt>
<totfact> 0.23385885E+03</totfact>
</mgrwt>
</event>
<event>
 4    1  0.5312547E-005  0.4224083E+03  0.7818608E-02  0.1036285E+00
         -2   -1    0    0    0  501 -0.00000000000E+00  0.00000000000E+00  0.14220005068E+02  0.14220005297E+02  0.25500000000E-02 0. -1.
          2   -1    0    0  501    0  0.00000000000E+00 -0.00000000000E+00 -0.31369317079E+04  0.31369317079E+04  0.25500000000E-02 0.  1.
    5000001    1    1    2    0    0 -0.12866652550E+03  0.33575434287E+00 -0.17758863493E+04  0.17881701578E+04  0.16500000000E+03 0.  0.
   -5000001    1    1    2    0    0  0.12866652550E+03 -0.33575434287E+00 -0.13468253535E+04  0.13629815554E+04  0.16500000000E+03 0.  0.
<mgrwt>
<rscale>  0 0.42240826E+03</rscale>
<asrwt>0</asrwt>
<pdfrwt beam="1">  1        2 0.44813266E+00 0.42240826E+03</pdfrwt>
<pdfrwt beam="2">  1       -2 0.20314313E-02 0.42240826E+03</pdfrwt>
<totfact> 0.17414240E+03</totfact>
</mgrwt>
</event>
<event>
 4    1  0.5312547E-005  0.6963315E+03  0.7818608E-02  0.9723526E-01
         -2   -1    0    0    0  501 -0.00000000000E+00  0.00000000000E+00  0.51317108545E+02  0.51317108609E+02  0.25500000000E-02 0. -1.
          2   -1    0    0  501    0  0.00000000000E+00 -0.00000000000E+00 -0.23621632270E+04  0.23621632270E+04  0.25500000000E-02 0.  1.
    5000001    1    1    2    0    0 -0.24308587756E+03  0.47216161828E+02 -0.17819369736E+04  0.18066113272E+04  0.16500000000E+03 0.  0.
   -5000001    1    1    2    0    0  0.24308587756E+03 -0.47216161828E+02 -0.52890914481E+03  0.60686900833E+03  0.16500000000E+03 0.  0.
<mgrwt>
<rscale>  0 0.69633149E+03</rscale>
<asrwt>0</asrwt>
<pdfrwt beam="1">  1        2 0.33745182E+00 0.69633149E+03</pdfrwt>
<pdfrwt beam="2">  1       -2 0.73310170E-02 0.69633149E+03</pdfrwt>
<totfact> 0.60840990E+02</totfact>
</mgrwt>
</event>
<event>
 4    1  0.5312547E-005  0.5248868E+03  0.7818608E-02  0.1007480E+00
          2   -1    0    0  501    0  0.00000000000E+00  0.00000000000E+00  0.50135926902E+03  0.50135926902E+03  0.25500000000E-02 0.  1.
         -2   -1    0    0    0  501 -0.00000000000E+00 -0.00000000000E+00 -0.13737963015E+03  0.13737963017E+03  0.25500000000E-02 0. -1.
    5000001    1    1    2    0    0  0.19768588896E+03  0.85671431048E+01  0.12116336360E+03  0.28470803872E+03  0.16500000000E+03 0.  0.
   -5000001    1    1    2    0    0 -0.19768588896E+03 -0.85671431048E+01  0.24281627526E+03  0.35403086047E+03  0.16500000000E+03 0.  0.
<mgrwt>
<rscale>  0 0.52488685E+03</rscale>
<asrwt>0</asrwt>
<pdfrwt beam="1">  1        2 0.71622753E-01 0.52488685E+03</pdfrwt>
<pdfrwt beam="2">  1       -2 0.19625662E-01 0.52488685E+03</pdfrwt>
<totfact> 0.14737238E+03</totfact>
</mgrwt>
</event>
<event>
 4    1  0.5312547E-005  0.5380120E+03  0.7818608E-02  0.1004307E+00
         -2   -1    0    0    0  501 -0.00000000000E+00  0.00000000000E+00  0.70103639081E+03  0.70103639082E+03  0.25500000000E-02 0. -1.
          2   -1    0    0  501    0  0.00000000000E+00 -0.00000000000E+00 -0.10322462379E+03  0.10322462382E+03  0.25500000000E-02 0.  1.
    5000001    1    1    2    0    0  0.19869233115E+03 -0.57917528963E+02  0.22711861000E+03  0.34877062036E+03  0.16500000000E+03 0.  0.
   -5000001    1    1    2    0    0 -0.19869233115E+03  0.57917528963E+02  0.37069315702E+03  0.45549039428E+03  0.16500000000E+03 0.  0.
<mgrwt>
<rscale>  0 0.53801196E+03</rscale>
<asrwt>0</asrwt>
<pdfrwt beam="1">  1        2 0.14746375E-01 0.53801196E+03</pdfrwt>
<pdfrwt beam="2">  1       -2 0.10014805E+00 0.53801196E+03</pdfrwt>
<totfact> 0.34082198E+02</totfact>
</mgrwt>
</event>
<event>
 4    1  0.5312547E-005  0.6258848E+03  0.7818608E-02  0.9853112E-01
          2   -1    0    0  501    0  0.00000000000E+00  0.00000000000E+00  0.84190470490E+03  0.84190470490E+03  0.25500000000E-02 0.  1.
         -2   -1    0    0    0  501 -0.00000000000E+00 -0.00000000000E+00 -0.11632309194E+03  0.11632309197E+03  0.25500000000E-02 0. -1.
    5000001    1    1    2    0    0 -0.29948024230E+02 -0.26421727725E+03  0.36363584739E+03  0.47975377357E+03  0.16500000000E+03 0.  0.
   -5000001    1    1    2    0    0  0.29948024230E+02  0.26421727725E+03  0.36194576557E+03  0.47847402330E+03  0.16500000000E+03 0.  0.
<mgrwt>
<rscale>  0 0.62588484E+03</rscale>
<asrwt>0</asrwt>
<pdfrwt beam="1">  1        2 0.12027210E+00 0.62588484E+03</pdfrwt>
<pdfrwt beam="2">  1       -2 0.16617584E-01 0.62588484E+03</pdfrwt>
<totfact> 0.10494950E+03</totfact>
</mgrwt>
</event>
<event>
 4    1  0.5312547E-005  0.4245704E+03  0.7818608E-02  0.1035589E+00
          2   -1    0    0  501    0  0.00000000000E+00  0.00000000000E+00  0.10287280745E+04  0.10287280745E+04  0.25500000000E-02 0.  1.
         -2   -1    0    0    0  501 -0.00000000000E+00 -0.00000000000E+00 -0.43806536936E+02  0.43806537010E+02  0.25500000000E-02 0. -1.
    5000001    1    1    2    0    0 -0.42169478886E+02 -0.76150549523E+02  0.23654596329E+03  0.30125763707E+03  0.16500000000E+03 0.  0.
   -5000001    1    1    2    0    0  0.42169478886E+02  0.76150549523E+02  0.74837557427E+03  0.77127697445E+03  0.16500000000E+03 0.  0.
<mgrwt>
<rscale>  0 0.42457044E+03</rscale>
<asrwt>0</asrwt>
<pdfrwt beam="1">  1        2 0.14696115E+00 0.42457044E+03</pdfrwt>
<pdfrwt beam="2">  1       -2 0.62580768E-02 0.42457044E+03</pdfrwt>
<totfact> 0.39049035E+03</totfact>
</mgrwt>
</event>
<event>
 4    1  0.5312547E-005  0.4915886E+03  0.7818608E-02  0.1015998E+00
         -2   -1    0    0    0  501 -0.00000000000E+00  0.00000000000E+00  0.31044514616E+04  0.31044514616E+04  0.25500000000E-02 0. -1.
          2   -1    0    0  501    0  0.00000000000E+00 -0.00000000000E+00 -0.19460710440E+02  0.19460710607E+02  0.25500000000E-02 0.  1.
    5000001    1    1    2    0    0  0.12692956180E+02 -0.14859923413E+03  0.22073770326E+04  0.22185538550E+04  0.16500000000E+03 0.  0.
   -5000001    1    1    2    0    0 -0.12692956180E+02  0.14859923413E+03  0.87761371857E+03  0.90535831721E+03  0.16500000000E+03 0.  0.
<mgrwt>
<rscale>  0 0.49158857E+03</rscale>
<asrwt>0</asrwt>
<pdfrwt beam="1">  1        2 0.27801048E-02 0.49158857E+03</pdfrwt>
<pdfrwt beam="2">  1       -2 0.44349254E+00 0.49158857E+03</pdfrwt>
<totfact> 0.15742978E+01</totfact>
</mgrwt>
</event>
<event>
 4    1  0.5312547E-005  0.4613183E+03  0.7818608E-02  0.1024400E+00
          2   -1    0    0  501    0  0.00000000000E+00  0.00000000000E+00  0.15085383572E+04  0.15085383572E+04  0.25500000000E-02 0.  1.
         -2   -1    0    0    0  501 -0.00000000000E+00 -0.00000000000E+00 -0.35268335877E+02  0.35268335969E+02  0.25500000000E-02 0. -1.
    5000001    1    1    2    0    0 -0.10075225436E+03 -0.10897430868E+03  0.94701908517E+03  0.97267495310E+03  0.16500000000E+03 0.  0.
   -5000001    1    1    2    0    0  0.10075225436E+03  0.10897430868E+03  0.52625093611E+03  0.57113174003E+03  0.16500000000E+03 0.  0.
<mgrwt>
<rscale>  0 0.46131827E+03</rscale>
<asrwt>0</asrwt>
<pdfrwt beam="1">  1        2 0.21550546E+00 0.46131827E+03</pdfrwt>
<pdfrwt beam="2">  1       -2 0.50383342E-02 0.46131827E+03</pdfrwt>
<totfact> 0.29887504E+03</totfact>
</mgrwt>
</event>
<event>
 4    1  0.5312547E-005  0.6463511E+03  0.7818608E-02  0.9813650E-01
          2   -1    0    0  501    0  0.00000000000E+00  0.00000000000E+00  0.15522990214E+04  0.15522990214E+04  0.25500000000E-02 0.  1.
         -2   -1    0    0    0  501 -0.00000000000E+00 -0.00000000000E+00 -0.67282424541E+02  0.67282424590E+02  0.25500000000E-02 0. -1.
    5000001    1    1    2    0    0  0.17075807946E+03  0.21633726321E+03  0.83135785019E+03  0.89125810416E+03  0.16500000000E+03 0.  0.
   -5000001    1    1    2    0    0 -0.17075807946E+03 -0.21633726321E+03  0.65365874662E+03  0.72832334179E+03  0.16500000000E+03 0.  0.
<mgrwt>
<rscale>  0 0.64635112E+03</rscale>
<asrwt>0</asrwt>
<pdfrwt beam="1">  1        2 0.22175697E+00 0.64635112E+03</pdfrwt>
<pdfrwt beam="2">  1       -2 0.96117764E-02 0.64635112E+03</pdfrwt>
<totfact> 0.10184586E+03</totfact>
</mgrwt>
</event>
<event>
 4    1  0.5312547E-005  0.5537621E+03  0.7818608E-02  0.1000627E+00
          2   -1    0    0  501    0  0.00000000000E+00  0.00000000000E+00  0.17887703961E+04  0.17887703961E+04  0.25500000000E-02 0.  1.
         -2   -1    0    0    0  501 -0.00000000000E+00 -0.00000000000E+00 -0.42858002684E+02  0.42858002760E+02  0.25500000000E-02 0. -1.
    5000001    1    1    2    0    0  0.14395112756E+01  0.21411588250E+03  0.10711491178E+04  0.11047321466E+04  0.16500000000E+03 0.  0.
   -5000001    1    1    2    0    0 -0.14395112756E+01 -0.21411588250E+03  0.67476327566E+03  0.72689625224E+03  0.16500000000E+03 0.  0.
<mgrwt>
<rscale>  0 0.55376214E+03</rscale>
<asrwt>0</asrwt>
<pdfrwt beam="1">  1        2 0.25553858E+00 0.55376214E+03</pdfrwt>
<pdfrwt beam="2">  1       -2 0.61225731E-02 0.55376214E+03</pdfrwt>
<totfact> 0.15863794E+03</totfact>
</mgrwt>
</event>
<event>
 4    1  0.5312547E-005  0.4703138E+03  0.7818608E-02  0.1021832E+00
          2   -1    0    0  501    0  0.00000000000E+00  0.00000000000E+00  0.13055956050E+04  0.13055956050E+04  0.25500000000E-02 0.  1.
         -2   -1    0    0    0  501 -0.00000000000E+00 -0.00000000000E+00 -0.42355202172E+02  0.42355202248E+02  0.25500000000E-02 0. -1.
    5000001    1    1    2    0    0  0.15792925293E+03  0.55743494401E+02  0.61735312936E+03  0.66060492916E+03  0.16500000000E+03 0.  0.
   -5000001    1    1    2    0    0 -0.15792925293E+03 -0.55743494401E+02  0.64588727346E+03  0.68734587808E+03  0.16500000000E+03 0.  0.
<mgrwt>
<rscale>  0 0.47031379E+03</rscale>
<asrwt>0</asrwt>
<pdfrwt beam="1">  1        2 0.18651363E+00 0.47031379E+03</pdfrwt>
<pdfrwt beam="2">  1       -2 0.60507439E-02 0.47031379E+03</pdfrwt>
<totfact> 0.28767959E+03</totfact>
</mgrwt>
</event>
<event>
 4    1  0.5312547E-005  0.5506742E+03  0.7818608E-02  0.1001338E+00
         -2   -1    0    0    0  501 -0.00000000000E+00  0.00000000000E+00  0.63930965953E+02  0.63930966004E+02  0.25500000000E-02 0. -1.
          2   -1    0    0  501    0  0.00000000000E+00 -0.00000000000E+00 -0.11858183883E+04  0.11858183883E+04  0.25500000000E-02 0.  1.
    5000001    1    1    2    0    0 -0.19160704035E+03 -0.32145029242E+01 -0.80811941095E+03  0.84676181615E+03  0.16500000000E+03 0.  0.
   -5000001    1    1    2    0    0  0.19160704035E+03  0.32145029242E+01 -0.31376801144E+03  0.40298753820E+03  0.16500000000E+03 0.  0.
<mgrwt>
<rscale>  0 0.55067419E+03</rscale>
<asrwt>0</asrwt>
<pdfrwt beam="1">  1        2 0.16940261E+00 0.55067419E+03</pdfrwt>
<pdfrwt beam="2">  1       -2 0.91329959E-02 0.55067419E+03</pdfrwt>
<totfact> 0.17442009E+03</totfact>
</mgrwt>
</event>
<event>
 4    1  0.5312547E-005  0.4882696E+03  0.7818608E-02  0.1016887E+00
          2   -1    0    0  501    0  0.00000000000E+00  0.00000000000E+00  0.22516185698E+04  0.22516185698E+04  0.25500000000E-02 0.  1.
         -2   -1    0    0    0  501 -0.00000000000E+00 -0.00000000000E+00 -0.26470642465E+02  0.26470642588E+02  0.25500000000E-02 0. -1.
    5000001    1    1    2    0    0 -0.78328423138E+02  0.14481257722E+03  0.14512995025E+04  0.14698983877E+04  0.16500000000E+03 0.  0.
   -5000001    1    1    2    0    0  0.78328423138E+02 -0.14481257722E+03  0.77384842489E+03  0.80819082468E+03  0.16500000000E+03 0.  0.
<mgrwt>
<rscale>  0 0.48826956E+03</rscale>
<asrwt>0</asrwt>
<pdfrwt beam="1">  1        2 0.32165991E+00 0.48826956E+03</pdfrwt>
<pdfrwt beam="2">  1       -2 0.37815190E-02 0.48826956E+03</pdfrwt>
<totfact> 0.19639565E+03</totfact>
</mgrwt>
</event>
<event>
 4    1  0.5312547E-005  0.5151568E+03  0.7818608E-02  0.1009897E+00
         -2   -1    0    0    0  501 -0.00000000000E+00  0.00000000000E+00  0.19740845372E+02  0.19740845536E+02  0.25500000000E-02 0. -1.
          2   -1    0    0  501    0  0.00000000000E+00 -0.00000000000E+00 -0.33608806242E+04  0.33608806242E+04  0.25500000000E-02 0.  1.
    5000001    1    1    2    0    0 -0.20216950551E+02  0.19443652740E+03 -0.18682401684E+04  0.18856724570E+04  0.16500000000E+03 0.  0.
   -5000001    1    1    2    0    0  0.20216950551E+02 -0.19443652740E+03 -0.14728996104E+04  0.14949490127E+04  0.16500000000E+03 0.  0.
<mgrwt>
<rscale>  0 0.51515677E+03</rscale>
<asrwt>0</asrwt>
<pdfrwt beam="1">  1        2 0.48012544E+00 0.51515677E+03</pdfrwt>
<pdfrwt beam="2">  1       -2 0.28201229E-02 0.51515677E+03</pdfrwt>
<totfact> 0.78884320E+02</totfact>
</mgrwt>
</event>
<event>
 4    1  0.5312547E-005  0.9962951E+03  0.7818608E-02  0.9312618E-01
          2   -1    0    0  501    0  0.00000000000E+00  0.00000000000E+00  0.31608464684E+04  0.31608464685E+04  0.25500000000E-02 0.  1.
         -2   -1    0    0    0  501 -0.00000000000E+00 -0.00000000000E+00 -0.78507758480E+02  0.78507758522E+02  0.25500000000E-02 0. -1.
    5000001    1    1    2    0    0  0.40595654964E+03 -0.14642481508E+03  0.93563127571E+03  0.10434902159E+04  0.16500000000E+03 0.  0.
   -5000001    1    1    2    0    0 -0.40595654964E+03  0.14642481508E+03  0.21467074343E+04  0.21958640110E+04  0.16500000000E+03 0.  0.
<mgrwt>
<rscale>  0 0.99629508E+03</rscale>
<asrwt>0</asrwt>
<pdfrwt beam="1">  1        2 0.45154962E+00 0.99629508E+03</pdfrwt>
<pdfrwt beam="2">  1       -2 0.11215391E-01 0.99629508E+03</pdfrwt>
<totfact> 0.11149840E+02</totfact>
</mgrwt>
</event>
<event>
 4    1  0.5312547E-005  0.6565946E+03  0.7818608E-02  0.9794483E-01
          2   -1    0    0  501    0  0.00000000000E+00  0.00000000000E+00  0.12447893810E+04  0.12447893810E+04  0.25500000000E-02 0.  1.
         -2   -1    0    0    0  501 -0.00000000000E+00 -0.00000000000E+00 -0.86584227756E+02  0.86584227794E+02  0.25500000000E-02 0. -1.
    5000001    1    1    2    0    0  0.14581235152E+03 -0.18414550641E+03  0.90215783272E+03  0.94672306644E+03  0.16500000000E+03 0.  0.
   -5000001    1    1    2    0    0 -0.14581235152E+03  0.18414550641E+03  0.25604732052E+03  0.38465054235E+03  0.16500000000E+03 0.  0.
<mgrwt>
<rscale>  0 0.65659463E+03</rscale>
<asrwt>0</asrwt>
<pdfrwt beam="1">  1        2 0.17782705E+00 0.65659463E+03</pdfrwt>
<pdfrwt beam="2">  1       -2 0.12369176E-01 0.65659463E+03</pdfrwt>
<totfact> 0.98362628E+02</totfact>
</mgrwt>
</event>
<event>
 4    1  0.5312547E-005  0.6441677E+03  0.7818608E-02  0.9817785E-01
          2   -1    0    0  501    0  0.00000000000E+00  0.00000000000E+00  0.25681588960E+04  0.25681588960E+04  0.25500000000E-02 0.  1.
         -2   -1    0    0    0  501 -0.00000000000E+00 -0.00000000000E+00 -0.40393919095E+02  0.40393919175E+02  0.25500000000E-02 0. -1.
    5000001    1    1    2    0    0  0.14407292647E+03  0.19593948417E+03  0.17974900793E+04  0.18213579755E+04  0.16500000000E+03 0.  0.
   -5000001    1    1    2    0    0 -0.14407292647E+03 -0.19593948417E+03  0.73027489757E+03  0.78719483968E+03  0.16500000000E+03 0.  0.
<mgrwt>
<rscale>  0 0.64416769E+03</rscale>
<asrwt>0</asrwt>
<pdfrwt beam="1">  1        2 0.36687980E+00 0.64416769E+03</pdfrwt>
<pdfrwt beam="2">  1       -2 0.57705605E-02 0.64416769E+03</pdfrwt>
<totfact> 0.69830467E+02</totfact>
</mgrwt>
</event>
<event>
 4    1  0.5312547E-005  0.4172995E+03  0.7818608E-02  0.1037949E+00
         -2   -1    0    0    0  501 -0.00000000000E+00  0.00000000000E+00  0.39603523020E+03  0.39603523021E+03  0.25500000000E-02 0. -1.
          2   -1    0    0  501    0  0.00000000000E+00 -0.00000000000E+00 -0.10992639915E+03  0.10992639918E+03  0.25500000000E-02 0.  1.
    5000001    1    1    2    0    0 -0.23998277744E+01  0.12530303573E+03  0.17283069365E+03  0.26981856608E+03  0.16500000000E+03 0.  0.
   -5000001    1    1    2    0    0  0.23998277744E+01 -0.12530303573E+03  0.11327813740E+03  0.23614306331E+03  0.16500000000E+03 0.  0.
<mgrwt>
<rscale>  0 0.41729954E+03</rscale>
<asrwt>0</asrwt>
<pdfrwt beam="1">  1        2 0.15703772E-01 0.41729954E+03</pdfrwt>
<pdfrwt beam="2">  1       -2 0.56576460E-01 0.41729954E+03</pdfrwt>
<totfact> 0.11109850E+03</totfact>
</mgrwt>
</event>
<event>
 4    1  0.5312547E-005  0.5755253E+03  0.7818608E-02  0.9957526E-01
          2   -1    0    0  501    0  0.00000000000E+00  0.00000000000E+00  0.10975623900E+04  0.10975623900E+04  0.25500000000E-02 0.  1.
         -2   -1    0    0    0  501 -0.00000000000E+00 -0.00000000000E+00 -0.75446579938E+02  0.75446579981E+02  0.25500000000E-02 0. -1.
    5000001    1    1    2    0    0 -0.15936160304E+03  0.93418137185E+02  0.21248917660E+03  0.32634294699E+03  0.16500000000E+03 0.  0.
   -5000001    1    1    2    0    0  0.15936160304E+03 -0.93418137185E+02  0.80962663345E+03  0.84666602298E+03  0.16500000000E+03 0.  0.
<mgrwt>
<rscale>  0 0.57552525E+03</rscale>
<asrwt>0</asrwt>
<pdfrwt beam="1">  1        2 0.15679462E+00 0.57552525E+03</pdfrwt>
<pdfrwt beam="2">  1       -2 0.10778084E-01 0.57552525E+03</pdfrwt>
<totfact> 0.14977252E+03</totfact>
</mgrwt>
</event>
<event>
 4    1  0.5312547E-005  0.4316318E+03  0.7818608E-02  0.1033346E+00
         -2   -1    0    0    0  501 -0.00000000000E+00  0.00000000000E+00  0.36100479073E+02  0.36100479163E+02  0.25500000000E-02 0. -1.
          2   -1    0    0  501    0  0.00000000000E+00 -0.00000000000E+00 -0.12901908360E+04  0.12901908360E+04  0.25500000000E-02 0.  1.
    5000001    1    1    2    0    0  0.99840392585E+02 -0.30535366560E+02 -0.90951976805E+03  0.93024282909E+03  0.16500000000E+03 0.  0.
   -5000001    1    1    2    0    0 -0.99840392585E+02  0.30535366560E+02 -0.34457058888E+03  0.39604848608E+03  0.16500000000E+03 0.  0.
<mgrwt>
<rscale>  0 0.43163182E+03</rscale>
<asrwt>0</asrwt>
<pdfrwt beam="1">  1        2 0.18431295E+00 0.43163182E+03</pdfrwt>
<pdfrwt beam="2">  1       -2 0.51572121E-02 0.43163182E+03</pdfrwt>
<totfact> 0.37557231E+03</totfact>
</mgrwt>
</event>
<event>
 4    1  0.5312547E-005  0.7540880E+03  0.7818608E-02  0.9628959E-01
         -2   -1    0    0    0  501 -0.00000000000E+00  0.00000000000E+00  0.30450408665E+03  0.30450408666E+03  0.25500000000E-02 0. -1.
          2   -1    0    0  501    0  0.00000000000E+00 -0.00000000000E+00 -0.46686462993E+03  0.46686462994E+03  0.25500000000E-02 0.  1.
    5000001    1    1    2    0    0 -0.32375889430E+03  0.49035785585E+02 -0.17101569937E+03  0.40459325172E+03  0.16500000000E+03 0.  0.
   -5000001    1    1    2    0    0  0.32375889430E+03 -0.49035785585E+02  0.86551560907E+01  0.36677546488E+03  0.16500000000E+03 0.  0.
<mgrwt>
<rscale>  0 0.75408803E+03</rscale>
<asrwt>0</asrwt>
<pdfrwt beam="1">  1        2 0.66694947E-01 0.75408803E+03</pdfrwt>
<pdfrwt beam="2">  1       -2 0.43500584E-01 0.75408803E+03</pdfrwt>
<totfact> 0.36627368E+02</totfact>
</mgrwt>
</event>
<event>
 4    1  0.5312547E-005  0.6567216E+03  0.7818608E-02  0.9794248E-01
          2   -1    0    0  501    0  0.00000000000E+00  0.00000000000E+00  0.69644852227E+03  0.69644852228E+03  0.25500000000E-02 0.  1.
         -2   -1    0    0    0  501 -0.00000000000E+00 -0.00000000000E+00 -0.15481521041E+03  0.15481521043E+03  0.25500000000E-02 0. -1.
    5000001    1    1    2    0    0  0.20102666581E+03 -0.20042234829E+03  0.27583467583E+03  0.42882468032E+03  0.16500000000E+03 0.  0.
   -5000001    1    1    2    0    0 -0.20102666581E+03  0.20042234829E+03  0.26579863604E+03  0.42243905239E+03  0.16500000000E+03 0.  0.
<mgrwt>
<rscale>  0 0.65672163E+03</rscale>
<asrwt>0</asrwt>
<pdfrwt beam="1">  1        2 0.99492647E-01 0.65672163E+03</pdfrwt>
<pdfrwt beam="2">  1       -2 0.22116458E-01 0.65672163E+03</pdfrwt>
<totfact> 0.81153925E+02</totfact>
</mgrwt>
</event>
<event>
 4    1  0.5312547E-005  0.4118938E+03  0.7818608E-02  0.1039737E+00
          2   -1    0    0  501    0  0.00000000000E+00  0.00000000000E+00  0.24289850719E+04  0.24289850719E+04  0.25500000000E-02 0.  1.
         -2   -1    0    0    0  501 -0.00000000000E+00 -0.00000000000E+00 -0.17461669036E+02  0.17461669222E+02  0.25500000000E-02 0. -1.
    5000001    1    1    2    0    0  0.69844829692E+02 -0.99978550670E+02  0.11003253432E+04  0.11192921297E+04  0.16500000000E+03 0.  0.
   -5000001    1    1    2    0    0 -0.69844829692E+02  0.99978550670E+02  0.13111980597E+04  0.13271546114E+04  0.16500000000E+03 0.  0.
<mgrwt>
<rscale>  0 0.41189384E+03</rscale>
<asrwt>0</asrwt>
<pdfrwt beam="1">  1        2 0.34699772E+00 0.41189384E+03</pdfrwt>
<pdfrwt beam="2">  1       -2 0.24945252E-02 0.41189384E+03</pdfrwt>
<totfact> 0.30107805E+03</totfact>
</mgrwt>
</event>
<event>
 4    1  0.5312547E-005  0.7829531E+03  0.7818608E-02  0.9585025E-01
         -2   -1    0    0    0  501 -0.00000000000E+00  0.00000000000E+00  0.44935531156E+03  0.44935531157E+03  0.25500000000E-02 0. -1.
          2   -1    0    0  501    0  0.00000000000E+00 -0.00000000000E+00 -0.34105283503E+03  0.34105283504E+03  0.25500000000E-02 0.  1.
    5000001    1    1    2    0    0 -0.30003491926E+03  0.16746517134E+02  0.24496820179E+03  0.42134999526E+03  0.16500000000E+03 0.  0.
   -5000001    1    1    2    0    0  0.30003491926E+03 -0.16746517134E+02 -0.13666572526E+03  0.36905815135E+03  0.16500000000E+03 0.  0.
<mgrwt>
<rscale>  0 0.78295314E+03</rscale>
<asrwt>0</asrwt>
<pdfrwt beam="1">  1        2 0.48721834E-01 0.78295314E+03</pdfrwt>
<pdfrwt beam="2">  1       -2 0.64193616E-01 0.78295314E+03</pdfrwt>
<totfact> 0.23357901E+02</totfact>
</mgrwt>
</event>
<event>
 4    1  0.5312547E-005  0.3576514E+03  0.7818608E-02  0.1059518E+00
         -2   -1    0    0    0  501 -0.00000000000E+00  0.00000000000E+00  0.42189117697E+02  0.42189117774E+02  0.25500000000E-02 0. -1.
          2   -1    0    0  501    0  0.00000000000E+00 -0.00000000000E+00 -0.75798293082E+03  0.75798293083E+03  0.25500000000E-02 0.  1.
    5000001    1    1    2    0    0  0.33421780442E+02  0.59790669127E+02 -0.34032429005E+03  0.38436644224E+03  0.16500000000E+03 0.  0.
   -5000001    1    1    2    0    0 -0.33421780442E+02 -0.59790669127E+02 -0.37546952307E+03  0.41580560636E+03  0.16500000000E+03 0.  0.
<mgrwt>
<rscale>  0 0.35765140E+03</rscale>
<asrwt>0</asrwt>
<pdfrwt beam="1">  1        2 0.10828327E+00 0.35765140E+03</pdfrwt>
<pdfrwt beam="2">  1       -2 0.60270173E-02 0.35765140E+03</pdfrwt>
<totfact> 0.61570464E+03</totfact>
</mgrwt>
</event>
<event>
 4    1  0.5312547E-005  0.4987961E+03  0.7818608E-02  0.1014094E+00
         -2   -1    0    0    0  501 -0.00000000000E+00  0.00000000000E+00  0.47605893056E+03  0.47605893057E+03  0.25500000000E-02 0. -1.
          2   -1    0    0  501    0  0.00000000000E+00 -0.00000000000E+00 -0.13065480847E+03  0.13065480850E+03  0.25500000000E-02 0.  1.
    5000001    1    1    2    0    0 -0.99640958426E+02  0.15408100680E+03  0.12875958480E+03  0.27834027364E+03  0.16500000000E+03 0.  0.
   -5000001    1    1    2    0    0  0.99640958426E+02 -0.15408100680E+03  0.21664453729E+03  0.32837346542E+03  0.16500000000E+03 0.  0.
<mgrwt>
<rscale>  0 0.49879610E+03</rscale>
<asrwt>0</asrwt>
<pdfrwt beam="1">  1        2 0.18664972E-01 0.49879610E+03</pdfrwt>
<pdfrwt beam="2">  1       -2 0.68008419E-01 0.49879610E+03</pdfrwt>
<totfact> 0.61465862E+02</totfact>
</mgrwt>
</event>
<event>
 4    1  0.5312547E-005  0.6419676E+03  0.7818608E-02  0.9821969E-01
          2   -1    0    0  501    0  0.00000000000E+00  0.00000000000E+00  0.12194117499E+04  0.12194117499E+04  0.25500000000E-02 0.  1.
         -2   -1    0    0    0  501 -0.00000000000E+00 -0.00000000000E+00 -0.84492039964E+02  0.84492040002E+02  0.25500000000E-02 0. -1.
    5000001    1    1    2    0    0  0.19234114196E+03 -0.17767375310E+03  0.39460682959E+03  0.50150037626E+03  0.16500000000E+03 0.  0.
   -5000001    1    1    2    0    0 -0.19234114196E+03  0.17767375310E+03  0.74031288035E+03  0.80240341366E+03  0.16500000000E+03 0.  0.
<mgrwt>
<rscale>  0 0.64196756E+03</rscale>
<asrwt>0</asrwt>
<pdfrwt beam="1">  1        2 0.17420167E+00 0.64196756E+03</pdfrwt>
<pdfrwt beam="2">  1       -2 0.12070292E-01 0.64196756E+03</pdfrwt>
<totfact> 0.10585238E+03</totfact>
</mgrwt>
</event>
<event>
 4    1  0.5312547E-005  0.4503106E+03  0.7818608E-02  0.1027629E+00
          2   -1    0    0  501    0  0.00000000000E+00  0.00000000000E+00  0.11456551760E+03  0.11456551763E+03  0.25500000000E-02 0.  1.
         -2   -1    0    0    0  501 -0.00000000000E+00 -0.00000000000E+00 -0.44249718329E+03  0.44249718330E+03  0.25500000000E-02 0. -1.
    5000001    1    1    2    0    0 -0.10264314618E+03 -0.86471331127E+02 -0.25534965834E+03  0.33232718002E+03  0.16500000000E+03 0.  0.
   -5000001    1    1    2    0    0  0.10264314618E+03  0.86471331127E+02 -0.72582007356E+02  0.22473552091E+03  0.16500000000E+03 0.  0.
<mgrwt>
<rscale>  0 0.45031064E+03</rscale>
<asrwt>0</asrwt>
<pdfrwt beam="1">  1        2 0.16366503E-01 0.45031064E+03</pdfrwt>
<pdfrwt beam="2">  1       -2 0.63213883E-01 0.45031064E+03</pdfrwt>
<totfact> 0.83917947E+02</totfact>
</mgrwt>
</event>
<event>
 4    1  0.5312547E-005  0.3827806E+03  0.7818608E-02  0.1049911E+00
          2   -1    0    0  501    0  0.00000000000E+00  0.00000000000E+00  0.29345795708E+03  0.29345795710E+03  0.25500000000E-02 0.  1.
         -2   -1    0    0    0  501 -0.00000000000E+00 -0.00000000000E+00 -0.12482281841E+03  0.12482281843E+03  0.25500000000E-02 0. -1.
    5000001    1    1    2    0    0 -0.15557855469E+02  0.84102554001E+02  0.13427352297E+03  0.22928075677E+03  0.16500000000E+03 0.  0.
   -5000001    1    1    2    0    0  0.15557855469E+02 -0.84102554001E+02  0.34361615710E+02  0.18900001876E+03  0.16500000000E+03 0.  0.
<mgrwt>
<rscale>  0 0.38278061E+03</rscale>
<asrwt>0</asrwt>
<pdfrwt beam="1">  1        2 0.41922565E-01 0.38278061E+03</pdfrwt>
<pdfrwt beam="2">  1       -2 0.17831832E-01 0.38278061E+03</pdfrwt>
<totfact> 0.31257822E+03</totfact>
</mgrwt>
</event>
<event>
 4    1  0.5312547E-005  0.9175979E+03  0.7818608E-02  0.9403847E-01
          2   -1    0    0  501    0  0.00000000000E+00  0.00000000000E+00  0.34340212413E+04  0.34340212413E+04  0.25500000000E-02 0.  1.
         -2   -1    0    0    0  501 -0.00000000000E+00 -0.00000000000E+00 -0.61297375307E+02  0.61297375360E+02  0.25500000000E-02 0. -1.
    5000001    1    1    2    0    0  0.20996871345E+02  0.42396518219E+03  0.14748174452E+04  0.15435345286E+04  0.16500000000E+03 0.  0.
   -5000001    1    1    2    0    0 -0.20996871345E+02 -0.42396518219E+03  0.18979064208E+04  0.19517840880E+04  0.16500000000E+03 0.  0.
<mgrwt>
<rscale>  0 0.91759793E+03</rscale>
<asrwt>0</asrwt>
<pdfrwt beam="1">  1        2 0.49057445E+00 0.91759793E+03</pdfrwt>
<pdfrwt beam="2">  1       -2 0.87567682E-02 0.91759793E+03</pdfrwt>
<totfact> 0.11698627E+02</totfact>
</mgrwt>
</event>
<event>
 4    1  0.5312547E-005  0.4319915E+03  0.7818608E-02  0.1033233E+00
          2   -1    0    0  501    0  0.00000000000E+00  0.00000000000E+00  0.91859585130E+02  0.91859585165E+02  0.25500000000E-02 0.  1.
         -2   -1    0    0    0  501 -0.00000000000E+00 -0.00000000000E+00 -0.50788564416E+03  0.50788564417E+03  0.25500000000E-02 0. -1.
    5000001    1    1    2    0    0 -0.13166828482E+03 -0.45504313800E+02 -0.21452260441E+03  0.30438812001E+03  0.16500000000E+03 0.  0.
   -5000001    1    1    2    0    0  0.13166828482E+03  0.45504313800E+02 -0.20150345462E+03  0.29535710932E+03  0.16500000000E+03 0.  0.
<mgrwt>
<rscale>  0 0.43199150E+03</rscale>
<asrwt>0</asrwt>
<pdfrwt beam="1">  1        2 0.13122798E-01 0.43199150E+03</pdfrwt>
<pdfrwt beam="2">  1       -2 0.72555090E-01 0.43199150E+03</pdfrwt>
<totfact> 0.81468469E+02</totfact>
</mgrwt>
</event>
<event>
 4    1  0.5312547E-005  0.5203078E+03  0.7818608E-02  0.1008610E+00
         -2   -1    0    0    0  501 -0.00000000000E+00  0.00000000000E+00  0.10267867307E+03  0.10267867310E+03  0.25500000000E-02 0. -1.
          2   -1    0    0  501    0  0.00000000000E+00 -0.00000000000E+00 -0.65914429977E+03  0.65914429978E+03  0.25500000000E-02 0.  1.
    5000001    1    1    2    0    0  0.16117150098E+03  0.18983328840E+02 -0.45220791172E+03  0.50798977837E+03  0.16500000000E+03 0.  0.
   -5000001    1    1    2    0    0 -0.16117150098E+03 -0.18983328840E+02 -0.10425771499E+03  0.25383319451E+03  0.16500000000E+03 0.  0.
<mgrwt>
<rscale>  0 0.52030784E+03</rscale>
<asrwt>0</asrwt>
<pdfrwt beam="1">  1        2 0.94163469E-01 0.52030784E+03</pdfrwt>
<pdfrwt beam="2">  1       -2 0.14668382E-01 0.52030784E+03</pdfrwt>
<totfact> 0.17599534E+03</totfact>
</mgrwt>
</event>
<event>
 4    1  0.5312547E-005  0.1123981E+04  0.7818608E-02  0.9182129E-01
         -2   -1    0    0    0  501 -0.00000000000E+00  0.00000000000E+00  0.11417253671E+03  0.11417253673E+03  0.25500000000E-02 0. -1.
          2   -1    0    0  501    0  0.00000000000E+00 -0.00000000000E+00 -0.27662802659E+04  0.27662802659E+04  0.25500000000E-02 0.  1.
    5000001    1    1    2    0    0 -0.14198587273E+03  0.51527886433E+03 -0.11871944343E+04  0.13123749163E+04  0.16500000000E+03 0.  0.
   -5000001    1    1    2    0    0  0.14198587273E+03 -0.51527886433E+03 -0.14649132949E+04  0.15680778863E+04  0.16500000000E+03 0.  0.
<mgrwt>
<rscale>  0 0.11239808E+04</rscale>
<asrwt>0</asrwt>
<pdfrwt beam="1">  1        2 0.39518285E+00 0.11239808E+04</pdfrwt>
<pdfrwt beam="2">  1       -2 0.16310364E-01 0.11239808E+04</pdfrwt>
<totfact> 0.96803530E+01</totfact>
</mgrwt>
</event>
<event>
 4    1  0.5312547E-005  0.3989689E+03  0.7818608E-02  0.1044137E+00
         -2   -1    0    0    0  501 -0.00000000000E+00  0.00000000000E+00  0.73250822251E+02  0.73250822295E+02  0.25500000000E-02 0. -1.
          2   -1    0    0  501    0  0.00000000000E+00 -0.00000000000E+00 -0.54325736642E+03  0.54325736642E+03  0.25500000000E-02 0.  1.
    5000001    1    1    2    0    0 -0.96016176452E+02 -0.29224656766E+02 -0.31220198905E+03  0.36710797958E+03  0.16500000000E+03 0.  0.
   -5000001    1    1    2    0    0  0.96016176452E+02  0.29224656766E+02 -0.15780455512E+03  0.24940020914E+03  0.16500000000E+03 0.  0.
<mgrwt>
<rscale>  0 0.39896892E+03</rscale>
<asrwt>0</asrwt>
<pdfrwt beam="1">  1        2 0.77608193E-01 0.39896892E+03</pdfrwt>
<pdfrwt beam="2">  1       -2 0.10464403E-01 0.39896892E+03</pdfrwt>
<totfact> 0.38286141E+03</totfact>
</mgrwt>
</event>
<event>
 4    1  0.5312547E-005  0.5691834E+03  0.7818608E-02  0.9971487E-01
          2   -1    0    0  501    0  0.00000000000E+00  0.00000000000E+00  0.15042055887E+04  0.15042055887E+04  0.25500000000E-02 0.  1.
         -2   -1    0    0    0  501 -0.00000000000E+00 -0.00000000000E+00 -0.53843996758E+02  0.53843996818E+02  0.25500000000E-02 0. -1.
    5000001    1    1    2    0    0  0.13633281946E+03 -0.18578507587E+03  0.65460679266E+03  0.71332866554E+03  0.16500000000E+03 0.  0.
   -5000001    1    1    2    0    0 -0.13633281946E+03  0.18578507587E+03  0.79575479928E+03  0.84472091999E+03  0.16500000000E+03 0.  0.
<mgrwt>
<rscale>  0 0.56918342E+03</rscale>
<asrwt>0</asrwt>
<pdfrwt beam="1">  1        2 0.21488651E+00 0.56918342E+03</pdfrwt>
<pdfrwt beam="2">  1       -2 0.76919997E-02 0.56918342E+03</pdfrwt>
<totfact> 0.15461720E+03</totfact>
</mgrwt>
</event>
<event>
 4    1  0.5312547E-005  0.4176633E+03  0.7818608E-02  0.1037829E+00
         -2   -1    0    0    0  501 -0.00000000000E+00  0.00000000000E+00  0.28334453238E+03  0.28334453239E+03  0.25500000000E-02 0. -1.
          2   -1    0    0  501    0  0.00000000000E+00 -0.00000000000E+00 -0.15391391669E+03  0.15391391671E+03  0.25500000000E-02 0.  1.
    5000001    1    1    2    0    0  0.21130814975E+02  0.90533386033E+02 -0.27406530212E+02  0.19136071495E+03  0.16500000000E+03 0.  0.
   -5000001    1    1    2    0    0 -0.21130814975E+02 -0.90533386033E+02  0.15683714590E+03  0.24589773415E+03  0.16500000000E+03 0.  0.
<mgrwt>
<rscale>  0 0.41766334E+03</rscale>
<asrwt>0</asrwt>
<pdfrwt beam="1">  1        2 0.21987703E-01 0.41766334E+03</pdfrwt>
<pdfrwt beam="2">  1       -2 0.40477790E-01 0.41766334E+03</pdfrwt>
<totfact> 0.14617947E+03</totfact>
</mgrwt>
</event>
<event>
 4    1  0.5312547E-005  0.5069504E+03  0.7818608E-02  0.1011981E+00
          2   -1    0    0  501    0  0.00000000000E+00  0.00000000000E+00  0.13526707349E+03  0.13526707352E+03  0.25500000000E-02 0.  1.
         -2   -1    0    0    0  501 -0.00000000000E+00 -0.00000000000E+00 -0.47498384390E+03  0.47498384391E+03  0.25500000000E-02 0. -1.
    5000001    1    1    2    0    0 -0.56997039110E+02 -0.13651150596E+03 -0.21738004133E+02  0.22266924922E+03  0.16500000000E+03 0.  0.
   -5000001    1    1    2    0    0  0.56997039110E+02  0.13651150596E+03 -0.31797876628E+03  0.38758166820E+03  0.16500000000E+03 0.  0.
<mgrwt>
<rscale>  0 0.50695039E+03</rscale>
<asrwt>0</asrwt>
<pdfrwt beam="1">  1        2 0.19323868E-01 0.50695039E+03</pdfrwt>
<pdfrwt beam="2">  1       -2 0.67854834E-01 0.50695039E+03</pdfrwt>
<totfact> 0.59299771E+02</totfact>
</mgrwt>
</event>
<event>
 4    1  0.5312547E-005  0.5340155E+03  0.7818608E-02  0.1005263E+00
          2   -1    0    0  501    0  0.00000000000E+00  0.00000000000E+00  0.27577786177E+03  0.27577786178E+03  0.25500000000E-02 0.  1.
         -2   -1    0    0    0  501 -0.00000000000E+00 -0.00000000000E+00 -0.25851655049E+03  0.25851655050E+03  0.25500000000E-02 0. -1.
    5000001    1    1    2    0    0  0.20517970059E+03  0.22835868529E+02 -0.29441223122E+02  0.26591722781E+03  0.16500000000E+03 0.  0.
   -5000001    1    1    2    0    0 -0.20517970059E+03 -0.22835868529E+02  0.46702534397E+02  0.26837718447E+03  0.16500000000E+03 0.  0.
<mgrwt>
<rscale>  0 0.53401551E+03</rscale>
<asrwt>0</asrwt>
<pdfrwt beam="1">  1        2 0.39396837E-01 0.53401551E+03</pdfrwt>
<pdfrwt beam="2">  1       -2 0.36930936E-01 0.53401551E+03</pdfrwt>
<totfact> 0.90755122E+02</totfact>
</mgrwt>
</event>
<event>
 4    1  0.5312547E-005  0.5248244E+03  0.7818608E-02  0.1007495E+00
          2   -1    0    0  501    0  0.00000000000E+00  0.00000000000E+00  0.15685827357E+03  0.15685827359E+03  0.25500000000E-02 0.  1.
         -2   -1    0    0    0  501 -0.00000000000E+00 -0.00000000000E+00 -0.43899601421E+03  0.43899601422E+03  0.25500000000E-02 0. -1.
    5000001    1    1    2    0    0  0.19646390405E+03 -0.48475670664E+02 -0.17083126371E+03  0.31201967391E+03  0.16500000000E+03 0.  0.
   -5000001    1    1    2    0    0 -0.19646390405E+03  0.48475670664E+02 -0.11130647693E+03  0.28383461390E+03  0.16500000000E+03 0.  0.
<mgrwt>
<rscale>  0 0.52482438E+03</rscale>
<asrwt>0</asrwt>
<pdfrwt beam="1">  1        2 0.22408325E-01 0.52482438E+03</pdfrwt>
<pdfrwt beam="2">  1       -2 0.62713716E-01 0.52482438E+03</pdfrwt>
<totfact> 0.59065667E+02</totfact>
</mgrwt>
</event>
<event>
 4    1  0.5312547E-005  0.4358447E+03  0.7818608E-02  0.1032029E+00
         -2   -1    0    0    0  501 -0.00000000000E+00  0.00000000000E+00  0.52039651360E+02  0.52039651423E+02  0.25500000000E-02 0. -1.
          2   -1    0    0  501    0  0.00000000000E+00 -0.00000000000E+00 -0.91257623457E+03  0.91257623457E+03  0.25500000000E-02 0.  1.
    5000001    1    1    2    0    0  0.93539301868E+02 -0.49372668672E+02 -0.21939816884E+03  0.29419010503E+03  0.16500000000E+03 0.  0.
   -5000001    1    1    2    0    0 -0.93539301868E+02  0.49372668672E+02 -0.64113841437E+03  0.67042578097E+03  0.16500000000E+03 0.  0.
<mgrwt>
<rscale>  0 0.43584469E+03</rscale>
<asrwt>0</asrwt>
<pdfrwt beam="1">  1        2 0.13036802E+00 0.43584469E+03</pdfrwt>
<pdfrwt beam="2">  1       -2 0.74342364E-02 0.43584469E+03</pdfrwt>
<totfact> 0.35129949E+03</totfact>
</mgrwt>
</event>
<event>
 4    1  0.5312547E-005  0.1029233E+04  0.7818608E-02  0.9277051E-01
         -2   -1    0    0    0  501 -0.00000000000E+00  0.00000000000E+00  0.23662094169E+03  0.23662094170E+03  0.25500000000E-02 0. -1.
          2   -1    0    0  501    0  0.00000000000E+00 -0.00000000000E+00 -0.11192171516E+04  0.11192171516E+04  0.25500000000E-02 0.  1.
    5000001    1    1    2    0    0 -0.12524580321E+03  0.46714919581E+03 -0.36127287958E+03  0.62582583511E+03  0.16500000000E+03 0.  0.
   -5000001    1    1    2    0    0  0.12524580321E+03 -0.46714919581E+03 -0.52132333030E+03  0.73001225817E+03  0.16500000000E+03 0.  0.
<mgrwt>
<rscale>  0 0.10292331E+04</rscale>
<asrwt>0</asrwt>
<pdfrwt beam="1">  1        2 0.15988816E+00 0.10292331E+04</pdfrwt>
<pdfrwt beam="2">  1       -2 0.33802992E-01 0.10292331E+04</pdfrwt>
<totfact> 0.19382447E+02</totfact>
</mgrwt>
</event>
<event>
 4    1  0.5312547E-005  0.5640267E+03  0.7818608E-02  0.9982985E-01
          2   -1    0    0  501    0  0.00000000000E+00  0.00000000000E+00  0.31110543361E+04  0.31110543361E+04  0.25500000000E-02 0.  1.
         -2   -1    0    0    0  501 -0.00000000000E+00 -0.00000000000E+00 -0.25564169405E+02  0.25564169532E+02  0.25500000000E-02 0. -1.
    5000001    1    1    2    0    0 -0.82470079646E+02  0.73180009254E+02  0.26570505368E+04  0.26644510096E+04  0.16500000000E+03 0.  0.
   -5000001    1    1    2    0    0  0.82470079646E+02 -0.73180009254E+02  0.42843962997E+03  0.47216749604E+03  0.16500000000E+03 0.  0.
<mgrwt>
<rscale>  0 0.56402667E+03</rscale>
<asrwt>0</asrwt>
<pdfrwt beam="1">  1        2 0.44443665E+00 0.56402667E+03</pdfrwt>
<pdfrwt beam="2">  1       -2 0.36520216E-02 0.56402667E+03</pdfrwt>
<totfact> 0.73257262E+02</totfact>
</mgrwt>
</event>
<event>
 4    1  0.5312547E-005  0.7176464E+03  0.7818608E-02  0.9687522E-01
          2   -1    0    0  501    0  0.00000000000E+00  0.00000000000E+00  0.13881811846E+04  0.13881811847E+04  0.25500000000E-02 0.  1.
         -2   -1    0    0    0  501 -0.00000000000E+00 -0.00000000000E+00 -0.92750192059E+02  0.92750192094E+02  0.25500000000E-02 0. -1.
    5000001    1    1    2    0    0 -0.29127388332E+03  0.87252111542E+02  0.45112446889E+03  0.56849950968E+03  0.16500000000E+03 0.  0.
   -5000001    1    1    2    0    0  0.29127388332E+03 -0.87252111542E+02  0.84430652370E+03  0.91243186707E+03  0.16500000000E+03 0.  0.
<mgrwt>
<rscale>  0 0.71764635E+03</rscale>
<asrwt>0</asrwt>
<pdfrwt beam="1">  1        2 0.19831159E+00 0.71764635E+03</pdfrwt>
<pdfrwt beam="2">  1       -2 0.13250028E-01 0.71764635E+03</pdfrwt>
<totfact> 0.73132764E+02</totfact>
</mgrwt>
</event>
<event>
 4    1  0.5312547E-005  0.4475210E+03  0.7818608E-02  0.1028464E+00
          2   -1    0    0  501    0  0.00000000000E+00  0.00000000000E+00  0.40869137476E+04  0.40869137476E+04  0.25500000000E-02 0.  1.
         -2   -1    0    0    0  501 -0.00000000000E+00 -0.00000000000E+00 -0.12250997393E+02  0.12250997659E+02  0.25500000000E-02 0. -1.
    5000001    1    1    2    0    0  0.13733847167E+03 -0.60313532821E+02  0.18673965421E+04  0.18806632935E+04  0.16500000000E+03 0.  0.
   -5000001    1    1    2    0    0 -0.13733847167E+03  0.60313532821E+02  0.22072662082E+04  0.22185014518E+04  0.16500000000E+03 0.  0.
<mgrwt>
<rscale>  0 0.44752104E+03</rscale>
<asrwt>0</asrwt>
<pdfrwt beam="1">  1        2 0.58384614E+00 0.44752104E+03</pdfrwt>
<pdfrwt beam="2">  1       -2 0.17501385E-02 0.44752104E+03</pdfrwt>
<totfact> 0.57586620E+02</totfact>
</mgrwt>
</event>
<event>
 4    1  0.5312547E-005  0.6788041E+03  0.7818608E-02  0.9754183E-01
         -2   -1    0    0    0  501 -0.00000000000E+00  0.00000000000E+00  0.15889380848E+03  0.15889380850E+03  0.25500000000E-02 0. -1.
          2   -1    0    0  501    0  0.00000000000E+00 -0.00000000000E+00 -0.72497328415E+03  0.72497328415E+03  0.25500000000E-02 0.  1.
    5000001    1    1    2    0    0 -0.90827207957E+02  0.22315934001E+03 -0.57814685989E+02  0.29768643008E+03  0.16500000000E+03 0.  0.
   -5000001    1    1    2    0    0  0.90827207957E+02 -0.22315934001E+03 -0.50826478968E+03  0.58618066257E+03  0.16500000000E+03 0.  0.
<mgrwt>
<rscale>  0 0.67880414E+03</rscale>
<asrwt>0</asrwt>
<pdfrwt beam="1">  1        2 0.10356761E+00 0.67880414E+03</pdfrwt>
<pdfrwt beam="2">  1       -2 0.22699116E-01 0.67880414E+03</pdfrwt>
<totfact> 0.73717628E+02</totfact>
</mgrwt>
</event>
<event>
 4    1  0.5312547E-005  0.4287724E+03  0.7818608E-02  0.1034248E+00
          2   -1    0    0  501    0  0.00000000000E+00  0.00000000000E+00  0.19178383283E+04  0.19178383283E+04  0.25500000000E-02 0.  1.
         -2   -1    0    0    0  501 -0.00000000000E+00 -0.00000000000E+00 -0.23965230934E+02  0.23965231070E+02  0.25500000000E-02 0. -1.
    5000001    1    1    2    0    0  0.20350170224E+02  0.11184659598E+03  0.60166125257E+03  0.63414907813E+03  0.16500000000E+03 0.  0.
   -5000001    1    1    2    0    0 -0.20350170224E+02 -0.11184659598E+03  0.12922118448E+04  0.13076544813E+04  0.16500000000E+03 0.  0.
<mgrwt>
<rscale>  0 0.42877238E+03</rscale>
<asrwt>0</asrwt>
<pdfrwt beam="1">  1        2 0.27397699E+00 0.42877238E+03</pdfrwt>
<pdfrwt beam="2">  1       -2 0.34236033E-02 0.42877238E+03</pdfrwt>
<totfact> 0.33571433E+03</totfact>
</mgrwt>
</event>
<event>
 4    1  0.5312547E-005  0.4721174E+03  0.7818608E-02  0.1021324E+00
          2   -1    0    0  501    0  0.00000000000E+00  0.00000000000E+00  0.56279795398E+03  0.56279795398E+03  0.25500000000E-02 0.  1.
         -2   -1    0    0    0  501 -0.00000000000E+00 -0.00000000000E+00 -0.99011915690E+02  0.99011915723E+02  0.25500000000E-02 0. -1.
    5000001    1    1    2    0    0 -0.94139039496E+02  0.14777842829E+02  0.36554767203E+02  0.19401493345E+03  0.16500000000E+03 0.  0.
   -5000001    1    1    2    0    0  0.94139039496E+02 -0.14777842829E+02  0.42723127109E+03  0.46779493626E+03  0.16500000000E+03 0.  0.
<mgrwt>
<rscale>  0 0.47211737E+03</rscale>
<asrwt>0</asrwt>
<pdfrwt beam="1">  1        2 0.80399708E-01 0.47211737E+03</pdfrwt>
<pdfrwt beam="2">  1       -2 0.14144559E-01 0.47211737E+03</pdfrwt>
<totfact> 0.22501711E+03</totfact>
</mgrwt>
</event>
<event>
 4    1  0.5312547E-005  0.5656726E+03  0.7818608E-02  0.9979300E-01
         -2   -1    0    0    0  501 -0.00000000000E+00  0.00000000000E+00  0.48143734921E+02  0.48143734989E+02  0.25500000000E-02 0. -1.
          2   -1    0    0  501    0  0.00000000000E+00 -0.00000000000E+00 -0.16616156903E+04  0.16616156903E+04  0.25500000000E-02 0.  1.
    5000001    1    1    2    0    0 -0.22349918293E+03 -0.31979665472E+02 -0.93485685215E+03  0.97578528262E+03  0.16500000000E+03 0.  0.
   -5000001    1    1    2    0    0  0.22349918293E+03  0.31979665472E+02 -0.67861510324E+03  0.73397414268E+03  0.16500000000E+03 0.  0.
<mgrwt>
<rscale>  0 0.56567265E+03</rscale>
<asrwt>0</asrwt>
<pdfrwt beam="1">  1        2 0.23737363E+00 0.56567265E+03</pdfrwt>
<pdfrwt beam="2">  1       -2 0.68776775E-02 0.56567265E+03</pdfrwt>
<totfact> 0.15320038E+03</totfact>
</mgrwt>
</event>
<event>
 4    1  0.5312547E-005  0.5453337E+03  0.7818608E-02  0.1002580E+00
          2   -1    0    0  501    0  0.00000000000E+00  0.00000000000E+00  0.19247564244E+04  0.19247564244E+04  0.25500000000E-02 0.  1.
         -2   -1    0    0    0  501 -0.00000000000E+00 -0.00000000000E+00 -0.38626814598E+02  0.38626814682E+02  0.25500000000E-02 0. -1.
    5000001    1    1    2    0    0  0.11931598087E+02  0.12961676888E+03  0.31760757868E+03  0.38084438271E+03  0.16500000000E+03 0.  0.
   -5000001    1    1    2    0    0 -0.11931598087E+02 -0.12961676888E+03  0.15685220312E+04  0.15825388564E+04  0.16500000000E+03 0.  0.
<mgrwt>
<rscale>  0 0.54533369E+03</rscale>
<asrwt>0</asrwt>
<pdfrwt beam="1">  1        2 0.27496530E+00 0.54533369E+03</pdfrwt>
<pdfrwt beam="2">  1       -2 0.55181145E-02 0.54533369E+03</pdfrwt>
<totfact> 0.15947663E+03</totfact>
</mgrwt>
</event>
<event>
 4    1  0.5312547E-005  0.4474695E+03  0.7818608E-02  0.1028479E+00
          2   -1    0    0  501    0  0.00000000000E+00  0.00000000000E+00  0.24101682405E+04  0.24101682405E+04  0.25500000000E-02 0.  1.
         -2   -1    0    0    0  501 -0.00000000000E+00 -0.00000000000E+00 -0.20769184374E+02  0.20769184530E+02  0.25500000000E-02 0. -1.
    5000001    1    1    2    0    0  0.29120361561E+02 -0.13325012172E+03  0.84142635835E+03  0.86823205822E+03  0.16500000000E+03 0.  0.
   -5000001    1    1    2    0    0 -0.29120361561E+02  0.13325012172E+03  0.15479726977E+04  0.15627053668E+04  0.16500000000E+03 0.  0.
<mgrwt>
<rscale>  0 0.44746946E+03</rscale>
<asrwt>0</asrwt>
<pdfrwt beam="1">  1        2 0.34430994E+00 0.44746946E+03</pdfrwt>
<pdfrwt beam="2">  1       -2 0.29670247E-02 0.44746946E+03</pdfrwt>
<totfact> 0.23668777E+03</totfact>
</mgrwt>
</event>
<event>
 4    1  0.5312547E-005  0.5072077E+03  0.7818608E-02  0.1011915E+00
          2   -1    0    0  501    0  0.00000000000E+00  0.00000000000E+00  0.33516758284E+03  0.33516758285E+03  0.25500000000E-02 0.  1.
         -2   -1    0    0    0  501 -0.00000000000E+00 -0.00000000000E+00 -0.19188881547E+03  0.19188881548E+03  0.25500000000E-02 0. -1.
    5000001    1    1    2    0    0 -0.67293319265E+02 -0.14228952487E+03  0.18695607786E+03  0.29487671111E+03  0.16500000000E+03 0.  0.
   -5000001    1    1    2    0    0  0.67293319265E+02  0.14228952487E+03 -0.43677310486E+02  0.23217968722E+03  0.16500000000E+03 0.  0.
<mgrwt>
<rscale>  0 0.50720769E+03</rscale>
<asrwt>0</asrwt>
<pdfrwt beam="1">  1        2 0.47881083E-01 0.50720769E+03</pdfrwt>
<pdfrwt beam="2">  1       -2 0.27412688E-01 0.50720769E+03</pdfrwt>
<totfact> 0.12751841E+03</totfact>
</mgrwt>
</event>
<event>
 4    1  0.5312547E-005  0.4796577E+03  0.7818608E-02  0.1019229E+00
          2   -1    0    0  501    0  0.00000000000E+00  0.00000000000E+00  0.43806748036E+03  0.43806748037E+03  0.25500000000E-02 0.  1.
         -2   -1    0    0    0  501 -0.00000000000E+00 -0.00000000000E+00 -0.13129913537E+03  0.13129913539E+03  0.25500000000E-02 0. -1.
    5000001    1    1    2    0    0 -0.15273581478E+03 -0.83014098510E+02  0.16354776723E+03  0.29015933870E+03  0.16500000000E+03 0.  0.
   -5000001    1    1    2    0    0  0.15273581478E+03  0.83014098510E+02  0.14322057776E+03  0.27920727706E+03  0.16500000000E+03 0.  0.
<mgrwt>
<rscale>  0 0.47965772E+03</rscale>
<asrwt>0</asrwt>
<pdfrwt beam="1">  1        2 0.62581069E-01 0.47965772E+03</pdfrwt>
<pdfrwt beam="2">  1       -2 0.18757019E-01 0.47965772E+03</pdfrwt>
<totfact> 0.18533548E+03</totfact>
</mgrwt>
</event>
<event>
 4    1  0.5312547E-005  0.9701057E+03  0.7818608E-02  0.9341954E-01
         -2   -1    0    0    0  501 -0.00000000000E+00  0.00000000000E+00  0.23383214657E+03  0.23383214659E+03  0.25500000000E-02 0. -1.
          2   -1    0    0  501    0  0.00000000000E+00 -0.00000000000E+00 -0.10061759301E+04  0.10061759301E+04  0.25500000000E-02 0.  1.
    5000001    1    1    2    0    0 -0.25379762137E+03  0.24606250337E+03 -0.75462582522E+03  0.84949698308E+03  0.16500000000E+03 0.  0.
   -5000001    1    1    2    0    0  0.25379762137E+03 -0.24606250337E+03 -0.17717958299E+02  0.39051109360E+03  0.16500000000E+03 0.  0.
<mgrwt>
<rscale>  0 0.97010572E+03</rscale>
<asrwt>0</asrwt>
<pdfrwt beam="1">  1        2 0.14373942E+00 0.97010572E+03</pdfrwt>
<pdfrwt beam="2">  1       -2 0.33404593E-01 0.97010572E+03</pdfrwt>
<totfact> 0.23248778E+02</totfact>
</mgrwt>
</event>
<event>
 4    1  0.5312547E-005  0.6847514E+03  0.7818608E-02  0.9743671E-01
          2   -1    0    0  501    0  0.00000000000E+00  0.00000000000E+00  0.22617125761E+04  0.22617125761E+04  0.25500000000E-02 0.  1.
         -2   -1    0    0    0  501 -0.00000000000E+00 -0.00000000000E+00 -0.51828479918E+02  0.51828479981E+02  0.25500000000E-02 0. -1.
    5000001    1    1    2    0    0  0.14684423985E+03  0.82521561265E+02  0.26622398804E+03  0.35563077856E+03  0.16500000000E+03 0.  0.
   -5000001    1    1    2    0    0 -0.14684423985E+03 -0.82521561265E+02  0.19436601082E+04  0.19579102775E+04  0.16500000000E+03 0.  0.
<mgrwt>
<rscale>  0 0.68475141E+03</rscale>
<asrwt>0</asrwt>
<pdfrwt beam="1">  1        2 0.32310190E+00 0.68475141E+03</pdfrwt>
<pdfrwt beam="2">  1       -2 0.74040662E-02 0.68475141E+03</pdfrwt>
<totfact> 0.67423951E+02</totfact>
</mgrwt>
</event>
<event>
 4    1  0.5312547E-005  0.8001977E+03  0.7818608E-02  0.9559731E-01
         -2   -1    0    0    0  501 -0.00000000000E+00  0.00000000000E+00  0.41572475714E+03  0.41572475714E+03  0.25500000000E-02 0. -1.
          2   -1    0    0  501    0  0.00000000000E+00 -0.00000000000E+00 -0.38506031393E+03  0.38506031394E+03  0.25500000000E-02 0.  1.
    5000001    1    1    2    0    0  0.32895976992E+03  0.12092066399E+03  0.11549448715E+03  0.40422804673E+03  0.16500000000E+03 0.  0.
   -5000001    1    1    2    0    0 -0.32895976992E+03 -0.12092066399E+03 -0.84830043943E+02  0.39655702435E+03  0.16500000000E+03 0.  0.
<mgrwt>
<rscale>  0 0.80019774E+03</rscale>
<asrwt>0</asrwt>
<pdfrwt beam="1">  1        2 0.55008616E-01 0.80019774E+03</pdfrwt>
<pdfrwt beam="2">  1       -2 0.59389251E-01 0.80019774E+03</pdfrwt>
<totfact> 0.24053640E+02</totfact>
</mgrwt>
</event>
<event>
 4    1  0.5312547E-005  0.4045839E+03  0.7818608E-02  0.1042204E+00
          2   -1    0    0  501    0  0.00000000000E+00  0.00000000000E+00  0.11277407631E+03  0.11277407633E+03  0.25500000000E-02 0.  1.
         -2   -1    0    0    0  501 -0.00000000000E+00 -0.00000000000E+00 -0.36286729680E+03  0.36286729681E+03  0.25500000000E-02 0. -1.
    5000001    1    1    2    0    0  0.73482179860E+02 -0.90964848232E+02 -0.11943429742E+03  0.23486972085E+03  0.16500000000E+03 0.  0.
   -5000001    1    1    2    0    0 -0.73482179860E+02  0.90964848232E+02 -0.13065892308E+03  0.24077165230E+03  0.16500000000E+03 0.  0.
<mgrwt>
<rscale>  0 0.40458386E+03</rscale>
<asrwt>0</asrwt>
<pdfrwt beam="1">  1        2 0.16110583E-01 0.40458386E+03</pdfrwt>
<pdfrwt beam="2">  1       -2 0.51838185E-01 0.40458386E+03</pdfrwt>
<totfact> 0.12883318E+03</totfact>
</mgrwt>
</event>
<event>
 4    1  0.5312547E-005  0.3755604E+03  0.7818608E-02  0.1052587E+00
         -2   -1    0    0    0  501 -0.00000000000E+00  0.00000000000E+00  0.16538314592E+03  0.16538314594E+03  0.25500000000E-02 0. -1.
          2   -1    0    0  501    0  0.00000000000E+00 -0.00000000000E+00 -0.21321034193E+03  0.21321034195E+03  0.25500000000E-02 0.  1.
    5000001    1    1    2    0    0 -0.13262596457E+02 -0.69835018089E+02 -0.78976813123E+02  0.19625280438E+03  0.16500000000E+03 0.  0.
   -5000001    1    1    2    0    0  0.13262596457E+02  0.69835018089E+02  0.31149617117E+02  0.18234068351E+03  0.16500000000E+03 0.  0.
<mgrwt>
<rscale>  0 0.37556037E+03</rscale>
<asrwt>0</asrwt>
<pdfrwt beam="1">  1        2 0.30458620E-01 0.37556037E+03</pdfrwt>
<pdfrwt beam="2">  1       -2 0.23626164E-01 0.37556037E+03</pdfrwt>
<totfact> 0.27263145E+03</totfact>
</mgrwt>
</event>
<event>
 4    1  0.5312547E-005  0.6528343E+03  0.7818608E-02  0.9801475E-01
         -2   -1    0    0    0  501 -0.00000000000E+00  0.00000000000E+00  0.10490687991E+03  0.10490687994E+03  0.25500000000E-02 0. -1.
          2   -1    0    0  501    0  0.00000000000E+00 -0.00000000000E+00 -0.10156450805E+04  0.10156450805E+04  0.25500000000E-02 0.  1.
    5000001    1    1    2    0    0  0.24496723597E+03  0.83526336339E+02 -0.26471608002E+03  0.40532110552E+03  0.16500000000E+03 0.  0.
   -5000001    1    1    2    0    0 -0.24496723597E+03 -0.83526336339E+02 -0.64602212055E+03  0.71523085490E+03  0.16500000000E+03 0.  0.
<mgrwt>
<rscale>  0 0.65283430E+03</rscale>
<asrwt>0</asrwt>
<pdfrwt beam="1">  1        2 0.14509215E+00 0.65283430E+03</pdfrwt>
<pdfrwt beam="2">  1       -2 0.14986698E-01 0.65283430E+03</pdfrwt>
<totfact> 0.96844971E+02</totfact>
</mgrwt>
</event>
<event>
 4    1  0.5312547E-005  0.1119328E+04  0.7818608E-02  0.9186556E-01
         -2   -1    0    0    0  501 -0.00000000000E+00  0.00000000000E+00  0.30314941656E+03  0.30314941657E+03  0.25500000000E-02 0. -1.
          2   -1    0    0  501    0  0.00000000000E+00 -0.00000000000E+00 -0.10332315773E+04  0.10332315773E+04  0.25500000000E-02 0.  1.
    5000001    1    1    2    0    0  0.30757149291E+03  0.37006289653E+03 -0.64363980791E+03  0.82039257247E+03  0.16500000000E+03 0.  0.
   -5000001    1    1    2    0    0 -0.30757149291E+03 -0.37006289653E+03 -0.86442352819E+02  0.51598842138E+03  0.16500000000E+03 0.  0.
<mgrwt>
<rscale>  0 0.11193276E+04</rscale>
<asrwt>0</asrwt>
<pdfrwt beam="1">  1        2 0.14760451E+00 0.11193276E+04</pdfrwt>
<pdfrwt beam="2">  1       -2 0.43307060E-01 0.11193276E+04</pdfrwt>
<totfact> 0.13424008E+02</totfact>
</mgrwt>
</event>
<event>
 4    1  0.5312547E-005  0.3738142E+03  0.7818608E-02  0.1053244E+00
         -2   -1    0    0    0  501 -0.00000000000E+00  0.00000000000E+00  0.41548465694E+02  0.41548465772E+02  0.25500000000E-02 0. -1.
          2   -1    0    0  501    0  0.00000000000E+00 -0.00000000000E+00 -0.84080759941E+03  0.84080759942E+03  0.25500000000E-02 0.  1.
    5000001    1    1    2    0    0  0.24577616965E+01 -0.79666622530E+02 -0.48656376824E+03  0.51992510220E+03  0.16500000000E+03 0.  0.
   -5000001    1    1    2    0    0 -0.24577616965E+01  0.79666622530E+02 -0.31269536548E+03  0.36243096299E+03  0.16500000000E+03 0.  0.
<mgrwt>
<rscale>  0 0.37381421E+03</rscale>
<asrwt>0</asrwt>
<pdfrwt beam="1">  1        2 0.12011536E+00 0.37381421E+03</pdfrwt>
<pdfrwt beam="2">  1       -2 0.59354956E-02 0.37381421E+03</pdfrwt>
<totfact> 0.55415436E+03</totfact>
</mgrwt>
</event>
<event>
 4    1  0.5312547E-005  0.5178968E+03  0.7818608E-02  0.1009210E+00
          2   -1    0    0  501    0  0.00000000000E+00  0.00000000000E+00  0.24042398285E+04  0.24042398285E+04  0.25500000000E-02 0.  1.
         -2   -1    0    0    0  501 -0.00000000000E+00 -0.00000000000E+00 -0.27890006948E+02  0.27890007065E+02  0.25500000000E-02 0. -1.
    5000001    1    1    2    0    0  0.46367933072E+02  0.18763989146E+03  0.14215962289E+04  0.14441328028E+04  0.16500000000E+03 0.  0.
   -5000001    1    1    2    0    0 -0.46367933072E+02 -0.18763989146E+03  0.95475359269E+03  0.98799703281E+03  0.16500000000E+03 0.  0.
<mgrwt>
<rscale>  0 0.51789677E+03</rscale>
<asrwt>0</asrwt>
<pdfrwt beam="1">  1        2 0.34346289E+00 0.51789677E+03</pdfrwt>
<pdfrwt beam="2">  1       -2 0.39842860E-02 0.51789677E+03</pdfrwt>
<totfact> 0.15164568E+03</totfact>
</mgrwt>
</event>
<event>
 4    1  0.5312547E-005  0.4176182E+03  0.7818608E-02  0.1037844E+00
          2   -1    0    0  501    0  0.00000000000E+00  0.00000000000E+00  0.68660824093E+03  0.68660824094E+03  0.25500000000E-02 0.  1.
         -2   -1    0    0    0  501 -0.00000000000E+00 -0.00000000000E+00 -0.63502366679E+02  0.63502366730E+02  0.25500000000E-02 0. -1.
    5000001    1    1    2    0    0  0.10255336401E+03 -0.72525444449E+02  0.35551734359E+03  0.41157589112E+03  0.16500000000E+03 0.  0.
   -5000001    1    1    2    0    0 -0.10255336401E+03  0.72525444449E+02  0.26758853067E+03  0.33853471654E+03  0.16500000000E+03 0.  0.
<mgrwt>
<rscale>  0 0.41761824E+03</rscale>
<asrwt>0</asrwt>
<pdfrwt beam="1">  1        2 0.98086897E-01 0.41761824E+03</pdfrwt>
<pdfrwt beam="2">  1       -2 0.90717661E-02 0.41761824E+03</pdfrwt>
<totfact> 0.36656955E+03</totfact>
</mgrwt>
</event>
<event>
 4    1  0.5312547E-005  0.4888410E+03  0.7818608E-02  0.1016733E+00
         -2   -1    0    0    0  501 -0.00000000000E+00  0.00000000000E+00  0.51490053983E+02  0.51490054046E+02  0.25500000000E-02 0. -1.
          2   -1    0    0  501    0  0.00000000000E+00 -0.00000000000E+00 -0.11602509339E+04  0.11602509339E+04  0.25500000000E-02 0.  1.
    5000001    1    1    2    0    0 -0.13294980059E+02  0.11136369970E+03 -0.20437058459E+03  0.28560631287E+03  0.16500000000E+03 0.  0.
   -5000001    1    1    2    0    0  0.13294980059E+02 -0.11136369970E+03 -0.90439029535E+03  0.92613467510E+03  0.16500000000E+03 0.  0.
<mgrwt>
<rscale>  0 0.48884101E+03</rscale>
<asrwt>0</asrwt>
<pdfrwt beam="1">  1        2 0.16575012E+00 0.48884101E+03</pdfrwt>
<pdfrwt beam="2">  1       -2 0.73557227E-02 0.48884101E+03</pdfrwt>
<totfact> 0.25461644E+03</totfact>
</mgrwt>
</event>
<event>
 4    1  0.5312547E-005  0.5280721E+03  0.7818608E-02  0.1006701E+00
          2   -1    0    0  501    0  0.00000000000E+00  0.00000000000E+00  0.29435555991E+04  0.29435555991E+04  0.25500000000E-02 0.  1.
         -2   -1    0    0    0  501 -0.00000000000E+00 -0.00000000000E+00 -0.23683950849E+02  0.23683950986E+02  0.25500000000E-02 0. -1.
    5000001    1    1    2    0    0 -0.17629286846E+03 -0.10589164031E+03  0.15389645624E+04  0.15613869282E+04  0.16500000000E+03 0.  0.
   -5000001    1    1    2    0    0  0.17629286846E+03  0.10589164031E+03  0.13809070858E+04  0.14058526219E+04  0.16500000000E+03 0.  0.
<mgrwt>
<rscale>  0 0.52807206E+03</rscale>
<asrwt>0</asrwt>
<pdfrwt beam="1">  1        2 0.42050825E+00 0.52807206E+03</pdfrwt>
<pdfrwt beam="2">  1       -2 0.33834191E-02 0.52807206E+03</pdfrwt>
<totfact> 0.10190421E+03</totfact>
</mgrwt>
</event>
<event>
 4    1  0.5312547E-005  0.4982045E+03  0.7818608E-02  0.1014249E+00
          2   -1    0    0  501    0  0.00000000000E+00  0.00000000000E+00  0.69629161247E+03  0.69629161248E+03  0.25500000000E-02 0. -1.
         -2   -1    0    0    0  501 -0.00000000000E+00 -0.00000000000E+00 -0.89117729244E+02  0.89117729281E+02  0.25500000000E-02 0.  1.
    5000001    1    1    2    0    0  0.51749920125E+02 -0.78836136608E+02  0.49711332770E+02  0.19644186742E+03  0.16500000000E+03 0.  0.
   -5000001    1    1    2    0    0 -0.51749920125E+02  0.78836136608E+02  0.55746255046E+03  0.58896747434E+03  0.16500000000E+03 0.  0.
<mgrwt>
<rscale>  0 0.49820449E+03</rscale>
<asrwt>0</asrwt>
<pdfrwt beam="1">  1        2 0.99470232E-01 0.49820449E+03</pdfrwt>
<pdfrwt beam="2">  1       -2 0.12731104E-01 0.49820449E+03</pdfrwt>
<totfact> 0.20843508E+03</totfact>
</mgrwt>
</event>
<event>
 4    1  0.5312547E-005  0.6379700E+03  0.7818608E-02  0.9829618E-01
          2   -1    0    0  501    0  0.00000000000E+00  0.00000000000E+00  0.26201203615E+04  0.26201203615E+04  0.25500000000E-02 0.  1.
         -2   -1    0    0    0  501 -0.00000000000E+00 -0.00000000000E+00 -0.38834645199E+02  0.38834645283E+02  0.25500000000E-02 0. -1.
    5000001    1    1    2    0    0 -0.91072890710E+02  0.24809855930E+03  0.10055409440E+04  0.10527035464E+04  0.16500000000E+03 0.  0.
   -5000001    1    1    2    0    0  0.91072890710E+02 -0.24809855930E+03  0.15757447724E+04  0.16062514604E+04  0.16500000000E+03 0.  0.
<mgrwt>
<rscale>  0 0.63797005E+03</rscale>
<asrwt>0</asrwt>
<pdfrwt beam="1">  1        2 0.37430294E+00 0.63797005E+03</pdfrwt>
<pdfrwt beam="2">  1       -2 0.55478060E-02 0.63797005E+03</pdfrwt>
<totfact> 0.69828386E+02</totfact>
</mgrwt>
</event>
<event>
 4    1  0.5312547E-005  0.6788308E+03  0.7818608E-02  0.9754135E-01
          2   -1    0    0  501    0  0.00000000000E+00  0.00000000000E+00  0.13095215315E+04  0.13095215315E+04  0.25500000000E-02 0.  1.
         -2   -1    0    0    0  501 -0.00000000000E+00 -0.00000000000E+00 -0.87973198036E+02  0.87973198073E+02  0.25500000000E-02 0. -1.
    5000001    1    1    2    0    0  0.22514842230E+03  0.17682701961E+03  0.45106802315E+03  0.55914843149E+03  0.16500000000E+03 0.  0.
   -5000001    1    1    2    0    0 -0.22514842230E+03 -0.17682701961E+03  0.77048031027E+03  0.83834629804E+03  0.16500000000E+03 0.  0.
<mgrwt>
<rscale>  0 0.67883075E+03</rscale>
<asrwt>0</asrwt>
<pdfrwt beam="1">  1        2 0.18707449E+00 0.67883075E+03</pdfrwt>
<pdfrwt beam="2">  1       -2 0.12567601E-01 0.67883075E+03</pdfrwt>
<totfact> 0.88200587E+02</totfact>
</mgrwt>
</event>
<event>
 4    1  0.5312547E-005  0.3640065E+03  0.7818608E-02  0.1057009E+00
          2   -1    0    0  501    0  0.00000000000E+00  0.00000000000E+00  0.18153319402E+03  0.18153319404E+03  0.25500000000E-02 0.  1.
         -2   -1    0    0    0  501 -0.00000000000E+00 -0.00000000000E+00 -0.18247450723E+03  0.18247450724E+03  0.25500000000E-02 0. -1.
    5000001    1    1    2    0    0  0.46204145071E+02 -0.37020753775E+02  0.48466414344E+02  0.18187730081E+03  0.16500000000E+03 0.  0.
   -5000001    1    1    2    0    0 -0.46204145071E+02  0.37020753775E+02 -0.49407727553E+02  0.18213040047E+03  0.16500000000E+03 0.  0.
<mgrwt>
<rscale>  0 0.36400648E+03</rscale>
<asrwt>0</asrwt>
<pdfrwt beam="1">  1        2 0.25933314E-01 0.36400648E+03</pdfrwt>
<pdfrwt beam="2">  1       -2 0.26067787E-01 0.36400648E+03</pdfrwt>
<totfact> 0.27376762E+03</totfact>
</mgrwt>
</event>
<event>
 4    1  0.5312547E-005  0.6888849E+03  0.7818608E-02  0.9736432E-01
          2   -1    0    0  501    0  0.00000000000E+00  0.00000000000E+00  0.62937205317E+03  0.62937205317E+03  0.25500000000E-02 0.  1.
         -2   -1    0    0    0  501 -0.00000000000E+00 -0.00000000000E+00 -0.18850628573E+03  0.18850628575E+03  0.25500000000E-02 0. -1.
    5000001    1    1    2    0    0  0.40103996109E+02  0.27752455948E+03  0.86177165903E+02  0.33657052091E+03  0.16500000000E+03 0.  0.
   -5000001    1    1    2    0    0 -0.40103996109E+02 -0.27752455948E+03  0.35468860153E+03  0.48130781801E+03  0.16500000000E+03 0.  0.
<mgrwt>
<rscale>  0 0.68888486E+03</rscale>
<asrwt>0</asrwt>
<pdfrwt beam="1">  1        2 0.89910292E-01 0.68888486E+03</pdfrwt>
<pdfrwt beam="2">  1       -2 0.26929470E-01 0.68888486E+03</pdfrwt>
<totfact> 0.64392439E+02</totfact>
</mgrwt>
</event>
<event>
 4    1  0.5312547E-005  0.4977093E+03  0.7818608E-02  0.1014379E+00
         -2   -1    0    0    0  501 -0.00000000000E+00  0.00000000000E+00  0.37257844067E+03  0.37257844068E+03  0.25500000000E-02 0. -1.
          2   -1    0    0  501    0  0.00000000000E+00 -0.00000000000E+00 -0.16621639007E+03  0.16621639009E+03  0.25500000000E-02 0.  1.
    5000001    1    1    2    0    0 -0.45393739682E+01 -0.17383483237E+03  0.30848521380E+02  0.24169357900E+03  0.16500000000E+03 0.  0.
   -5000001    1    1    2    0    0  0.45393739682E+01  0.17383483237E+03  0.17551352923E+03  0.29710125177E+03  0.16500000000E+03 0.  0.
<mgrwt>
<rscale>  0 0.49770933E+03</rscale>
<asrwt>0</asrwt>
<pdfrwt beam="1">  1        2 0.23745199E-01 0.49770933E+03</pdfrwt>
<pdfrwt beam="2">  1       -2 0.53225491E-01 0.49770933E+03</pdfrwt>
<totfact> 0.77756098E+02</totfact>
</mgrwt>
</event>
<event>
 4    1  0.5312547E-005  0.3706915E+03  0.7818608E-02  0.1054429E+00
          2   -1    0    0  501    0  0.00000000000E+00  0.00000000000E+00  0.16551374580E+03  0.16551374582E+03  0.25500000000E-02 0.  1.
         -2   -1    0    0    0  501 -0.00000000000E+00 -0.00000000000E+00 -0.20755409360E+03  0.20755409361E+03  0.25500000000E-02 0. -1.
    5000001    1    1    2    0    0  0.30632764464E+01  0.73030633863E+02  0.21502284915E+02  0.18174213986E+03  0.16500000000E+03 0.  0.
   -5000001    1    1    2    0    0 -0.30632764464E+01 -0.73030633863E+02 -0.63542632707E+02  0.19132569957E+03  0.16500000000E+03 0.  0.
<mgrwt>
<rscale>  0 0.37069155E+03</rscale>
<asrwt>0</asrwt>
<pdfrwt beam="1">  1        2 0.23644821E-01 0.37069155E+03</pdfrwt>
<pdfrwt beam="2">  1       -2 0.29650585E-01 0.37069155E+03</pdfrwt>
<totfact> 0.24088991E+03</totfact>
</mgrwt>
</event>
<event>
 4    1  0.5312547E-005  0.3554826E+03  0.7818608E-02  0.1060387E+00
         -2   -1    0    0    0  501 -0.00000000000E+00  0.00000000000E+00  0.45925140848E+02  0.45925140918E+02  0.25500000000E-02 0. -1.
          2   -1    0    0  501    0  0.00000000000E+00 -0.00000000000E+00 -0.68790143878E+03  0.68790143878E+03  0.25500000000E-02 0.  1.
    5000001    1    1    2    0    0  0.53100279184E+02  0.18745883884E+02 -0.24959991535E+03  0.30446044991E+03  0.16500000000E+03 0.  0.
   -5000001    1    1    2    0    0 -0.53100279184E+02 -0.18745883884E+02 -0.39237638258E+03  0.42936612980E+03  0.16500000000E+03 0.  0.
<mgrwt>
<rscale>  0 0.35548260E+03</rscale>
<asrwt>0</asrwt>
<pdfrwt beam="1">  1        2 0.98271628E-01 0.35548260E+03</pdfrwt>
<pdfrwt beam="2">  1       -2 0.65607348E-02 0.35548260E+03</pdfrwt>
<totfact> 0.60705928E+03</totfact>
</mgrwt>
</event>
<event>
 4    1  0.5312547E-005  0.5913097E+03  0.7818608E-02  0.9923602E-01
          2   -1    0    0  501    0  0.00000000000E+00  0.00000000000E+00  0.10778828528E+04  0.10778828528E+04  0.25500000000E-02 0.  1.
         -2   -1    0    0    0  501 -0.00000000000E+00 -0.00000000000E+00 -0.81095812177E+02  0.81095812217E+02  0.25500000000E-02 0. -1.
    5000001    1    1    2    0    0 -0.57761453755E+02  0.23375519710E+03  0.40627451621E+03  0.50026179170E+03  0.16500000000E+03 0.  0.
   -5000001    1    1    2    0    0  0.57761453755E+02 -0.23375519710E+03  0.59051252439E+03  0.65871687330E+03  0.16500000000E+03 0.  0.
<mgrwt>
<rscale>  0 0.59130968E+03</rscale>
<asrwt>0</asrwt>
<pdfrwt beam="1">  1        2 0.15398326E+00 0.59130968E+03</pdfrwt>
<pdfrwt beam="2">  1       -2 0.11585117E-01 0.59130968E+03</pdfrwt>
<totfact> 0.13662275E+03</totfact>
</mgrwt>
</event>
<event>
 4    1  0.5312547E-005  0.6275947E+03  0.7818608E-02  0.9849754E-01
          2   -1    0    0  501    0  0.00000000000E+00  0.00000000000E+00  0.12750361027E+03  0.12750361030E+03  0.25500000000E-02 0.  1.
         -2   -1    0    0    0  501 -0.00000000000E+00 -0.00000000000E+00 -0.77228238042E+03  0.77228238042E+03  0.25500000000E-02 0. -1.
    5000001    1    1    2    0    0 -0.93473213216E+00 -0.26688964580E+03 -0.32752575492E+03  0.45357367306E+03  0.16500000000E+03 0.  0.
   -5000001    1    1    2    0    0  0.93473213216E+00  0.26688964580E+03 -0.31725301523E+03  0.44621231766E+03  0.16500000000E+03 0.  0.
<mgrwt>
<rscale>  0 0.62759475E+03</rscale>
<asrwt>0</asrwt>
<pdfrwt beam="1">  1        2 0.18214802E-01 0.62759475E+03</pdfrwt>
<pdfrwt beam="2">  1       -2 0.11032605E+00 0.62759475E+03</pdfrwt>
<totfact> 0.20954555E+02</totfact>
</mgrwt>
</event>
<event>
 4    1  0.5312547E-005  0.3790649E+03  0.7818608E-02  0.1051280E+00
          2   -1    0    0  501    0  0.00000000000E+00  0.00000000000E+00  0.17703245098E+04  0.17703245098E+04  0.25500000000E-02 0.  1.
         -2   -1    0    0    0  501 -0.00000000000E+00 -0.00000000000E+00 -0.20291506948E+02  0.20291507108E+02  0.25500000000E-02 0. -1.
    5000001    1    1    2    0    0  0.47724069551E+02 -0.79849802588E+02  0.84369164640E+03  0.86469310856E+03  0.16500000000E+03 0.  0.
   -5000001    1    1    2    0    0 -0.47724069551E+02  0.79849802588E+02  0.90634135641E+03  0.92592290831E+03  0.16500000000E+03 0.  0.
<mgrwt>
<rscale>  0 0.37906491E+03</rscale>
<asrwt>0</asrwt>
<pdfrwt beam="1">  1        2 0.25290367E+00 0.37906491E+03</pdfrwt>
<pdfrwt beam="2">  1       -2 0.28987848E-02 0.37906491E+03</pdfrwt>
<totfact> 0.51097183E+03</totfact>
</mgrwt>
</event>
<event>
 4    1  0.5312547E-005  0.6594324E+03  0.7818608E-02  0.9789239E-01
         -2   -1    0    0    0  501 -0.00000000000E+00  0.00000000000E+00  0.22478638192E+03  0.22478638194E+03  0.25500000000E-02 0. -1.
          2   -1    0    0  501    0  0.00000000000E+00 -0.00000000000E+00 -0.48362698125E+03  0.48362698126E+03  0.25500000000E-02 0.  1.
    5000001    1    1    2    0    0 -0.94980966039E+02 -0.26836786584E+03 -0.10675676092E+03  0.34592586103E+03  0.16500000000E+03 0.  0.
   -5000001    1    1    2    0    0  0.94980966039E+02  0.26836786584E+03 -0.15208383841E+03  0.36248750217E+03  0.16500000000E+03 0.  0.
<mgrwt>
<rscale>  0 0.65943236E+03</rscale>
<asrwt>0</asrwt>
<pdfrwt beam="1">  1        2 0.69089568E-01 0.65943236E+03</pdfrwt>
<pdfrwt beam="2">  1       -2 0.32112341E-01 0.65943236E+03</pdfrwt>
<totfact> 0.63245893E+02</totfact>
</mgrwt>
</event>
<event>
 4    1  0.5312547E-005  0.5446527E+03  0.7818608E-02  0.1002739E+00
          2   -1    0    0  501    0  0.00000000000E+00  0.00000000000E+00  0.14667648101E+04  0.14667648101E+04  0.25500000000E-02 0.  1.
         -2   -1    0    0    0  501 -0.00000000000E+00 -0.00000000000E+00 -0.50561371591E+02  0.50561371656E+02  0.25500000000E-02 0. -1.
    5000001    1    1    2    0    0 -0.72075412976E+01  0.16677277532E+03  0.32337522235E+03  0.39957682824E+03  0.16500000000E+03 0.  0.
   -5000001    1    1    2    0    0  0.72075412976E+01 -0.16677277532E+03  0.10928282161E+04  0.11177493535E+04  0.16500000000E+03 0.  0.
<mgrwt>
<rscale>  0 0.54465270E+03</rscale>
<asrwt>0</asrwt>
<pdfrwt beam="1">  1        2 0.20953780E+00 0.54465270E+03</pdfrwt>
<pdfrwt beam="2">  1       -2 0.72230543E-02 0.54465270E+03</pdfrwt>
<totfact> 0.17879417E+03</totfact>
</mgrwt>
</event>
<event>
 4    1  0.5312547E-005  0.6697917E+03  0.7818608E-02  0.9770334E-01
         -2   -1    0    0    0  501 -0.00000000000E+00  0.00000000000E+00  0.72494404591E+02  0.72494404636E+02  0.25500000000E-02 0. -1.
          2   -1    0    0  501    0  0.00000000000E+00 -0.00000000000E+00 -0.15470879865E+04  0.15470879865E+04  0.25500000000E-02 0.  1.
    5000001    1    1    2    0    0  0.16347716165E+03  0.24049221559E+03 -0.78374166970E+03  0.85207821998E+03  0.16500000000E+03 0.  0.
   -5000001    1    1    2    0    0 -0.16347716165E+03 -0.24049221559E+03 -0.69085191216E+03  0.76750417111E+03  0.16500000000E+03 0.  0.
<mgrwt>
<rscale>  0 0.66979168E+03</rscale>
<asrwt>0</asrwt>
<pdfrwt beam="1">  1        2 0.22101255E+00 0.66979168E+03</pdfrwt>
<pdfrwt beam="2">  1       -2 0.10356344E-01 0.66979168E+03</pdfrwt>
<totfact> 0.90696820E+02</totfact>
</mgrwt>
</event>
<event>
 4    1  0.5312547E-005  0.3723858E+03  0.7818608E-02  0.1053784E+00
         -2   -1    0    0    0  501 -0.00000000000E+00  0.00000000000E+00  0.81711738373E+02  0.81711738413E+02  0.25500000000E-02 0. -1.
          2   -1    0    0  501    0  0.00000000000E+00 -0.00000000000E+00 -0.42426955891E+03  0.42426955892E+03  0.25500000000E-02 0.  1.
    5000001    1    1    2    0    0 -0.27913012846E+02  0.76370076819E+02 -0.21045440832E+03  0.27951311758E+03  0.16500000000E+03 0.  0.
   -5000001    1    1    2    0    0  0.27913012846E+02 -0.76370076819E+02 -0.13210341222E+03  0.22646817975E+03  0.16500000000E+03 0.  0.
<mgrwt>
<rscale>  0 0.37238584E+03</rscale>
<asrwt>0</asrwt>
<pdfrwt beam="1">  1        2 0.60609936E-01 0.37238584E+03</pdfrwt>
<pdfrwt beam="2">  1       -2 0.11673106E-01 0.37238584E+03</pdfrwt>
<totfact> 0.42210397E+03</totfact>
</mgrwt>
</event>
<event>
 4    1  0.5312547E-005  0.5814446E+03  0.7818608E-02  0.9944668E-01
         -2   -1    0    0    0  501 -0.00000000000E+00  0.00000000000E+00  0.42107144830E+02  0.42107144907E+02  0.25500000000E-02 0. -1.
          2   -1    0    0  501    0  0.00000000000E+00 -0.00000000000E+00 -0.20072474530E+04  0.20072474530E+04  0.25500000000E-02 0.  1.
    5000001    1    1    2    0    0  0.17055396464E+03 -0.14682727745E+03 -0.69520127725E+03  0.74911729399E+03  0.16500000000E+03 0.  0.
   -5000001    1    1    2    0    0 -0.17055396464E+03  0.14682727745E+03 -0.12699390309E+04  0.13002373039E+04  0.16500000000E+03 0.  0.
<mgrwt>
<rscale>  0 0.58144461E+03</rscale>
<asrwt>0</asrwt>
<pdfrwt beam="1">  1        2 0.28674958E+00 0.58144461E+03</pdfrwt>
<pdfrwt beam="2">  1       -2 0.60153077E-02 0.58144461E+03</pdfrwt>
<totfact> 0.12650893E+03</totfact>
</mgrwt>
</event>
<event>
 4    1  0.5312547E-005  0.6400443E+03  0.7818608E-02  0.9825642E-01
          2   -1    0    0  501    0  0.00000000000E+00  0.00000000000E+00  0.24248646167E+04  0.24248646167E+04  0.25500000000E-02 0.  1.
         -2   -1    0    0    0  501 -0.00000000000E+00 -0.00000000000E+00 -0.42235004068E+02  0.42235004145E+02  0.25500000000E-02 0. -1.
    5000001    1    1    2    0    0  0.24757313894E+03 -0.34222814131E+02  0.75649009438E+03  0.81361288278E+03  0.16500000000E+03 0.  0.
   -5000001    1    1    2    0    0 -0.24757313894E+03  0.34222814131E+02  0.16261395183E+04  0.16534867381E+04  0.16500000000E+03 0.  0.
<mgrwt>
<rscale>  0 0.64004427E+03</rscale>
<asrwt>0</asrwt>
<pdfrwt beam="1">  1        2 0.34640910E+00 0.64004427E+03</pdfrwt>
<pdfrwt beam="2">  1       -2 0.60335743E-02 0.64004427E+03</pdfrwt>
<totfact> 0.77185113E+02</totfact>
</mgrwt>
</event>
<event>
 4    1  0.5312547E-005  0.4660216E+03  0.7818608E-02  0.1023049E+00
          2   -1    0    0  501    0  0.00000000000E+00  0.00000000000E+00  0.72889768153E+03  0.72889768153E+03  0.25500000000E-02 0.  1.
         -2   -1    0    0    0  501 -0.00000000000E+00 -0.00000000000E+00 -0.74487852787E+02  0.74487852830E+02  0.25500000000E-02 0. -1.
    5000001    1    1    2    0    0  0.59089254800E+02  0.14015516226E+03  0.43533235728E+03  0.48976960995E+03  0.16500000000E+03 0.  0.
   -5000001    1    1    2    0    0 -0.59089254800E+02 -0.14015516226E+03  0.21907747146E+03  0.31361592441E+03  0.16500000000E+03 0.  0.
<mgrwt>
<rscale>  0 0.46602156E+03</rscale>
<asrwt>0</asrwt>
<pdfrwt beam="1">  1        2 0.10412824E+00 0.46602156E+03</pdfrwt>
<pdfrwt beam="2">  1       -2 0.10641122E-01 0.46602156E+03</pdfrwt>
<totfact> 0.26410734E+03</totfact>
</mgrwt>
</event>
<event>
 4    1  0.5312547E-005  0.4357718E+03  0.7818608E-02  0.1032052E+00
         -2   -1    0    0    0  501 -0.00000000000E+00  0.00000000000E+00  0.11250749983E+03  0.11250749986E+03  0.25500000000E-02 0. -1.
          2   -1    0    0  501    0  0.00000000000E+00 -0.00000000000E+00 -0.42196535458E+03  0.42196535459E+03  0.25500000000E-02 0.  1.
    5000001    1    1    2    0    0 -0.61353055437E+02 -0.10179084878E+03 -0.25070726403E+03  0.32280753793E+03  0.16500000000E+03 0.  0.
   -5000001    1    1    2    0    0  0.61353055437E+02  0.10179084878E+03 -0.58750590725E+02  0.21166531652E+03  0.16500000000E+03 0.  0.
<mgrwt>
<rscale>  0 0.43577181E+03</rscale>
<asrwt>0</asrwt>
<pdfrwt beam="1">  1        2 0.60280764E-01 0.43577181E+03</pdfrwt>
<pdfrwt beam="2">  1       -2 0.16072500E-01 0.43577181E+03</pdfrwt>
<totfact> 0.25099438E+03</totfact>
</mgrwt>
</event>
<event>
 4    1  0.5312547E-005  0.6014475E+03  0.7818608E-02  0.9902407E-01
          2   -1    0    0  501    0  0.00000000000E+00  0.00000000000E+00  0.47000093052E+03  0.47000093052E+03  0.25500000000E-02 0.  1.
         -2   -1    0    0    0  501 -0.00000000000E+00 -0.00000000000E+00 -0.19241406086E+03  0.19241406088E+03  0.25500000000E-02 0. -1.
    5000001    1    1    2    0    0  0.13614437900E+02 -0.18435445365E+03 -0.48885173681E+02  0.25256024570E+03  0.16500000000E+03 0.  0.
   -5000001    1    1    2    0    0 -0.13614437900E+02  0.18435445365E+03  0.32647204333E+03  0.40985474571E+03  0.16500000000E+03 0.  0.
<mgrwt>
<rscale>  0 0.60144755E+03</rscale>
<asrwt>0</asrwt>
<pdfrwt beam="1">  1        2 0.67142989E-01 0.60144755E+03</pdfrwt>
<pdfrwt beam="2">  1       -2 0.27487723E-01 0.60144755E+03</pdfrwt>
<totfact> 0.87137388E+02</totfact>
</mgrwt>
</event>
<event>
 4    1  0.5312547E-005  0.6206332E+03  0.7818608E-02  0.9863500E-01
         -2   -1    0    0    0  501 -0.00000000000E+00  0.00000000000E+00  0.50594735249E+02  0.50594735314E+02  0.25500000000E-02 0. -1.
          2   -1    0    0  501    0  0.00000000000E+00 -0.00000000000E+00 -0.19032889374E+04  0.19032889374E+04  0.25500000000E-02 0.  1.
    5000001    1    1    2    0    0 -0.12082441779E+03 -0.42445307625E+02 -0.16488681759E+04  0.16620443453E+04  0.16500000000E+03 0.  0.
   -5000001    1    1    2    0    0  0.12082441779E+03  0.42445307625E+02 -0.20382602621E+03  0.29183932743E+03  0.16500000000E+03 0.  0.
<mgrwt>
<rscale>  0 0.62063322E+03</rscale>
<asrwt>0</asrwt>
<pdfrwt beam="1">  1        2 0.27189837E+00 0.62063322E+03</pdfrwt>
<pdfrwt beam="2">  1       -2 0.72278205E-02 0.62063322E+03</pdfrwt>
<totfact> 0.10662865E+03</totfact>
</mgrwt>
</event>
<event>
 4    1  0.5312547E-005  0.6107278E+03  0.7818608E-02  0.9883396E-01
         -2   -1    0    0    0  501 -0.00000000000E+00  0.00000000000E+00  0.11399019250E+03  0.11399019253E+03  0.25500000000E-02 0. -1.
          2   -1    0    0  501    0  0.00000000000E+00 -0.00000000000E+00 -0.81802754690E+03  0.81802754690E+03  0.25500000000E-02 0.  1.
    5000001    1    1    2    0    0  0.15407927722E+03  0.11459577098E+03 -0.91468091747E+02  0.26919143041E+03  0.16500000000E+03 0.  0.
   -5000001    1    1    2    0    0 -0.15407927722E+03 -0.11459577098E+03 -0.61256926265E+03  0.66282630902E+03  0.16500000000E+03 0.  0.
<mgrwt>
<rscale>  0 0.61072782E+03</rscale>
<asrwt>0</asrwt>
<pdfrwt beam="1">  1        2 0.11686108E+00 0.61072782E+03</pdfrwt>
<pdfrwt beam="2">  1       -2 0.16284314E-01 0.61072782E+03</pdfrwt>
<totfact> 0.11279252E+03</totfact>
</mgrwt>
</event>
<event>
 4    1  0.5312547E-005  0.4325924E+03  0.7818608E-02  0.1033044E+00
          2   -1    0    0  501    0  0.00000000000E+00  0.00000000000E+00  0.62594984109E+03  0.62594984109E+03  0.25500000000E-02 0.  1.
         -2   -1    0    0    0  501 -0.00000000000E+00 -0.00000000000E+00 -0.74740901275E+02  0.74740901319E+02  0.25500000000E-02 0. -1.
    5000001    1    1    2    0    0 -0.13788005587E+03  0.22220731184E+02  0.26365949085E+03  0.34094867329E+03  0.16500000000E+03 0.  0.
   -5000001    1    1    2    0    0  0.13788005587E+03 -0.22220731184E+02  0.28754944896E+03  0.35974206912E+03  0.16500000000E+03 0.  0.
<mgrwt>
<rscale>  0 0.43259244E+03</rscale>
<asrwt>0</asrwt>
<pdfrwt beam="1">  1        2 0.89421407E-01 0.43259244E+03</pdfrwt>
<pdfrwt beam="2">  1       -2 0.10677272E-01 0.43259244E+03</pdfrwt>
<totfact> 0.31506587E+03</totfact>
</mgrwt>
</event>
<event>
 4    1  0.5312547E-005  0.4212254E+03  0.7818608E-02  0.1036668E+00
          2   -1    0    0  501    0  0.00000000000E+00  0.00000000000E+00  0.23236755816E+03  0.23236755817E+03  0.25500000000E-02 0.  1.
         -2   -1    0    0    0  501 -0.00000000000E+00 -0.00000000000E+00 -0.19089461454E+03  0.19089461455E+03  0.25500000000E-02 0. -1.
    5000001    1    1    2    0    0  0.84737864323E+01 -0.13030318664E+03  0.29835084463E+02  0.21252260532E+03  0.16500000000E+03 0.  0.
   -5000001    1    1    2    0    0 -0.84737864323E+01  0.13030318664E+03  0.11637859158E+02  0.21073956741E+03  0.16500000000E+03 0.  0.
<mgrwt>
<rscale>  0 0.42122543E+03</rscale>
<asrwt>0</asrwt>
<pdfrwt beam="1">  1        2 0.33195365E-01 0.42122543E+03</pdfrwt>
<pdfrwt beam="2">  1       -2 0.27270659E-01 0.42122543E+03</pdfrwt>
<totfact> 0.19226530E+03</totfact>
</mgrwt>
</event>
<event>
 4    1  0.5312547E-005  0.4691520E+03  0.7818608E-02  0.1022160E+00
         -2   -1    0    0    0  501 -0.00000000000E+00  0.00000000000E+00  0.14676035386E+03  0.14676035388E+03  0.25500000000E-02 0. -1.
          2   -1    0    0  501    0  0.00000000000E+00 -0.00000000000E+00 -0.37493712689E+03  0.37493712690E+03  0.25500000000E-02 0.  1.
    5000001    1    1    2    0    0 -0.15951717151E+03  0.48495996735E+02 -0.11206353065E+03  0.25996312163E+03  0.16500000000E+03 0.  0.
   -5000001    1    1    2    0    0  0.15951717151E+03 -0.48495996735E+02 -0.11611324238E+03  0.26173435915E+03  0.16500000000E+03 0.  0.
<mgrwt>
<rscale>  0 0.46915202E+03</rscale>
<asrwt>0</asrwt>
<pdfrwt beam="1">  1        2 0.53562446E-01 0.46915202E+03</pdfrwt>
<pdfrwt beam="2">  1       -2 0.20965765E-01 0.46915202E+03</pdfrwt>
<totfact> 0.18149340E+03</totfact>
</mgrwt>
</event>
<event>
 4    1  0.5312547E-005  0.4004353E+03  0.7818608E-02  0.1043629E+00
          2   -1    0    0  501    0  0.00000000000E+00  0.00000000000E+00  0.19313508982E+03  0.19313508984E+03  0.25500000000E-02 0.  1.
         -2   -1    0    0    0  501 -0.00000000000E+00 -0.00000000000E+00 -0.20755989114E+03  0.20755989116E+03  0.25500000000E-02 0. -1.
    5000001    1    1    2    0    0 -0.11050744491E+03  0.15601484861E+02 -0.27394679813E+02  0.20107404157E+03  0.16500000000E+03 0.  0.
   -5000001    1    1    2    0    0  0.11050744491E+03 -0.15601484861E+02  0.12969878492E+02  0.19962093943E+03  0.16500000000E+03 0.  0.
<mgrwt>
<rscale>  0 0.40043525E+03</rscale>
<asrwt>0</asrwt>
<pdfrwt beam="1">  1        2 0.27590727E-01 0.40043525E+03</pdfrwt>
<pdfrwt beam="2">  1       -2 0.29651413E-01 0.40043525E+03</pdfrwt>
<totfact> 0.20268261E+03</totfact>
</mgrwt>
</event>
<event>
 4    1  0.5312547E-005  0.5545288E+03  0.7818608E-02  0.1000451E+00
          2   -1    0    0  501    0  0.00000000000E+00  0.00000000000E+00  0.22764755716E+04  0.22764755716E+04  0.25500000000E-02 0.  1.
         -2   -1    0    0    0  501 -0.00000000000E+00 -0.00000000000E+00 -0.33769544367E+02  0.33769544463E+02  0.25500000000E-02 0. -1.
    5000001    1    1    2    0    0 -0.19585567000E+03 -0.56622076496E+02  0.74674673586E+03  0.79146774447E+03  0.16500000000E+03 0.  0.
   -5000001    1    1    2    0    0  0.19585567000E+03  0.56622076496E+02  0.14959592913E+04  0.15187773715E+04  0.16500000000E+03 0.  0.
<mgrwt>
<rscale>  0 0.55452878E+03</rscale>
<asrwt>0</asrwt>
<pdfrwt beam="1">  1        2 0.32521092E+00 0.55452878E+03</pdfrwt>
<pdfrwt beam="2">  1       -2 0.48242189E-02 0.55452878E+03</pdfrwt>
<totfact> 0.13080241E+03</totfact>
</mgrwt>
</event>
<event>
 4    1  0.5312547E-005  0.4233852E+03  0.7818608E-02  0.1035970E+00
          2   -1    0    0  501    0  0.00000000000E+00  0.00000000000E+00  0.13746783437E+04  0.13746783437E+04  0.25500000000E-02 0.  1.
         -2   -1    0    0    0  501 -0.00000000000E+00 -0.00000000000E+00 -0.32599454337E+02  0.32599454437E+02  0.25500000000E-02 0. -1.
    5000001    1    1    2    0    0 -0.39950139721E+02 -0.12143469406E+03  0.78838504682E+03  0.81554790211E+03  0.16500000000E+03 0.  0.
   -5000001    1    1    2    0    0  0.39950139721E+02  0.12143469406E+03  0.55369384256E+03  0.59172989605E+03  0.16500000000E+03 0.  0.
<mgrwt>
<rscale>  0 0.42338523E+03</rscale>
<asrwt>0</asrwt>
<pdfrwt beam="1">  1        2 0.19638262E+00 0.42338523E+03</pdfrwt>
<pdfrwt beam="2">  1       -2 0.46570649E-02 0.42338523E+03</pdfrwt>
<totfact> 0.39608449E+03</totfact>
</mgrwt>
</event>
<event>
 4    1  0.5312547E-005  0.9894802E+03  0.7818608E-02  0.9320159E-01
          2   -1    0    0  501    0  0.00000000000E+00  0.00000000000E+00  0.91221026056E+03  0.91221026057E+03  0.25500000000E-02 0.  1.
         -2   -1    0    0    0  501 -0.00000000000E+00 -0.00000000000E+00 -0.26832386147E+03  0.26832386148E+03  0.25500000000E-02 0. -1.
    5000001    1    1    2    0    0  0.68508333977E+02 -0.35756143123E+03  0.66978267783E+03  0.77998551553E+03  0.16500000000E+03 0.  0.
   -5000001    1    1    2    0    0 -0.68508333977E+02  0.35756143123E+03 -0.25896278732E+02  0.40054860651E+03  0.16500000000E+03 0.  0.
<mgrwt>
<rscale>  0 0.98948023E+03</rscale>
<asrwt>0</asrwt>
<pdfrwt beam="1">  1        2 0.13031575E+00 0.98948023E+03</pdfrwt>
<pdfrwt beam="2">  1       -2 0.38331980E-01 0.98948023E+03</pdfrwt>
<totfact> 0.20460770E+02</totfact>
</mgrwt>
</event>
<event>
 4    1  0.5312547E-005  0.5307668E+03  0.7818608E-02  0.1006046E+00
         -2   -1    0    0    0  501 -0.00000000000E+00  0.00000000000E+00  0.67876444390E+02  0.67876444438E+02  0.25500000000E-02 0. -1.
          2   -1    0    0  501    0  0.00000000000E+00 -0.00000000000E+00 -0.10375965045E+04  0.10375965045E+04  0.25500000000E-02 0.  1.
    5000001    1    1    2    0    0 -0.13121671907E+03  0.15718777045E+03 -0.55930432185E+03  0.61803895264E+03  0.16500000000E+03 0.  0.
   -5000001    1    1    2    0    0  0.13121671907E+03 -0.15718777045E+03 -0.41041573831E+03  0.48743399634E+03  0.16500000000E+03 0.  0.
<mgrwt>
<rscale>  0 0.53076685E+03</rscale>
<asrwt>0</asrwt>
<pdfrwt beam="1">  1        2 0.14822806E+00 0.53076685E+03</pdfrwt>
<pdfrwt beam="2">  1       -2 0.96966355E-02 0.53076685E+03</pdfrwt>
<totfact> 0.19294273E+03</totfact>
</mgrwt>
</event>
<event>
 4    1  0.5312547E-005  0.5757844E+03  0.7818608E-02  0.9956960E-01
         -2   -1    0    0    0  501 -0.00000000000E+00  0.00000000000E+00  0.30239358746E+02  0.30239358854E+02  0.25500000000E-02 0. -1.
          2   -1    0    0  501    0  0.00000000000E+00 -0.00000000000E+00 -0.27408621159E+04  0.27408621159E+04  0.25500000000E-02 0.  1.
    5000001    1    1    2    0    0 -0.11710727921E+03 -0.20145063459E+03 -0.11777975319E+04  0.12119110938E+04  0.16500000000E+03 0.  0.
   -5000001    1    1    2    0    0  0.11710727921E+03  0.20145063459E+03 -0.15328252253E+04  0.15591903810E+04  0.16500000000E+03 0.  0.
<mgrwt>
<rscale>  0 0.57578438E+03</rscale>
<asrwt>0</asrwt>
<pdfrwt beam="1">  1        2 0.39155157E+00 0.57578438E+03</pdfrwt>
<pdfrwt beam="2">  1       -2 0.43199102E-02 0.57578438E+03</pdfrwt>
<totfact> 0.89454872E+02</totfact>
</mgrwt>
</event>
<event>
 4    1  0.5312547E-005  0.8718294E+03  0.7818608E-02  0.9461498E-01
          2   -1    0    0  501    0  0.00000000000E+00  0.00000000000E+00  0.96496614886E+03  0.96496614886E+03  0.25500000000E-02 0.  1.
         -2   -1    0    0    0  501 -0.00000000000E+00 -0.00000000000E+00 -0.19692053178E+03  0.19692053179E+03  0.25500000000E-02 0. -1.
    5000001    1    1    2    0    0  0.37818826573E+03 -0.11368904292E+03  0.49428373600E+03  0.65382946897E+03  0.16500000000E+03 0.  0.
   -5000001    1    1    2    0    0 -0.37818826573E+03  0.11368904292E+03  0.27376188108E+03  0.50805721169E+03  0.16500000000E+03 0.  0.
<mgrwt>
<rscale>  0 0.87182945E+03</rscale>
<asrwt>0</asrwt>
<pdfrwt beam="1">  1        2 0.13785231E+00 0.87182945E+03</pdfrwt>
<pdfrwt beam="2">  1       -2 0.28131505E-01 0.87182945E+03</pdfrwt>
<totfact> 0.34140773E+02</totfact>
</mgrwt>
</event>
<event>
 4    1  0.5312547E-005  0.4664361E+03  0.7818608E-02  0.1022931E+00
          2   -1    0    0  501    0  0.00000000000E+00  0.00000000000E+00  0.22609325237E+04  0.22609325237E+04  0.25500000000E-02 0.  1.
         -2   -1    0    0    0  501 -0.00000000000E+00 -0.00000000000E+00 -0.24056737035E+02  0.24056737170E+02  0.25500000000E-02 0. -1.
    5000001    1    1    2    0    0 -0.13542545653E+03 -0.93836613986E+02  0.10963687346E+04  0.11208901670E+04  0.16500000000E+03 0.  0.
   -5000001    1    1    2    0    0  0.13542545653E+03  0.93836613986E+02  0.11405070521E+04  0.11640990938E+04  0.16500000000E+03 0.  0.
<mgrwt>
<rscale>  0 0.46643610E+03</rscale>
<asrwt>0</asrwt>
<pdfrwt beam="1">  1        2 0.32299032E+00 0.46643610E+03</pdfrwt>
<pdfrwt beam="2">  1       -2 0.34366771E-02 0.46643610E+03</pdfrwt>
<totfact> 0.22498004E+03</totfact>
</mgrwt>
</event>
<event>
 4    1  0.5312547E-005  0.7994257E+03  0.7818608E-02  0.9560849E-01
          2   -1    0    0  501    0  0.00000000000E+00  0.00000000000E+00  0.57911710043E+03  0.57911710044E+03  0.25500000000E-02 0.  1.
         -2   -1    0    0    0  501 -0.00000000000E+00 -0.00000000000E+00 -0.27588609218E+03  0.27588609219E+03  0.25500000000E-02 0. -1.
    5000001    1    1    2    0    0 -0.69464181875E+02  0.35069477912E+03  0.22519715135E+03  0.45359768258E+03  0.16500000000E+03 0.  0.
   -5000001    1    1    2    0    0  0.69464181875E+02 -0.35069477912E+03  0.78033856903E+02  0.40140551004E+03  0.16500000000E+03 0.  0.
<mgrwt>
<rscale>  0 0.79942568E+03</rscale>
<asrwt>0</asrwt>
<pdfrwt beam="1">  1        2 0.82731015E-01 0.79942568E+03</pdfrwt>
<pdfrwt beam="2">  1       -2 0.39412299E-01 0.79942568E+03</pdfrwt>
<totfact> 0.34612720E+02</totfact>
</mgrwt>
</event>
<event>
 4    1  0.5312547E-005  0.4694214E+03  0.7818608E-02  0.1022084E+00
          2   -1    0    0  501    0  0.00000000000E+00  0.00000000000E+00  0.23778152351E+03  0.23778152353E+03  0.25500000000E-02 0.  1.
         -2   -1    0    0    0  501 -0.00000000000E+00 -0.00000000000E+00 -0.23167953665E+03  0.23167953666E+03  0.25500000000E-02 0. -1.
    5000001    1    1    2    0    0  0.10364615772E+03 -0.11000676198E+03  0.73909639809E+02  0.23565154052E+03  0.16500000000E+03 0.  0.
   -5000001    1    1    2    0    0 -0.10364615772E+03  0.11000676198E+03 -0.67807652945E+02  0.23380951967E+03  0.16500000000E+03 0.  0.
<mgrwt>
<rscale>  0 0.46942140E+03</rscale>
<asrwt>0</asrwt>
<pdfrwt beam="1">  1        2 0.33968789E-01 0.46942140E+03</pdfrwt>
<pdfrwt beam="2">  1       -2 0.33097077E-01 0.46942140E+03</pdfrwt>
<totfact> 0.13146044E+03</totfact>
</mgrwt>
</event>
<event>
 4    1  0.5312547E-005  0.4168415E+03  0.7818608E-02  0.1038099E+00
         -2   -1    0    0    0  501 -0.00000000000E+00  0.00000000000E+00  0.49647098569E+02  0.49647098634E+02  0.25500000000E-02 0. -1.
          2   -1    0    0  501    0  0.00000000000E+00 -0.00000000000E+00 -0.87495967621E+03  0.87495967621E+03  0.25500000000E-02 0.  1.
    5000001    1    1    2    0    0  0.87211308786E+02  0.80465453289E+02 -0.31019646874E+03  0.37084680230E+03  0.16500000000E+03 0.  0.
   -5000001    1    1    2    0    0 -0.87211308786E+02 -0.80465453289E+02 -0.51511610890E+03  0.55375997255E+03  0.16500000000E+03 0.  0.
<mgrwt>
<rscale>  0 0.41684150E+03</rscale>
<asrwt>0</asrwt>
<pdfrwt beam="1">  1        2 0.12499423E+00 0.41684150E+03</pdfrwt>
<pdfrwt beam="2">  1       -2 0.70924432E-02 0.41684150E+03</pdfrwt>
<totfact> 0.39963027E+03</totfact>
</mgrwt>
</event>
<event>
 4    1  0.5312547E-005  0.5651881E+03  0.7818608E-02  0.9980383E-01
         -2   -1    0    0    0  501 -0.00000000000E+00  0.00000000000E+00  0.56248793999E+02  0.56248794057E+02  0.25500000000E-02 0. -1.
          2   -1    0    0  501    0  0.00000000000E+00 -0.00000000000E+00 -0.14197533040E+04  0.14197533040E+04  0.25500000000E-02 0.  1.
    5000001    1    1    2    0    0  0.17823339937E+03 -0.14323944771E+03 -0.63291417349E+03  0.69288529717E+03  0.16500000000E+03 0.  0.
   -5000001    1    1    2    0    0 -0.17823339937E+03  0.14323944771E+03 -0.73059033654E+03  0.78311680092E+03  0.16500000000E+03 0.  0.
<mgrwt>
<rscale>  0 0.56518815E+03</rscale>
<asrwt>0</asrwt>
<pdfrwt beam="1">  1        2 0.20282188E+00 0.56518815E+03</pdfrwt>
<pdfrwt beam="2">  1       -2 0.80355429E-02 0.56518815E+03</pdfrwt>
<totfact> 0.15972125E+03</totfact>
</mgrwt>
</event>
<event>
 4    1  0.5312547E-005  0.3968354E+03  0.7818608E-02  0.1044881E+00
         -2   -1    0    0    0  501 -0.00000000000E+00  0.00000000000E+00  0.98844794001E+01  0.98844797291E+01  0.25500000000E-02 0. -1.
          2   -1    0    0  501    0  0.00000000000E+00 -0.00000000000E+00 -0.39829698156E+04  0.39829698156E+04  0.25500000000E-02 0.  1.
    5000001    1    1    2    0    0  0.60341266685E+02 -0.92156505585E+02 -0.19536394501E+04  0.19636868363E+04  0.16500000000E+03 0.  0.
   -5000001    1    1    2    0    0 -0.60341266685E+02  0.92156505585E+02 -0.20194458860E+04  0.20291674590E+04  0.16500000000E+03 0.  0.
<mgrwt>
<rscale>  0 0.39683540E+03</rscale>
<asrwt>0</asrwt>
<pdfrwt beam="1">  1        2 0.56899466E+00 0.39683540E+03</pdfrwt>
<pdfrwt beam="2">  1       -2 0.14120711E-02 0.39683540E+03</pdfrwt>
<totfact> 0.93593363E+02</totfact>
</mgrwt>
</event>
<event>
 4    1  0.5312547E-005  0.6865227E+03  0.7818608E-02  0.9740562E-01
         -2   -1    0    0    0  501 -0.00000000000E+00  0.00000000000E+00  0.32516965917E+02  0.32516966017E+02  0.25500000000E-02 0. -1.
          2   -1    0    0  501    0  0.00000000000E+00 -0.00000000000E+00 -0.36235956853E+04  0.36235956853E+04  0.25500000000E-02 0.  1.
    5000001    1    1    2    0    0  0.11075455304E+03  0.27968346915E+03 -0.17386970611E+04  0.17722251223E+04  0.16500000000E+03 0.  0.
   -5000001    1    1    2    0    0 -0.11075455304E+03 -0.27968346915E+03 -0.18523816584E+04  0.18838875291E+04  0.16500000000E+03 0.  0.
<mgrwt>
<rscale>  0 0.68652265E+03</rscale>
<asrwt>0</asrwt>
<pdfrwt beam="1">  1        2 0.51765627E+00 0.68652265E+03</pdfrwt>
<pdfrwt beam="2">  1       -2 0.46452832E-02 0.68652265E+03</pdfrwt>
<totfact> 0.25160317E+02</totfact>
</mgrwt>
</event>
<event>
 4    1  0.5312547E-005  0.6646774E+03  0.7818608E-02  0.9779621E-01
          2   -1    0    0  501    0  0.00000000000E+00  0.00000000000E+00  0.89859708872E+03  0.89859708872E+03  0.25500000000E-02 0.  1.
         -2   -1    0    0    0  501 -0.00000000000E+00 -0.00000000000E+00 -0.12291270902E+03  0.12291270904E+03  0.25500000000E-02 0. -1.
    5000001    1    1    2    0    0 -0.25998274404E+03  0.12449257261E+03  0.37001375129E+03  0.49721685809E+03  0.16500000000E+03 0.  0.
   -5000001    1    1    2    0    0  0.25998274404E+03 -0.12449257261E+03  0.40567062842E+03  0.52429293967E+03  0.16500000000E+03 0.  0.
<mgrwt>
<rscale>  0 0.66467737E+03</rscale>
<asrwt>0</asrwt>
<pdfrwt beam="1">  1        2 0.12837101E+00 0.66467737E+03</pdfrwt>
<pdfrwt beam="2">  1       -2 0.17558959E-01 0.66467737E+03</pdfrwt>
<totfact> 0.87542884E+02</totfact>
</mgrwt>
</event>
<event>
 4    1  0.5312547E-005  0.3832045E+03  0.7818608E-02  0.1049756E+00
         -2   -1    0    0    0  501 -0.00000000000E+00  0.00000000000E+00  0.23232457726E+02  0.23232457866E+02  0.25500000000E-02 0. -1.
          2   -1    0    0  501    0  0.00000000000E+00 -0.00000000000E+00 -0.15801779534E+04  0.15801779534E+04  0.25500000000E-02 0.  1.
    5000001    1    1    2    0    0 -0.79642233133E+02  0.12489998497E+02 -0.10071749926E+04  0.10237799329E+04  0.16500000000E+03 0.  0.
   -5000001    1    1    2    0    0  0.79642233133E+02 -0.12489998497E+02 -0.54977050306E+03  0.57963047832E+03  0.16500000000E+03 0.  0.
<mgrwt>
<rscale>  0 0.38320448E+03</rscale>
<asrwt>0</asrwt>
<pdfrwt beam="1">  1        2 0.22573964E+00 0.38320448E+03</pdfrwt>
<pdfrwt beam="2">  1       -2 0.33189236E-02 0.38320448E+03</pdfrwt>
<totfact> 0.51913507E+03</totfact>
</mgrwt>
</event>
<event>
 4    1  0.5312547E-005  0.5633962E+03  0.7818608E-02  0.9984399E-01
         -2   -1    0    0    0  501 -0.00000000000E+00  0.00000000000E+00  0.47924109238E+03  0.47924109238E+03  0.25500000000E-02 0. -1.
          2   -1    0    0  501    0  0.00000000000E+00 -0.00000000000E+00 -0.16558227993E+03  0.16558227994E+03  0.25500000000E-02 0.  1.
    5000001    1    1    2    0    0 -0.14494961790E+03 -0.15303491427E+03  0.56405502608E+02  0.27356289485E+03  0.16500000000E+03 0.  0.
   -5000001    1    1    2    0    0  0.14494961790E+03  0.15303491427E+03  0.25725330984E+03  0.37126047748E+03  0.16500000000E+03 0.  0.
<mgrwt>
<rscale>  0 0.56339625E+03</rscale>
<asrwt>0</asrwt>
<pdfrwt beam="1">  1        2 0.23654611E-01 0.56339625E+03</pdfrwt>
<pdfrwt beam="2">  1       -2 0.68463014E-01 0.56339625E+03</pdfrwt>
<totfact> 0.45986572E+02</totfact>
</mgrwt>
</event>
<event>
 4    1  0.5312547E-005  0.6560497E+03  0.7818608E-02  0.9795493E-01
         -2   -1    0    0    0  501 -0.00000000000E+00  0.00000000000E+00  0.10412465276E+03  0.10412465279E+03  0.25500000000E-02 0. -1.
          2   -1    0    0  501    0  0.00000000000E+00 -0.00000000000E+00 -0.10333797752E+04  0.10333797752E+04  0.25500000000E-02 0.  1.
    5000001    1    1    2    0    0 -0.26143732541E+03  0.10224409311E+03 -0.53337237292E+03  0.62491152805E+03  0.16500000000E+03 0.  0.
   -5000001    1    1    2    0    0  0.26143732541E+03 -0.10224409311E+03 -0.39588274947E+03  0.51259289990E+03  0.16500000000E+03 0.  0.
<mgrwt>
<rscale>  0 0.65604972E+03</rscale>
<asrwt>0</asrwt>
<pdfrwt beam="1">  1        2 0.14762568E+00 0.65604972E+03</pdfrwt>
<pdfrwt beam="2">  1       -2 0.14874951E-01 0.65604972E+03</pdfrwt>
<totfact> 0.95677106E+02</totfact>
</mgrwt>
</event>
<event>
 4    1  0.5312547E-005  0.9917255E+03  0.7818608E-02  0.9317667E-01
          2   -1    0    0  501    0  0.00000000000E+00  0.00000000000E+00  0.17642747699E+03  0.17642747701E+03  0.25500000000E-02 0.  1.
         -2   -1    0    0    0  501 -0.00000000000E+00 -0.00000000000E+00 -0.13936596879E+04  0.13936596879E+04  0.25500000000E-02 0. -1.
    5000001    1    1    2    0    0 -0.32927807921E+03  0.89266479070E+02 -0.10233691708E+03  0.39254350375E+03  0.16500000000E+03 0.  0.
   -5000001    1    1    2    0    0  0.32927807921E+03 -0.89266479070E+02 -0.11148952939E+04  0.11775436612E+04  0.16500000000E+03 0.  0.
<mgrwt>
<rscale>  0 0.99172549E+03</rscale>
<asrwt>0</asrwt>
<pdfrwt beam="1">  1        2 0.25203926E-01 0.99172549E+03</pdfrwt>
<pdfrwt beam="2">  1       -2 0.19909423E+00 0.99172549E+03</pdfrwt>
<totfact> 0.29320595E+01</totfact>
</mgrwt>
</event>
<event>
 4    1  0.5312547E-005  0.5117582E+03  0.7818608E-02  0.1010755E+00
          2   -1    0    0  501    0  0.00000000000E+00  0.00000000000E+00  0.58051382912E+03  0.58051382913E+03  0.25500000000E-02 0.  1.
         -2   -1    0    0    0  501 -0.00000000000E+00 -0.00000000000E+00 -0.11278647528E+03  0.11278647531E+03  0.25500000000E-02 0. -1.
    5000001    1    1    2    0    0  0.17033381405E+03 -0.59456459115E+02  0.33614831269E+03  0.41565534625E+03  0.16500000000E+03 0.  0.
   -5000001    1    1    2    0    0 -0.17033381405E+03  0.59456459115E+02  0.13157904115E+03  0.27764495819E+03  0.16500000000E+03 0.  0.
<mgrwt>
<rscale>  0 0.51175818E+03</rscale>
<asrwt>0</asrwt>
<pdfrwt beam="1">  1        2 0.82930547E-01 0.51175818E+03</pdfrwt>
<pdfrwt beam="2">  1       -2 0.16112354E-01 0.51175818E+03</pdfrwt>
<totfact> 0.17455542E+03</totfact>
</mgrwt>
</event>
<event>
 4    1  0.5312547E-005  0.5980189E+03  0.7818608E-02  0.9909525E-01
          2   -1    0    0  501    0  0.00000000000E+00  0.00000000000E+00  0.27074229374E+04  0.27074229374E+04  0.25500000000E-02 0.  1.
         -2   -1    0    0    0  501 -0.00000000000E+00 -0.00000000000E+00 -0.33022786467E+02  0.33022786565E+02  0.25500000000E-02 0. -1.
    5000001    1    1    2    0    0  0.17967836465E+03 -0.12812750289E+03  0.18692619813E+04  0.18894619146E+04  0.16500000000E+03 0.  0.
   -5000001    1    1    2    0    0 -0.17967836465E+03  0.12812750289E+03  0.80513816955E+03  0.85098380935E+03  0.16500000000E+03 0.  0.
<mgrwt>
<rscale>  0 0.59801889E+03</rscale>
<asrwt>0</asrwt>
<pdfrwt beam="1">  1        2 0.38677455E+00 0.59801889E+03</pdfrwt>
<pdfrwt beam="2">  1       -2 0.47175428E-02 0.59801889E+03</pdfrwt>
<totfact> 0.81152040E+02</totfact>
</mgrwt>
</event>
<event>
 4    1  0.5312547E-005  0.4039726E+03  0.7818608E-02  0.1042413E+00
         -2   -1    0    0    0  501 -0.00000000000E+00  0.00000000000E+00  0.97689130386E+01  0.97689133714E+01  0.25500000000E-02 0. -1.
          2   -1    0    0  501    0  0.00000000000E+00 -0.00000000000E+00 -0.41763571060E+04  0.41763571060E+04  0.25500000000E-02 0.  1.
    5000001    1    1    2    0    0  0.96651676063E+02  0.35862650643E+02 -0.15208730786E+04  0.15332669687E+04  0.16500000000E+03 0.  0.
   -5000001    1    1    2    0    0 -0.96651676063E+02 -0.35862650643E+02 -0.26457151144E+04  0.26528590507E+04  0.16500000000E+03 0.  0.
<mgrwt>
<rscale>  0 0.40397262E+03</rscale>
<asrwt>0</asrwt>
<pdfrwt beam="1">  1        2 0.59662130E+00 0.40397262E+03</pdfrwt>
<pdfrwt beam="2">  1       -2 0.13955617E-02 0.40397262E+03</pdfrwt>
<totfact> 0.70458096E+02</totfact>
</mgrwt>
</event>
<event>
 4    1  0.5312547E-005  0.4907562E+03  0.7818608E-02  0.1016220E+00
         -2   -1    0    0    0  501 -0.00000000000E+00  0.00000000000E+00  0.32244268589E+03  0.32244268590E+03  0.25500000000E-02 0. -1.
          2   -1    0    0  501    0  0.00000000000E+00 -0.00000000000E+00 -0.18673212697E+03  0.18673212699E+03  0.25500000000E-02 0.  1.
    5000001    1    1    2    0    0  0.74647621025E+02 -0.10795401180E+03  0.19810189818E+03  0.28930208788E+03  0.16500000000E+03 0.  0.
   -5000001    1    1    2    0    0 -0.74647621025E+02  0.10795401180E+03 -0.62391339259E+02  0.21987272501E+03  0.16500000000E+03 0.  0.
<mgrwt>
<rscale>  0 0.49075619E+03</rscale>
<asrwt>0</asrwt>
<pdfrwt beam="1">  1        2 0.26676018E-01 0.49075619E+03</pdfrwt>
<pdfrwt beam="2">  1       -2 0.46063241E-01 0.49075619E+03</pdfrwt>
<totfact> 0.91148647E+02</totfact>
</mgrwt>
</event>
<event>
 4    1  0.5312547E-005  0.8690549E+03  0.7818608E-02  0.9465113E-01
          2   -1    0    0  501    0  0.00000000000E+00  0.00000000000E+00  0.20071958853E+04  0.20071958853E+04  0.25500000000E-02 0.  1.
         -2   -1    0    0    0  501 -0.00000000000E+00 -0.00000000000E+00 -0.94068594227E+02  0.94068594262E+02  0.25500000000E-02 0. -1.
    5000001    1    1    2    0    0 -0.32957104772E+03  0.22419134005E+03  0.10824385704E+04  0.11652369249E+04  0.16500000000E+03 0.  0.
   -5000001    1    1    2    0    0  0.32957104772E+03 -0.22419134005E+03  0.83068872071E+03  0.93602755470E+03  0.16500000000E+03 0.  0.
<mgrwt>
<rscale>  0 0.86905488E+03</rscale>
<asrwt>0</asrwt>
<pdfrwt beam="1">  1        2 0.28674227E+00 0.86905488E+03</pdfrwt>
<pdfrwt beam="2">  1       -2 0.13438370E-01 0.86905488E+03</pdfrwt>
<totfact> 0.33928818E+02</totfact>
</mgrwt>
</event>
<event>
 4    1  0.5312547E-005  0.8950275E+03  0.7818608E-02  0.9431819E-01
         -2   -1    0    0    0  501 -0.00000000000E+00  0.00000000000E+00  0.11677796496E+03  0.11677796499E+03  0.25500000000E-02 0. -1.
          2   -1    0    0  501    0  0.00000000000E+00 -0.00000000000E+00 -0.17149516130E+04  0.17149516130E+04  0.25500000000E-02 0.  1.
    5000001    1    1    2    0    0  0.67940797961E+02  0.41039876210E+03 -0.80048004728E+03  0.91708036837E+03  0.16500000000E+03 0.  0.
   -5000001    1    1    2    0    0 -0.67940797961E+02 -0.41039876210E+03 -0.79769360073E+03  0.91464920959E+03  0.16500000000E+03 0.  0.
<mgrwt>
<rscale>  0 0.89502751E+03</rscale>
<asrwt>0</asrwt>
<pdfrwt beam="1">  1        2 0.24499307E+00 0.89502751E+03</pdfrwt>
<pdfrwt beam="2">  1       -2 0.16682567E-01 0.89502751E+03</pdfrwt>
<totfact> 0.33102939E+02</totfact>
</mgrwt>
</event>
<event>
 4    1  0.5312547E-005  0.4275170E+03  0.7818608E-02  0.1034647E+00
          2   -1    0    0  501    0  0.00000000000E+00  0.00000000000E+00  0.20944146001E+04  0.20944146001E+04  0.25500000000E-02 0.  1.
         -2   -1    0    0    0  501 -0.00000000000E+00 -0.00000000000E+00 -0.21816450921E+02  0.21816451070E+02  0.25500000000E-02 0. -1.
    5000001    1    1    2    0    0  0.11597297394E+03 -0.58671307690E+02  0.83981006251E+03  0.86567776575E+03  0.16500000000E+03 0.  0.
   -5000001    1    1    2    0    0 -0.11597297394E+03  0.58671307690E+02  0.12327880867E+04  0.12505532855E+04  0.16500000000E+03 0.  0.
<mgrwt>
<rscale>  0 0.42751699E+03</rscale>
<asrwt>0</asrwt>
<pdfrwt beam="1">  1        2 0.29920218E+00 0.42751699E+03</pdfrwt>
<pdfrwt beam="2">  1       -2 0.31166349E-02 0.42751699E+03</pdfrwt>
<totfact> 0.31627470E+03</totfact>
</mgrwt>
</event>
<event>
 4    1  0.5312547E-005  0.1262100E+04  0.7818608E-02  0.9060172E-01
         -2   -1    0    0    0  501 -0.00000000000E+00  0.00000000000E+00  0.12911368186E+03  0.12911368189E+03  0.25500000000E-02 0. -1.
          2   -1    0    0  501    0  0.00000000000E+00 -0.00000000000E+00 -0.30842927991E+04  0.30842927991E+04  0.25500000000E-02 0.  1.
    5000001    1    1    2    0    0  0.16087671852E+03 -0.56027738615E+03 -0.19273694677E+04  0.20203391134E+04  0.16500000000E+03 0.  0.
   -5000001    1    1    2    0    0 -0.16087671852E+03  0.56027738615E+03 -0.10278096495E+04  0.11930673676E+04  0.16500000000E+03 0.  0.
<mgrwt>
<rscale>  0 0.12621005E+04</rscale>
<asrwt>0</asrwt>
<pdfrwt beam="1">  1        2 0.44061321E+00 0.12621005E+04</pdfrwt>
<pdfrwt beam="2">  1       -2 0.18444814E-01 0.12621005E+04</pdfrwt>
<totfact> 0.51735120E+01</totfact>
</mgrwt>
</event>
<event>
 4    1  0.5312547E-005  0.4759569E+03  0.7818608E-02  0.1020252E+00
         -2   -1    0    0    0  501 -0.00000000000E+00  0.00000000000E+00  0.10682409284E+03  0.10682409287E+03  0.25500000000E-02 0. -1.
          2   -1    0    0  501    0  0.00000000000E+00 -0.00000000000E+00 -0.53015892807E+03  0.53015892807E+03  0.25500000000E-02 0.  1.
    5000001    1    1    2    0    0 -0.16876760538E+03  0.15325087867E+02 -0.24685745732E+03  0.34187858544E+03  0.16500000000E+03 0.  0.
   -5000001    1    1    2    0    0  0.16876760538E+03 -0.15325087867E+02 -0.17647737790E+03  0.29510443551E+03  0.16500000000E+03 0.  0.
<mgrwt>
<rscale>  0 0.47595692E+03</rscale>
<asrwt>0</asrwt>
<pdfrwt beam="1">  1        2 0.75736988E-01 0.47595692E+03</pdfrwt>
<pdfrwt beam="2">  1       -2 0.15260585E-01 0.47595692E+03</pdfrwt>
<totfact> 0.21225514E+03</totfact>
</mgrwt>
</event>
<event>
 4    1  0.5312547E-005  0.5563646E+03  0.7818608E-02  0.1000031E+00
         -2   -1    0    0    0  501 -0.00000000000E+00  0.00000000000E+00  0.13766152216E+03  0.13766152218E+03  0.25500000000E-02 0.  1.
          2   -1    0    0  501    0  0.00000000000E+00 -0.00000000000E+00 -0.56214248889E+03  0.56214248890E+03  0.25500000000E-02 0. -1.
    5000001    1    1    2    0    0  0.19897810901E+03 -0.95056278195E+02 -0.26147888864E+03  0.37976860467E+03  0.16500000000E+03 0.  0.
   -5000001    1    1    2    0    0 -0.19897810901E+03  0.95056278195E+02 -0.16300207809E+03  0.32003540641E+03  0.16500000000E+03 0.  0.
<mgrwt>
<rscale>  0 0.55636460E+03</rscale>
<asrwt>0</asrwt>
<pdfrwt beam="1">  1        2 0.80306069E-01 0.55636460E+03</pdfrwt>
<pdfrwt beam="2">  1       -2 0.19665932E-01 0.55636460E+03</pdfrwt>
<totfact> 0.12880269E+03</totfact>
</mgrwt>
</event>
<event>
 4    1  0.5312547E-005  0.3897068E+03  0.7818608E-02  0.1047403E+00
         -2   -1    0    0    0  501 -0.00000000000E+00  0.00000000000E+00  0.14746920427E+02  0.14746920647E+02  0.25500000000E-02 0. -1.
          2   -1    0    0  501    0  0.00000000000E+00 -0.00000000000E+00 -0.25746287995E+04  0.25746287995E+04  0.25500000000E-02 0.  1.
    5000001    1    1    2    0    0 -0.66569251625E+02  0.54173681420E+02 -0.16660379790E+04  0.16763871273E+04  0.16500000000E+03 0.  0.
   -5000001    1    1    2    0    0  0.66569251625E+02 -0.54173681420E+02 -0.89384390006E+03  0.91298859286E+03  0.16500000000E+03 0.  0.
<mgrwt>
<rscale>  0 0.38970679E+03</rscale>
<asrwt>0</asrwt>
<pdfrwt beam="1">  1        2 0.36780383E+00 0.38970679E+03</pdfrwt>
<pdfrwt beam="2">  1       -2 0.21067046E-02 0.38970679E+03</pdfrwt>
<totfact> 0.32733311E+03</totfact>
</mgrwt>
</event>
<event>
 4    1  0.5312547E-005  0.4653938E+03  0.7818608E-02  0.1023228E+00
          2   -1    0    0  501    0  0.00000000000E+00  0.00000000000E+00  0.44154595823E+03  0.44154595824E+03  0.25500000000E-02 0.  1.
         -2   -1    0    0    0  501 -0.00000000000E+00 -0.00000000000E+00 -0.12263240333E+03  0.12263240336E+03  0.25500000000E-02 0. -1.
    5000001    1    1    2    0    0  0.36851447029E+02  0.11623250919E+03  0.26357358790E+02  0.20685196567E+03  0.16500000000E+03 0.  0.
   -5000001    1    1    2    0    0 -0.36851447029E+02 -0.11623250919E+03  0.29255619611E+03  0.35732639592E+03  0.16500000000E+03 0.  0.
<mgrwt>
<rscale>  0 0.46539378E+03</rscale>
<asrwt>0</asrwt>
<pdfrwt beam="1">  1        2 0.63077994E-01 0.46539378E+03</pdfrwt>
<pdfrwt beam="2">  1       -2 0.17518915E-01 0.46539378E+03</pdfrwt>
<totfact> 0.20642959E+03</totfact>
</mgrwt>
</event>
<event>
 4    1  0.5312547E-005  0.4859553E+03  0.7818608E-02  0.1017511E+00
         -2   -1    0    0    0  501 -0.00000000000E+00  0.00000000000E+00  0.24121579080E+02  0.24121579215E+02  0.25500000000E-02 0. -1.
          2   -1    0    0  501    0  0.00000000000E+00 -0.00000000000E+00 -0.24475241416E+04  0.24475241416E+04  0.25500000000E-02 0.  1.
    5000001    1    1    2    0    0 -0.16459803597E+03  0.11855165238E+02 -0.15559139251E+04  0.15733169422E+04  0.16500000000E+03 0.  0.
   -5000001    1    1    2    0    0  0.16459803597E+03 -0.11855165238E+02 -0.86748863746E+03  0.89832877863E+03  0.16500000000E+03 0.  0.
<mgrwt>
<rscale>  0 0.48595534E+03</rscale>
<asrwt>0</asrwt>
<pdfrwt beam="1">  1        2 0.34964615E+00 0.48595534E+03</pdfrwt>
<pdfrwt beam="2">  1       -2 0.34459414E-02 0.48595534E+03</pdfrwt>
<totfact> 0.18025628E+03</totfact>
</mgrwt>
</event>
<event>
 4    1  0.5312547E-005  0.4757691E+03  0.7818608E-02  0.1020304E+00
          2   -1    0    0  501    0  0.00000000000E+00  0.00000000000E+00  0.88364354315E+03  0.88364354316E+03  0.25500000000E-02 0.  1.
         -2   -1    0    0    0  501 -0.00000000000E+00 -0.00000000000E+00 -0.64040584542E+02  0.64040584593E+02  0.25500000000E-02 0. -1.
    5000001    1    1    2    0    0 -0.49054556405E+00  0.13443885338E+03  0.62144961353E+03  0.65688558219E+03  0.16500000000E+03 0.  0.
   -5000001    1    1    2    0    0  0.49054556405E+00 -0.13443885338E+03  0.19815334508E+03  0.29079854556E+03  0.16500000000E+03 0.  0.
<mgrwt>
<rscale>  0 0.47576906E+03</rscale>
<asrwt>0</asrwt>
<pdfrwt beam="1">  1        2 0.12623480E+00 0.47576906E+03</pdfrwt>
<pdfrwt beam="2">  1       -2 0.91486543E-02 0.47576906E+03</pdfrwt>
<totfact> 0.26387800E+03</totfact>
</mgrwt>
</event>
<event>
 4    1  0.5312547E-005  0.5957017E+03  0.7818608E-02  0.9914364E-01
          2   -1    0    0  501    0  0.00000000000E+00  0.00000000000E+00  0.53668628705E+03  0.53668628705E+03  0.25500000000E-02 0.  1.
         -2   -1    0    0    0  501 -0.00000000000E+00 -0.00000000000E+00 -0.16530162959E+03  0.16530162961E+03  0.25500000000E-02 0. -1.
    5000001    1    1    2    0    0  0.53247604945E+02  0.24206452487E+03  0.19478805211E+03  0.35580602423E+03  0.16500000000E+03 0.  0.
   -5000001    1    1    2    0    0 -0.53247604945E+02 -0.24206452487E+03  0.17659660534E+03  0.34618189244E+03  0.16500000000E+03 0.  0.
<mgrwt>
<rscale>  0 0.59570166E+03</rscale>
<asrwt>0</asrwt>
<pdfrwt beam="1">  1        2 0.76669471E-01 0.59570166E+03</pdfrwt>
<pdfrwt beam="2">  1       -2 0.23614518E-01 0.59570166E+03</pdfrwt>
<totfact> 0.98484222E+02</totfact>
</mgrwt>
</event>
<event>
 4    1  0.5312547E-005  0.5400326E+03  0.7818608E-02  0.1003828E+00
         -2   -1    0    0    0  501 -0.00000000000E+00  0.00000000000E+00  0.16271755885E+03  0.16271755887E+03  0.25500000000E-02 0. -1.
          2   -1    0    0  501    0  0.00000000000E+00 -0.00000000000E+00 -0.44806961415E+03  0.44806961415E+03  0.25500000000E-02 0.  1.
    5000001    1    1    2    0    0  0.15054522009E+03 -0.15060259282E+03 -0.12185822128E+03  0.29566777023E+03  0.16500000000E+03 0.  0.
   -5000001    1    1    2    0    0 -0.15054522009E+03  0.15060259282E+03 -0.16349383402E+03  0.31511940279E+03  0.16500000000E+03 0.  0.
<mgrwt>
<rscale>  0 0.54003257E+03</rscale>
<asrwt>0</asrwt>
<pdfrwt beam="1">  1        2 0.64009945E-01 0.54003257E+03</pdfrwt>
<pdfrwt beam="2">  1       -2 0.23245366E-01 0.54003257E+03</pdfrwt>
<totfact> 0.12431275E+03</totfact>
</mgrwt>
</event>
<event>
 4    1  0.5312547E-005  0.6530658E+03  0.7818608E-02  0.9801043E-01
         -2   -1    0    0    0  501 -0.00000000000E+00  0.00000000000E+00  0.67130135472E+02  0.67130135521E+02  0.25500000000E-02 0. -1.
          2   -1    0    0  501    0  0.00000000000E+00 -0.00000000000E+00 -0.15883141406E+04  0.15883141406E+04  0.25500000000E-02 0.  1.
    5000001    1    1    2    0    0  0.62139902175E+02  0.23915900405E+03 -0.11038821820E+04  0.11431707083E+04  0.16500000000E+03 0.  0.
   -5000001    1    1    2    0    0 -0.62139902175E+02 -0.23915900405E+03 -0.41730182308E+03  0.51227356774E+03  0.16500000000E+03 0.  0.
<mgrwt>
<rscale>  0 0.65306583E+03</rscale>
<asrwt>0</asrwt>
<pdfrwt beam="1">  1        2 0.22690200E+00 0.65306583E+03</pdfrwt>
<pdfrwt beam="2">  1       -2 0.95900204E-02 0.65306583E+03</pdfrwt>
<totfact> 0.97898621E+02</totfact>
</mgrwt>
</event>
<event>
 4    1  0.5312547E-005  0.6228610E+03  0.7818608E-02  0.9859080E-01
          2   -1    0    0  501    0  0.00000000000E+00  0.00000000000E+00  0.79852516205E+02  0.79852516246E+02  0.25500000000E-02 0.  1.
         -2   -1    0    0    0  501 -0.00000000000E+00 -0.00000000000E+00 -0.12146011872E+04  0.12146011872E+04  0.25500000000E-02 0. -1.
    5000001    1    1    2    0    0 -0.15099589454E+03  0.15507855105E+03 -0.88197079026E+03  0.92300952976E+03  0.16500000000E+03 0.  0.
   -5000001    1    1    2    0    0  0.15099589454E+03 -0.15507855105E+03 -0.25277788069E+03  0.37144417364E+03  0.16500000000E+03 0.  0.
<mgrwt>
<rscale>  0 0.62286102E+03</rscale>
<asrwt>0</asrwt>
<pdfrwt beam="1">  1        2 0.11407503E-01 0.62286102E+03</pdfrwt>
<pdfrwt beam="2">  1       -2 0.17351444E+00 0.62286102E+03</pdfrwt>
<totfact> 0.11542615E+02</totfact>
</mgrwt>
</event>
<event>
 4    1  0.5312547E-005  0.3554146E+03  0.7818608E-02  0.1060414E+00
          2   -1    0    0  501    0  0.00000000000E+00  0.00000000000E+00  0.18558947240E+03  0.18558947242E+03  0.25500000000E-02 0.  1.
         -2   -1    0    0    0  501 -0.00000000000E+00 -0.00000000000E+00 -0.17015986247E+03  0.17015986249E+03  0.25500000000E-02 0. -1.
    5000001    1    1    2    0    0  0.57255928050E+02  0.12011025433E+02  0.38278350391E+02  0.17920027382E+03  0.16500000000E+03 0.  0.
   -5000001    1    1    2    0    0 -0.57255928050E+02 -0.12011025433E+02 -0.22848740457E+02  0.17654906108E+03  0.16500000000E+03 0.  0.
<mgrwt>
<rscale>  0 0.35541457E+03</rscale>
<asrwt>0</asrwt>
<pdfrwt beam="1">  1        2 0.26512782E-01 0.35541457E+03</pdfrwt>
<pdfrwt beam="2">  1       -2 0.24308552E-01 0.35541457E+03</pdfrwt>
<totfact> 0.30222996E+03</totfact>
</mgrwt>
</event>
<event>
 4    1  0.5312547E-005  0.3929245E+03  0.7818608E-02  0.1046258E+00
         -2   -1    0    0    0  501 -0.00000000000E+00  0.00000000000E+00  0.43433505636E+02  0.43433505711E+02  0.25500000000E-02 0. -1.
          2   -1    0    0  501    0  0.00000000000E+00 -0.00000000000E+00 -0.88865544293E+03  0.88865544294E+03  0.25500000000E-02 0.  1.
    5000001    1    1    2    0    0  0.51455109992E+02  0.52414777674E+02 -0.60601438792E+03  0.63235541876E+03  0.16500000000E+03 0.  0.
   -5000001    1    1    2    0    0 -0.51455109992E+02 -0.52414777674E+02 -0.23920754937E+03  0.29973352989E+03  0.16500000000E+03 0.  0.
<mgrwt>
<rscale>  0 0.39292453E+03</rscale>
<asrwt>0</asrwt>
<pdfrwt beam="1">  1        2 0.12695077E+00 0.39292453E+03</pdfrwt>
<pdfrwt beam="2">  1       -2 0.62047871E-02 0.39292453E+03</pdfrwt>
<totfact> 0.48202976E+03</totfact>
</mgrwt>
</event>
<event>
 4    1  0.5312547E-005  0.3934757E+03  0.7818608E-02  0.1046063E+00
          2   -1    0    0  501    0  0.00000000000E+00  0.00000000000E+00  0.83686988957E+03  0.83686988957E+03  0.25500000000E-02 0.  1.
         -2   -1    0    0    0  501 -0.00000000000E+00 -0.00000000000E+00 -0.46250653656E+02  0.46250653726E+02  0.25500000000E-02 0. -1.
    5000001    1    1    2    0    0  0.23858589852E+02 -0.10306666885E+03  0.43345196194E+03  0.47570744565E+03  0.16500000000E+03 0.  0.
   -5000001    1    1    2    0    0 -0.23858589852E+02  0.10306666885E+03  0.35716727397E+03  0.40741309765E+03  0.16500000000E+03 0.  0.
<mgrwt>
<rscale>  0 0.39347569E+03</rscale>
<asrwt>0</asrwt>
<pdfrwt beam="1">  1        2 0.11955283E+00 0.39347569E+03</pdfrwt>
<pdfrwt beam="2">  1       -2 0.66072368E-02 0.39347569E+03</pdfrwt>
<totfact> 0.47244899E+03</totfact>
</mgrwt>
</event>
<event>
 4    1  0.5312547E-005  0.3660654E+03  0.7818608E-02  0.1056208E+00
          2   -1    0    0  501    0  0.00000000000E+00  0.00000000000E+00  0.91365979059E+03  0.91365979059E+03  0.25500000000E-02 0.  1.
         -2   -1    0    0    0  501 -0.00000000000E+00 -0.00000000000E+00 -0.36666793901E+02  0.36666793990E+02  0.25500000000E-02 0. -1.
    5000001    1    1    2    0    0  0.77033870876E+02  0.10619828993E+02  0.47778001205E+03  0.51141542599E+03  0.16500000000E+03 0.  0.
   -5000001    1    1    2    0    0 -0.77033870876E+02 -0.10619828993E+02  0.39921298464E+03  0.43891115859E+03  0.16500000000E+03 0.  0.
<mgrwt>
<rscale>  0 0.36606543E+03</rscale>
<asrwt>0</asrwt>
<pdfrwt beam="1">  1        2 0.13052284E+00 0.36606543E+03</pdfrwt>
<pdfrwt beam="2">  1       -2 0.52381129E-02 0.36606543E+03</pdfrwt>
<totfact> 0.60287099E+03</totfact>
</mgrwt>
</event>
<event>
 4    1  0.5312547E-005  0.6318466E+03  0.7818608E-02  0.9841452E-01
          2   -1    0    0  501    0  0.00000000000E+00  0.00000000000E+00  0.14345553410E+04  0.14345553410E+04  0.25500000000E-02 0.  1.
         -2   -1    0    0    0  501 -0.00000000000E+00 -0.00000000000E+00 -0.69573850825E+02  0.69573850872E+02  0.25500000000E-02 0. -1.
    5000001    1    1    2    0    0 -0.26673220496E+03 -0.29472117178E+02  0.62576296074E+03  0.70058472570E+03  0.16500000000E+03 0.  0.
   -5000001    1    1    2    0    0  0.26673220496E+03  0.29472117178E+02  0.73921852940E+03  0.80354446613E+03  0.16500000000E+03 0.  0.
<mgrwt>
<rscale>  0 0.63184662E+03</rscale>
<asrwt>0</asrwt>
<pdfrwt beam="1">  1        2 0.20493647E+00 0.63184662E+03</pdfrwt>
<pdfrwt beam="2">  1       -2 0.99391221E-02 0.63184662E+03</pdfrwt>
<totfact> 0.11123190E+03</totfact>
</mgrwt>
</event>
<event>
 4    1  0.5312547E-005  0.4534374E+03  0.7818608E-02  0.1026702E+00
         -2   -1    0    0    0  501 -0.00000000000E+00  0.00000000000E+00  0.96374308046E+02  0.96374308080E+02  0.25500000000E-02 0. -1.
          2   -1    0    0  501    0  0.00000000000E+00 -0.00000000000E+00 -0.53335125493E+03  0.53335125494E+03  0.25500000000E-02 0.  1.
    5000001    1    1    2    0    0 -0.12510888549E+02  0.14715605373E+03 -0.15095123023E+03  0.26799757534E+03  0.16500000000E+03 0.  0.
   -5000001    1    1    2    0    0  0.12510888549E+02 -0.14715605373E+03 -0.28602571665E+03  0.36172798767E+03  0.16500000000E+03 0.  0.
<mgrwt>
<rscale>  0 0.45343735E+03</rscale>
<asrwt>0</asrwt>
<pdfrwt beam="1">  1        2 0.76193034E-01 0.45343735E+03</pdfrwt>
<pdfrwt beam="2">  1       -2 0.13767759E-01 0.45343735E+03</pdfrwt>
<totfact> 0.25018837E+03</totfact>
</mgrwt>
</event>
<event>
 4    1  0.5312547E-005  0.6201992E+03  0.7818608E-02  0.9864363E-01
          2   -1    0    0  501    0  0.00000000000E+00  0.00000000000E+00  0.67010884921E+03  0.67010884922E+03  0.25500000000E-02 0. -1.
         -2   -1    0    0    0  501 -0.00000000000E+00 -0.00000000000E+00 -0.14350171765E+03  0.14350171768E+03  0.25500000000E-02 0.  1.
    5000001    1    1    2    0    0 -0.13196970269E+03 -0.19455605437E+03  0.41667664113E+03  0.50607557141E+03  0.16500000000E+03 0.  0.
   -5000001    1    1    2    0    0  0.13196970269E+03  0.19455605437E+03  0.10993049043E+03  0.30753499548E+03  0.16500000000E+03 0.  0.
<mgrwt>
<rscale>  0 0.62019923E+03</rscale>
<asrwt>0</asrwt>
<pdfrwt beam="1">  1        2 0.95729838E-01 0.62019923E+03</pdfrwt>
<pdfrwt beam="2">  1       -2 0.20500245E-01 0.62019923E+03</pdfrwt>
<totfact> 0.97265108E+02</totfact>
</mgrwt>
</event>
<event>
 4    1  0.5312547E-005  0.3610607E+03  0.7818608E-02  0.1058165E+00
          2   -1    0    0  501    0  0.00000000000E+00  0.00000000000E+00  0.32893433356E+04  0.32893433356E+04  0.25500000000E-02 0.  1.
         -2   -1    0    0    0  501 -0.00000000000E+00 -0.00000000000E+00 -0.99081191821E+01  0.99081195103E+01  0.25500000000E-02 0. -1.
    5000001    1    1    2    0    0  0.39894196142E+02  0.36116551096E+02  0.20938746224E+04  0.21010549460E+04  0.16500000000E+03 0.  0.
   -5000001    1    1    2    0    0 -0.39894196142E+02 -0.36116551096E+02  0.11855605941E+04  0.11981965091E+04  0.16500000000E+03 0.  0.
<mgrwt>
<rscale>  0 0.36106069E+03</rscale>
<asrwt>0</asrwt>
<pdfrwt beam="1">  1        2 0.46990611E+00 0.36106069E+03</pdfrwt>
<pdfrwt beam="2">  1       -2 0.14154459E-02 0.36106069E+03</pdfrwt>
<totfact> 0.24615142E+03</totfact>
</mgrwt>
</event>
<event>
 4    1  0.5312547E-005  0.4552976E+03  0.7818608E-02  0.1026154E+00
          2   -1    0    0  501    0  0.00000000000E+00  0.00000000000E+00  0.10135524710E+04  0.10135524710E+04  0.25500000000E-02 0.  1.
         -2   -1    0    0    0  501 -0.00000000000E+00 -0.00000000000E+00 -0.51131021627E+02  0.51131021690E+02  0.25500000000E-02 0. -1.
    5000001    1    1    2    0    0 -0.14373414531E+02  0.66008449232E+02  0.81220668578E+03  0.83154579600E+03  0.16500000000E+03 0.  0.
   -5000001    1    1    2    0    0  0.14373414531E+02 -0.66008449232E+02  0.15021476357E+03  0.23313769667E+03  0.16500000000E+03 0.  0.
<mgrwt>
<rscale>  0 0.45529759E+03</rscale>
<asrwt>0</asrwt>
<pdfrwt beam="1">  1        2 0.14479322E+00 0.45529759E+03</pdfrwt>
<pdfrwt beam="2">  1       -2 0.73044314E-02 0.45529759E+03</pdfrwt>
<totfact> 0.31314735E+03</totfact>
</mgrwt>
</event>
<event>
 4    1  0.5312547E-005  0.4174497E+03  0.7818608E-02  0.1037900E+00
         -2   -1    0    0    0  501 -0.00000000000E+00  0.00000000000E+00  0.11182378597E+03  0.11182378600E+03  0.25500000000E-02 0. -1.
          2   -1    0    0  501    0  0.00000000000E+00 -0.00000000000E+00 -0.38959566626E+03  0.38959566627E+03  0.25500000000E-02 0.  1.
    5000001    1    1    2    0    0  0.10823779121E+03  0.63953542389E+02 -0.11108802696E+03  0.23531048588E+03  0.16500000000E+03 0.  0.
   -5000001    1    1    2    0    0 -0.10823779121E+03 -0.63953542389E+02 -0.16668385333E+03  0.26610896639E+03  0.16500000000E+03 0.  0.
<mgrwt>
<rscale>  0 0.41744970E+03</rscale>
<asrwt>0</asrwt>
<pdfrwt beam="1">  1        2 0.55656523E-01 0.41744970E+03</pdfrwt>
<pdfrwt beam="2">  1       -2 0.15974827E-01 0.41744970E+03</pdfrwt>
<totfact> 0.27670529E+03</totfact>
</mgrwt>
</event>
<event>
 4    1  0.5312547E-005  0.3547656E+03  0.7818608E-02  0.1060676E+00
         -2   -1    0    0    0  501 -0.00000000000E+00  0.00000000000E+00  0.29437984738E+02  0.29437984849E+02  0.25500000000E-02 0. -1.
          2   -1    0    0  501    0  0.00000000000E+00 -0.00000000000E+00 -0.10688454104E+04  0.10688454104E+04  0.25500000000E-02 0.  1.
    5000001    1    1    2    0    0  0.31952057096E+02 -0.23105605417E+02 -0.35929309573E+03  0.39733025507E+03  0.16500000000E+03 0.  0.
   -5000001    1    1    2    0    0 -0.31952057096E+02  0.23105605417E+02 -0.68011432997E+03  0.70095314022E+03  0.16500000000E+03 0.  0.
<mgrwt>
<rscale>  0 0.35476558E+03</rscale>
<asrwt>0</asrwt>
<pdfrwt beam="1">  1        2 0.15269218E+00 0.35476558E+03</pdfrwt>
<pdfrwt beam="2">  1       -2 0.42054271E-02 0.35476558E+03</pdfrwt>
<totfact> 0.67973523E+03</totfact>
</mgrwt>
</event>
<event>
 4    1  0.5312547E-005  0.5644718E+03  0.7818608E-02  0.9981987E-01
          2   -1    0    0  501    0  0.00000000000E+00  0.00000000000E+00  0.13920471754E+03  0.13920471756E+03  0.25500000000E-02 0.  1.
         -2   -1    0    0    0  501 -0.00000000000E+00 -0.00000000000E+00 -0.57222989858E+03  0.57222989859E+03  0.25500000000E-02 0. -1.
    5000001    1    1    2    0    0 -0.21847721027E+03  0.46986757143E+02 -0.27943010084E+03  0.39401297950E+03  0.16500000000E+03 0.  0.
   -5000001    1    1    2    0    0  0.21847721027E+03 -0.46986757143E+02 -0.15359508020E+03  0.31742163665E+03  0.16500000000E+03 0.  0.
<mgrwt>
<rscale>  0 0.56447179E+03</rscale>
<asrwt>0</asrwt>
<pdfrwt beam="1">  1        2 0.19886389E-01 0.56447179E+03</pdfrwt>
<pdfrwt beam="2">  1       -2 0.81747127E-01 0.56447179E+03</pdfrwt>
<totfact> 0.38041867E+02</totfact>
</mgrwt>
</event>
<event>
 4    1  0.5312547E-005  0.2024180E+04  0.7818608E-02  0.8595398E-01
         -2   -1    0    0    0  501 -0.00000000000E+00  0.00000000000E+00  0.47230666172E+03  0.47230666172E+03  0.25500000000E-02 0. -1.
          2   -1    0    0  501    0  0.00000000000E+00 -0.00000000000E+00 -0.21687738010E+04  0.21687738010E+04  0.25500000000E-02 0.  1.
    5000001    1    1    2    0    0 -0.84437964375E+03 -0.49541366702E+03 -0.59159037126E+03  0.11556884752E+04  0.16500000000E+03 0.  0.
   -5000001    1    1    2    0    0  0.84437964375E+03  0.49541366702E+03 -0.11048767681E+04  0.14853919876E+04  0.16500000000E+03 0.  0.
<mgrwt>
<rscale>  0 0.20241801E+04</rscale>
<asrwt>0</asrwt>
<pdfrwt beam="1">  1        2 0.30982482E+00 0.20241801E+04</pdfrwt>
<pdfrwt beam="2">  1       -2 0.67472381E-01 0.20241801E+04</pdfrwt>
<totfact> 0.12304170E+01</totfact>
</mgrwt>
</event>
<event>
 4    1  0.5312547E-005  0.4353004E+03  0.7818608E-02  0.1032199E+00
          2   -1    0    0  501    0  0.00000000000E+00  0.00000000000E+00  0.16087169698E+04  0.16087169698E+04  0.25500000000E-02 0.  1.
         -2   -1    0    0    0  501 -0.00000000000E+00 -0.00000000000E+00 -0.29446822809E+02  0.29446822920E+02  0.25500000000E-02 0. -1.
    5000001    1    1    2    0    0 -0.13992014804E+03  0.88129758727E+01  0.70622163117E+03  0.73866725168E+03  0.16500000000E+03 0.  0.
   -5000001    1    1    2    0    0  0.13992014804E+03 -0.88129758727E+01  0.87304851580E+03  0.89949654102E+03  0.16500000000E+03 0.  0.
<mgrwt>
<rscale>  0 0.43530037E+03</rscale>
<asrwt>0</asrwt>
<pdfrwt beam="1">  1        2 0.22981674E+00 0.43530037E+03</pdfrwt>
<pdfrwt beam="2">  1       -2 0.42066885E-02 0.43530037E+03</pdfrwt>
<totfact> 0.35046317E+03</totfact>
</mgrwt>
</event>
<event>
 4    1  0.5312547E-005  0.6948011E+03  0.7818608E-02  0.9726165E-01
          2   -1    0    0  501    0  0.00000000000E+00  0.00000000000E+00  0.24466102517E+04  0.24466102517E+04  0.25500000000E-02 0.  1.
         -2   -1    0    0    0  501 -0.00000000000E+00 -0.00000000000E+00 -0.49328305648E+02  0.49328305714E+02  0.25500000000E-02 0. -1.
    5000001    1    1    2    0    0 -0.10648530108E+03 -0.28268543636E+03  0.10296893612E+04  0.10856957935E+04  0.16500000000E+03 0.  0.
   -5000001    1    1    2    0    0  0.10648530108E+03  0.28268543636E+03  0.13675925849E+04  0.14102427640E+04  0.16500000000E+03 0.  0.
<mgrwt>
<rscale>  0 0.69480109E+03</rscale>
<asrwt>0</asrwt>
<pdfrwt beam="1">  1        2 0.34951575E+00 0.69480109E+03</pdfrwt>
<pdfrwt beam="2">  1       -2 0.70469008E-02 0.69480109E+03</pdfrwt>
<totfact> 0.58651644E+02</totfact>
</mgrwt>
</event>
<event>
 4    1  0.5312547E-005  0.6682863E+03  0.7818608E-02  0.9773059E-01
         -2   -1    0    0    0  501 -0.00000000000E+00  0.00000000000E+00  0.49765242905E+02  0.49765242970E+02  0.25500000000E-02 0. -1.
          2   -1    0    0  501    0  0.00000000000E+00 -0.00000000000E+00 -0.22435666479E+04  0.22435666479E+04  0.25500000000E-02 0.  1.
    5000001    1    1    2    0    0 -0.28570961677E+03 -0.51022764643E+02 -0.10491856019E+04  0.11010216777E+04  0.16500000000E+03 0.  0.
   -5000001    1    1    2    0    0  0.28570961677E+03  0.51022764643E+02 -0.11446158031E+04  0.11923102131E+04  0.16500000000E+03 0.  0.
<mgrwt>
<rscale>  0 0.66828628E+03</rscale>
<asrwt>0</asrwt>
<pdfrwt beam="1">  1        2 0.32050946E+00 0.66828628E+03</pdfrwt>
<pdfrwt beam="2">  1       -2 0.71093218E-02 0.66828628E+03</pdfrwt>
<totfact> 0.73538450E+02</totfact>
</mgrwt>
</event>
<event>
 4    1  0.5312547E-005  0.4225153E+03  0.7818608E-02  0.1036251E+00
         -2   -1    0    0    0  501 -0.00000000000E+00  0.00000000000E+00  0.46043336224E+02  0.46043336294E+02  0.25500000000E-02 0. -1.
          2   -1    0    0  501    0  0.00000000000E+00 -0.00000000000E+00 -0.96929996463E+03  0.96929996464E+03  0.25500000000E-02 0.  1.
    5000001    1    1    2    0    0 -0.96620853125E+02 -0.86805771069E+02 -0.40609800457E+03  0.45717766838E+03  0.16500000000E+03 0.  0.
   -5000001    1    1    2    0    0  0.96620853125E+02  0.86805771069E+02 -0.51715862384E+03  0.55816563255E+03  0.16500000000E+03 0.  0.
<mgrwt>
<rscale>  0 0.42251535E+03</rscale>
<asrwt>0</asrwt>
<pdfrwt beam="1">  1        2 0.13847141E+00 0.42251535E+03</pdfrwt>
<pdfrwt beam="2">  1       -2 0.65776201E-02 0.42251535E+03</pdfrwt>
<totfact> 0.39231364E+03</totfact>
</mgrwt>
</event>
<event>
 4    1  0.5312547E-005  0.4749972E+03  0.7818608E-02  0.1020519E+00
          2   -1    0    0  501    0  0.00000000000E+00  0.00000000000E+00  0.36814320761E+03  0.36814320762E+03  0.25500000000E-02 0.  1.
         -2   -1    0    0    0  501 -0.00000000000E+00 -0.00000000000E+00 -0.15321640836E+03  0.15321640838E+03  0.25500000000E-02 0. -1.
    5000001    1    1    2    0    0 -0.17026666949E+03  0.77994823574E+01  0.11993025711E+03  0.26581918146E+03  0.16500000000E+03 0.  0.
   -5000001    1    1    2    0    0  0.17026666949E+03 -0.77994823574E+01  0.94996542138E+02  0.25554043453E+03  0.16500000000E+03 0.  0.
<mgrwt>
<rscale>  0 0.47499718E+03</rscale>
<asrwt>0</asrwt>
<pdfrwt beam="1">  1        2 0.52591887E-01 0.47499718E+03</pdfrwt>
<pdfrwt beam="2">  1       -2 0.21888058E-01 0.47499718E+03</pdfrwt>
<totfact> 0.17176990E+03</totfact>
</mgrwt>
</event>
<event>
 4    1  0.5312547E-005  0.4995952E+03  0.7818608E-02  0.1013885E+00
          2   -1    0    0  501    0  0.00000000000E+00  0.00000000000E+00  0.26618486309E+04  0.26618486309E+04  0.25500000000E-02 0.  1.
         -2   -1    0    0    0  501 -0.00000000000E+00 -0.00000000000E+00 -0.23441919322E+02  0.23441919461E+02  0.25500000000E-02 0. -1.
    5000001    1    1    2    0    0  0.14073874732E+03 -0.88601444198E+02  0.17851895613E+04  0.18004955931E+04  0.16500000000E+03 0.  0.
   -5000001    1    1    2    0    0 -0.14073874732E+03  0.88601444198E+02  0.85321715027E+03  0.88479495728E+03  0.16500000000E+03 0.  0.
<mgrwt>
<rscale>  0 0.49959520E+03</rscale>
<asrwt>0</asrwt>
<pdfrwt beam="1">  1        2 0.38026425E+00 0.49959520E+03</pdfrwt>
<pdfrwt beam="2">  1       -2 0.33488442E-02 0.49959520E+03</pdfrwt>
<totfact> 0.14605676E+03</totfact>
</mgrwt>
</event>
<event>
 4    1  0.5312547E-005  0.5123291E+03  0.7818608E-02  0.1010610E+00
          2   -1    0    0  501    0  0.00000000000E+00  0.00000000000E+00  0.18974864749E+04  0.18974864749E+04  0.25500000000E-02 0.  1.
         -2   -1    0    0    0  501 -0.00000000000E+00 -0.00000000000E+00 -0.34582732116E+02  0.34582732210E+02  0.25500000000E-02 0. -1.
    5000001    1    1    2    0    0 -0.14402470464E+03 -0.47700174258E+02  0.13990871829E+04  0.14169292035E+04  0.16500000000E+03 0.  0.
   -5000001    1    1    2    0    0  0.14402470464E+03  0.47700174258E+02  0.46381655987E+03  0.51514000367E+03  0.16500000000E+03 0.  0.
<mgrwt>
<rscale>  0 0.51232906E+03</rscale>
<asrwt>0</asrwt>
<pdfrwt beam="1">  1        2 0.27106951E+00 0.51232906E+03</pdfrwt>
<pdfrwt beam="2">  1       -2 0.49403901E-02 0.51232906E+03</pdfrwt>
<totfact> 0.19561712E+03</totfact>
</mgrwt>
</event>
<event>
 4    1  0.5312547E-005  0.8209209E+03  0.7818608E-02  0.9530219E-01
         -2   -1    0    0    0  501 -0.00000000000E+00  0.00000000000E+00  0.10274574507E+03  0.10274574511E+03  0.25500000000E-02 0. -1.
          2   -1    0    0  501    0  0.00000000000E+00 -0.00000000000E+00 -0.16397541909E+04  0.16397541909E+04  0.25500000000E-02 0.  1.
    5000001    1    1    2    0    0 -0.21884370912E+03 -0.30346864712E+03 -0.84405795035E+03  0.93789371059E+03  0.16500000000E+03 0.  0.
   -5000001    1    1    2    0    0  0.21884370912E+03  0.30346864712E+03 -0.69295049546E+03  0.80460622540E+03  0.16500000000E+03 0.  0.
<mgrwt>
<rscale>  0 0.82092086E+03</rscale>
<asrwt>0</asrwt>
<pdfrwt beam="1">  1        2 0.23425058E+00 0.82092086E+03</pdfrwt>
<pdfrwt beam="2">  1       -2 0.14677965E-01 0.82092086E+03</pdfrwt>
<totfact> 0.45200225E+02</totfact>
</mgrwt>
</event>
<event>
 4    1  0.5312547E-005  0.6683607E+03  0.7818608E-02  0.9772924E-01
          2   -1    0    0  501    0  0.00000000000E+00  0.00000000000E+00  0.71236193875E+03  0.71236193876E+03  0.25500000000E-02 0.  1.
         -2   -1    0    0    0  501 -0.00000000000E+00 -0.00000000000E+00 -0.15676931664E+03  0.15676931666E+03  0.25500000000E-02 0. -1.
    5000001    1    1    2    0    0 -0.97198631982E+02  0.25533885251E+03  0.14902467176E+03  0.35224828808E+03  0.16500000000E+03 0.  0.
   -5000001    1    1    2    0    0  0.97198631982E+02 -0.25533885251E+03  0.40656795036E+03  0.51688296733E+03  0.16500000000E+03 0.  0.
<mgrwt>
<rscale>  0 0.66836066E+03</rscale>
<asrwt>0</asrwt>
<pdfrwt beam="1">  1        2 0.10176599E+00 0.66836066E+03</pdfrwt>
<pdfrwt beam="2">  1       -2 0.22395616E-01 0.66836066E+03</pdfrwt>
<totfact> 0.77176357E+02</totfact>
</mgrwt>
</event>
<event>
 4    1  0.5312547E-005  0.1040898E+04  0.7818608E-02  0.9264792E-01
          2   -1    0    0  501    0  0.00000000000E+00  0.00000000000E+00  0.18627971423E+04  0.18627971423E+04  0.25500000000E-02 0.  1.
         -2   -1    0    0    0  501 -0.00000000000E+00 -0.00000000000E+00 -0.14540871105E+03  0.14540871108E+03  0.25500000000E-02 0. -1.
    5000001    1    1    2    0    0 -0.31865528757E+03 -0.31334350927E+03  0.45438418445E+03  0.65834286977E+03  0.16500000000E+03 0.  0.
   -5000001    1    1    2    0    0  0.31865528757E+03  0.31334350927E+03  0.12630042468E+04  0.13498629836E+04  0.16500000000E+03 0.  0.
<mgrwt>
<rscale>  0 0.10408976E+04</rscale>
<asrwt>0</asrwt>
<pdfrwt beam="1">  1        2 0.26611390E+00 0.10408976E+04</pdfrwt>
<pdfrwt beam="2">  1       -2 0.20772672E-01 0.10408976E+04</pdfrwt>
<totfact> 0.18807129E+02</totfact>
</mgrwt>
</event>
<event>
 4    1  0.5312547E-005  0.5898290E+03  0.7818608E-02  0.9926735E-01
          2   -1    0    0  501    0  0.00000000000E+00  0.00000000000E+00  0.15902310134E+04  0.15902310134E+04  0.25500000000E-02 0.  1.
         -2   -1    0    0    0  501 -0.00000000000E+00 -0.00000000000E+00 -0.54693031994E+02  0.54693032053E+02  0.25500000000E-02 0. -1.
    5000001    1    1    2    0    0  0.14910508539E+03 -0.19348872113E+03  0.79261043988E+03  0.84565153645E+03  0.16500000000E+03 0.  0.
   -5000001    1    1    2    0    0 -0.14910508539E+03  0.19348872113E+03  0.74292754153E+03  0.79927250900E+03  0.16500000000E+03 0.  0.
<mgrwt>
<rscale>  0 0.58982898E+03</rscale>
<asrwt>0</asrwt>
<pdfrwt beam="1">  1        2 0.22717588E+00 0.58982898E+03</pdfrwt>
<pdfrwt beam="2">  1       -2 0.78132896E-02 0.58982898E+03</pdfrwt>
<totfact> 0.13604218E+03</totfact>
</mgrwt>
</event>
<event>
 4    1  0.5312547E-005  0.4974944E+03  0.7818608E-02  0.1014435E+00
          2   -1    0    0  501    0  0.00000000000E+00  0.00000000000E+00  0.87472930614E+02  0.87472930651E+02  0.25500000000E-02 0.  1.
         -2   -1    0    0    0  501 -0.00000000000E+00 -0.00000000000E+00 -0.70736363382E+03  0.70736363382E+03  0.25500000000E-02 0. -1.
    5000001    1    1    2    0    0  0.36964159662E+02  0.17416175887E+03 -0.22314704885E+03  0.32972454074E+03  0.16500000000E+03 0.  0.
   -5000001    1    1    2    0    0 -0.36964159662E+02 -0.17416175887E+03 -0.39674365435E+03  0.46511202374E+03  0.16500000000E+03 0.  0.
<mgrwt>
<rscale>  0 0.49749440E+03</rscale>
<asrwt>0</asrwt>
<pdfrwt beam="1">  1        2 0.12496133E-01 0.49749440E+03</pdfrwt>
<pdfrwt beam="2">  1       -2 0.10105194E+00 0.49749440E+03</pdfrwt>
<totfact> 0.40874021E+02</totfact>
</mgrwt>
</event>
<event>
 4    1  0.5312547E-005  0.3754822E+03  0.7818608E-02  0.1052616E+00
         -2   -1    0    0    0  501 -0.00000000000E+00  0.00000000000E+00  0.18912709984E+03  0.18912709986E+03  0.25500000000E-02 0. -1.
          2   -1    0    0  501    0  0.00000000000E+00 -0.00000000000E+00 -0.18636526547E+03  0.18636526549E+03  0.25500000000E-02 0.  1.
    5000001    1    1    2    0    0 -0.43302893409E+02 -0.75757619799E+02  0.21564739426E+02  0.18789463942E+03  0.16500000000E+03 0.  0.
   -5000001    1    1    2    0    0  0.43302893409E+02  0.75757619799E+02 -0.18802905061E+02  0.18759772593E+03  0.16500000000E+03 0.  0.
<mgrwt>
<rscale>  0 0.37548221E+03</rscale>
<asrwt>0</asrwt>
<pdfrwt beam="1">  1        2 0.26623609E-01 0.37548221E+03</pdfrwt>
<pdfrwt beam="2">  1       -2 0.27018157E-01 0.37548221E+03</pdfrwt>
<totfact> 0.24943370E+03</totfact>
</mgrwt>
</event>
<event>
 4    1  0.5312547E-005  0.7566515E+03  0.7818608E-02  0.9624973E-01
          2   -1    0    0  501    0  0.00000000000E+00  0.00000000000E+00  0.13367294296E+04  0.13367294296E+04  0.25500000000E-02 0.  1.
         -2   -1    0    0    0  501 -0.00000000000E+00 -0.00000000000E+00 -0.10707504678E+03  0.10707504681E+03  0.25500000000E-02 0. -1.
    5000001    1    1    2    0    0  0.14936130033E+03 -0.29308071941E+03  0.78226949672E+03  0.86450891935E+03  0.16500000000E+03 0.  0.
   -5000001    1    1    2    0    0 -0.14936130033E+03  0.29308071941E+03  0.44738488607E+03  0.57929555705E+03  0.16500000000E+03 0.  0.
<mgrwt>
<rscale>  0 0.75665148E+03</rscale>
<asrwt>0</asrwt>
<pdfrwt beam="1">  1        2 0.19096135E+00 0.75665148E+03</pdfrwt>
<pdfrwt beam="2">  1       -2 0.15296435E-01 0.75665148E+03</pdfrwt>
<totfact> 0.61130816E+02</totfact>
</mgrwt>
</event>
<event>
 4    1  0.5312547E-005  0.5658555E+03  0.7818608E-02  0.9978892E-01
          2   -1    0    0  501    0  0.00000000000E+00  0.00000000000E+00  0.10912978103E+03  0.10912978106E+03  0.25500000000E-02 0.  1.
         -2   -1    0    0    0  501 -0.00000000000E+00 -0.00000000000E+00 -0.73351292905E+03  0.73351292906E+03  0.25500000000E-02 0. -1.
    5000001    1    1    2    0    0 -0.15070380458E+03  0.15676481141E+03 -0.42299323786E+03  0.50342340241E+03  0.16500000000E+03 0.  0.
   -5000001    1    1    2    0    0  0.15070380458E+03 -0.15676481141E+03 -0.20138991016E+03  0.33921930771E+03  0.16500000000E+03 0.  0.
<mgrwt>
<rscale>  0 0.56585548E+03</rscale>
<asrwt>0</asrwt>
<pdfrwt beam="1">  1        2 0.15589969E-01 0.56585548E+03</pdfrwt>
<pdfrwt beam="2">  1       -2 0.10478756E+00 0.56585548E+03</pdfrwt>
<totfact> 0.28604181E+02</totfact>
</mgrwt>
</event>
<event>
 4    1  0.5312547E-005  0.6464839E+03  0.7818608E-02  0.9813399E-01
          2   -1    0    0  501    0  0.00000000000E+00  0.00000000000E+00  0.10312535470E+04  0.10312535470E+04  0.25500000000E-02 0. -1.
         -2   -1    0    0    0  501 -0.00000000000E+00 -0.00000000000E+00 -0.10131877179E+03  0.10131877182E+03  0.25500000000E-02 0.  1.
    5000001    1    1    2    0    0 -0.35430987922E+01 -0.20652630113E+03  0.79081376433E+03  0.83383276288E+03  0.16500000000E+03 0.  0.
   -5000001    1    1    2    0    0  0.35430987922E+01  0.20652630113E+03  0.13912101086E+03  0.29873955592E+03  0.16500000000E+03 0.  0.
<mgrwt>
<rscale>  0 0.64648385E+03</rscale>
<asrwt>0</asrwt>
<pdfrwt beam="1">  1        2 0.14732194E+00 0.64648385E+03</pdfrwt>
<pdfrwt beam="2">  1       -2 0.14474110E-01 0.64648385E+03</pdfrwt>
<totfact> 0.10049912E+03</totfact>
</mgrwt>
</event>
<event>
 4    1  0.5312547E-005  0.4236260E+03  0.7818608E-02  0.1035893E+00
         -2   -1    0    0    0  501 -0.00000000000E+00  0.00000000000E+00  0.63207803633E+02  0.63207803685E+02  0.25500000000E-02 0. -1.
          2   -1    0    0  501    0  0.00000000000E+00 -0.00000000000E+00 -0.70979757324E+03  0.70979757325E+03  0.25500000000E-02 0.  1.
    5000001    1    1    2    0    0  0.56593335735E+02 -0.10503295921E+03 -0.42977281176E+03  0.47556744831E+03  0.16500000000E+03 0.  0.
   -5000001    1    1    2    0    0 -0.56593335735E+02  0.10503295921E+03 -0.21681695786E+03  0.29743792862E+03  0.16500000000E+03 0.  0.
<mgrwt>
<rscale>  0 0.42362599E+03</rscale>
<asrwt>0</asrwt>
<pdfrwt beam="1">  1        2 0.10139965E+00 0.42362599E+03</pdfrwt>
<pdfrwt beam="2">  1       -2 0.90296867E-02 0.42362599E+03</pdfrwt>
<totfact> 0.35485133E+03</totfact>
</mgrwt>
</event>
<event>
 4    1  0.5312547E-005  0.4117238E+03  0.7818608E-02  0.1039794E+00
          2   -1    0    0  501    0  0.00000000000E+00  0.00000000000E+00  0.29706227364E+03  0.29706227365E+03  0.25500000000E-02 0.  1.
         -2   -1    0    0    0  501 -0.00000000000E+00 -0.00000000000E+00 -0.14266070171E+03  0.14266070173E+03  0.25500000000E-02 0. -1.
    5000001    1    1    2    0    0  0.38426687328E+01 -0.12287501828E+03  0.84045705329E+02  0.22226496981E+03  0.16500000000E+03 0.  0.
   -5000001    1    1    2    0    0 -0.38426687328E+01  0.12287501828E+03  0.70355866602E+02  0.21745800557E+03  0.16500000000E+03 0.  0.
<mgrwt>
<rscale>  0 0.41172375E+03</rscale>
<asrwt>0</asrwt>
<pdfrwt beam="1">  1        2 0.42437468E-01 0.41172375E+03</pdfrwt>
<pdfrwt beam="2">  1       -2 0.20380100E-01 0.41172375E+03</pdfrwt>
<totfact> 0.24561496E+03</totfact>
</mgrwt>
</event>
<event>
 4    1  0.5312547E-005  0.4755038E+03  0.7818608E-02  0.1020378E+00
          2   -1    0    0  501    0  0.00000000000E+00  0.00000000000E+00  0.38092331956E+03  0.38092331957E+03  0.25500000000E-02 0. -1.
         -2   -1    0    0    0  501 -0.00000000000E+00 -0.00000000000E+00 -0.14839197048E+03  0.14839197051E+03  0.25500000000E-02 0.  1.
    5000001    1    1    2    0    0  0.34097695066E+02 -0.15257786516E+03  0.19385515026E+03  0.29874316231E+03  0.16500000000E+03 0.  0.
   -5000001    1    1    2    0    0 -0.34097695066E+02  0.15257786516E+03  0.38676198813E+02  0.23057212776E+03  0.16500000000E+03 0.  0.
<mgrwt>
<rscale>  0 0.47550378E+03</rscale>
<asrwt>0</asrwt>
<pdfrwt beam="1">  1        2 0.54417615E-01 0.47550378E+03</pdfrwt>
<pdfrwt beam="2">  1       -2 0.21198854E-01 0.47550378E+03</pdfrwt>
<totfact> 0.17496718E+03</totfact>
</mgrwt>
</event>
<event>
 4    1  0.5312547E-005  0.6655445E+03  0.7818608E-02  0.9778040E-01
         -2   -1    0    0    0  501 -0.00000000000E+00  0.00000000000E+00  0.58573516740E+03  0.58573516741E+03  0.25500000000E-02 0. -1.
          2   -1    0    0  501    0  0.00000000000E+00 -0.00000000000E+00 -0.18905709105E+03  0.18905709106E+03  0.25500000000E-02 0.  1.
    5000001    1    1    2    0    0 -0.42672915839E+02 -0.28024538115E+03  0.26371747667E+03  0.42086857676E+03  0.16500000000E+03 0.  0.
   -5000001    1    1    2    0    0  0.42672915839E+02  0.28024538115E+03  0.13296059968E+03  0.35392368171E+03  0.16500000000E+03 0.  0.
<mgrwt>
<rscale>  0 0.66554455E+03</rscale>
<asrwt>0</asrwt>
<pdfrwt beam="1">  1        2 0.27008157E-01 0.66554455E+03</pdfrwt>
<pdfrwt beam="2">  1       -2 0.83676450E-01 0.66554455E+03</pdfrwt>
<totfact> 0.25296846E+02</totfact>
</mgrwt>
</event>
<event>
 4    1  0.5312547E-005  0.8512507E+03  0.7818608E-02  0.9488660E-01
         -2   -1    0    0    0  501 -0.00000000000E+00  0.00000000000E+00  0.94184316144E+02  0.94184316179E+02  0.25500000000E-02 0. -1.
          2   -1    0    0  501    0  0.00000000000E+00 -0.00000000000E+00 -0.19234299936E+04  0.19234299936E+04  0.25500000000E-02 0.  1.
    5000001    1    1    2    0    0  0.12780822075E+03  0.28049005861E+03 -0.14899575841E+04  0.15304274621E+04  0.16500000000E+03 0.  0.
   -5000001    1    1    2    0    0 -0.12780822075E+03 -0.28049005861E+03 -0.33928809333E+03  0.48718684767E+03  0.16500000000E+03 0.  0.
<mgrwt>
<rscale>  0 0.85125070E+03</rscale>
<asrwt>0</asrwt>
<pdfrwt beam="1">  1        2 0.27477569E+00 0.85125070E+03</pdfrwt>
<pdfrwt beam="2">  1       -2 0.13454903E-01 0.85125070E+03</pdfrwt>
<totfact> 0.37390030E+02</totfact>
</mgrwt>
</event>
<event>
 4    1  0.5312547E-005  0.4282978E+03  0.7818608E-02  0.1034399E+00
          2   -1    0    0  501    0  0.00000000000E+00  0.00000000000E+00  0.21368343886E+03  0.21368343888E+03  0.25500000000E-02 0.  1.
         -2   -1    0    0    0  501 -0.00000000000E+00 -0.00000000000E+00 -0.21461541394E+03  0.21461541395E+03  0.25500000000E-02 0. -1.
    5000001    1    1    2    0    0 -0.54719384340E+02  0.11017820331E+03  0.58706039305E+02  0.21402066853E+03  0.16500000000E+03 0.  0.
   -5000001    1    1    2    0    0  0.54719384340E+02 -0.11017820331E+03 -0.59638014382E+02  0.21427818430E+03  0.16500000000E+03 0.  0.
<mgrwt>
<rscale>  0 0.42829784E+03</rscale>
<asrwt>0</asrwt>
<pdfrwt beam="1">  1        2 0.30526205E-01 0.42829784E+03</pdfrwt>
<pdfrwt beam="2">  1       -2 0.30659345E-01 0.42829784E+03</pdfrwt>
<totfact> 0.17043919E+03</totfact>
</mgrwt>
</event>
<event>
 4    1  0.5312547E-005  0.4274211E+03  0.7818608E-02  0.1034678E+00
          2   -1    0    0  501    0  0.00000000000E+00  0.00000000000E+00  0.80648219968E+03  0.80648219968E+03  0.25500000000E-02 0.  1.
         -2   -1    0    0    0  501 -0.00000000000E+00 -0.00000000000E+00 -0.56631382780E+02  0.56631382837E+02  0.25500000000E-02 0. -1.
    5000001    1    1    2    0    0  0.89220846196E+02 -0.10185380384E+03  0.35349310914E+03  0.41293696246E+03  0.16500000000E+03 0.  0.
   -5000001    1    1    2    0    0 -0.89220846196E+02  0.10185380384E+03  0.39635770776E+03  0.45017662006E+03  0.16500000000E+03 0.  0.
<mgrwt>
<rscale>  0 0.42742111E+03</rscale>
<asrwt>0</asrwt>
<pdfrwt beam="1">  1        2 0.11521174E+00 0.42742111E+03</pdfrwt>
<pdfrwt beam="2">  1       -2 0.80901974E-02 0.42742111E+03</pdfrwt>
<totfact> 0.36075282E+03</totfact>
</mgrwt>
</event>
<event>
 4    1  0.5312547E-005  0.6472589E+03  0.7818608E-02  0.9811936E-01
          2   -1    0    0  501    0  0.00000000000E+00  0.00000000000E+00  0.50903351914E+03  0.50903351915E+03  0.25500000000E-02 0.  1.
         -2   -1    0    0    0  501 -0.00000000000E+00 -0.00000000000E+00 -0.20575464133E+03  0.20575464135E+03  0.25500000000E-02 0. -1.
    5000001    1    1    2    0    0  0.17705750514E+03  0.18051016969E+03  0.28031998370E+03  0.41199220229E+03  0.16500000000E+03 0.  0.
   -5000001    1    1    2    0    0 -0.17705750514E+03 -0.18051016969E+03  0.22958894106E+02  0.30279595820E+03  0.16500000000E+03 0.  0.
<mgrwt>
<rscale>  0 0.64725886E+03</rscale>
<asrwt>0</asrwt>
<pdfrwt beam="1">  1        2 0.72719074E-01 0.64725886E+03</pdfrwt>
<pdfrwt beam="2">  1       -2 0.29393520E-01 0.64725886E+03</pdfrwt>
<totfact> 0.70332122E+02</totfact>
</mgrwt>
</event>
<event>
 4    1  0.5312547E-005  0.3673178E+03  0.7818608E-02  0.1055723E+00
         -2   -1    0    0    0  501 -0.00000000000E+00  0.00000000000E+00  0.13559823262E+03  0.13559823264E+03  0.25500000000E-02 0. -1.
          2   -1    0    0  501    0  0.00000000000E+00 -0.00000000000E+00 -0.24875392735E+03  0.24875392736E+03  0.25500000000E-02 0.  1.
    5000001    1    1    2    0    0  0.24044838089E+02  0.63704748628E+02 -0.10181639833E+03  0.20549459410E+03  0.16500000000E+03 0.  0.
   -5000001    1    1    2    0    0 -0.24044838089E+02 -0.63704748628E+02 -0.11339296394E+02  0.17885756590E+03  0.16500000000E+03 0.  0.
<mgrwt>
<rscale>  0 0.36731781E+03</rscale>
<asrwt>0</asrwt>
<pdfrwt beam="1">  1        2 0.35536275E-01 0.36731781E+03</pdfrwt>
<pdfrwt beam="2">  1       -2 0.19371176E-01 0.36731781E+03</pdfrwt>
<totfact> 0.32477379E+03</totfact>
</mgrwt>
</event>
<event>
 4    1  0.5312547E-005  0.3702809E+03  0.7818608E-02  0.1054586E+00
         -2   -1    0    0    0  501 -0.00000000000E+00  0.00000000000E+00  0.77971088040E+02  0.77971088081E+02  0.25500000000E-02 0. -1.
          2   -1    0    0  501    0  0.00000000000E+00 -0.00000000000E+00 -0.43961137838E+03  0.43961137838E+03  0.25500000000E-02 0.  1.
    5000001    1    1    2    0    0  0.52162402358E+02 -0.45537716932E+02 -0.24723273366E+03  0.30519440440E+03  0.16500000000E+03 0.  0.
   -5000001    1    1    2    0    0 -0.52162402358E+02  0.45537716932E+02 -0.11440755667E+03  0.21238806206E+03  0.16500000000E+03 0.  0.
<mgrwt>
<rscale>  0 0.37028085E+03</rscale>
<asrwt>0</asrwt>
<pdfrwt beam="1">  1        2 0.62801624E-01 0.37028085E+03</pdfrwt>
<pdfrwt beam="2">  1       -2 0.11138727E-01 0.37028085E+03</pdfrwt>
<totfact> 0.43788801E+03</totfact>
</mgrwt>
</event>
<event>
 4    1  0.5312547E-005  0.4100258E+03  0.7818608E-02  0.1040362E+00
         -2   -1    0    0    0  501 -0.00000000000E+00  0.00000000000E+00  0.26787912196E+02  0.26787912318E+02  0.25500000000E-02 0. -1.
          2   -1    0    0  501    0  0.00000000000E+00 -0.00000000000E+00 -0.15690018661E+04  0.15690018661E+04  0.25500000000E-02 0.  1.
    5000001    1    1    2    0    0 -0.98271792887E+02  0.22199884516E+02 -0.50556742298E+03  0.54127035697E+03  0.16500000000E+03 0.  0.
   -5000001    1    1    2    0    0  0.98271792887E+02 -0.22199884516E+02 -0.10366465309E+04  0.10545194214E+04  0.16500000000E+03 0.  0.
<mgrwt>
<rscale>  0 0.41002578E+03</rscale>
<asrwt>0</asrwt>
<pdfrwt beam="1">  1        2 0.22414307E+00 0.41002578E+03</pdfrwt>
<pdfrwt beam="2">  1       -2 0.38268456E-02 0.41002578E+03</pdfrwt>
<totfact> 0.42407425E+03</totfact>
</mgrwt>
</event>
<event>
 4    1  0.5312547E-005  0.6136893E+03  0.7818608E-02  0.9877405E-01
         -2   -1    0    0    0  501 -0.00000000000E+00  0.00000000000E+00  0.10728003808E+03  0.10728003811E+03  0.25500000000E-02 0. -1.
          2   -1    0    0  501    0  0.00000000000E+00 -0.00000000000E+00 -0.87764363686E+03  0.87764363686E+03  0.25500000000E-02 0.  1.
    5000001    1    1    2    0    0 -0.12920402651E+03  0.21580391486E+03 -0.48232445659E+03  0.56844251386E+03  0.16500000000E+03 0.  0.
   -5000001    1    1    2    0    0  0.12920402651E+03 -0.21580391486E+03 -0.28803914219E+03  0.41648116112E+03  0.16500000000E+03 0.  0.
<mgrwt>
<rscale>  0 0.61368931E+03</rscale>
<asrwt>0</asrwt>
<pdfrwt beam="1">  1        2 0.12537766E+00 0.61368931E+03</pdfrwt>
<pdfrwt beam="2">  1       -2 0.15325720E-01 0.61368931E+03</pdfrwt>
<totfact> 0.11401476E+03</totfact>
</mgrwt>
</event>
<event>
 4    1  0.5312547E-005  0.7232088E+03  0.7818608E-02  0.9678345E-01
          2   -1    0    0  501    0  0.00000000000E+00  0.00000000000E+00  0.14662511767E+04  0.14662511767E+04  0.25500000000E-02 0.  1.
         -2   -1    0    0    0  501 -0.00000000000E+00 -0.00000000000E+00 -0.89178277645E+02  0.89178277681E+02  0.25500000000E-02 0. -1.
    5000001    1    1    2    0    0 -0.71477554532E+02  0.28980748468E+03  0.43013196985E+03  0.54894073493E+03  0.16500000000E+03 0.  0.
   -5000001    1    1    2    0    0  0.71477554532E+02 -0.28980748468E+03  0.94694092921E+03  0.10064887195E+04  0.16500000000E+03 0.  0.
<mgrwt>
<rscale>  0 0.72320883E+03</rscale>
<asrwt>0</asrwt>
<pdfrwt beam="1">  1        2 0.20946444E+00 0.72320883E+03</pdfrwt>
<pdfrwt beam="2">  1       -2 0.12739755E-01 0.72320883E+03</pdfrwt>
<totfact> 0.70941012E+02</totfact>
</mgrwt>
</event>
<event>
 4    1  0.5312547E-005  0.6083778E+03  0.7818608E-02  0.9888176E-01
          2   -1    0    0  501    0  0.00000000000E+00  0.00000000000E+00  0.98605326136E+02  0.98605326169E+02  0.25500000000E-02 0.  1.
         -2   -1    0    0    0  501 -0.00000000000E+00 -0.00000000000E+00 -0.93839629316E+03  0.93839629316E+03  0.25500000000E-02 0. -1.
    5000001    1    1    2    0    0 -0.25173506961E+03 -0.41111319168E+02 -0.44658585249E+03  0.54011536682E+03  0.16500000000E+03 0.  0.
   -5000001    1    1    2    0    0  0.25173506961E+03  0.41111319168E+02 -0.39320511453E+03  0.49688625251E+03  0.16500000000E+03 0.  0.
<mgrwt>
<rscale>  0 0.60837775E+03</rscale>
<asrwt>0</asrwt>
<pdfrwt beam="1">  1        2 0.14086476E-01 0.60837775E+03</pdfrwt>
<pdfrwt beam="2">  1       -2 0.13405661E+00 0.60837775E+03</pdfrwt>
<totfact> 0.17640289E+02</totfact>
</mgrwt>
</event>
<event>
 4    1  0.5312547E-005  0.5914386E+03  0.7818608E-02  0.9923329E-01
          2   -1    0    0  501    0  0.00000000000E+00  0.00000000000E+00  0.11446869641E+04  0.11446869641E+04  0.25500000000E-02 0.  1.
         -2   -1    0    0    0  501 -0.00000000000E+00 -0.00000000000E+00 -0.76396361361E+02  0.76396361403E+02  0.25500000000E-02 0. -1.
    5000001    1    1    2    0    0  0.16026917869E+03  0.17927399146E+03  0.63527997526E+03  0.69902147365E+03  0.16500000000E+03 0.  0.
   -5000001    1    1    2    0    0 -0.16026917869E+03 -0.17927399146E+03  0.43301062744E+03  0.52206185182E+03  0.16500000000E+03 0.  0.
<mgrwt>
<rscale>  0 0.59143865E+03</rscale>
<asrwt>0</asrwt>
<pdfrwt beam="1">  1        2 0.16352670E+00 0.59143865E+03</pdfrwt>
<pdfrwt beam="2">  1       -2 0.10913767E-01 0.59143865E+03</pdfrwt>
<totfact> 0.13780646E+03</totfact>
</mgrwt>
</event>
<event>
 4    1  0.5312547E-005  0.5834737E+03  0.7818608E-02  0.9940299E-01
          2   -1    0    0  501    0  0.00000000000E+00  0.00000000000E+00  0.10429401100E+04  0.10429401100E+04  0.25500000000E-02 0. -1.
         -2   -1    0    0    0  501 -0.00000000000E+00 -0.00000000000E+00 -0.81606212352E+02  0.81606212392E+02  0.25500000000E-02 0.  1.
    5000001    1    1    2    0    0  0.65709840083E+02  0.23118155124E+03  0.45931796192E+03  0.54402268597E+03  0.16500000000E+03 0.  0.
   -5000001    1    1    2    0    0 -0.65709840083E+02 -0.23118155124E+03  0.50201593574E+03  0.58052363643E+03  0.16500000000E+03 0.  0.
<mgrwt>
<rscale>  0 0.58347371E+03</rscale>
<asrwt>0</asrwt>
<pdfrwt beam="1">  1        2 0.14899145E+00 0.58347371E+03</pdfrwt>
<pdfrwt beam="2">  1       -2 0.11658030E-01 0.58347371E+03</pdfrwt>
<totfact> 0.14183620E+03</totfact>
</mgrwt>
</event>
<event>
 4    1  0.5312547E-005  0.4056548E+03  0.7818608E-02  0.1041839E+00
          2   -1    0    0  501    0  0.00000000000E+00  0.00000000000E+00  0.11772741532E+04  0.11772741532E+04  0.25500000000E-02 0.  1.
         -2   -1    0    0    0  501 -0.00000000000E+00 -0.00000000000E+00 -0.34944243585E+02  0.34944243678E+02  0.25500000000E-02 0. -1.
    5000001    1    1    2    0    0 -0.11150031487E+03  0.38048842190E+02  0.55376077260E+03  0.58970842615E+03  0.16500000000E+03 0.  0.
   -5000001    1    1    2    0    0  0.11150031487E+03 -0.38048842190E+02  0.58856913702E+03  0.62250997073E+03  0.16500000000E+03 0.  0.
<mgrwt>
<rscale>  0 0.40565480E+03</rscale>
<asrwt>0</asrwt>
<pdfrwt beam="1">  1        2 0.16818200E+00 0.40565480E+03</pdfrwt>
<pdfrwt beam="2">  1       -2 0.49920354E-02 0.40565480E+03</pdfrwt>
<totfact> 0.45502608E+03</totfact>
</mgrwt>
</event>
<event>
 4    1  0.5312547E-005  0.4294625E+03  0.7818608E-02  0.1034030E+00
          2   -1    0    0  501    0  0.00000000000E+00  0.00000000000E+00  0.58382456997E+03  0.58382456997E+03  0.25500000000E-02 0.  1.
         -2   -1    0    0    0  501 -0.00000000000E+00 -0.00000000000E+00 -0.78978349283E+02  0.78978349324E+02  0.25500000000E-02 0. -1.
    5000001    1    1    2    0    0  0.12471665380E+03 -0.11391829099E+02  0.33973371393E+03  0.39790452861E+03  0.16500000000E+03 0.  0.
   -5000001    1    1    2    0    0 -0.12471665380E+03  0.11391829099E+02  0.16511250675E+03  0.26489839069E+03  0.16500000000E+03 0.  0.
<mgrwt>
<rscale>  0 0.42946246E+03</rscale>
<asrwt>0</asrwt>
<pdfrwt beam="1">  1        2 0.83403511E-01 0.42946246E+03</pdfrwt>
<pdfrwt beam="2">  1       -2 0.11282621E-01 0.42946246E+03</pdfrwt>
<totfact> 0.31245459E+03</totfact>
</mgrwt>
</event>
<event>
 4    1  0.5312547E-005  0.4212865E+03  0.7818608E-02  0.1036648E+00
          2   -1    0    0  501    0  0.00000000000E+00  0.00000000000E+00  0.11905341671E+04  0.11905341671E+04  0.25500000000E-02 0.  1.
         -2   -1    0    0    0  501 -0.00000000000E+00 -0.00000000000E+00 -0.37269475850E+02  0.37269475937E+02  0.25500000000E-02 0. -1.
    5000001    1    1    2    0    0 -0.97744443017E+02  0.86537694136E+02  0.54707785299E+03  0.58614155788E+03  0.16500000000E+03 0.  0.
   -5000001    1    1    2    0    0  0.97744443017E+02 -0.86537694136E+02  0.60618683826E+03  0.64166208516E+03  0.16500000000E+03 0.  0.
<mgrwt>
<rscale>  0 0.42128653E+03</rscale>
<asrwt>0</asrwt>
<pdfrwt beam="1">  1        2 0.17007631E+00 0.42128653E+03</pdfrwt>
<pdfrwt beam="2">  1       -2 0.53242109E-02 0.42128653E+03</pdfrwt>
<totfact> 0.40525406E+03</totfact>
</mgrwt>
</event>
<event>
 4    1  0.5312547E-005  0.4861634E+03  0.7818608E-02  0.1017455E+00
          2   -1    0    0  501    0  0.00000000000E+00  0.00000000000E+00  0.47573122906E+02  0.47573122974E+02  0.25500000000E-02 0.  1.
         -2   -1    0    0    0  501 -0.00000000000E+00 -0.00000000000E+00 -0.12420610226E+04  0.12420610226E+04  0.25500000000E-02 0. -1.
    5000001    1    1    2    0    0 -0.16847467188E+03  0.10955082219E+02 -0.75100750303E+03  0.78723630410E+03  0.16500000000E+03 0.  0.
   -5000001    1    1    2    0    0  0.16847467188E+03 -0.10955082219E+02 -0.44348039665E+03  0.50239784146E+03  0.16500000000E+03 0.  0.
<mgrwt>
<rscale>  0 0.48616344E+03</rscale>
<asrwt>0</asrwt>
<pdfrwt beam="1">  1        2 0.67961612E-02 0.48616344E+03</pdfrwt>
<pdfrwt beam="2">  1       -2 0.17743727E+00 0.48616344E+03</pdfrwt>
<totfact> 0.21196276E+02</totfact>
</mgrwt>
</event>
<event>
 4    1  0.5312547E-005  0.4850747E+03  0.7818608E-02  0.1017750E+00
          2   -1    0    0  501    0  0.00000000000E+00  0.00000000000E+00  0.94463026312E+03  0.94463026312E+03  0.25500000000E-02 0.  1.
         -2   -1    0    0    0  501 -0.00000000000E+00 -0.00000000000E+00 -0.62272360603E+02  0.62272360656E+02  0.25500000000E-02 0. -1.
    5000001    1    1    2    0    0 -0.13405401319E+02  0.17593702809E+03  0.39637822578E+03  0.46419202978E+03  0.16500000000E+03 0.  0.
   -5000001    1    1    2    0    0  0.13405401319E+02 -0.17593702809E+03  0.48597967673E+03  0.54271059399E+03  0.16500000000E+03 0.  0.
<mgrwt>
<rscale>  0 0.48507466E+03</rscale>
<asrwt>0</asrwt>
<pdfrwt beam="1">  1        2 0.13494718E+00 0.48507466E+03</pdfrwt>
<pdfrwt beam="2">  1       -2 0.88960517E-02 0.48507466E+03</pdfrwt>
<totfact> 0.25245105E+03</totfact>
</mgrwt>
</event>
<event>
 4    1  0.5312547E-005  0.1131805E+04  0.7818608E-02  0.9174735E-01
         -2   -1    0    0    0  501 -0.00000000000E+00  0.00000000000E+00  0.42078651353E+03  0.42078651354E+03  0.25500000000E-02 0. -1.
          2   -1    0    0  501    0  0.00000000000E+00 -0.00000000000E+00 -0.76106454230E+03  0.76106454230E+03  0.25500000000E-02 0.  1.
    5000001    1    1    2    0    0 -0.32791662111E+03  0.40948335192E+03 -0.30765194105E+02  0.55079707976E+03  0.16500000000E+03 0.  0.
   -5000001    1    1    2    0    0  0.32791662111E+03 -0.40948335192E+03 -0.30951283467E+03  0.63105397608E+03  0.16500000000E+03 0.  0.
<mgrwt>
<rscale>  0 0.11318051E+04</rscale>
<asrwt>0</asrwt>
<pdfrwt beam="1">  1        2 0.10872351E+00 0.11318051E+04</pdfrwt>
<pdfrwt beam="2">  1       -2 0.60112360E-01 0.11318051E+04</pdfrwt>
<totfact> 0.10366467E+02</totfact>
</mgrwt>
</event>
<event>
 4    1  0.5312547E-005  0.6999432E+03  0.7818608E-02  0.9717329E-01
         -2   -1    0    0    0  501 -0.00000000000E+00  0.00000000000E+00  0.43233977350E+03  0.43233977351E+03  0.25500000000E-02 0. -1.
          2   -1    0    0  501    0  0.00000000000E+00 -0.00000000000E+00 -0.28329596744E+03  0.28329596745E+03  0.25500000000E-02 0.  1.
    5000001    1    1    2    0    0 -0.27023381994E+03  0.79425145459E+02  0.20352698300E+03  0.38468546110E+03  0.16500000000E+03 0.  0.
   -5000001    1    1    2    0    0  0.27023381994E+03 -0.79425145459E+02 -0.54483176931E+02  0.33095027986E+03  0.16500000000E+03 0.  0.
<mgrwt>
<rscale>  0 0.69994318E+03</rscale>
<asrwt>0</asrwt>
<pdfrwt beam="1">  1        2 0.40470853E-01 0.69994318E+03</pdfrwt>
<pdfrwt beam="2">  1       -2 0.61762824E-01 0.69994318E+03</pdfrwt>
<totfact> 0.31239094E+02</totfact>
</mgrwt>
</event>
<event>
 4    1  0.5312547E-005  0.4014796E+03  0.7818608E-02  0.1043269E+00
         -2   -1    0    0    0  501 -0.00000000000E+00  0.00000000000E+00  0.31753454509E+02  0.31753454611E+02  0.25500000000E-02 0. -1.
          2   -1    0    0  501    0  0.00000000000E+00 -0.00000000000E+00 -0.12690416826E+04  0.12690416826E+04  0.25500000000E-02 0.  1.
    5000001    1    1    2    0    0  0.92753395368E+02  0.66277606482E+02 -0.59048329578E+03  0.62361160674E+03  0.16500000000E+03 0.  0.
   -5000001    1    1    2    0    0 -0.92753395368E+02 -0.66277606482E+02 -0.64680493230E+03  0.67718353046E+03  0.16500000000E+03 0.  0.
<mgrwt>
<rscale>  0 0.40147955E+03</rscale>
<asrwt>0</asrwt>
<pdfrwt beam="1">  1        2 0.18129164E+00 0.40147955E+03</pdfrwt>
<pdfrwt beam="2">  1       -2 0.45362086E-02 0.40147955E+03</pdfrwt>
<totfact> 0.46931151E+03</totfact>
</mgrwt>
</event>
<event>
 4    1  0.5312547E-005  0.4219664E+03  0.7818608E-02  0.1036428E+00
          2   -1    0    0  501    0  0.00000000000E+00  0.00000000000E+00  0.16387354277E+04  0.16387354277E+04  0.25500000000E-02 0.  1.
         -2   -1    0    0    0  501 -0.00000000000E+00 -0.00000000000E+00 -0.27163576898E+02  0.27163577018E+02  0.25500000000E-02 0. -1.
    5000001    1    1    2    0    0  0.12106589130E+03 -0.32848442248E+02  0.65020766553E+03  0.68244485382E+03  0.16500000000E+03 0.  0.
   -5000001    1    1    2    0    0 -0.12106589130E+03  0.32848442248E+02  0.96136418525E+03  0.98345415088E+03  0.16500000000E+03 0.  0.
<mgrwt>
<rscale>  0 0.42196642E+03</rscale>
<asrwt>0</asrwt>
<pdfrwt beam="1">  1        2 0.23410509E+00 0.42196642E+03</pdfrwt>
<pdfrwt beam="2">  1       -2 0.38805106E-02 0.42196642E+03</pdfrwt>
<totfact> 0.38274853E+03</totfact>
</mgrwt>
</event>
<event>
 4    1  0.5312547E-005  0.5875090E+03  0.7818608E-02  0.9931665E-01
          2   -1    0    0  501    0  0.00000000000E+00  0.00000000000E+00  0.32551014832E+03  0.32551014833E+03  0.25500000000E-02 0.  1.
         -2   -1    0    0    0  501 -0.00000000000E+00 -0.00000000000E+00 -0.26509682111E+03  0.26509682112E+03  0.25500000000E-02 0. -1.
    5000001    1    1    2    0    0 -0.91696677037E+02  0.44742319957E+02 -0.19153877779E+03  0.27262109085E+03  0.16500000000E+03 0.  0.
   -5000001    1    1    2    0    0  0.91696677037E+02 -0.44742319957E+02  0.25195210500E+03  0.31798587860E+03  0.16500000000E+03 0.  0.
<mgrwt>
<rscale>  0 0.58750900E+03</rscale>
<asrwt>0</asrwt>
<pdfrwt beam="1">  1        2 0.46501449E-01 0.58750900E+03</pdfrwt>
<pdfrwt beam="2">  1       -2 0.37870975E-01 0.58750900E+03</pdfrwt>
<totfact> 0.72019600E+02</totfact>
</mgrwt>
</event>
<event>
 4    1  0.5312547E-005  0.3737915E+03  0.7818608E-02  0.1053253E+00
          2   -1    0    0  501    0  0.00000000000E+00  0.00000000000E+00  0.49202405645E+03  0.49202405645E+03  0.25500000000E-02 0.  1.
         -2   -1    0    0    0  501 -0.00000000000E+00 -0.00000000000E+00 -0.70992519657E+02  0.70992519703E+02  0.25500000000E-02 0. -1.
    5000001    1    1    2    0    0  0.22466783271E+02  0.84570113038E+02  0.22096939950E+03  0.28932565715E+03  0.16500000000E+03 0.  0.
   -5000001    1    1    2    0    0 -0.22466783271E+02 -0.84570113038E+02  0.20006213729E+03  0.27369091900E+03  0.16500000000E+03 0.  0.
<mgrwt>
<rscale>  0 0.37379153E+03</rscale>
<asrwt>0</asrwt>
<pdfrwt beam="1">  1        2 0.70289152E-01 0.37379153E+03</pdfrwt>
<pdfrwt beam="2">  1       -2 0.10141788E-01 0.37379153E+03</pdfrwt>
<totfact> 0.44956217E+03</totfact>
</mgrwt>
</event>
<event>
 4    1  0.5312547E-005  0.5491868E+03  0.7818608E-02  0.1001682E+00
         -2   -1    0    0    0  501 -0.00000000000E+00  0.00000000000E+00  0.51115501884E+02  0.51115501948E+02  0.25500000000E-02 0. -1.
          2   -1    0    0  501    0  0.00000000000E+00 -0.00000000000E+00 -0.14751209005E+04  0.14751209005E+04  0.25500000000E-02 0.  1.
    5000001    1    1    2    0    0  0.16994419694E+03 -0.13041355061E+03 -0.84492954737E+03  0.88714128766E+03  0.16500000000E+03 0.  0.
   -5000001    1    1    2    0    0 -0.16994419694E+03  0.13041355061E+03 -0.57907585129E+03  0.63909511483E+03  0.16500000000E+03 0.  0.
<mgrwt>
<rscale>  0 0.54918684E+03</rscale>
<asrwt>0</asrwt>
<pdfrwt beam="1">  1        2 0.21073153E+00 0.54918684E+03</pdfrwt>
<pdfrwt beam="2">  1       -2 0.73022155E-02 0.54918684E+03</pdfrwt>
<totfact> 0.17396197E+03</totfact>
</mgrwt>
</event>
<event>
 4    1  0.5312547E-005  0.5692120E+03  0.7818608E-02  0.9971424E-01
          2   -1    0    0  501    0  0.00000000000E+00  0.00000000000E+00  0.39289658936E+04  0.39289658936E+04  0.25500000000E-02 0.  1.
         -2   -1    0    0    0  501 -0.00000000000E+00 -0.00000000000E+00 -0.20616255118E+02  0.20616255275E+02  0.25500000000E-02 0. -1.
    5000001    1    1    2    0    0 -0.18265588357E+03  0.14105840569E+03  0.21116260762E+04  0.21305985852E+04  0.16500000000E+03 0.  0.
   -5000001    1    1    2    0    0  0.18265588357E+03 -0.14105840569E+03  0.17967235623E+04  0.18189835637E+04  0.16500000000E+03 0.  0.
<mgrwt>
<rscale>  0 0.56921196E+03</rscale>
<asrwt>0</asrwt>
<pdfrwt beam="1">  1        2 0.56128098E+00 0.56921196E+03</pdfrwt>
<pdfrwt beam="2">  1       -2 0.29451786E-02 0.56921196E+03</pdfrwt>
<totfact> 0.32950377E+02</totfact>
</mgrwt>
</event>
<event>
 4    1  0.5312547E-005  0.3651600E+03  0.7818608E-02  0.1056559E+00
          2   -1    0    0  501    0  0.00000000000E+00  0.00000000000E+00  0.21667187317E+03  0.21667187319E+03  0.25500000000E-02 0. -1.
         -2   -1    0    0    0  501 -0.00000000000E+00 -0.00000000000E+00 -0.15385227156E+03  0.15385227158E+03  0.25500000000E-02 0.  1.
    5000001    1    1    2    0    0 -0.76908631299E+02 -0.10734699627E+02  0.22317787681E+02  0.18372058946E+03  0.16500000000E+03 0.  0.
   -5000001    1    1    2    0    0  0.76908631299E+02  0.10734699627E+02  0.40501813933E+02  0.18680355531E+03  0.16500000000E+03 0.  0.
<mgrwt>
<rscale>  0 0.36516002E+03</rscale>
<asrwt>0</asrwt>
<pdfrwt beam="1">  1        2 0.30953125E-01 0.36516002E+03</pdfrwt>
<pdfrwt beam="2">  1       -2 0.21978896E-01 0.36516002E+03</pdfrwt>
<totfact> 0.30382893E+03</totfact>
</mgrwt>
</event>
<event>
 4    1  0.5312547E-005  0.7833205E+03  0.7818608E-02  0.9584479E-01
          2   -1    0    0  501    0  0.00000000000E+00  0.00000000000E+00  0.36229369765E+04  0.36229369765E+04  0.25500000000E-02 0.  1.
         -2   -1    0    0    0  501 -0.00000000000E+00 -0.00000000000E+00 -0.42340715511E+02  0.42340715587E+02  0.25500000000E-02 0. -1.
    5000001    1    1    2    0    0  0.19644805526E+03  0.24812001586E+02  0.41042128592E+03  0.48464224514E+03  0.16500000000E+03 0.  0.
   -5000001    1    1    2    0    0 -0.19644805526E+03 -0.24812001586E+02  0.31701749750E+04  0.31806354469E+04  0.16500000000E+03 0.  0.
<mgrwt>
<rscale>  0 0.78332048E+03</rscale>
<asrwt>0</asrwt>
<pdfrwt beam="1">  1        2 0.51756221E+00 0.78332048E+03</pdfrwt>
<pdfrwt beam="2">  1       -2 0.60486761E-02 0.78332048E+03</pdfrwt>
<totfact> 0.16481304E+02</totfact>
</mgrwt>
</event>
<event>
 4    1  0.5312547E-005  0.3616831E+03  0.7818608E-02  0.1057919E+00
         -2   -1    0    0    0  501 -0.00000000000E+00  0.00000000000E+00  0.12010979380E+03  0.12010979383E+03  0.25500000000E-02 0. -1.
          2   -1    0    0  501    0  0.00000000000E+00 -0.00000000000E+00 -0.27228139512E+03  0.27228139513E+03  0.25500000000E-02 0.  1.
    5000001    1    1    2    0    0  0.36084715572E+02  0.52180207605E+02 -0.11745152382E+03  0.21223746421E+03  0.16500000000E+03 0.  0.
   -5000001    1    1    2    0    0 -0.36084715572E+02 -0.52180207605E+02 -0.34720077493E+02  0.18015372476E+03  0.16500000000E+03 0.  0.
<mgrwt>
<rscale>  0 0.36168308E+03</rscale>
<asrwt>0</asrwt>
<pdfrwt beam="1">  1        2 0.38897342E-01 0.36168308E+03</pdfrwt>
<pdfrwt beam="2">  1       -2 0.17158542E-01 0.36168308E+03</pdfrwt>
<totfact> 0.36155573E+03</totfact>
</mgrwt>
</event>
<event>
 4    1  0.5312547E-005  0.5734444E+03  0.7818608E-02  0.9962085E-01
         -2   -1    0    0    0  501 -0.00000000000E+00  0.00000000000E+00  0.12496136105E+03  0.12496136107E+03  0.25500000000E-02 0. -1.
          2   -1    0    0  501    0  0.00000000000E+00 -0.00000000000E+00 -0.65788032302E+03  0.65788032302E+03  0.25500000000E-02 0.  1.
    5000001    1    1    2    0    0 -0.24433253141E+02  0.22130156625E+03 -0.36690066130E+03  0.45979610954E+03  0.16500000000E+03 0.  0.
   -5000001    1    1    2    0    0  0.24433253141E+02 -0.22130156625E+03 -0.16601830067E+03  0.32304557456E+03  0.16500000000E+03 0.  0.
<mgrwt>
<rscale>  0 0.57344440E+03</rscale>
<asrwt>0</asrwt>
<pdfrwt beam="1">  1        2 0.93982901E-01 0.57344440E+03</pdfrwt>
<pdfrwt beam="2">  1       -2 0.17851623E-01 0.57344440E+03</pdfrwt>
<totfact> 0.12644559E+03</totfact>
</mgrwt>
</event>
<event>
 4    1  0.5312547E-005  0.5853588E+03  0.7818608E-02  0.9936256E-01
          2   -1    0    0  501    0  0.00000000000E+00  0.00000000000E+00  0.14681132279E+04  0.14681132279E+04  0.25500000000E-02 0.  1.
         -2   -1    0    0    0  501 -0.00000000000E+00 -0.00000000000E+00 -0.58347832320E+02  0.58347832376E+02  0.25500000000E-02 0. -1.
    5000001    1    1    2    0    0 -0.10619618404E+03 -0.20642070031E+03  0.88076649553E+03  0.92566827464E+03  0.16500000000E+03 0.  0.
   -5000001    1    1    2    0    0  0.10619618404E+03  0.20642070031E+03  0.52899890000E+03  0.60079278560E+03  0.16500000000E+03 0.  0.
<mgrwt>
<rscale>  0 0.58535878E+03</rscale>
<asrwt>0</asrwt>
<pdfrwt beam="1">  1        2 0.20973043E+00 0.58535878E+03</pdfrwt>
<pdfrwt beam="2">  1       -2 0.83354060E-02 0.58535878E+03</pdfrwt>
<totfact> 0.14200230E+03</totfact>
</mgrwt>
</event>
<event>
 4    1  0.5312547E-005  0.7071123E+03  0.7818608E-02  0.9705146E-01
         -2   -1    0    0    0  501 -0.00000000000E+00  0.00000000000E+00  0.19553262835E+03  0.19553262837E+03  0.25500000000E-02 0. -1.
          2   -1    0    0  501    0  0.00000000000E+00 -0.00000000000E+00 -0.63928947983E+03  0.63928947983E+03  0.25500000000E-02 0.  1.
    5000001    1    1    2    0    0  0.17046330906E+03  0.26181080585E+03 -0.23746577560E+03  0.42569664361E+03  0.16500000000E+03 0.  0.
   -5000001    1    1    2    0    0 -0.17046330906E+03 -0.26181080585E+03 -0.20629107588E+03  0.40912546460E+03  0.16500000000E+03 0.  0.
<mgrwt>
<rscale>  0 0.70711230E+03</rscale>
<asrwt>0</asrwt>
<pdfrwt beam="1">  1        2 0.91327067E-01 0.70711230E+03</pdfrwt>
<pdfrwt beam="2">  1       -2 0.27933233E-01 0.70711230E+03</pdfrwt>
<totfact> 0.59085042E+02</totfact>
</mgrwt>
</event>
<event>
 4    1  0.5312547E-005  0.7503670E+03  0.7818608E-02  0.9634775E-01
         -2   -1    0    0    0  501 -0.00000000000E+00  0.00000000000E+00  0.15872508000E+04  0.15872508000E+04  0.25500000000E-02 0. -1.
          2   -1    0    0  501    0  0.00000000000E+00 -0.00000000000E+00 -0.88683311489E+02  0.88683311526E+02  0.25500000000E-02 0.  1.
    5000001    1    1    2    0    0  0.26378393697E+03  0.17040157603E+03  0.47647832359E+03  0.59403304232E+03  0.16500000000E+03 0.  0.
   -5000001    1    1    2    0    0 -0.26378393697E+03 -0.17040157603E+03  0.10220891650E+04  0.10819010692E+04  0.16500000000E+03 0.  0.
<mgrwt>
<rscale>  0 0.75036700E+03</rscale>
<asrwt>0</asrwt>
<pdfrwt beam="1">  1        2 0.12669044E-01 0.75036700E+03</pdfrwt>
<pdfrwt beam="2">  1       -2 0.22675012E+00 0.75036700E+03</pdfrwt>
<totfact> 0.45236815E+01</totfact>
</mgrwt>
</event>
<event>
 4    1  0.5312547E-005  0.4725016E+03  0.7818608E-02  0.1021217E+00
         -2   -1    0    0    0  501 -0.00000000000E+00  0.00000000000E+00  0.56003728869E+02  0.56003728927E+02  0.25500000000E-02 0. -1.
          2   -1    0    0  501    0  0.00000000000E+00 -0.00000000000E+00 -0.99662013217E+03  0.99662013217E+03  0.25500000000E-02 0.  1.
    5000001    1    1    2    0    0  0.12122527596E+03  0.11379587328E+03 -0.53876904511E+03  0.58748800182E+03  0.16500000000E+03 0.  0.
   -5000001    1    1    2    0    0 -0.12122527596E+03 -0.11379587328E+03 -0.40184735819E+03  0.46513585928E+03  0.16500000000E+03 0.  0.
<mgrwt>
<rscale>  0 0.47250161E+03</rscale>
<asrwt>0</asrwt>
<pdfrwt beam="1">  1        2 0.14237429E+00 0.47250161E+03</pdfrwt>
<pdfrwt beam="2">  1       -2 0.80005333E-02 0.47250161E+03</pdfrwt>
<totfact> 0.27769033E+03</totfact>
</mgrwt>
</event>
<event>
 4    1  0.5312547E-005  0.4870583E+03  0.7818608E-02  0.1017213E+00
          2   -1    0    0  501    0  0.00000000000E+00  0.00000000000E+00  0.18088665961E+04  0.18088665961E+04  0.25500000000E-02 0.  1.
         -2   -1    0    0    0  501 -0.00000000000E+00 -0.00000000000E+00 -0.32786521871E+02  0.32786521971E+02  0.25500000000E-02 0. -1.
    5000001    1    1    2    0    0  0.41135759490E+01  0.99371197682E+02  0.14512942483E+04  0.14640258029E+04  0.16500000000E+03 0.  0.
   -5000001    1    1    2    0    0 -0.41135759490E+01 -0.99371197682E+02  0.32478582596E+03  0.37762731519E+03  0.16500000000E+03 0.  0.
<mgrwt>
<rscale>  0 0.48705829E+03</rscale>
<asrwt>0</asrwt>
<pdfrwt beam="1">  1        2 0.25840952E+00 0.48705829E+03</pdfrwt>
<pdfrwt beam="2">  1       -2 0.46837888E-02 0.48705829E+03</pdfrwt>
<totfact> 0.23543128E+03</totfact>
</mgrwt>
</event>
<event>
 4    1  0.5312547E-005  0.4634238E+03  0.7818608E-02  0.1023793E+00
          2   -1    0    0  501    0  0.00000000000E+00  0.00000000000E+00  0.12303617274E+04  0.12303617274E+04  0.25500000000E-02 0.  1.
         -2   -1    0    0    0  501 -0.00000000000E+00 -0.00000000000E+00 -0.43637893333E+02  0.43637893407E+02  0.25500000000E-02 0. -1.
    5000001    1    1    2    0    0 -0.12697657588E+03  0.37431565388E+02  0.85331167762E+03  0.87914162230E+03  0.16500000000E+03 0.  0.
   -5000001    1    1    2    0    0  0.12697657588E+03 -0.37431565388E+02  0.33341215641E+03  0.39485799846E+03  0.16500000000E+03 0.  0.
<mgrwt>
<rscale>  0 0.46342375E+03</rscale>
<asrwt>0</asrwt>
<pdfrwt beam="1">  1        2 0.17576593E+00 0.46342375E+03</pdfrwt>
<pdfrwt beam="2">  1       -2 0.62339860E-02 0.46342375E+03</pdfrwt>
<totfact> 0.30172687E+03</totfact>
</mgrwt>
</event>
<event>
 4    1  0.5312547E-005  0.5638859E+03  0.7818608E-02  0.9983300E-01
          2   -1    0    0  501    0  0.00000000000E+00  0.00000000000E+00  0.89276531890E+03  0.89276531890E+03  0.25500000000E-02 0.  1.
         -2   -1    0    0    0  501 -0.00000000000E+00 -0.00000000000E+00 -0.89039995281E+02  0.89039995318E+02  0.25500000000E-02 0. -1.
    5000001    1    1    2    0    0 -0.53685476481E+02 -0.12871798510E+03  0.86449776553E+02  0.23269940683E+03  0.16500000000E+03 0.  0.
   -5000001    1    1    2    0    0  0.53685476481E+02  0.12871798510E+03  0.71727554707E+03  0.74910590739E+03  0.16500000000E+03 0.  0.
<mgrwt>
<rscale>  0 0.56388587E+03</rscale>
<asrwt>0</asrwt>
<pdfrwt beam="1">  1        2 0.12753791E+00 0.56388587E+03</pdfrwt>
<pdfrwt beam="2">  1       -2 0.12719999E-01 0.56388587E+03</pdfrwt>
<totfact> 0.15228268E+03</totfact>
</mgrwt>
</event>
<event>
 4    1  0.5312547E-005  0.4033335E+03  0.7818608E-02  0.1042631E+00
         -2   -1    0    0    0  501 -0.00000000000E+00  0.00000000000E+00  0.34912739418E+02  0.34912739511E+02  0.25500000000E-02 0. -1.
          2   -1    0    0  501    0  0.00000000000E+00 -0.00000000000E+00 -0.11648892286E+04  0.11648892286E+04  0.25500000000E-02 0.  1.
    5000001    1    1    2    0    0 -0.60607057601E+02 -0.15971726369E+01 -0.85899943094E+03  0.87680145344E+03  0.16500000000E+03 0.  0.
   -5000001    1    1    2    0    0  0.60607057601E+02  0.15971726369E+01 -0.27097705826E+03  0.32300051470E+03  0.16500000000E+03 0.  0.
<mgrwt>
<rscale>  0 0.40333348E+03</rscale>
<asrwt>0</asrwt>
<pdfrwt beam="1">  1        2 0.16641272E+00 0.40333348E+03</pdfrwt>
<pdfrwt beam="2">  1       -2 0.49875349E-02 0.40333348E+03</pdfrwt>
<totfact> 0.46293131E+03</totfact>
</mgrwt>
</event>
<event>
 4    1  0.5312547E-005  0.8552068E+03  0.7818608E-02  0.9483375E-01
          2   -1    0    0  501    0  0.00000000000E+00  0.00000000000E+00  0.57139245112E+03  0.57139245113E+03  0.25500000000E-02 0.  1.
         -2   -1    0    0    0  501 -0.00000000000E+00 -0.00000000000E+00 -0.31999841036E+03  0.31999841037E+03  0.25500000000E-02 0. -1.
    5000001    1    1    2    0    0 -0.12102605297E+03 -0.31982838937E+03  0.33069635311E+03  0.50351026017E+03  0.16500000000E+03 0.  0.
   -5000001    1    1    2    0    0  0.12102605297E+03  0.31982838937E+03 -0.79302312350E+02  0.38788060133E+03  0.16500000000E+03 0.  0.
<mgrwt>
<rscale>  0 0.85520682E+03</rscale>
<asrwt>0</asrwt>
<pdfrwt beam="1">  1        2 0.81627493E-01 0.85520682E+03</pdfrwt>
<pdfrwt beam="2">  1       -2 0.45714059E-01 0.85520682E+03</pdfrwt>
<totfact> 0.26190779E+02</totfact>
</mgrwt>
</event>
<event>
 4    1  0.5312547E-005  0.4625898E+03  0.7818608E-02  0.1024033E+00
         -2   -1    0    0    0  501 -0.00000000000E+00  0.00000000000E+00  0.21189563694E+03  0.21189563696E+03  0.25500000000E-02 0. -1.
          2   -1    0    0  501    0  0.00000000000E+00 -0.00000000000E+00 -0.25247020841E+03  0.25247020842E+03  0.25500000000E-02 0.  1.
    5000001    1    1    2    0    0 -0.84471238625E+02  0.13821998783E+03 -0.14592726015E+02  0.23168535311E+03  0.16500000000E+03 0.  0.
   -5000001    1    1    2    0    0  0.84471238625E+02 -0.13821998783E+03 -0.25981845453E+02  0.23268049227E+03  0.16500000000E+03 0.  0.
<mgrwt>
<rscale>  0 0.46258982E+03</rscale>
<asrwt>0</asrwt>
<pdfrwt beam="1">  1        2 0.36067172E-01 0.46258982E+03</pdfrwt>
<pdfrwt beam="2">  1       -2 0.30270805E-01 0.46258982E+03</pdfrwt>
<totfact> 0.14516661E+03</totfact>
</mgrwt>
</event>
<event>
 4    1  0.5312547E-005  0.8317105E+03  0.7818608E-02  0.9515219E-01
         -2   -1    0    0    0  501 -0.00000000000E+00  0.00000000000E+00  0.16983482548E+03  0.16983482550E+03  0.25500000000E-02 0. -1.
          2   -1    0    0  501    0  0.00000000000E+00 -0.00000000000E+00 -0.10182575530E+04  0.10182575530E+04  0.25500000000E-02 0.  1.
    5000001    1    1    2    0    0 -0.24915996666E+03 -0.27364363387E+03 -0.55782749027E+03  0.68946213547E+03  0.16500000000E+03 0.  0.
   -5000001    1    1    2    0    0  0.24915996666E+03  0.27364363387E+03 -0.29059523720E+03  0.49863024299E+03  0.16500000000E+03 0.  0.
<mgrwt>
<rscale>  0 0.83171051E+03</rscale>
<asrwt>0</asrwt>
<pdfrwt beam="1">  1        2 0.14546536E+00 0.83171051E+03</pdfrwt>
<pdfrwt beam="2">  1       -2 0.24262119E-01 0.83171051E+03</pdfrwt>
<totfact> 0.41482367E+02</totfact>
</mgrwt>
</event>
<event>
 4    1  0.5312547E-005  0.6800840E+03  0.7818608E-02  0.9751911E-01
          2   -1    0    0  501    0  0.00000000000E+00  0.00000000000E+00  0.14841202867E+03  0.14841202869E+03  0.25500000000E-02 0.  1.
         -2   -1    0    0    0  501 -0.00000000000E+00 -0.00000000000E+00 -0.77910509806E+03  0.77910509806E+03  0.25500000000E-02 0. -1.
    5000001    1    1    2    0    0  0.74648827617E+02 -0.26335304367E+03 -0.47366975836E+03  0.57141518449E+03  0.16500000000E+03 0.  0.
   -5000001    1    1    2    0    0 -0.74648827617E+02  0.26335304367E+03 -0.15702331102E+03  0.35610194226E+03  0.16500000000E+03 0.  0.
<mgrwt>
<rscale>  0 0.68008402E+03</rscale>
<asrwt>0</asrwt>
<pdfrwt beam="1">  1        2 0.21201719E-01 0.68008402E+03</pdfrwt>
<pdfrwt beam="2">  1       -2 0.11130073E+00 0.68008402E+03</pdfrwt>
<totfact> 0.17130292E+02</totfact>
</mgrwt>
</event>
<event>
 4    1  0.5312547E-005  0.4777972E+03  0.7818608E-02  0.1019742E+00
          2   -1    0    0  501    0  0.00000000000E+00  0.00000000000E+00  0.33071196871E+03  0.33071196872E+03  0.25500000000E-02 0.  1.
         -2   -1    0    0    0  501 -0.00000000000E+00 -0.00000000000E+00 -0.17257479077E+03  0.17257479079E+03  0.25500000000E-02 0. -1.
    5000001    1    1    2    0    0  0.10729361862E+03 -0.44719095584E+02 -0.55561609909E+02  0.20934137337E+03  0.16500000000E+03 0.  0.
   -5000001    1    1    2    0    0 -0.10729361862E+03  0.44719095584E+02  0.21369878785E+03  0.29394538614E+03  0.16500000000E+03 0.  0.
<mgrwt>
<rscale>  0 0.47779723E+03</rscale>
<asrwt>0</asrwt>
<pdfrwt beam="1">  1        2 0.47244567E-01 0.47779723E+03</pdfrwt>
<pdfrwt beam="2">  1       -2 0.24653541E-01 0.47779723E+03</pdfrwt>
<totfact> 0.15656994E+03</totfact>
</mgrwt>
</event>
<event>
 4    1  0.5312547E-005  0.4273811E+03  0.7818608E-02  0.1034690E+00
         -2   -1    0    0    0  501 -0.00000000000E+00  0.00000000000E+00  0.34274083106E+02  0.34274083201E+02  0.25500000000E-02 0. -1.
          2   -1    0    0  501    0  0.00000000000E+00 -0.00000000000E+00 -0.13323085410E+04  0.13323085410E+04  0.25500000000E-02 0.  1.
    5000001    1    1    2    0    0 -0.66461668489E+02  0.52412218357E+02 -0.30949482338E+03  0.36079944527E+03  0.16500000000E+03 0.  0.
   -5000001    1    1    2    0    0  0.66461668489E+02 -0.52412218357E+02 -0.98853963456E+03  0.10057831790E+04  0.16500000000E+03 0.  0.
<mgrwt>
<rscale>  0 0.42738111E+03</rscale>
<asrwt>0</asrwt>
<pdfrwt beam="1">  1        2 0.19032976E+00 0.42738111E+03</pdfrwt>
<pdfrwt beam="2">  1       -2 0.48962984E-02 0.42738111E+03</pdfrwt>
<totfact> 0.38622274E+03</totfact>
</mgrwt>
</event>
<event>
 4    1  0.5312547E-005  0.5958267E+03  0.7818608E-02  0.9914102E-01
          2   -1    0    0  501    0  0.00000000000E+00  0.00000000000E+00  0.99124198834E+03  0.99124198834E+03  0.25500000000E-02 0.  1.
         -2   -1    0    0    0  501 -0.00000000000E+00 -0.00000000000E+00 -0.89536524512E+02  0.89536524548E+02  0.25500000000E-02 0. -1.
    5000001    1    1    2    0    0 -0.96257993858E+02 -0.16136480878E+03  0.74459013754E+03  0.78545762191E+03  0.16500000000E+03 0.  0.
   -5000001    1    1    2    0    0  0.96257993858E+02  0.16136480878E+03  0.15711532628E+03  0.29532089098E+03  0.16500000000E+03 0.  0.
<mgrwt>
<rscale>  0 0.59582669E+03</rscale>
<asrwt>0</asrwt>
<pdfrwt beam="1">  1        2 0.14160600E+00 0.59582669E+03</pdfrwt>
<pdfrwt beam="2">  1       -2 0.12790932E-01 0.59582669E+03</pdfrwt>
<totfact> 0.13077333E+03</totfact>
</mgrwt>
</event>
<event>
 4    1  0.5312547E-005  0.4300353E+03  0.7818608E-02  0.1033849E+00
         -2   -1    0    0    0  501 -0.00000000000E+00  0.00000000000E+00  0.75540589174E+02  0.75540589217E+02  0.25500000000E-02 0. -1.
          2   -1    0    0  501    0  0.00000000000E+00 -0.00000000000E+00 -0.61202315432E+03  0.61202315433E+03  0.25500000000E-02 0.  1.
    5000001    1    1    2    0    0  0.62489727983E+02  0.11047680065E+03 -0.18217746805E+03  0.27662920932E+03  0.16500000000E+03 0.  0.
   -5000001    1    1    2    0    0 -0.62489727983E+02 -0.11047680065E+03 -0.35430509710E+03  0.41093453422E+03  0.16500000000E+03 0.  0.
<mgrwt>
<rscale>  0 0.43003530E+03</rscale>
<asrwt>0</asrwt>
<pdfrwt beam="1">  1        2 0.87431877E-01 0.43003530E+03</pdfrwt>
<pdfrwt beam="2">  1       -2 0.10791513E-01 0.43003530E+03</pdfrwt>
<totfact> 0.31793212E+03</totfact>
</mgrwt>
</event>
<event>
 4    1  0.5312547E-005  0.5993535E+03  0.7818608E-02  0.9906748E-01
          2   -1    0    0  501    0  0.00000000000E+00  0.00000000000E+00  0.59518511336E+03  0.59518511337E+03  0.25500000000E-02 0.  1.
         -2   -1    0    0    0  501 -0.00000000000E+00 -0.00000000000E+00 -0.15088777385E+03  0.15088777387E+03  0.25500000000E-02 0. -1.
    5000001    1    1    2    0    0  0.17237598901E+03 -0.12548068100E+03  0.59264482016E+02  0.27603652244E+03  0.16500000000E+03 0.  0.
   -5000001    1    1    2    0    0 -0.17237598901E+03  0.12548068100E+03  0.38503285750E+03  0.47003636481E+03  0.16500000000E+03 0.  0.
<mgrwt>
<rscale>  0 0.59935351E+03</rscale>
<asrwt>0</asrwt>
<pdfrwt beam="1">  1        2 0.85026444E-01 0.59935351E+03</pdfrwt>
<pdfrwt beam="2">  1       -2 0.21555397E-01 0.59935351E+03</pdfrwt>
<totfact> 0.10262136E+03</totfact>
</mgrwt>
</event>
<event>
 4    1  0.5312547E-005  0.6261831E+03  0.7818608E-02  0.9852526E-01
         -2   -1    0    0    0  501 -0.00000000000E+00  0.00000000000E+00  0.55790667468E+02  0.55790667527E+02  0.25500000000E-02 0. -1.
          2   -1    0    0  501    0  0.00000000000E+00 -0.00000000000E+00 -0.17570379107E+04  0.17570379107E+04  0.25500000000E-02 0.  1.
    5000001    1    1    2    0    0  0.21750932115E+03  0.15277869508E+03 -0.88604310479E+03  0.93965366918E+03  0.16500000000E+03 0.  0.
   -5000001    1    1    2    0    0 -0.21750932115E+03 -0.15277869508E+03 -0.81520413844E+03  0.87317490904E+03  0.16500000000E+03 0.  0.
<mgrwt>
<rscale>  0 0.62618310E+03</rscale>
<asrwt>0</asrwt>
<pdfrwt beam="1">  1        2 0.25100538E+00 0.62618310E+03</pdfrwt>
<pdfrwt beam="2">  1       -2 0.79700965E-02 0.62618310E+03</pdfrwt>
<totfact> 0.10817575E+03</totfact>
</mgrwt>
</event>
<event>
 4    1  0.5312547E-005  0.1061593E+04  0.7818608E-02  0.9243456E-01
         -2   -1    0    0    0  501 -0.00000000000E+00  0.00000000000E+00  0.98368606827E+02  0.98368606860E+02  0.25500000000E-02 0.  1.
          2   -1    0    0  501    0  0.00000000000E+00 -0.00000000000E+00 -0.28641774148E+04  0.28641774148E+04  0.25500000000E-02 0. -1.
    5000001    1    1    2    0    0 -0.42150923444E+03  0.20655250230E+02 -0.61143223688E+03  0.76103288653E+03  0.16500000000E+03 0.  0.
   -5000001    1    1    2    0    0  0.42150923444E+03 -0.20655250230E+02 -0.21543765711E+04  0.22015131352E+04  0.16500000000E+03 0.  0.
<mgrwt>
<rscale>  0 0.10615934E+04</rscale>
<asrwt>0</asrwt>
<pdfrwt beam="1">  1        2 0.40916815E+00 0.10615934E+04</pdfrwt>
<pdfrwt beam="2">  1       -2 0.14052660E-01 0.10615934E+04</pdfrwt>
<totfact> 0.11103625E+02</totfact>
</mgrwt>
</event>
<event>
 4    1  0.5312547E-005  0.1112578E+04  0.7818608E-02  0.9193019E-01
         -2   -1    0    0    0  501 -0.00000000000E+00  0.00000000000E+00  0.15769664591E+03  0.15769664593E+03  0.25500000000E-02 0. -1.
          2   -1    0    0  501    0  0.00000000000E+00 -0.00000000000E+00 -0.19623574106E+04  0.19623574106E+04  0.25500000000E-02 0.  1.
    5000001    1    1    2    0    0 -0.18323012003E+03 -0.35135689827E+03 -0.15765965491E+04  0.16339848914E+04  0.16500000000E+03 0.  0.
   -5000001    1    1    2    0    0  0.18323012003E+03  0.35135689827E+03 -0.22806421567E+03  0.48606916516E+03  0.16500000000E+03 0.  0.
<mgrwt>
<rscale>  0 0.11125775E+04</rscale>
<asrwt>0</asrwt>
<pdfrwt beam="1">  1        2 0.28033676E+00 0.11125775E+04</pdfrwt>
<pdfrwt beam="2">  1       -2 0.22528093E-01 0.11125775E+04</pdfrwt>
<totfact> 0.14411592E+02</totfact>
</mgrwt>
</event>
<event>
 4    1  0.5312547E-005  0.5392820E+03  0.7818608E-02  0.1004006E+00
         -2   -1    0    0    0  501 -0.00000000000E+00  0.00000000000E+00  0.69342634111E+02  0.69342634158E+02  0.25500000000E-02 0. -1.
          2   -1    0    0  501    0  0.00000000000E+00 -0.00000000000E+00 -0.10485072987E+04  0.10485072987E+04  0.25500000000E-02 0.  1.
    5000001    1    1    2    0    0  0.85902192276E+02  0.16424898324E+03 -0.70820983596E+03  0.75042860212E+03  0.16500000000E+03 0.  0.
   -5000001    1    1    2    0    0 -0.85902192276E+02 -0.16424898324E+03 -0.27095482867E+03  0.36742133078E+03  0.16500000000E+03 0.  0.
<mgrwt>
<rscale>  0 0.53928196E+03</rscale>
<asrwt>0</asrwt>
<pdfrwt beam="1">  1        2 0.14978675E+00 0.53928196E+03</pdfrwt>
<pdfrwt beam="2">  1       -2 0.99060912E-02 0.53928196E+03</pdfrwt>
<totfact> 0.18362165E+03</totfact>
</mgrwt>
</event>
<event>
 4    1  0.5312547E-005  0.6215121E+03  0.7818608E-02  0.9861754E-01
          2   -1    0    0  501    0  0.00000000000E+00  0.00000000000E+00  0.19808610841E+03  0.19808610842E+03  0.25500000000E-02 0.  1.
         -2   -1    0    0    0  501 -0.00000000000E+00 -0.00000000000E+00 -0.48751180582E+03  0.48751180582E+03  0.25500000000E-02 0. -1.
    5000001    1    1    2    0    0 -0.26093081012E+03  0.32884470546E+02 -0.12999382068E+03  0.33658530789E+03  0.16500000000E+03 0.  0.
   -5000001    1    1    2    0    0  0.26093081012E+03 -0.32884470546E+02 -0.15943187673E+03  0.34901260635E+03  0.16500000000E+03 0.  0.
<mgrwt>
<rscale>  0 0.62151208E+03</rscale>
<asrwt>0</asrwt>
<pdfrwt beam="1">  1        2 0.28298016E-01 0.62151208E+03</pdfrwt>
<pdfrwt beam="2">  1       -2 0.69644543E-01 0.62151208E+03</pdfrwt>
<totfact> 0.36089979E+02</totfact>
</mgrwt>
</event>
<event>
 4    1  0.5312547E-005  0.7908015E+03  0.7818608E-02  0.9573428E-01
          2   -1    0    0  501    0  0.00000000000E+00  0.00000000000E+00  0.74730429709E+03  0.74730429710E+03  0.25500000000E-02 0.  1.
         -2   -1    0    0    0  501 -0.00000000000E+00 -0.00000000000E+00 -0.20920763386E+03  0.20920763387E+03  0.25500000000E-02 0. -1.
    5000001    1    1    2    0    0 -0.81718086602E+02  0.34925489328E+03  0.24310818922E+03  0.46366304341E+03  0.16500000000E+03 0.  0.
   -5000001    1    1    2    0    0  0.81718086602E+02 -0.34925489328E+03  0.29498847402E+03  0.49284888755E+03  0.16500000000E+03 0.  0.
<mgrwt>
<rscale>  0 0.79080153E+03</rscale>
<asrwt>0</asrwt>
<pdfrwt beam="1">  1        2 0.10675776E+00 0.79080153E+03</pdfrwt>
<pdfrwt beam="2">  1       -2 0.29886805E-01 0.79080153E+03</pdfrwt>
<totfact> 0.42946173E+02</totfact>
</mgrwt>
</event>
<event>
 4    1  0.5312547E-005  0.3477933E+03  0.7818608E-02  0.1063524E+00
         -2   -1    0    0    0  501 -0.00000000000E+00  0.00000000000E+00  0.10586653972E+02  0.10586654279E+02  0.25500000000E-02 0. -1.
          2   -1    0    0  501    0  0.00000000000E+00 -0.00000000000E+00 -0.28564301128E+04  0.28564301128E+04  0.25500000000E-02 0.  1.
    5000001    1    1    2    0    0 -0.11352838403E+02 -0.53693202399E+02 -0.14081967991E+04  0.14188921988E+04  0.16500000000E+03 0.  0.
   -5000001    1    1    2    0    0  0.11352838403E+02  0.53693202399E+02 -0.14376466597E+04  0.14481245682E+04  0.16500000000E+03 0.  0.
<mgrwt>
<rscale>  0 0.34779326E+03</rscale>
<asrwt>0</asrwt>
<pdfrwt beam="1">  1        2 0.40806095E+00 0.34779326E+03</pdfrwt>
<pdfrwt beam="2">  1       -2 0.15123810E-02 0.34779326E+03</pdfrwt>
<totfact> 0.38339758E+03</totfact>
</mgrwt>
</event>
<event>
 4    1  0.5312547E-005  0.6379655E+03  0.7818608E-02  0.9829627E-01
          2   -1    0    0  501    0  0.00000000000E+00  0.00000000000E+00  0.23008855618E+04  0.23008855618E+04  0.25500000000E-02 0.  1.
         -2   -1    0    0    0  501 -0.00000000000E+00 -0.00000000000E+00 -0.44222102390E+02  0.44222102463E+02  0.25500000000E-02 0. -1.
    5000001    1    1    2    0    0  0.21594616397E+03 -0.13585435153E+03  0.77125954578E+03  0.82894839255E+03  0.16500000000E+03 0.  0.
   -5000001    1    1    2    0    0 -0.21594616397E+03  0.13585435153E+03  0.14854039136E+04  0.15161592717E+04  0.16500000000E+03 0.  0.
<mgrwt>
<rscale>  0 0.63796551E+03</rscale>
<asrwt>0</asrwt>
<pdfrwt beam="1">  1        2 0.32869793E+00 0.63796551E+03</pdfrwt>
<pdfrwt beam="2">  1       -2 0.63174434E-02 0.63796551E+03</pdfrwt>
<totfact> 0.83051058E+02</totfact>
</mgrwt>
</event>
<event>
 4    1  0.5312547E-005  0.3884617E+03  0.7818608E-02  0.1047850E+00
         -2   -1    0    0    0  501 -0.00000000000E+00  0.00000000000E+00  0.35574058845E+02  0.35574058936E+02  0.25500000000E-02 0. -1.
          2   -1    0    0  501    0  0.00000000000E+00 -0.00000000000E+00 -0.10604811929E+04  0.10604811929E+04  0.25500000000E-02 0.  1.
    5000001    1    1    2    0    0  0.84965561415E+02  0.36511133049E+02 -0.63699806225E+03  0.66448757759E+03  0.16500000000E+03 0.  0.
   -5000001    1    1    2    0    0 -0.84965561415E+02 -0.36511133049E+02 -0.38790907176E+03  0.43156767420E+03  0.16500000000E+03 0.  0.
<mgrwt>
<rscale>  0 0.38846169E+03</rscale>
<asrwt>0</asrwt>
<pdfrwt beam="1">  1        2 0.15149729E+00 0.38846169E+03</pdfrwt>
<pdfrwt beam="2">  1       -2 0.50820091E-02 0.38846169E+03</pdfrwt>
<totfact> 0.51555638E+03</totfact>
</mgrwt>
</event>
<event>
 4    1  0.5312547E-005  0.3764856E+03  0.7818608E-02  0.1052240E+00
         -2   -1    0    0    0  501 -0.00000000000E+00  0.00000000000E+00  0.65249139253E+02  0.65249139303E+02  0.25500000000E-02 0. -1.
          2   -1    0    0  501    0  0.00000000000E+00 -0.00000000000E+00 -0.54307763585E+03  0.54307763586E+03  0.25500000000E-02 0.  1.
    5000001    1    1    2    0    0  0.59197498475E+01  0.90342543988E+02 -0.23297089908E+03  0.29949500582E+03  0.16500000000E+03 0.  0.
   -5000001    1    1    2    0    0 -0.59197498475E+01 -0.90342543988E+02 -0.24485759752E+03  0.30883176934E+03  0.16500000000E+03 0.  0.
<mgrwt>
<rscale>  0 0.37648558E+03</rscale>
<asrwt>0</asrwt>
<pdfrwt beam="1">  1        2 0.77582517E-01 0.37648558E+03</pdfrwt>
<pdfrwt beam="2">  1       -2 0.93213059E-02 0.37648558E+03</pdfrwt>
<totfact> 0.46045823E+03</totfact>
</mgrwt>
</event>
<event>
 4    1  0.5312547E-005  0.4481570E+03  0.7818608E-02  0.1028273E+00
          2   -1    0    0  501    0  0.00000000000E+00  0.00000000000E+00  0.26653157632E+03  0.26653157633E+03  0.25500000000E-02 0.  1.
         -2   -1    0    0    0  501 -0.00000000000E+00 -0.00000000000E+00 -0.18838733210E+03  0.18838733212E+03  0.25500000000E-02 0. -1.
    5000001    1    1    2    0    0 -0.24400032444E+02  0.11940487574E+03 -0.52473346162E+02  0.21173412099E+03  0.16500000000E+03 0.  0.
   -5000001    1    1    2    0    0  0.24400032444E+02 -0.11940487574E+03  0.13061759038E+03  0.24318478746E+03  0.16500000000E+03 0.  0.
<mgrwt>
<rscale>  0 0.44815699E+03</rscale>
<asrwt>0</asrwt>
<pdfrwt beam="1">  1        2 0.38075939E-01 0.44815699E+03</pdfrwt>
<pdfrwt beam="2">  1       -2 0.26912476E-01 0.44815699E+03</pdfrwt>
<totfact> 0.16939851E+03</totfact>
</mgrwt>
</event>
<event>
 4    1  0.5312547E-005  0.4295989E+03  0.7818608E-02  0.1033987E+00
          2   -1    0    0  501    0  0.00000000000E+00  0.00000000000E+00  0.12444616936E+04  0.12444616936E+04  0.25500000000E-02 0.  1.
         -2   -1    0    0    0  501 -0.00000000000E+00 -0.00000000000E+00 -0.37075317555E+02  0.37075317643E+02  0.25500000000E-02 0. -1.
    5000001    1    1    2    0    0  0.82115695539E+02 -0.10175774466E+03  0.73082322426E+03  0.76054270831E+03  0.16500000000E+03 0.  0.
   -5000001    1    1    2    0    0 -0.82115695539E+02  0.10175774466E+03  0.47656315183E+03  0.52099430298E+03  0.16500000000E+03 0.  0.
<mgrwt>
<rscale>  0 0.42959894E+03</rscale>
<asrwt>0</asrwt>
<pdfrwt beam="1">  1        2 0.17778025E+00 0.42959894E+03</pdfrwt>
<pdfrwt beam="2">  1       -2 0.52964737E-02 0.42959894E+03</pdfrwt>
<totfact> 0.38160853E+03</totfact>
</mgrwt>
</event>
<event>
 4    1  0.5312547E-005  0.5131526E+03  0.7818608E-02  0.1010402E+00
         -2   -1    0    0    0  501 -0.00000000000E+00  0.00000000000E+00  0.22280368512E+03  0.22280368514E+03  0.25500000000E-02 0. -1.
          2   -1    0    0  501    0  0.00000000000E+00 -0.00000000000E+00 -0.29546822001E+03  0.29546822002E+03  0.25500000000E-02 0.  1.
    5000001    1    1    2    0    0 -0.96609171410E+02 -0.87131509013E+02  0.11238196020E+03  0.23828541047E+03  0.16500000000E+03 0.  0.
   -5000001    1    1    2    0    0  0.96609171410E+02  0.87131509013E+02 -0.18504649509E+03  0.27998649469E+03  0.16500000000E+03 0.  0.
<mgrwt>
<rscale>  0 0.51315264E+03</rscale>
<asrwt>0</asrwt>
<pdfrwt beam="1">  1        2 0.42209746E-01 0.51315264E+03</pdfrwt>
<pdfrwt beam="2">  1       -2 0.31829098E-01 0.51315264E+03</pdfrwt>
<totfact> 0.11131538E+03</totfact>
</mgrwt>
</event>
<event>
 4    1  0.5312547E-005  0.4342441E+03  0.7818608E-02  0.1032528E+00
         -2   -1    0    0    0  501 -0.00000000000E+00  0.00000000000E+00  0.38214370315E+02  0.38214370400E+02  0.25500000000E-02 0. -1.
          2   -1    0    0  501    0  0.00000000000E+00 -0.00000000000E+00 -0.12336194219E+04  0.12336194219E+04  0.25500000000E-02 0.  1.
    5000001    1    1    2    0    0 -0.10771942260E+03 -0.50652683570E+01 -0.33106726875E+03  0.38530464231E+03  0.16500000000E+03 0.  0.
   -5000001    1    1    2    0    0  0.10771942260E+03  0.50652683570E+01 -0.86433778287E+03  0.88652915003E+03  0.16500000000E+03 0.  0.
<mgrwt>
<rscale>  0 0.43424412E+03</rscale>
<asrwt>0</asrwt>
<pdfrwt beam="1">  1        2 0.17623132E+00 0.43424412E+03</pdfrwt>
<pdfrwt beam="2">  1       -2 0.54591965E-02 0.43424412E+03</pdfrwt>
<totfact> 0.36920191E+03</totfact>
</mgrwt>
</event>
<event>
 4    1  0.5312547E-005  0.4000512E+03  0.7818608E-02  0.1043762E+00
         -2   -1    0    0    0  501 -0.00000000000E+00  0.00000000000E+00  0.58765917504E+03  0.58765917505E+03  0.25500000000E-02 0. -1.
          2   -1    0    0  501    0  0.00000000000E+00 -0.00000000000E+00 -0.68084087365E+02  0.68084087413E+02  0.25500000000E-02 0.  1.
    5000001    1    1    2    0    0 -0.97727311392E+02 -0.55902877541E+02  0.24263673055E+03  0.31428226505E+03  0.16500000000E+03 0.  0.
   -5000001    1    1    2    0    0  0.97727311392E+02  0.55902877541E+02  0.27693835713E+03  0.34146099742E+03  0.16500000000E+03 0.  0.
<mgrwt>
<rscale>  0 0.40005119E+03</rscale>
<asrwt>0</asrwt>
<pdfrwt beam="1">  1        2 0.97262980E-02 0.40005119E+03</pdfrwt>
<pdfrwt beam="2">  1       -2 0.83951312E-01 0.40005119E+03</pdfrwt>
<totfact> 0.85517251E+02</totfact>
</mgrwt>
</event>
<event>
 4    1  0.5312547E-005  0.4853507E+03  0.7818608E-02  0.1017675E+00
          2   -1    0    0  501    0  0.00000000000E+00  0.00000000000E+00  0.14336937939E+03  0.14336937941E+03  0.25500000000E-02 0.  1.
         -2   -1    0    0    0  501 -0.00000000000E+00 -0.00000000000E+00 -0.41076642898E+03  0.41076642899E+03  0.25500000000E-02 0. -1.
    5000001    1    1    2    0    0  0.16689422197E+03 -0.38856860933E+02 -0.78910226600E+02  0.25062992804E+03  0.16500000000E+03 0.  0.
   -5000001    1    1    2    0    0 -0.16689422197E+03  0.38856860933E+02 -0.18848682299E+03  0.30350588036E+03  0.16500000000E+03 0.  0.
<mgrwt>
<rscale>  0 0.48535071E+03</rscale>
<asrwt>0</asrwt>
<pdfrwt beam="1">  1        2 0.20481340E-01 0.48535071E+03</pdfrwt>
<pdfrwt beam="2">  1       -2 0.58680918E-01 0.48535071E+03</pdfrwt>
<totfact> 0.75376619E+02</totfact>
</mgrwt>
</event>
<event>
 4    1  0.5312547E-005  0.4991227E+03  0.7818608E-02  0.1014008E+00
         -2   -1    0    0    0  501 -0.00000000000E+00  0.00000000000E+00  0.45015907266E+02  0.45015907338E+02  0.25500000000E-02 0. -1.
          2   -1    0    0  501    0  0.00000000000E+00 -0.00000000000E+00 -0.13835301422E+04  0.13835301422E+04  0.25500000000E-02 0.  1.
    5000001    1    1    2    0    0 -0.15359078583E+03 -0.10656191750E+03 -0.69931515871E+03  0.74243670636E+03  0.16500000000E+03 0.  0.
   -5000001    1    1    2    0    0  0.15359078583E+03  0.10656191750E+03 -0.63919907624E+03  0.68610934320E+03  0.16500000000E+03 0.  0.
<mgrwt>
<rscale>  0 0.49912269E+03</rscale>
<asrwt>0</asrwt>
<pdfrwt beam="1">  1        2 0.19764714E+00 0.49912269E+03</pdfrwt>
<pdfrwt beam="2">  1       -2 0.64308447E-02 0.49912269E+03</pdfrwt>
<totfact> 0.23762050E+03</totfact>
</mgrwt>
</event>
<event>
 4    1  0.5312547E-005  0.9467629E+03  0.7818608E-02  0.9368942E-01
          2   -1    0    0  501    0  0.00000000000E+00  0.00000000000E+00  0.14645023982E+04  0.14645023982E+04  0.25500000000E-02 0.  1.
         -2   -1    0    0    0  501 -0.00000000000E+00 -0.00000000000E+00 -0.15301444103E+03  0.15301444105E+03  0.25500000000E-02 0. -1.
    5000001    1    1    2    0    0 -0.26810767760E+03 -0.14177588124E+03  0.10244498389E+03  0.36014178043E+03  0.16500000000E+03 0.  0.
   -5000001    1    1    2    0    0  0.26810767760E+03  0.14177588124E+03  0.12090429733E+04  0.12573750588E+04  0.16500000000E+03 0.  0.
<mgrwt>
<rscale>  0 0.94676294E+03</rscale>
<asrwt>0</asrwt>
<pdfrwt beam="1">  1        2 0.20921463E+00 0.94676294E+03</pdfrwt>
<pdfrwt beam="2">  1       -2 0.21859206E-01 0.94676294E+03</pdfrwt>
<totfact> 0.27840716E+02</totfact>
</mgrwt>
</event>
<event>
 4    1  0.5312547E-005  0.4102975E+03  0.7818608E-02  0.1040271E+00
          2   -1    0    0  501    0  0.00000000000E+00  0.00000000000E+00  0.35426349310E+03  0.35426349311E+03  0.25500000000E-02 0.  1.
         -2   -1    0    0    0  501 -0.00000000000E+00 -0.00000000000E+00 -0.11879862258E+03  0.11879862260E+03  0.25500000000E-02 0. -1.
    5000001    1    1    2    0    0 -0.10002540811E+03 -0.54230756590E+02  0.67278055243E+02  0.21141758192E+03  0.16500000000E+03 0.  0.
   -5000001    1    1    2    0    0  0.10002540811E+03  0.54230756590E+02  0.16818681528E+03  0.26164453379E+03  0.16500000000E+03 0.  0.
<mgrwt>
<rscale>  0 0.41029753E+03</rscale>
<asrwt>0</asrwt>
<pdfrwt beam="1">  1        2 0.50609071E-01 0.41029753E+03</pdfrwt>
<pdfrwt beam="2">  1       -2 0.16971231E-01 0.41029753E+03</pdfrwt>
<totfact> 0.27720889E+03</totfact>
</mgrwt>
</event>
<event>
 4    1  0.5312547E-005  0.9582590E+03  0.7818608E-02  0.9355549E-01
          2   -1    0    0  501    0  0.00000000000E+00  0.00000000000E+00  0.38872207286E+03  0.38872207287E+03  0.25500000000E-02 0.  1.
         -2   -1    0    0    0  501 -0.00000000000E+00 -0.00000000000E+00 -0.59056348399E+03  0.59056348399E+03  0.25500000000E-02 0. -1.
    5000001    1    1    2    0    0 -0.13644071652E+03 -0.40008885494E+03 -0.25809034680E+03  0.52203715201E+03  0.16500000000E+03 0.  0.
   -5000001    1    1    2    0    0  0.13644071652E+03  0.40008885494E+03  0.56248935673E+02  0.45724840485E+03  0.16500000000E+03 0.  0.
<mgrwt>
<rscale>  0 0.95825897E+03</rscale>
<asrwt>0</asrwt>
<pdfrwt beam="1">  1        2 0.55531725E-01 0.95825897E+03</pdfrwt>
<pdfrwt beam="2">  1       -2 0.84366211E-01 0.95825897E+03</pdfrwt>
<totfact> 0.10959517E+02</totfact>
</mgrwt>
</event>
<event>
 4    1  0.5312547E-005  0.3437769E+03  0.7818608E-02  0.1065199E+00
          2   -1    0    0  501    0  0.00000000000E+00  0.00000000000E+00  0.49634502200E+02  0.49634502265E+02  0.25500000000E-02 0.  1.
         -2   -1    0    0    0  501 -0.00000000000E+00 -0.00000000000E+00 -0.59526427232E+03  0.59526427233E+03  0.25500000000E-02 0. -1.
    5000001    1    1    2    0    0  0.67852193664E+01  0.43080429417E+02 -0.31119953715E+03  0.35492550559E+03  0.16500000000E+03 0.  0.
   -5000001    1    1    2    0    0 -0.67852193664E+01 -0.43080429417E+02 -0.23443023297E+03  0.28997326900E+03  0.16500000000E+03 0.  0.
<mgrwt>
<rscale>  0 0.34377694E+03</rscale>
<asrwt>0</asrwt>
<pdfrwt beam="1">  1        2 0.70906435E-02 0.34377694E+03</pdfrwt>
<pdfrwt beam="2">  1       -2 0.85037749E-01 0.34377694E+03</pdfrwt>
<totfact> 0.12419533E+03</totfact>
</mgrwt>
</event>
<event>
 4    1  0.5312547E-005  0.3965769E+03  0.7818608E-02  0.1044971E+00
          2   -1    0    0  501    0  0.00000000000E+00  0.00000000000E+00  0.68765952437E+03  0.68765952437E+03  0.25500000000E-02 0.  1.
         -2   -1    0    0    0  501 -0.00000000000E+00 -0.00000000000E+00 -0.57176997914E+02  0.57176997971E+02  0.25500000000E-02 0. -1.
    5000001    1    1    2    0    0 -0.50259999438E+02  0.89467201060E+02  0.38949076522E+03  0.43526831243E+03  0.16500000000E+03 0.  0.
   -5000001    1    1    2    0    0  0.50259999438E+02 -0.89467201060E+02  0.24099176123E+03  0.30956820991E+03  0.16500000000E+03 0.  0.
<mgrwt>
<rscale>  0 0.39657689E+03</rscale>
<asrwt>0</asrwt>
<pdfrwt beam="1">  1        2 0.98237065E-01 0.39657689E+03</pdfrwt>
<pdfrwt beam="2">  1       -2 0.81681434E-02 0.39657689E+03</pdfrwt>
<totfact> 0.43184300E+03</totfact>
</mgrwt>
</event>
<event>
 4    1  0.5312547E-005  0.4945112E+03  0.7818608E-02  0.1015222E+00
          2   -1    0    0  501    0  0.00000000000E+00  0.00000000000E+00  0.12481684842E+04  0.12481684842E+04  0.25500000000E-02 0. -1.
         -2   -1    0    0    0  501 -0.00000000000E+00 -0.00000000000E+00 -0.48980032927E+02  0.48980032994E+02  0.25500000000E-02 0.  1.
    5000001    1    1    2    0    0  0.77212903088E+02 -0.15314173616E+03  0.77548052708E+03  0.81117770657E+03  0.16500000000E+03 0.  0.
   -5000001    1    1    2    0    0 -0.77212903088E+02  0.15314173616E+03  0.42370792420E+03  0.48597081063E+03  0.16500000000E+03 0.  0.
<mgrwt>
<rscale>  0 0.49451121E+03</rscale>
<asrwt>0</asrwt>
<pdfrwt beam="1">  1        2 0.17830980E+00 0.49451121E+03</pdfrwt>
<pdfrwt beam="2">  1       -2 0.69971471E-02 0.49451121E+03</pdfrwt>
<totfact> 0.24615999E+03</totfact>
</mgrwt>
</event>
<event>
 4    1  0.5312547E-005  0.5331465E+03  0.7818608E-02  0.1005472E+00
          2   -1    0    0  501    0  0.00000000000E+00  0.00000000000E+00  0.96675201352E+03  0.96675201353E+03  0.25500000000E-02 0.  1.
         -2   -1    0    0    0  501 -0.00000000000E+00 -0.00000000000E+00 -0.73505202910E+02  0.73505202954E+02  0.25500000000E-02 0. -1.
    5000001    1    1    2    0    0  0.17651156419E+03 -0.11041438620E+03  0.48975405361E+03  0.55716398125E+03  0.16500000000E+03 0.  0.
   -5000001    1    1    2    0    0 -0.17651156419E+03  0.11041438620E+03  0.40349275700E+03  0.48309323523E+03  0.16500000000E+03 0.  0.
<mgrwt>
<rscale>  0 0.53314652E+03</rscale>
<asrwt>0</asrwt>
<pdfrwt beam="1">  1        2 0.13810743E+00 0.53314652E+03</pdfrwt>
<pdfrwt beam="2">  1       -2 0.10500744E-01 0.53314652E+03</pdfrwt>
<totfact> 0.18723744E+03</totfact>
</mgrwt>
</event>
<event>
 4    1  0.5312547E-005  0.8355120E+03  0.7818608E-02  0.9509991E-01
         -2   -1    0    0    0  501 -0.00000000000E+00  0.00000000000E+00  0.79107084918E+03  0.79107084919E+03  0.25500000000E-02 0. -1.
          2   -1    0    0  501    0  0.00000000000E+00 -0.00000000000E+00 -0.22061242249E+03  0.22061242251E+03  0.25500000000E-02 0.  1.
    5000001    1    1    2    0    0 -0.22719443665E+03 -0.16636239891E+03 -0.30525976663E+02  0.32779657574E+03  0.16500000000E+03 0.  0.
   -5000001    1    1    2    0    0  0.22719443665E+03  0.16636239891E+03  0.60098440335E+03  0.68388669595E+03  0.16500000000E+03 0.  0.
<mgrwt>
<rscale>  0 0.83551195E+03</rscale>
<asrwt>0</asrwt>
<pdfrwt beam="1">  1        2 0.31516061E-01 0.83551195E+03</pdfrwt>
<pdfrwt beam="2">  1       -2 0.11301012E+00 0.83551195E+03</pdfrwt>
<totfact> 0.10418379E+02</totfact>
</mgrwt>
</event>
<event>
 4    1  0.5312547E-005  0.5064099E+03  0.7818608E-02  0.1012119E+00
         -2   -1    0    0    0  501 -0.00000000000E+00  0.00000000000E+00  0.12878743869E+03  0.12878743871E+03  0.25500000000E-02 0. -1.
          2   -1    0    0  501    0  0.00000000000E+00 -0.00000000000E+00 -0.49781836281E+03  0.49781836282E+03  0.25500000000E-02 0.  1.
    5000001    1    1    2    0    0 -0.17443703127E+03  0.45155920108E+02 -0.10224881039E+03  0.26485308046E+03  0.16500000000E+03 0.  0.
   -5000001    1    1    2    0    0  0.17443703127E+03 -0.45155920108E+02 -0.26678211373E+03  0.36175272107E+03  0.16500000000E+03 0.  0.
<mgrwt>
<rscale>  0 0.50640992E+03</rscale>
<asrwt>0</asrwt>
<pdfrwt beam="1">  1        2 0.71116908E-01 0.50640992E+03</pdfrwt>
<pdfrwt beam="2">  1       -2 0.18398206E-01 0.50640992E+03</pdfrwt>
<totfact> 0.16605515E+03</totfact>
</mgrwt>
</event>
<event>
 4    1  0.5312547E-005  0.5187827E+03  0.7818608E-02  0.1008989E+00
         -2   -1    0    0    0  501 -0.00000000000E+00  0.00000000000E+00  0.37028405537E+03  0.37028405538E+03  0.25500000000E-02 0. -1.
          2   -1    0    0  501    0  0.00000000000E+00 -0.00000000000E+00 -0.18170876808E+03  0.18170876809E+03  0.25500000000E-02 0.  1.
    5000001    1    1    2    0    0  0.80206286083E+02 -0.17097830547E+03  0.16480410960E+03  0.30008669382E+03  0.16500000000E+03 0.  0.
   -5000001    1    1    2    0    0 -0.80206286083E+02  0.17097830547E+03  0.23771177694E+02  0.25190612965E+03  0.16500000000E+03 0.  0.
<mgrwt>
<rscale>  0 0.51878265E+03</rscale>
<asrwt>0</asrwt>
<pdfrwt beam="1">  1        2 0.25958395E-01 0.51878265E+03</pdfrwt>
<pdfrwt beam="2">  1       -2 0.52897723E-01 0.51878265E+03</pdfrwt>
<totfact> 0.71135110E+02</totfact>
</mgrwt>
</event>
<event>
 4    1  0.5312547E-005  0.4245983E+03  0.7818608E-02  0.1035580E+00
         -2   -1    0    0    0  501 -0.00000000000E+00  0.00000000000E+00  0.13322879512E+03  0.13322879515E+03  0.25500000000E-02 0. -1.
          2   -1    0    0  501    0  0.00000000000E+00 -0.00000000000E+00 -0.33829719484E+03  0.33829719485E+03  0.25500000000E-02 0.  1.
    5000001    1    1    2    0    0 -0.68909348821E+01  0.10124988646E+03 -0.60598677685E+01  0.19380595060E+03  0.16500000000E+03 0.  0.
   -5000001    1    1    2    0    0  0.68909348821E+01 -0.10124988646E+03 -0.19900853195E+03  0.27772003939E+03  0.16500000000E+03 0.  0.
<mgrwt>
<rscale>  0 0.42459829E+03</rscale>
<asrwt>0</asrwt>
<pdfrwt beam="1">  1        2 0.48328170E-01 0.42459829E+03</pdfrwt>
<pdfrwt beam="2">  1       -2 0.19032685E-01 0.42459829E+03</pdfrwt>
<totfact> 0.23990916E+03</totfact>
</mgrwt>
</event>
<event>
 4    1  0.5312547E-005  0.5289053E+03  0.7818608E-02  0.1006498E+00
         -2   -1    0    0    0  501 -0.00000000000E+00  0.00000000000E+00  0.90192619192E+02  0.90192619228E+02  0.25500000000E-02 0. -1.
          2   -1    0    0  501    0  0.00000000000E+00 -0.00000000000E+00 -0.77539837078E+03  0.77539837079E+03  0.25500000000E-02 0.  1.
    5000001    1    1    2    0    0  0.33458214479E+02  0.20029401131E+03 -0.27979038326E+03  0.38307284118E+03  0.16500000000E+03 0.  0.
   -5000001    1    1    2    0    0 -0.33458214479E+02 -0.20029401131E+03 -0.40541536833E+03  0.48251814884E+03  0.16500000000E+03 0.  0.
<mgrwt>
<rscale>  0 0.52890532E+03</rscale>
<asrwt>0</asrwt>
<pdfrwt beam="1">  1        2 0.11077119E+00 0.52890532E+03</pdfrwt>
<pdfrwt beam="2">  1       -2 0.12884660E-01 0.52890532E+03</pdfrwt>
<totfact> 0.17892005E+03</totfact>
</mgrwt>
</event>
<event>
 4    1  0.5312547E-005  0.3864929E+03  0.7818608E-02  0.1048560E+00
          2   -1    0    0  501    0  0.00000000000E+00  0.00000000000E+00  0.38533446453E+02  0.38533446538E+02  0.25500000000E-02 0.  1.
         -2   -1    0    0    0  501 -0.00000000000E+00 -0.00000000000E+00 -0.96913709420E+03  0.96913709420E+03  0.25500000000E-02 0. -1.
    5000001    1    1    2    0    0  0.26438382338E+02 -0.68003146050E+02 -0.28474808113E+03  0.33709032268E+03  0.16500000000E+03 0.  0.
   -5000001    1    1    2    0    0 -0.26438382338E+02  0.68003146050E+02 -0.64585556661E+03  0.67058021806E+03  0.16500000000E+03 0.  0.
<mgrwt>
<rscale>  0 0.38649291E+03</rscale>
<asrwt>0</asrwt>
<pdfrwt beam="1">  1        2 0.55047787E-02 0.38649291E+03</pdfrwt>
<pdfrwt beam="2">  1       -2 0.13844814E+00 0.38649291E+03</pdfrwt>
<totfact> 0.54206122E+02</totfact>
</mgrwt>
</event>
<event>
 4    1  0.5312547E-005  0.4875757E+03  0.7818608E-02  0.1017074E+00
          2   -1    0    0  501    0  0.00000000000E+00  0.00000000000E+00  0.47970296820E+03  0.47970296821E+03  0.25500000000E-02 0.  1.
         -2   -1    0    0    0  501 -0.00000000000E+00 -0.00000000000E+00 -0.12389438908E+03  0.12389438911E+03  0.25500000000E-02 0. -1.
    5000001    1    1    2    0    0 -0.11373813619E+03  0.81822440133E+02  0.31673340688E+03  0.38363566879E+03  0.16500000000E+03 0.  0.
   -5000001    1    1    2    0    0  0.11373813619E+03 -0.81822440133E+02  0.39075172237E+02  0.21996168853E+03  0.16500000000E+03 0.  0.
<mgrwt>
<rscale>  0 0.48757566E+03</rscale>
<asrwt>0</asrwt>
<pdfrwt beam="1">  1        2 0.68528996E-01 0.48757566E+03</pdfrwt>
<pdfrwt beam="2">  1       -2 0.17699198E-01 0.48757566E+03</pdfrwt>
<totfact> 0.18498103E+03</totfact>
</mgrwt>
</event>
<event>
 4    1  0.5312547E-005  0.4953864E+03  0.7818608E-02  0.1014990E+00
          2   -1    0    0  501    0  0.00000000000E+00  0.00000000000E+00  0.60062115475E+03  0.60062115476E+03  0.25500000000E-02 0.  1.
         -2   -1    0    0    0  501 -0.00000000000E+00 -0.00000000000E+00 -0.10214744780E+03  0.10214744783E+03  0.25500000000E-02 0. -1.
    5000001    1    1    2    0    0  0.24832189901E+02  0.13680306238E+03  0.42179232693E+03  0.47377788318E+03  0.16500000000E+03 0.  0.
   -5000001    1    1    2    0    0 -0.24832189901E+02 -0.13680306238E+03  0.76681380026E+02  0.22899071941E+03  0.16500000000E+03 0.  0.
<mgrwt>
<rscale>  0 0.49538639E+03</rscale>
<asrwt>0</asrwt>
<pdfrwt beam="1">  1        2 0.85803019E-01 0.49538639E+03</pdfrwt>
<pdfrwt beam="2">  1       -2 0.14592493E-01 0.49538639E+03</pdfrwt>
<totfact> 0.19814955E+03</totfact>
</mgrwt>
</event>
<event>
 4    1  0.5312547E-005  0.4303318E+03  0.7818608E-02  0.1033755E+00
         -2   -1    0    0    0  501 -0.00000000000E+00  0.00000000000E+00  0.21558027544E+03  0.21558027546E+03  0.25500000000E-02 0. -1.
          2   -1    0    0  501    0  0.00000000000E+00 -0.00000000000E+00 -0.21475231137E+03  0.21475231139E+03  0.25500000000E-02 0.  1.
    5000001    1    1    2    0    0  0.11552132226E+03 -0.47463267282E+02 -0.58521895524E+02  0.21505290022E+03  0.16500000000E+03 0.  0.
   -5000001    1    1    2    0    0 -0.11552132226E+03  0.47463267282E+02  0.59349859593E+02  0.21527968662E+03  0.16500000000E+03 0.  0.
<mgrwt>
<rscale>  0 0.43033179E+03</rscale>
<asrwt>0</asrwt>
<pdfrwt beam="1">  1        2 0.30678901E-01 0.43033179E+03</pdfrwt>
<pdfrwt beam="2">  1       -2 0.30797182E-01 0.43033179E+03</pdfrwt>
<totfact> 0.16810979E+03</totfact>
</mgrwt>
</event>
<event>
 4    1  0.5312547E-005  0.8818020E+03  0.7818608E-02  0.9448620E-01
         -2   -1    0    0    0  501 -0.00000000000E+00  0.00000000000E+00  0.34305724325E+03  0.34305724326E+03  0.25500000000E-02 0. -1.
          2   -1    0    0  501    0  0.00000000000E+00 -0.00000000000E+00 -0.56665094692E+03  0.56665094693E+03  0.25500000000E-02 0.  1.
    5000001    1    1    2    0    0  0.30992475411E+03 -0.10536199795E+03 -0.36452757626E+03  0.51697181517E+03  0.16500000000E+03 0.  0.
   -5000001    1    1    2    0    0 -0.30992475411E+03  0.10536199795E+03  0.14093387259E+03  0.39273637502E+03  0.16500000000E+03 0.  0.
<mgrwt>
<rscale>  0 0.88180205E+03</rscale>
<asrwt>0</asrwt>
<pdfrwt beam="1">  1        2 0.80950135E-01 0.88180205E+03</pdfrwt>
<pdfrwt beam="2">  1       -2 0.49008177E-01 0.88180205E+03</pdfrwt>
<totfact> 0.22964312E+02</totfact>
</mgrwt>
</event>
<event>
 4    1  0.5312547E-005  0.4514132E+03  0.7818608E-02  0.1027301E+00
          2   -1    0    0  501    0  0.00000000000E+00  0.00000000000E+00  0.11764323149E+04  0.11764323149E+04  0.25500000000E-02 0.  1.
         -2   -1    0    0    0  501 -0.00000000000E+00 -0.00000000000E+00 -0.43303350972E+02  0.43303351047E+02  0.25500000000E-02 0. -1.
    5000001    1    1    2    0    0 -0.66813652854E+02 -0.12910180058E+03  0.70400031717E+03  0.73754510757E+03  0.16500000000E+03 0.  0.
   -5000001    1    1    2    0    0  0.66813652854E+02  0.12910180058E+03  0.42912864672E+03  0.48219055834E+03  0.16500000000E+03 0.  0.
<mgrwt>
<rscale>  0 0.45141317E+03</rscale>
<asrwt>0</asrwt>
<pdfrwt beam="1">  1        2 0.16806172E+00 0.45141317E+03</pdfrwt>
<pdfrwt beam="2">  1       -2 0.61861944E-02 0.45141317E+03</pdfrwt>
<totfact> 0.32710689E+03</totfact>
</mgrwt>
</event>
<event>
 4    1  0.5312547E-005  0.3845742E+03  0.7818608E-02  0.1049256E+00
         -2   -1    0    0    0  501 -0.00000000000E+00  0.00000000000E+00  0.27176092994E+02  0.27176093114E+02  0.25500000000E-02 0.  1.
          2   -1    0    0  501    0  0.00000000000E+00 -0.00000000000E+00 -0.13605459045E+04  0.13605459045E+04  0.25500000000E-02 0. -1.
    5000001    1    1    2    0    0  0.80947196746E+02  0.51172113315E+02 -0.75345989269E+03  0.77723731494E+03  0.16500000000E+03 0.  0.
   -5000001    1    1    2    0    0 -0.80947196746E+02 -0.51172113315E+02 -0.57990991883E+03  0.61048468269E+03  0.16500000000E+03 0.  0.
<mgrwt>
<rscale>  0 0.38457417E+03</rscale>
<asrwt>0</asrwt>
<pdfrwt beam="1">  1        2 0.19436366E+00 0.38457417E+03</pdfrwt>
<pdfrwt beam="2">  1       -2 0.38822999E-02 0.38457417E+03</pdfrwt>
<totfact> 0.53147763E+03</totfact>
</mgrwt>
</event>
<event>
 4    1  0.5312547E-005  0.7087464E+03  0.7818608E-02  0.9702391E-01
          2   -1    0    0  501    0  0.00000000000E+00  0.00000000000E+00  0.12439797102E+03  0.12439797105E+03  0.25500000000E-02 0.  1.
         -2   -1    0    0    0  501 -0.00000000000E+00 -0.00000000000E+00 -0.10095048192E+04  0.10095048192E+04  0.25500000000E-02 0. -1.
    5000001    1    1    2    0    0  0.19379451882E+03 -0.23982788453E+03 -0.35090410799E+03  0.49541136717E+03  0.16500000000E+03 0.  0.
   -5000001    1    1    2    0    0 -0.19379451882E+03  0.23982788453E+03 -0.53420274022E+03  0.63849142311E+03  0.16500000000E+03 0.  0.
<mgrwt>
<rscale>  0 0.70874636E+03</rscale>
<asrwt>0</asrwt>
<pdfrwt beam="1">  1        2 0.17771139E-01 0.70874636E+03</pdfrwt>
<pdfrwt beam="2">  1       -2 0.14421497E+00 0.70874636E+03</pdfrwt>
<totfact> 0.10999290E+02</totfact>
</mgrwt>
</event>
<event>
 4    1  0.5312547E-005  0.5834105E+03  0.7818608E-02  0.9940434E-01
         -2   -1    0    0    0  501 -0.00000000000E+00  0.00000000000E+00  0.11000859794E+03  0.11000859797E+03  0.25500000000E-02 0. -1.
          2   -1    0    0  501    0  0.00000000000E+00 -0.00000000000E+00 -0.77350287405E+03  0.77350287405E+03  0.25500000000E-02 0.  1.
    5000001    1    1    2    0    0 -0.65916224429E+02 -0.22295810176E+03 -0.23825018920E+03  0.37154194439E+03  0.16500000000E+03 0.  0.
   -5000001    1    1    2    0    0  0.65916224429E+02  0.22295810176E+03 -0.42524408690E+03  0.51196952764E+03  0.16500000000E+03 0.  0.
<mgrwt>
<rscale>  0 0.58341055E+03</rscale>
<asrwt>0</asrwt>
<pdfrwt beam="1">  1        2 0.11050041E+00 0.58341055E+03</pdfrwt>
<pdfrwt beam="2">  1       -2 0.15715514E-01 0.58341055E+03</pdfrwt>
<totfact> 0.12871346E+03</totfact>
</mgrwt>
</event>
<event>
 4    1  0.5312547E-005  0.3780672E+03  0.7818608E-02  0.1051650E+00
          2   -1    0    0  501    0  0.00000000000E+00  0.00000000000E+00  0.32723506733E+04  0.32723506733E+04  0.25500000000E-02 0.  1.
         -2   -1    0    0    0  501 -0.00000000000E+00 -0.00000000000E+00 -0.10919889356E+02  0.10919889654E+02  0.25500000000E-02 0. -1.
    5000001    1    1    2    0    0 -0.83516502424E+02 -0.28698178202E+02  0.18621361634E+04  0.18715166798E+04  0.16500000000E+03 0.  0.
   -5000001    1    1    2    0    0  0.83516502424E+02  0.28698178202E+02  0.13992946205E+04  0.14117538832E+04  0.16500000000E+03 0.  0.
<mgrwt>
<rscale>  0 0.37806723E+03</rscale>
<asrwt>0</asrwt>
<pdfrwt beam="1">  1        2 0.46747937E+00 0.37806723E+03</pdfrwt>
<pdfrwt beam="2">  1       -2 0.15599819E-02 0.37806723E+03</pdfrwt>
<totfact> 0.21764463E+03</totfact>
</mgrwt>
</event>
<event>
 4    1  0.5312547E-005  0.6397525E+03  0.7818608E-02  0.9826200E-01
          2   -1    0    0  501    0  0.00000000000E+00  0.00000000000E+00  0.20301014328E+04  0.20301014328E+04  0.25500000000E-02 0. -1.
         -2   -1    0    0    0  501 -0.00000000000E+00 -0.00000000000E+00 -0.50401824087E+02  0.50401824151E+02  0.25500000000E-02 0.  1.
    5000001    1    1    2    0    0 -0.26935345220E+03  0.21296947352E+02  0.11385565399E+04  0.11817532893E+04  0.16500000000E+03 0.  0.
   -5000001    1    1    2    0    0  0.26935345220E+03 -0.21296947352E+02  0.84114306880E+03  0.89874996766E+03  0.16500000000E+03 0.  0.
<mgrwt>
<rscale>  0 0.63975250E+03</rscale>
<asrwt>0</asrwt>
<pdfrwt beam="1">  1        2 0.29001455E+00 0.63975250E+03</pdfrwt>
<pdfrwt beam="2">  1       -2 0.72002592E-02 0.63975250E+03</pdfrwt>
<totfact> 0.92519391E+02</totfact>
</mgrwt>
</event>
<event>
 4    1  0.5312547E-005  0.3693616E+03  0.7818608E-02  0.1054937E+00
          2   -1    0    0  501    0  0.00000000000E+00  0.00000000000E+00  0.88507141663E+02  0.88507141700E+02  0.25500000000E-02 0.  1.
         -2   -1    0    0    0  501 -0.00000000000E+00 -0.00000000000E+00 -0.38535879129E+03  0.38535879129E+03  0.25500000000E-02 0. -1.
    5000001    1    1    2    0    0  0.23044159159E+01  0.34872476592E+02 -0.51901864786E+02  0.17646587071E+03  0.16500000000E+03 0.  0.
   -5000001    1    1    2    0    0 -0.23044159159E+01 -0.34872476592E+02 -0.24494978484E+03  0.29740006229E+03  0.16500000000E+03 0.  0.
<mgrwt>
<rscale>  0 0.36936164E+03</rscale>
<asrwt>0</asrwt>
<pdfrwt beam="1">  1        2 0.12643878E-01 0.36936164E+03</pdfrwt>
<pdfrwt beam="2">  1       -2 0.55051255E-01 0.36936164E+03</pdfrwt>
<totfact> 0.15244488E+03</totfact>
</mgrwt>
</event>
<event>
 4    1  0.5312547E-005  0.4620444E+03  0.7818608E-02  0.1024190E+00
         -2   -1    0    0    0  501 -0.00000000000E+00  0.00000000000E+00  0.85914030897E+02  0.85914030934E+02  0.25500000000E-02 0. -1.
          2   -1    0    0  501    0  0.00000000000E+00 -0.00000000000E+00 -0.62121709612E+03  0.62121709612E+03  0.25500000000E-02 0.  1.
    5000001    1    1    2    0    0 -0.14729205578E+03 -0.62164776905E+02 -0.30472659115E+03  0.38163163462E+03  0.16500000000E+03 0.  0.
   -5000001    1    1    2    0    0  0.14729205578E+03  0.62164776905E+02 -0.23057647407E+03  0.32549949244E+03  0.16500000000E+03 0.  0.
<mgrwt>
<rscale>  0 0.46204443E+03</rscale>
<asrwt>0</asrwt>
<pdfrwt beam="1">  1        2 0.88745297E-01 0.46204443E+03</pdfrwt>
<pdfrwt beam="2">  1       -2 0.12273433E-01 0.46204443E+03</pdfrwt>
<totfact> 0.25354452E+03</totfact>
</mgrwt>
</event>
<event>
 4    1  0.5312547E-005  0.5793732E+03  0.7818608E-02  0.9949149E-01
          2   -1    0    0  501    0  0.00000000000E+00  0.00000000000E+00  0.36030276734E+04  0.36030276734E+04  0.25500000000E-02 0.  1.
         -2   -1    0    0    0  501 -0.00000000000E+00 -0.00000000000E+00 -0.23291057953E+02  0.23291058092E+02  0.25500000000E-02 0. -1.
    5000001    1    1    2    0    0  0.17522288217E+02 -0.16128222327E+03  0.69902844898E+03  0.73633196224E+03  0.16500000000E+03 0.  0.
   -5000001    1    1    2    0    0 -0.17522288217E+02  0.16128222327E+03  0.28807081665E+04  0.28899867693E+04  0.16500000000E+03 0.  0.
<mgrwt>
<rscale>  0 0.57937320E+03</rscale>
<asrwt>0</asrwt>
<pdfrwt beam="1">  1        2 0.51471816E+00 0.57937320E+03</pdfrwt>
<pdfrwt beam="2">  1       -2 0.33272945E-02 0.57937320E+03</pdfrwt>
<totfact> 0.43823000E+02</totfact>
</mgrwt>
</event>
<event>
 4    1  0.5312547E-005  0.5428767E+03  0.7818608E-02  0.1003156E+00
         -2   -1    0    0    0  501 -0.00000000000E+00  0.00000000000E+00  0.63253810003E+02  0.63253810054E+02  0.25500000000E-02 0. -1.
          2   -1    0    0  501    0  0.00000000000E+00 -0.00000000000E+00 -0.11648115121E+04  0.11648115121E+04  0.25500000000E-02 0.  1.
    5000001    1    1    2    0    0 -0.20035890603E+03  0.79197359158E+02 -0.53686102111E+03  0.60154855907E+03  0.16500000000E+03 0.  0.
   -5000001    1    1    2    0    0  0.20035890603E+03 -0.79197359158E+02 -0.56469668102E+03  0.62651676313E+03  0.16500000000E+03 0.  0.
<mgrwt>
<rscale>  0 0.54287666E+03</rscale>
<asrwt>0</asrwt>
<pdfrwt beam="1">  1        2 0.16640163E+00 0.54287666E+03</pdfrwt>
<pdfrwt beam="2">  1       -2 0.90362593E-02 0.54287666E+03</pdfrwt>
<totfact> 0.18235297E+03</totfact>
</mgrwt>
</event>
<event>
 4    1  0.5312547E-005  0.4148640E+03  0.7818608E-02  0.1038751E+00
          2   -1    0    0  501    0  0.00000000000E+00  0.00000000000E+00  0.97594825045E+03  0.97594825045E+03  0.25500000000E-02 0.  1.
         -2   -1    0    0    0  501 -0.00000000000E+00 -0.00000000000E+00 -0.44088440625E+02  0.44088440699E+02  0.25500000000E-02 0. -1.
    5000001    1    1    2    0    0 -0.11205319423E+03 -0.10857279640E+02  0.32838981343E+03  0.38436788163E+03  0.16500000000E+03 0.  0.
   -5000001    1    1    2    0    0  0.11205319423E+03  0.10857279640E+02  0.60346999639E+03  0.63566880952E+03  0.16500000000E+03 0.  0.
<mgrwt>
<rscale>  0 0.41486401E+03</rscale>
<asrwt>0</asrwt>
<pdfrwt beam="1">  1        2 0.13942117E+00 0.41486401E+03</pdfrwt>
<pdfrwt beam="2">  1       -2 0.62983489E-02 0.41486401E+03</pdfrwt>
<totfact> 0.41578485E+03</totfact>
</mgrwt>
</event>
<event>
 4    1  0.5312547E-005  0.5865720E+03  0.7818608E-02  0.9933663E-01
         -2   -1    0    0    0  501 -0.00000000000E+00  0.00000000000E+00  0.15284303493E+03  0.15284303495E+03  0.25500000000E-02 0. -1.
          2   -1    0    0  501    0  0.00000000000E+00 -0.00000000000E+00 -0.56277780850E+03  0.56277780851E+03  0.25500000000E-02 0.  1.
    5000001    1    1    2    0    0 -0.18853756359E+03  0.57151182686E+02 -0.32523213026E+02  0.25902785555E+03  0.16500000000E+03 0.  0.
   -5000001    1    1    2    0    0  0.18853756359E+03 -0.57151182686E+02 -0.37741156055E+03  0.45659298791E+03  0.16500000000E+03 0.  0.
<mgrwt>
<rscale>  0 0.58657197E+03</rscale>
<asrwt>0</asrwt>
<pdfrwt beam="1">  1        2 0.80396829E-01 0.58657197E+03</pdfrwt>
<pdfrwt beam="2">  1       -2 0.21834719E-01 0.58657197E+03</pdfrwt>
<totfact> 0.10711325E+03</totfact>
</mgrwt>
</event>
<event>
 4    1  0.5312547E-005  0.7148287E+03  0.7818608E-02  0.9692204E-01
          2   -1    0    0  501    0  0.00000000000E+00  0.00000000000E+00  0.13824205410E+04  0.13824205410E+04  0.25500000000E-02 0.  1.
         -2   -1    0    0    0  501 -0.00000000000E+00 -0.00000000000E+00 -0.92406773346E+02  0.92406773381E+02  0.25500000000E-02 0. -1.
    5000001    1    1    2    0    0 -0.24818356724E+03  0.19524315445E+03  0.70354657165E+03  0.78861762020E+03  0.16500000000E+03 0.  0.
   -5000001    1    1    2    0    0  0.24818356724E+03 -0.19524315445E+03  0.58646719602E+03  0.68620969420E+03  0.16500000000E+03 0.  0.
<mgrwt>
<rscale>  0 0.71482871E+03</rscale>
<asrwt>0</asrwt>
<pdfrwt beam="1">  1        2 0.19748866E+00 0.71482871E+03</pdfrwt>
<pdfrwt beam="2">  1       -2 0.13200967E-01 0.71482871E+03</pdfrwt>
<totfact> 0.74120749E+02</totfact>
</mgrwt>
</event>
<event>
 4    1  0.5312547E-005  0.1152492E+04  0.7818608E-02  0.9155488E-01
          2   -1    0    0  501    0  0.00000000000E+00  0.00000000000E+00  0.36452646498E+04  0.36452646498E+04  0.25500000000E-02 0.  1.
         -2   -1    0    0    0  501 -0.00000000000E+00 -0.00000000000E+00 -0.91093375063E+02  0.91093375099E+02  0.25500000000E-02 0. -1.
    5000001    1    1    2    0    0  0.18530500164E+03 -0.47377305807E+03  0.24726823031E+04  0.25298580249E+04  0.16500000000E+03 0.  0.
   -5000001    1    1    2    0    0 -0.18530500164E+03  0.47377305807E+03  0.10814889717E+04  0.12065000000E+04  0.16500000000E+03 0.  0.
<mgrwt>
<rscale>  0 0.11524920E+04</rscale>
<asrwt>0</asrwt>
<pdfrwt beam="1">  1        2 0.52075211E+00 0.11524920E+04</pdfrwt>
<pdfrwt beam="2">  1       -2 0.13013339E-01 0.11524920E+04</pdfrwt>
<totfact> 0.44264024E+01</totfact>
</mgrwt>
</event>
<event>
 4    1  0.5312547E-005  0.4885023E+03  0.7818608E-02  0.1016824E+00
          2   -1    0    0  501    0  0.00000000000E+00  0.00000000000E+00  0.95330238412E+03  0.95330238413E+03  0.25500000000E-02 0.  1.
         -2   -1    0    0    0  501 -0.00000000000E+00 -0.00000000000E+00 -0.62580999363E+02  0.62580999415E+02  0.25500000000E-02 0. -1.
    5000001    1    1    2    0    0 -0.18021102300E+02 -0.17759909789E+03  0.39582386966E+03  0.46450805751E+03  0.16500000000E+03 0.  0.
   -5000001    1    1    2    0    0  0.18021102300E+02  0.17759909789E+03  0.49489751510E+03  0.55137532603E+03  0.16500000000E+03 0.  0.
<mgrwt>
<rscale>  0 0.48850227E+03</rscale>
<asrwt>0</asrwt>
<pdfrwt beam="1">  1        2 0.13618605E+00 0.48850227E+03</pdfrwt>
<pdfrwt beam="2">  1       -2 0.89401433E-02 0.48850227E+03</pdfrwt>
<totfact> 0.24737670E+03</totfact>
</mgrwt>
</event>
<event>
 4    1  0.5312547E-005  0.6409545E+03  0.7818608E-02  0.9823902E-01
         -2   -1    0    0    0  501 -0.00000000000E+00  0.00000000000E+00  0.85178406925E+02  0.85178406963E+02  0.25500000000E-02 0. -1.
          2   -1    0    0  501    0  0.00000000000E+00 -0.00000000000E+00 -0.12057710344E+04  0.12057710345E+04  0.25500000000E-02 0.  1.
    5000001    1    1    2    0    0  0.23825267457E+03 -0.13330164973E+03 -0.49831588908E+03  0.59167338293E+03  0.16500000000E+03 0.  0.
   -5000001    1    1    2    0    0 -0.23825267457E+03  0.13330164973E+03 -0.62227673845E+03  0.69927605849E+03  0.16500000000E+03 0.  0.
<mgrwt>
<rscale>  0 0.64095446E+03</rscale>
<asrwt>0</asrwt>
<pdfrwt beam="1">  1        2 0.17225299E+00 0.64095446E+03</pdfrwt>
<pdfrwt beam="2">  1       -2 0.12168345E-01 0.64095446E+03</pdfrwt>
<totfact> 0.10630378E+03</totfact>
</mgrwt>
</event>
<event>
 4    1  0.5312547E-005  0.7179816E+03  0.7818608E-02  0.9686966E-01
          2   -1    0    0  501    0  0.00000000000E+00  0.00000000000E+00  0.22047533506E+04  0.22047533506E+04  0.25500000000E-02 0.  1.
         -2   -1    0    0    0  501 -0.00000000000E+00 -0.00000000000E+00 -0.58452982806E+02  0.58452982862E+02  0.25500000000E-02 0. -1.
    5000001    1    1    2    0    0 -0.18140626808E+03 -0.25103432616E+03  0.13116129132E+04  0.13577480993E+04  0.16500000000E+03 0.  0.
   -5000001    1    1    2    0    0  0.18140626808E+03  0.25103432616E+03  0.83468745463E+03  0.90545823423E+03  0.16500000000E+03 0.  0.
<mgrwt>
<rscale>  0 0.71798164E+03</rscale>
<asrwt>0</asrwt>
<pdfrwt beam="1">  1        2 0.31496470E+00 0.71798164E+03</pdfrwt>
<pdfrwt beam="2">  1       -2 0.83504278E-02 0.71798164E+03</pdfrwt>
<totfact> 0.59328385E+02</totfact>
</mgrwt>
</event>
<event>
 4    1  0.5312547E-005  0.1400530E+04  0.7818608E-02  0.8953435E-01
          2   -1    0    0  501    0  0.00000000000E+00  0.00000000000E+00  0.89175045735E+03  0.89175045736E+03  0.25500000000E-02 0.  1.
         -2   -1    0    0    0  501 -0.00000000000E+00 -0.00000000000E+00 -0.54989731460E+03  0.54989731460E+03  0.25500000000E-02 0. -1.
    5000001    1    1    2    0    0 -0.44151115741E+03 -0.45005688713E+03  0.43469733505E+03  0.78337097014E+03  0.16500000000E+03 0.  0.
   -5000001    1    1    2    0    0  0.44151115741E+03  0.45005688713E+03 -0.92844192291E+02  0.65827680182E+03  0.16500000000E+03 0.  0.
<mgrwt>
<rscale>  0 0.14005302E+04</rscale>
<asrwt>0</asrwt>
<pdfrwt beam="1">  1        2 0.12739292E+00 0.14005302E+04</pdfrwt>
<pdfrwt beam="2">  1       -2 0.78556759E-01 0.14005302E+04</pdfrwt>
<totfact> 0.46228810E+01</totfact>
</mgrwt>
</event>
<event>
 4    1  0.5312547E-005  0.5401155E+03  0.7818608E-02  0.1003808E+00
         -2   -1    0    0    0  501 -0.00000000000E+00  0.00000000000E+00  0.10937724301E+03  0.10937724304E+03  0.25500000000E-02 0. -1.
          2   -1    0    0  501    0  0.00000000000E+00 -0.00000000000E+00 -0.66678572599E+03  0.66678572600E+03  0.25500000000E-02 0.  1.
    5000001    1    1    2    0    0 -0.21216207768E+03  0.58824636456E+01 -0.31558961875E+03  0.41457105307E+03  0.16500000000E+03 0.  0.
   -5000001    1    1    2    0    0  0.21216207768E+03 -0.58824636456E+01 -0.24181886424E+03  0.36159191596E+03  0.16500000000E+03 0.  0.
<mgrwt>
<rscale>  0 0.54011549E+03</rscale>
<asrwt>0</asrwt>
<pdfrwt beam="1">  1        2 0.95255102E-01 0.54011549E+03</pdfrwt>
<pdfrwt beam="2">  1       -2 0.15625321E-01 0.54011549E+03</pdfrwt>
<totfact> 0.15608311E+03</totfact>
</mgrwt>
</event>
<event>
 4    1  0.5312547E-005  0.5001427E+03  0.7818608E-02  0.1013742E+00
          2   -1    0    0  501    0  0.00000000000E+00  0.00000000000E+00  0.18036292911E+04  0.18036292911E+04  0.25500000000E-02 0.  1.
         -2   -1    0    0    0  501 -0.00000000000E+00 -0.00000000000E+00 -0.34672135385E+02  0.34672135478E+02  0.25500000000E-02 0. -1.
    5000001    1    1    2    0    0 -0.60094751215E+02  0.17673723251E+03  0.96358846721E+03  0.99527642523E+03  0.16500000000E+03 0.  0.
   -5000001    1    1    2    0    0  0.60094751215E+02 -0.17673723251E+03  0.80536868853E+03  0.84302500138E+03  0.16500000000E+03 0.  0.
<mgrwt>
<rscale>  0 0.50014270E+03</rscale>
<asrwt>0</asrwt>
<pdfrwt beam="1">  1        2 0.25766137E+00 0.50014270E+03</pdfrwt>
<pdfrwt beam="2">  1       -2 0.49531614E-02 0.50014270E+03</pdfrwt>
<totfact> 0.21720417E+03</totfact>
</mgrwt>
</event>
<event>
 4    1  0.5312547E-005  0.1207569E+04  0.7818608E-02  0.9106257E-01
          2   -1    0    0  501    0  0.00000000000E+00  0.00000000000E+00  0.21717228320E+04  0.21717228320E+04  0.25500000000E-02 0.  1.
         -2   -1    0    0    0  501 -0.00000000000E+00 -0.00000000000E+00 -0.16786482988E+03  0.16786482990E+03  0.25500000000E-02 0. -1.
    5000001    1    1    2    0    0 -0.49856360606E+03  0.29443277846E+03  0.91368410761E+03  0.10942120356E+04  0.16500000000E+03 0.  0.
   -5000001    1    1    2    0    0  0.49856360606E+03 -0.29443277846E+03  0.10901738945E+04  0.12453756263E+04  0.16500000000E+03 0.  0.
<mgrwt>
<rscale>  0 0.12075693E+04</rscale>
<asrwt>0</asrwt>
<pdfrwt beam="1">  1        2 0.31024611E+00 0.12075693E+04</pdfrwt>
<pdfrwt beam="2">  1       -2 0.23980690E-01 0.12075693E+04</pdfrwt>
<totfact> 0.99959767E+01</totfact>
</mgrwt>
</event>
<event>
 4    1  0.5312547E-005  0.3765519E+03  0.7818608E-02  0.1052216E+00
         -2   -1    0    0    0  501 -0.00000000000E+00  0.00000000000E+00  0.33759575595E+03  0.33759575596E+03  0.25500000000E-02 0. -1.
          2   -1    0    0  501    0  0.00000000000E+00 -0.00000000000E+00 -0.10500083755E+03  0.10500083758E+03  0.25500000000E-02 0.  1.
    5000001    1    1    2    0    0 -0.50706891223E+02 -0.73818385589E+02  0.13302336199E+03  0.23008815203E+03  0.16500000000E+03 0.  0.
   -5000001    1    1    2    0    0  0.50706891223E+02  0.73818385589E+02  0.99571556406E+02  0.21250844151E+03  0.16500000000E+03 0.  0.
<mgrwt>
<rscale>  0 0.37655192E+03</rscale>
<asrwt>0</asrwt>
<pdfrwt beam="1">  1        2 0.15000119E-01 0.37655192E+03</pdfrwt>
<pdfrwt beam="2">  1       -2 0.48227966E-01 0.37655192E+03</pdfrwt>
<totfact> 0.16204360E+03</totfact>
</mgrwt>
</event>
<event>
 4    1  0.5312547E-005  0.7421950E+03  0.7818608E-02  0.9647675E-01
          2   -1    0    0  501    0  0.00000000000E+00  0.00000000000E+00  0.21398505205E+03  0.21398505207E+03  0.25500000000E-02 0.  1.
         -2   -1    0    0    0  501 -0.00000000000E+00 -0.00000000000E+00 -0.64356522437E+03  0.64356522437E+03  0.25500000000E-02 0. -1.
    5000001    1    1    2    0    0  0.25426078092E+03  0.21389797528E+03 -0.20398519840E+03  0.42336255114E+03  0.16500000000E+03 0.  0.
   -5000001    1    1    2    0    0 -0.25426078092E+03 -0.21389797528E+03 -0.22559497392E+03  0.43418772530E+03  0.16500000000E+03 0.  0.
<mgrwt>
<rscale>  0 0.74219496E+03</rscale>
<asrwt>0</asrwt>
<pdfrwt beam="1">  1        2 0.30569294E-01 0.74219496E+03</pdfrwt>
<pdfrwt beam="2">  1       -2 0.91937888E-01 0.74219496E+03</pdfrwt>
<totfact> 0.17681098E+02</totfact>
</mgrwt>
</event>
<event>
 4    1  0.5312547E-005  0.5399801E+03  0.7818608E-02  0.1003840E+00
          2   -1    0    0  501    0  0.00000000000E+00  0.00000000000E+00  0.38832335206E+03  0.38832335207E+03  0.25500000000E-02 0.  1.
         -2   -1    0    0    0  501 -0.00000000000E+00 -0.00000000000E+00 -0.18771632095E+03  0.18771632097E+03  0.25500000000E-02 0. -1.
    5000001    1    1    2    0    0 -0.72919466998E+02  0.18479079744E+03  0.18433393771E+03  0.31728360827E+03  0.16500000000E+03 0.  0.
   -5000001    1    1    2    0    0  0.72919466998E+02 -0.18479079744E+03  0.16273093394E+02  0.25875606477E+03  0.16500000000E+03 0.  0.
<mgrwt>
<rscale>  0 0.53998011E+03</rscale>
<asrwt>0</asrwt>
<pdfrwt beam="1">  1        2 0.55474765E-01 0.53998011E+03</pdfrwt>
<pdfrwt beam="2">  1       -2 0.26816617E-01 0.53998011E+03</pdfrwt>
<totfact> 0.11282698E+03</totfact>
</mgrwt>
</event>
<event>
 4    1  0.5312547E-005  0.4041952E+03  0.7818608E-02  0.1042337E+00
         -2   -1    0    0    0  501 -0.00000000000E+00  0.00000000000E+00  0.18621536875E+02  0.18621537050E+02  0.25500000000E-02 0. -1.
          2   -1    0    0  501    0  0.00000000000E+00 -0.00000000000E+00 -0.21933444286E+04  0.21933444286E+04  0.25500000000E-02 0.  1.
    5000001    1    1    2    0    0 -0.36254158794E+02 -0.66168461644E+02 -0.60015925700E+03  0.62698386192E+03  0.16500000000E+03 0.  0.
   -5000001    1    1    2    0    0  0.36254158794E+02  0.66168461644E+02 -0.15745636347E+04  0.15849821037E+04  0.16500000000E+03 0.  0.
<mgrwt>
<rscale>  0 0.40419522E+03</rscale>
<asrwt>0</asrwt>
<pdfrwt beam="1">  1        2 0.31333475E+00 0.40419522E+03</pdfrwt>
<pdfrwt beam="2">  1       -2 0.26602210E-02 0.40419522E+03</pdfrwt>
<totfact> 0.35869183E+03</totfact>
</mgrwt>
</event>
<event>
 4    1  0.5312547E-005  0.4280088E+03  0.7818608E-02  0.1034491E+00
         -2   -1    0    0    0  501 -0.00000000000E+00  0.00000000000E+00  0.72408675497E+03  0.72408675497E+03  0.25500000000E-02 0. -1.
          2   -1    0    0  501    0  0.00000000000E+00 -0.00000000000E+00 -0.63249176795E+02  0.63249176846E+02  0.25500000000E-02 0.  1.
    5000001    1    1    2    0    0 -0.12119820258E+03 -0.40239947397E+02  0.24287883754E+03  0.32019273477E+03  0.16500000000E+03 0.  0.
   -5000001    1    1    2    0    0  0.12119820258E+03  0.40239947397E+02  0.41795874064E+03  0.46714319705E+03  0.16500000000E+03 0.  0.
<mgrwt>
<rscale>  0 0.42800884E+03</rscale>
<asrwt>0</asrwt>
<pdfrwt beam="1">  1        2 0.90355982E-02 0.42800884E+03</pdfrwt>
<pdfrwt beam="2">  1       -2 0.10344095E+00 0.42800884E+03</pdfrwt>
<totfact> 0.58073556E+02</totfact>
</mgrwt>
</event>
<event>
 4    1  0.5312547E-005  0.6247154E+03  0.7818608E-02  0.9855416E-01
         -2   -1    0    0    0  501 -0.00000000000E+00  0.00000000000E+00  0.46498336386E+03  0.46498336387E+03  0.25500000000E-02 0. -1.
          2   -1    0    0  501    0  0.00000000000E+00 -0.00000000000E+00 -0.20982976015E+03  0.20982976017E+03  0.25500000000E-02 0.  1.
    5000001    1    1    2    0    0 -0.23400794732E+03 -0.11648226866E+03  0.17605940433E+03  0.35573831980E+03  0.16500000000E+03 0.  0.
   -5000001    1    1    2    0    0  0.23400794732E+03  0.11648226866E+03  0.79094199380E+02  0.31907480423E+03  0.16500000000E+03 0.  0.
<mgrwt>
<rscale>  0 0.62471545E+03</rscale>
<asrwt>0</asrwt>
<pdfrwt beam="1">  1        2 0.29975680E-01 0.62471545E+03</pdfrwt>
<pdfrwt beam="2">  1       -2 0.66426195E-01 0.62471545E+03</pdfrwt>
<totfact> 0.37458598E+02</totfact>
</mgrwt>
</event>
<event>
 4    1  0.5312547E-005  0.4961695E+03  0.7818608E-02  0.1014784E+00
          2   -1    0    0  501    0  0.00000000000E+00  0.00000000000E+00  0.43558147460E+03  0.43558147460E+03  0.25500000000E-02 0.  1.
         -2   -1    0    0    0  501 -0.00000000000E+00 -0.00000000000E+00 -0.14129630454E+03  0.14129630456E+03  0.25500000000E-02 0. -1.
    5000001    1    1    2    0    0  0.28885064723E+02 -0.16683876474E+03  0.59737475738E+02  0.24385054110E+03  0.16500000000E+03 0.  0.
   -5000001    1    1    2    0    0 -0.28885064723E+02  0.16683876474E+03  0.23454769432E+03  0.33302723807E+03  0.16500000000E+03 0.  0.
<mgrwt>
<rscale>  0 0.49616954E+03</rscale>
<asrwt>0</asrwt>
<pdfrwt beam="1">  1        2 0.62225925E-01 0.49616954E+03</pdfrwt>
<pdfrwt beam="2">  1       -2 0.20185186E-01 0.49616954E+03</pdfrwt>
<totfact> 0.16433361E+03</totfact>
</mgrwt>
</event>
<event>
 4    1  0.5312547E-005  0.7075783E+03  0.7818608E-02  0.9704359E-01
         -2   -1    0    0    0  501 -0.00000000000E+00  0.00000000000E+00  0.14428591860E+03  0.14428591863E+03  0.25500000000E-02 0. -1.
          2   -1    0    0  501    0  0.00000000000E+00 -0.00000000000E+00 -0.86749114633E+03  0.86749114633E+03  0.25500000000E-02 0.  1.
    5000001    1    1    2    0    0 -0.23642821207E+03 -0.16609966643E+03 -0.18968920864E+03  0.38300704240E+03  0.16500000000E+03 0.  0.
   -5000001    1    1    2    0    0  0.23642821207E+03  0.16609966643E+03 -0.53351601908E+03  0.62877002256E+03  0.16500000000E+03 0.  0.
<mgrwt>
<rscale>  0 0.70757828E+03</rscale>
<asrwt>0</asrwt>
<pdfrwt beam="1">  1        2 0.12392730E+00 0.70757828E+03</pdfrwt>
<pdfrwt beam="2">  1       -2 0.20612275E-01 0.70757828E+03</pdfrwt>
<totfact> 0.69388861E+02</totfact>
</mgrwt>
</event>
<event>
 4    1  0.5312547E-005  0.5817968E+03  0.7818608E-02  0.9943909E-01
         -2   -1    0    0    0  501 -0.00000000000E+00  0.00000000000E+00  0.52954484546E+02  0.52954484608E+02  0.25500000000E-02 0. -1.
          2   -1    0    0  501    0  0.00000000000E+00 -0.00000000000E+00 -0.15980114609E+04  0.15980114609E+04  0.25500000000E-02 0.  1.
    5000001    1    1    2    0    0  0.11836415834E+03 -0.18043977410E+03 -0.10678170912E+04  0.11018289006E+04  0.16500000000E+03 0.  0.
   -5000001    1    1    2    0    0 -0.11836415834E+03  0.18043977410E+03 -0.47723988518E+03  0.54913704489E+03  0.16500000000E+03 0.  0.
<mgrwt>
<rscale>  0 0.58179678E+03</rscale>
<asrwt>0</asrwt>
<pdfrwt beam="1">  1        2 0.22828732E+00 0.58179678E+03</pdfrwt>
<pdfrwt beam="2">  1       -2 0.75649274E-02 0.58179678E+03</pdfrwt>
<totfact> 0.14193756E+03</totfact>
</mgrwt>
</event>
<event>
 4    1  0.5312547E-005  0.5152746E+03  0.7818608E-02  0.1009867E+00
          2   -1    0    0  501    0  0.00000000000E+00  0.00000000000E+00  0.74465573394E+03  0.74465573394E+03  0.25500000000E-02 0.  1.
         -2   -1    0    0    0  501 -0.00000000000E+00 -0.00000000000E+00 -0.89137810192E+02  0.89137810229E+02  0.25500000000E-02 0. -1.
    5000001    1    1    2    0    0 -0.16537983924E+03  0.85424078704E+02  0.43635886492E+03  0.50227664036E+03  0.16500000000E+03 0.  0.
   -5000001    1    1    2    0    0  0.16537983924E+03 -0.85424078704E+02  0.21915905882E+03  0.33151690381E+03  0.16500000000E+03 0.  0.
<mgrwt>
<rscale>  0 0.51527461E+03</rscale>
<asrwt>0</asrwt>
<pdfrwt beam="1">  1        2 0.10637939E+00 0.51527461E+03</pdfrwt>
<pdfrwt beam="2">  1       -2 0.12733973E-01 0.51527461E+03</pdfrwt>
<totfact> 0.19188804E+03</totfact>
</mgrwt>
</event>
<event>
 4    1  0.5312547E-005  0.7264611E+03  0.7818608E-02  0.9673020E-01
         -2   -1    0    0    0  501 -0.00000000000E+00  0.00000000000E+00  0.51262273826E+02  0.51262273889E+02  0.25500000000E-02 0. -1.
          2   -1    0    0  501    0  0.00000000000E+00 -0.00000000000E+00 -0.25737529986E+04  0.25737529986E+04  0.25500000000E-02 0.  1.
    5000001    1    1    2    0    0  0.25520034025E+03 -0.19770940481E+03 -0.13416560144E+04  0.13897777101E+04  0.16500000000E+03 0.  0.
   -5000001    1    1    2    0    0 -0.25520034025E+03  0.19770940481E+03 -0.11808347104E+04  0.12352375625E+04  0.16500000000E+03 0.  0.
<mgrwt>
<rscale>  0 0.72646110E+03</rscale>
<asrwt>0</asrwt>
<pdfrwt beam="1">  1        2 0.36767892E+00 0.72646110E+03</pdfrwt>
<pdfrwt beam="2">  1       -2 0.73231836E-02 0.72646110E+03</pdfrwt>
<totfact> 0.47316319E+02</totfact>
</mgrwt>
</event>
<event>
 4    1  0.5312547E-005  0.3962149E+03  0.7818608E-02  0.1045098E+00
         -2   -1    0    0    0  501 -0.00000000000E+00  0.00000000000E+00  0.10110042162E+03  0.10110042165E+03  0.25500000000E-02 0. -1.
          2   -1    0    0  501    0  0.00000000000E+00 -0.00000000000E+00 -0.38819378451E+03  0.38819378452E+03  0.25500000000E-02 0.  1.
    5000001    1    1    2    0    0  0.30447173243E+02 -0.10351630929E+03 -0.16758481991E+03  0.25875148021E+03  0.16500000000E+03 0.  0.
   -5000001    1    1    2    0    0 -0.30447173243E+02  0.10351630929E+03 -0.11950854298E+03  0.23054272596E+03  0.16500000000E+03 0.  0.
<mgrwt>
<rscale>  0 0.39621487E+03</rscale>
<asrwt>0</asrwt>
<pdfrwt beam="1">  1        2 0.55456254E-01 0.39621487E+03</pdfrwt>
<pdfrwt beam="2">  1       -2 0.14442918E-01 0.39621487E+03</pdfrwt>
<totfact> 0.32847190E+03</totfact>
</mgrwt>
</event>
<event>
 4    1  0.5312547E-005  0.4654941E+03  0.7818608E-02  0.1023200E+00
         -2   -1    0    0    0  501 -0.00000000000E+00  0.00000000000E+00  0.45561191101E+03  0.45561191101E+03  0.25500000000E-02 0. -1.
          2   -1    0    0  501    0  0.00000000000E+00 -0.00000000000E+00 -0.11889765723E+03  0.11889765726E+03  0.25500000000E-02 0.  1.
    5000001    1    1    2    0    0  0.86259065920E+01 -0.13732110322E+03  0.27884806125E+03  0.35201240449E+03  0.16500000000E+03 0.  0.
   -5000001    1    1    2    0    0 -0.86259065920E+01  0.13732110322E+03  0.57866192525E+02  0.22249716378E+03  0.16500000000E+03 0.  0.
<mgrwt>
<rscale>  0 0.46549410E+03</rscale>
<asrwt>0</asrwt>
<pdfrwt beam="1">  1        2 0.16985380E-01 0.46549410E+03</pdfrwt>
<pdfrwt beam="2">  1       -2 0.65087415E-01 0.46549410E+03</pdfrwt>
<totfact> 0.75477373E+02</totfact>
</mgrwt>
</event>
<event>
 4    1  0.5312547E-005  0.7453452E+03  0.7818608E-02  0.9642681E-01
         -2   -1    0    0    0  501 -0.00000000000E+00  0.00000000000E+00  0.63091579638E+03  0.63091579638E+03  0.25500000000E-02 0. -1.
          2   -1    0    0  501    0  0.00000000000E+00 -0.00000000000E+00 -0.22013219154E+03  0.22013219156E+03  0.25500000000E-02 0.  1.
    5000001    1    1    2    0    0 -0.28105815881E+03  0.13461546751E+03  0.67686263219E+02  0.35905632282E+03  0.16500000000E+03 0.  0.
   -5000001    1    1    2    0    0  0.28105815881E+03 -0.13461546751E+03  0.34309734161E+03  0.49199166512E+03  0.16500000000E+03 0.  0.
<mgrwt>
<rscale>  0 0.74534523E+03</rscale>
<asrwt>0</asrwt>
<pdfrwt beam="1">  1        2 0.31447455E-01 0.74534523E+03</pdfrwt>
<pdfrwt beam="2">  1       -2 0.90130830E-01 0.74534523E+03</pdfrwt>
<totfact> 0.17927671E+02</totfact>
</mgrwt>
</event>
<event>
 4    1  0.5312547E-005  0.9285830E+03  0.7818608E-02  0.9390540E-01
         -2   -1    0    0    0  501 -0.00000000000E+00  0.00000000000E+00  0.33232665767E+03  0.33232665768E+03  0.25500000000E-02 0. -1.
          2   -1    0    0  501    0  0.00000000000E+00 -0.00000000000E+00 -0.64865880800E+03  0.64865880801E+03  0.25500000000E-02 0.  1.
    5000001    1    1    2    0    0 -0.37661302098E+03 -0.37614155523E+02 -0.38249184074E+03  0.56282963719E+03  0.16500000000E+03 0.  0.
   -5000001    1    1    2    0    0  0.37661302098E+03  0.37614155523E+02  0.66159690409E+02  0.41815582850E+03  0.16500000000E+03 0.  0.
<mgrwt>
<rscale>  0 0.92858304E+03</rscale>
<asrwt>0</asrwt>
<pdfrwt beam="1">  1        2 0.92665543E-01 0.92858304E+03</pdfrwt>
<pdfrwt beam="2">  1       -2 0.47475237E-01 0.92858304E+03</pdfrwt>
<totfact> 0.20801769E+02</totfact>
</mgrwt>
</event>
<event>
 4    1  0.5312547E-005  0.7535193E+03  0.7818608E-02  0.9629845E-01
          2   -1    0    0  501    0  0.00000000000E+00  0.00000000000E+00  0.54485947170E+03  0.54485947170E+03  0.25500000000E-02 0.  1.
         -2   -1    0    0    0  501 -0.00000000000E+00 -0.00000000000E+00 -0.26052188859E+03  0.26052188861E+03  0.25500000000E-02 0. -1.
    5000001    1    1    2    0    0  0.29741060852E+03 -0.10278072885E+03  0.82201786887E+01  0.35540050593E+03  0.16500000000E+03 0.  0.
   -5000001    1    1    2    0    0 -0.29741060852E+03  0.10278072885E+03  0.27611740441E+03  0.44998085437E+03  0.16500000000E+03 0.  0.
<mgrwt>
<rscale>  0 0.75351926E+03</rscale>
<asrwt>0</asrwt>
<pdfrwt beam="1">  1        2 0.77837069E-01 0.75351926E+03</pdfrwt>
<pdfrwt beam="2">  1       -2 0.37217412E-01 0.75351926E+03</pdfrwt>
<totfact> 0.41589643E+02</totfact>
</mgrwt>
</event>
<event>
 4    1  0.5312547E-005  0.6837058E+03  0.7818608E-02  0.9745510E-01
         -2   -1    0    0    0  501 -0.00000000000E+00  0.00000000000E+00  0.62270540747E+03  0.62270540747E+03  0.25500000000E-02 0. -1.
          2   -1    0    0  501    0  0.00000000000E+00 -0.00000000000E+00 -0.18767044022E+03  0.18767044024E+03  0.25500000000E-02 0.  1.
    5000001    1    1    2    0    0  0.17630891431E+03  0.23948567801E+03  0.25857942474E+03  0.42723125136E+03  0.16500000000E+03 0.  0.
   -5000001    1    1    2    0    0 -0.17630891431E+03 -0.23948567801E+03  0.17645554250E+03  0.38314459636E+03  0.16500000000E+03 0.  0.
<mgrwt>
<rscale>  0 0.68370578E+03</rscale>
<asrwt>0</asrwt>
<pdfrwt beam="1">  1        2 0.26810063E-01 0.68370578E+03</pdfrwt>
<pdfrwt beam="2">  1       -2 0.88957915E-01 0.68370578E+03</pdfrwt>
<totfact> 0.22176827E+02</totfact>
</mgrwt>
</event>
<event>
 4    1  0.5312547E-005  0.6726171E+03  0.7818608E-02  0.9765241E-01
         -2   -1    0    0    0  501 -0.00000000000E+00  0.00000000000E+00  0.36429775014E+02  0.36429775103E+02  0.25500000000E-02 0. -1.
          2   -1    0    0  501    0  0.00000000000E+00 -0.00000000000E+00 -0.31046978698E+04  0.31046978698E+04  0.25500000000E-02 0.  1.
    5000001    1    1    2    0    0 -0.17382433087E+03  0.22488282842E+03 -0.18673534890E+04  0.18960541230E+04  0.16500000000E+03 0.  0.
   -5000001    1    1    2    0    0  0.17382433087E+03 -0.22488282842E+03 -0.12009146058E+04  0.12450735219E+04  0.16500000000E+03 0.  0.
<mgrwt>
<rscale>  0 0.67261711E+03</rscale>
<asrwt>0</asrwt>
<pdfrwt beam="1">  1        2 0.44352810E+00 0.67261711E+03</pdfrwt>
<pdfrwt beam="2">  1       -2 0.52042555E-02 0.67261711E+03</pdfrwt>
<totfact> 0.42296852E+02</totfact>
</mgrwt>
</event>
<event>
 4    1  0.5312547E-005  0.4514396E+03  0.7818608E-02  0.1027294E+00
          2   -1    0    0  501    0  0.00000000000E+00  0.00000000000E+00  0.10120988773E+03  0.10120988776E+03  0.25500000000E-02 0.  1.
         -2   -1    0    0    0  501 -0.00000000000E+00 -0.00000000000E+00 -0.50340375694E+03  0.50340375695E+03  0.25500000000E-02 0. -1.
    5000001    1    1    2    0    0 -0.10231256863E+03 -0.89054869972E+02 -0.10335725104E+03  0.23728959713E+03  0.16500000000E+03 0.  0.
   -5000001    1    1    2    0    0  0.10231256863E+03  0.89054869972E+02 -0.29883661818E+03  0.36732404758E+03  0.16500000000E+03 0.  0.
<mgrwt>
<rscale>  0 0.45143964E+03</rscale>
<asrwt>0</asrwt>
<pdfrwt beam="1">  1        2 0.14458556E-01 0.45143964E+03</pdfrwt>
<pdfrwt beam="2">  1       -2 0.71914821E-01 0.45143964E+03</pdfrwt>
<totfact> 0.73842127E+02</totfact>
</mgrwt>
</event>
<event>
 4    1  0.5312547E-005  0.1151874E+04  0.7818608E-02  0.9156056E-01
         -2   -1    0    0    0  501 -0.00000000000E+00  0.00000000000E+00  0.24880551379E+03  0.24880551380E+03  0.25500000000E-02 0. -1.
          2   -1    0    0  501    0  0.00000000000E+00 -0.00000000000E+00 -0.13331840942E+04  0.13331840942E+04  0.25500000000E-02 0.  1.
    5000001    1    1    2    0    0 -0.53992490235E+03  0.10865048495E+03 -0.58885930564E+03  0.82298487829E+03  0.16500000000E+03 0.  0.
   -5000001    1    1    2    0    0  0.53992490235E+03 -0.10865048495E+03 -0.49551927476E+03  0.75900472970E+03  0.16500000000E+03 0.  0.
<mgrwt>
<rscale>  0 0.11518742E+04</rscale>
<asrwt>0</asrwt>
<pdfrwt beam="1">  1        2 0.19045487E+00 0.11518742E+04</pdfrwt>
<pdfrwt beam="2">  1       -2 0.35543646E-01 0.11518742E+04</pdfrwt>
<totfact> 0.13231151E+02</totfact>
</mgrwt>
</event>
<event>
 4    1  0.5312547E-005  0.6305513E+03  0.7818608E-02  0.9843974E-01
          2   -1    0    0  501    0  0.00000000000E+00  0.00000000000E+00  0.36112852306E+03  0.36112852307E+03  0.25500000000E-02 0.  1.
         -2   -1    0    0    0  501 -0.00000000000E+00 -0.00000000000E+00 -0.27524477201E+03  0.27524477202E+03  0.25500000000E-02 0. -1.
    5000001    1    1    2    0    0 -0.25597497644E+03 -0.30016326432E+02 -0.33584154344E+02  0.30785883752E+03  0.16500000000E+03 0.  0.
   -5000001    1    1    2    0    0  0.25597497644E+03  0.30016326432E+02  0.11946790540E+03  0.32851445757E+03  0.16500000000E+03 0.  0.
<mgrwt>
<rscale>  0 0.63055131E+03</rscale>
<asrwt>0</asrwt>
<pdfrwt beam="1">  1        2 0.51589789E-01 0.63055131E+03</pdfrwt>
<pdfrwt beam="2">  1       -2 0.39320682E-01 0.63055131E+03</pdfrwt>
<totfact> 0.59682457E+02</totfact>
</mgrwt>
</event>
<event>
 4    1  0.5312547E-005  0.4642372E+03  0.7818608E-02  0.1023559E+00
          2   -1    0    0  501    0  0.00000000000E+00  0.00000000000E+00  0.21795068825E+02  0.21795068974E+02  0.25500000000E-02 0.  1.
         -2   -1    0    0    0  501 -0.00000000000E+00 -0.00000000000E+00 -0.24720749622E+04  0.24720749622E+04  0.25500000000E-02 0. -1.
    5000001    1    1    2    0    0 -0.61196731362E+01  0.11494909627E+03 -0.60321248704E+03  0.63587817202E+03  0.16500000000E+03 0.  0.
   -5000001    1    1    2    0    0  0.61196731362E+01 -0.11494909627E+03 -0.18470674063E+04  0.18579918591E+04  0.16500000000E+03 0.  0.
<mgrwt>
<rscale>  0 0.46423720E+03</rscale>
<asrwt>0</asrwt>
<pdfrwt beam="1">  1        2 0.31135828E-02 0.46423720E+03</pdfrwt>
<pdfrwt beam="2">  1       -2 0.35315339E+00 0.46423720E+03</pdfrwt>
<totfact> 0.51255534E+01</totfact>
</mgrwt>
</event>
<event>
 4    1  0.5312547E-005  0.4061601E+03  0.7818608E-02  0.1041667E+00
         -2   -1    0    0    0  501 -0.00000000000E+00  0.00000000000E+00  0.69754082914E+02  0.69754082961E+02  0.25500000000E-02 0.  1.
          2   -1    0    0  501    0  0.00000000000E+00 -0.00000000000E+00 -0.59124132783E+03  0.59124132783E+03  0.25500000000E-02 0. -1.
    5000001    1    1    2    0    0  0.28282633122E+02 -0.10015642571E+03 -0.35259274784E+03  0.40296136636E+03  0.16500000000E+03 0.  0.
   -5000001    1    1    2    0    0 -0.28282633122E+02  0.10015642571E+03 -0.16889449708E+03  0.25803404444E+03  0.16500000000E+03 0.  0.
<mgrwt>
<rscale>  0 0.40616005E+03</rscale>
<asrwt>0</asrwt>
<pdfrwt beam="1">  1        2 0.84463044E-01 0.40616005E+03</pdfrwt>
<pdfrwt beam="2">  1       -2 0.99648693E-02 0.40616005E+03</pdfrwt>
<totfact> 0.37600731E+03</totfact>
</mgrwt>
</event>
<event>
 4    1  0.5312547E-005  0.4748665E+03  0.7818608E-02  0.1020556E+00
         -2   -1    0    0    0  501 -0.00000000000E+00  0.00000000000E+00  0.21416957623E+03  0.21416957625E+03  0.25500000000E-02 0. -1.
          2   -1    0    0  501    0  0.00000000000E+00 -0.00000000000E+00 -0.26322393610E+03  0.26322393611E+03  0.25500000000E-02 0.  1.
    5000001    1    1    2    0    0  0.64797911536E+02 -0.11824517641E+03 -0.12981686810E+03  0.24951575166E+03  0.16500000000E+03 0.  0.
   -5000001    1    1    2    0    0 -0.64797911536E+02  0.11824517641E+03  0.80762508232E+02  0.22787776069E+03  0.16500000000E+03 0.  0.
<mgrwt>
<rscale>  0 0.47486654E+03</rscale>
<asrwt>0</asrwt>
<pdfrwt beam="1">  1        2 0.37603419E-01 0.47486654E+03</pdfrwt>
<pdfrwt beam="2">  1       -2 0.30595654E-01 0.47486654E+03</pdfrwt>
<totfact> 0.13596667E+03</totfact>
</mgrwt>
</event>
<event>
 4    1  0.5312547E-005  0.4802858E+03  0.7818608E-02  0.1019057E+00
          2   -1    0    0  501    0  0.00000000000E+00  0.00000000000E+00  0.90413025831E+03  0.90413025831E+03  0.25500000000E-02 0.  1.
         -2   -1    0    0    0  501 -0.00000000000E+00 -0.00000000000E+00 -0.63783525948E+02  0.63783525999E+02  0.25500000000E-02 0. -1.
    5000001    1    1    2    0    0  0.78636324291E+02 -0.15531067992E+03  0.44389364772E+03  0.50455093824E+03  0.16500000000E+03 0.  0.
   -5000001    1    1    2    0    0 -0.78636324291E+02  0.15531067992E+03  0.39645308464E+03  0.46336284607E+03  0.16500000000E+03 0.  0.
<mgrwt>
<rscale>  0 0.48028581E+03</rscale>
<asrwt>0</asrwt>
<pdfrwt beam="1">  1        2 0.12916147E+00 0.48028581E+03</pdfrwt>
<pdfrwt beam="2">  1       -2 0.91119323E-02 0.48028581E+03</pdfrwt>
<totfact> 0.25766164E+03</totfact>
</mgrwt>
</event>
<event>
 4    1  0.5312547E-005  0.3850002E+03  0.7818608E-02  0.1049101E+00
          2   -1    0    0  501    0  0.00000000000E+00  0.00000000000E+00  0.10718766789E+04  0.10718766789E+04  0.25500000000E-02 0.  1.
         -2   -1    0    0    0  501 -0.00000000000E+00 -0.00000000000E+00 -0.34571415346E+02  0.34571415440E+02  0.25500000000E-02 0. -1.
    5000001    1    1    2    0    0  0.21523040165E+02  0.61563783770E+02  0.73329106575E+03  0.75444955288E+03  0.16500000000E+03 0.  0.
   -5000001    1    1    2    0    0 -0.21523040165E+02 -0.61563783770E+02  0.30401419784E+03  0.35199854150E+03  0.16500000000E+03 0.  0.
<mgrwt>
<rscale>  0 0.38500023E+03</rscale>
<asrwt>0</asrwt>
<pdfrwt beam="1">  1        2 0.15312528E+00 0.38500023E+03</pdfrwt>
<pdfrwt beam="2">  1       -2 0.49387723E-02 0.38500023E+03</pdfrwt>
<totfact> 0.53047116E+03</totfact>
</mgrwt>
</event>
<event>
 4    1  0.5312547E-005  0.6280261E+03  0.7818608E-02  0.9848908E-01
         -2   -1    0    0    0  501 -0.00000000000E+00  0.00000000000E+00  0.36533611980E+02  0.36533612069E+02  0.25500000000E-02 0. -1.
          2   -1    0    0  501    0  0.00000000000E+00 -0.00000000000E+00 -0.26989993332E+04  0.26989993332E+04  0.25500000000E-02 0.  1.
    5000001    1    1    2    0    0  0.21756842002E+03  0.14814243236E+03 -0.11317694928E+04  0.11736308545E+04  0.16500000000E+03 0.  0.
   -5000001    1    1    2    0    0 -0.21756842002E+03 -0.14814243236E+03 -0.15306962284E+04  0.15619020908E+04  0.16500000000E+03 0.  0.
<mgrwt>
<rscale>  0 0.62802610E+03</rscale>
<asrwt>0</asrwt>
<pdfrwt beam="1">  1        2 0.38557121E+00 0.62802610E+03</pdfrwt>
<pdfrwt beam="2">  1       -2 0.52190891E-02 0.62802610E+03</pdfrwt>
<totfact> 0.69914088E+02</totfact>
</mgrwt>
</event>
<event>
 4    1  0.5312547E-005  0.6410609E+03  0.7818608E-02  0.9823699E-01
         -2   -1    0    0    0  501 -0.00000000000E+00  0.00000000000E+00  0.60748039045E+03  0.60748039046E+03  0.25500000000E-02 0. -1.
          2   -1    0    0  501    0  0.00000000000E+00 -0.00000000000E+00 -0.16912442463E+03  0.16912442465E+03  0.25500000000E-02 0.  1.
    5000001    1    1    2    0    0 -0.21518845724E+03 -0.16014302107E+03  0.14686715312E+03  0.34748643138E+03  0.16500000000E+03 0.  0.
   -5000001    1    1    2    0    0  0.21518845724E+03  0.16014302107E+03  0.29148881270E+03  0.42911838373E+03  0.16500000000E+03 0.  0.
<mgrwt>
<rscale>  0 0.64106091E+03</rscale>
<asrwt>0</asrwt>
<pdfrwt beam="1">  1        2 0.24160632E-01 0.64106091E+03</pdfrwt>
<pdfrwt beam="2">  1       -2 0.86782912E-01 0.64106091E+03</pdfrwt>
<totfact> 0.26468663E+02</totfact>
</mgrwt>
</event>
<event>
 4    1  0.5312547E-005  0.6780384E+03  0.7818608E-02  0.9755544E-01
          2   -1    0    0  501    0  0.00000000000E+00  0.00000000000E+00  0.45788031265E+03  0.45788031266E+03  0.25500000000E-02 0.  1.
         -2   -1    0    0    0  501 -0.00000000000E+00 -0.00000000000E+00 -0.25101324596E+03  0.25101324597E+03  0.25500000000E-02 0. -1.
    5000001    1    1    2    0    0  0.93659912713E+02 -0.15272853776E+03  0.34998435215E+03  0.42639445616E+03  0.16500000000E+03 0.  0.
   -5000001    1    1    2    0    0 -0.93659912713E+02  0.15272853776E+03 -0.14311728546E+03  0.28249910247E+03  0.16500000000E+03 0.  0.
<mgrwt>
<rscale>  0 0.67803842E+03</rscale>
<asrwt>0</asrwt>
<pdfrwt beam="1">  1        2 0.65411474E-01 0.67803842E+03</pdfrwt>
<pdfrwt beam="2">  1       -2 0.35859035E-01 0.67803842E+03</pdfrwt>
<totfact> 0.54603905E+02</totfact>
</mgrwt>
</event>
<event>
 4    1  0.5312547E-005  0.6063863E+03  0.7818608E-02  0.9892244E-01
         -2   -1    0    0    0  501 -0.00000000000E+00  0.00000000000E+00  0.60305256225E+02  0.60305256279E+02  0.25500000000E-02 0. -1.
          2   -1    0    0  501    0  0.00000000000E+00 -0.00000000000E+00 -0.15243461487E+04  0.15243461487E+04  0.25500000000E-02 0.  1.
    5000001    1    1    2    0    0  0.23935091950E+03 -0.10164973661E+02 -0.95543437501E+03  0.99873521731E+03  0.16500000000E+03 0.  0.
   -5000001    1    1    2    0    0 -0.23935091950E+03  0.10164973661E+02 -0.50860651745E+03  0.58591618765E+03  0.16500000000E+03 0.  0.
<mgrwt>
<rscale>  0 0.60638630E+03</rscale>
<asrwt>0</asrwt>
<pdfrwt beam="1">  1        2 0.21776371E+00 0.60638630E+03</pdfrwt>
<pdfrwt beam="2">  1       -2 0.86150375E-02 0.60638630E+03</pdfrwt>
<totfact> 0.12581116E+03</totfact>
</mgrwt>
</event>
<event>
 4    1  0.5312547E-005  0.4865119E+03  0.7818608E-02  0.1017361E+00
          2   -1    0    0  501    0  0.00000000000E+00  0.00000000000E+00  0.37594435817E+04  0.37594435817E+04  0.25500000000E-02 0.  1.
         -2   -1    0    0    0  501 -0.00000000000E+00 -0.00000000000E+00 -0.15739951234E+02  0.15739951441E+02  0.25500000000E-02 0. -1.
    5000001    1    1    2    0    0  0.31058662673E+02  0.96717001586E+02  0.30130714694E+04  0.30192951990E+04  0.16500000000E+03 0.  0.
   -5000001    1    1    2    0    0 -0.31058662673E+02 -0.96717001586E+02  0.73063216101E+03  0.75588833410E+03  0.16500000000E+03 0.  0.
<mgrwt>
<rscale>  0 0.48651191E+03</rscale>
<asrwt>0</asrwt>
<pdfrwt beam="1">  1        2 0.53706304E+00 0.48651191E+03</pdfrwt>
<pdfrwt beam="2">  1       -2 0.22485659E-02 0.48651191E+03</pdfrwt>
<totfact> 0.64268858E+02</totfact>
</mgrwt>
</event>
<event>
 4    1  0.5312547E-005  0.4007389E+03  0.7818608E-02  0.1043524E+00
         -2   -1    0    0    0  501 -0.00000000000E+00  0.00000000000E+00  0.27101815636E+02  0.27101815756E+02  0.25500000000E-02 0. -1.
          2   -1    0    0  501    0  0.00000000000E+00 -0.00000000000E+00 -0.14813733652E+04  0.14813733652E+04  0.25500000000E-02 0.  1.
    5000001    1    1    2    0    0 -0.28121242646E+02 -0.10069066879E+03 -0.55906815273E+03  0.59220909691E+03  0.16500000000E+03 0.  0.
   -5000001    1    1    2    0    0  0.28121242646E+02  0.10069066879E+03 -0.89520339686E+03  0.91626608407E+03  0.16500000000E+03 0.  0.
<mgrwt>
<rscale>  0 0.40073886E+03</rscale>
<asrwt>0</asrwt>
<pdfrwt beam="1">  1        2 0.21162472E+00 0.40073886E+03</pdfrwt>
<pdfrwt beam="2">  1       -2 0.38716889E-02 0.40073886E+03</pdfrwt>
<totfact> 0.46190252E+03</totfact>
</mgrwt>
</event>
<event>
 4    1  0.5312547E-005  0.3520241E+03  0.7818608E-02  0.1061787E+00
         -2   -1    0    0    0  501 -0.00000000000E+00  0.00000000000E+00  0.20449062990E+03  0.20449062992E+03  0.25500000000E-02 0.  1.
          2   -1    0    0  501    0  0.00000000000E+00 -0.00000000000E+00 -0.15149960743E+03  0.15149960745E+03  0.25500000000E-02 0. -1.
    5000001    1    1    2    0    0  0.20744252907E+02 -0.55825561934E+02  0.11895653342E+02  0.17582185291E+03  0.16500000000E+03 0.  0.
   -5000001    1    1    2    0    0 -0.20744252907E+02  0.55825561934E+02  0.41095369126E+02  0.18016838446E+03  0.16500000000E+03 0.  0.
<mgrwt>
<rscale>  0 0.35202415E+03</rscale>
<asrwt>0</asrwt>
<pdfrwt beam="1">  1        2 0.21642801E-01 0.35202415E+03</pdfrwt>
<pdfrwt beam="2">  1       -2 0.29212947E-01 0.35202415E+03</pdfrwt>
<totfact> 0.27347208E+03</totfact>
</mgrwt>
</event>
<event>
 4    1  0.5312547E-005  0.6930960E+03  0.7818608E-02  0.9729112E-01
          2   -1    0    0  501    0  0.00000000000E+00  0.00000000000E+00  0.11836161785E+04  0.11836161785E+04  0.25500000000E-02 0.  1.
         -2   -1    0    0    0  501 -0.00000000000E+00 -0.00000000000E+00 -0.10146492459E+03  0.10146492462E+03  0.25500000000E-02 0. -1.
    5000001    1    1    2    0    0 -0.26546263499E+02  0.21692570965E+03  0.14728170454E+03  0.31093145242E+03  0.16500000000E+03 0.  0.
   -5000001    1    1    2    0    0  0.26546263499E+02 -0.21692570965E+03  0.93486954934E+03  0.97414965067E+03  0.16500000000E+03 0.  0.
<mgrwt>
<rscale>  0 0.69309603E+03</rscale>
<asrwt>0</asrwt>
<pdfrwt beam="1">  1        2 0.16908800E+00 0.69309603E+03</pdfrwt>
<pdfrwt beam="2">  1       -2 0.14494991E-01 0.69309603E+03</pdfrwt>
<totfact> 0.81594940E+02</totfact>
</mgrwt>
</event>
<event>
 4    1  0.5312547E-005  0.4290096E+03  0.7818608E-02  0.1034173E+00
         -2   -1    0    0    0  501 -0.00000000000E+00  0.00000000000E+00  0.18403829685E+03  0.18403829687E+03  0.25500000000E-02 0. -1.
          2   -1    0    0  501    0  0.00000000000E+00 -0.00000000000E+00 -0.25001491235E+03  0.25001491237E+03  0.25500000000E-02 0.  1.
    5000001    1    1    2    0    0  0.91707428234E+02  0.53342570589E+02  0.54816963784E+02  0.20368009659E+03  0.16500000000E+03 0.  0.
   -5000001    1    1    2    0    0 -0.91707428234E+02 -0.53342570589E+02 -0.12079357929E+03  0.23037311264E+03  0.16500000000E+03 0.  0.
<mgrwt>
<rscale>  0 0.42900964E+03</rscale>
<asrwt>0</asrwt>
<pdfrwt beam="1">  1        2 0.35716416E-01 0.42900964E+03</pdfrwt>
<pdfrwt beam="2">  1       -2 0.26291185E-01 0.42900964E+03</pdfrwt>
<totfact> 0.18946973E+03</totfact>
</mgrwt>
</event>
<event>
 4    1  0.5312547E-005  0.4999755E+03  0.7818608E-02  0.1013785E+00
          2   -1    0    0  501    0  0.00000000000E+00  0.00000000000E+00  0.47420796442E+03  0.47420796443E+03  0.25500000000E-02 0.  1.
         -2   -1    0    0    0  501 -0.00000000000E+00 -0.00000000000E+00 -0.13178577894E+03  0.13178577897E+03  0.25500000000E-02 0. -1.
    5000001    1    1    2    0    0 -0.54903321436E+02  0.16956332955E+03  0.24294511271E+03  0.34353082136E+03  0.16500000000E+03 0.  0.
   -5000001    1    1    2    0    0  0.54903321436E+02 -0.16956332955E+03  0.99477072763E+02  0.26246292203E+03  0.16500000000E+03 0.  0.
<mgrwt>
<rscale>  0 0.49997546E+03</rscale>
<asrwt>0</asrwt>
<pdfrwt beam="1">  1        2 0.67743996E-01 0.49997546E+03</pdfrwt>
<pdfrwt beam="2">  1       -2 0.18826540E-01 0.49997546E+03</pdfrwt>
<totfact> 0.16859231E+03</totfact>
</mgrwt>
</event>
<event>
 4    1  0.5312547E-005  0.4610758E+03  0.7818608E-02  0.1024470E+00
          2   -1    0    0  501    0  0.00000000000E+00  0.00000000000E+00  0.18063829772E+04  0.18063829772E+04  0.25500000000E-02 0.  1.
         -2   -1    0    0    0  501 -0.00000000000E+00 -0.00000000000E+00 -0.29422174412E+02  0.29422174523E+02  0.25500000000E-02 0. -1.
    5000001    1    1    2    0    0  0.94687172941E+02  0.95333909288E+02  0.53529701393E+03  0.57604002300E+03  0.16500000000E+03 0.  0.
   -5000001    1    1    2    0    0 -0.94687172941E+02 -0.95333909288E+02  0.12416637888E+04  0.12597651287E+04  0.16500000000E+03 0.  0.
<mgrwt>
<rscale>  0 0.46107576E+03</rscale>
<asrwt>0</asrwt>
<pdfrwt beam="1">  1        2 0.25805473E+00 0.46107576E+03</pdfrwt>
<pdfrwt beam="2">  1       -2 0.42031675E-02 0.46107576E+03</pdfrwt>
<totfact> 0.27898100E+03</totfact>
</mgrwt>
</event>
<event>
 4    1  0.5312547E-005  0.5015527E+03  0.7818608E-02  0.1013374E+00
          2   -1    0    0  501    0  0.00000000000E+00  0.00000000000E+00  0.29618356297E+03  0.29618356299E+03  0.25500000000E-02 0.  1.
         -2   -1    0    0    0  501 -0.00000000000E+00 -0.00000000000E+00 -0.21233037135E+03  0.21233037136E+03  0.25500000000E-02 0. -1.
    5000001    1    1    2    0    0  0.10195739490E+03  0.11499674423E+03 -0.69342711383E+02  0.23590882387E+03  0.16500000000E+03 0.  0.
   -5000001    1    1    2    0    0 -0.10195739490E+03 -0.11499674423E+03  0.15319590301E+03  0.27260511048E+03  0.16500000000E+03 0.  0.
<mgrwt>
<rscale>  0 0.50155265E+03</rscale>
<asrwt>0</asrwt>
<pdfrwt beam="1">  1        2 0.42311937E-01 0.50155265E+03</pdfrwt>
<pdfrwt beam="2">  1       -2 0.30332910E-01 0.50155265E+03</pdfrwt>
<totfact> 0.12136930E+03</totfact>
</mgrwt>
</event>
<event>
 4    1  0.5312547E-005  0.3798722E+03  0.7818608E-02  0.1050981E+00
         -2   -1    0    0    0  501 -0.00000000000E+00  0.00000000000E+00  0.33434128042E+03  0.33434128043E+03  0.25500000000E-02 0. -1.
          2   -1    0    0  501    0  0.00000000000E+00 -0.00000000000E+00 -0.10790090155E+03  0.10790090158E+03  0.25500000000E-02 0.  1.
    5000001    1    1    2    0    0  0.17871117882E+02 -0.80248930168E+02  0.16646131142E+03  0.24838203608E+03  0.16500000000E+03 0.  0.
   -5000001    1    1    2    0    0 -0.17871117882E+02  0.80248930168E+02  0.59979067459E+02  0.19386014593E+03  0.16500000000E+03 0.  0.
<mgrwt>
<rscale>  0 0.37987222E+03</rscale>
<asrwt>0</asrwt>
<pdfrwt beam="1">  1        2 0.15414415E-01 0.37987222E+03</pdfrwt>
<pdfrwt beam="2">  1       -2 0.47763040E-01 0.37987222E+03</pdfrwt>
<totfact> 0.15992911E+03</totfact>
</mgrwt>
</event>
<event>
 4    1  0.5312547E-005  0.5477866E+03  0.7818608E-02  0.1002008E+00
         -2   -1    0    0    0  501 -0.00000000000E+00  0.00000000000E+00  0.77938959961E+02  0.77938960003E+02  0.25500000000E-02 0. -1.
          2   -1    0    0  501    0  0.00000000000E+00 -0.00000000000E+00 -0.96251640701E+03  0.96251640701E+03  0.25500000000E-02 0.  1.
    5000001    1    1    2    0    0 -0.76023142513E+02  0.14433105437E+03 -0.16585500339E+03  0.28520843887E+03  0.16500000000E+03 0.  0.
   -5000001    1    1    2    0    0  0.76023142513E+02 -0.14433105437E+03 -0.71872244366E+03  0.75524692815E+03  0.16500000000E+03 0.  0.
<mgrwt>
<rscale>  0 0.54778656E+03</rscale>
<asrwt>0</asrwt>
<pdfrwt beam="1">  1        2 0.13750234E+00 0.54778656E+03</pdfrwt>
<pdfrwt beam="2">  1       -2 0.11134138E-01 0.54778656E+03</pdfrwt>
<totfact> 0.17121925E+03</totfact>
</mgrwt>
</event>
<event>
 4    1  0.5312547E-005  0.6732895E+03  0.7818608E-02  0.9764034E-01
          2   -1    0    0  501    0  0.00000000000E+00  0.00000000000E+00  0.27268247574E+03  0.27268247575E+03  0.25500000000E-02 0.  1.
         -2   -1    0    0    0  501 -0.00000000000E+00 -0.00000000000E+00 -0.41561042502E+03  0.41561042503E+03  0.25500000000E-02 0. -1.
    5000001    1    1    2    0    0  0.22650544650E+03  0.15213006823E+03  0.38906719098E+02  0.32122734589E+03  0.16500000000E+03 0.  0.
   -5000001    1    1    2    0    0 -0.22650544650E+03 -0.15213006823E+03 -0.18183466838E+03  0.36706555488E+03  0.16500000000E+03 0.  0.
<mgrwt>
<rscale>  0 0.67328948E+03</rscale>
<asrwt>0</asrwt>
<pdfrwt beam="1">  1        2 0.38954639E-01 0.67328948E+03</pdfrwt>
<pdfrwt beam="2">  1       -2 0.59372918E-01 0.67328948E+03</pdfrwt>
<totfact> 0.35447126E+02</totfact>
</mgrwt>
</event>
<event>
 4    1  0.5312547E-005  0.4840111E+03  0.7818608E-02  0.1018039E+00
          2   -1    0    0  501    0  0.00000000000E+00  0.00000000000E+00  0.18891316282E+03  0.18891316284E+03  0.25500000000E-02 0.  1.
         -2   -1    0    0    0  501 -0.00000000000E+00 -0.00000000000E+00 -0.31001912603E+03  0.31001912604E+03  0.25500000000E-02 0. -1.
    5000001    1    1    2    0    0 -0.86240847963E+02 -0.15429523051E+03 -0.50390478693E+02  0.24699939749E+03  0.16500000000E+03 0.  0.
   -5000001    1    1    2    0    0  0.86240847963E+02  0.15429523051E+03 -0.70715484513E+02  0.25193289139E+03  0.16500000000E+03 0.  0.
<mgrwt>
<rscale>  0 0.48401113E+03</rscale>
<asrwt>0</asrwt>
<pdfrwt beam="1">  1        2 0.26987595E-01 0.48401113E+03</pdfrwt>
<pdfrwt beam="2">  1       -2 0.44288446E-01 0.48401113E+03</pdfrwt>
<totfact> 0.97229690E+02</totfact>
</mgrwt>
</event>
<event>
 4    1  0.5312547E-005  0.3966831E+03  0.7818608E-02  0.1044934E+00
         -2   -1    0    0    0  501 -0.00000000000E+00  0.00000000000E+00  0.44185381611E+03  0.44185381611E+03  0.25500000000E-02 0. -1.
          2   -1    0    0  501    0  0.00000000000E+00 -0.00000000000E+00 -0.89032537997E+02  0.89032538033E+02  0.25500000000E-02 0.  1.
    5000001    1    1    2    0    0 -0.25464746430E+02 -0.93633686393E+02  0.10688726259E+03  0.21923869969E+03  0.16500000000E+03 0.  0.
   -5000001    1    1    2    0    0  0.25464746430E+02  0.93633686393E+02  0.24593401552E+03  0.31164765446E+03  0.16500000000E+03 0.  0.
<mgrwt>
<rscale>  0 0.39668308E+03</rscale>
<asrwt>0</asrwt>
<pdfrwt beam="1">  1        2 0.12718934E-01 0.39668308E+03</pdfrwt>
<pdfrwt beam="2">  1       -2 0.63121973E-01 0.39668308E+03</pdfrwt>
<totfact> 0.11400715E+03</totfact>
</mgrwt>
</event>
<event>
 4    1  0.5312547E-005  0.4109470E+03  0.7818608E-02  0.1040054E+00
          2   -1    0    0  501    0  0.00000000000E+00  0.00000000000E+00  0.51012982555E+03  0.51012982555E+03  0.25500000000E-02 0.  1.
         -2   -1    0    0    0  501 -0.00000000000E+00 -0.00000000000E+00 -0.82761974299E+02  0.82761974338E+02  0.25500000000E-02 0. -1.
    5000001    1    1    2    0    0 -0.79934690321E+02 -0.28673275247E+02  0.34096186705E+03  0.38819029639E+03  0.16500000000E+03 0.  0.
   -5000001    1    1    2    0    0  0.79934690321E+02  0.28673275247E+02  0.86405984199E+02  0.20470150350E+03  0.16500000000E+03 0.  0.
<mgrwt>
<rscale>  0 0.41094696E+03</rscale>
<asrwt>0</asrwt>
<pdfrwt beam="1">  1        2 0.72875686E-01 0.41094696E+03</pdfrwt>
<pdfrwt beam="2">  1       -2 0.11823140E-01 0.41094696E+03</pdfrwt>
<totfact> 0.33752376E+03</totfact>
</mgrwt>
</event>
<event>
 4    1  0.5312547E-005  0.9270862E+03  0.7818608E-02  0.9392342E-01
         -2   -1    0    0    0  501 -0.00000000000E+00  0.00000000000E+00  0.47235698153E+02  0.47235698222E+02  0.25500000000E-02 0. -1.
          2   -1    0    0  501    0  0.00000000000E+00 -0.00000000000E+00 -0.45489370106E+04  0.45489370106E+04  0.25500000000E-02 0.  1.
    5000001    1    1    2    0    0  0.12253424277E+03  0.33402249114E+03 -0.10257828510E+04  0.10981990360E+04  0.16500000000E+03 0.  0.
   -5000001    1    1    2    0    0 -0.12253424277E+03 -0.33402249114E+03 -0.34759184615E+04  0.34979736729E+04  0.16500000000E+03 0.  0.
<mgrwt>
<rscale>  0 0.92708622E+03</rscale>
<asrwt>0</asrwt>
<pdfrwt beam="1">  1        2 0.64984786E+00 0.92708622E+03</pdfrwt>
<pdfrwt beam="2">  1       -2 0.67479598E-02 0.92708622E+03</pdfrwt>
<totfact> 0.30964549E+01</totfact>
</mgrwt>
</event>
<event>
 4    1  0.5312547E-005  0.5200966E+03  0.7818608E-02  0.1008663E+00
          2   -1    0    0  501    0  0.00000000000E+00  0.00000000000E+00  0.19645866553E+04  0.19645866553E+04  0.25500000000E-02 0.  1.
         -2   -1    0    0    0  501 -0.00000000000E+00 -0.00000000000E+00 -0.34422060906E+02  0.34422061000E+02  0.25500000000E-02 0. -1.
    5000001    1    1    2    0    0  0.79772619240E+02  0.11622350346E+03  0.41438901392E+03  0.46777647268E+03  0.16500000000E+03 0.  0.
   -5000001    1    1    2    0    0 -0.79772619240E+02 -0.11622350346E+03  0.15157755805E+04  0.15312322437E+04  0.16500000000E+03 0.  0.
<mgrwt>
<rscale>  0 0.52009661E+03</rscale>
<asrwt>0</asrwt>
<pdfrwt beam="1">  1        2 0.28065533E+00 0.52009661E+03</pdfrwt>
<pdfrwt beam="2">  1       -2 0.49174357E-02 0.52009661E+03</pdfrwt>
<totfact> 0.18232620E+03</totfact>
</mgrwt>
</event>
<event>
 4    1  0.5312547E-005  0.4840921E+03  0.7818608E-02  0.1018017E+00
         -2   -1    0    0    0  501 -0.00000000000E+00  0.00000000000E+00  0.16633335500E+02  0.16633335695E+02  0.25500000000E-02 0. -1.
          2   -1    0    0  501    0  0.00000000000E+00 -0.00000000000E+00 -0.35222208240E+04  0.35222208240E+04  0.25500000000E-02 0.  1.
    5000001    1    1    2    0    0  0.16115556062E+03 -0.34405487673E+02 -0.22269172328E+04  0.22390936144E+04  0.16500000000E+03 0.  0.
   -5000001    1    1    2    0    0 -0.16115556062E+03  0.34405487673E+02 -0.12786702557E+04  0.12997605453E+04  0.16500000000E+03 0.  0.
<mgrwt>
<rscale>  0 0.48409206E+03</rscale>
<asrwt>0</asrwt>
<pdfrwt beam="1">  1        2 0.50317393E+00 0.48409206E+03</pdfrwt>
<pdfrwt beam="2">  1       -2 0.23761931E-02 0.48409206E+03</pdfrwt>
<totfact> 0.82497191E+02</totfact>
</mgrwt>
</event>
<event>
 4    1  0.5312547E-005  0.5049870E+03  0.7818608E-02  0.1012485E+00
          2   -1    0    0  501    0  0.00000000000E+00  0.00000000000E+00  0.14890913950E+04  0.14890913950E+04  0.25500000000E-02 0.  1.
         -2   -1    0    0    0  501 -0.00000000000E+00 -0.00000000000E+00 -0.42813329813E+02  0.42813329889E+02  0.25500000000E-02 0. -1.
    5000001    1    1    2    0    0  0.11559723873E+03 -0.15219965393E+03  0.72098367372E+03  0.76391747855E+03  0.16500000000E+03 0.  0.
   -5000001    1    1    2    0    0 -0.11559723873E+03  0.15219965393E+03  0.72529439148E+03  0.76798724636E+03  0.16500000000E+03 0.  0.
<mgrwt>
<rscale>  0 0.50498697E+03</rscale>
<asrwt>0</asrwt>
<pdfrwt beam="1">  1        2 0.21272727E+00 0.50498697E+03</pdfrwt>
<pdfrwt beam="2">  1       -2 0.61161920E-02 0.50498697E+03</pdfrwt>
<totfact> 0.22626109E+03</totfact>
</mgrwt>
</event>
<event>
 4    1  0.5312547E-005  0.5207196E+03  0.7818608E-02  0.1008508E+00
         -2   -1    0    0    0  501 -0.00000000000E+00  0.00000000000E+00  0.21169982545E+02  0.21169982699E+02  0.25500000000E-02 0. -1.
          2   -1    0    0  501    0  0.00000000000E+00 -0.00000000000E+00 -0.32020440912E+04  0.32020440912E+04  0.25500000000E-02 0.  1.
    5000001    1    1    2    0    0 -0.61287472312E+02  0.11192702766E+03 -0.25549216979E+04  0.25634222625E+04  0.16500000000E+03 0.  0.
   -5000001    1    1    2    0    0  0.61287472312E+02 -0.11192702766E+03 -0.62595241076E+03  0.65979181134E+03  0.16500000000E+03 0.  0.
<mgrwt>
<rscale>  0 0.52071957E+03</rscale>
<asrwt>0</asrwt>
<pdfrwt beam="1">  1        2 0.45743456E+00 0.52071957E+03</pdfrwt>
<pdfrwt beam="2">  1       -2 0.30242853E-02 0.52071957E+03</pdfrwt>
<totfact> 0.87270772E+02</totfact>
</mgrwt>
</event>
<event>
 4    1  0.5312547E-005  0.5282111E+03  0.7818608E-02  0.1006667E+00
          2   -1    0    0  501    0  0.00000000000E+00  0.00000000000E+00  0.13287467219E+04  0.13287467219E+04  0.25500000000E-02 0.  1.
         -2   -1    0    0    0  501 -0.00000000000E+00 -0.00000000000E+00 -0.52494386477E+02  0.52494386538E+02  0.25500000000E-02 0. -1.
    5000001    1    1    2    0    0  0.18136606908E+03  0.91226159286E+02  0.54344936732E+03  0.60314018105E+03  0.16500000000E+03 0.  0.
   -5000001    1    1    2    0    0 -0.18136606908E+03 -0.91226159286E+02  0.73280296807E+03  0.77810092737E+03  0.16500000000E+03 0.  0.
<mgrwt>
<rscale>  0 0.52821111E+03</rscale>
<asrwt>0</asrwt>
<pdfrwt beam="1">  1        2 0.18982094E+00 0.52821111E+03</pdfrwt>
<pdfrwt beam="2">  1       -2 0.74991990E-02 0.52821111E+03</pdfrwt>
<totfact> 0.19944045E+03</totfact>
</mgrwt>
</event>
<event>
 4    1  0.5312547E-005  0.5423182E+03  0.7818608E-02  0.1003288E+00
         -2   -1    0    0    0  501 -0.00000000000E+00  0.00000000000E+00  0.43217830034E+02  0.43217830109E+02  0.25500000000E-02 0. -1.
          2   -1    0    0  501    0  0.00000000000E+00 -0.00000000000E+00 -0.17013176805E+04  0.17013176805E+04  0.25500000000E-02 0.  1.
    5000001    1    1    2    0    0 -0.21472761338E+03  0.51959108052E+00 -0.78424024779E+03  0.82967824135E+03  0.16500000000E+03 0.  0.
   -5000001    1    1    2    0    0  0.21472761338E+03 -0.51959108052E+00 -0.87385960269E+03  0.91485726927E+03  0.16500000000E+03 0.  0.
<mgrwt>
<rscale>  0 0.54231820E+03</rscale>
<asrwt>0</asrwt>
<pdfrwt beam="1">  1        2 0.24304534E+00 0.54231820E+03</pdfrwt>
<pdfrwt beam="2">  1       -2 0.61739768E-02 0.54231820E+03</pdfrwt>
<totfact> 0.17341925E+03</totfact>
</mgrwt>
</event>
<event>
 4    1  0.5312547E-005  0.6623654E+03  0.7818608E-02  0.9783849E-01
          2   -1    0    0  501    0  0.00000000000E+00  0.00000000000E+00  0.88934928228E+03  0.88934928228E+03  0.25500000000E-02 0.  1.
         -2   -1    0    0    0  501 -0.00000000000E+00 -0.00000000000E+00 -0.12332834051E+03  0.12332834054E+03  0.25500000000E-02 0. -1.
    5000001    1    1    2    0    0 -0.17618884627E+03 -0.18845151133E+03  0.19022298442E+03  0.36050834314E+03  0.16500000000E+03 0.  0.
   -5000001    1    1    2    0    0  0.17618884627E+03  0.18845151133E+03  0.57579795735E+03  0.65216927968E+03  0.16500000000E+03 0.  0.
<mgrwt>
<rscale>  0 0.66236537E+03</rscale>
<asrwt>0</asrwt>
<pdfrwt beam="1">  1        2 0.12704990E+00 0.66236537E+03</pdfrwt>
<pdfrwt beam="2">  1       -2 0.17618334E-01 0.66236537E+03</pdfrwt>
<totfact> 0.88255996E+02</totfact>
</mgrwt>
</event>
<event>
 4    1  0.5312547E-005  0.6219736E+03  0.7818608E-02  0.9860838E-01
         -2   -1    0    0    0  501 -0.00000000000E+00  0.00000000000E+00  0.14463937835E+03  0.14463937837E+03  0.25500000000E-02 0. -1.
          2   -1    0    0  501    0  0.00000000000E+00 -0.00000000000E+00 -0.66864781752E+03  0.66864781752E+03  0.25500000000E-02 0.  1.
    5000001    1    1    2    0    0  0.23031382327E+03  0.84259566779E+02 -0.13560896668E+03  0.32520597109E+03  0.16500000000E+03 0.  0.
   -5000001    1    1    2    0    0 -0.23031382327E+03 -0.84259566779E+02 -0.38839947248E+03  0.48808122481E+03  0.16500000000E+03 0.  0.
<mgrwt>
<rscale>  0 0.62197365E+03</rscale>
<asrwt>0</asrwt>
<pdfrwt beam="1">  1        2 0.95521115E-01 0.62197365E+03</pdfrwt>
<pdfrwt beam="2">  1       -2 0.20662769E-01 0.62197365E+03</pdfrwt>
<totfact> 0.96181403E+02</totfact>
</mgrwt>
</event>
<event>
 4    1  0.5312547E-005  0.7807644E+03  0.7818608E-02  0.9588285E-01
         -2   -1    0    0    0  501 -0.00000000000E+00  0.00000000000E+00  0.19700363389E+03  0.19700363390E+03  0.25500000000E-02 0. -1.
          2   -1    0    0  501    0  0.00000000000E+00 -0.00000000000E+00 -0.77358103494E+03  0.77358103494E+03  0.25500000000E-02 0.  1.
    5000001    1    1    2    0    0 -0.24010116928E+03 -0.25514310492E+03 -0.22705064277E+03  0.44891376662E+03  0.16500000000E+03 0.  0.
   -5000001    1    1    2    0    0  0.24010116928E+03  0.25514310492E+03 -0.34952675828E+03  0.52167090223E+03  0.16500000000E+03 0.  0.
<mgrwt>
<rscale>  0 0.78076443E+03</rscale>
<asrwt>0</asrwt>
<pdfrwt beam="1">  1        2 0.11051157E+00 0.78076443E+03</pdfrwt>
<pdfrwt beam="2">  1       -2 0.28143377E-01 0.78076443E+03</pdfrwt>
<totfact> 0.45946876E+02</totfact>
</mgrwt>
</event>
<event>
 4    1  0.5312547E-005  0.6200876E+03  0.7818608E-02  0.9864585E-01
          2   -1    0    0  501    0  0.00000000000E+00  0.00000000000E+00  0.41563701703E+03  0.41563701704E+03  0.25500000000E-02 0.  1.
         -2   -1    0    0    0  501 -0.00000000000E+00 -0.00000000000E+00 -0.23127667874E+03  0.23127667876E+03  0.25500000000E-02 0. -1.
    5000001    1    1    2    0    0  0.24742468323E+03  0.62858238940E+02  0.28447058754E+02  0.30529390303E+03  0.16500000000E+03 0.  0.
   -5000001    1    1    2    0    0 -0.24742468323E+03 -0.62858238940E+02  0.15591327954E+03  0.34161979277E+03  0.16500000000E+03 0.  0.
<mgrwt>
<rscale>  0 0.62008757E+03</rscale>
<asrwt>0</asrwt>
<pdfrwt beam="1">  1        2 0.59376716E-01 0.62008757E+03</pdfrwt>
<pdfrwt beam="2">  1       -2 0.33039526E-01 0.62008757E+03</pdfrwt>
<totfact> 0.71151406E+02</totfact>
</mgrwt>
</event>
<event>
 4    1  0.5312547E-005  0.4666618E+03  0.7818608E-02  0.1022867E+00
          2   -1    0    0  501    0  0.00000000000E+00  0.00000000000E+00  0.56500453520E+03  0.56500453521E+03  0.25500000000E-02 0.  1.
         -2   -1    0    0    0  501 -0.00000000000E+00 -0.00000000000E+00 -0.96359059551E+02  0.96359059585E+02  0.25500000000E-02 0. -1.
    5000001    1    1    2    0    0  0.14208538893E+03 -0.16434537913E+02  0.35084526973E+03  0.41325023300E+03  0.16500000000E+03 0.  0.
   -5000001    1    1    2    0    0 -0.14208538893E+03  0.16434537913E+02  0.11780020592E+03  0.24811336179E+03  0.16500000000E+03 0.  0.
<mgrwt>
<rscale>  0 0.46666179E+03</rscale>
<asrwt>0</asrwt>
<pdfrwt beam="1">  1        2 0.80714933E-01 0.46666179E+03</pdfrwt>
<pdfrwt beam="2">  1       -2 0.13765580E-01 0.46666179E+03</pdfrwt>
<totfact> 0.23432355E+03</totfact>
</mgrwt>
</event>
<event>
 4    1  0.5312547E-005  0.4488406E+03  0.7818608E-02  0.1028068E+00
         -2   -1    0    0    0  501 -0.00000000000E+00  0.00000000000E+00  0.28175032228E+02  0.28175032344E+02  0.25500000000E-02 0. -1.
          2   -1    0    0  501    0  0.00000000000E+00 -0.00000000000E+00 -0.17875569039E+04  0.17875569039E+04  0.25500000000E-02 0.  1.
    5000001    1    1    2    0    0 -0.94137583370E+02  0.13727976946E+02 -0.13598683177E+04  0.13731413560E+04  0.16500000000E+03 0.  0.
   -5000001    1    1    2    0    0  0.94137583370E+02 -0.13727976946E+02 -0.39951355397E+03  0.44259058029E+03  0.16500000000E+03 0.  0.
<mgrwt>
<rscale>  0 0.44884061E+03</rscale>
<asrwt>0</asrwt>
<pdfrwt beam="1">  1        2 0.25536520E+00 0.44884061E+03</pdfrwt>
<pdfrwt beam="2">  1       -2 0.40250057E-02 0.44884061E+03</pdfrwt>
<totfact> 0.30467971E+03</totfact>
</mgrwt>
</event>
<event>
 4    1  0.5312547E-005  0.4053421E+03  0.7818608E-02  0.1041945E+00
         -2   -1    0    0    0  501 -0.00000000000E+00  0.00000000000E+00  0.22386341701E+02  0.22386341846E+02  0.25500000000E-02 0. -1.
          2   -1    0    0  501    0  0.00000000000E+00 -0.00000000000E+00 -0.18348487594E+04  0.18348487594E+04  0.25500000000E-02 0.  1.
    5000001    1    1    2    0    0  0.67863793053E+02  0.86457522758E+02 -0.10990061970E+04  0.11167452792E+04  0.16500000000E+03 0.  0.
   -5000001    1    1    2    0    0 -0.67863793053E+02 -0.86457522758E+02 -0.71345622069E+03  0.74048982200E+03  0.16500000000E+03 0.  0.
<mgrwt>
<rscale>  0 0.40534208E+03</rscale>
<asrwt>0</asrwt>
<pdfrwt beam="1">  1        2 0.26212116E+00 0.40534208E+03</pdfrwt>
<pdfrwt beam="2">  1       -2 0.31980500E-02 0.40534208E+03</pdfrwt>
<totfact> 0.40934243E+03</totfact>
</mgrwt>
</event>
<event>
 4    1  0.5312547E-005  0.4562904E+03  0.7818608E-02  0.1025863E+00
          2   -1    0    0  501    0  0.00000000000E+00  0.00000000000E+00  0.86595554324E+02  0.86595554361E+02  0.25500000000E-02 0.  1.
         -2   -1    0    0    0  501 -0.00000000000E+00 -0.00000000000E+00 -0.60107286479E+03  0.60107286480E+03  0.25500000000E-02 0. -1.
    5000001    1    1    2    0    0  0.10773321309E+02  0.12913940782E+03 -0.12216998459E+03  0.24278294059E+03  0.16500000000E+03 0.  0.
   -5000001    1    1    2    0    0 -0.10773321309E+02 -0.12913940782E+03 -0.39230732588E+03  0.44488547857E+03  0.16500000000E+03 0.  0.
<mgrwt>
<rscale>  0 0.45629042E+03</rscale>
<asrwt>0</asrwt>
<pdfrwt beam="1">  1        2 0.12370794E-01 0.45629042E+03</pdfrwt>
<pdfrwt beam="2">  1       -2 0.85867550E-01 0.45629042E+03</pdfrwt>
<totfact> 0.60265876E+02</totfact>
</mgrwt>
</event>
<event>
 4    1  0.5312547E-005  0.5557385E+03  0.7818608E-02  0.1000174E+00
          2   -1    0    0  501    0  0.00000000000E+00  0.00000000000E+00  0.30396486056E+03  0.30396486057E+03  0.25500000000E-02 0. -1.
         -2   -1    0    0    0  501 -0.00000000000E+00 -0.00000000000E+00 -0.25401398098E+03  0.25401398099E+03  0.25500000000E-02 0.  1.
    5000001    1    1    2    0    0 -0.62526009315E+02 -0.21462821490E+03  0.21562938027E+02  0.27868392987E+03  0.16500000000E+03 0.  0.
   -5000001    1    1    2    0    0  0.62526009315E+02  0.21462821490E+03  0.28387941557E+02  0.27929491169E+03  0.16500000000E+03 0.  0.
<mgrwt>
<rscale>  0 0.55573852E+03</rscale>
<asrwt>0</asrwt>
<pdfrwt beam="1">  1        2 0.43423552E-01 0.55573852E+03</pdfrwt>
<pdfrwt beam="2">  1       -2 0.36287711E-01 0.55573852E+03</pdfrwt>
<totfact> 0.84299078E+02</totfact>
</mgrwt>
</event>
<event>
 4    1  0.5312547E-005  0.7620095E+03  0.7818608E-02  0.9616695E-01
         -2   -1    0    0    0  501 -0.00000000000E+00  0.00000000000E+00  0.62118618048E+02  0.62118618101E+02  0.25500000000E-02 0. -1.
          2   -1    0    0  501    0  0.00000000000E+00 -0.00000000000E+00 -0.23368938363E+04  0.23368938363E+04  0.25500000000E-02 0.  1.
    5000001    1    1    2    0    0  0.24723166889E+03 -0.23780501900E+03 -0.10861480543E+04  0.11509202062E+04  0.16500000000E+03 0.  0.
   -5000001    1    1    2    0    0 -0.24723166889E+03  0.23780501900E+03 -0.11886271639E+04  0.12480922482E+04  0.16500000000E+03 0.  0.
<mgrwt>
<rscale>  0 0.76200949E+03</rscale>
<asrwt>0</asrwt>
<pdfrwt beam="1">  1        2 0.33384192E+00 0.76200949E+03</pdfrwt>
<pdfrwt beam="2">  1       -2 0.88740898E-02 0.76200949E+03</pdfrwt>
<totfact> 0.45939532E+02</totfact>
</mgrwt>
</event>
<event>
 4    1  0.5312547E-005  0.1422411E+04  0.7818608E-02  0.8937754E-01
          2   -1    0    0  501    0  0.00000000000E+00  0.00000000000E+00  0.13514981069E+04  0.13514981069E+04  0.25500000000E-02 0.  1.
         -2   -1    0    0    0  501 -0.00000000000E+00 -0.00000000000E+00 -0.37426127883E+03  0.37426127884E+03  0.25500000000E-02 0. -1.
    5000001    1    1    2    0    0  0.15647804199E+03  0.66898563326E+03  0.58689465286E+03  0.91853006956E+03  0.16500000000E+03 0.  0.
   -5000001    1    1    2    0    0 -0.15647804199E+03 -0.66898563326E+03  0.39034217518E+03  0.80722931615E+03  0.16500000000E+03 0.  0.
<mgrwt>
<rscale>  0 0.14224112E+04</rscale>
<asrwt>0</asrwt>
<pdfrwt beam="1">  1        2 0.19307116E+00 0.14224112E+04</pdfrwt>
<pdfrwt beam="2">  1       -2 0.53465897E-01 0.14224112E+04</pdfrwt>
<totfact> 0.56395266E+01</totfact>
</mgrwt>
</event>
<event>
 4    1  0.5312547E-005  0.4141959E+03  0.7818608E-02  0.1038972E+00
         -2   -1    0    0    0  501 -0.00000000000E+00  0.00000000000E+00  0.89117200827E+02  0.89117200864E+02  0.25500000000E-02 0. -1.
          2   -1    0    0  501    0  0.00000000000E+00 -0.00000000000E+00 -0.48127146079E+03  0.48127146080E+03  0.25500000000E-02 0.  1.
    5000001    1    1    2    0    0  0.82927530829E+02 -0.82219946469E+02 -0.13406989954E+03  0.24256304939E+03  0.16500000000E+03 0.  0.
   -5000001    1    1    2    0    0 -0.82927530829E+02  0.82219946469E+02 -0.25808436042E+03  0.32782561227E+03  0.16500000000E+03 0.  0.
<mgrwt>
<rscale>  0 0.41419592E+03</rscale>
<asrwt>0</asrwt>
<pdfrwt beam="1">  1        2 0.68753064E-01 0.41419592E+03</pdfrwt>
<pdfrwt beam="2">  1       -2 0.12731029E-01 0.41419592E+03</pdfrwt>
<totfact> 0.31929897E+03</totfact>
</mgrwt>
</event>
<event>
 4    1  0.5312547E-005  0.5460332E+03  0.7818608E-02  0.1002416E+00
         -2   -1    0    0    0  501 -0.00000000000E+00  0.00000000000E+00  0.15770703406E+03  0.15770703408E+03  0.25500000000E-02 0. -1.
          2   -1    0    0  501    0  0.00000000000E+00 -0.00000000000E+00 -0.47263627563E+03  0.47263627564E+03  0.25500000000E-02 0.  1.
    5000001    1    1    2    0    0 -0.16418983854E+03 -0.84734606670E+02 -0.24960235633E+02  0.24897041995E+03  0.16500000000E+03 0.  0.
   -5000001    1    1    2    0    0  0.16418983854E+03  0.84734606670E+02 -0.28996900593E+03  0.38137288977E+03  0.16500000000E+03 0.  0.
<mgrwt>
<rscale>  0 0.54603320E+03</rscale>
<asrwt>0</asrwt>
<pdfrwt beam="1">  1        2 0.67519467E-01 0.54603320E+03</pdfrwt>
<pdfrwt beam="2">  1       -2 0.22529576E-01 0.54603320E+03</pdfrwt>
<totfact> 0.12374707E+03</totfact>
</mgrwt>
</event>
<event>
 4    1  0.5312547E-005  0.3753774E+03  0.7818608E-02  0.1052656E+00
         -2   -1    0    0    0  501 -0.00000000000E+00  0.00000000000E+00  0.51553665392E+02  0.51553665455E+02  0.25500000000E-02 0. -1.
          2   -1    0    0  501    0  0.00000000000E+00 -0.00000000000E+00 -0.68330840041E+03  0.68330840041E+03  0.25500000000E-02 0.  1.
    5000001    1    1    2    0    0  0.89114784235E+02 -0.35385497527E+01 -0.30230206507E+03  0.35576045964E+03  0.16500000000E+03 0.  0.
   -5000001    1    1    2    0    0 -0.89114784235E+02  0.35385497527E+01 -0.32945266995E+03  0.37910160622E+03  0.16500000000E+03 0.  0.
<mgrwt>
<rscale>  0 0.37537742E+03</rscale>
<asrwt>0</asrwt>
<pdfrwt beam="1">  1        2 0.97615480E-01 0.37537742E+03</pdfrwt>
<pdfrwt beam="2">  1       -2 0.73648098E-02 0.37537742E+03</pdfrwt>
<totfact> 0.51156727E+03</totfact>
</mgrwt>
</event>
<event>
 4    1  0.5312547E-005  0.7717481E+03  0.7818608E-02  0.9601836E-01
          2   -1    0    0  501    0  0.00000000000E+00  0.00000000000E+00  0.21256953692E+04  0.21256953692E+04  0.25500000000E-02 0.  1.
         -2   -1    0    0    0  501 -0.00000000000E+00 -0.00000000000E+00 -0.70047086257E+02  0.70047086303E+02  0.25500000000E-02 0. -1.
    5000001    1    1    2    0    0  0.27578899978E+03  0.17359033713E+03  0.13818211554E+04  0.14292822965E+04  0.16500000000E+03 0.  0.
   -5000001    1    1    2    0    0 -0.27578899978E+03 -0.17359033713E+03  0.67382712751E+03  0.76646015899E+03  0.16500000000E+03 0.  0.
<mgrwt>
<rscale>  0 0.77174806E+03</rscale>
<asrwt>0</asrwt>
<pdfrwt beam="1">  1        2 0.30367067E+00 0.77174806E+03</pdfrwt>
<pdfrwt beam="2">  1       -2 0.10006730E-01 0.77174806E+03</pdfrwt>
<totfact> 0.48387038E+02</totfact>
</mgrwt>
</event>
<event>
 4    1  0.5312547E-005  0.5266022E+03  0.7818608E-02  0.1007060E+00
          2   -1    0    0  501    0  0.00000000000E+00  0.00000000000E+00  0.24878334668E+03  0.24878334669E+03  0.25500000000E-02 0.  1.
         -2   -1    0    0    0  501 -0.00000000000E+00 -0.00000000000E+00 -0.27866600350E+03  0.27866600351E+03  0.25500000000E-02 0. -1.
    5000001    1    1    2    0    0 -0.64853427386E+02 -0.12917244204E+03 -0.16081550771E+03  0.27198918057E+03  0.16500000000E+03 0.  0.
   -5000001    1    1    2    0    0  0.64853427386E+02  0.12917244204E+03  0.13093285089E+03  0.25546016963E+03  0.16500000000E+03 0.  0.
<mgrwt>
<rscale>  0 0.52660217E+03</rscale>
<asrwt>0</asrwt>
<pdfrwt beam="1">  1        2 0.35540478E-01 0.52660217E+03</pdfrwt>
<pdfrwt beam="2">  1       -2 0.39809429E-01 0.52660217E+03</pdfrwt>
<totfact> 0.88045544E+02</totfact>
</mgrwt>
</event>
<event>
 4    1  0.5312547E-005  0.4960237E+03  0.7818608E-02  0.1014822E+00
          2   -1    0    0  501    0  0.00000000000E+00  0.00000000000E+00  0.33133816733E+03  0.33133816734E+03  0.25500000000E-02 0.  1.
         -2   -1    0    0    0  501 -0.00000000000E+00 -0.00000000000E+00 -0.18564081360E+03  0.18564081362E+03  0.25500000000E-02 0. -1.
    5000001    1    1    2    0    0 -0.16435514953E+03  0.60828316270E+02  0.10555918360E+02  0.24093386364E+03  0.16500000000E+03 0.  0.
   -5000001    1    1    2    0    0  0.16435514953E+03 -0.60828316270E+02  0.13514143537E+03  0.27604511731E+03  0.16500000000E+03 0.  0.
<mgrwt>
<rscale>  0 0.49602374E+03</rscale>
<asrwt>0</asrwt>
<pdfrwt beam="1">  1        2 0.47334024E-01 0.49602374E+03</pdfrwt>
<pdfrwt beam="2">  1       -2 0.26520116E-01 0.49602374E+03</pdfrwt>
<totfact> 0.13710197E+03</totfact>
</mgrwt>
</event>
<event>
 4    1  0.5312547E-005  0.3549323E+03  0.7818608E-02  0.1060609E+00
          2   -1    0    0  501    0  0.00000000000E+00  0.00000000000E+00  0.44778309778E+02  0.44778309851E+02  0.25500000000E-02 0.  1.
         -2   -1    0    0    0  501 -0.00000000000E+00 -0.00000000000E+00 -0.70333680067E+03  0.70333680068E+03  0.25500000000E-02 0. -1.
    5000001    1    1    2    0    0  0.60110097704E+02 -0.17715001383E+02 -0.29028905739E+03  0.33973487010E+03  0.16500000000E+03 0.  0.
   -5000001    1    1    2    0    0 -0.60110097704E+02  0.17715001383E+02 -0.36826943351E+03  0.40838024043E+03  0.16500000000E+03 0.  0.
<mgrwt>
<rscale>  0 0.35493229E+03</rscale>
<asrwt>0</asrwt>
<pdfrwt beam="1">  1        2 0.63969018E-02 0.35493229E+03</pdfrwt>
<pdfrwt beam="2">  1       -2 0.10047668E+00 0.35493229E+03</pdfrwt>
<totfact> 0.96967546E+02</totfact>
</mgrwt>
</event>
<event>
 4    1  0.5312547E-005  0.1223929E+04  0.7818608E-02  0.9092165E-01
         -2   -1    0    0    0  501 -0.00000000000E+00  0.00000000000E+00  0.48930472108E+03  0.48930472109E+03  0.25500000000E-02 0. -1.
          2   -1    0    0  501    0  0.00000000000E+00 -0.00000000000E+00 -0.76537315514E+03  0.76537315515E+03  0.25500000000E-02 0.  1.
    5000001    1    1    2    0    0 -0.45566836811E+03  0.29972526072E+03 -0.36681538280E+03  0.67767796088E+03  0.16500000000E+03 0.  0.
   -5000001    1    1    2    0    0  0.45566836811E+03 -0.29972526072E+03  0.90746948738E+02  0.57699991535E+03  0.16500000000E+03 0.  0.
<mgrwt>
<rscale>  0 0.12239292E+04</rscale>
<asrwt>0</asrwt>
<pdfrwt beam="1">  1        2 0.10933902E+00 0.12239292E+04</pdfrwt>
<pdfrwt beam="2">  1       -2 0.69900675E-01 0.12239292E+04</pdfrwt>
<totfact> 0.74003549E+01</totfact>
</mgrwt>
</event>
<event>
 4    1  0.5312547E-005  0.3915752E+03  0.7818608E-02  0.1046737E+00
         -2   -1    0    0    0  501 -0.00000000000E+00  0.00000000000E+00  0.52238460109E+02  0.52238460171E+02  0.25500000000E-02 0. -1.
          2   -1    0    0  501    0  0.00000000000E+00 -0.00000000000E+00 -0.73380374677E+03  0.73380374677E+03  0.25500000000E-02 0.  1.
    5000001    1    1    2    0    0  0.71909941851E+02  0.60705405983E+02 -0.43603495998E+03  0.47561294387E+03  0.16500000000E+03 0.  0.
   -5000001    1    1    2    0    0 -0.71909941851E+02 -0.60705405983E+02 -0.24553032668E+03  0.31042926307E+03  0.16500000000E+03 0.  0.
<mgrwt>
<rscale>  0 0.39157517E+03</rscale>
<asrwt>0</asrwt>
<pdfrwt beam="1">  1        2 0.10482910E+00 0.39157517E+03</pdfrwt>
<pdfrwt beam="2">  1       -2 0.74626376E-02 0.39157517E+03</pdfrwt>
<totfact> 0.46013462E+03</totfact>
</mgrwt>
</event>
<event>
 4    1  0.5312547E-005  0.4113522E+03  0.7818608E-02  0.1039918E+00
          2   -1    0    0  501    0  0.00000000000E+00  0.00000000000E+00  0.12052540558E+04  0.12052540558E+04  0.25500000000E-02 0.  1.
         -2   -1    0    0    0  501 -0.00000000000E+00 -0.00000000000E+00 -0.35098543524E+02  0.35098543617E+02  0.25500000000E-02 0. -1.
    5000001    1    1    2    0    0 -0.49780185946E+02  0.88755892247E+02  0.79227963794E+03  0.81565170264E+03  0.16500000000E+03 0.  0.
   -5000001    1    1    2    0    0  0.49780185946E+02 -0.88755892247E+02  0.37787587433E+03  0.42470089677E+03  0.16500000000E+03 0.  0.
<mgrwt>
<rscale>  0 0.41135222E+03</rscale>
<asrwt>0</asrwt>
<pdfrwt beam="1">  1        2 0.17217912E+00 0.41135222E+03</pdfrwt>
<pdfrwt beam="2">  1       -2 0.50140785E-02 0.41135222E+03</pdfrwt>
<totfact> 0.43616910E+03</totfact>
</mgrwt>
</event>
<event>
 4    1  0.5312547E-005  0.6425771E+03  0.7818608E-02  0.9820808E-01
          2   -1    0    0  501    0  0.00000000000E+00  0.00000000000E+00  0.23006383637E+03  0.23006383638E+03  0.25500000000E-02 0.  1.
         -2   -1    0    0    0  501 -0.00000000000E+00 -0.00000000000E+00 -0.44868564961E+03  0.44868564961E+03  0.25500000000E-02 0. -1.
    5000001    1    1    2    0    0 -0.26381080700E+03 -0.64828320589E+02 -0.15888343925E+03  0.35534180772E+03  0.16500000000E+03 0.  0.
   -5000001    1    1    2    0    0  0.26381080700E+03  0.64828320589E+02 -0.59738373992E+02  0.32340767828E+03  0.16500000000E+03 0.  0.
<mgrwt>
<rscale>  0 0.64257713E+03</rscale>
<asrwt>0</asrwt>
<pdfrwt beam="1">  1        2 0.32866263E-01 0.64257713E+03</pdfrwt>
<pdfrwt beam="2">  1       -2 0.64097949E-01 0.64257713E+03</pdfrwt>
<totfact> 0.36451626E+02</totfact>
</mgrwt>
</event>
<event>
 4    1  0.5312547E-005  0.3851008E+03  0.7818608E-02  0.1049064E+00
          2   -1    0    0  501    0  0.00000000000E+00  0.00000000000E+00  0.62718472875E+03  0.62718472875E+03  0.25500000000E-02 0.  1.
         -2   -1    0    0    0  501 -0.00000000000E+00 -0.00000000000E+00 -0.59114409535E+02  0.59114409590E+02  0.25500000000E-02 0. -1.
    5000001    1    1    2    0    0 -0.73087605740E+02  0.37245250863E+02  0.18446458473E+03  0.26073202689E+03  0.16500000000E+03 0.  0.
   -5000001    1    1    2    0    0  0.73087605740E+02 -0.37245250863E+02  0.38360573448E+03  0.42556711145E+03  0.16500000000E+03 0.  0.
<mgrwt>
<rscale>  0 0.38510079E+03</rscale>
<asrwt>0</asrwt>
<pdfrwt beam="1">  1        2 0.89597820E-01 0.38510079E+03</pdfrwt>
<pdfrwt beam="2">  1       -2 0.84449155E-02 0.38510079E+03</pdfrwt>
<totfact> 0.45658242E+03</totfact>
</mgrwt>
</event>
<event>
 4    1  0.5312547E-005  0.3855328E+03  0.7818608E-02  0.1048908E+00
         -2   -1    0    0    0  501 -0.00000000000E+00  0.00000000000E+00  0.18073167386E+02  0.18073167566E+02  0.25500000000E-02 0. -1.
          2   -1    0    0  501    0  0.00000000000E+00 -0.00000000000E+00 -0.20560252385E+04  0.20560252385E+04  0.25500000000E-02 0.  1.
    5000001    1    1    2    0    0  0.77510161116E+02 -0.61278107137E+02 -0.94861399783E+03  0.96791339921E+03  0.16500000000E+03 0.  0.
   -5000001    1    1    2    0    0 -0.77510161116E+02  0.61278107137E+02 -0.10893380733E+04  0.11061850069E+04  0.16500000000E+03 0.  0.
<mgrwt>
<rscale>  0 0.38553282E+03</rscale>
<asrwt>0</asrwt>
<pdfrwt beam="1">  1        2 0.29371774E+00 0.38553282E+03</pdfrwt>
<pdfrwt beam="2">  1       -2 0.25818824E-02 0.38553282E+03</pdfrwt>
<totfact> 0.43889360E+03</totfact>
</mgrwt>
</event>
<event>
 4    1  0.5312547E-005  0.4371067E+03  0.7818608E-02  0.1031638E+00
         -2   -1    0    0    0  501 -0.00000000000E+00  0.00000000000E+00  0.10207983079E+04  0.10207983079E+04  0.25500000000E-02 0. -1.
          2   -1    0    0  501    0  0.00000000000E+00 -0.00000000000E+00 -0.46792374105E+02  0.46792374174E+02  0.25500000000E-02 0.  1.
    5000001    1    1    2    0    0  0.67219593911E+02 -0.10374885591E+03  0.30989462542E+03  0.37221227514E+03  0.16500000000E+03 0.  0.
   -5000001    1    1    2    0    0 -0.67219593911E+02  0.10374885591E+03  0.66411130835E+03  0.69537840690E+03  0.16500000000E+03 0.  0.
<mgrwt>
<rscale>  0 0.43710674E+03</rscale>
<asrwt>0</asrwt>
<pdfrwt beam="1">  1        2 0.66846258E-02 0.43710674E+03</pdfrwt>
<pdfrwt beam="2">  1       -2 0.14582831E+00 0.43710674E+03</pdfrwt>
<totfact> 0.36721554E+02</totfact>
</mgrwt>
</event>
<event>
 4    1  0.5312547E-005  0.4928610E+03  0.7818608E-02  0.1015659E+00
          2   -1    0    0  501    0  0.00000000000E+00  0.00000000000E+00  0.11955331396E+04  0.11955331396E+04  0.25500000000E-02 0.  1.
         -2   -1    0    0    0  501 -0.00000000000E+00 -0.00000000000E+00 -0.50795742787E+02  0.50795742851E+02  0.25500000000E-02 0. -1.
    5000001    1    1    2    0    0  0.16976695160E+03 -0.65996539882E+02  0.52666639728E+03  0.58118745268E+03  0.16500000000E+03 0.  0.
   -5000001    1    1    2    0    0 -0.16976695160E+03  0.65996539882E+02  0.61807099956E+03  0.66514142980E+03  0.16500000000E+03 0.  0.
<mgrwt>
<rscale>  0 0.49286101E+03</rscale>
<asrwt>0</asrwt>
<pdfrwt beam="1">  1        2 0.17079042E+00 0.49286101E+03</pdfrwt>
<pdfrwt beam="2">  1       -2 0.72565359E-02 0.49286101E+03</pdfrwt>
<totfact> 0.24854366E+03</totfact>
</mgrwt>
</event>
<event>
 4    1  0.5312547E-005  0.6458723E+03  0.7818608E-02  0.9814555E-01
          2   -1    0    0  501    0  0.00000000000E+00  0.00000000000E+00  0.85625043806E+03  0.85625043806E+03  0.25500000000E-02 0.  1.
         -2   -1    0    0    0  501 -0.00000000000E+00 -0.00000000000E+00 -0.12179587026E+03  0.12179587028E+03  0.25500000000E-02 0. -1.
    5000001    1    1    2    0    0 -0.54818688399E+02 -0.25240494590E+03  0.21317406230E+03  0.37333835344E+03  0.16500000000E+03 0.  0.
   -5000001    1    1    2    0    0  0.54818688399E+02  0.25240494590E+03  0.52128050550E+03  0.60470795490E+03  0.16500000000E+03 0.  0.
<mgrwt>
<rscale>  0 0.64587233E+03</rscale>
<asrwt>0</asrwt>
<pdfrwt beam="1">  1        2 0.12232148E+00 0.64587233E+03</pdfrwt>
<pdfrwt beam="2">  1       -2 0.17399411E-01 0.64587233E+03</pdfrwt>
<totfact> 0.94855024E+02</totfact>
</mgrwt>
</event>
<event>
 4    1  0.5312547E-005  0.3674132E+03  0.7818608E-02  0.1055687E+00
          2   -1    0    0  501    0  0.00000000000E+00  0.00000000000E+00  0.24062798857E+04  0.24062798857E+04  0.25500000000E-02 0. -1.
         -2   -1    0    0    0  501 -0.00000000000E+00 -0.00000000000E+00 -0.14025015767E+02  0.14025015999E+02  0.25500000000E-02 0.  1.
    5000001    1    1    2    0    0  0.47074787015E+02  0.51431497069E+02  0.14646711878E+04  0.14755839260E+04  0.16500000000E+03 0.  0.
   -5000001    1    1    2    0    0 -0.47074787015E+02 -0.51431497069E+02  0.92758368215E+03  0.94472097567E+03  0.16500000000E+03 0.  0.
<mgrwt>
<rscale>  0 0.36741319E+03</rscale>
<asrwt>0</asrwt>
<pdfrwt beam="1">  1        2 0.34375403E+00 0.36741319E+03</pdfrwt>
<pdfrwt beam="2">  1       -2 0.20035751E-02 0.36741319E+03</pdfrwt>
<totfact> 0.42929488E+03</totfact>
</mgrwt>
</event>
<event>
 4    1  0.5312547E-005  0.4340393E+03  0.7818608E-02  0.1032592E+00
          2   -1    0    0  501    0  0.00000000000E+00  0.00000000000E+00  0.82568190925E+03  0.82568190925E+03  0.25500000000E-02 0.  1.
         -2   -1    0    0    0  501 -0.00000000000E+00 -0.00000000000E+00 -0.57040754408E+02  0.57040754465E+02  0.25500000000E-02 0. -1.
    5000001    1    1    2    0    0 -0.59031390887E+02  0.12432540570E+03  0.44637487118E+03  0.49539583893E+03  0.16500000000E+03 0.  0.
   -5000001    1    1    2    0    0  0.59031390887E+02 -0.12432540570E+03  0.32226628366E+03  0.38732682478E+03  0.16500000000E+03 0.  0.
<mgrwt>
<rscale>  0 0.43403926E+03</rscale>
<asrwt>0</asrwt>
<pdfrwt beam="1">  1        2 0.11795455E+00 0.43403926E+03</pdfrwt>
<pdfrwt beam="2">  1       -2 0.81486795E-02 0.43403926E+03</pdfrwt>
<totfact> 0.34621334E+03</totfact>
</mgrwt>
</event>
<event>
 4    1  0.5312547E-005  0.4039006E+03  0.7818608E-02  0.1042437E+00
          2   -1    0    0  501    0  0.00000000000E+00  0.00000000000E+00  0.15462036256E+03  0.15462036258E+03  0.25500000000E-02 0.  1.
         -2   -1    0    0    0  501 -0.00000000000E+00 -0.00000000000E+00 -0.26376811198E+03  0.26376811199E+03  0.25500000000E-02 0. -1.
    5000001    1    1    2    0    0 -0.94628391750E+02 -0.64248674711E+02 -0.77185669377E+02  0.21509312468E+03  0.16500000000E+03 0.  0.
   -5000001    1    1    2    0    0  0.94628391750E+02  0.64248674711E+02 -0.31962080049E+02  0.20329534989E+03  0.16500000000E+03 0.  0.
<mgrwt>
<rscale>  0 0.40390059E+03</rscale>
<asrwt>0</asrwt>
<pdfrwt beam="1">  1        2 0.22088623E-01 0.40390059E+03</pdfrwt>
<pdfrwt beam="2">  1       -2 0.37681159E-01 0.40390059E+03</pdfrwt>
<totfact> 0.16675752E+03</totfact>
</mgrwt>
</event>
<event>
 4    1  0.5312547E-005  0.3495755E+03  0.7818608E-02  0.1062789E+00
          2   -1    0    0  501    0  0.00000000000E+00  0.00000000000E+00  0.57935895479E+03  0.57935895480E+03  0.25500000000E-02 0.  1.
         -2   -1    0    0    0  501 -0.00000000000E+00 -0.00000000000E+00 -0.52732000315E+02  0.52732000376E+02  0.25500000000E-02 0. -1.
    5000001    1    1    2    0    0 -0.34506205630E+02  0.28926881253E+02  0.32846558227E+03  0.37032699256E+03  0.16500000000E+03 0.  0.
   -5000001    1    1    2    0    0  0.34506205630E+02 -0.28926881253E+02  0.19816137221E+03  0.26176396261E+03  0.16500000000E+03 0.  0.
<mgrwt>
<rscale>  0 0.34957549E+03</rscale>
<asrwt>0</asrwt>
<pdfrwt beam="1">  1        2 0.82765564E-01 0.34957549E+03</pdfrwt>
<pdfrwt beam="2">  1       -2 0.75331430E-02 0.34957549E+03</pdfrwt>
<totfact> 0.59774933E+03</totfact>
</mgrwt>
</event>
<event>
 4    1  0.5312547E-005  0.4528253E+03  0.7818608E-02  0.1026883E+00
          2   -1    0    0  501    0  0.00000000000E+00  0.00000000000E+00  0.27131473129E+03  0.27131473130E+03  0.25500000000E-02 0. -1.
         -2   -1    0    0    0  501 -0.00000000000E+00 -0.00000000000E+00 -0.18894177760E+03  0.18894177762E+03  0.25500000000E-02 0.  1.
    5000001    1    1    2    0    0 -0.13631785893E+03 -0.59753049858E+02 -0.29391210149E+01  0.22223101508E+03  0.16500000000E+03 0.  0.
   -5000001    1    1    2    0    0  0.13631785893E+03  0.59753049858E+02  0.85312074703E+02  0.23802549385E+03  0.16500000000E+03 0.  0.
<mgrwt>
<rscale>  0 0.45282530E+03</rscale>
<asrwt>0</asrwt>
<pdfrwt beam="1">  1        2 0.38759247E-01 0.45282530E+03</pdfrwt>
<pdfrwt beam="2">  1       -2 0.26991683E-01 0.45282530E+03</pdfrwt>
<totfact> 0.16525565E+03</totfact>
</mgrwt>
</event>
<event>
 4    1  0.5312547E-005  0.6656905E+03  0.7818608E-02  0.9777775E-01
         -2   -1    0    0    0  501 -0.00000000000E+00  0.00000000000E+00  0.14831846893E+03  0.14831846895E+03  0.25500000000E-02 0. -1.
          2   -1    0    0  501    0  0.00000000000E+00 -0.00000000000E+00 -0.74694638759E+03  0.74694638759E+03  0.25500000000E-02 0.  1.
    5000001    1    1    2    0    0 -0.19316029473E+03 -0.15566167027E+03 -0.99749669050E+02  0.31419174325E+03  0.16500000000E+03 0.  0.
   -5000001    1    1    2    0    0  0.19316029473E+03  0.15566167027E+03 -0.49887824961E+03  0.58107311329E+03  0.16500000000E+03 0.  0.
<mgrwt>
<rscale>  0 0.66569045E+03</rscale>
<asrwt>0</asrwt>
<pdfrwt beam="1">  1        2 0.10670662E+00 0.66569045E+03</pdfrwt>
<pdfrwt beam="2">  1       -2 0.21188353E-01 0.66569045E+03</pdfrwt>
<totfact> 0.80238735E+02</totfact>
</mgrwt>
</event>
<event>
 4    1  0.5312547E-005  0.4129941E+03  0.7818608E-02  0.1039371E+00
          2   -1    0    0  501    0  0.00000000000E+00  0.00000000000E+00  0.32335854652E+02  0.32335854752E+02  0.25500000000E-02 0.  1.
         -2   -1    0    0    0  501 -0.00000000000E+00 -0.00000000000E+00 -0.13186916450E+04  0.13186916450E+04  0.25500000000E-02 0. -1.
    5000001    1    1    2    0    0 -0.85857433976E+02 -0.88058985383E+02 -0.58745645030E+03  0.62245960903E+03  0.16500000000E+03 0.  0.
   -5000001    1    1    2    0    0  0.85857433976E+02  0.88058985383E+02 -0.69889934007E+03  0.72856789075E+03  0.16500000000E+03 0.  0.
<mgrwt>
<rscale>  0 0.41299405E+03</rscale>
<asrwt>0</asrwt>
<pdfrwt beam="1">  1        2 0.46194086E-02 0.41299405E+03</pdfrwt>
<pdfrwt beam="2">  1       -2 0.18838449E+00 0.41299405E+03</pdfrwt>
<totfact> 0.29959505E+02</totfact>
</mgrwt>
</event>
<event>
 4    1  0.5312547E-005  0.4214978E+03  0.7818608E-02  0.1036580E+00
         -2   -1    0    0    0  501 -0.00000000000E+00  0.00000000000E+00  0.47968205756E+03  0.47968205756E+03  0.25500000000E-02 0.  1.
          2   -1    0    0  501    0  0.00000000000E+00 -0.00000000000E+00 -0.92592767021E+02  0.92592767056E+02  0.25500000000E-02 0. -1.
    5000001    1    1    2    0    0  0.55856146108E+01 -0.12352895917E+03  0.25271817071E+03  0.32616265367E+03  0.16500000000E+03 0.  0.
   -5000001    1    1    2    0    0 -0.55856146108E+01  0.12352895917E+03  0.13437111983E+03  0.24611217095E+03  0.16500000000E+03 0.  0.
<mgrwt>
<rscale>  0 0.42149775E+03</rscale>
<asrwt>0</asrwt>
<pdfrwt beam="1">  1        2 0.13227538E-01 0.42149775E+03</pdfrwt>
<pdfrwt beam="2">  1       -2 0.68526008E-01 0.42149775E+03</pdfrwt>
<totfact> 0.91287055E+02</totfact>
</mgrwt>
</event>
<event>
 4    1  0.5312547E-005  0.6856024E+03  0.7818608E-02  0.9742176E-01
         -2   -1    0    0    0  501 -0.00000000000E+00  0.00000000000E+00  0.45070742262E+02  0.45070742334E+02  0.25500000000E-02 0. -1.
          2   -1    0    0  501    0  0.00000000000E+00 -0.00000000000E+00 -0.26072936132E+04  0.26072936132E+04  0.25500000000E-02 0.  1.
    5000001    1    1    2    0    0  0.25101375136E+03 -0.14323667135E+03 -0.15992606922E+04  0.16335190262E+04  0.16500000000E+03 0.  0.
   -5000001    1    1    2    0    0 -0.25101375136E+03  0.14323667135E+03 -0.96296217869E+03  0.10188453293E+04  0.16500000000E+03 0.  0.
<mgrwt>
<rscale>  0 0.68560239E+03</rscale>
<asrwt>0</asrwt>
<pdfrwt beam="1">  1        2 0.37247042E+00 0.68560239E+03</pdfrwt>
<pdfrwt beam="2">  1       -2 0.64386791E-02 0.68560239E+03</pdfrwt>
<totfact> 0.55918719E+02</totfact>
</mgrwt>
</event>
<event>
 4    1  0.5312547E-005  0.5916436E+03  0.7818608E-02  0.9922896E-01
         -2   -1    0    0    0  501 -0.00000000000E+00  0.00000000000E+00  0.42655408154E+03  0.42655408155E+03  0.25500000000E-02 0. -1.
          2   -1    0    0  501    0  0.00000000000E+00 -0.00000000000E+00 -0.20515696923E+03  0.20515696925E+03  0.25500000000E-02 0.  1.
    5000001    1    1    2    0    0  0.77151695185E+02  0.87335926939E+02  0.34144910463E+03  0.39672715972E+03  0.16500000000E+03 0.  0.
   -5000001    1    1    2    0    0 -0.77151695185E+02 -0.87335926939E+02 -0.12005199232E+03  0.23498389108E+03  0.16500000000E+03 0.  0.
<mgrwt>
<rscale>  0 0.59164362E+03</rscale>
<asrwt>0</asrwt>
<pdfrwt beam="1">  1        2 0.29308139E-01 0.59164362E+03</pdfrwt>
<pdfrwt beam="2">  1       -2 0.60936296E-01 0.59164362E+03</pdfrwt>
<totfact> 0.46196895E+02</totfact>
</mgrwt>
</event>
<event>
 4    1  0.5312547E-005  0.8565917E+03  0.7818608E-02  0.9481532E-01
          2   -1    0    0  501    0  0.00000000000E+00  0.00000000000E+00  0.32682849751E+04  0.32682849751E+04  0.25500000000E-02 0.  1.
         -2   -1    0    0    0  501 -0.00000000000E+00 -0.00000000000E+00 -0.56126475289E+02  0.56126475347E+02  0.25500000000E-02 0. -1.
    5000001    1    1    2    0    0  0.37249772213E+03  0.13168882452E+03  0.16478455632E+04  0.17025617462E+04  0.16500000000E+03 0.  0.
   -5000001    1    1    2    0    0 -0.37249772213E+03 -0.13168882452E+03  0.15643129367E+04  0.16218497043E+04  0.16500000000E+03 0.  0.
<mgrwt>
<rscale>  0 0.85659166E+03</rscale>
<asrwt>0</asrwt>
<pdfrwt beam="1">  1        2 0.46689801E+00 0.85659166E+03</pdfrwt>
<pdfrwt beam="2">  1       -2 0.80180651E-02 0.85659166E+03</pdfrwt>
<totfact> 0.16950255E+02</totfact>
</mgrwt>
</event>
<event>
 4    1  0.5312547E-005  0.4493901E+03  0.7818608E-02  0.1027904E+00
          2   -1    0    0  501    0  0.00000000000E+00  0.00000000000E+00  0.17827041532E+03  0.17827041534E+03  0.25500000000E-02 0.  1.
         -2   -1    0    0    0  501 -0.00000000000E+00 -0.00000000000E+00 -0.28320949513E+03  0.28320949514E+03  0.25500000000E-02 0. -1.
    5000001    1    1    2    0    0 -0.11630455337E+03  0.98357678187E+02 -0.60548355444E+02  0.23257705248E+03  0.16500000000E+03 0.  0.
   -5000001    1    1    2    0    0  0.11630455337E+03 -0.98357678187E+02 -0.44390724360E+02  0.22890285800E+03  0.16500000000E+03 0.  0.
<mgrwt>
<rscale>  0 0.44939014E+03</rscale>
<asrwt>0</asrwt>
<pdfrwt beam="1">  1        2 0.25467202E-01 0.44939014E+03</pdfrwt>
<pdfrwt beam="2">  1       -2 0.40458499E-01 0.44939014E+03</pdfrwt>
<totfact> 0.12382618E+03</totfact>
</mgrwt>
</event>
<event>
 4    1  0.5312547E-005  0.5715709E+03  0.7818608E-02  0.9966208E-01
          2   -1    0    0  501    0  0.00000000000E+00  0.00000000000E+00  0.17400056623E+03  0.17400056625E+03  0.25500000000E-02 0.  1.
         -2   -1    0    0    0  501 -0.00000000000E+00 -0.00000000000E+00 -0.46938545473E+03  0.46938545474E+03  0.25500000000E-02 0. -1.
    5000001    1    1    2    0    0 -0.19032694701E+03 -0.32237039936E+02 -0.13088564512E+00  0.25394603882E+03  0.16500000000E+03 0.  0.
   -5000001    1    1    2    0    0  0.19032694701E+03  0.32237039936E+02 -0.29525400286E+03  0.38943998216E+03  0.16500000000E+03 0.  0.
<mgrwt>
<rscale>  0 0.57157094E+03</rscale>
<asrwt>0</asrwt>
<pdfrwt beam="1">  1        2 0.24857224E-01 0.57157094E+03</pdfrwt>
<pdfrwt beam="2">  1       -2 0.67055065E-01 0.57157094E+03</pdfrwt>
<totfact> 0.45432250E+02</totfact>
</mgrwt>
</event>
<event>
 4    1  0.5312547E-005  0.4784061E+03  0.7818608E-02  0.1019574E+00
          2   -1    0    0  501    0  0.00000000000E+00  0.00000000000E+00  0.64907066783E+03  0.64907066783E+03  0.25500000000E-02 0.  1.
         -2   -1    0    0    0  501 -0.00000000000E+00 -0.00000000000E+00 -0.88153877877E+02  0.88153877914E+02  0.25500000000E-02 0. -1.
    5000001    1    1    2    0    0 -0.48348110673E+02 -0.16228654290E+03  0.22449999091E+03  0.32603635952E+03  0.16500000000E+03 0.  0.
   -5000001    1    1    2    0    0  0.48348110673E+02  0.16228654290E+03  0.33641679904E+03  0.41118818622E+03  0.16500000000E+03 0.  0.
<mgrwt>
<rscale>  0 0.47840609E+03</rscale>
<asrwt>0</asrwt>
<pdfrwt beam="1">  1        2 0.92724386E-01 0.47840609E+03</pdfrwt>
<pdfrwt beam="2">  1       -2 0.12593410E-01 0.47840609E+03</pdfrwt>
<totfact> 0.23083271E+03</totfact>
</mgrwt>
</event>
<event>
 4    1  0.5312547E-005  0.3624963E+03  0.7818608E-02  0.1057600E+00
          2   -1    0    0  501    0  0.00000000000E+00  0.00000000000E+00  0.68141768741E+03  0.68141768742E+03  0.25500000000E-02 0.  1.
         -2   -1    0    0    0  501 -0.00000000000E+00 -0.00000000000E+00 -0.48209628634E+02  0.48209628701E+02  0.25500000000E-02 0. -1.
    5000001    1    1    2    0    0 -0.60360141452E+02 -0.43882477722E+02  0.33178357557E+03  0.37798724786E+03  0.16500000000E+03 0.  0.
   -5000001    1    1    2    0    0  0.60360141452E+02  0.43882477722E+02  0.30142448321E+03  0.35164006826E+03  0.16500000000E+03 0.  0.
<mgrwt>
<rscale>  0 0.36249631E+03</rscale>
<asrwt>0</asrwt>
<pdfrwt beam="1">  1        2 0.97345379E-01 0.36249631E+03</pdfrwt>
<pdfrwt beam="2">  1       -2 0.68870901E-02 0.36249631E+03</pdfrwt>
<totfact> 0.56954139E+03</totfact>
</mgrwt>
</event>
<event>
 4    1  0.5312547E-005  0.4886672E+03  0.7818608E-02  0.1016780E+00
         -2   -1    0    0    0  501 -0.00000000000E+00  0.00000000000E+00  0.75338108375E+02  0.75338108419E+02  0.25500000000E-02 0. -1.
          2   -1    0    0  501    0  0.00000000000E+00 -0.00000000000E+00 -0.79241328540E+03  0.79241328541E+03  0.25500000000E-02 0.  1.
    5000001    1    1    2    0    0 -0.16328566055E+03 -0.37373189999E+02 -0.47652760735E+03  0.53137794726E+03  0.16500000000E+03 0.  0.
   -5000001    1    1    2    0    0  0.16328566055E+03  0.37373189999E+02 -0.24054756968E+03  0.33637344656E+03  0.16500000000E+03 0.  0.
<mgrwt>
<rscale>  0 0.48866724E+03</rscale>
<asrwt>0</asrwt>
<pdfrwt beam="1">  1        2 0.11320189E+00 0.48866724E+03</pdfrwt>
<pdfrwt beam="2">  1       -2 0.10762587E-01 0.48866724E+03</pdfrwt>
<totfact> 0.23373634E+03</totfact>
</mgrwt>
</event>
<event>
 4    1  0.5312547E-005  0.7159761E+03  0.7818608E-02  0.9690294E-01
         -2   -1    0    0    0  501 -0.00000000000E+00  0.00000000000E+00  0.13946657754E+03  0.13946657757E+03  0.25500000000E-02 0. -1.
          2   -1    0    0  501    0  0.00000000000E+00 -0.00000000000E+00 -0.91889720689E+03  0.91889720690E+03  0.25500000000E-02 0.  1.
    5000001    1    1    2    0    0  0.27804997431E+03  0.12526330480E+02 -0.16329434200E+03  0.36243446207E+03  0.16500000000E+03 0.  0.
   -5000001    1    1    2    0    0 -0.27804997431E+03 -0.12526330480E+02 -0.61613628735E+03  0.69592932239E+03  0.16500000000E+03 0.  0.
<mgrwt>
<rscale>  0 0.71597611E+03</rscale>
<asrwt>0</asrwt>
<pdfrwt beam="1">  1        2 0.13127103E+00 0.71597611E+03</pdfrwt>
<pdfrwt beam="2">  1       -2 0.19923797E-01 0.71597611E+03</pdfrwt>
<totfact> 0.68150500E+02</totfact>
</mgrwt>
</event>
<event>
 4    1  0.5312547E-005  0.7291972E+03  0.7818608E-02  0.9668564E-01
          2   -1    0    0  501    0  0.00000000000E+00  0.00000000000E+00  0.19009004659E+04  0.19009004659E+04  0.25500000000E-02 0.  1.
         -2   -1    0    0    0  501 -0.00000000000E+00 -0.00000000000E+00 -0.69931149483E+02  0.69931149529E+02  0.25500000000E-02 0. -1.
    5000001    1    1    2    0    0  0.29935392611E+03  0.12651986254E+03  0.94070950332E+03  0.10088505431E+04  0.16500000000E+03 0.  0.
   -5000001    1    1    2    0    0 -0.29935392611E+03 -0.12651986254E+03  0.89025981311E+03  0.96198107234E+03  0.16500000000E+03 0.  0.
<mgrwt>
<rscale>  0 0.72919724E+03</rscale>
<asrwt>0</asrwt>
<pdfrwt beam="1">  1        2 0.27155720E+00 0.72919724E+03</pdfrwt>
<pdfrwt beam="2">  1       -2 0.99901644E-02 0.72919724E+03</pdfrwt>
<totfact> 0.63216973E+02</totfact>
</mgrwt>
</event>
<event>
 4    1  0.5312547E-005  0.7103398E+03  0.7818608E-02  0.9699711E-01
          2   -1    0    0  501    0  0.00000000000E+00  0.00000000000E+00  0.17581095306E+03  0.17581095308E+03  0.25500000000E-02 0.  1.
         -2   -1    0    0    0  501 -0.00000000000E+00 -0.00000000000E+00 -0.71750731138E+03  0.71750731138E+03  0.25500000000E-02 0. -1.
    5000001    1    1    2    0    0 -0.27635894550E+03  0.15001030591E+03 -0.27912210983E+03  0.45167633415E+03  0.16500000000E+03 0.  0.
   -5000001    1    1    2    0    0  0.27635894550E+03 -0.15001030591E+03 -0.26257424849E+03  0.44164193031E+03  0.16500000000E+03 0.  0.
<mgrwt>
<rscale>  0 0.71033976E+03</rscale>
<asrwt>0</asrwt>
<pdfrwt beam="1">  1        2 0.25115851E-01 0.71033976E+03</pdfrwt>
<pdfrwt beam="2">  1       -2 0.10250104E+00 0.71033976E+03</pdfrwt>
<totfact> 0.17144944E+02</totfact>
</mgrwt>
</event>
<event>
 4    1  0.5312547E-005  0.3646337E+03  0.7818608E-02  0.1056764E+00
         -2   -1    0    0    0  501 -0.00000000000E+00  0.00000000000E+00  0.80924902965E+02  0.80924903005E+02  0.25500000000E-02 0. -1.
          2   -1    0    0  501    0  0.00000000000E+00 -0.00000000000E+00 -0.41074419135E+03  0.41074419136E+03  0.25500000000E-02 0.  1.
    5000001    1    1    2    0    0  0.64152954698E+02  0.24694140257E+02 -0.11649821534E+03  0.21335940649E+03  0.16500000000E+03 0.  0.
   -5000001    1    1    2    0    0 -0.64152954698E+02 -0.24694140257E+02 -0.21332107304E+03  0.27830968787E+03  0.16500000000E+03 0.  0.
<mgrwt>
<rscale>  0 0.36463370E+03</rscale>
<asrwt>0</asrwt>
<pdfrwt beam="1">  1        2 0.58677741E-01 0.36463370E+03</pdfrwt>
<pdfrwt beam="2">  1       -2 0.11560701E-01 0.36463370E+03</pdfrwt>
<totfact> 0.44407191E+03</totfact>
</mgrwt>
</event>
<event>
 4    1  0.5312547E-005  0.6319275E+03  0.7818608E-02  0.9841295E-01
          2   -1    0    0  501    0  0.00000000000E+00  0.00000000000E+00  0.14557681925E+03  0.14557681927E+03  0.25500000000E-02 0.  1.
         -2   -1    0    0    0  501 -0.00000000000E+00 -0.00000000000E+00 -0.68577606518E+03  0.68577606519E+03  0.25500000000E-02 0. -1.
    5000001    1    1    2    0    0  0.19193321931E+03  0.17844815288E+03 -0.18766816654E+03  0.36211385595E+03  0.16500000000E+03 0.  0.
   -5000001    1    1    2    0    0 -0.19193321931E+03 -0.17844815288E+03 -0.35253107939E+03  0.46923902851E+03  0.16500000000E+03 0.  0.
<mgrwt>
<rscale>  0 0.63192752E+03</rscale>
<asrwt>0</asrwt>
<pdfrwt beam="1">  1        2 0.20796689E-01 0.63192752E+03</pdfrwt>
<pdfrwt beam="2">  1       -2 0.97968008E-01 0.63192752E+03</pdfrwt>
<totfact> 0.23795640E+02</totfact>
</mgrwt>
</event>
<event>
 4    1  0.5312547E-005  0.6087572E+03  0.7818608E-02  0.9887402E-01
          2   -1    0    0  501    0  0.00000000000E+00  0.00000000000E+00  0.11484865071E+04  0.11484865071E+04  0.25500000000E-02 0.  1.
         -2   -1    0    0    0  501 -0.00000000000E+00 -0.00000000000E+00 -0.80668204495E+02  0.80668204536E+02  0.25500000000E-02 0. -1.
    5000001    1    1    2    0    0 -0.48918287000E+02  0.22817664867E+03  0.74532727921E+03  0.79824515967E+03  0.16500000000E+03 0.  0.
   -5000001    1    1    2    0    0  0.48918287000E+02 -0.22817664867E+03  0.32249102336E+03  0.43090955193E+03  0.16500000000E+03 0.  0.
<mgrwt>
<rscale>  0 0.60875724E+03</rscale>
<asrwt>0</asrwt>
<pdfrwt beam="1">  1        2 0.16406951E+00 0.60875724E+03</pdfrwt>
<pdfrwt beam="2">  1       -2 0.11524029E-01 0.60875724E+03</pdfrwt>
<totfact> 0.12538468E+03</totfact>
</mgrwt>
</event>
<event>
 4    1  0.5312547E-005  0.3986397E+03  0.7818608E-02  0.1044252E+00
          2   -1    0    0  501    0  0.00000000000E+00  0.00000000000E+00  0.19223938561E+04  0.19223938561E+04  0.25500000000E-02 0.  1.
         -2   -1    0    0    0  501 -0.00000000000E+00 -0.00000000000E+00 -0.20666105915E+02  0.20666106072E+02  0.25500000000E-02 0. -1.
    5000001    1    1    2    0    0 -0.77252715744E+02  0.75098274020E+02  0.10967378625E+04  0.11143009790E+04  0.16500000000E+03 0.  0.
   -5000001    1    1    2    0    0  0.77252715744E+02 -0.75098274020E+02  0.80498988774E+03  0.82875898319E+03  0.16500000000E+03 0.  0.
<mgrwt>
<rscale>  0 0.39863966E+03</rscale>
<asrwt>0</asrwt>
<pdfrwt beam="1">  1        2 0.27462763E+00 0.39863966E+03</pdfrwt>
<pdfrwt beam="2">  1       -2 0.29523015E-02 0.39863966E+03</pdfrwt>
<totfact> 0.41784523E+03</totfact>
</mgrwt>
</event>
<event>
 4    1  0.5312547E-005  0.5321455E+03  0.7818608E-02  0.1005713E+00
          2   -1    0    0  501    0  0.00000000000E+00  0.00000000000E+00  0.55986599648E+03  0.55986599649E+03  0.25500000000E-02 0.  1.
         -2   -1    0    0    0  501 -0.00000000000E+00 -0.00000000000E+00 -0.12644939800E+03  0.12644939802E+03  0.25500000000E-02 0. -1.
    5000001    1    1    2    0    0  0.14817710055E+03  0.14645495586E+03  0.23323531500E+03  0.35359471063E+03  0.16500000000E+03 0.  0.
   -5000001    1    1    2    0    0 -0.14817710055E+03 -0.14645495586E+03  0.20018128349E+03  0.33272068388E+03  0.16500000000E+03 0.  0.
<mgrwt>
<rscale>  0 0.53214554E+03</rscale>
<asrwt>0</asrwt>
<pdfrwt beam="1">  1        2 0.79980856E-01 0.53214554E+03</pdfrwt>
<pdfrwt beam="2">  1       -2 0.18064200E-01 0.53214554E+03</pdfrwt>
<totfact> 0.14984146E+03</totfact>
</mgrwt>
</event>
<event>
 4    1  0.5312547E-005  0.7153021E+03  0.7818608E-02  0.9691416E-01
          2   -1    0    0  501    0  0.00000000000E+00  0.00000000000E+00  0.22312557278E+04  0.22312557278E+04  0.25500000000E-02 0.  1.
         -2   -1    0    0    0  501 -0.00000000000E+00 -0.00000000000E+00 -0.57328374239E+02  0.57328374295E+02  0.25500000000E-02 0. -1.
    5000001    1    1    2    0    0  0.22653409073E+03 -0.22051230686E+03  0.11743443295E+04  0.12272949833E+04  0.16500000000E+03 0.  0.
   -5000001    1    1    2    0    0 -0.22653409073E+03  0.22051230686E+03  0.99958302409E+03  0.10612891189E+04  0.16500000000E+03 0.  0.
<mgrwt>
<rscale>  0 0.71530207E+03</rscale>
<asrwt>0</asrwt>
<pdfrwt beam="1">  1        2 0.31875079E+00 0.71530207E+03</pdfrwt>
<pdfrwt beam="2">  1       -2 0.81897686E-02 0.71530207E+03</pdfrwt>
<totfact> 0.59351319E+02</totfact>
</mgrwt>
</event>
<event>
 4    1  0.5312547E-005  0.5342974E+03  0.7818608E-02  0.1005195E+00
         -2   -1    0    0    0  501 -0.00000000000E+00  0.00000000000E+00  0.17433035878E+04  0.17433035878E+04  0.25500000000E-02 0. -1.
          2   -1    0    0  501    0  0.00000000000E+00 -0.00000000000E+00 -0.40938609581E+02  0.40938609661E+02  0.25500000000E-02 0.  1.
    5000001    1    1    2    0    0  0.15673479548E+03 -0.13991764249E+03  0.84842419632E+03  0.88948938144E+03  0.16500000000E+03 0.  0.
   -5000001    1    1    2    0    0 -0.15673479548E+03  0.13991764249E+03  0.85394078190E+03  0.89475281602E+03  0.16500000000E+03 0.  0.
<mgrwt>
<rscale>  0 0.53429739E+03</rscale>
<asrwt>0</asrwt>
<pdfrwt beam="1">  1        2 0.58483722E-02 0.53429739E+03</pdfrwt>
<pdfrwt beam="2">  1       -2 0.24904339E+00 0.53429739E+03</pdfrwt>
<totfact> 0.91036525E+01</totfact>
</mgrwt>
</event>
<event>
 4    1  0.5312547E-005  0.4914315E+03  0.7818608E-02  0.1016040E+00
          2   -1    0    0  501    0  0.00000000000E+00  0.00000000000E+00  0.39136573223E+03  0.39136573223E+03  0.25500000000E-02 0.  1.
         -2   -1    0    0    0  501 -0.00000000000E+00 -0.00000000000E+00 -0.15427062523E+03  0.15427062525E+03  0.25500000000E-02 0. -1.
    5000001    1    1    2    0    0  0.30311095836E+02 -0.14637468755E+03  0.31248223314E+01  0.22266359424E+03  0.16500000000E+03 0.  0.
   -5000001    1    1    2    0    0 -0.30311095836E+02  0.14637468755E+03  0.23397028467E+03  0.32297276324E+03  0.16500000000E+03 0.  0.
<mgrwt>
<rscale>  0 0.49143153E+03</rscale>
<asrwt>0</asrwt>
<pdfrwt beam="1">  1        2 0.55909390E-01 0.49143153E+03</pdfrwt>
<pdfrwt beam="2">  1       -2 0.22038661E-01 0.49143153E+03</pdfrwt>
<totfact> 0.15868862E+03</totfact>
</mgrwt>
</event>
<event>
 4    1  0.5312547E-005  0.4844918E+03  0.7818608E-02  0.1017908E+00
         -2   -1    0    0    0  501 -0.00000000000E+00  0.00000000000E+00  0.18163022959E+03  0.18163022961E+03  0.25500000000E-02 0. -1.
          2   -1    0    0  501    0  0.00000000000E+00 -0.00000000000E+00 -0.32309089002E+03  0.32309089003E+03  0.25500000000E-02 0.  1.
    5000001    1    1    2    0    0  0.17669760446E+03  0.80887763624E+01 -0.84337118050E+02  0.25617420090E+03  0.16500000000E+03 0.  0.
   -5000001    1    1    2    0    0 -0.17669760446E+03 -0.80887763624E+01 -0.57123542384E+02  0.24854691875E+03  0.16500000000E+03 0.  0.
<mgrwt>
<rscale>  0 0.48449179E+03</rscale>
<asrwt>0</asrwt>
<pdfrwt beam="1">  1        2 0.46155841E-01 0.48449179E+03</pdfrwt>
<pdfrwt beam="2">  1       -2 0.25947176E-01 0.48449179E+03</pdfrwt>
<totfact> 0.14658324E+03</totfact>
</mgrwt>
</event>
<event>
 4    1  0.5312547E-005  0.4070119E+03  0.7818608E-02  0.1041378E+00
         -2   -1    0    0    0  501 -0.00000000000E+00  0.00000000000E+00  0.12951794343E+02  0.12951794595E+02  0.25500000000E-02 0. -1.
          2   -1    0    0  501    0  0.00000000000E+00 -0.00000000000E+00 -0.31976014779E+04  0.31976014779E+04  0.25500000000E-02 0.  1.
    5000001    1    1    2    0    0 -0.70632558404E+02 -0.41032735927E+02 -0.22762301668E+04  0.22836640331E+04  0.16500000000E+03 0.  0.
   -5000001    1    1    2    0    0  0.70632558404E+02  0.41032735927E+02 -0.90841951677E+03  0.92688923943E+03  0.16500000000E+03 0.  0.
<mgrwt>
<rscale>  0 0.40701193E+03</rscale>
<asrwt>0</asrwt>
<pdfrwt beam="1">  1        2 0.45679971E+00 0.40701193E+03</pdfrwt>
<pdfrwt beam="2">  1       -2 0.18502584E-02 0.40701193E+03</pdfrwt>
<totfact> 0.18552118E+03</totfact>
</mgrwt>
</event>
<event>
 4    1  0.5312547E-005  0.4158690E+03  0.7818608E-02  0.1038419E+00
         -2   -1    0    0    0  501 -0.00000000000E+00  0.00000000000E+00  0.29386016733E+02  0.29386016844E+02  0.25500000000E-02 0. -1.
          2   -1    0    0  501    0  0.00000000000E+00 -0.00000000000E+00 -0.14713379378E+04  0.14713379378E+04  0.25500000000E-02 0.  1.
    5000001    1    1    2    0    0  0.49996213702E+02  0.80337799306E+02 -0.41780724036E+03  0.45906608836E+03  0.16500000000E+03 0.  0.
   -5000001    1    1    2    0    0 -0.49996213702E+02 -0.80337799306E+02 -0.10241446807E+04  0.10416578663E+04  0.16500000000E+03 0.  0.
<mgrwt>
<rscale>  0 0.41586902E+03</rscale>
<asrwt>0</asrwt>
<pdfrwt beam="1">  1        2 0.21019109E+00 0.41586902E+03</pdfrwt>
<pdfrwt beam="2">  1       -2 0.41980033E-02 0.41586902E+03</pdfrwt>
<totfact> 0.41332646E+03</totfact>
</mgrwt>
</event>
<event>
 4    1  0.5312547E-005  0.3961767E+03  0.7818608E-02  0.1045112E+00
         -2   -1    0    0    0  501 -0.00000000000E+00  0.00000000000E+00  0.71066671756E+02  0.71066671802E+02  0.25500000000E-02 0. -1.
          2   -1    0    0  501    0  0.00000000000E+00 -0.00000000000E+00 -0.55214338509E+03  0.55214338509E+03  0.25500000000E-02 0.  1.
    5000001    1    1    2    0    0 -0.66855458289E+02 -0.85612641778E+02 -0.26359408444E+03  0.32940251682E+03  0.16500000000E+03 0.  0.
   -5000001    1    1    2    0    0  0.66855458289E+02  0.85612641778E+02 -0.21748262889E+03  0.29380754007E+03  0.16500000000E+03 0.  0.
<mgrwt>
<rscale>  0 0.39617669E+03</rscale>
<asrwt>0</asrwt>
<pdfrwt beam="1">  1        2 0.78877624E-01 0.39617669E+03</pdfrwt>
<pdfrwt beam="2">  1       -2 0.10152382E-01 0.39617669E+03</pdfrwt>
<totfact> 0.39455832E+03</totfact>
</mgrwt>
</event>
<event>
 4    1  0.5312547E-005  0.3864177E+03  0.7818608E-02  0.1048587E+00
         -2   -1    0    0    0  501 -0.00000000000E+00  0.00000000000E+00  0.32776173228E+02  0.32776173328E+02  0.25500000000E-02 0. -1.
          2   -1    0    0  501    0  0.00000000000E+00 -0.00000000000E+00 -0.11389264437E+04  0.11389264437E+04  0.25500000000E-02 0.  1.
    5000001    1    1    2    0    0  0.46889833060E+02  0.88693320201E+02 -0.57212967264E+03  0.60383981635E+03  0.16500000000E+03 0.  0.
   -5000001    1    1    2    0    0 -0.46889833060E+02 -0.88693320201E+02 -0.53402059787E+03  0.56786280072E+03  0.16500000000E+03 0.  0.
<mgrwt>
<rscale>  0 0.38641765E+03</rscale>
<asrwt>0</asrwt>
<pdfrwt beam="1">  1        2 0.16270375E+00 0.38641765E+03</pdfrwt>
<pdfrwt beam="2">  1       -2 0.46823112E-02 0.38641765E+03</pdfrwt>
<totfact> 0.52710313E+03</totfact>
</mgrwt>
</event>
<event>
 4    1  0.5312547E-005  0.7217943E+03  0.7818608E-02  0.9680670E-01
          2   -1    0    0  501    0  0.00000000000E+00  0.00000000000E+00  0.24181801926E+04  0.24181801926E+04  0.25500000000E-02 0.  1.
         -2   -1    0    0    0  501 -0.00000000000E+00 -0.00000000000E+00 -0.53861479990E+02  0.53861480050E+02  0.25500000000E-02 0. -1.
    5000001    1    1    2    0    0  0.11557234480E+03 -0.26895682347E+03  0.16329805387E+04  0.16671968029E+04  0.16500000000E+03 0.  0.
   -5000001    1    1    2    0    0 -0.11557234480E+03  0.26895682347E+03  0.73133817396E+03  0.80484486981E+03  0.16500000000E+03 0.  0.
<mgrwt>
<rscale>  0 0.72179433E+03</rscale>
<asrwt>0</asrwt>
<pdfrwt beam="1">  1        2 0.34545434E+00 0.72179433E+03</pdfrwt>
<pdfrwt beam="2">  1       -2 0.76944966E-02 0.72179433E+03</pdfrwt>
<totfact> 0.52630338E+02</totfact>
</mgrwt>
</event>
<event>
 4    1  0.5312547E-005  0.5614031E+03  0.7818608E-02  0.9988885E-01
         -2   -1    0    0    0  501 -0.00000000000E+00  0.00000000000E+00  0.32420385513E+03  0.32420385514E+03  0.25500000000E-02 0. -1.
          2   -1    0    0  501    0  0.00000000000E+00 -0.00000000000E+00 -0.24303649914E+03  0.24303649915E+03  0.25500000000E-02 0.  1.
    5000001    1    1    2    0    0  0.22695522753E+03 -0.77260098808E+01  0.40642903424E+02  0.28362865181E+03  0.16500000000E+03 0.  0.
   -5000001    1    1    2    0    0 -0.22695522753E+03  0.77260098808E+01  0.40524452570E+02  0.28361170248E+03  0.16500000000E+03 0.  0.
<mgrwt>
<rscale>  0 0.56140313E+03</rscale>
<asrwt>0</asrwt>
<pdfrwt beam="1">  1        2 0.34719500E-01 0.56140313E+03</pdfrwt>
<pdfrwt beam="2">  1       -2 0.46314836E-01 0.56140313E+03</pdfrwt>
<totfact> 0.67110587E+02</totfact>
</mgrwt>
</event>
<event>
 4    1  0.5312547E-005  0.3961694E+03  0.7818608E-02  0.1045114E+00
         -2   -1    0    0    0  501 -0.00000000000E+00  0.00000000000E+00  0.44045041864E+02  0.44045041937E+02  0.25500000000E-02 0. -1.
          2   -1    0    0  501    0  0.00000000000E+00 -0.00000000000E+00 -0.89085059773E+03  0.89085059774E+03  0.25500000000E-02 0.  1.
    5000001    1    1    2    0    0  0.93102123805E+02  0.43649769196E+02 -0.51292882639E+03  0.54853832022E+03  0.16500000000E+03 0.  0.
   -5000001    1    1    2    0    0 -0.93102123805E+02 -0.43649769196E+02 -0.33387672948E+03  0.38635731945E+03  0.16500000000E+03 0.  0.
<mgrwt>
<rscale>  0 0.39616942E+03</rscale>
<asrwt>0</asrwt>
<pdfrwt beam="1">  1        2 0.12726436E+00 0.39616942E+03</pdfrwt>
<pdfrwt beam="2">  1       -2 0.62921494E-02 0.39616942E+03</pdfrwt>
<totfact> 0.47021212E+03</totfact>
</mgrwt>
</event>
<event>
 4    1  0.5312547E-005  0.3639764E+03  0.7818608E-02  0.1057020E+00
          2   -1    0    0  501    0  0.00000000000E+00  0.00000000000E+00  0.19450378168E+04  0.19450378168E+04  0.25500000000E-02 0.  1.
         -2   -1    0    0    0  501 -0.00000000000E+00 -0.00000000000E+00 -0.17027797014E+02  0.17027797205E+02  0.25500000000E-02 0. -1.
    5000001    1    1    2    0    0 -0.70643130557E+01  0.42851466195E+02  0.13053034357E+04  0.13164073123E+04  0.16500000000E+03 0.  0.
   -5000001    1    1    2    0    0  0.70643130557E+01 -0.42851466195E+02  0.62270658407E+03  0.64565830167E+03  0.16500000000E+03 0.  0.
<mgrwt>
<rscale>  0 0.36397642E+03</rscale>
<asrwt>0</asrwt>
<pdfrwt beam="1">  1        2 0.27786259E+00 0.36397642E+03</pdfrwt>
<pdfrwt beam="2">  1       -2 0.24325421E-02 0.36397642E+03</pdfrwt>
<totfact> 0.54431794E+03</totfact>
</mgrwt>
</event>
<event>
 4    1  0.5312547E-005  0.4395788E+03  0.7818608E-02  0.1030876E+00
         -2   -1    0    0    0  501 -0.00000000000E+00  0.00000000000E+00  0.10179481685E+03  0.10179481688E+03  0.25500000000E-02 0. -1.
          2   -1    0    0  501    0  0.00000000000E+00 -0.00000000000E+00 -0.47455629909E+03  0.47455629910E+03  0.25500000000E-02 0.  1.
    5000001    1    1    2    0    0  0.10784396382E+03  0.96772041287E+02 -0.17413553545E+03  0.28025583529E+03  0.16500000000E+03 0.  0.
   -5000001    1    1    2    0    0 -0.10784396382E+03 -0.96772041287E+02 -0.19862594679E+03  0.29609528069E+03  0.16500000000E+03 0.  0.
<mgrwt>
<rscale>  0 0.43957876E+03</rscale>
<asrwt>0</asrwt>
<pdfrwt beam="1">  1        2 0.67793756E-01 0.43957876E+03</pdfrwt>
<pdfrwt beam="2">  1       -2 0.14542117E-01 0.43957876E+03</pdfrwt>
<totfact> 0.26052040E+03</totfact>
</mgrwt>
</event>
<event>
 4    1  0.5312547E-005  0.7391930E+03  0.7818608E-02  0.9652459E-01
         -2   -1    0    0    0  501 -0.00000000000E+00  0.00000000000E+00  0.11890097938E+03  0.11890097941E+03  0.25500000000E-02 0. -1.
          2   -1    0    0  501    0  0.00000000000E+00 -0.00000000000E+00 -0.11488684658E+04  0.11488684658E+04  0.25500000000E-02 0.  1.
    5000001    1    1    2    0    0 -0.26926684210E+03  0.17336200114E+03 -0.37337266810E+03  0.51883635665E+03  0.16500000000E+03 0.  0.
   -5000001    1    1    2    0    0  0.26926684210E+03 -0.17336200114E+03 -0.65659481827E+03  0.74893308851E+03  0.16500000000E+03 0.  0.
<mgrwt>
<rscale>  0 0.73919304E+03</rscale>
<asrwt>0</asrwt>
<pdfrwt beam="1">  1        2 0.16412406E+00 0.73919304E+03</pdfrwt>
<pdfrwt beam="2">  1       -2 0.16985855E-01 0.73919304E+03</pdfrwt>
<totfact> 0.65137673E+02</totfact>
</mgrwt>
</event>
<event>
 4    1  0.5312547E-005  0.3780953E+03  0.7818608E-02  0.1051640E+00
          2   -1    0    0  501    0  0.00000000000E+00  0.00000000000E+00  0.14051271148E+04  0.14051271148E+04  0.25500000000E-02 0.  1.
         -2   -1    0    0    0  501 -0.00000000000E+00 -0.00000000000E+00 -0.25434718476E+02  0.25434718604E+02  0.25500000000E-02 0. -1.
    5000001    1    1    2    0    0 -0.65594537295E+02 -0.64894764461E+02  0.68909992582E+03  0.71456118111E+03  0.16500000000E+03 0.  0.
   -5000001    1    1    2    0    0  0.65594537295E+02  0.64894764461E+02  0.69059247047E+03  0.71600065227E+03  0.16500000000E+03 0.  0.
<mgrwt>
<rscale>  0 0.37809529E+03</rscale>
<asrwt>0</asrwt>
<pdfrwt beam="1">  1        2 0.20073243E+00 0.37809529E+03</pdfrwt>
<pdfrwt beam="2">  1       -2 0.36335314E-02 0.37809529E+03</pdfrwt>
<totfact> 0.55671996E+03</totfact>
</mgrwt>
</event>
<event>
 4    1  0.5312547E-005  0.5051868E+03  0.7818608E-02  0.1012434E+00
          2   -1    0    0  501    0  0.00000000000E+00  0.00000000000E+00  0.85270437531E+03  0.85270437531E+03  0.25500000000E-02 0.  1.
         -2   -1    0    0    0  501 -0.00000000000E+00 -0.00000000000E+00 -0.74824787075E+02  0.74824787118E+02  0.25500000000E-02 0. -1.
    5000001    1    1    2    0    0  0.13510928120E+03  0.13536050907E+03  0.38673806312E+03  0.46191808229E+03  0.16500000000E+03 0.  0.
   -5000001    1    1    2    0    0 -0.13510928120E+03 -0.13536050907E+03  0.39114152511E+03  0.46561108014E+03  0.16500000000E+03 0.  0.
<mgrwt>
<rscale>  0 0.50518679E+03</rscale>
<asrwt>0</asrwt>
<pdfrwt beam="1">  1        2 0.12181490E+00 0.50518679E+03</pdfrwt>
<pdfrwt beam="2">  1       -2 0.10689256E-01 0.50518679E+03</pdfrwt>
<totfact> 0.21515614E+03</totfact>
</mgrwt>
</event>
<event>
 4    1  0.5312547E-005  0.4449517E+03  0.7818608E-02  0.1029238E+00
          2   -1    0    0  501    0  0.00000000000E+00  0.00000000000E+00  0.22356313349E+03  0.22356313351E+03  0.25500000000E-02 0.  1.
         -2   -1    0    0    0  501 -0.00000000000E+00 -0.00000000000E+00 -0.22139389571E+03  0.22139389573E+03  0.25500000000E-02 0. -1.
    5000001    1    1    2    0    0 -0.14060473822E+03  0.11353922469E+02  0.49787447133E+02  0.22271594881E+03  0.16500000000E+03 0.  0.
   -5000001    1    1    2    0    0  0.14060473822E+03 -0.11353922469E+02 -0.47618209354E+02  0.22224108042E+03  0.16500000000E+03 0.  0.
<mgrwt>
<rscale>  0 0.44495174E+03</rscale>
<asrwt>0</asrwt>
<pdfrwt beam="1">  1        2 0.31937590E-01 0.44495174E+03</pdfrwt>
<pdfrwt beam="2">  1       -2 0.31627699E-01 0.44495174E+03</pdfrwt>
<totfact> 0.15310373E+03</totfact>
</mgrwt>
</event>
<event>
 4    1  0.5312547E-005  0.5676759E+03  0.7818608E-02  0.9974835E-01
         -2   -1    0    0    0  501 -0.00000000000E+00  0.00000000000E+00  0.29718545979E+02  0.29718546088E+02  0.25500000000E-02 0. -1.
          2   -1    0    0  501    0  0.00000000000E+00 -0.00000000000E+00 -0.27108989793E+04  0.27108989793E+04  0.25500000000E-02 0.  1.
    5000001    1    1    2    0    0 -0.21843696056E+03 -0.49124181202E+02 -0.10670167946E+04  0.11026684592E+04  0.16500000000E+03 0.  0.
   -5000001    1    1    2    0    0  0.21843696056E+03  0.49124181202E+02 -0.16141636387E+04  0.16379490662E+04  0.16500000000E+03 0.  0.
<mgrwt>
<rscale>  0 0.56767588E+03</rscale>
<asrwt>0</asrwt>
<pdfrwt beam="1">  1        2 0.38727113E+00 0.56767588E+03</pdfrwt>
<pdfrwt beam="2">  1       -2 0.42455083E-02 0.56767588E+03</pdfrwt>
<totfact> 0.95326284E+02</totfact>
</mgrwt>
</event>
<event>
 4    1  0.5312547E-005  0.7679508E+03  0.7818608E-02  0.9607602E-01
          2   -1    0    0  501    0  0.00000000000E+00  0.00000000000E+00  0.33528135094E+04  0.33528135094E+04  0.25500000000E-02 0.  1.
         -2   -1    0    0    0  501 -0.00000000000E+00 -0.00000000000E+00 -0.43974147814E+02  0.43974147888E+02  0.25500000000E-02 0. -1.
    5000001    1    1    2    0    0  0.23397737678E+03 -0.24249418139E+03  0.12933600833E+04  0.13466826449E+04  0.16500000000E+03 0.  0.
   -5000001    1    1    2    0    0 -0.23397737678E+03  0.24249418139E+03  0.20154792783E+04  0.20501050124E+04  0.16500000000E+03 0.  0.
<mgrwt>
<rscale>  0 0.76795082E+03</rscale>
<asrwt>0</asrwt>
<pdfrwt beam="1">  1        2 0.47897359E+00 0.76795082E+03</pdfrwt>
<pdfrwt beam="2">  1       -2 0.62820181E-02 0.76795082E+03</pdfrwt>
<totfact> 0.22544684E+02</totfact>
</mgrwt>
</event>
<event>
 4    1  0.5312547E-005  0.7323391E+03  0.7818608E-02  0.9663472E-01
         -2   -1    0    0    0  501 -0.00000000000E+00  0.00000000000E+00  0.10406791603E+03  0.10406791606E+03  0.25500000000E-02 0. -1.
          2   -1    0    0  501    0  0.00000000000E+00 -0.00000000000E+00 -0.12883906566E+04  0.12883906566E+04  0.25500000000E-02 0.  1.
    5000001    1    1    2    0    0  0.27076596111E+03  0.87501368172E+02 -0.89806837721E+03  0.95641126367E+03  0.16500000000E+03 0.  0.
   -5000001    1    1    2    0    0 -0.27076596111E+03 -0.87501368172E+02 -0.28625436333E+03  0.43604730897E+03  0.16500000000E+03 0.  0.
<mgrwt>
<rscale>  0 0.73233908E+03</rscale>
<asrwt>0</asrwt>
<pdfrwt beam="1">  1        2 0.18405580E+00 0.73233908E+03</pdfrwt>
<pdfrwt beam="2">  1       -2 0.14866846E-01 0.73233908E+03</pdfrwt>
<totfact> 0.68240966E+02</totfact>
</mgrwt>
</event>
<event>
 4    1  0.5312547E-005  0.6402307E+03  0.7818608E-02  0.9825285E-01
          2   -1    0    0  501    0  0.00000000000E+00  0.00000000000E+00  0.20643863074E+03  0.20643863075E+03  0.25500000000E-02 0.  1.
         -2   -1    0    0    0  501 -0.00000000000E+00 -0.00000000000E+00 -0.49638885604E+03  0.49638885605E+03  0.25500000000E-02 0. -1.
    5000001    1    1    2    0    0  0.25309378767E+03  0.98559427071E+02 -0.18718455878E+03  0.36882717507E+03  0.16500000000E+03 0.  0.
   -5000001    1    1    2    0    0 -0.25309378767E+03 -0.98559427071E+02 -0.10276566652E+03  0.33400031173E+03  0.16500000000E+03 0.  0.
<mgrwt>
<rscale>  0 0.64023070E+03</rscale>
<asrwt>0</asrwt>
<pdfrwt beam="1">  1        2 0.29491233E-01 0.64023070E+03</pdfrwt>
<pdfrwt beam="2">  1       -2 0.70912693E-01 0.64023070E+03</pdfrwt>
<totfact> 0.33104689E+02</totfact>
</mgrwt>
</event>
<event>
 4    1  0.5312547E-005  0.6379323E+03  0.7818608E-02  0.9829691E-01
         -2   -1    0    0    0  501 -0.00000000000E+00  0.00000000000E+00  0.16802058929E+03  0.16802058931E+03  0.25500000000E-02 0. -1.
          2   -1    0    0  501    0  0.00000000000E+00 -0.00000000000E+00 -0.60551743655E+03  0.60551743655E+03  0.25500000000E-02 0.  1.
    5000001    1    1    2    0    0 -0.18676444776E+03  0.19485226854E+03 -0.16925487026E+03  0.35877649952E+03  0.16500000000E+03 0.  0.
   -5000001    1    1    2    0    0  0.18676444776E+03 -0.19485226854E+03 -0.26824197700E+03  0.41476152633E+03  0.16500000000E+03 0.  0.
<mgrwt>
<rscale>  0 0.63793227E+03</rscale>
<asrwt>0</asrwt>
<pdfrwt beam="1">  1        2 0.86502490E-01 0.63793227E+03</pdfrwt>
<pdfrwt beam="2">  1       -2 0.24002942E-01 0.63793227E+03</pdfrwt>
<totfact> 0.83052572E+02</totfact>
</mgrwt>
</event>
<event>
 4    1  0.5312547E-005  0.5620165E+03  0.7818608E-02  0.9987502E-01
         -2   -1    0    0    0  501 -0.00000000000E+00  0.00000000000E+00  0.22394148574E+02  0.22394148719E+02  0.25500000000E-02 0. -1.
          2   -1    0    0  501    0  0.00000000000E+00 -0.00000000000E+00 -0.35261730625E+04  0.35261730625E+04  0.25500000000E-02 0.  1.
    5000001    1    1    2    0    0  0.19599523008E+03 -0.56925112077E+02 -0.11177797478E+04  0.11481773222E+04  0.16500000000E+03 0.  0.
   -5000001    1    1    2    0    0 -0.19599523008E+03  0.56925112077E+02 -0.23859991661E+04  0.24003898890E+04  0.16500000000E+03 0.  0.
<mgrwt>
<rscale>  0 0.56201653E+03</rscale>
<asrwt>0</asrwt>
<pdfrwt beam="1">  1        2 0.50373865E+00 0.56201653E+03</pdfrwt>
<pdfrwt beam="2">  1       -2 0.31991663E-02 0.56201653E+03</pdfrwt>
<totfact> 0.51856373E+02</totfact>
</mgrwt>
</event>
<event>
 4    1  0.5312547E-005  0.4826453E+03  0.7818608E-02  0.1018411E+00
         -2   -1    0    0    0  501 -0.00000000000E+00  0.00000000000E+00  0.91525875378E+02  0.91525875414E+02  0.25500000000E-02 0. -1.
          2   -1    0    0  501    0  0.00000000000E+00 -0.00000000000E+00 -0.63628595736E+03  0.63628595736E+03  0.25500000000E-02 0.  1.
    5000001    1    1    2    0    0  0.42215642771E+02  0.15519759663E+03 -0.38052509008E+03  0.44485143439E+03  0.16500000000E+03 0.  0.
   -5000001    1    1    2    0    0 -0.42215642771E+02 -0.15519759663E+03 -0.16423499189E+03  0.28296039839E+03  0.16500000000E+03 0.  0.
<mgrwt>
<rscale>  0 0.48264533E+03</rscale>
<asrwt>0</asrwt>
<pdfrwt beam="1">  1        2 0.90897991E-01 0.48264533E+03</pdfrwt>
<pdfrwt beam="2">  1       -2 0.13075125E-01 0.48264533E+03</pdfrwt>
<totfact> 0.22217698E+03</totfact>
</mgrwt>
</event>
<event>
 4    1  0.5312547E-005  0.9663031E+03  0.7818608E-02  0.9346295E-01
          2   -1    0    0  501    0  0.00000000000E+00  0.00000000000E+00  0.13839407419E+04  0.13839407419E+04  0.25500000000E-02 0.  1.
         -2   -1    0    0    0  501 -0.00000000000E+00 -0.00000000000E+00 -0.16867444744E+03  0.16867444746E+03  0.25500000000E-02 0. -1.
    5000001    1    1    2    0    0  0.25738125320E+03 -0.34349549228E+03  0.36944150762E+03  0.58986972313E+03  0.16500000000E+03 0.  0.
   -5000001    1    1    2    0    0 -0.25738125320E+03  0.34349549228E+03  0.84582478683E+03  0.96274546622E+03  0.16500000000E+03 0.  0.
<mgrwt>
<rscale>  0 0.96630314E+03</rscale>
<asrwt>0</asrwt>
<pdfrwt beam="1">  1        2 0.19770583E+00 0.96630314E+03</pdfrwt>
<pdfrwt beam="2">  1       -2 0.24096349E-01 0.96630314E+03</pdfrwt>
<totfact> 0.25810938E+02</totfact>
</mgrwt>
</event>
<event>
 4    1  0.5312547E-005  0.1609034E+04  0.7818608E-02  0.8815017E-01
         -2   -1    0    0    0  501 -0.00000000000E+00  0.00000000000E+00  0.66625520744E+03  0.66625520744E+03  0.25500000000E-02 0. -1.
          2   -1    0    0  501    0  0.00000000000E+00 -0.00000000000E+00 -0.97147139299E+03  0.97147139299E+03  0.25500000000E-02 0.  1.
    5000001    1    1    2    0    0 -0.55499290736E+03  0.32560040156E+03 -0.61456268876E+03  0.90495582607E+03  0.16500000000E+03 0.  0.
   -5000001    1    1    2    0    0  0.55499290736E+03 -0.32560040156E+03  0.30934650321E+03  0.73277077437E+03  0.16500000000E+03 0.  0.
<mgrwt>
<rscale>  0 0.16090343E+04</rscale>
<asrwt>0</asrwt>
<pdfrwt beam="1">  1        2 0.13878163E+00 0.16090343E+04</pdfrwt>
<pdfrwt beam="2">  1       -2 0.95179316E-01 0.16090343E+04</pdfrwt>
<totfact> 0.26084405E+01</totfact>
</mgrwt>
</event>
<event>
 4    1  0.5312547E-005  0.4263812E+03  0.7818608E-02  0.1035009E+00
          2   -1    0    0  501    0  0.00000000000E+00  0.00000000000E+00  0.13425784090E+03  0.13425784092E+03  0.25500000000E-02 0.  1.
         -2   -1    0    0    0  501 -0.00000000000E+00 -0.00000000000E+00 -0.33852950298E+03  0.33852950299E+03  0.25500000000E-02 0. -1.
    5000001    1    1    2    0    0 -0.12290196721E+03 -0.19891479992E+02 -0.44256279168E+02  0.21138633533E+03  0.16500000000E+03 0.  0.
   -5000001    1    1    2    0    0  0.12290196721E+03  0.19891479992E+02 -0.16001538291E+03  0.26140100858E+03  0.16500000000E+03 0.  0.
<mgrwt>
<rscale>  0 0.42638124E+03</rscale>
<asrwt>0</asrwt>
<pdfrwt beam="1">  1        2 0.19179692E-01 0.42638124E+03</pdfrwt>
<pdfrwt beam="2">  1       -2 0.48361357E-01 0.42638124E+03</pdfrwt>
<totfact> 0.12070355E+03</totfact>
</mgrwt>
</event>
<event>
 4    1  0.5312547E-005  0.3849128E+03  0.7818608E-02  0.1049133E+00
          2   -1    0    0  501    0  0.00000000000E+00  0.00000000000E+00  0.20248534592E+04  0.20248534592E+04  0.25500000000E-02 0.  1.
         -2   -1    0    0    0  501 -0.00000000000E+00 -0.00000000000E+00 -0.18292417850E+02  0.18292418028E+02  0.25500000000E-02 0. -1.
    5000001    1    1    2    0    0  0.81437779707E+02 -0.50114678674E+02  0.86579495559E+03  0.88654920794E+03  0.16500000000E+03 0.  0.
   -5000001    1    1    2    0    0 -0.81437779707E+02  0.50114678674E+02  0.11407660858E+04  0.11565966693E+04  0.16500000000E+03 0.  0.
<mgrwt>
<rscale>  0 0.38491280E+03</rscale>
<asrwt>0</asrwt>
<pdfrwt beam="1">  1        2 0.28926467E+00 0.38491280E+03</pdfrwt>
<pdfrwt beam="2">  1       -2 0.26132035E-02 0.38491280E+03</pdfrwt>
<totfact> 0.44660740E+03</totfact>
</mgrwt>
</event>
<event>
 4    1  0.5312547E-005  0.3979174E+03  0.7818608E-02  0.1044503E+00
          2   -1    0    0  501    0  0.00000000000E+00  0.00000000000E+00  0.10357646765E+04  0.10357646765E+04  0.25500000000E-02 0.  1.
         -2   -1    0    0    0  501 -0.00000000000E+00 -0.00000000000E+00 -0.38217710663E+02  0.38217710749E+02  0.25500000000E-02 0. -1.
    5000001    1    1    2    0    0 -0.73975622394E+02 -0.69336113690E+02  0.62185731654E+03  0.65131513993E+03  0.16500000000E+03 0.  0.
   -5000001    1    1    2    0    0  0.73975622394E+02  0.69336113690E+02  0.37568964932E+03  0.42266724734E+03  0.16500000000E+03 0.  0.
<mgrwt>
<rscale>  0 0.39791735E+03</rscale>
<asrwt>0</asrwt>
<pdfrwt beam="1">  1        2 0.14796638E+00 0.39791735E+03</pdfrwt>
<pdfrwt beam="2">  1       -2 0.54596730E-02 0.39791735E+03</pdfrwt>
<totfact> 0.47750612E+03</totfact>
</mgrwt>
</event>
<event>
 4    1  0.5312547E-005  0.6302163E+03  0.7818608E-02  0.9844627E-01
          2   -1    0    0  501    0  0.00000000000E+00  0.00000000000E+00  0.72167326792E+03  0.72167326792E+03  0.25500000000E-02 0. -1.
         -2   -1    0    0    0  501 -0.00000000000E+00 -0.00000000000E+00 -0.13758741765E+03  0.13758741767E+03  0.25500000000E-02 0.  1.
    5000001    1    1    2    0    0 -0.21090448860E+03  0.14185678917E+03  0.17424862546E+03  0.34955920160E+03  0.16500000000E+03 0.  0.
   -5000001    1    1    2    0    0  0.21090448860E+03 -0.14185678917E+03  0.40983722481E+03  0.50970148399E+03  0.16500000000E+03 0.  0.
<mgrwt>
<rscale>  0 0.63021635E+03</rscale>
<asrwt>0</asrwt>
<pdfrwt beam="1">  1        2 0.10309618E+00 0.63021635E+03</pdfrwt>
<pdfrwt beam="2">  1       -2 0.19655346E-01 0.63021635E+03</pdfrwt>
<totfact> 0.95580134E+02</totfact>
</mgrwt>
</event>
<event>
 4    1  0.5312547E-005  0.5870918E+03  0.7818608E-02  0.9932554E-01
         -2   -1    0    0    0  501 -0.00000000000E+00  0.00000000000E+00  0.97890270278E+03  0.97890270278E+03  0.25500000000E-02 0. -1.
          2   -1    0    0  501    0  0.00000000000E+00 -0.00000000000E+00 -0.88026326384E+02  0.88026326421E+02  0.25500000000E-02 0.  1.
    5000001    1    1    2    0    0 -0.90951977969E+02 -0.21662479498E+03  0.55666071953E+03  0.62633435222E+03  0.16500000000E+03 0.  0.
   -5000001    1    1    2    0    0  0.90951977969E+02  0.21662479498E+03  0.33421565686E+03  0.44059467698E+03  0.16500000000E+03 0.  0.
<mgrwt>
<rscale>  0 0.58709185E+03</rscale>
<asrwt>0</asrwt>
<pdfrwt beam="1">  1        2 0.12575188E-01 0.58709185E+03</pdfrwt>
<pdfrwt beam="2">  1       -2 0.13984326E+00 0.58709185E+03</pdfrwt>
<totfact> 0.18216883E+02</totfact>
</mgrwt>
</event>
<event>
 4    1  0.5312547E-005  0.5148498E+03  0.7818608E-02  0.1009974E+00
         -2   -1    0    0    0  501 -0.00000000000E+00  0.00000000000E+00  0.58896657465E+03  0.58896657466E+03  0.25500000000E-02 0. -1.
          2   -1    0    0  501    0  0.00000000000E+00 -0.00000000000E+00 -0.11251499441E+03  0.11251499444E+03  0.25500000000E-02 0.  1.
    5000001    1    1    2    0    0  0.13471610199E+03 -0.12328849175E+03  0.13541281482E+03  0.28090943514E+03  0.16500000000E+03 0.  0.
   -5000001    1    1    2    0    0 -0.13471610199E+03  0.12328849175E+03  0.34103876543E+03  0.42057213395E+03  0.16500000000E+03 0.  0.
<mgrwt>
<rscale>  0 0.51484977E+03</rscale>
<asrwt>0</asrwt>
<pdfrwt beam="1">  1        2 0.16073571E-01 0.51484977E+03</pdfrwt>
<pdfrwt beam="2">  1       -2 0.84138083E-01 0.51484977E+03</pdfrwt>
<totfact> 0.45900734E+02</totfact>
</mgrwt>
</event>
<event>
 4    1  0.5312547E-005  0.7374476E+03  0.7818608E-02  0.9655252E-01
          2   -1    0    0  501    0  0.00000000000E+00  0.00000000000E+00  0.10533479640E+04  0.10533479640E+04  0.25500000000E-02 0.  1.
         -2   -1    0    0    0  501 -0.00000000000E+00 -0.00000000000E+00 -0.12907153342E+03  0.12907153345E+03  0.25500000000E-02 0. -1.
    5000001    1    1    2    0    0 -0.26642442067E+03  0.13348573530E+03  0.23577078639E+03  0.41426232893E+03  0.16500000000E+03 0.  0.
   -5000001    1    1    2    0    0  0.26642442067E+03 -0.13348573530E+03  0.68850564420E+03  0.76815716853E+03  0.16500000000E+03 0.  0.
<mgrwt>
<rscale>  0 0.73744759E+03</rscale>
<asrwt>0</asrwt>
<pdfrwt beam="1">  1        2 0.15047829E+00 0.73744759E+03</pdfrwt>
<pdfrwt beam="2">  1       -2 0.18438790E-01 0.73744759E+03</pdfrwt>
<totfact> 0.64337450E+02</totfact>
</mgrwt>
</event>
<event>
 4    1  0.5312547E-005  0.5909042E+03  0.7818608E-02  0.9924459E-01
         -2   -1    0    0    0  501 -0.00000000000E+00  0.00000000000E+00  0.15337941779E+03  0.15337941781E+03  0.25500000000E-02 0. -1.
          2   -1    0    0  501    0  0.00000000000E+00 -0.00000000000E+00 -0.56912430168E+03  0.56912430168E+03  0.25500000000E-02 0.  1.
    5000001    1    1    2    0    0 -0.87365382735E+02 -0.20236698952E+03 -0.76855085246E+02  0.28586152710E+03  0.16500000000E+03 0.  0.
   -5000001    1    1    2    0    0  0.87365382735E+02  0.20236698952E+03 -0.33888979865E+03  0.43664219239E+03  0.16500000000E+03 0.  0.
<mgrwt>
<rscale>  0 0.59090424E+03</rscale>
<asrwt>0</asrwt>
<pdfrwt beam="1">  1        2 0.81303471E-01 0.59090424E+03</pdfrwt>
<pdfrwt beam="2">  1       -2 0.21911346E-01 0.59090424E+03</pdfrwt>
<totfact> 0.10507164E+03</totfact>
</mgrwt>
</event>
<event>
 4    1  0.5312547E-005  0.4828046E+03  0.7818608E-02  0.1018367E+00
         -2   -1    0    0    0  501 -0.00000000000E+00  0.00000000000E+00  0.34092431385E+03  0.34092431386E+03  0.25500000000E-02 0. -1.
          2   -1    0    0  501    0  0.00000000000E+00 -0.00000000000E+00 -0.17093259339E+03  0.17093259341E+03  0.25500000000E-02 0.  1.
    5000001    1    1    2    0    0 -0.17068962145E+03  0.65129335504E-02  0.13139140703E+03  0.27133678106E+03  0.16500000000E+03 0.  0.
   -5000001    1    1    2    0    0  0.17068962145E+03 -0.65129335504E-02  0.38600313424E+02  0.24052012621E+03  0.16500000000E+03 0.  0.
<mgrwt>
<rscale>  0 0.48280463E+03</rscale>
<asrwt>0</asrwt>
<pdfrwt beam="1">  1        2 0.24418942E-01 0.48280463E+03</pdfrwt>
<pdfrwt beam="2">  1       -2 0.48703474E-01 0.48280463E+03</pdfrwt>
<totfact> 0.90152090E+02</totfact>
</mgrwt>
</event>
<event>
 4    1  0.5312547E-005  0.5650610E+03  0.7818608E-02  0.9980668E-01
          2   -1    0    0  501    0  0.00000000000E+00  0.00000000000E+00  0.30979956338E+04  0.30979956338E+04  0.25500000000E-02 0.  1.
         -2   -1    0    0    0  501 -0.00000000000E+00 -0.00000000000E+00 -0.25766167805E+02  0.25766167931E+02  0.25500000000E-02 0. -1.
    5000001    1    1    2    0    0 -0.15823302512E+03 -0.12989077917E+03  0.21076652292E+04  0.21240025949E+04  0.16500000000E+03 0.  0.
   -5000001    1    1    2    0    0  0.15823302512E+03  0.12989077917E+03  0.96456423681E+03  0.99975920685E+03  0.16500000000E+03 0.  0.
<mgrwt>
<rscale>  0 0.56506097E+03</rscale>
<asrwt>0</asrwt>
<pdfrwt beam="1">  1        2 0.44257029E+00 0.56506097E+03</pdfrwt>
<pdfrwt beam="2">  1       -2 0.36808854E-02 0.56506097E+03</pdfrwt>
<totfact> 0.73584647E+02</totfact>
</mgrwt>
</event>
<event>
 4    1  0.5312547E-005  0.5597203E+03  0.7818608E-02  0.9992688E-01
          2   -1    0    0  501    0  0.00000000000E+00  0.00000000000E+00  0.29078412765E+04  0.29078412765E+04  0.25500000000E-02 0.  1.
         -2   -1    0    0    0  501 -0.00000000000E+00 -0.00000000000E+00 -0.26934652992E+02  0.26934653113E+02  0.25500000000E-02 0. -1.
    5000001    1    1    2    0    0 -0.76965826342E+02 -0.20920247584E+03  0.12437578158E+04  0.12743029148E+04  0.16500000000E+03 0.  0.
   -5000001    1    1    2    0    0  0.76965826342E+02  0.20920247584E+03  0.16371488077E+04  0.16604730148E+04  0.16500000000E+03 0.  0.
<mgrwt>
<rscale>  0 0.55972027E+03</rscale>
<asrwt>0</asrwt>
<pdfrwt beam="1">  1        2 0.41540565E+00 0.55972027E+03</pdfrwt>
<pdfrwt beam="2">  1       -2 0.38478099E-02 0.55972027E+03</pdfrwt>
<totfact> 0.87265869E+02</totfact>
</mgrwt>
</event>
<event>
 4    1  0.5312547E-005  0.6624059E+03  0.7818608E-02  0.9783775E-01
         -2   -1    0    0    0  501 -0.00000000000E+00  0.00000000000E+00  0.38751073495E+03  0.38751073496E+03  0.25500000000E-02 0. -1.
          2   -1    0    0  501    0  0.00000000000E+00 -0.00000000000E+00 -0.28307708169E+03  0.28307708170E+03  0.25500000000E-02 0.  1.
    5000001    1    1    2    0    0 -0.41571362516E+02  0.23612766649E+03  0.21223872394E+03  0.36021483729E+03  0.16500000000E+03 0.  0.
   -5000001    1    1    2    0    0  0.41571362516E+02 -0.23612766649E+03 -0.10780507068E+03  0.31037297937E+03  0.16500000000E+03 0.  0.
<mgrwt>
<rscale>  0 0.66240594E+03</rscale>
<asrwt>0</asrwt>
<pdfrwt beam="1">  1        2 0.40439583E-01 0.66240594E+03</pdfrwt>
<pdfrwt beam="2">  1       -2 0.55358677E-01 0.66240594E+03</pdfrwt>
<totfact> 0.39365543E+02</totfact>
</mgrwt>
</event>
<event>
 4    1  0.5312547E-005  0.5908421E+03  0.7818608E-02  0.9924590E-01
         -2   -1    0    0    0  501 -0.00000000000E+00  0.00000000000E+00  0.84955666677E+02  0.84955666716E+02  0.25500000000E-02 0. -1.
          2   -1    0    0  501    0  0.00000000000E+00 -0.00000000000E+00 -0.10272840531E+04  0.10272840531E+04  0.25500000000E-02 0.  1.
    5000001    1    1    2    0    0 -0.13490417337E+03  0.18375601946E+03 -0.64041017792E+03  0.69951097680E+03  0.16500000000E+03 0.  0.
   -5000001    1    1    2    0    0  0.13490417337E+03 -0.18375601946E+03 -0.30191820846E+03  0.41272874298E+03  0.16500000000E+03 0.  0.
<mgrwt>
<rscale>  0 0.59084212E+03</rscale>
<asrwt>0</asrwt>
<pdfrwt beam="1">  1        2 0.14675486E+00 0.59084212E+03</pdfrwt>
<pdfrwt beam="2">  1       -2 0.12136524E-01 0.59084212E+03</pdfrwt>
<totfact> 0.13563557E+03</totfact>
</mgrwt>
</event>
<event>
 4    1  0.5312547E-005  0.4971376E+03  0.7818608E-02  0.1014529E+00
          2   -1    0    0  501    0  0.00000000000E+00  0.00000000000E+00  0.30703430920E+04  0.30703430920E+04  0.25500000000E-02 0.  1.
         -2   -1    0    0    0  501 -0.00000000000E+00 -0.00000000000E+00 -0.20123632946E+02  0.20123633108E+02  0.25500000000E-02 0. -1.
    5000001    1    1    2    0    0  0.24284046114E+02 -0.17216781890E+03  0.19341731245E+04  0.19489695093E+04  0.16500000000E+03 0.  0.
   -5000001    1    1    2    0    0 -0.24284046114E+02  0.17216781890E+03  0.11160463346E+04  0.11414972158E+04  0.16500000000E+03 0.  0.
<mgrwt>
<rscale>  0 0.49713764E+03</rscale>
<asrwt>0</asrwt>
<pdfrwt beam="1">  1        2 0.43862048E+00 0.49713764E+03</pdfrwt>
<pdfrwt beam="2">  1       -2 0.28748044E-02 0.49713764E+03</pdfrwt>
<totfact> 0.11168691E+03</totfact>
</mgrwt>
</event>
<event>
 4    1  0.5312547E-005  0.5143553E+03  0.7818608E-02  0.1010098E+00
          2   -1    0    0  501    0  0.00000000000E+00  0.00000000000E+00  0.87926575284E+03  0.87926575284E+03  0.25500000000E-02 0.  1.
         -2   -1    0    0    0  501 -0.00000000000E+00 -0.00000000000E+00 -0.75222233766E+02  0.75222233810E+02  0.25500000000E-02 0. -1.
    5000001    1    1    2    0    0  0.18209647357E+03  0.28827673160E+02  0.27178965750E+03  0.36753881203E+03  0.16500000000E+03 0.  0.
   -5000001    1    1    2    0    0 -0.18209647357E+03 -0.28827673160E+02  0.53225386157E+03  0.58694917462E+03  0.16500000000E+03 0.  0.
<mgrwt>
<rscale>  0 0.51435526E+03</rscale>
<asrwt>0</asrwt>
<pdfrwt beam="1">  1        2 0.12560939E+00 0.51435526E+03</pdfrwt>
<pdfrwt beam="2">  1       -2 0.10746034E-01 0.51435526E+03</pdfrwt>
<totfact> 0.20491562E+03</totfact>
</mgrwt>
</event>
<event>
 4    1  0.5312547E-005  0.8863753E+03  0.7818608E-02  0.9442775E-01
         -2   -1    0    0    0  501 -0.00000000000E+00  0.00000000000E+00  0.43464929306E+03  0.43464929306E+03  0.25500000000E-02 0. -1.
          2   -1    0    0  501    0  0.00000000000E+00 -0.00000000000E+00 -0.45189375612E+03  0.45189375612E+03  0.25500000000E-02 0.  1.
    5000001    1    1    2    0    0 -0.34365122178E+03 -0.14788029962E+03 -0.17960941882E+03  0.44659745697E+03  0.16500000000E+03 0.  0.
   -5000001    1    1    2    0    0  0.34365122178E+03  0.14788029962E+03  0.16236495576E+03  0.43994559221E+03  0.16500000000E+03 0.  0.
<mgrwt>
<rscale>  0 0.88637532E+03</rscale>
<asrwt>0</asrwt>
<pdfrwt beam="1">  1        2 0.64556251E-01 0.88637532E+03</pdfrwt>
<pdfrwt beam="2">  1       -2 0.62092756E-01 0.88637532E+03</pdfrwt>
<totfact> 0.18224025E+02</totfact>
</mgrwt>
</event>
<event>
 4    1  0.5312547E-005  0.4181668E+03  0.7818608E-02  0.1037665E+00
          2   -1    0    0  501    0  0.00000000000E+00  0.00000000000E+00  0.71395023703E+03  0.71395023704E+03  0.25500000000E-02 0.  1.
         -2   -1    0    0    0  501 -0.00000000000E+00 -0.00000000000E+00 -0.61230980122E+02  0.61230980175E+02  0.25500000000E-02 0. -1.
    5000001    1    1    2    0    0 -0.10911005782E+03  0.62150661019E+02  0.27650885616E+03  0.34561518618E+03  0.16500000000E+03 0.  0.
   -5000001    1    1    2    0    0  0.10911005782E+03 -0.62150661019E+02  0.37621040075E+03  0.42956603103E+03  0.16500000000E+03 0.  0.
<mgrwt>
<rscale>  0 0.41816682E+03</rscale>
<asrwt>0</asrwt>
<pdfrwt beam="1">  1        2 0.10199289E+00 0.41816682E+03</pdfrwt>
<pdfrwt beam="2">  1       -2 0.87472831E-02 0.41816682E+03</pdfrwt>
<totfact> 0.37057234E+03</totfact>
</mgrwt>
</event>
<event>
 4    1  0.5312547E-005  0.7524590E+03  0.7818608E-02  0.9631500E-01
          2   -1    0    0  501    0  0.00000000000E+00  0.00000000000E+00  0.39590867885E+03  0.39590867886E+03  0.25500000000E-02 0.  1.
         -2   -1    0    0    0  501 -0.00000000000E+00 -0.00000000000E+00 -0.35752852054E+03  0.35752852055E+03  0.25500000000E-02 0. -1.
    5000001    1    1    2    0    0 -0.50851091638E+02  0.30833580791E+03 -0.11007786524E+03  0.37013367906E+03  0.16500000000E+03 0.  0.
   -5000001    1    1    2    0    0  0.50851091638E+02 -0.30833580791E+03  0.14845802355E+03  0.38330352035E+03  0.16500000000E+03 0.  0.
<mgrwt>
<rscale>  0 0.75245902E+03</rscale>
<asrwt>0</asrwt>
<pdfrwt beam="1">  1        2 0.56558383E-01 0.75245902E+03</pdfrwt>
<pdfrwt beam="2">  1       -2 0.51075503E-01 0.75245902E+03</pdfrwt>
<totfact> 0.31932378E+02</totfact>
</mgrwt>
</event>
<event>
 4    1  0.5312547E-005  0.4357468E+03  0.7818608E-02  0.1032060E+00
          2   -1    0    0  501    0  0.00000000000E+00  0.00000000000E+00  0.18207033085E+04  0.18207033085E+04  0.25500000000E-02 0.  1.
         -2   -1    0    0    0  501 -0.00000000000E+00 -0.00000000000E+00 -0.26071692907E+02  0.26071693031E+02  0.25500000000E-02 0. -1.
    5000001    1    1    2    0    0 -0.25626431601E+02 -0.13995392667E+03  0.89750825985E+03  0.92357451897E+03  0.16500000000E+03 0.  0.
   -5000001    1    1    2    0    0  0.25626431601E+02  0.13995392667E+03  0.89712335571E+03  0.92320048253E+03  0.16500000000E+03 0.  0.
<mgrwt>
<rscale>  0 0.43574680E+03</rscale>
<asrwt>0</asrwt>
<pdfrwt beam="1">  1        2 0.26010058E+00 0.43574680E+03</pdfrwt>
<pdfrwt beam="2">  1       -2 0.37245261E-02 0.43574680E+03</pdfrwt>
<totfact> 0.33015429E+03</totfact>
</mgrwt>
</event>
<event>
 4    1  0.5312547E-005  0.3519951E+03  0.7818608E-02  0.1061799E+00
         -2   -1    0    0    0  501 -0.00000000000E+00  0.00000000000E+00  0.17142844871E+03  0.17142844873E+03  0.25500000000E-02 0. -1.
          2   -1    0    0  501    0  0.00000000000E+00 -0.00000000000E+00 -0.18068842524E+03  0.18068842526E+03  0.25500000000E-02 0.  1.
    5000001    1    1    2    0    0 -0.58570446670E+02  0.81877671236E+01  0.11268895563E+02  0.17564032783E+03  0.16500000000E+03 0.  0.
   -5000001    1    1    2    0    0  0.58570446670E+02 -0.81877671236E+01 -0.20528872089E+02  0.17647654616E+03  0.16500000000E+03 0.  0.
<mgrwt>
<rscale>  0 0.35199509E+03</rscale>
<asrwt>0</asrwt>
<pdfrwt beam="1">  1        2 0.25812632E-01 0.35199509E+03</pdfrwt>
<pdfrwt beam="2">  1       -2 0.24489779E-01 0.35199509E+03</pdfrwt>
<totfact> 0.30731055E+03</totfact>
</mgrwt>
</event>
<event>
 4    1  0.5312547E-005  0.5415210E+03  0.7818608E-02  0.1003476E+00
         -2   -1    0    0    0  501 -0.00000000000E+00  0.00000000000E+00  0.59826030748E+02  0.59826030802E+02  0.25500000000E-02 0.  1.
          2   -1    0    0  501    0  0.00000000000E+00 -0.00000000000E+00 -0.12254071892E+04  0.12254071892E+04  0.25500000000E-02 0. -1.
    5000001    1    1    2    0    0 -0.12264502533E+03 -0.96180693744E+02 -0.23241621356E+03  0.32486123870E+03  0.16500000000E+03 0.  0.
   -5000001    1    1    2    0    0  0.12264502533E+03  0.96180693744E+02 -0.93316494489E+03  0.96037198130E+03  0.16500000000E+03 0.  0.
<mgrwt>
<rscale>  0 0.54152100E+03</rscale>
<asrwt>0</asrwt>
<pdfrwt beam="1">  1        2 0.17505816E+00 0.54152100E+03</pdfrwt>
<pdfrwt beam="2">  1       -2 0.85465765E-02 0.54152100E+03</pdfrwt>
<totfact> 0.18440300E+03</totfact>
</mgrwt>
</event>
<event>
 4    1  0.5312547E-005  0.5811637E+03  0.7818608E-02  0.9945275E-01
          2   -1    0    0  501    0  0.00000000000E+00  0.00000000000E+00  0.27381014173E+04  0.27381014173E+04  0.25500000000E-02 0.  1.
         -2   -1    0    0    0  501 -0.00000000000E+00 -0.00000000000E+00 -0.30838086518E+02  0.30838086623E+02  0.25500000000E-02 0. -1.
    5000001    1    1    2    0    0 -0.23236124360E+03 -0.12117766968E+02  0.16178010712E+04  0.16427549707E+04  0.16500000000E+03 0.  0.
   -5000001    1    1    2    0    0  0.23236124360E+03  0.12117766968E+02  0.10894622595E+04  0.11261845332E+04  0.16500000000E+03 0.  0.
<mgrwt>
<rscale>  0 0.58116369E+03</rscale>
<asrwt>0</asrwt>
<pdfrwt beam="1">  1        2 0.39115736E+00 0.58116369E+03</pdfrwt>
<pdfrwt beam="2">  1       -2 0.44054408E-02 0.58116369E+03</pdfrwt>
<totfact> 0.87043542E+02</totfact>
</mgrwt>
</event>
<event>
 4    1  0.5312547E-005  0.3948314E+03  0.7818608E-02  0.1045584E+00
          2   -1    0    0  501    0  0.00000000000E+00  0.00000000000E+00  0.20124768071E+03  0.20124768073E+03  0.25500000000E-02 0.  1.
         -2   -1    0    0    0  501 -0.00000000000E+00 -0.00000000000E+00 -0.19365666949E+03  0.19365666951E+03  0.25500000000E-02 0. -1.
    5000001    1    1    2    0    0 -0.90985426019E+02  0.58438591754E+02  0.11181912123E+02  0.19759415961E+03  0.16500000000E+03 0.  0.
   -5000001    1    1    2    0    0  0.90985426019E+02 -0.58438591754E+02 -0.35909009051E+01  0.19731019062E+03  0.16500000000E+03 0.  0.
<mgrwt>
<rscale>  0 0.39483138E+03</rscale>
<asrwt>0</asrwt>
<pdfrwt beam="1">  1        2 0.28749669E-01 0.39483138E+03</pdfrwt>
<pdfrwt beam="2">  1       -2 0.27665238E-01 0.39483138E+03</pdfrwt>
<totfact> 0.21953599E+03</totfact>
</mgrwt>
</event>
<event>
 4    1  0.5312547E-005  0.4351364E+03  0.7818608E-02  0.1032250E+00
         -2   -1    0    0    0  501 -0.00000000000E+00  0.00000000000E+00  0.44344012611E+03  0.44344012612E+03  0.25500000000E-02 0. -1.
          2   -1    0    0  501    0  0.00000000000E+00 -0.00000000000E+00 -0.10674705458E+03  0.10674705461E+03  0.25500000000E-02 0.  1.
    5000001    1    1    2    0    0 -0.12690230596E+03  0.46719870394E+02  0.11434628782E+03  0.24204754716E+03  0.16500000000E+03 0.  0.
   -5000001    1    1    2    0    0  0.12690230596E+03 -0.46719870394E+02  0.22234678372E+03  0.30813963357E+03  0.16500000000E+03 0.  0.
<mgrwt>
<rscale>  0 0.43513643E+03</rscale>
<asrwt>0</asrwt>
<pdfrwt beam="1">  1        2 0.15249579E-01 0.43513643E+03</pdfrwt>
<pdfrwt beam="2">  1       -2 0.63348589E-01 0.43513643E+03</pdfrwt>
<totfact> 0.90891346E+02</totfact>
</mgrwt>
</event>
<event>
 4    1  0.5312547E-005  0.4335672E+03  0.7818608E-02  0.1032739E+00
         -2   -1    0    0    0  501 -0.00000000000E+00  0.00000000000E+00  0.77791515119E+02  0.77791515161E+02  0.25500000000E-02 0. -1.
          2   -1    0    0  501    0  0.00000000000E+00 -0.00000000000E+00 -0.60411640600E+03  0.60411640601E+03  0.25500000000E-02 0.  1.
    5000001    1    1    2    0    0  0.67409708058E+02  0.12243058415E+03 -0.28736565043E+03  0.35963500069E+03  0.16500000000E+03 0.  0.
   -5000001    1    1    2    0    0 -0.67409708058E+02 -0.12243058415E+03 -0.23895924045E+03  0.32227292048E+03  0.16500000000E+03 0.  0.
<mgrwt>
<rscale>  0 0.43356721E+03</rscale>
<asrwt>0</asrwt>
<pdfrwt beam="1">  1        2 0.86302341E-01 0.43356721E+03</pdfrwt>
<pdfrwt beam="2">  1       -2 0.11113074E-01 0.43356721E+03</pdfrwt>
<totfact> 0.30782219E+03</totfact>
</mgrwt>
</event>
<event>
 4    1  0.5312547E-005  0.5213993E+03  0.7818608E-02  0.1008340E+00
          2   -1    0    0  501    0  0.00000000000E+00  0.00000000000E+00  0.13003034780E+04  0.13003034780E+04  0.25500000000E-02 0.  1.
         -2   -1    0    0    0  501 -0.00000000000E+00 -0.00000000000E+00 -0.52268025505E+02  0.52268025567E+02  0.25500000000E-02 0. -1.
    5000001    1    1    2    0    0  0.68411278995E+01 -0.18613977073E+03  0.42233472060E+03  0.49019019931E+03  0.16500000000E+03 0.  0.
   -5000001    1    1    2    0    0 -0.68411278995E+01  0.18613977073E+03  0.82570073187E+03  0.86238130424E+03  0.16500000000E+03 0.  0.
<mgrwt>
<rscale>  0 0.52139925E+03</rscale>
<asrwt>0</asrwt>
<pdfrwt beam="1">  1        2 0.18575765E+00 0.52139925E+03</pdfrwt>
<pdfrwt beam="2">  1       -2 0.74668605E-02 0.52139925E+03</pdfrwt>
<totfact> 0.20805132E+03</totfact>
</mgrwt>
</event>
<event>
 4    1  0.5312547E-005  0.6850787E+03  0.7818608E-02  0.9743095E-01
         -2   -1    0    0    0  501 -0.00000000000E+00  0.00000000000E+00  0.83458499348E+03  0.83458499348E+03  0.25500000000E-02 0. -1.
          2   -1    0    0  501    0  0.00000000000E+00 -0.00000000000E+00 -0.14058869271E+03  0.14058869273E+03  0.25500000000E-02 0.  1.
    5000001    1    1    2    0    0 -0.27200241727E+03  0.12503526574E+03  0.37847792962E+03  0.50998987822E+03  0.16500000000E+03 0.  0.
   -5000001    1    1    2    0    0  0.27200241727E+03 -0.12503526574E+03  0.31551837115E+03  0.46518380799E+03  0.16500000000E+03 0.  0.
<mgrwt>
<rscale>  0 0.68507872E+03</rscale>
<asrwt>0</asrwt>
<pdfrwt beam="1">  1        2 0.20084100E-01 0.68507872E+03</pdfrwt>
<pdfrwt beam="2">  1       -2 0.11922642E+00 0.68507872E+03</pdfrwt>
<totfact> 0.15430015E+02</totfact>
</mgrwt>
</event>
<event>
 4    1  0.5312547E-005  0.4603482E+03  0.7818608E-02  0.1024680E+00
          2   -1    0    0  501    0  0.00000000000E+00  0.00000000000E+00  0.35985595835E+03  0.35985595835E+03  0.25500000000E-02 0.  1.
         -2   -1    0    0    0  501 -0.00000000000E+00 -0.00000000000E+00 -0.14722592614E+03  0.14722592616E+03  0.25500000000E-02 0. -1.
    5000001    1    1    2    0    0 -0.19936582221E+02  0.15600656868E+03  0.14148795362E+03  0.26828969008E+03  0.16500000000E+03 0.  0.
   -5000001    1    1    2    0    0  0.19936582221E+02 -0.15600656868E+03  0.71142078583E+02  0.23879219444E+03  0.16500000000E+03 0.  0.
<mgrwt>
<rscale>  0 0.46034825E+03</rscale>
<asrwt>0</asrwt>
<pdfrwt beam="1">  1        2 0.51407993E-01 0.46034825E+03</pdfrwt>
<pdfrwt beam="2">  1       -2 0.21032275E-01 0.46034825E+03</pdfrwt>
<totfact> 0.18879149E+03</totfact>
</mgrwt>
</event>
<event>
 4    1  0.5312547E-005  0.3534454E+03  0.7818608E-02  0.1061210E+00
          2   -1    0    0  501    0  0.00000000000E+00  0.00000000000E+00  0.17210029813E+04  0.17210029813E+04  0.25500000000E-02 0.  1.
         -2   -1    0    0    0  501 -0.00000000000E+00 -0.00000000000E+00 -0.18146928031E+02  0.18146928211E+02  0.25500000000E-02 0. -1.
    5000001    1    1    2    0    0 -0.50581517953E+02  0.27513168097E+02  0.98072302358E+03  0.99617172885E+03  0.16500000000E+03 0.  0.
   -5000001    1    1    2    0    0  0.50581517953E+02 -0.27513168097E+02  0.72213302973E+03  0.74297818070E+03  0.16500000000E+03 0.  0.
<mgrwt>
<rscale>  0 0.35344543E+03</rscale>
<asrwt>0</asrwt>
<pdfrwt beam="1">  1        2 0.24585781E+00 0.35344543E+03</pdfrwt>
<pdfrwt beam="2">  1       -2 0.25924158E-02 0.35344543E+03</pdfrwt>
<totfact> 0.63884007E+03</totfact>
</mgrwt>
</event>
<event>
 4    1  0.5312547E-005  0.8490606E+03  0.7818608E-02  0.9491599E-01
         -2   -1    0    0    0  501 -0.00000000000E+00  0.00000000000E+00  0.10685472424E+03  0.10685472427E+03  0.25500000000E-02 0. -1.
          2   -1    0    0  501    0  0.00000000000E+00 -0.00000000000E+00 -0.16866448714E+04  0.16866448714E+04  0.25500000000E-02 0.  1.
    5000001    1    1    2    0    0  0.29795834654E+03 -0.13386850068E+03 -0.12444201850E+04  0.12971147014E+04  0.16500000000E+03 0.  0.
   -5000001    1    1    2    0    0 -0.29795834654E+03  0.13386850068E+03 -0.33536996215E+03  0.49638489427E+03  0.16500000000E+03 0.  0.
<mgrwt>
<rscale>  0 0.84906059E+03</rscale>
<asrwt>0</asrwt>
<pdfrwt beam="1">  1        2 0.24094925E+00 0.84906059E+03</pdfrwt>
<pdfrwt beam="2">  1       -2 0.15264962E-01 0.84906059E+03</pdfrwt>
<totfact> 0.39940347E+02</totfact>
</mgrwt>
</event>
<event>
 4    1  0.5312547E-005  0.6837341E+03  0.7818608E-02  0.9745461E-01
         -2   -1    0    0    0  501 -0.00000000000E+00  0.00000000000E+00  0.37188439120E+02  0.37188439207E+02  0.25500000000E-02 0.  1.
          2   -1    0    0  501    0  0.00000000000E+00 -0.00000000000E+00 -0.31427257225E+04  0.31427257225E+04  0.25500000000E-02 0. -1.
    5000001    1    1    2    0    0  0.23654639999E+03 -0.31190571341E+01 -0.69919519826E+03  0.75634836757E+03  0.16500000000E+03 0.  0.
   -5000001    1    1    2    0    0 -0.23654639999E+03  0.31190571341E+01 -0.24063420851E+04  0.24235657941E+04  0.16500000000E+03 0.  0.
<mgrwt>
<rscale>  0 0.68373405E+03</rscale>
<asrwt>0</asrwt>
<pdfrwt beam="1">  1        2 0.44896065E+00 0.68373405E+03</pdfrwt>
<pdfrwt beam="2">  1       -2 0.53126362E-02 0.68373405E+03</pdfrwt>
<totfact> 0.38966954E+02</totfact>
</mgrwt>
</event>
<event>
 4    1  0.5312547E-005  0.5430886E+03  0.7818608E-02  0.1003106E+00
          2   -1    0    0  501    0  0.00000000000E+00  0.00000000000E+00  0.40159134073E+03  0.40159134073E+03  0.25500000000E-02 0.  1.
         -2   -1    0    0    0  501 -0.00000000000E+00 -0.00000000000E+00 -0.18361030321E+03  0.18361030323E+03  0.25500000000E-02 0. -1.
    5000001    1    1    2    0    0 -0.17040508659E+03  0.73451664044E+02 -0.94327835118E+01  0.24848947239E+03  0.16500000000E+03 0.  0.
   -5000001    1    1    2    0    0  0.17040508659E+03 -0.73451664044E+02  0.22741382103E+03  0.33671217157E+03  0.16500000000E+03 0.  0.
<mgrwt>
<rscale>  0 0.54308860E+03</rscale>
<asrwt>0</asrwt>
<pdfrwt beam="1">  1        2 0.57370191E-01 0.54308860E+03</pdfrwt>
<pdfrwt beam="2">  1       -2 0.26230044E-01 0.54308860E+03</pdfrwt>
<totfact> 0.11313609E+03</totfact>
</mgrwt>
</event>
<event>
 4    1  0.5312547E-005  0.6860763E+03  0.7818608E-02  0.9741344E-01
         -2   -1    0    0    0  501 -0.00000000000E+00  0.00000000000E+00  0.80753816514E+02  0.80753816555E+02  0.25500000000E-02 0. -1.
          2   -1    0    0  501    0  0.00000000000E+00 -0.00000000000E+00 -0.14572087167E+04  0.14572087167E+04  0.25500000000E-02 0.  1.
    5000001    1    1    2    0    0 -0.22877292441E+03  0.23688635208E+02 -0.11226273068E+04  0.11577630467E+04  0.16500000000E+03 0.  0.
   -5000001    1    1    2    0    0  0.22877292441E+03 -0.23688635208E+02 -0.25382759331E+03  0.38019948646E+03  0.16500000000E+03 0.  0.
<mgrwt>
<rscale>  0 0.68607628E+03</rscale>
<asrwt>0</asrwt>
<pdfrwt beam="1">  1        2 0.20817266E+00 0.68607628E+03</pdfrwt>
<pdfrwt beam="2">  1       -2 0.11536260E-01 0.68607628E+03</pdfrwt>
<totfact> 0.84649623E+02</totfact>
</mgrwt>
</event>
<event>
 4    1  0.5312547E-005  0.5698623E+03  0.7818608E-02  0.9969983E-01
         -2   -1    0    0    0  501 -0.00000000000E+00  0.00000000000E+00  0.25029003526E+02  0.25029003656E+02  0.25500000000E-02 0. -1.
          2   -1    0    0  501    0  0.00000000000E+00 -0.00000000000E+00 -0.32436676393E+04  0.32436676393E+04  0.25500000000E-02 0.  1.
    5000001    1    1    2    0    0  0.70759752657E+02  0.97312867340E+02 -0.27490845790E+04  0.27566588035E+04  0.16500000000E+03 0.  0.
   -5000001    1    1    2    0    0 -0.70759752657E+02 -0.97312867340E+02 -0.46955405682E+03  0.51203783945E+03  0.16500000000E+03 0.  0.
<mgrwt>
<rscale>  0 0.56986233E+03</rscale>
<asrwt>0</asrwt>
<pdfrwt beam="1">  1        2 0.46338083E+00 0.56986233E+03</pdfrwt>
<pdfrwt beam="2">  1       -2 0.35755740E-02 0.56986233E+03</pdfrwt>
<totfact> 0.63761983E+02</totfact>
</mgrwt>
</event>
<event>
 4    1  0.5312547E-005  0.4223699E+03  0.7818608E-02  0.1036298E+00
         -2   -1    0    0    0  501 -0.00000000000E+00  0.00000000000E+00  0.12341003011E+03  0.12341003013E+03  0.25500000000E-02 0. -1.
          2   -1    0    0  501    0  0.00000000000E+00 -0.00000000000E+00 -0.36138936744E+03  0.36138936745E+03  0.25500000000E-02 0.  1.
    5000001    1    1    2    0    0 -0.57624258101E+02  0.11203073224E+03 -0.16348306619E+03  0.26424071037E+03  0.16500000000E+03 0.  0.
   -5000001    1    1    2    0    0  0.57624258101E+02 -0.11203073224E+03 -0.74496271145E+02  0.22055868721E+03  0.16500000000E+03 0.  0.
<mgrwt>
<rscale>  0 0.42236985E+03</rscale>
<asrwt>0</asrwt>
<pdfrwt beam="1">  1        2 0.51627052E-01 0.42236985E+03</pdfrwt>
<pdfrwt beam="2">  1       -2 0.17630004E-01 0.42236985E+03</pdfrwt>
<totfact> 0.25437429E+03</totfact>
</mgrwt>
</event>
<event>
 4    1  0.5312547E-005  0.3894628E+03  0.7818608E-02  0.1047491E+00
         -2   -1    0    0    0  501 -0.00000000000E+00  0.00000000000E+00  0.59186697264E+02  0.59186697319E+02  0.25500000000E-02 0. -1.
          2   -1    0    0  501    0  0.00000000000E+00 -0.00000000000E+00 -0.64068974313E+03  0.64068974314E+03  0.25500000000E-02 0.  1.
    5000001    1    1    2    0    0 -0.88630756176E+02 -0.46851272532E+02 -0.24511766147E+03  0.31202262841E+03  0.16500000000E+03 0.  0.
   -5000001    1    1    2    0    0  0.88630756176E+02  0.46851272532E+02 -0.33638538440E+03  0.38785381204E+03  0.16500000000E+03 0.  0.
<mgrwt>
<rscale>  0 0.38946276E+03</rscale>
<asrwt>0</asrwt>
<pdfrwt beam="1">  1        2 0.91527102E-01 0.38946276E+03</pdfrwt>
<pdfrwt beam="2">  1       -2 0.84552428E-02 0.38946276E+03</pdfrwt>
<totfact> 0.44455602E+03</totfact>
</mgrwt>
</event>
<event>
 4    1  0.5312547E-005  0.1202761E+04  0.7818608E-02  0.9110443E-01
          2   -1    0    0  501    0  0.00000000000E+00  0.00000000000E+00  0.31663507920E+04  0.31663507920E+04  0.25500000000E-02 0.  1.
         -2   -1    0    0    0  501 -0.00000000000E+00 -0.00000000000E+00 -0.11421934616E+03  0.11421934619E+03  0.25500000000E-02 0. -1.
    5000001    1    1    2    0    0  0.30481209805E+03  0.48580348541E+03  0.17286770910E+04  0.18287878298E+04  0.16500000000E+03 0.  0.
   -5000001    1    1    2    0    0 -0.30481209805E+03 -0.48580348541E+03  0.13234543549E+04  0.14517823084E+04  0.16500000000E+03 0.  0.
<mgrwt>
<rscale>  0 0.12027610E+04</rscale>
<asrwt>0</asrwt>
<pdfrwt beam="1">  1        2 0.45233591E+00 0.12027610E+04</pdfrwt>
<pdfrwt beam="2">  1       -2 0.16317046E-01 0.12027610E+04</pdfrwt>
<totfact> 0.57780855E+01</totfact>
</mgrwt>
</event>
<event>
 4    1  0.5312547E-005  0.4769424E+03  0.7818608E-02  0.1019979E+00
         -2   -1    0    0    0  501 -0.00000000000E+00  0.00000000000E+00  0.80029765590E+02  0.80029765631E+02  0.25500000000E-02 0. -1.
          2   -1    0    0  501    0  0.00000000000E+00 -0.00000000000E+00 -0.71059207495E+03  0.71059207495E+03  0.25500000000E-02 0.  1.
    5000001    1    1    2    0    0 -0.72966644721E+02  0.15338714966E+03 -0.26863649704E+03  0.35810936383E+03  0.16500000000E+03 0.  0.
   -5000001    1    1    2    0    0  0.72966644721E+02 -0.15338714966E+03 -0.36192581232E+03  0.43251247675E+03  0.16500000000E+03 0.  0.
<mgrwt>
<rscale>  0 0.47694242E+03</rscale>
<asrwt>0</asrwt>
<pdfrwt beam="1">  1        2 0.10151315E+00 0.47694242E+03</pdfrwt>
<pdfrwt beam="2">  1       -2 0.11432824E-01 0.47694242E+03</pdfrwt>
<totfact> 0.24250181E+03</totfact>
</mgrwt>
</event>
<event>
 4    1  0.5312547E-005  0.7129389E+03  0.7818608E-02  0.9695357E-01
          2   -1    0    0  501    0  0.00000000000E+00  0.00000000000E+00  0.11732517695E+04  0.11732517695E+04  0.25500000000E-02 0.  1.
         -2   -1    0    0    0  501 -0.00000000000E+00 -0.00000000000E+00 -0.10830623528E+03  0.10830623531E+03  0.25500000000E-02 0. -1.
    5000001    1    1    2    0    0  0.20449263807E+03 -0.23285573674E+03  0.64337644356E+03  0.73293743340E+03  0.16500000000E+03 0.  0.
   -5000001    1    1    2    0    0 -0.20449263807E+03  0.23285573674E+03  0.42156909064E+03  0.54862057138E+03  0.16500000000E+03 0.  0.
<mgrwt>
<rscale>  0 0.71293894E+03</rscale>
<asrwt>0</asrwt>
<pdfrwt beam="1">  1        2 0.16760739E+00 0.71293894E+03</pdfrwt>
<pdfrwt beam="2">  1       -2 0.15472320E-01 0.71293894E+03</pdfrwt>
<totfact> 0.74026565E+02</totfact>
</mgrwt>
</event>
<event>
 4    1  0.5312547E-005  0.4233558E+03  0.7818608E-02  0.1035980E+00
          2   -1    0    0  501    0  0.00000000000E+00  0.00000000000E+00  0.26413879404E+04  0.26413879404E+04  0.25500000000E-02 0.  1.
         -2   -1    0    0    0  501 -0.00000000000E+00 -0.00000000000E+00 -0.16963634480E+02  0.16963634672E+02  0.25500000000E-02 0. -1.
    5000001    1    1    2    0    0 -0.41806755590E+02 -0.12204348580E+03  0.11196818437E+04  0.11391026505E+04  0.16500000000E+03 0.  0.
   -5000001    1    1    2    0    0  0.41806755590E+02  0.12204348580E+03  0.15047424623E+04  0.15192489246E+04  0.16500000000E+03 0.  0.
<mgrwt>
<rscale>  0 0.42335583E+03</rscale>
<asrwt>0</asrwt>
<pdfrwt beam="1">  1        2 0.37734084E+00 0.42335583E+03</pdfrwt>
<pdfrwt beam="2">  1       -2 0.24233783E-02 0.42335583E+03</pdfrwt>
<totfact> 0.24502741E+03</totfact>
</mgrwt>
</event>
<event>
 4    1  0.5312547E-005  0.9598796E+03  0.7818608E-02  0.9353677E-01
         -2   -1    0    0    0  501 -0.00000000000E+00  0.00000000000E+00  0.73787484286E+03  0.73787484286E+03  0.25500000000E-02 0.  1.
          2   -1    0    0  501    0  0.00000000000E+00 -0.00000000000E+00 -0.31216977421E+03  0.31216977422E+03  0.25500000000E-02 0. -1.
    5000001    1    1    2    0    0  0.26736986901E+03 -0.29164637358E+03  0.44893185280E+03  0.62073268203E+03  0.16500000000E+03 0.  0.
   -5000001    1    1    2    0    0 -0.26736986901E+03  0.29164637358E+03 -0.23226784155E+02  0.42931193505E+03  0.16500000000E+03 0.  0.
<mgrwt>
<rscale>  0 0.95987962E+03</rscale>
<asrwt>0</asrwt>
<pdfrwt beam="1">  1        2 0.44595681E-01 0.95987962E+03</pdfrwt>
<pdfrwt beam="2">  1       -2 0.10541069E+00 0.95987962E+03</pdfrwt>
<totfact> 0.83150078E+01</totfact>
</mgrwt>
</event>
<event>
 4    1  0.5312547E-005  0.5485996E+03  0.7818608E-02  0.1001819E+00
         -2   -1    0    0    0  501 -0.00000000000E+00  0.00000000000E+00  0.88748529298E+02  0.88748529335E+02  0.25500000000E-02 0. -1.
          2   -1    0    0  501    0  0.00000000000E+00 -0.00000000000E+00 -0.84779299313E+03  0.84779299313E+03  0.25500000000E-02 0.  1.
    5000001    1    1    2    0    0 -0.37415949175E+02 -0.20623958151E+03 -0.27046940789E+03  0.37988606033E+03  0.16500000000E+03 0.  0.
   -5000001    1    1    2    0    0  0.37415949175E+02  0.20623958151E+03 -0.48857505594E+03  0.55665546213E+03  0.16500000000E+03 0.  0.
<mgrwt>
<rscale>  0 0.54859960E+03</rscale>
<asrwt>0</asrwt>
<pdfrwt beam="1">  1        2 0.12111328E+00 0.54859960E+03</pdfrwt>
<pdfrwt beam="2">  1       -2 0.12678362E-01 0.54859960E+03</pdfrwt>
<totfact> 0.16390976E+03</totfact>
</mgrwt>
</event>
<event>
 4    1  0.5312547E-005  0.4471063E+03  0.7818608E-02  0.1028589E+00
          2   -1    0    0  501    0  0.00000000000E+00  0.00000000000E+00  0.57938584668E+03  0.57938584669E+03  0.25500000000E-02 0.  1.
         -2   -1    0    0    0  501 -0.00000000000E+00 -0.00000000000E+00 -0.86256867931E+02  0.86256867969E+02  0.25500000000E-02 0. -1.
    5000001    1    1    2    0    0  0.10194359342E+03  0.24479536560E+01  0.41203026626E+03  0.45540358917E+03  0.16500000000E+03 0.  0.
   -5000001    1    1    2    0    0 -0.10194359342E+03 -0.24479536560E+01  0.81098712492E+02  0.21023912548E+03  0.16500000000E+03 0.  0.
<mgrwt>
<rscale>  0 0.44710629E+03</rscale>
<asrwt>0</asrwt>
<pdfrwt beam="1">  1        2 0.82769409E-01 0.44710629E+03</pdfrwt>
<pdfrwt beam="2">  1       -2 0.12322409E-01 0.44710629E+03</pdfrwt>
<totfact> 0.27312067E+03</totfact>
</mgrwt>
</event>
<event>
 4    1  0.5312547E-005  0.4345957E+03  0.7818608E-02  0.1032418E+00
         -2   -1    0    0    0  501 -0.00000000000E+00  0.00000000000E+00  0.33890174190E+02  0.33890174286E+02  0.25500000000E-02 0. -1.
          2   -1    0    0  501    0  0.00000000000E+00 -0.00000000000E+00 -0.13932754905E+04  0.13932754905E+04  0.25500000000E-02 0.  1.
    5000001    1    1    2    0    0  0.11371186195E+03  0.35713132449E+02 -0.42986773515E+03  0.47562283913E+03  0.16500000000E+03 0.  0.
   -5000001    1    1    2    0    0 -0.11371186195E+03 -0.35713132449E+02 -0.92951758120E+03  0.95154282570E+03  0.16500000000E+03 0.  0.
<mgrwt>
<rscale>  0 0.43459567E+03</rscale>
<asrwt>0</asrwt>
<pdfrwt beam="1">  1        2 0.19903932E+00 0.43459567E+03</pdfrwt>
<pdfrwt beam="2">  1       -2 0.48414543E-02 0.43459567E+03</pdfrwt>
<totfact> 0.36487023E+03</totfact>
</mgrwt>
</event>
<event>
 4    1  0.5312547E-005  0.3824712E+03  0.7818608E-02  0.1050024E+00
          2   -1    0    0  501    0  0.00000000000E+00  0.00000000000E+00  0.21091097247E+04  0.21091097247E+04  0.25500000000E-02 0.  1.
         -2   -1    0    0    0  501 -0.00000000000E+00 -0.00000000000E+00 -0.17339567001E+02  0.17339567189E+02  0.25500000000E-02 0. -1.
    5000001    1    1    2    0    0 -0.49464093522E+02  0.82482714191E+02  0.99142354146E+03  0.10096512929E+04  0.16500000000E+03 0.  0.
   -5000001    1    1    2    0    0  0.49464093522E+02 -0.82482714191E+02  0.11003466163E+04  0.11167979990E+04  0.16500000000E+03 0.  0.
<mgrwt>
<rscale>  0 0.38247117E+03</rscale>
<asrwt>0</asrwt>
<pdfrwt beam="1">  1        2 0.30130132E+00 0.38247117E+03</pdfrwt>
<pdfrwt beam="2">  1       -2 0.24770816E-02 0.38247117E+03</pdfrwt>
<totfact> 0.43959603E+03</totfact>
</mgrwt>
</event>
<event>
 4    1  0.5312547E-005  0.5793273E+03  0.7818608E-02  0.9949248E-01
          2   -1    0    0  501    0  0.00000000000E+00  0.00000000000E+00  0.63647243794E+03  0.63647243794E+03  0.25500000000E-02 0.  1.
         -2   -1    0    0    0  501 -0.00000000000E+00 -0.00000000000E+00 -0.13182824499E+03  0.13182824501E+03  0.25500000000E-02 0. -1.
    5000001    1    1    2    0    0  0.16166604404E+02 -0.18669469949E+03  0.57575633312E+02  0.25623470387E+03  0.16500000000E+03 0.  0.
   -5000001    1    1    2    0    0 -0.16166604404E+02  0.18669469949E+03  0.44706855964E+03  0.51206597908E+03  0.16500000000E+03 0.  0.
<mgrwt>
<rscale>  0 0.57932735E+03</rscale>
<asrwt>0</asrwt>
<pdfrwt beam="1">  1        2 0.90924632E-01 0.57932735E+03</pdfrwt>
<pdfrwt beam="2">  1       -2 0.18832607E-01 0.57932735E+03</pdfrwt>
<totfact> 0.11997520E+03</totfact>
</mgrwt>
</event>
<event>
 4    1  0.5312547E-005  0.7628573E+03  0.7818608E-02  0.9615393E-01
         -2   -1    0    0    0  501 -0.00000000000E+00  0.00000000000E+00  0.14198593862E+03  0.14198593864E+03  0.25500000000E-02 0. -1.
          2   -1    0    0  501    0  0.00000000000E+00 -0.00000000000E+00 -0.10246634308E+04  0.10246634308E+04  0.25500000000E-02 0.  1.
    5000001    1    1    2    0    0 -0.61867131713E+02  0.33746078263E+03 -0.40529497772E+03  0.55605426063E+03  0.16500000000E+03 0.  0.
   -5000001    1    1    2    0    0  0.61867131713E+02 -0.33746078263E+03 -0.47738251450E+03  0.61059510885E+03  0.16500000000E+03 0.  0.
<mgrwt>
<rscale>  0 0.76285726E+03</rscale>
<asrwt>0</asrwt>
<pdfrwt beam="1">  1        2 0.14638049E+00 0.76285726E+03</pdfrwt>
<pdfrwt beam="2">  1       -2 0.20283706E-01 0.76285726E+03</pdfrwt>
<totfact> 0.56650982E+02</totfact>
</mgrwt>
</event>
<event>
 4    1  0.5312547E-005  0.7553928E+03  0.7818608E-02  0.9626928E-01
          2   -1    0    0  501    0  0.00000000000E+00  0.00000000000E+00  0.41983754847E+03  0.41983754848E+03  0.25500000000E-02 0.  1.
         -2   -1    0    0    0  501 -0.00000000000E+00 -0.00000000000E+00 -0.33978515577E+03  0.33978515578E+03  0.25500000000E-02 0. -1.
    5000001    1    1    2    0    0  0.26866532470E+03  0.15421118262E+03  0.18033318867E+03  0.39459752214E+03  0.16500000000E+03 0.  0.
   -5000001    1    1    2    0    0 -0.26866532470E+03 -0.15421118262E+03 -0.10028079597E+03  0.36502518212E+03  0.16500000000E+03 0.  0.
<mgrwt>
<rscale>  0 0.75539279E+03</rscale>
<asrwt>0</asrwt>
<pdfrwt beam="1">  1        2 0.59976793E-01 0.75539279E+03</pdfrwt>
<pdfrwt beam="2">  1       -2 0.48540736E-01 0.75539279E+03</pdfrwt>
<totfact> 0.33156574E+02</totfact>
</mgrwt>
</event>
<event>
 4    1  0.5312547E-005  0.3798820E+03  0.7818608E-02  0.1050977E+00
          2   -1    0    0  501    0  0.00000000000E+00  0.00000000000E+00  0.18247960090E+04  0.18247960090E+04  0.25500000000E-02 0.  1.
         -2   -1    0    0    0  501 -0.00000000000E+00 -0.00000000000E+00 -0.19770747511E+02  0.19770747676E+02  0.25500000000E-02 0. -1.
    5000001    1    1    2    0    0 -0.50360979354E+02  0.75782945592E+02  0.78625111732E+03  0.80851413257E+03  0.16500000000E+03 0.  0.
   -5000001    1    1    2    0    0  0.50360979354E+02 -0.75782945592E+02  0.10187741441E+04  0.10360526241E+04  0.16500000000E+03 0.  0.
<mgrwt>
<rscale>  0 0.37988199E+03</rscale>
<asrwt>0</asrwt>
<pdfrwt beam="1">  1        2 0.26068501E+00 0.37988199E+03</pdfrwt>
<pdfrwt beam="2">  1       -2 0.28243939E-02 0.37988199E+03</pdfrwt>
<totfact> 0.49922337E+03</totfact>
</mgrwt>
</event>
<event>
 4    1  0.5312547E-005  0.4076769E+03  0.7818608E-02  0.1041153E+00
          2   -1    0    0  501    0  0.00000000000E+00  0.00000000000E+00  0.60648746140E+03  0.60648746140E+03  0.25500000000E-02 0.  1.
         -2   -1    0    0    0  501 -0.00000000000E+00 -0.00000000000E+00 -0.68509435770E+02  0.68509435817E+02  0.25500000000E-02 0. -1.
    5000001    1    1    2    0    0  0.54964221659E+02  0.36510094398E+02  0.10365722510E+03  0.20572766700E+03  0.16500000000E+03 0.  0.
   -5000001    1    1    2    0    0 -0.54964221659E+02 -0.36510094398E+02  0.43432080053E+03  0.46926923022E+03  0.16500000000E+03 0.  0.
<mgrwt>
<rscale>  0 0.40767690E+03</rscale>
<asrwt>0</asrwt>
<pdfrwt beam="1">  1        2 0.86641064E-01 0.40767690E+03</pdfrwt>
<pdfrwt beam="2">  1       -2 0.97870625E-02 0.40767690E+03</pdfrwt>
<totfact> 0.37579156E+03</totfact>
</mgrwt>
</event>
<event>
 4    1  0.5312547E-005  0.4289531E+03  0.7818608E-02  0.1034191E+00
         -2   -1    0    0    0  501 -0.00000000000E+00  0.00000000000E+00  0.80061818027E+02  0.80061818067E+02  0.25500000000E-02 0. -1.
          2   -1    0    0  501    0  0.00000000000E+00 -0.00000000000E+00 -0.57455835826E+03  0.57455835826E+03  0.25500000000E-02 0.  1.
    5000001    1    1    2    0    0  0.84282951660E+02 -0.10723964651E+03 -0.22727872029E+03  0.31222519825E+03  0.16500000000E+03 0.  0.
   -5000001    1    1    2    0    0 -0.84282951660E+02  0.10723964651E+03 -0.26721781994E+03  0.34239497809E+03  0.16500000000E+03 0.  0.
<mgrwt>
<rscale>  0 0.42895308E+03</rscale>
<asrwt>0</asrwt>
<pdfrwt beam="1">  1        2 0.82079764E-01 0.42895308E+03</pdfrwt>
<pdfrwt beam="2">  1       -2 0.11437403E-01 0.42895308E+03</pdfrwt>
<totfact> 0.31130191E+03</totfact>
</mgrwt>
</event>
<event>
 4    1  0.5312547E-005  0.4514922E+03  0.7818608E-02  0.1027278E+00
          2   -1    0    0  501    0  0.00000000000E+00  0.00000000000E+00  0.21574001923E+04  0.21574001923E+04  0.25500000000E-02 0.  1.
         -2   -1    0    0    0  501 -0.00000000000E+00 -0.00000000000E+00 -0.23621631335E+02  0.23621631473E+02  0.25500000000E-02 0. -1.
    5000001    1    1    2    0    0  0.11543634781E+03 -0.68394900046E+02  0.14326498415E+04  0.14483487084E+04  0.16500000000E+03 0.  0.
   -5000001    1    1    2    0    0 -0.11543634781E+03  0.68394900046E+02  0.70112871943E+03  0.73267311535E+03  0.16500000000E+03 0.  0.
<mgrwt>
<rscale>  0 0.45149225E+03</rscale>
<asrwt>0</asrwt>
<pdfrwt beam="1">  1        2 0.30820005E+00 0.45149225E+03</pdfrwt>
<pdfrwt beam="2">  1       -2 0.33745186E-02 0.45149225E+03</pdfrwt>
<totfact> 0.26070699E+03</totfact>
</mgrwt>
</event>
<event>
 4    1  0.5312547E-005  0.7479694E+03  0.7818608E-02  0.9638541E-01
          2   -1    0    0  501    0  0.00000000000E+00  0.00000000000E+00  0.21724711794E+04  0.21724711794E+04  0.25500000000E-02 0.  1.
         -2   -1    0    0    0  501 -0.00000000000E+00 -0.00000000000E+00 -0.64380404820E+02  0.64380404870E+02  0.25500000000E-02 0. -1.
    5000001    1    1    2    0    0 -0.27880573575E+03 -0.87218055235E+02  0.55992336624E+03  0.65274712065E+03  0.16500000000E+03 0.  0.
   -5000001    1    1    2    0    0  0.27880573575E+03  0.87218055235E+02  0.15481674083E+04  0.15841044636E+04  0.16500000000E+03 0.  0.
<mgrwt>
<rscale>  0 0.74796945E+03</rscale>
<asrwt>0</asrwt>
<pdfrwt beam="1">  1        2 0.31035298E+00 0.74796945E+03</pdfrwt>
<pdfrwt beam="2">  1       -2 0.91972021E-02 0.74796945E+03</pdfrwt>
<totfact> 0.52623675E+02</totfact>
</mgrwt>
</event>
<event>
 4    1  0.5312547E-005  0.4800549E+03  0.7818608E-02  0.1019120E+00
          2   -1    0    0  501    0  0.00000000000E+00  0.00000000000E+00  0.94269562920E+03  0.94269562920E+03  0.25500000000E-02 0.  1.
         -2   -1    0    0    0  501 -0.00000000000E+00 -0.00000000000E+00 -0.61115345083E+02  0.61115345136E+02  0.25500000000E-02 0. -1.
    5000001    1    1    2    0    0 -0.15734383993E+03 -0.74937785659E+02  0.43258086143E+03  0.49469582306E+03  0.16500000000E+03 0.  0.
   -5000001    1    1    2    0    0  0.15734383993E+03  0.74937785659E+02  0.44899942269E+03  0.50911515127E+03  0.16500000000E+03 0.  0.
<mgrwt>
<rscale>  0 0.48005487E+03</rscale>
<asrwt>0</asrwt>
<pdfrwt beam="1">  1        2 0.13467080E+00 0.48005487E+03</pdfrwt>
<pdfrwt beam="2">  1       -2 0.87307637E-02 0.48005487E+03</pdfrwt>
<totfact> 0.26084133E+03</totfact>
</mgrwt>
</event>
<event>
 4    1  0.5312547E-005  0.5537952E+03  0.7818608E-02  0.1000619E+00
         -2   -1    0    0    0  501 -0.00000000000E+00  0.00000000000E+00  0.35366806181E+02  0.35366806273E+02  0.25500000000E-02 0. -1.
          2   -1    0    0  501    0  0.00000000000E+00 -0.00000000000E+00 -0.21679162160E+04  0.21679162160E+04  0.25500000000E-02 0.  1.
    5000001    1    1    2    0    0 -0.23732237143E+02  0.85283070676E+02 -0.25470761896E+03  0.31612875918E+03  0.16500000000E+03 0.  0.
   -5000001    1    1    2    0    0  0.23732237143E+02 -0.85283070676E+02 -0.18778417908E+04  0.18871542631E+04  0.16500000000E+03 0.  0.
<mgrwt>
<rscale>  0 0.55379517E+03</rscale>
<asrwt>0</asrwt>
<pdfrwt beam="1">  1        2 0.30970223E+00 0.55379517E+03</pdfrwt>
<pdfrwt beam="2">  1       -2 0.50524023E-02 0.55379517E+03</pdfrwt>
<totfact> 0.13809092E+03</totfact>
</mgrwt>
</event>
<event>
 4    1  0.5312547E-005  0.4562483E+03  0.7818608E-02  0.1025875E+00
         -2   -1    0    0    0  501 -0.00000000000E+00  0.00000000000E+00  0.18230743830E+03  0.18230743831E+03  0.25500000000E-02 0. -1.
          2   -1    0    0  501    0  0.00000000000E+00 -0.00000000000E+00 -0.28545525837E+03  0.28545525838E+03  0.25500000000E-02 0.  1.
    5000001    1    1    2    0    0 -0.15631214983E+03 -0.76471979423E+01 -0.70018184020E+02  0.23794855308E+03  0.16500000000E+03 0.  0.
   -5000001    1    1    2    0    0  0.15631214983E+03  0.76471979423E+01 -0.33129636058E+02  0.22981414362E+03  0.16500000000E+03 0.  0.
<mgrwt>
<rscale>  0 0.45624825E+03</rscale>
<asrwt>0</asrwt>
<pdfrwt beam="1">  1        2 0.40779322E-01 0.45624825E+03</pdfrwt>
<pdfrwt beam="2">  1       -2 0.26043920E-01 0.45624825E+03</pdfrwt>
<totfact> 0.16669922E+03</totfact>
</mgrwt>
</event>
<event>
 4    1  0.5312547E-005  0.4295336E+03  0.7818608E-02  0.1034007E+00
          2   -1    0    0  501    0  0.00000000000E+00  0.00000000000E+00  0.55323166479E+03  0.55323166480E+03  0.25500000000E-02 0.  1.
         -2   -1    0    0    0  501 -0.00000000000E+00 -0.00000000000E+00 -0.83373367612E+02  0.83373367651E+02  0.25500000000E-02 0. -1.
    5000001    1    1    2    0    0 -0.88829984082E+02 -0.52232639887E+01  0.39024237171E+03  0.43293435673E+03  0.16500000000E+03 0.  0.
   -5000001    1    1    2    0    0  0.88829984082E+02  0.52232639887E+01  0.79615925466E+02  0.20367067572E+03  0.16500000000E+03 0.  0.
<mgrwt>
<rscale>  0 0.42953364E+03</rscale>
<asrwt>0</asrwt>
<pdfrwt beam="1">  1        2 0.79033096E-01 0.42953364E+03</pdfrwt>
<pdfrwt beam="2">  1       -2 0.11910481E-01 0.42953364E+03</pdfrwt>
<totfact> 0.30434987E+03</totfact>
</mgrwt>
</event>
<event>
 4    1  0.5312547E-005  0.9252414E+03  0.7818608E-02  0.9394567E-01
         -2   -1    0    0    0  501 -0.00000000000E+00  0.00000000000E+00  0.65935459344E+02  0.65935459393E+02  0.25500000000E-02 0. -1.
          2   -1    0    0  501    0  0.00000000000E+00 -0.00000000000E+00 -0.32458695148E+04  0.32458695148E+04  0.25500000000E-02 0.  1.
    5000001    1    1    2    0    0  0.17422068936E+03 -0.37601856728E+03 -0.20290829675E+04  0.20775335137E+04  0.16500000000E+03 0.  0.
   -5000001    1    1    2    0    0 -0.17422068936E+03  0.37601856728E+03 -0.11508510880E+04  0.12342714605E+04  0.16500000000E+03 0.  0.
<mgrwt>
<rscale>  0 0.92524137E+03</rscale>
<asrwt>0</asrwt>
<pdfrwt beam="1">  1        2 0.46369554E+00 0.92524137E+03</pdfrwt>
<pdfrwt beam="2">  1       -2 0.94193534E-02 0.92524137E+03</pdfrwt>
<totfact> 0.13367625E+02</totfact>
</mgrwt>
</event>
<event>
 4    1  0.5312547E-005  0.4948266E+03  0.7818608E-02  0.1015138E+00
         -2   -1    0    0    0  501 -0.00000000000E+00  0.00000000000E+00  0.27721541066E+02  0.27721541184E+02  0.25500000000E-02 0. -1.
          2   -1    0    0  501    0  0.00000000000E+00 -0.00000000000E+00 -0.22081508931E+04  0.22081508931E+04  0.25500000000E-02 0.  1.
    5000001    1    1    2    0    0  0.67402293906E+02  0.14858539280E+03 -0.14780601116E+04  0.14961642229E+04  0.16500000000E+03 0.  0.
   -5000001    1    1    2    0    0 -0.67402293906E+02 -0.14858539280E+03 -0.70236924034E+03  0.73970821137E+03  0.16500000000E+03 0.  0.
<mgrwt>
<rscale>  0 0.49482662E+03</rscale>
<asrwt>0</asrwt>
<pdfrwt beam="1">  1        2 0.31545001E+00 0.49482662E+03</pdfrwt>
<pdfrwt beam="2">  1       -2 0.39602216E-02 0.49482662E+03</pdfrwt>
<totfact> 0.19237089E+03</totfact>
</mgrwt>
</event>
<event>
 4    1  0.5312547E-005  0.4398112E+03  0.7818608E-02  0.1030805E+00
         -2   -1    0    0    0  501 -0.00000000000E+00  0.00000000000E+00  0.12182929875E+03  0.12182929878E+03  0.25500000000E-02 0. -1.
          2   -1    0    0  501    0  0.00000000000E+00 -0.00000000000E+00 -0.39693630783E+03  0.39693630784E+03  0.25500000000E-02 0.  1.
    5000001    1    1    2    0    0 -0.12121351714E+03 -0.79072754106E+02 -0.12136979798E+03  0.25080040877E+03  0.16500000000E+03 0.  0.
   -5000001    1    1    2    0    0  0.12121351714E+03  0.79072754106E+02 -0.15373721110E+03  0.26796519784E+03  0.16500000000E+03 0.  0.
<mgrwt>
<rscale>  0 0.43981120E+03</rscale>
<asrwt>0</asrwt>
<pdfrwt beam="1">  1        2 0.56705186E-01 0.43981120E+03</pdfrwt>
<pdfrwt beam="2">  1       -2 0.17404186E-01 0.43981120E+03</pdfrwt>
<totfact> 0.23468773E+03</totfact>
</mgrwt>
</event>
<event>
 4    1  0.5312547E-005  0.1042249E+04  0.7818608E-02  0.9263383E-01
          2   -1    0    0  501    0  0.00000000000E+00  0.00000000000E+00  0.16651387681E+04  0.16651387681E+04  0.25500000000E-02 0. -1.
         -2   -1    0    0    0  501 -0.00000000000E+00 -0.00000000000E+00 -0.16309189588E+03  0.16309189590E+03  0.25500000000E-02 0.  1.
    5000001    1    1    2    0    0 -0.43871706278E+03 -0.15635439571E+03  0.10415213662E+04  0.11527840710E+04  0.16500000000E+03 0.  0.
   -5000001    1    1    2    0    0  0.43871706278E+03  0.15635439571E+03  0.46052550607E+03  0.67544659298E+03  0.16500000000E+03 0.  0.
<mgrwt>
<rscale>  0 0.10422488E+04</rscale>
<asrwt>0</asrwt>
<pdfrwt beam="1">  1        2 0.23787699E+00 0.10422488E+04</pdfrwt>
<pdfrwt beam="2">  1       -2 0.23298840E-01 0.10422488E+04</pdfrwt>
<totfact> 0.19385285E+02</totfact>
</mgrwt>
</event>
<event>
 4    1  0.5312547E-005  0.7335740E+03  0.7818608E-02  0.9661478E-01
          2   -1    0    0  501    0  0.00000000000E+00  0.00000000000E+00  0.11713673911E+04  0.11713673911E+04  0.25500000000E-02 0.  1.
         -2   -1    0    0    0  501 -0.00000000000E+00 -0.00000000000E+00 -0.11485098539E+03  0.11485098542E+03  0.25500000000E-02 0. -1.
    5000001    1    1    2    0    0  0.32117468343E+03  0.55278630566E+02  0.47013773568E+03  0.59536828500E+03  0.16500000000E+03 0.  0.
   -5000001    1    1    2    0    0 -0.32117468343E+03 -0.55278630566E+02  0.58637867000E+03  0.69085009148E+03  0.16500000000E+03 0.  0.
<mgrwt>
<rscale>  0 0.73357399E+03</rscale>
<asrwt>0</asrwt>
<pdfrwt beam="1">  1        2 0.16733820E+00 0.73357399E+03</pdfrwt>
<pdfrwt beam="2">  1       -2 0.16407283E-01 0.73357399E+03</pdfrwt>
<totfact> 0.67109724E+02</totfact>
</mgrwt>
</event>
<event>
 4    1  0.5312547E-005  0.7337805E+03  0.7818608E-02  0.9661146E-01
         -2   -1    0    0    0  501 -0.00000000000E+00  0.00000000000E+00  0.81602540554E+02  0.81602540594E+02  0.25500000000E-02 0. -1.
          2   -1    0    0  501    0  0.00000000000E+00 -0.00000000000E+00 -0.16495619775E+04  0.16495619775E+04  0.25500000000E-02 0.  1.
    5000001    1    1    2    0    0 -0.61927879020E+02  0.59574783454E+02 -0.37925280305E+02  0.18986190747E+03  0.16500000000E+03 0.  0.
   -5000001    1    1    2    0    0  0.61927879020E+02 -0.59574783454E+02 -0.15300341567E+04  0.15413026107E+04  0.16500000000E+03 0.  0.
<mgrwt>
<rscale>  0 0.73378048E+03</rscale>
<asrwt>0</asrwt>
<pdfrwt beam="1">  1        2 0.23565169E+00 0.73378048E+03</pdfrwt>
<pdfrwt beam="2">  1       -2 0.11657507E-01 0.73378048E+03</pdfrwt>
<totfact> 0.65925200E+02</totfact>
</mgrwt>
</event>
<event>
 4    1  0.5312547E-005  0.4352603E+03  0.7818608E-02  0.1032211E+00
          2   -1    0    0  501    0  0.00000000000E+00  0.00000000000E+00  0.10100504065E+04  0.10100504065E+04  0.25500000000E-02 0.  1.
         -2   -1    0    0    0  501 -0.00000000000E+00 -0.00000000000E+00 -0.46891611061E+02  0.46891611130E+02  0.25500000000E-02 0. -1.
    5000001    1    1    2    0    0 -0.34209013962E+02 -0.11763571341E+03  0.30766383485E+03  0.36998709840E+03  0.16500000000E+03 0.  0.
   -5000001    1    1    2    0    0  0.34209013962E+02  0.11763571341E+03  0.65549496061E+03  0.68695491925E+03  0.16500000000E+03 0.  0.
<mgrwt>
<rscale>  0 0.43526034E+03</rscale>
<asrwt>0</asrwt>
<pdfrwt beam="1">  1        2 0.14429293E+00 0.43526034E+03</pdfrwt>
<pdfrwt beam="2">  1       -2 0.66988007E-02 0.43526034E+03</pdfrwt>
<totfact> 0.36033400E+03</totfact>
</mgrwt>
</event>
<event>
 4    1  0.5312547E-005  0.7669258E+03  0.7818608E-02  0.9609164E-01
         -2   -1    0    0    0  501 -0.00000000000E+00  0.00000000000E+00  0.11229100480E+03  0.11229100483E+03  0.25500000000E-02 0. -1.
          2   -1    0    0  501    0  0.00000000000E+00 -0.00000000000E+00 -0.13094887755E+04  0.13094887755E+04  0.25500000000E-02 0.  1.
    5000001    1    1    2    0    0  0.12876134899E+03 -0.27280857032E+03 -0.28390606171E+03  0.44590543046E+03  0.16500000000E+03 0.  0.
   -5000001    1    1    2    0    0 -0.12876134899E+03  0.27280857032E+03 -0.91329170896E+03  0.97587434985E+03  0.16500000000E+03 0.  0.
<mgrwt>
<rscale>  0 0.76692584E+03</rscale>
<asrwt>0</asrwt>
<pdfrwt beam="1">  1        2 0.18706982E+00 0.76692584E+03</pdfrwt>
<pdfrwt beam="2">  1       -2 0.16041573E-01 0.76692584E+03</pdfrwt>
<totfact> 0.58319802E+02</totfact>
</mgrwt>
</event>
<event>
 4    1  0.5312547E-005  0.7538515E+03  0.7818608E-02  0.9629327E-01
         -2   -1    0    0    0  501 -0.00000000000E+00  0.00000000000E+00  0.30317515183E+03  0.30317515184E+03  0.25500000000E-02 0. -1.
          2   -1    0    0  501    0  0.00000000000E+00 -0.00000000000E+00 -0.46861700681E+03  0.46861700681E+03  0.25500000000E-02 0.  1.
    5000001    1    1    2    0    0 -0.33500925479E+03 -0.51032276763E+02 -0.79095735883E+02  0.38511898096E+03  0.16500000000E+03 0.  0.
   -5000001    1    1    2    0    0  0.33500925479E+03  0.51032276763E+02 -0.86346119095E+02  0.38667317769E+03  0.16500000000E+03 0.  0.
<mgrwt>
<rscale>  0 0.75385153E+03</rscale>
<asrwt>0</asrwt>
<pdfrwt beam="1">  1        2 0.66945286E-01 0.75385153E+03</pdfrwt>
<pdfrwt beam="2">  1       -2 0.43310736E-01 0.75385153E+03</pdfrwt>
<totfact> 0.36789177E+02</totfact>
</mgrwt>
</event>
<event>
 4    1  0.5312547E-005  0.6538975E+03  0.7818608E-02  0.9799493E-01
          2   -1    0    0  501    0  0.00000000000E+00  0.00000000000E+00  0.45440855958E+03  0.45440855958E+03  0.25500000000E-02 0. -1.
         -2   -1    0    0    0  501 -0.00000000000E+00 -0.00000000000E+00 -0.23524093383E+03  0.23524093384E+03  0.25500000000E-02 0.  1.
    5000001    1    1    2    0    0 -0.27252570349E+03  0.72849723505E+02  0.11976307441E+03  0.34805967199E+03  0.16500000000E+03 0.  0.
   -5000001    1    1    2    0    0  0.27252570349E+03 -0.72849723505E+02  0.99404551344E+02  0.34158982143E+03  0.16500000000E+03 0.  0.
<mgrwt>
<rscale>  0 0.65389753E+03</rscale>
<asrwt>0</asrwt>
<pdfrwt beam="1">  1        2 0.64915508E-01 0.65389753E+03</pdfrwt>
<pdfrwt beam="2">  1       -2 0.33605848E-01 0.65389753E+03</pdfrwt>
<totfact> 0.62318614E+02</totfact>
</mgrwt>
</event>
<event>
 4    1  0.5312547E-005  0.4439036E+03  0.7818608E-02  0.1029556E+00
          2   -1    0    0  501    0  0.00000000000E+00  0.00000000000E+00  0.98286807346E+03  0.98286807347E+03  0.25500000000E-02 0.  1.
         -2   -1    0    0    0  501 -0.00000000000E+00 -0.00000000000E+00 -0.50121270100E+02  0.50121270165E+02  0.25500000000E-02 0. -1.
    5000001    1    1    2    0    0  0.73390905030E+02  0.76147826544E+02  0.22394712359E+03  0.29759373413E+03  0.16500000000E+03 0.  0.
   -5000001    1    1    2    0    0 -0.73390905030E+02 -0.76147826544E+02  0.70879967978E+03  0.73539560951E+03  0.16500000000E+03 0.  0.
<mgrwt>
<rscale>  0 0.44390358E+03</rscale>
<asrwt>0</asrwt>
<pdfrwt beam="1">  1        2 0.14040972E+00 0.44390358E+03</pdfrwt>
<pdfrwt beam="2">  1       -2 0.71601815E-02 0.44390358E+03</pdfrwt>
<totfact> 0.33714803E+03</totfact>
</mgrwt>
</event>
<event>
 4    1  0.5312547E-005  0.5990029E+03  0.7818608E-02  0.9907477E-01
          2   -1    0    0  501    0  0.00000000000E+00  0.00000000000E+00  0.22421295229E+04  0.22421295229E+04  0.25500000000E-02 0.  1.
         -2   -1    0    0    0  501 -0.00000000000E+00 -0.00000000000E+00 -0.40007107258E+02  0.40007107340E+02  0.25500000000E-02 0. -1.
    5000001    1    1    2    0    0 -0.19397777990E+03 -0.92408277809E+02  0.15876166635E+04  0.16105646026E+04  0.16500000000E+03 0.  0.
   -5000001    1    1    2    0    0  0.19397777990E+03  0.92408277809E+02  0.61450575214E+03  0.67157202764E+03  0.16500000000E+03 0.  0.
<mgrwt>
<rscale>  0 0.59900289E+03</rscale>
<asrwt>0</asrwt>
<pdfrwt beam="1">  1        2 0.32030417E+00 0.59900289E+03</pdfrwt>
<pdfrwt beam="2">  1       -2 0.57153019E-02 0.59900289E+03</pdfrwt>
<totfact> 0.10431429E+03</totfact>
</mgrwt>
</event>
<event>
 4    1  0.5312547E-005  0.4835042E+03  0.7818608E-02  0.1018177E+00
          2   -1    0    0  501    0  0.00000000000E+00  0.00000000000E+00  0.11576921792E+04  0.11576921792E+04  0.25500000000E-02 0.  1.
         -2   -1    0    0    0  501 -0.00000000000E+00 -0.00000000000E+00 -0.50483256052E+02  0.50483256116E+02  0.25500000000E-02 0. -1.
    5000001    1    1    2    0    0 -0.68529674851E+02 -0.15968652755E+03  0.47368350751E+03  0.53084571083E+03  0.16500000000E+03 0.  0.
   -5000001    1    1    2    0    0  0.68529674851E+02  0.15968652755E+03  0.63352541560E+03  0.67732972445E+03  0.16500000000E+03 0.  0.
<mgrwt>
<rscale>  0 0.48350417E+03</rscale>
<asrwt>0</asrwt>
<pdfrwt beam="1">  1        2 0.16538458E+00 0.48350417E+03</pdfrwt>
<pdfrwt beam="2">  1       -2 0.72118944E-02 0.48350417E+03</pdfrwt>
<totfact> 0.26354579E+03</totfact>
</mgrwt>
</event>
<event>
 4    1  0.5312547E-005  0.7890955E+03  0.7818608E-02  0.9575936E-01
         -2   -1    0    0    0  501 -0.00000000000E+00  0.00000000000E+00  0.11596562091E+03  0.11596562094E+03  0.25500000000E-02 0. -1.
          2   -1    0    0  501    0  0.00000000000E+00 -0.00000000000E+00 -0.13423626777E+04  0.13423626777E+04  0.25500000000E-02 0.  1.
    5000001    1    1    2    0    0 -0.12100283136E+03  0.31592366940E+03 -0.39457924034E+03  0.54531387933E+03  0.16500000000E+03 0.  0.
   -5000001    1    1    2    0    0  0.12100283136E+03 -0.31592366940E+03 -0.83181781640E+03  0.91301441926E+03  0.16500000000E+03 0.  0.
<mgrwt>
<rscale>  0 0.78909549E+03</rscale>
<asrwt>0</asrwt>
<pdfrwt beam="1">  1        2 0.19176609E+00 0.78909549E+03</pdfrwt>
<pdfrwt beam="2">  1       -2 0.16566518E-01 0.78909549E+03</pdfrwt>
<totfact> 0.52915910E+02</totfact>
</mgrwt>
</event>
<event>
 4    1  0.5312547E-005  0.5636270E+03  0.7818608E-02  0.9983881E-01
          2   -1    0    0  501    0  0.00000000000E+00  0.00000000000E+00  0.35307605823E+04  0.35307605823E+04  0.25500000000E-02 0.  1.
         -2   -1    0    0    0  501 -0.00000000000E+00 -0.00000000000E+00 -0.22493408878E+02  0.22493409023E+02  0.25500000000E-02 0. -1.
    5000001    1    1    2    0    0 -0.14447745204E+03 -0.16666678642E+03  0.13789217509E+04  0.14061656186E+04  0.16500000000E+03 0.  0.
   -5000001    1    1    2    0    0  0.14447745204E+03  0.16666678642E+03  0.21293454225E+04  0.21470883727E+04  0.16500000000E+03 0.  0.
<mgrwt>
<rscale>  0 0.56362697E+03</rscale>
<asrwt>0</asrwt>
<pdfrwt beam="1">  1        2 0.50439430E+00 0.56362697E+03</pdfrwt>
<pdfrwt beam="2">  1       -2 0.32133446E-02 0.56362697E+03</pdfrwt>
<totfact> 0.51175042E+02</totfact>
</mgrwt>
</event>
<event>
 4    1  0.5312547E-005  0.3669394E+03  0.7818608E-02  0.1055869E+00
         -2   -1    0    0    0  501 -0.00000000000E+00  0.00000000000E+00  0.25650111878E+02  0.25650112005E+02  0.25500000000E-02 0. -1.
          2   -1    0    0  501    0  0.00000000000E+00 -0.00000000000E+00 -0.13123189398E+04  0.13123189398E+04  0.25500000000E-02 0.  1.
    5000001    1    1    2    0    0 -0.73486325423E+02  0.27374941390E+02 -0.58161607042E+03  0.60963257854E+03  0.16500000000E+03 0.  0.
   -5000001    1    1    2    0    0  0.73486325423E+02 -0.27374941390E+02 -0.70505275754E+03  0.72833647331E+03  0.16500000000E+03 0.  0.
<mgrwt>
<rscale>  0 0.36693938E+03</rscale>
<asrwt>0</asrwt>
<pdfrwt beam="1">  1        2 0.18747409E+00 0.36693938E+03</pdfrwt>
<pdfrwt beam="2">  1       -2 0.36643025E-02 0.36693938E+03</pdfrwt>
<totfact> 0.61485755E+03</totfact>
</mgrwt>
</event>
<event>
 4    1  0.5312547E-005  0.9196078E+03  0.7818608E-02  0.9401397E-01
         -2   -1    0    0    0  501 -0.00000000000E+00  0.00000000000E+00  0.16573575470E+03  0.16573575472E+03  0.25500000000E-02 0. -1.
          2   -1    0    0  501    0  0.00000000000E+00 -0.00000000000E+00 -0.12756429619E+04  0.12756429619E+04  0.25500000000E-02 0.  1.
    5000001    1    1    2    0    0 -0.44458337860E+02  0.42656416348E+03 -0.58028127235E+03  0.74019246444E+03  0.16500000000E+03 0.  0.
   -5000001    1    1    2    0    0  0.44458337860E+02 -0.42656416348E+03 -0.52962593483E+03  0.70118625216E+03  0.16500000000E+03 0.  0.
<mgrwt>
<rscale>  0 0.91960785E+03</rscale>
<asrwt>0</asrwt>
<pdfrwt beam="1">  1        2 0.18223470E+00 0.91960785E+03</pdfrwt>
<pdfrwt beam="2">  1       -2 0.23676537E-01 0.91960785E+03</pdfrwt>
<totfact> 0.30614213E+02</totfact>
</mgrwt>
</event>
<event>
 4    1  0.5312547E-005  0.6296547E+03  0.7818608E-02  0.9845723E-01
          2   -1    0    0  501    0  0.00000000000E+00  0.00000000000E+00  0.37811879664E+04  0.37811879664E+04  0.25500000000E-02 0.  1.
         -2   -1    0    0    0  501 -0.00000000000E+00 -0.00000000000E+00 -0.26212990532E+02  0.26212990656E+02  0.25500000000E-02 0. -1.
    5000001    1    1    2    0    0  0.17264961355E+03 -0.15855088249E+03  0.26646178103E+04  0.26799924153E+04  0.16500000000E+03 0.  0.
   -5000001    1    1    2    0    0 -0.17264961355E+03  0.15855088249E+03  0.10903571656E+04  0.11274085417E+04  0.16500000000E+03 0.  0.
<mgrwt>
<rscale>  0 0.62965465E+03</rscale>
<asrwt>0</asrwt>
<pdfrwt beam="1">  1        2 0.54016949E+00 0.62965465E+03</pdfrwt>
<pdfrwt beam="2">  1       -2 0.37447145E-02 0.62965465E+03</pdfrwt>
<totfact> 0.28194013E+02</totfact>
</mgrwt>
</event>
<event>
 4    1  0.5312547E-005  0.7791701E+03  0.7818608E-02  0.9590667E-01
         -2   -1    0    0    0  501 -0.00000000000E+00  0.00000000000E+00  0.12209788583E+04  0.12209788583E+04  0.25500000000E-02 0. -1.
          2   -1    0    0  501    0  0.00000000000E+00 -0.00000000000E+00 -0.12430724445E+03  0.12430724448E+03  0.25500000000E-02 0.  1.
    5000001    1    1    2    0    0 -0.20220778216E+03  0.25386423703E+03  0.78767800815E+03  0.86775381448E+03  0.16500000000E+03 0.  0.
   -5000001    1    1    2    0    0  0.20220778216E+03 -0.25386423703E+03  0.30899360569E+03  0.47753228830E+03  0.16500000000E+03 0.  0.
<mgrwt>
<rscale>  0 0.77917012E+03</rscale>
<asrwt>0</asrwt>
<pdfrwt beam="1">  1        2 0.17758177E-01 0.77917012E+03</pdfrwt>
<pdfrwt beam="2">  1       -2 0.17442556E+00 0.77917012E+03</pdfrwt>
<totfact> 0.65673865E+01</totfact>
</mgrwt>
</event>
<event>
 4    1  0.5312547E-005  0.4982250E+03  0.7818608E-02  0.1014243E+00
         -2   -1    0    0    0  501 -0.00000000000E+00  0.00000000000E+00  0.39409618452E+02  0.39409618534E+02  0.25500000000E-02 0. -1.
          2   -1    0    0  501    0  0.00000000000E+00 -0.00000000000E+00 -0.15746672846E+04  0.15746672846E+04  0.25500000000E-02 0.  1.
    5000001    1    1    2    0    0 -0.50376977516E+02  0.14727961363E+03 -0.43404015829E+03  0.48973970991E+03  0.16500000000E+03 0.  0.
   -5000001    1    1    2    0    0  0.50376977516E+02 -0.14727961363E+03 -0.11012175079E+04  0.11243371933E+04  0.16500000000E+03 0.  0.
<mgrwt>
<rscale>  0 0.49822500E+03</rscale>
<asrwt>0</asrwt>
<pdfrwt beam="1">  1        2 0.22495243E+00 0.49822500E+03</pdfrwt>
<pdfrwt beam="2">  1       -2 0.56299465E-02 0.49822500E+03</pdfrwt>
<totfact> 0.23260001E+03</totfact>
</mgrwt>
</event>
<event>
 4    1  0.5312547E-005  0.3502411E+03  0.7818608E-02  0.1062516E+00
         -2   -1    0    0    0  501 -0.00000000000E+00  0.00000000000E+00  0.91490964896E+03  0.91490964896E+03  0.25500000000E-02 0. -1.
          2   -1    0    0  501    0  0.00000000000E+00 -0.00000000000E+00 -0.33519379779E+02  0.33519379876E+02  0.25500000000E-02 0.  1.
    5000001    1    1    2    0    0 -0.23789252468E+00 -0.58271612868E+02  0.42221628613E+03  0.45704182492E+03  0.16500000000E+03 0.  0.
   -5000001    1    1    2    0    0  0.23789252468E+00  0.58271612868E+02  0.45917398305E+03  0.49138720392E+03  0.16500000000E+03 0.  0.
<mgrwt>
<rscale>  0 0.35024108E+03</rscale>
<asrwt>0</asrwt>
<pdfrwt beam="1">  1        2 0.47884826E-02 0.35024108E+03</pdfrwt>
<pdfrwt beam="2">  1       -2 0.13070138E+00 0.35024108E+03</pdfrwt>
<totfact> 0.75368358E+02</totfact>
</mgrwt>
</event>
<event>
 4    1  0.5312547E-005  0.7722114E+03  0.7818608E-02  0.9601134E-01
          2   -1    0    0  501    0  0.00000000000E+00  0.00000000000E+00  0.69281956189E+03  0.69281956189E+03  0.25500000000E-02 0.  1.
         -2   -1    0    0    0  501 -0.00000000000E+00 -0.00000000000E+00 -0.21517524233E+03  0.21517524234E+03  0.25500000000E-02 0. -1.
    5000001    1    1    2    0    0  0.29792455085E+03 -0.15252836388E+03  0.12225004223E+03  0.39267545456E+03  0.16500000000E+03 0.  0.
   -5000001    1    1    2    0    0 -0.29792455085E+03  0.15252836388E+03  0.35539427733E+03  0.51531934968E+03  0.16500000000E+03 0.  0.
<mgrwt>
<rscale>  0 0.77221141E+03</rscale>
<asrwt>0</asrwt>
<pdfrwt beam="1">  1        2 0.98974225E-01 0.77221141E+03</pdfrwt>
<pdfrwt beam="2">  1       -2 0.30739320E-01 0.77221141E+03</pdfrwt>
<totfact> 0.44813193E+02</totfact>
</mgrwt>
</event>
<event>
 4    1  0.5312547E-005  0.4085527E+03  0.7818608E-02  0.1040858E+00
          2   -1    0    0  501    0  0.00000000000E+00  0.00000000000E+00  0.73896235927E+03  0.73896235928E+03  0.25500000000E-02 0.  1.
         -2   -1    0    0    0  501 -0.00000000000E+00 -0.00000000000E+00 -0.56469497669E+02  0.56469497727E+02  0.25500000000E-02 0. -1.
    5000001    1    1    2    0    0  0.33649603968E+02 -0.11027390175E+03  0.40900488834E+03  0.45585373525E+03  0.16500000000E+03 0.  0.
   -5000001    1    1    2    0    0 -0.33649603968E+02  0.11027390175E+03  0.27348797327E+03  0.33957812176E+03  0.16500000000E+03 0.  0.
<mgrwt>
<rscale>  0 0.40855273E+03</rscale>
<asrwt>0</asrwt>
<pdfrwt beam="1">  1        2 0.10556605E+00 0.40855273E+03</pdfrwt>
<pdfrwt beam="2">  1       -2 0.80670714E-02 0.40855273E+03</pdfrwt>
<totfact> 0.40383651E+03</totfact>
</mgrwt>
</event>
<event>
 4    1  0.5312547E-005  0.3724589E+03  0.7818608E-02  0.1053757E+00
         -2   -1    0    0    0  501 -0.00000000000E+00  0.00000000000E+00  0.10782957199E+03  0.10782957202E+03  0.25500000000E-02 0. -1.
          2   -1    0    0  501    0  0.00000000000E+00 -0.00000000000E+00 -0.32163177304E+03  0.32163177305E+03  0.25500000000E-02 0.  1.
    5000001    1    1    2    0    0  0.16212515540E+02 -0.81510564714E+02 -0.79869703882E+02  0.20127341458E+03  0.16500000000E+03 0.  0.
   -5000001    1    1    2    0    0 -0.16212515540E+02  0.81510564714E+02 -0.13393249717E+03  0.22818793048E+03  0.16500000000E+03 0.  0.
<mgrwt>
<rscale>  0 0.37245895E+03</rscale>
<asrwt>0</asrwt>
<pdfrwt beam="1">  1        2 0.45947396E-01 0.37245895E+03</pdfrwt>
<pdfrwt beam="2">  1       -2 0.15404225E-01 0.37245895E+03</pdfrwt>
<totfact> 0.36176967E+03</totfact>
</mgrwt>
</event>
<event>
 4    1  0.5312547E-005  0.7600887E+03  0.7818608E-02  0.9619654E-01
         -2   -1    0    0    0  501 -0.00000000000E+00  0.00000000000E+00  0.21178152321E+03  0.21178152323E+03  0.25500000000E-02 0. -1.
          2   -1    0    0  501    0  0.00000000000E+00 -0.00000000000E+00 -0.68199382049E+03  0.68199382050E+03  0.25500000000E-02 0.  1.
    5000001    1    1    2    0    0 -0.33643833004E+03  0.48603708766E+02 -0.28295201405E+03  0.47205922582E+03  0.16500000000E+03 0.  0.
   -5000001    1    1    2    0    0  0.33643833004E+03 -0.48603708766E+02 -0.18726028323E+03  0.42171611791E+03  0.16500000000E+03 0.  0.
<mgrwt>
<rscale>  0 0.76008865E+03</rscale>
<asrwt>0</asrwt>
<pdfrwt beam="1">  1        2 0.97427687E-01 0.76008865E+03</pdfrwt>
<pdfrwt beam="2">  1       -2 0.30254504E-01 0.76008865E+03</pdfrwt>
<totfact> 0.47077213E+02</totfact>
</mgrwt>
</event>
<event>
 4    1  0.5312547E-005  0.5051667E+03  0.7818608E-02  0.1012439E+00
          2   -1    0    0  501    0  0.00000000000E+00  0.00000000000E+00  0.16272117883E+03  0.16272117885E+03  0.25500000000E-02 0.  1.
         -2   -1    0    0    0  501 -0.00000000000E+00 -0.00000000000E+00 -0.39207162253E+03  0.39207162254E+03  0.25500000000E-02 0. -1.
    5000001    1    1    2    0    0  0.12609837595E+03 -0.53966987298E+02 -0.26103408570E+03  0.33790091748E+03  0.16500000000E+03 0.  0.
   -5000001    1    1    2    0    0 -0.12609837595E+03  0.53966987298E+02  0.31683642002E+02  0.21689188391E+03  0.16500000000E+03 0.  0.
<mgrwt>
<rscale>  0 0.50516673E+03</rscale>
<asrwt>0</asrwt>
<pdfrwt beam="1">  1        2 0.23245883E-01 0.50516673E+03</pdfrwt>
<pdfrwt beam="2">  1       -2 0.56010231E-01 0.50516673E+03</pdfrwt>
<totfact> 0.71739247E+02</totfact>
</mgrwt>
</event>
<event>
 4    1  0.5312547E-005  0.1384242E+04  0.7818608E-02  0.8965305E-01
          2   -1    0    0  501    0  0.00000000000E+00  0.00000000000E+00  0.29839245513E+04  0.29839245513E+04  0.25500000000E-02 0.  1.
         -2   -1    0    0    0  501 -0.00000000000E+00 -0.00000000000E+00 -0.16053731954E+03  0.16053731956E+03  0.25500000000E-02 0. -1.
    5000001    1    1    2    0    0 -0.23892352102E+03  0.62822136670E+03  0.13941396543E+04  0.15564693733E+04  0.16500000000E+03 0.  0.
   -5000001    1    1    2    0    0  0.23892352102E+03 -0.62822136670E+03  0.14292475775E+04  0.15879924976E+04  0.16500000000E+03 0.  0.
<mgrwt>
<rscale>  0 0.13842417E+04</rscale>
<asrwt>0</asrwt>
<pdfrwt beam="1">  1        2 0.42627489E+00 0.13842417E+04</pdfrwt>
<pdfrwt beam="2">  1       -2 0.22933905E-01 0.13842417E+04</pdfrwt>
<totfact> 0.39632058E+01</totfact>
</mgrwt>
</event>
<event>
 4    1  0.5312547E-005  0.4749111E+03  0.7818608E-02  0.1020543E+00
          2   -1    0    0  501    0  0.00000000000E+00  0.00000000000E+00  0.99902528700E+03  0.99902528701E+03  0.25500000000E-02 0.  1.
         -2   -1    0    0    0  501 -0.00000000000E+00 -0.00000000000E+00 -0.56440152593E+02  0.56440152651E+02  0.25500000000E-02 0. -1.
    5000001    1    1    2    0    0 -0.12631225419E+03 -0.87565217074E+02  0.63667748014E+03  0.67542998639E+03  0.16500000000E+03 0.  0.
   -5000001    1    1    2    0    0  0.12631225419E+03  0.87565217074E+02  0.30590765427E+03  0.38003545327E+03  0.16500000000E+03 0.  0.
<mgrwt>
<rscale>  0 0.47491111E+03</rscale>
<asrwt>0</asrwt>
<pdfrwt beam="1">  1        2 0.14271789E+00 0.47491111E+03</pdfrwt>
<pdfrwt beam="2">  1       -2 0.80628796E-02 0.47491111E+03</pdfrwt>
<totfact> 0.27338044E+03</totfact>
</mgrwt>
</event>
<event>
 4    1  0.5312547E-005  0.6530710E+03  0.7818608E-02  0.9801034E-01
          2   -1    0    0  501    0  0.00000000000E+00  0.00000000000E+00  0.10624993648E+04  0.10624993648E+04  0.25500000000E-02 0.  1.
         -2   -1    0    0    0  501 -0.00000000000E+00 -0.00000000000E+00 -0.10035341693E+03  0.10035341696E+03  0.25500000000E-02 0. -1.
    5000001    1    1    2    0    0 -0.23281821270E+02  0.27105794633E+03  0.61174933165E+03  0.68954818413E+03  0.16500000000E+03 0.  0.
   -5000001    1    1    2    0    0  0.23281821270E+02 -0.27105794633E+03  0.35039661621E+03  0.47330459761E+03  0.16500000000E+03 0.  0.
<mgrwt>
<rscale>  0 0.65307103E+03</rscale>
<asrwt>0</asrwt>
<pdfrwt beam="1">  1        2 0.15178563E+00 0.65307103E+03</pdfrwt>
<pdfrwt beam="2">  1       -2 0.14336202E-01 0.65307103E+03</pdfrwt>
<totfact> 0.97813828E+02</totfact>
</mgrwt>
</event>
<event>
 4    1  0.5312547E-005  0.5978378E+03  0.7818608E-02  0.9909902E-01
         -2   -1    0    0    0  501 -0.00000000000E+00  0.00000000000E+00  0.46995233492E+02  0.46995233561E+02  0.25500000000E-02 0. -1.
          2   -1    0    0  501    0  0.00000000000E+00 -0.00000000000E+00 -0.19013101884E+04  0.19013101884E+04  0.25500000000E-02 0.  1.
    5000001    1    1    2    0    0 -0.61292279122E+02  0.24159755826E+03 -0.92331156889E+03  0.97049233737E+03  0.16500000000E+03 0.  0.
   -5000001    1    1    2    0    0  0.61292279122E+02 -0.24159755826E+03 -0.93100338598E+03  0.97781308456E+03  0.16500000000E+03 0.  0.
<mgrwt>
<rscale>  0 0.59783783E+03</rscale>
<asrwt>0</asrwt>
<pdfrwt beam="1">  1        2 0.27161569E+00 0.59783783E+03</pdfrwt>
<pdfrwt beam="2">  1       -2 0.67136060E-02 0.59783783E+03</pdfrwt>
<totfact> 0.12023402E+03</totfact>
</mgrwt>
</event>
<event>
 4    1  0.5312547E-005  0.8540497E+03  0.7818608E-02  0.9484918E-01
         -2   -1    0    0    0  501 -0.00000000000E+00  0.00000000000E+00  0.25913048863E+03  0.25913048864E+03  0.25500000000E-02 0. -1.
          2   -1    0    0  501    0  0.00000000000E+00 -0.00000000000E+00 -0.70370030029E+03  0.70370030029E+03  0.25500000000E-02 0.  1.
    5000001    1    1    2    0    0  0.66225782306E+02 -0.37035038757E+03 -0.90908990203E+02  0.42075492667E+03  0.16500000000E+03 0.  0.
   -5000001    1    1    2    0    0 -0.66225782306E+02  0.37035038757E+03 -0.35366082146E+03  0.54207586226E+03  0.16500000000E+03 0.  0.
<mgrwt>
<rscale>  0 0.85404965E+03</rscale>
<asrwt>0</asrwt>
<pdfrwt beam="1">  1        2 0.10052861E+00 0.85404965E+03</pdfrwt>
<pdfrwt beam="2">  1       -2 0.37018641E-01 0.85404965E+03</pdfrwt>
<totfact> 0.30828513E+02</totfact>
</mgrwt>
</event>
<event>
 4    1  0.5312547E-005  0.4569771E+03  0.7818608E-02  0.1025662E+00
          2   -1    0    0  501    0  0.00000000000E+00  0.00000000000E+00  0.98632932829E+03  0.98632932829E+03  0.25500000000E-02 0.  1.
         -2   -1    0    0    0  501 -0.00000000000E+00 -0.00000000000E+00 -0.52930622772E+02  0.52930622834E+02  0.25500000000E-02 0. -1.
    5000001    1    1    2    0    0  0.11653782231E+03 -0.95130325850E+02  0.57697329748E+03  0.61867117998E+03  0.16500000000E+03 0.  0.
   -5000001    1    1    2    0    0 -0.11653782231E+03  0.95130325850E+02  0.35642540804E+03  0.42058877115E+03  0.16500000000E+03 0.  0.
<mgrwt>
<rscale>  0 0.45697714E+03</rscale>
<asrwt>0</asrwt>
<pdfrwt beam="1">  1        2 0.14090418E+00 0.45697714E+03</pdfrwt>
<pdfrwt beam="2">  1       -2 0.75615182E-02 0.45697714E+03</pdfrwt>
<totfact> 0.30796444E+03</totfact>
</mgrwt>
</event>
<event>
 4    1  0.5312547E-005  0.7142214E+03  0.7818608E-02  0.9693216E-01
          2   -1    0    0  501    0  0.00000000000E+00  0.00000000000E+00  0.65470924617E+03  0.65470924617E+03  0.25500000000E-02 0.  1.
         -2   -1    0    0    0  501 -0.00000000000E+00 -0.00000000000E+00 -0.19478579876E+03  0.19478579878E+03  0.25500000000E-02 0. -1.
    5000001    1    1    2    0    0 -0.21929444116E+03 -0.17839967122E+03  0.60137342366E+02  0.33280323701E+03  0.16500000000E+03 0.  0.
   -5000001    1    1    2    0    0  0.21929444116E+03  0.17839967122E+03  0.39978610504E+03  0.51669180795E+03  0.16500000000E+03 0.  0.
<mgrwt>
<rscale>  0 0.71422143E+03</rscale>
<asrwt>0</asrwt>
<pdfrwt beam="1">  1        2 0.93529892E-01 0.71422143E+03</pdfrwt>
<pdfrwt beam="2">  1       -2 0.27826543E-01 0.71422143E+03</pdfrwt>
<totfact> 0.57806135E+02</totfact>
</mgrwt>
</event>
<event>
 4    1  0.5312547E-005  0.5224383E+03  0.7818608E-02  0.1008083E+00
         -2   -1    0    0    0  501 -0.00000000000E+00  0.00000000000E+00  0.21269830959E+04  0.21269830959E+04  0.25500000000E-02 0. -1.
          2   -1    0    0  501    0  0.00000000000E+00 -0.00000000000E+00 -0.32080863848E+02  0.32080863950E+02  0.25500000000E-02 0.  1.
    5000001    1    1    2    0    0  0.13177336905E+03 -0.15362319806E+03  0.10755251158E+04  0.11067716940E+04  0.16500000000E+03 0.  0.
   -5000001    1    1    2    0    0 -0.13177336905E+03  0.15362319806E+03  0.10193771162E+04  0.10522922659E+04  0.16500000000E+03 0.  0.
<mgrwt>
<rscale>  0 0.52243834E+03</rscale>
<asrwt>0</asrwt>
<pdfrwt beam="1">  1        2 0.45829797E-02 0.52243834E+03</pdfrwt>
<pdfrwt beam="2">  1       -2 0.30385478E+00 0.52243834E+03</pdfrwt>
<totfact> 0.59647994E+01</totfact>
</mgrwt>
</event>
<event>
 4    1  0.5312547E-005  0.5848627E+03  0.7818608E-02  0.9937319E-01
          2   -1    0    0  501    0  0.00000000000E+00  0.00000000000E+00  0.82224594861E+03  0.82224594862E+03  0.25500000000E-02 0.  1.
         -2   -1    0    0    0  501 -0.00000000000E+00 -0.00000000000E+00 -0.10400304219E+03  0.10400304223E+03  0.25500000000E-02 0. -1.
    5000001    1    1    2    0    0 -0.17199416601E+03  0.16818658435E+03  0.32657413935E+03  0.43788627381E+03  0.16500000000E+03 0.  0.
   -5000001    1    1    2    0    0  0.17199416601E+03 -0.16818658435E+03  0.39166876707E+03  0.48836271703E+03  0.16500000000E+03 0.  0.
<mgrwt>
<rscale>  0 0.58486265E+03</rscale>
<asrwt>0</asrwt>
<pdfrwt beam="1">  1        2 0.11746371E+00 0.58486265E+03</pdfrwt>
<pdfrwt beam="2">  1       -2 0.14857577E-01 0.58486265E+03</pdfrwt>
<totfact> 0.13088114E+03</totfact>
</mgrwt>
</event>
<event>
 4    1  0.5312547E-005  0.3932832E+03  0.7818608E-02  0.1046131E+00
          2   -1    0    0  501    0  0.00000000000E+00  0.00000000000E+00  0.42902416757E+03  0.42902416758E+03  0.25500000000E-02 0. -1.
         -2   -1    0    0    0  501 -0.00000000000E+00 -0.00000000000E+00 -0.90129916888E+02  0.90129916924E+02  0.25500000000E-02 0.  1.
    5000001    1    1    2    0    0  0.88817892042E+02  0.29385503851E+02  0.10097235895E+03  0.21487797247E+03  0.16500000000E+03 0.  0.
   -5000001    1    1    2    0    0 -0.88817892042E+02 -0.29385503851E+02  0.23792189173E+03  0.30427611203E+03  0.16500000000E+03 0.  0.
<mgrwt>
<rscale>  0 0.39328317E+03</rscale>
<asrwt>0</asrwt>
<pdfrwt beam="1">  1        2 0.61289168E-01 0.39328317E+03</pdfrwt>
<pdfrwt beam="2">  1       -2 0.12875702E-01 0.39328317E+03</pdfrwt>
<totfact> 0.35571365E+03</totfact>
</mgrwt>
</event>
<event>
 4    1  0.5312547E-005  0.6793499E+03  0.7818608E-02  0.9753213E-01
         -2   -1    0    0    0  501 -0.00000000000E+00  0.00000000000E+00  0.13482055146E+03  0.13482055148E+03  0.25500000000E-02 0. -1.
          2   -1    0    0  501    0  0.00000000000E+00 -0.00000000000E+00 -0.85579728368E+03  0.85579728369E+03  0.25500000000E-02 0.  1.
    5000001    1    1    2    0    0  0.32391418312E+02  0.29396884090E+03 -0.39871335556E+03  0.52312926061E+03  0.16500000000E+03 0.  0.
   -5000001    1    1    2    0    0 -0.32391418312E+02 -0.29396884090E+03 -0.32226337666E+03  0.46748857456E+03  0.16500000000E+03 0.  0.
<mgrwt>
<rscale>  0 0.67934987E+03</rscale>
<asrwt>0</asrwt>
<pdfrwt beam="1">  1        2 0.12225675E+00 0.67934987E+03</pdfrwt>
<pdfrwt beam="2">  1       -2 0.19260079E-01 0.67934987E+03</pdfrwt>
<totfact> 0.79591207E+02</totfact>
</mgrwt>
</event>
<event>
 4    1  0.5312547E-005  0.3716250E+03  0.7818608E-02  0.1054073E+00
          2   -1    0    0  501    0  0.00000000000E+00  0.00000000000E+00  0.66199091483E+03  0.66199091483E+03  0.25500000000E-02 0.  1.
         -2   -1    0    0    0  501 -0.00000000000E+00 -0.00000000000E+00 -0.52155227785E+02  0.52155227848E+02  0.25500000000E-02 0. -1.
    5000001    1    1    2    0    0  0.73399880908E+02 -0.18717176785E+02  0.38090126534E+03  0.42195811304E+03  0.16500000000E+03 0.  0.
   -5000001    1    1    2    0    0 -0.73399880908E+02  0.18717176785E+02  0.22893442171E+03  0.29218802964E+03  0.16500000000E+03 0.  0.
<mgrwt>
<rscale>  0 0.37162501E+03</rscale>
<asrwt>0</asrwt>
<pdfrwt beam="1">  1        2 0.94570129E-01 0.37162501E+03</pdfrwt>
<pdfrwt beam="2">  1       -2 0.74507469E-02 0.37162501E+03</pdfrwt>
<totfact> 0.52152653E+03</totfact>
</mgrwt>
</event>
<event>
 4    1  0.5312547E-005  0.4437301E+03  0.7818608E-02  0.1029608E+00
         -2   -1    0    0    0  501 -0.00000000000E+00  0.00000000000E+00  0.20422763147E+02  0.20422763306E+02  0.25500000000E-02 0. -1.
          2   -1    0    0  501    0  0.00000000000E+00 -0.00000000000E+00 -0.24102565074E+04  0.24102565074E+04  0.25500000000E-02 0.  1.
    5000001    1    1    2    0    0  0.88121205716E+02 -0.11386356970E+03 -0.13900414444E+04  0.14071853029E+04  0.16500000000E+03 0.  0.
   -5000001    1    1    2    0    0 -0.88121205716E+02  0.11386356970E+03 -0.99979229987E+03  0.10234939679E+04  0.16500000000E+03 0.  0.
<mgrwt>
<rscale>  0 0.44373009E+03</rscale>
<asrwt>0</asrwt>
<pdfrwt beam="1">  1        2 0.34432218E+00 0.44373009E+03</pdfrwt>
<pdfrwt beam="2">  1       -2 0.29175391E-02 0.44373009E+03</pdfrwt>
<totfact> 0.24279309E+03</totfact>
</mgrwt>
</event>
<event>
 4    1  0.5312547E-005  0.6514045E+03  0.7818608E-02  0.9804147E-01
         -2   -1    0    0    0  501 -0.00000000000E+00  0.00000000000E+00  0.19366640961E+04  0.19366640961E+04  0.25500000000E-02 0. -1.
          2   -1    0    0  501    0  0.00000000000E+00 -0.00000000000E+00 -0.54775604145E+02  0.54775604205E+02  0.25500000000E-02 0.  1.
    5000001    1    1    2    0    0 -0.18773280108E+03 -0.90727646768E+02  0.36589292493E+03  0.45230271169E+03  0.16500000000E+03 0.  0.
   -5000001    1    1    2    0    0  0.18773280108E+03  0.90727646768E+02  0.15159955670E+04  0.15391369886E+04  0.16500000000E+03 0.  0.
<mgrwt>
<rscale>  0 0.65140447E+03</rscale>
<asrwt>0</asrwt>
<pdfrwt beam="1">  1        2 0.78250855E-02 0.65140447E+03</pdfrwt>
<pdfrwt beam="2">  1       -2 0.27666633E+00 0.65140447E+03</pdfrwt>
<totfact> 0.42014084E+01</totfact>
</mgrwt>
</event>
<event>
 4    1  0.5312547E-005  0.6711314E+03  0.7818608E-02  0.9767916E-01
          2   -1    0    0  501    0  0.00000000000E+00  0.00000000000E+00  0.72634248626E+02  0.72634248671E+02  0.25500000000E-02 0.  1.
         -2   -1    0    0    0  501 -0.00000000000E+00 -0.00000000000E+00 -0.15502925788E+04  0.15502925788E+04  0.25500000000E-02 0. -1.
    5000001    1    1    2    0    0  0.14812952006E+03  0.25166433011E+03 -0.71440097677E+03  0.78922179733E+03  0.16500000000E+03 0.  0.
   -5000001    1    1    2    0    0 -0.14812952006E+03 -0.25166433011E+03 -0.76325735337E+03  0.83370503011E+03  0.16500000000E+03 0.  0.
<mgrwt>
<rscale>  0 0.67113139E+03</rscale>
<asrwt>0</asrwt>
<pdfrwt beam="1">  1        2 0.10376322E-01 0.67113139E+03</pdfrwt>
<pdfrwt beam="2">  1       -2 0.22147035E+00 0.67113139E+03</pdfrwt>
<totfact> 0.62999735E+01</totfact>
</mgrwt>
</event>
<event>
 4    1  0.5312547E-005  0.4997272E+03  0.7818608E-02  0.1013850E+00
         -2   -1    0    0    0  501 -0.00000000000E+00  0.00000000000E+00  0.45188172320E+02  0.45188172392E+02  0.25500000000E-02 0. -1.
          2   -1    0    0  501    0  0.00000000000E+00 -0.00000000000E+00 -0.13815964567E+04  0.13815964567E+04  0.25500000000E-02 0.  1.
    5000001    1    1    2    0    0  0.98296247341E+02  0.11718784931E+03 -0.97850370859E+03  0.10040366786E+04  0.16500000000E+03 0.  0.
   -5000001    1    1    2    0    0 -0.98296247341E+02 -0.11718784931E+03 -0.35790457579E+03  0.42274795048E+03  0.16500000000E+03 0.  0.
<mgrwt>
<rscale>  0 0.49972720E+03</rscale>
<asrwt>0</asrwt>
<pdfrwt beam="1">  1        2 0.19737089E+00 0.49972720E+03</pdfrwt>
<pdfrwt beam="2">  1       -2 0.64554541E-02 0.49972720E+03</pdfrwt>
<totfact> 0.23675874E+03</totfact>
</mgrwt>
</event>
<event>
 4    1  0.5312547E-005  0.6084171E+03  0.7818608E-02  0.9888096E-01
          2   -1    0    0  501    0  0.00000000000E+00  0.00000000000E+00  0.43307849388E+03  0.43307849389E+03  0.25500000000E-02 0.  1.
         -2   -1    0    0    0  501 -0.00000000000E+00 -0.00000000000E+00 -0.21368606041E+03  0.21368606042E+03  0.25500000000E-02 0. -1.
    5000001    1    1    2    0    0  0.15803662498E+03 -0.16357350421E+03  0.23360159361E+03  0.36541287697E+03  0.16500000000E+03 0.  0.
   -5000001    1    1    2    0    0 -0.15803662498E+03  0.16357350421E+03 -0.14209160137E+02  0.28135167735E+03  0.16500000000E+03 0.  0.
<mgrwt>
<rscale>  0 0.60841708E+03</rscale>
<asrwt>0</asrwt>
<pdfrwt beam="1">  1        2 0.61868357E-01 0.60841708E+03</pdfrwt>
<pdfrwt beam="2">  1       -2 0.30526580E-01 0.60841708E+03</pdfrwt>
<totfact> 0.78778376E+02</totfact>
</mgrwt>
</event>
<event>
 4    1  0.5312547E-005  0.3946854E+03  0.7818608E-02  0.1045636E+00
         -2   -1    0    0    0  501 -0.00000000000E+00  0.00000000000E+00  0.15219631938E+02  0.15219632152E+02  0.25500000000E-02 0. -1.
          2   -1    0    0  501    0  0.00000000000E+00 -0.00000000000E+00 -0.25588090410E+04  0.25588090410E+04  0.25500000000E-02 0.  1.
    5000001    1    1    2    0    0  0.51365457707E+02 -0.95123671376E+02 -0.12347819968E+04  0.12504393239E+04  0.16500000000E+03 0.  0.
   -5000001    1    1    2    0    0 -0.51365457707E+02  0.95123671376E+02 -0.13088074123E+04  0.13235893493E+04  0.16500000000E+03 0.  0.
<mgrwt>
<rscale>  0 0.39468535E+03</rscale>
<asrwt>0</asrwt>
<pdfrwt beam="1">  1        2 0.36554387E+00 0.39468535E+03</pdfrwt>
<pdfrwt beam="2">  1       -2 0.21742348E-02 0.39468535E+03</pdfrwt>
<totfact> 0.31806626E+03</totfact>
</mgrwt>
</event>
<event>
 4    1  0.5312547E-005  0.3867436E+03  0.7818608E-02  0.1048469E+00
          2   -1    0    0  501    0  0.00000000000E+00  0.00000000000E+00  0.19865248125E+04  0.19865248125E+04  0.25500000000E-02 0.  1.
         -2   -1    0    0    0  501 -0.00000000000E+00 -0.00000000000E+00 -0.18823147579E+02  0.18823147752E+02  0.25500000000E-02 0. -1.
    5000001    1    1    2    0    0  0.60754582547E+02 -0.79906031765E+02  0.10334656768E+04  0.10513574075E+04  0.16500000000E+03 0.  0.
   -5000001    1    1    2    0    0 -0.60754582547E+02  0.79906031765E+02  0.93423598814E+03  0.95399055276E+03  0.16500000000E+03 0.  0.
<mgrwt>
<rscale>  0 0.38674358E+03</rscale>
<asrwt>0</asrwt>
<pdfrwt beam="1">  1        2 0.28378908E+00 0.38674358E+03</pdfrwt>
<pdfrwt beam="2">  1       -2 0.26890228E-02 0.38674358E+03</pdfrwt>
<totfact> 0.44694134E+03</totfact>
</mgrwt>
</event>
<event>
 4    1  0.5312547E-005  0.1245427E+04  0.7818608E-02  0.9073998E-01
         -2   -1    0    0    0  501 -0.00000000000E+00  0.00000000000E+00  0.14697256437E+04  0.14697256437E+04  0.25500000000E-02 0. -1.
          2   -1    0    0  501    0  0.00000000000E+00 -0.00000000000E+00 -0.26383979353E+03  0.26383979354E+03  0.25500000000E-02 0.  1.
    5000001    1    1    2    0    0 -0.45772314990E+02 -0.55726884246E+03  0.29829002097E+03  0.65486304233E+03  0.16500000000E+03 0.  0.
   -5000001    1    1    2    0    0  0.45772314990E+02  0.55726884246E+03  0.90759582916E+03  0.10787023949E+04  0.16500000000E+03 0.  0.
<mgrwt>
<rscale>  0 0.12454270E+04</rscale>
<asrwt>0</asrwt>
<pdfrwt beam="1">  1        2 0.37691398E-01 0.12454270E+04</pdfrwt>
<pdfrwt beam="2">  1       -2 0.20996081E+00 0.12454270E+04</pdfrwt>
<totfact> 0.15534386E+01</totfact>
</mgrwt>
</event>
<event>
 4    1  0.5312547E-005  0.4333052E+03  0.7818608E-02  0.1032821E+00
          2   -1    0    0  501    0  0.00000000000E+00  0.00000000000E+00  0.26201467280E+03  0.26201467281E+03  0.25500000000E-02 0.  1.
         -2   -1    0    0    0  501 -0.00000000000E+00 -0.00000000000E+00 -0.17914395005E+03  0.17914395007E+03  0.25500000000E-02 0. -1.
    5000001    1    1    2    0    0  0.26484152911E+02  0.13358523134E+03  0.76214695832E+02  0.22711253653E+03  0.16500000000E+03 0.  0.
   -5000001    1    1    2    0    0 -0.26484152911E+02 -0.13358523134E+03  0.66560269178E+01  0.21404608635E+03  0.16500000000E+03 0.  0.
<mgrwt>
<rscale>  0 0.43330517E+03</rscale>
<asrwt>0</asrwt>
<pdfrwt beam="1">  1        2 0.37430667E-01 0.43330517E+03</pdfrwt>
<pdfrwt beam="2">  1       -2 0.25591993E-01 0.43330517E+03</pdfrwt>
<totfact> 0.18887758E+03</totfact>
</mgrwt>
</event>
<event>
 4    1  0.5312547E-005  0.4540080E+03  0.7818608E-02  0.1026534E+00
         -2   -1    0    0    0  501 -0.00000000000E+00  0.00000000000E+00  0.17566663793E+03  0.17566663795E+03  0.25500000000E-02 0. -1.
          2   -1    0    0  501    0  0.00000000000E+00 -0.00000000000E+00 -0.29334431847E+03  0.29334431848E+03  0.25500000000E-02 0.  1.
    5000001    1    1    2    0    0  0.11408149909E+03 -0.99310825795E+02 -0.97884434656E+02  0.24430225358E+03  0.16500000000E+03 0.  0.
   -5000001    1    1    2    0    0 -0.11408149909E+03  0.99310825795E+02 -0.19793245882E+02  0.22470870285E+03  0.16500000000E+03 0.  0.
<mgrwt>
<rscale>  0 0.45400797E+03</rscale>
<asrwt>0</asrwt>
<pdfrwt beam="1">  1        2 0.41906331E-01 0.45400797E+03</pdfrwt>
<pdfrwt beam="2">  1       -2 0.25095234E-01 0.45400797E+03</pdfrwt>
<totfact> 0.17290546E+03</totfact>
</mgrwt>
</event>
<event>
 4    1  0.5312547E-005  0.5331002E+03  0.7818608E-02  0.1005483E+00
         -2   -1    0    0    0  501 -0.00000000000E+00  0.00000000000E+00  0.19347660936E+02  0.19347661104E+02  0.25500000000E-02 0. -1.
          2   -1    0    0  501    0  0.00000000000E+00 -0.00000000000E+00 -0.36722247332E+04  0.36722247333E+04  0.25500000000E-02 0.  1.
    5000001    1    1    2    0    0  0.19223248874E+03  0.82347259530E+02 -0.17609061740E+04  0.17809407499E+04  0.16500000000E+03 0.  0.
   -5000001    1    1    2    0    0 -0.19223248874E+03 -0.82347259530E+02 -0.18919708983E+04  0.19106316445E+04  0.16500000000E+03 0.  0.
<mgrwt>
<rscale>  0 0.53310021E+03</rscale>
<asrwt>0</asrwt>
<pdfrwt beam="1">  1        2 0.52460309E+00 0.53310021E+03</pdfrwt>
<pdfrwt beam="2">  1       -2 0.27639539E-02 0.53310021E+03</pdfrwt>
<totfact> 0.53012631E+02</totfact>
</mgrwt>
</event>
<event>
 4    1  0.5312547E-005  0.7895665E+03  0.7818608E-02  0.9575243E-01
          2   -1    0    0  501    0  0.00000000000E+00  0.00000000000E+00  0.17154375002E+04  0.17154375002E+04  0.25500000000E-02 0.  1.
         -2   -1    0    0    0  501 -0.00000000000E+00 -0.00000000000E+00 -0.90853678245E+02  0.90853678281E+02  0.25500000000E-02 0. -1.
    5000001    1    1    2    0    0  0.11453638379E+03  0.16511917859E+03  0.14918808132E+04  0.15143699308E+04  0.16500000000E+03 0.  0.
   -5000001    1    1    2    0    0 -0.11453638379E+03 -0.16511917859E+03  0.13270300876E+03  0.29192124774E+03  0.16500000000E+03 0.  0.
<mgrwt>
<rscale>  0 0.78956648E+03</rscale>
<asrwt>0</asrwt>
<pdfrwt beam="1">  1        2 0.24506248E+00 0.78956648E+03</pdfrwt>
<pdfrwt beam="2">  1       -2 0.12979098E-01 0.78956648E+03</pdfrwt>
<totfact> 0.50886276E+02</totfact>
</mgrwt>
</event>
<event>
 4    1  0.5312547E-005  0.6722446E+03  0.7818608E-02  0.9765911E-01
          2   -1    0    0  501    0  0.00000000000E+00  0.00000000000E+00  0.85389396886E+02  0.85389396924E+02  0.25500000000E-02 0.  1.
         -2   -1    0    0    0  501 -0.00000000000E+00 -0.00000000000E+00 -0.13230939151E+04  0.13230939151E+04  0.25500000000E-02 0. -1.
    5000001    1    1    2    0    0 -0.29291343225E+02  0.28944351452E+03 -0.68889761845E+03  0.76579400598E+03  0.16500000000E+03 0.  0.
   -5000001    1    1    2    0    0  0.29291343225E+02 -0.28944351452E+03 -0.54880689980E+03  0.64268930608E+03  0.16500000000E+03 0.  0.
<mgrwt>
<rscale>  0 0.67224457E+03</rscale>
<asrwt>0</asrwt>
<pdfrwt beam="1">  1        2 0.12198486E-01 0.67224457E+03</pdfrwt>
<pdfrwt beam="2">  1       -2 0.18901340E+00 0.67224457E+03</pdfrwt>
<totfact> 0.83051599E+01</totfact>
</mgrwt>
</event>
<event>
 4    1  0.5312547E-005  0.8810614E+03  0.7818608E-02  0.9449570E-01
          2   -1    0    0  501    0  0.00000000000E+00  0.00000000000E+00  0.47958793697E+03  0.47958793698E+03  0.25500000000E-02 0.  1.
         -2   -1    0    0    0  501 -0.00000000000E+00 -0.00000000000E+00 -0.40465423251E+03  0.40465423251E+03  0.25500000000E-02 0. -1.
    5000001    1    1    2    0    0 -0.21109809379E+03  0.22928389054E+03 -0.22751052779E+03  0.41966599566E+03  0.16500000000E+03 0.  0.
   -5000001    1    1    2    0    0  0.21109809379E+03 -0.22928389054E+03  0.30244423226E+03  0.46457617383E+03  0.16500000000E+03 0.  0.
<mgrwt>
<rscale>  0 0.88106138E+03</rscale>
<asrwt>0</asrwt>
<pdfrwt beam="1">  1        2 0.68512562E-01 0.88106138E+03</pdfrwt>
<pdfrwt beam="2">  1       -2 0.57807748E-01 0.88106138E+03</pdfrwt>
<totfact> 0.19813306E+02</totfact>
</mgrwt>
</event>
<event>
 4    1  0.5312547E-005  0.3852026E+03  0.7818608E-02  0.1049027E+00
         -2   -1    0    0    0  501 -0.00000000000E+00  0.00000000000E+00  0.21228902500E+02  0.21228902653E+02  0.25500000000E-02 0. -1.
          2   -1    0    0  501    0  0.00000000000E+00 -0.00000000000E+00 -0.17473945944E+04  0.17473945944E+04  0.25500000000E-02 0.  1.
    5000001    1    1    2    0    0 -0.33434259240E+02 -0.69272456787E+02 -0.11517853477E+04  0.11660836206E+04  0.16500000000E+03 0.  0.
   -5000001    1    1    2    0    0  0.33434259240E+02  0.69272456787E+02 -0.57438034414E+03  0.60253987644E+03  0.16500000000E+03 0.  0.
<mgrwt>
<rscale>  0 0.38520265E+03</rscale>
<asrwt>0</asrwt>
<pdfrwt beam="1">  1        2 0.24962771E+00 0.38520265E+03</pdfrwt>
<pdfrwt beam="2">  1       -2 0.30327015E-02 0.38520265E+03</pdfrwt>
<totfact> 0.49017637E+03</totfact>
</mgrwt>
</event>
<event>
 4    1  0.5312547E-005  0.5329488E+03  0.7818608E-02  0.1005519E+00
          2   -1    0    0  501    0  0.00000000000E+00  0.00000000000E+00  0.20936184130E+04  0.20936184130E+04  0.25500000000E-02 0.  1.
         -2   -1    0    0    0  501 -0.00000000000E+00 -0.00000000000E+00 -0.33916687877E+02  0.33916687973E+02  0.25500000000E-02 0. -1.
    5000001    1    1    2    0    0 -0.39039803120E+02  0.20360815684E+03  0.11429884857E+04  0.11732979443E+04  0.16500000000E+03 0.  0.
   -5000001    1    1    2    0    0  0.39039803120E+02 -0.20360815684E+03  0.91671323946E+03  0.95423715667E+03  0.16500000000E+03 0.  0.
<mgrwt>
<rscale>  0 0.53294879E+03</rscale>
<asrwt>0</asrwt>
<pdfrwt beam="1">  1        2 0.29908836E+00 0.53294879E+03</pdfrwt>
<pdfrwt beam="2">  1       -2 0.48452408E-02 0.53294879E+03</pdfrwt>
<totfact> 0.16069795E+03</totfact>
</mgrwt>
</event>
<event>
 4    1  0.5312547E-005  0.3743778E+03  0.7818608E-02  0.1053032E+00
          2   -1    0    0  501    0  0.00000000000E+00  0.00000000000E+00  0.15543393185E+04  0.15543393185E+04  0.25500000000E-02 0.  1.
         -2   -1    0    0    0  501 -0.00000000000E+00 -0.00000000000E+00 -0.22543136171E+02  0.22543136315E+02  0.25500000000E-02 0. -1.
    5000001    1    1    2    0    0  0.46152708626E+02 -0.75296299071E+02  0.74954276889E+03  0.77255353702E+03  0.16500000000E+03 0.  0.
   -5000001    1    1    2    0    0 -0.46152708626E+02  0.75296299071E+02  0.78225341345E+03  0.80432891780E+03  0.16500000000E+03 0.  0.
<mgrwt>
<rscale>  0 0.37437779E+03</rscale>
<asrwt>0</asrwt>
<pdfrwt beam="1">  1        2 0.22204853E+00 0.37437779E+03</pdfrwt>
<pdfrwt beam="2">  1       -2 0.32204472E-02 0.37437779E+03</pdfrwt>
<totfact> 0.55979556E+03</totfact>
</mgrwt>
</event>
<event>
 4    1  0.5312547E-005  0.5421712E+03  0.7818608E-02  0.1003322E+00
         -2   -1    0    0    0  501 -0.00000000000E+00  0.00000000000E+00  0.10934895660E+03  0.10934895663E+03  0.25500000000E-02 0. -1.
          2   -1    0    0  501    0  0.00000000000E+00 -0.00000000000E+00 -0.67204476068E+03  0.67204476068E+03  0.25500000000E-02 0.  1.
    5000001    1    1    2    0    0  0.10405320972E+03  0.17140555991E+03 -0.16919591860E+03  0.30993417897E+03  0.16500000000E+03 0.  0.
   -5000001    1    1    2    0    0 -0.10405320972E+03 -0.17140555991E+03 -0.39349988548E+03  0.47145953834E+03  0.16500000000E+03 0.  0.
<mgrwt>
<rscale>  0 0.54217117E+03</rscale>
<asrwt>0</asrwt>
<pdfrwt beam="1">  1        2 0.96006392E-01 0.54217117E+03</pdfrwt>
<pdfrwt beam="2">  1       -2 0.15621280E-01 0.54217117E+03</pdfrwt>
<totfact> 0.15467980E+03</totfact>
</mgrwt>
</event>
<event>
 4    1  0.5312547E-005  0.3862249E+03  0.7818608E-02  0.1048657E+00
          2   -1    0    0  501    0  0.00000000000E+00  0.00000000000E+00  0.11459163720E+04  0.11459163720E+04  0.25500000000E-02 0.  1.
         -2   -1    0    0    0  501 -0.00000000000E+00 -0.00000000000E+00 -0.32543750815E+02  0.32543750915E+02  0.25500000000E-02 0. -1.
    5000001    1    1    2    0    0  0.25445788957E+02  0.96878481091E+02  0.53876735291E+03  0.57230078528E+03  0.16500000000E+03 0.  0.
   -5000001    1    1    2    0    0 -0.25445788957E+02 -0.96878481091E+02  0.57460526831E+03  0.60615933766E+03  0.16500000000E+03 0.  0.
<mgrwt>
<rscale>  0 0.38622489E+03</rscale>
<asrwt>0</asrwt>
<pdfrwt beam="1">  1        2 0.16370237E+00 0.38622489E+03</pdfrwt>
<pdfrwt beam="2">  1       -2 0.46491065E-02 0.38622489E+03</pdfrwt>
<totfact> 0.52806809E+03</totfact>
</mgrwt>
</event>
<event>
 4    1  0.5312547E-005  0.5114711E+03  0.7818608E-02  0.1010827E+00
          2   -1    0    0  501    0  0.00000000000E+00  0.00000000000E+00  0.12602493137E+03  0.12602493140E+03  0.25500000000E-02 0.  1.
         -2   -1    0    0    0  501 -0.00000000000E+00 -0.00000000000E+00 -0.51895019090E+03  0.51895019091E+03  0.25500000000E-02 0. -1.
    5000001    1    1    2    0    0 -0.54139649244E+02  0.18713093676E+03 -0.17748132515E+03  0.31092396159E+03  0.16500000000E+03 0.  0.
   -5000001    1    1    2    0    0  0.54139649244E+02 -0.18713093676E+03 -0.21544393438E+03  0.33405116072E+03  0.16500000000E+03 0.  0.
<mgrwt>
<rscale>  0 0.51147106E+03</rscale>
<asrwt>0</asrwt>
<pdfrwt beam="1">  1        2 0.18003562E-01 0.51147106E+03</pdfrwt>
<pdfrwt beam="2">  1       -2 0.74135740E-01 0.51147106E+03</pdfrwt>
<totfact> 0.53164179E+02</totfact>
</mgrwt>
</event>
<event>
 4    1  0.5312547E-005  0.4095641E+03  0.7818608E-02  0.1040517E+00
          2   -1    0    0  501    0  0.00000000000E+00  0.00000000000E+00  0.20811220346E+03  0.20811220348E+03  0.25500000000E-02 0.  1.
         -2   -1    0    0    0  501 -0.00000000000E+00 -0.00000000000E+00 -0.20150522770E+03  0.20150522772E+03  0.25500000000E-02 0. -1.
    5000001    1    1    2    0    0 -0.11818309361E+03  0.63912330236E+00  0.30565883675E+02  0.20524844783E+03  0.16500000000E+03 0.  0.
   -5000001    1    1    2    0    0  0.11818309361E+03 -0.63912330236E+00 -0.23958907915E+02  0.20436898337E+03  0.16500000000E+03 0.  0.
<mgrwt>
<rscale>  0 0.40956414E+03</rscale>
<asrwt>0</asrwt>
<pdfrwt beam="1">  1        2 0.29730315E-01 0.40956414E+03</pdfrwt>
<pdfrwt beam="2">  1       -2 0.28786461E-01 0.40956414E+03</pdfrwt>
<totfact> 0.19689244E+03</totfact>
</mgrwt>
</event>
<event>
 4    1  0.5312547E-005  0.4773767E+03  0.7818608E-02  0.1019859E+00
         -2   -1    0    0    0  501 -0.00000000000E+00  0.00000000000E+00  0.85593625379E+02  0.85593625417E+02  0.25500000000E-02 0. -1.
          2   -1    0    0  501    0  0.00000000000E+00 -0.00000000000E+00 -0.66561192730E+03  0.66561192731E+03  0.25500000000E-02 0.  1.
    5000001    1    1    2    0    0  0.16402663668E+03  0.27899098773E+02 -0.36150102232E+03  0.43080283935E+03  0.16500000000E+03 0.  0.
   -5000001    1    1    2    0    0 -0.16402663668E+03 -0.27899098773E+02 -0.21851727961E+03  0.32040271338E+03  0.16500000000E+03 0.  0.
<mgrwt>
<rscale>  0 0.47737674E+03</rscale>
<asrwt>0</asrwt>
<pdfrwt beam="1">  1        2 0.95087415E-01 0.47737674E+03</pdfrwt>
<pdfrwt beam="2">  1       -2 0.12227661E-01 0.47737674E+03</pdfrwt>
<totfact> 0.23511453E+03</totfact>
</mgrwt>
</event>
<event>
 4    1  0.5312547E-005  0.8464860E+03  0.7818608E-02  0.9495065E-01
          2   -1    0    0  501    0  0.00000000000E+00  0.00000000000E+00  0.22858840395E+04  0.22858840395E+04  0.25500000000E-02 0.  1.
         -2   -1    0    0    0  501 -0.00000000000E+00 -0.00000000000E+00 -0.78365592288E+02  0.78365592330E+02  0.25500000000E-02 0. -1.
    5000001    1    1    2    0    0 -0.21465248481E+03 -0.31386399367E+03  0.13427761991E+04  0.14052968429E+04  0.16500000000E+03 0.  0.
   -5000001    1    1    2    0    0  0.21465248481E+03  0.31386399367E+03  0.86474224807E+03  0.95895278891E+03  0.16500000000E+03 0.  0.
<mgrwt>
<rscale>  0 0.84648605E+03</rscale>
<asrwt>0</asrwt>
<pdfrwt beam="1">  1        2 0.32655491E+00 0.84648605E+03</pdfrwt>
<pdfrwt beam="2">  1       -2 0.11195083E-01 0.84648605E+03</pdfrwt>
<totfact> 0.33197714E+02</totfact>
</mgrwt>
</event>
<event>
 4    1  0.5312547E-005  0.3868289E+03  0.7818608E-02  0.1048438E+00
         -2   -1    0    0    0  501 -0.00000000000E+00  0.00000000000E+00  0.28783160968E+02  0.28783161081E+02  0.25500000000E-02 0. -1.
          2   -1    0    0  501    0  0.00000000000E+00 -0.00000000000E+00 -0.12996883825E+04  0.12996883825E+04  0.25500000000E-02 0.  1.
    5000001    1    1    2    0    0  0.92391168407E+02 -0.38656885398E+02 -0.59288200092E+03  0.62350986343E+03  0.16500000000E+03 0.  0.
   -5000001    1    1    2    0    0 -0.92391168407E+02  0.38656885398E+02 -0.67802322066E+03  0.70496168019E+03  0.16500000000E+03 0.  0.
<mgrwt>
<rscale>  0 0.38682885E+03</rscale>
<asrwt>0</asrwt>
<pdfrwt beam="1">  1        2 0.18566973E+00 0.38682885E+03</pdfrwt>
<pdfrwt beam="2">  1       -2 0.41118810E-02 0.38682885E+03</pdfrwt>
<totfact> 0.52467454E+03</totfact>
</mgrwt>
</event>
<event>
 4    1  0.5312547E-005  0.9112573E+03  0.7818608E-02  0.9411618E-01
         -2   -1    0    0    0  501 -0.00000000000E+00  0.00000000000E+00  0.77719676117E+03  0.77719676118E+03  0.25500000000E-02 0. -1.
          2   -1    0    0  501    0  0.00000000000E+00 -0.00000000000E+00 -0.26711055433E+03  0.26711055435E+03  0.25500000000E-02 0.  1.
    5000001    1    1    2    0    0 -0.42169610830E+03  0.44498469575E+02  0.22780918641E+03  0.50885139968E+03  0.16500000000E+03 0.  0.
   -5000001    1    1    2    0    0  0.42169610830E+03 -0.44498469575E+02  0.28227702043E+03  0.53545591584E+03  0.16500000000E+03 0.  0.
<mgrwt>
<rscale>  0 0.91125728E+03</rscale>
<asrwt>0</asrwt>
<pdfrwt beam="1">  1        2 0.38158650E-01 0.91125728E+03</pdfrwt>
<pdfrwt beam="2">  1       -2 0.11102811E+00 0.91125728E+03</pdfrwt>
<totfact> 0.87460397E+01</totfact>
</mgrwt>
</event>
<event>
 4    1  0.5312547E-005  0.4791365E+03  0.7818608E-02  0.1019373E+00
          2   -1    0    0  501    0  0.00000000000E+00  0.00000000000E+00  0.11128674895E+04  0.11128674895E+04  0.25500000000E-02 0.  1.
         -2   -1    0    0    0  501 -0.00000000000E+00 -0.00000000000E+00 -0.51572120408E+02  0.51572120471E+02  0.25500000000E-02 0. -1.
    5000001    1    1    2    0    0 -0.12818236719E+03 -0.75231815810E+02  0.74906813646E+03  0.78129291462E+03  0.16500000000E+03 0.  0.
   -5000001    1    1    2    0    0  0.12818236719E+03  0.75231815810E+02  0.31222723265E+03  0.38314669538E+03  0.16500000000E+03 0.  0.
<mgrwt>
<rscale>  0 0.47913646E+03</rscale>
<asrwt>0</asrwt>
<pdfrwt beam="1">  1        2 0.15898106E+00 0.47913646E+03</pdfrwt>
<pdfrwt beam="2">  1       -2 0.73674461E-02 0.47913646E+03</pdfrwt>
<totfact> 0.27024062E+03</totfact>
</mgrwt>
</event>
<event>
 4    1  0.5312547E-005  0.6813012E+03  0.7818608E-02  0.9749755E-01
         -2   -1    0    0    0  501 -0.00000000000E+00  0.00000000000E+00  0.17022060557E+03  0.17022060559E+03  0.25500000000E-02 0.  1.
          2   -1    0    0  501    0  0.00000000000E+00 -0.00000000000E+00 -0.68172025251E+03  0.68172025252E+03  0.25500000000E-02 0. -1.
    5000001    1    1    2    0    0 -0.22789180579E+03 -0.17552489760E+03 -0.15829266663E+03  0.36745779776E+03  0.16500000000E+03 0.  0.
   -5000001    1    1    2    0    0  0.22789180579E+03  0.17552489760E+03 -0.35320698032E+03  0.48448306035E+03  0.16500000000E+03 0.  0.
<mgrwt>
<rscale>  0 0.68130121E+03</rscale>
<asrwt>0</asrwt>
<pdfrwt beam="1">  1        2 0.97388606E-01 0.68130121E+03</pdfrwt>
<pdfrwt beam="2">  1       -2 0.24317230E-01 0.68130121E+03</pdfrwt>
<totfact> 0.70318840E+02</totfact>
</mgrwt>
</event>
<event>
 4    1  0.5312547E-005  0.3845979E+03  0.7818608E-02  0.1049247E+00
          2   -1    0    0  501    0  0.00000000000E+00  0.00000000000E+00  0.16475264443E+04  0.16475264443E+04  0.25500000000E-02 0.  1.
         -2   -1    0    0    0  501 -0.00000000000E+00 -0.00000000000E+00 -0.22445098632E+02  0.22445098777E+02  0.25500000000E-02 0. -1.
    5000001    1    1    2    0    0 -0.52214075536E+02 -0.83014762565E+02  0.86320288008E+03  0.88428613733E+03  0.16500000000E+03 0.  0.
   -5000001    1    1    2    0    0  0.52214075536E+02  0.83014762565E+02  0.76187846559E+03  0.78568540575E+03  0.16500000000E+03 0.  0.
<mgrwt>
<rscale>  0 0.38459794E+03</rscale>
<asrwt>0</asrwt>
<pdfrwt beam="1">  1        2 0.23536093E+00 0.38459794E+03</pdfrwt>
<pdfrwt beam="2">  1       -2 0.32064426E-02 0.38459794E+03</pdfrwt>
<totfact> 0.50569868E+03</totfact>
</mgrwt>
</event>
<event>
 4    1  0.5312547E-005  0.6794452E+03  0.7818608E-02  0.9753044E-01
          2   -1    0    0  501    0  0.00000000000E+00  0.00000000000E+00  0.15984307522E+04  0.15984307522E+04  0.25500000000E-02 0.  1.
         -2   -1    0    0    0  501 -0.00000000000E+00 -0.00000000000E+00 -0.72202966757E+02  0.72202966802E+02  0.25500000000E-02 0. -1.
    5000001    1    1    2    0    0 -0.21643393996E+03 -0.11132197785E+03  0.11814763132E+04  0.12175169452E+04  0.16500000000E+03 0.  0.
   -5000001    1    1    2    0    0  0.21643393996E+03  0.11132197785E+03  0.34475147224E+03  0.45311677383E+03  0.16500000000E+03 0.  0.
<mgrwt>
<rscale>  0 0.67944519E+03</rscale>
<asrwt>0</asrwt>
<pdfrwt beam="1">  1        2 0.22834722E+00 0.67944519E+03</pdfrwt>
<pdfrwt beam="2">  1       -2 0.10314711E-01 0.67944519E+03</pdfrwt>
<totfact> 0.85834396E+02</totfact>
</mgrwt>
</event>
<event>
 4    1  0.5312547E-005  0.5479255E+03  0.7818608E-02  0.1001975E+00
          2   -1    0    0  501    0  0.00000000000E+00  0.00000000000E+00  0.17744473440E+03  0.17744473442E+03  0.25500000000E-02 0.  1.
         -2   -1    0    0    0  501 -0.00000000000E+00 -0.00000000000E+00 -0.42298001741E+03  0.42298001742E+03  0.25500000000E-02 0. -1.
    5000001    1    1    2    0    0  0.10566023487E+03  0.10487107142E+03 -0.29833257494E+03  0.37200719365E+03  0.16500000000E+03 0.  0.
   -5000001    1    1    2    0    0 -0.10566023487E+03 -0.10487107142E+03  0.52797291939E+02  0.22841755819E+03  0.16500000000E+03 0.  0.
<mgrwt>
<rscale>  0 0.54792546E+03</rscale>
<asrwt>0</asrwt>
<pdfrwt beam="1">  1        2 0.25349248E-01 0.54792546E+03</pdfrwt>
<pdfrwt beam="2">  1       -2 0.60425716E-01 0.54792546E+03</pdfrwt>
<totfact> 0.55452627E+02</totfact>
</mgrwt>
</event>
<event>
 4    1  0.5312547E-005  0.4339494E+03  0.7818608E-02  0.1032620E+00
         -2   -1    0    0    0  501 -0.00000000000E+00  0.00000000000E+00  0.50208804097E+02  0.50208804162E+02  0.25500000000E-02 0. -1.
          2   -1    0    0  501    0  0.00000000000E+00 -0.00000000000E+00 -0.93764470113E+03  0.93764470114E+03  0.25500000000E-02 0.  1.
    5000001    1    1    2    0    0  0.68277104001E+01 -0.11166096943E+03 -0.63872445483E+03  0.66911039367E+03  0.16500000000E+03 0.  0.
   -5000001    1    1    2    0    0 -0.68277104001E+01  0.11166096943E+03 -0.24871144220E+03  0.31874311162E+03  0.16500000000E+03 0.  0.
<mgrwt>
<rscale>  0 0.43394939E+03</rscale>
<asrwt>0</asrwt>
<pdfrwt beam="1">  1        2 0.13394923E+00 0.43394939E+03</pdfrwt>
<pdfrwt beam="2">  1       -2 0.71726869E-02 0.43394939E+03</pdfrwt>
<totfact> 0.35840948E+03</totfact>
</mgrwt>
</event>
<event>
 4    1  0.5312547E-005  0.4154750E+03  0.7818608E-02  0.1038549E+00
         -2   -1    0    0    0  501 -0.00000000000E+00  0.00000000000E+00  0.17887651857E+02  0.17887652038E+02  0.25500000000E-02 0.  1.
          2   -1    0    0  501    0  0.00000000000E+00 -0.00000000000E+00 -0.24125513591E+04  0.24125513591E+04  0.25500000000E-02 0. -1.
    5000001    1    1    2    0    0  0.72238224322E+02 -0.71892535318E+02 -0.16328552477E+04  0.16443321312E+04  0.16500000000E+03 0.  0.
   -5000001    1    1    2    0    0 -0.72238224322E+02  0.71892535318E+02 -0.76180845950E+03  0.78610687992E+03  0.16500000000E+03 0.  0.
<mgrwt>
<rscale>  0 0.41547505E+03</rscale>
<asrwt>0</asrwt>
<pdfrwt beam="1">  1        2 0.34464998E+00 0.41547505E+03</pdfrwt>
<pdfrwt beam="2">  1       -2 0.25553804E-02 0.41547505E+03</pdfrwt>
<totfact> 0.29593796E+03</totfact>
</mgrwt>
</event>
<event>
 4    1  0.5312547E-005  0.4863129E+03  0.7818608E-02  0.1017414E+00
         -2   -1    0    0    0  501 -0.00000000000E+00  0.00000000000E+00  0.54567650699E+02  0.54567650759E+02  0.25500000000E-02 0. -1.
          2   -1    0    0  501    0  0.00000000000E+00 -0.00000000000E+00 -0.10835185207E+04  0.10835185207E+04  0.25500000000E-02 0.  1.
    5000001    1    1    2    0    0 -0.83909790842E+02 -0.15321790877E+03 -0.42743005251E+03  0.49034480762E+03  0.16500000000E+03 0.  0.
   -5000001    1    1    2    0    0  0.83909790842E+02  0.15321790877E+03 -0.60152081750E+03  0.64774136385E+03  0.16500000000E+03 0.  0.
<mgrwt>
<rscale>  0 0.48631290E+03</rscale>
<asrwt>0</asrwt>
<pdfrwt beam="1">  1        2 0.15478835E+00 0.48631290E+03</pdfrwt>
<pdfrwt beam="2">  1       -2 0.77953793E-02 0.48631290E+03</pdfrwt>
<totfact> 0.25701114E+03</totfact>
</mgrwt>
</event>
<event>
 4    1  0.5312547E-005  0.5801261E+03  0.7818608E-02  0.9947518E-01
         -2   -1    0    0    0  501 -0.00000000000E+00  0.00000000000E+00  0.67100988582E+02  0.67100988631E+02  0.25500000000E-02 0. -1.
          2   -1    0    0  501    0  0.00000000000E+00 -0.00000000000E+00 -0.12538798693E+04  0.12538798693E+04  0.25500000000E-02 0.  1.
    5000001    1    1    2    0    0  0.28521890804E+02 -0.23655867942E+03 -0.56663311103E+03  0.63645234667E+03  0.16500000000E+03 0.  0.
   -5000001    1    1    2    0    0 -0.28521890804E+02  0.23655867942E+03 -0.62014576964E+03  0.68452851122E+03  0.16500000000E+03 0.  0.
<mgrwt>
<rscale>  0 0.58012612E+03</rscale>
<asrwt>0</asrwt>
<pdfrwt beam="1">  1        2 0.17912568E+00 0.58012612E+03</pdfrwt>
<pdfrwt beam="2">  1       -2 0.95858563E-02 0.58012612E+03</pdfrwt>
<totfact> 0.14779292E+03</totfact>
</mgrwt>
</event>
<event>
 4    1  0.5312547E-005  0.1277956E+04  0.7818608E-02  0.9047231E-01
          2   -1    0    0  501    0  0.00000000000E+00  0.00000000000E+00  0.20879231368E+04  0.20879231368E+04  0.25500000000E-02 0.  1.
         -2   -1    0    0    0  501 -0.00000000000E+00 -0.00000000000E+00 -0.19554979770E+03  0.19554979771E+03  0.25500000000E-02 0. -1.
    5000001    1    1    2    0    0  0.32065233361E+03 -0.29118043392E+03  0.17321096649E+04  0.17930512696E+04  0.16500000000E+03 0.  0.
   -5000001    1    1    2    0    0 -0.32065233361E+03  0.29118043392E+03  0.16026367419E+03  0.49042166491E+03  0.16500000000E+03 0.  0.
<mgrwt>
<rscale>  0 0.12779561E+04</rscale>
<asrwt>0</asrwt>
<pdfrwt beam="1">  1        2 0.29827474E+00 0.12779561E+04</pdfrwt>
<pdfrwt beam="2">  1       -2 0.27935685E-01 0.12779561E+04</pdfrwt>
<totfact> 0.83138272E+01</totfact>
</mgrwt>
</event>
<event>
 4    1  0.5312547E-005  0.5608286E+03  0.7818608E-02  0.9990181E-01
         -2   -1    0    0    0  501 -0.00000000000E+00  0.00000000000E+00  0.20810330490E+03  0.20810330491E+03  0.25500000000E-02 0. -1.
          2   -1    0    0  501    0  0.00000000000E+00 -0.00000000000E+00 -0.37785168270E+03  0.37785168271E+03  0.25500000000E-02 0.  1.
    5000001    1    1    2    0    0 -0.19063841443E+03 -0.15127100274E+02 -0.21213157103E+03  0.32984335320E+03  0.16500000000E+03 0.  0.
   -5000001    1    1    2    0    0  0.19063841443E+03  0.15127100274E+02  0.42383193228E+02  0.25611163442E+03  0.16500000000E+03 0.  0.
<mgrwt>
<rscale>  0 0.56082862E+03</rscale>
<asrwt>0</asrwt>
<pdfrwt beam="1">  1        2 0.53978811E-01 0.56082862E+03</pdfrwt>
<pdfrwt beam="2">  1       -2 0.29729044E-01 0.56082862E+03</pdfrwt>
<totfact> 0.96324054E+02</totfact>
</mgrwt>
</event>
<event>
 4    1  0.5312547E-005  0.4780864E+03  0.7818608E-02  0.1019662E+00
          2   -1    0    0  501    0  0.00000000000E+00  0.00000000000E+00  0.16422259844E+04  0.16422259844E+04  0.25500000000E-02 0.  1.
         -2   -1    0    0    0  501 -0.00000000000E+00 -0.00000000000E+00 -0.34795238321E+02  0.34795238415E+02  0.25500000000E-02 0. -1.
    5000001    1    1    2    0    0  0.11735475471E+03 -0.12660118192E+03  0.76583024667E+03  0.80219758441E+03  0.16500000000E+03 0.  0.
   -5000001    1    1    2    0    0 -0.11735475471E+03  0.12660118192E+03  0.84160049945E+03  0.87482363845E+03  0.16500000000E+03 0.  0.
<mgrwt>
<rscale>  0 0.47808637E+03</rscale>
<asrwt>0</asrwt>
<pdfrwt beam="1">  1        2 0.23460376E+00 0.47808637E+03</pdfrwt>
<pdfrwt beam="2">  1       -2 0.49707473E-02 0.47808637E+03</pdfrwt>
<totfact> 0.26068079E+03</totfact>
</mgrwt>
</event>
<event>
 4    1  0.5312547E-005  0.6110128E+03  0.7818608E-02  0.9882818E-01
          2   -1    0    0  501    0  0.00000000000E+00  0.00000000000E+00  0.25098832237E+03  0.25098832238E+03  0.25500000000E-02 0.  1.
         -2   -1    0    0    0  501 -0.00000000000E+00 -0.00000000000E+00 -0.37186651725E+03  0.37186651726E+03  0.25500000000E-02 0. -1.
    5000001    1    1    2    0    0 -0.13035616404E+03  0.19118577525E+03 -0.17470267797E+03  0.33360269161E+03  0.16500000000E+03 0.  0.
   -5000001    1    1    2    0    0  0.13035616404E+03 -0.19118577525E+03  0.53824483087E+02  0.28925214803E+03  0.16500000000E+03 0.  0.
<mgrwt>
<rscale>  0 0.61101278E+03</rscale>
<asrwt>0</asrwt>
<pdfrwt beam="1">  1        2 0.35855475E-01 0.61101278E+03</pdfrwt>
<pdfrwt beam="2">  1       -2 0.53123788E-01 0.61101278E+03</pdfrwt>
<totfact> 0.49032898E+02</totfact>
</mgrwt>
</event>
<event>
 4    1  0.5312547E-005  0.1130816E+04  0.7818608E-02  0.9175667E-01
         -2   -1    0    0    0  501 -0.00000000000E+00  0.00000000000E+00  0.42260614867E+03  0.42260614868E+03  0.25500000000E-02 0. -1.
          2   -1    0    0  501    0  0.00000000000E+00 -0.00000000000E+00 -0.75646310705E+03  0.75646310706E+03  0.25500000000E-02 0.  1.
    5000001    1    1    2    0    0 -0.27055020997E+03  0.34566267465E+03  0.16243175145E+03  0.49627530126E+03  0.16500000000E+03 0.  0.
   -5000001    1    1    2    0    0  0.27055020997E+03 -0.34566267465E+03 -0.49628870983E+03  0.68279395448E+03  0.16500000000E+03 0.  0.
<mgrwt>
<rscale>  0 0.11308156E+04</rscale>
<asrwt>0</asrwt>
<pdfrwt beam="1">  1        2 0.10806616E+00 0.11308156E+04</pdfrwt>
<pdfrwt beam="2">  1       -2 0.60372307E-01 0.11308156E+04</pdfrwt>
<totfact> 0.10352352E+02</totfact>
</mgrwt>
</event>
<event>
 4    1  0.5312547E-005  0.5290295E+03  0.7818608E-02  0.1006468E+00
         -2   -1    0    0    0  501 -0.00000000000E+00  0.00000000000E+00  0.45282178109E+02  0.45282178181E+02  0.25500000000E-02 0. -1.
          2   -1    0    0  501    0  0.00000000000E+00 -0.00000000000E+00 -0.15451565987E+04  0.15451565987E+04  0.25500000000E-02 0.  1.
    5000001    1    1    2    0    0 -0.10285224118E+03  0.13005886113E+03 -0.37869265409E+03  0.44511461124E+03  0.16500000000E+03 0.  0.
   -5000001    1    1    2    0    0  0.10285224118E+03 -0.13005886113E+03 -0.11211817665E+04  0.11453241656E+04  0.16500000000E+03 0.  0.
<mgrwt>
<rscale>  0 0.52902951E+03</rscale>
<asrwt>0</asrwt>
<pdfrwt beam="1">  1        2 0.22073662E+00 0.52902951E+03</pdfrwt>
<pdfrwt beam="2">  1       -2 0.64688836E-02 0.52902951E+03</pdfrwt>
<totfact> 0.19376062E+03</totfact>
</mgrwt>
</event>
<event>
 4    1  0.5312547E-005  0.4922292E+03  0.7818608E-02  0.1015827E+00
          2   -1    0    0  501    0  0.00000000000E+00  0.00000000000E+00  0.66961637719E+03  0.66961637720E+03  0.25500000000E-02 0.  1.
         -2   -1    0    0    0  501 -0.00000000000E+00 -0.00000000000E+00 -0.90458358483E+02  0.90458358519E+02  0.25500000000E-02 0. -1.
    5000001    1    1    2    0    0  0.14470244403E+03  0.20703361629E+02  0.12056729190E+03  0.25125464845E+03  0.16500000000E+03 0.  0.
   -5000001    1    1    2    0    0 -0.14470244403E+03 -0.20703361629E+02  0.45859072681E+03  0.50882008727E+03  0.16500000000E+03 0.  0.
<mgrwt>
<rscale>  0 0.49222921E+03</rscale>
<asrwt>0</asrwt>
<pdfrwt beam="1">  1        2 0.95659481E-01 0.49222921E+03</pdfrwt>
<pdfrwt beam="2">  1       -2 0.12922623E-01 0.49222921E+03</pdfrwt>
<totfact> 0.21317401E+03</totfact>
</mgrwt>
</event>
<event>
 4    1  0.5312547E-005  0.5752785E+03  0.7818608E-02  0.9958066E-01
         -2   -1    0    0    0  501 -0.00000000000E+00  0.00000000000E+00  0.70315478996E+02  0.70315479042E+02  0.25500000000E-02 0. -1.
          2   -1    0    0  501    0  0.00000000000E+00 -0.00000000000E+00 -0.11766446360E+04  0.11766446360E+04  0.25500000000E-02 0.  1.
    5000001    1    1    2    0    0 -0.20327626764E+03  0.11177042645E+03 -0.64246930977E+03  0.70271308741E+03  0.16500000000E+03 0.  0.
   -5000001    1    1    2    0    0  0.20327626764E+03 -0.11177042645E+03 -0.46385984722E+03  0.54424702762E+03  0.16500000000E+03 0.  0.
<mgrwt>
<rscale>  0 0.57527848E+03</rscale>
<asrwt>0</asrwt>
<pdfrwt beam="1">  1        2 0.16809208E+00 0.57527848E+03</pdfrwt>
<pdfrwt beam="2">  1       -2 0.10045069E-01 0.57527848E+03</pdfrwt>
<totfact> 0.15130607E+03</totfact>
</mgrwt>
</event>
<event>
 4    1  0.5312547E-005  0.4831902E+03  0.7818608E-02  0.1018262E+00
         -2   -1    0    0    0  501 -0.00000000000E+00  0.00000000000E+00  0.54142809140E+02  0.54142809200E+02  0.25500000000E-02 0. -1.
          2   -1    0    0  501    0  0.00000000000E+00 -0.00000000000E+00 -0.10780416308E+04  0.10780416308E+04  0.25500000000E-02 0.  1.
    5000001    1    1    2    0    0 -0.28920762025E+01  0.15663917892E+03 -0.32160580899E+03  0.39395366841E+03  0.16500000000E+03 0.  0.
   -5000001    1    1    2    0    0  0.28920762025E+01 -0.15663917892E+03 -0.70229301264E+03  0.73823077157E+03  0.16500000000E+03 0.  0.
<mgrwt>
<rscale>  0 0.48319024E+03</rscale>
<asrwt>0</asrwt>
<pdfrwt beam="1">  1        2 0.15400593E+00 0.48319024E+03</pdfrwt>
<pdfrwt beam="2">  1       -2 0.77346877E-02 0.48319024E+03</pdfrwt>
<totfact> 0.26212666E+03</totfact>
</mgrwt>
</event>
<event>
 4    1  0.5312547E-005  0.7900883E+03  0.7818608E-02  0.9574476E-01
         -2   -1    0    0    0  501 -0.00000000000E+00  0.00000000000E+00  0.14064125502E+03  0.14064125504E+03  0.25500000000E-02 0. -1.
          2   -1    0    0  501    0  0.00000000000E+00 -0.00000000000E+00 -0.11096307737E+04  0.11096307737E+04  0.25500000000E-02 0.  1.
    5000001    1    1    2    0    0 -0.18632462799E+03 -0.27019371806E+03 -0.71443104123E+03  0.80334191036E+03  0.16500000000E+03 0.  0.
   -5000001    1    1    2    0    0  0.18632462799E+03  0.27019371806E+03 -0.25455847746E+03  0.44693011839E+03  0.16500000000E+03 0.  0.
<mgrwt>
<rscale>  0 0.79008826E+03</rscale>
<asrwt>0</asrwt>
<pdfrwt beam="1">  1        2 0.15851868E+00 0.79008826E+03</pdfrwt>
<pdfrwt beam="2">  1       -2 0.20091608E-01 0.79008826E+03</pdfrwt>
<totfact> 0.51213523E+02</totfact>
</mgrwt>
</event>
<event>
 4    1  0.5312547E-005  0.4134316E+03  0.7818608E-02  0.1039226E+00
          2   -1    0    0  501    0  0.00000000000E+00  0.00000000000E+00  0.25937855162E+04  0.25937855162E+04  0.25500000000E-02 0.  1.
         -2   -1    0    0    0  501 -0.00000000000E+00 -0.00000000000E+00 -0.16474541310E+02  0.16474541507E+02  0.25500000000E-02 0. -1.
    5000001    1    1    2    0    0 -0.11876454341E+03  0.26769741113E+02  0.11234368132E+04  0.11419968954E+04  0.16500000000E+03 0.  0.
   -5000001    1    1    2    0    0  0.11876454341E+03 -0.26769741113E+02  0.14538741617E+04  0.14682631623E+04  0.16500000000E+03 0.  0.
<mgrwt>
<rscale>  0 0.41343162E+03</rscale>
<asrwt>0</asrwt>
<pdfrwt beam="1">  1        2 0.37054091E+00 0.41343162E+03</pdfrwt>
<pdfrwt beam="2">  1       -2 0.23535051E-02 0.41343162E+03</pdfrwt>
<totfact> 0.27093975E+03</totfact>
</mgrwt>
</event>
<event>
 4    1  0.5312547E-005  0.6042244E+03  0.7818608E-02  0.9896680E-01
         -2   -1    0    0    0  501 -0.00000000000E+00  0.00000000000E+00  0.21193470104E+03  0.21193470106E+03  0.25500000000E-02 0. -1.
          2   -1    0    0  501    0  0.00000000000E+00 -0.00000000000E+00 -0.43065985778E+03  0.43065985779E+03  0.25500000000E-02 0.  1.
    5000001    1    1    2    0    0 -0.22683715021E+02  0.25144363342E+03 -0.12803657173E+03  0.32765349901E+03  0.16500000000E+03 0.  0.
   -5000001    1    1    2    0    0  0.22683715021E+02 -0.25144363342E+03 -0.90688585017E+02  0.31494105983E+03  0.16500000000E+03 0.  0.
<mgrwt>
<rscale>  0 0.60422436E+03</rscale>
<asrwt>0</asrwt>
<pdfrwt beam="1">  1        2 0.61522837E-01 0.60422436E+03</pdfrwt>
<pdfrwt beam="2">  1       -2 0.30276386E-01 0.60422436E+03</pdfrwt>
<totfact> 0.80495466E+02</totfact>
</mgrwt>
</event>
<event>
 4    1  0.5312547E-005  0.4066194E+03  0.7818608E-02  0.1041511E+00
         -2   -1    0    0    0  501 -0.00000000000E+00  0.00000000000E+00  0.94710461180E+02  0.94710461214E+02  0.25500000000E-02 0. -1.
          2   -1    0    0  501    0  0.00000000000E+00 -0.00000000000E+00 -0.43643376312E+03  0.43643376313E+03  0.25500000000E-02 0.  1.
    5000001    1    1    2    0    0  0.10821980633E+03  0.15322984949E+02 -0.11010343074E+03  0.22648197679E+03  0.16500000000E+03 0.  0.
   -5000001    1    1    2    0    0 -0.10821980633E+03 -0.15322984949E+02 -0.23161987121E+03  0.30466224756E+03  0.16500000000E+03 0.  0.
<mgrwt>
<rscale>  0 0.40661944E+03</rscale>
<asrwt>0</asrwt>
<pdfrwt beam="1">  1        2 0.62347679E-01 0.40661944E+03</pdfrwt>
<pdfrwt beam="2">  1       -2 0.13530066E-01 0.40661944E+03</pdfrwt>
<totfact> 0.32190910E+03</totfact>
</mgrwt>
</event>
<event>
 4    1  0.5312547E-005  0.4640462E+03  0.7818608E-02  0.1023614E+00
         -2   -1    0    0    0  501 -0.00000000000E+00  0.00000000000E+00  0.32885764232E+03  0.32885764233E+03  0.25500000000E-02 0. -1.
          2   -1    0    0  501    0  0.00000000000E+00 -0.00000000000E+00 -0.16370217585E+03  0.16370217587E+03  0.25500000000E-02 0.  1.
    5000001    1    1    2    0    0  0.15383677727E+03  0.37673905152E+02  0.41131921422E+02  0.23238311498E+03  0.16500000000E+03 0.  0.
   -5000001    1    1    2    0    0 -0.15383677727E+03 -0.37673905152E+02  0.12402354505E+03  0.26017670322E+03  0.16500000000E+03 0.  0.
<mgrwt>
<rscale>  0 0.46404617E+03</rscale>
<asrwt>0</asrwt>
<pdfrwt beam="1">  1        2 0.23386025E-01 0.46404617E+03</pdfrwt>
<pdfrwt beam="2">  1       -2 0.46979664E-01 0.46404617E+03</pdfrwt>
<totfact> 0.10177490E+03</totfact>
</mgrwt>
</event>
<event>
 4    1  0.5312547E-005  0.4552900E+03  0.7818608E-02  0.1026156E+00
         -2   -1    0    0    0  501 -0.00000000000E+00  0.00000000000E+00  0.77218678629E+02  0.77218678671E+02  0.25500000000E-02 0. -1.
          2   -1    0    0  501    0  0.00000000000E+00 -0.00000000000E+00 -0.67111027219E+03  0.67111027220E+03  0.25500000000E-02 0.  1.
    5000001    1    1    2    0    0  0.59152287388E+01 -0.15527414369E+03 -0.33189756397E+03  0.40190302636E+03  0.16500000000E+03 0.  0.
   -5000001    1    1    2    0    0 -0.59152287388E+01  0.15527414369E+03 -0.26199402959E+03  0.34642592451E+03  0.16500000000E+03 0.  0.
<mgrwt>
<rscale>  0 0.45529001E+03</rscale>
<asrwt>0</asrwt>
<pdfrwt beam="1">  1        2 0.95872893E-01 0.45529001E+03</pdfrwt>
<pdfrwt beam="2">  1       -2 0.11031240E-01 0.45529001E+03</pdfrwt>
<totfact> 0.27530839E+03</totfact>
</mgrwt>
</event>
<event>
 4    1  0.5312547E-005  0.5282613E+03  0.7818608E-02  0.1006655E+00
          2   -1    0    0  501    0  0.00000000000E+00  0.00000000000E+00  0.58255581242E+03  0.58255581243E+03  0.25500000000E-02 0.  1.
         -2   -1    0    0    0  501 -0.00000000000E+00 -0.00000000000E+00 -0.11975677212E+03  0.11975677215E+03  0.25500000000E-02 0. -1.
    5000001    1    1    2    0    0  0.15820900436E+03 -0.12363885511E+03  0.29408765941E+03  0.39246554877E+03  0.16500000000E+03 0.  0.
   -5000001    1    1    2    0    0 -0.15820900436E+03  0.12363885511E+03  0.16871138089E+03  0.30984703581E+03  0.16500000000E+03 0.  0.
<mgrwt>
<rscale>  0 0.52826131E+03</rscale>
<asrwt>0</asrwt>
<pdfrwt beam="1">  1        2 0.83222258E-01 0.52826131E+03</pdfrwt>
<pdfrwt beam="2">  1       -2 0.17108110E-01 0.52826131E+03</pdfrwt>
<totfact> 0.15702860E+03</totfact>
</mgrwt>
</event>
<event>
 4    1  0.5312547E-005  0.4167388E+03  0.7818608E-02  0.1038133E+00
          2   -1    0    0  501    0  0.00000000000E+00  0.00000000000E+00  0.28218253315E+04  0.28218253315E+04  0.25500000000E-02 0.  1.
         -2   -1    0    0    0  501 -0.00000000000E+00 -0.00000000000E+00 -0.15386429016E+02  0.15386429227E+02  0.25500000000E-02 0. -1.
    5000001    1    1    2    0    0  0.41484438915E+02 -0.96912281122E+02  0.18884564673E+04  0.18985799372E+04  0.16500000000E+03 0.  0.
   -5000001    1    1    2    0    0 -0.41484438915E+02  0.96912281122E+02  0.91798243515E+03  0.93863182353E+03  0.16500000000E+03 0.  0.
<mgrwt>
<rscale>  0 0.41673884E+03</rscale>
<asrwt>0</asrwt>
<pdfrwt beam="1">  1        2 0.40311740E+00 0.41673884E+03</pdfrwt>
<pdfrwt beam="2">  1       -2 0.21980641E-02 0.41673884E+03</pdfrwt>
<totfact> 0.22861106E+03</totfact>
</mgrwt>
</event>
<event>
 4    1  0.5312547E-005  0.6498616E+03  0.7818608E-02  0.9807039E-01
         -2   -1    0    0    0  501 -0.00000000000E+00  0.00000000000E+00  0.63791237428E+03  0.63791237428E+03  0.25500000000E-02 0. -1.
          2   -1    0    0  501    0  0.00000000000E+00 -0.00000000000E+00 -0.16550867958E+03  0.16550867960E+03  0.25500000000E-02 0.  1.
    5000001    1    1    2    0    0  0.13856031104E+03 -0.22838005563E+03  0.33962759740E+03  0.46252385292E+03  0.16500000000E+03 0.  0.
   -5000001    1    1    2    0    0 -0.13856031104E+03  0.22838005563E+03  0.13277609730E+03  0.34089720096E+03  0.16500000000E+03 0.  0.
<mgrwt>
<rscale>  0 0.64986163E+03</rscale>
<asrwt>0</asrwt>
<pdfrwt beam="1">  1        2 0.23644097E-01 0.64986163E+03</pdfrwt>
<pdfrwt beam="2">  1       -2 0.91130339E-01 0.64986163E+03</pdfrwt>
<totfact> 0.24251625E+02</totfact>
</mgrwt>
</event>
<event>
 4    1  0.5312547E-005  0.4296462E+03  0.7818608E-02  0.1033972E+00
         -2   -1    0    0    0  501 -0.00000000000E+00  0.00000000000E+00  0.14284607502E+03  0.14284607504E+03  0.25500000000E-02 0. -1.
          2   -1    0    0  501    0  0.00000000000E+00 -0.00000000000E+00 -0.32306772383E+03  0.32306772384E+03  0.25500000000E-02 0.  1.
    5000001    1    1    2    0    0  0.78414261426E+02 -0.11274052704E+03 -0.98835698010E+02  0.23633179649E+03  0.16500000000E+03 0.  0.
   -5000001    1    1    2    0    0 -0.78414261426E+02  0.11274052704E+03 -0.81385950806E+02  0.22958200239E+03  0.16500000000E+03 0.  0.
<mgrwt>
<rscale>  0 0.42964616E+03</rscale>
<asrwt>0</asrwt>
<pdfrwt beam="1">  1        2 0.46152532E-01 0.42964616E+03</pdfrwt>
<pdfrwt beam="2">  1       -2 0.20406582E-01 0.42964616E+03</pdfrwt>
<totfact> 0.22373445E+03</totfact>
</mgrwt>
</event>
<event>
 4    1  0.5312547E-005  0.5463247E+03  0.7818608E-02  0.1002348E+00
          2   -1    0    0  501    0  0.00000000000E+00  0.00000000000E+00  0.11749209916E+04  0.11749209916E+04  0.25500000000E-02 0.  1.
         -2   -1    0    0    0  501 -0.00000000000E+00 -0.00000000000E+00 -0.63508662351E+02  0.63508662402E+02  0.25500000000E-02 0. -1.
    5000001    1    1    2    0    0  0.20533681556E+03  0.63768879195E+02  0.63301109241E+03  0.68859111299E+03  0.16500000000E+03 0.  0.
   -5000001    1    1    2    0    0 -0.20533681556E+03 -0.63768879195E+02  0.47840123688E+03  0.54983854106E+03  0.16500000000E+03 0.  0.
<mgrwt>
<rscale>  0 0.54632467E+03</rscale>
<asrwt>0</asrwt>
<pdfrwt beam="1">  1        2 0.16784586E+00 0.54632467E+03</pdfrwt>
<pdfrwt beam="2">  1       -2 0.90726660E-02 0.54632467E+03</pdfrwt>
<totfact> 0.17880531E+03</totfact>
</mgrwt>
</event>
<event>
 4    1  0.5312547E-005  0.4877212E+03  0.7818608E-02  0.1017034E+00
         -2   -1    0    0    0  501 -0.00000000000E+00  0.00000000000E+00  0.49988154656E+02  0.49988154722E+02  0.25500000000E-02 0. -1.
          2   -1    0    0  501    0  0.00000000000E+00 -0.00000000000E+00 -0.11896415021E+04  0.11896415021E+04  0.25500000000E-02 0.  1.
    5000001    1    1    2    0    0  0.16914582940E+03  0.57315755010E+02 -0.52244119394E+03  0.57625099436E+03  0.16500000000E+03 0.  0.
   -5000001    1    1    2    0    0 -0.16914582940E+03 -0.57315755010E+02 -0.61721215348E+03  0.66337866244E+03  0.16500000000E+03 0.  0.
<mgrwt>
<rscale>  0 0.48772116E+03</rscale>
<asrwt>0</asrwt>
<pdfrwt beam="1">  1        2 0.16994877E+00 0.48772116E+03</pdfrwt>
<pdfrwt beam="2">  1       -2 0.71411657E-02 0.48772116E+03</pdfrwt>
<totfact> 0.25684194E+03</totfact>
</mgrwt>
</event>
<event>
 4    1  0.5312547E-005  0.4562905E+03  0.7818608E-02  0.1025863E+00
         -2   -1    0    0    0  501 -0.00000000000E+00  0.00000000000E+00  0.34954820490E+02  0.34954820583E+02  0.25500000000E-02 0. -1.
          2   -1    0    0  501    0  0.00000000000E+00 -0.00000000000E+00 -0.14890723339E+04  0.14890723339E+04  0.25500000000E-02 0.  1.
    5000001    1    1    2    0    0  0.90649931093E+02  0.11247971648E+03 -0.93714043296E+03  0.96245846026E+03  0.16500000000E+03 0.  0.
   -5000001    1    1    2    0    0 -0.90649931093E+02 -0.11247971648E+03 -0.51697708040E+03  0.56156869419E+03  0.16500000000E+03 0.  0.
<mgrwt>
<rscale>  0 0.45629050E+03</rscale>
<asrwt>0</asrwt>
<pdfrwt beam="1">  1        2 0.21272458E+00 0.45629050E+03</pdfrwt>
<pdfrwt beam="2">  1       -2 0.49935467E-02 0.45629050E+03</pdfrwt>
<totfact> 0.31012433E+03</totfact>
</mgrwt>
</event>
<event>
 4    1  0.5312547E-005  0.9488969E+03  0.7818608E-02  0.9366441E-01
         -2   -1    0    0    0  501 -0.00000000000E+00  0.00000000000E+00  0.29953797552E+04  0.29953797552E+04  0.25500000000E-02 0. -1.
          2   -1    0    0  501    0  0.00000000000E+00 -0.00000000000E+00 -0.75149511742E+02  0.75149511786E+02  0.25500000000E-02 0.  1.
    5000001    1    1    2    0    0  0.41062010575E+03  0.16425690001E+03  0.16148681787E+04  0.16824426989E+04  0.16500000000E+03 0.  0.
   -5000001    1    1    2    0    0 -0.41062010575E+03 -0.16425690001E+03  0.13053620648E+04  0.13880865681E+04  0.16500000000E+03 0.  0.
<mgrwt>
<rscale>  0 0.94889689E+03</rscale>
<asrwt>0</asrwt>
<pdfrwt beam="1">  1        2 0.10735644E-01 0.94889689E+03</pdfrwt>
<pdfrwt beam="2">  1       -2 0.42791140E+00 0.94889689E+03</pdfrwt>
<totfact> 0.30743965E+00</totfact>
</mgrwt>
</event>
<event>
 4    1  0.5312547E-005  0.6681379E+03  0.7818608E-02  0.9773328E-01
          2   -1    0    0  501    0  0.00000000000E+00  0.00000000000E+00  0.44451076397E+03  0.44451076397E+03  0.25500000000E-02 0.  1.
         -2   -1    0    0    0  501 -0.00000000000E+00 -0.00000000000E+00 -0.25106720306E+03  0.25106720307E+03  0.25500000000E-02 0. -1.
    5000001    1    1    2    0    0  0.82330769188E+02  0.22343116924E+03  0.26991903746E+03  0.39595596943E+03  0.16500000000E+03 0.  0.
   -5000001    1    1    2    0    0 -0.82330769188E+02 -0.22343116924E+03 -0.76475476554E+02  0.29962199762E+03  0.16500000000E+03 0.  0.
<mgrwt>
<rscale>  0 0.66813793E+03</rscale>
<asrwt>0</asrwt>
<pdfrwt beam="1">  1        2 0.63501538E-01 0.66813793E+03</pdfrwt>
<pdfrwt beam="2">  1       -2 0.35866743E-01 0.66813793E+03</pdfrwt>
<totfact> 0.56447205E+02</totfact>
</mgrwt>
</event>
<event>
 4    1  0.5312547E-005  0.7231224E+03  0.7818608E-02  0.9678487E-01
          2   -1    0    0  501    0  0.00000000000E+00  0.00000000000E+00  0.16374438837E+04  0.16374438837E+04  0.25500000000E-02 0.  1.
         -2   -1    0    0    0  501 -0.00000000000E+00 -0.00000000000E+00 -0.79835707585E+02  0.79835707626E+02  0.25500000000E-02 0. -1.
    5000001    1    1    2    0    0  0.30284634965E+03  0.90001761298E+02  0.63463789510E+03  0.72787807113E+03  0.16500000000E+03 0.  0.
   -5000001    1    1    2    0    0 -0.30284634965E+03 -0.90001761298E+02  0.92297028101E+03  0.98940152019E+03  0.16500000000E+03 0.  0.
<mgrwt>
<rscale>  0 0.72312237E+03</rscale>
<asrwt>0</asrwt>
<pdfrwt beam="1">  1        2 0.23392054E+00 0.72312237E+03</pdfrwt>
<pdfrwt beam="2">  1       -2 0.11405102E-01 0.72312237E+03</pdfrwt>
<totfact> 0.69371391E+02</totfact>
</mgrwt>
</event>
<event>
 4    1  0.5312547E-005  0.1154987E+04  0.7818608E-02  0.9153195E-01
         -2   -1    0    0    0  501 -0.00000000000E+00  0.00000000000E+00  0.21662911355E+03  0.21662911357E+03  0.25500000000E-02 0. -1.
          2   -1    0    0  501    0  0.00000000000E+00 -0.00000000000E+00 -0.15394925004E+04  0.15394925004E+04  0.25500000000E-02 0.  1.
    5000001    1    1    2    0    0 -0.49142854013E+03  0.25342981398E+03 -0.69693438687E+03  0.90480452047E+03  0.16500000000E+03 0.  0.
   -5000001    1    1    2    0    0  0.49142854013E+03 -0.25342981398E+03 -0.62592899998E+03  0.85131709350E+03  0.16500000000E+03 0.  0.
<mgrwt>
<rscale>  0 0.11549873E+04</rscale>
<asrwt>0</asrwt>
<pdfrwt beam="1">  1        2 0.21992749E+00 0.11549873E+04</pdfrwt>
<pdfrwt beam="2">  1       -2 0.30947017E-01 0.11549873E+04</pdfrwt>
<totfact> 0.13317833E+02</totfact>
</mgrwt>
</event>
<event>
 4    1  0.5312547E-005  0.4946508E+03  0.7818608E-02  0.1015185E+00
         -2   -1    0    0    0  501 -0.00000000000E+00  0.00000000000E+00  0.41931896066E+02  0.41931896144E+02  0.25500000000E-02 0. -1.
          2   -1    0    0  501    0  0.00000000000E+00 -0.00000000000E+00 -0.14587905751E+04  0.14587905751E+04  0.25500000000E-02 0.  1.
    5000001    1    1    2    0    0 -0.25469167091E+02  0.15654661170E+03 -0.99286213331E+03  0.10188992766E+04  0.16500000000E+03 0.  0.
   -5000001    1    1    2    0    0  0.25469167091E+02 -0.15654661170E+03 -0.42399654570E+03  0.48182319462E+03  0.16500000000E+03 0.  0.
<mgrwt>
<rscale>  0 0.49465081E+03</rscale>
<asrwt>0</asrwt>
<pdfrwt beam="1">  1        2 0.20839862E+00 0.49465081E+03</pdfrwt>
<pdfrwt beam="2">  1       -2 0.59902718E-02 0.49465081E+03</pdfrwt>
<totfact> 0.24240761E+03</totfact>
</mgrwt>
</event>
<event>
 4    1  0.5312547E-005  0.5184321E+03  0.7818608E-02  0.1009077E+00
          2   -1    0    0  501    0  0.00000000000E+00  0.00000000000E+00  0.21006623287E+04  0.21006623287E+04  0.25500000000E-02 0.  1.
         -2   -1    0    0    0  501 -0.00000000000E+00 -0.00000000000E+00 -0.31986564917E+02  0.31986565019E+02  0.25500000000E-02 0. -1.
    5000001    1    1    2    0    0 -0.94105815043E+02 -0.11431875904E+03  0.48177043911E+03  0.53033238549E+03  0.16500000000E+03 0.  0.
   -5000001    1    1    2    0    0  0.94105815043E+02  0.11431875904E+03  0.15869053247E+04  0.16023165082E+04  0.16500000000E+03 0.  0.
<mgrwt>
<rscale>  0 0.51843214E+03</rscale>
<asrwt>0</asrwt>
<pdfrwt beam="1">  1        2 0.30009467E+00 0.51843214E+03</pdfrwt>
<pdfrwt beam="2">  1       -2 0.45695086E-02 0.51843214E+03</pdfrwt>
<totfact> 0.17460197E+03</totfact>
</mgrwt>
</event>
<event>
 4    1  0.5312547E-005  0.3701497E+03  0.7818608E-02  0.1054636E+00
          2   -1    0    0  501    0  0.00000000000E+00  0.00000000000E+00  0.10545723394E+04  0.10545723394E+04  0.25500000000E-02 0.  1.
         -2   -1    0    0    0  501 -0.00000000000E+00 -0.00000000000E+00 -0.32480183827E+02  0.32480183927E+02  0.25500000000E-02 0. -1.
    5000001    1    1    2    0    0 -0.52748232068E+02 -0.50671110440E+02  0.39075350596E+03  0.43042216467E+03  0.16500000000E+03 0.  0.
   -5000001    1    1    2    0    0  0.52748232068E+02  0.50671110440E+02  0.63133864966E+03  0.65663035870E+03  0.16500000000E+03 0.  0.
<mgrwt>
<rscale>  0 0.37014972E+03</rscale>
<asrwt>0</asrwt>
<pdfrwt beam="1">  1        2 0.15065315E+00 0.37014972E+03</pdfrwt>
<pdfrwt beam="2">  1       -2 0.46400276E-02 0.37014972E+03</pdfrwt>
<totfact> 0.59690187E+03</totfact>
</mgrwt>
</event>
<event>
 4    1  0.5312547E-005  0.4199141E+03  0.7818608E-02  0.1037094E+00
          2   -1    0    0  501    0  0.00000000000E+00  0.00000000000E+00  0.78551325593E+03  0.78551325594E+03  0.25500000000E-02 0.  1.
         -2   -1    0    0    0  501 -0.00000000000E+00 -0.00000000000E+00 -0.56118673959E+02  0.56118674016E+02  0.25500000000E-02 0. -1.
    5000001    1    1    2    0    0 -0.95506249157E+02 -0.87188586448E+02  0.38787002337E+03  0.44089845573E+03  0.16500000000E+03 0.  0.
   -5000001    1    1    2    0    0  0.95506249157E+02  0.87188586448E+02  0.34152455861E+03  0.40073347423E+03  0.16500000000E+03 0.  0.
<mgrwt>
<rscale>  0 0.41991410E+03</rscale>
<asrwt>0</asrwt>
<pdfrwt beam="1">  1        2 0.11221617E+00 0.41991410E+03</pdfrwt>
<pdfrwt beam="2">  1       -2 0.80169539E-02 0.41991410E+03</pdfrwt>
<totfact> 0.37823918E+03</totfact>
</mgrwt>
</event>
<event>
 4    1  0.5312547E-005  0.4099042E+03  0.7818608E-02  0.1040403E+00
          2   -1    0    0  501    0  0.00000000000E+00  0.00000000000E+00  0.24269226172E+04  0.24269226172E+04  0.25500000000E-02 0.  1.
         -2   -1    0    0    0  501 -0.00000000000E+00 -0.00000000000E+00 -0.17308079327E+02  0.17308079515E+02  0.25500000000E-02 0. -1.
    5000001    1    1    2    0    0 -0.57767243850E+01 -0.83509731382E+02  0.67908353751E+03  0.70383712370E+03  0.16500000000E+03 0.  0.
   -5000001    1    1    2    0    0  0.57767243850E+01  0.83509731382E+02  0.17305310004E+04  0.17403935730E+04  0.16500000000E+03 0.  0.
<mgrwt>
<rscale>  0 0.40990423E+03</rscale>
<asrwt>0</asrwt>
<pdfrwt beam="1">  1        2 0.34670283E+00 0.40990423E+03</pdfrwt>
<pdfrwt beam="2">  1       -2 0.24725856E-02 0.40990423E+03</pdfrwt>
<totfact> 0.30584481E+03</totfact>
</mgrwt>
</event>
<event>
 4    1  0.5312547E-005  0.5673389E+03  0.7818608E-02  0.9975585E-01
         -2   -1    0    0    0  501 -0.00000000000E+00  0.00000000000E+00  0.64182440020E+02  0.64182440070E+02  0.25500000000E-02 0. -1.
          2   -1    0    0  501    0  0.00000000000E+00 -0.00000000000E+00 -0.12537439146E+04  0.12537439146E+04  0.25500000000E-02 0.  1.
    5000001    1    1    2    0    0  0.11331295854E+03  0.19572767805E+03 -0.48847493276E+03  0.56301146566E+03  0.16500000000E+03 0.  0.
   -5000001    1    1    2    0    0 -0.11331295854E+03 -0.19572767805E+03 -0.70108654178E+03  0.75491488898E+03  0.16500000000E+03 0.  0.
<mgrwt>
<rscale>  0 0.56733885E+03</rscale>
<asrwt>0</asrwt>
<pdfrwt beam="1">  1        2 0.17910626E+00 0.56733885E+03</pdfrwt>
<pdfrwt beam="2">  1       -2 0.91689208E-02 0.56733885E+03</pdfrwt>
<totfact> 0.15884667E+03</totfact>
</mgrwt>
</event>
<event>
 4    1  0.5312547E-005  0.6795826E+03  0.7818608E-02  0.9752800E-01
         -2   -1    0    0    0  501 -0.00000000000E+00  0.00000000000E+00  0.11197112620E+04  0.11197112620E+04  0.25500000000E-02 0. -1.
          2   -1    0    0  501    0  0.00000000000E+00 -0.00000000000E+00 -0.10311420139E+03  0.10311420142E+03  0.25500000000E-02 0.  1.
    5000001    1    1    2    0    0  0.63712630527E+02  0.22682661145E+03  0.83379945836E+03  0.88201822414E+03  0.16500000000E+03 0.  0.
   -5000001    1    1    2    0    0 -0.63712630527E+02 -0.22682661145E+03  0.18279760221E+03  0.34080723925E+03  0.16500000000E+03 0.  0.
<mgrwt>
<rscale>  0 0.67958261E+03</rscale>
<asrwt>0</asrwt>
<pdfrwt beam="1">  1        2 0.14730599E-01 0.67958261E+03</pdfrwt>
<pdfrwt beam="2">  1       -2 0.15995876E+00 0.67958261E+03</pdfrwt>
<totfact> 0.10490868E+02</totfact>
</mgrwt>
</event>
<event>
 4    1  0.5312547E-005  0.6554575E+03  0.7818608E-02  0.9796592E-01
          2   -1    0    0  501    0  0.00000000000E+00  0.00000000000E+00  0.27643314399E+04  0.27643314399E+04  0.25500000000E-02 0.  1.
         -2   -1    0    0    0  501 -0.00000000000E+00 -0.00000000000E+00 -0.38854286444E+02  0.38854286528E+02  0.25500000000E-02 0. -1.
    5000001    1    1    2    0    0  0.13390299639E+03  0.24173999738E+03  0.10986593038E+04  0.11448342695E+04  0.16500000000E+03 0.  0.
   -5000001    1    1    2    0    0 -0.13390299639E+03 -0.24173999738E+03  0.16268178496E+04  0.16583514569E+04  0.16500000000E+03 0.  0.
<mgrwt>
<rscale>  0 0.65545748E+03</rscale>
<asrwt>0</asrwt>
<pdfrwt beam="1">  1        2 0.39490447E+00 0.65545748E+03</pdfrwt>
<pdfrwt beam="2">  1       -2 0.55506127E-02 0.65545748E+03</pdfrwt>
<totfact> 0.58542167E+02</totfact>
</mgrwt>
</event>
<event>
 4    1  0.5312547E-005  0.5811782E+03  0.7818608E-02  0.9945244E-01
          2   -1    0    0  501    0  0.00000000000E+00  0.00000000000E+00  0.83738688019E+03  0.83738688019E+03  0.25500000000E-02 0.  1.
         -2   -1    0    0    0  501 -0.00000000000E+00 -0.00000000000E+00 -0.10083991144E+03  0.10083991147E+03  0.25500000000E-02 0. -1.
    5000001    1    1    2    0    0 -0.10700374114E+03  0.13961631538E+03  0.62995062362E+03  0.67454080999E+03  0.16500000000E+03 0.  0.
   -5000001    1    1    2    0    0  0.10700374114E+03 -0.13961631538E+03  0.10659634513E+03  0.26368598168E+03  0.16500000000E+03 0.  0.
<mgrwt>
<rscale>  0 0.58117818E+03</rscale>
<asrwt>0</asrwt>
<pdfrwt beam="1">  1        2 0.11962670E+00 0.58117818E+03</pdfrwt>
<pdfrwt beam="2">  1       -2 0.14405701E-01 0.58117818E+03</pdfrwt>
<totfact> 0.13463406E+03</totfact>
</mgrwt>
</event>
<event>
 4    1  0.5312547E-005  0.6749955E+03  0.7818608E-02  0.9760975E-01
         -2   -1    0    0    0  501 -0.00000000000E+00  0.00000000000E+00  0.13406323533E+03  0.13406323536E+03  0.25500000000E-02 0. -1.
          2   -1    0    0  501    0  0.00000000000E+00 -0.00000000000E+00 -0.84963424105E+03  0.84963424106E+03  0.25500000000E-02 0.  1.
    5000001    1    1    2    0    0  0.13717334700E+01  0.29048623135E+03 -0.28796110379E+03  0.44105637911E+03  0.16500000000E+03 0.  0.
   -5000001    1    1    2    0    0 -0.13717334700E+01 -0.29048623135E+03 -0.42760990193E+03  0.54264109730E+03  0.16500000000E+03 0.  0.
<mgrwt>
<rscale>  0 0.67499545E+03</rscale>
<asrwt>0</asrwt>
<pdfrwt beam="1">  1        2 0.12137632E+00 0.67499545E+03</pdfrwt>
<pdfrwt beam="2">  1       -2 0.19151891E-01 0.67499545E+03</pdfrwt>
<totfact> 0.81150249E+02</totfact>
</mgrwt>
</event>
<event>
 4    1  0.5312547E-005  0.6646173E+03  0.7818608E-02  0.9779731E-01
         -2   -1    0    0    0  501 -0.00000000000E+00  0.00000000000E+00  0.17153922641E+03  0.17153922643E+03  0.25500000000E-02 0. -1.
          2   -1    0    0  501    0  0.00000000000E+00 -0.00000000000E+00 -0.64375387568E+03  0.64375387568E+03  0.25500000000E-02 0.  1.
    5000001    1    1    2    0    0 -0.28507824747E+02  0.26939622087E+03 -0.11456375099E+03  0.33724897766E+03  0.16500000000E+03 0.  0.
   -5000001    1    1    2    0    0  0.28507824747E+02 -0.26939622087E+03 -0.35765089828E+03  0.47804412446E+03  0.16500000000E+03 0.  0.
<mgrwt>
<rscale>  0 0.66461731E+03</rscale>
<asrwt>0</asrwt>
<pdfrwt beam="1">  1        2 0.91964838E-01 0.66461731E+03</pdfrwt>
<pdfrwt beam="2">  1       -2 0.24505604E-01 0.66461731E+03</pdfrwt>
<totfact> 0.74359753E+02</totfact>
</mgrwt>
</event>
<event>
 4    1  0.5312547E-005  0.4293875E+03  0.7818608E-02  0.1034054E+00
          2   -1    0    0  501    0  0.00000000000E+00  0.00000000000E+00  0.30474419636E+03  0.30474419637E+03  0.25500000000E-02 0.  1.
         -2   -1    0    0    0  501 -0.00000000000E+00 -0.00000000000E+00 -0.15125279889E+03  0.15125279891E+03  0.25500000000E-02 0. -1.
    5000001    1    1    2    0    0  0.11349207407E+03  0.59769724998E+02  0.24551789310E+02  0.21042970622E+03  0.16500000000E+03 0.  0.
   -5000001    1    1    2    0    0 -0.11349207407E+03 -0.59769724998E+02  0.12893960816E+03  0.24556728906E+03  0.16500000000E+03 0.  0.
<mgrwt>
<rscale>  0 0.42938753E+03</rscale>
<asrwt>0</asrwt>
<pdfrwt beam="1">  1        2 0.43534885E-01 0.42938753E+03</pdfrwt>
<pdfrwt beam="2">  1       -2 0.21607543E-01 0.42938753E+03</pdfrwt>
<totfact> 0.21588090E+03</totfact>
</mgrwt>
</event>
<event>
 4    1  0.5312547E-005  0.1034803E+04  0.7818608E-02  0.9271176E-01
          2   -1    0    0  501    0  0.00000000000E+00  0.00000000000E+00  0.11648281268E+04  0.11648281268E+04  0.25500000000E-02 0.  1.
         -2   -1    0    0    0  501 -0.00000000000E+00 -0.00000000000E+00 -0.22982322291E+03  0.22982322292E+03  0.25500000000E-02 0. -1.
    5000001    1    1    2    0    0 -0.16720786047E+03  0.38272776258E+03  0.12115411900E+03  0.46512614354E+03  0.16500000000E+03 0.  0.
   -5000001    1    1    2    0    0  0.16720786047E+03 -0.38272776258E+03  0.81385078485E+03  0.92952520614E+03  0.16500000000E+03 0.  0.
<mgrwt>
<rscale>  0 0.10348035E+04</rscale>
<asrwt>0</asrwt>
<pdfrwt beam="1">  1        2 0.16640402E+00 0.10348035E+04</pdfrwt>
<pdfrwt beam="2">  1       -2 0.32831889E-01 0.10348035E+04</pdfrwt>
<totfact> 0.19262957E+02</totfact>
</mgrwt>
</event>
<event>
 4    1  0.5312547E-005  0.6921102E+03  0.7818608E-02  0.9730821E-01
          2   -1    0    0  501    0  0.00000000000E+00  0.00000000000E+00  0.75913294280E+03  0.75913294281E+03  0.25500000000E-02 0.  1.
         -2   -1    0    0    0  501 -0.00000000000E+00 -0.00000000000E+00 -0.15775120874E+03  0.15775120876E+03  0.25500000000E-02 0. -1.
    5000001    1    1    2    0    0 -0.14682228948E+03  0.24118820661E+03  0.45057457499E+03  0.55675037793E+03  0.16500000000E+03 0.  0.
   -5000001    1    1    2    0    0  0.14682228948E+03 -0.24118820661E+03  0.15080715907E+03  0.36013377364E+03  0.16500000000E+03 0.  0.
<mgrwt>
<rscale>  0 0.69211022E+03</rscale>
<asrwt>0</asrwt>
<pdfrwt beam="1">  1        2 0.10844756E+00 0.69211022E+03</pdfrwt>
<pdfrwt beam="2">  1       -2 0.22535887E-01 0.69211022E+03</pdfrwt>
<totfact> 0.70464170E+02</totfact>
</mgrwt>
</event>
<event>
 4    1  0.5312547E-005  0.5498170E+03  0.7818608E-02  0.1001536E+00
         -2   -1    0    0    0  501 -0.00000000000E+00  0.00000000000E+00  0.87388244633E+02  0.87388244670E+02  0.25500000000E-02 0. -1.
          2   -1    0    0  501    0  0.00000000000E+00 -0.00000000000E+00 -0.86481518693E+03  0.86481518693E+03  0.25500000000E-02 0.  1.
    5000001    1    1    2    0    0  0.18389755358E+03 -0.11171035061E+03 -0.31025892899E+03  0.41204746774E+03  0.16500000000E+03 0.  0.
   -5000001    1    1    2    0    0 -0.18389755358E+03  0.11171035061E+03 -0.46716801330E+03  0.54015596387E+03  0.16500000000E+03 0.  0.
<mgrwt>
<rscale>  0 0.54981699E+03</rscale>
<asrwt>0</asrwt>
<pdfrwt beam="1">  1        2 0.12354502E+00 0.54981699E+03</pdfrwt>
<pdfrwt beam="2">  1       -2 0.12484035E-01 0.54981699E+03</pdfrwt>
<totfact> 0.16382799E+03</totfact>
</mgrwt>
</event>
<event>
 4    1  0.5312547E-005  0.7844623E+03  0.7818608E-02  0.9582784E-01
         -2   -1    0    0    0  501 -0.00000000000E+00  0.00000000000E+00  0.15599643030E+03  0.15599643032E+03  0.25500000000E-02 0. -1.
          2   -1    0    0  501    0  0.00000000000E+00 -0.00000000000E+00 -0.98621011205E+03  0.98621011205E+03  0.25500000000E-02 0.  1.
    5000001    1    1    2    0    0 -0.33870014590E+03 -0.42567463931E+02 -0.26884585799E+03  0.46479336611E+03  0.16500000000E+03 0.  0.
   -5000001    1    1    2    0    0  0.33870014590E+03  0.42567463931E+02 -0.56136782376E+03  0.67741317626E+03  0.16500000000E+03 0.  0.
<mgrwt>
<rscale>  0 0.78446225E+03</rscale>
<asrwt>0</asrwt>
<pdfrwt beam="1">  1        2 0.14088716E+00 0.78446225E+03</pdfrwt>
<pdfrwt beam="2">  1       -2 0.22285205E-01 0.78446225E+03</pdfrwt>
<totfact> 0.50621379E+02</totfact>
</mgrwt>
</event>
<event>
 4    1  0.5312547E-005  0.5274723E+03  0.7818608E-02  0.1006847E+00
          2   -1    0    0  501    0  0.00000000000E+00  0.00000000000E+00  0.15064432939E+03  0.15064432941E+03  0.25500000000E-02 0.  1.
         -2   -1    0    0    0  501 -0.00000000000E+00 -0.00000000000E+00 -0.46172833812E+03  0.46172833813E+03  0.25500000000E-02 0. -1.
    5000001    1    1    2    0    0  0.10509254466E+03  0.14814068618E+03 -0.26775106841E+03  0.36318829892E+03  0.16500000000E+03 0.  0.
   -5000001    1    1    2    0    0 -0.10509254466E+03 -0.14814068618E+03 -0.43332940326E+02  0.24918436861E+03  0.16500000000E+03 0.  0.
<mgrwt>
<rscale>  0 0.52747230E+03</rscale>
<asrwt>0</asrwt>
<pdfrwt beam="1">  1        2 0.21520619E-01 0.52747230E+03</pdfrwt>
<pdfrwt beam="2">  1       -2 0.65961191E-01 0.52747230E+03</pdfrwt>
<totfact> 0.55580964E+02</totfact>
</mgrwt>
</event>
<event>
 4    1  0.5312547E-005  0.4547755E+03  0.7818608E-02  0.1026307E+00
         -2   -1    0    0    0  501 -0.00000000000E+00  0.00000000000E+00  0.17311607224E+03  0.17311607226E+03  0.25500000000E-02 0. -1.
          2   -1    0    0  501    0  0.00000000000E+00 -0.00000000000E+00 -0.29867352014E+03  0.29867352015E+03  0.25500000000E-02 0.  1.
    5000001    1    1    2    0    0 -0.60221521420E+02 -0.14428198319E+03 -0.69026010744E+02  0.23755738775E+03  0.16500000000E+03 0.  0.
   -5000001    1    1    2    0    0  0.60221521420E+02  0.14428198319E+03 -0.56531437152E+02  0.23423220466E+03  0.16500000000E+03 0.  0.
<mgrwt>
<rscale>  0 0.45477549E+03</rscale>
<asrwt>0</asrwt>
<pdfrwt beam="1">  1        2 0.42667646E-01 0.45477549E+03</pdfrwt>
<pdfrwt beam="2">  1       -2 0.24730868E-01 0.45477549E+03</pdfrwt>
<totfact> 0.17401532E+03</totfact>
</mgrwt>
</event>
<event>
 4    1  0.5312547E-005  0.4204291E+03  0.7818608E-02  0.1036927E+00
          2   -1    0    0  501    0  0.00000000000E+00  0.00000000000E+00  0.23838167418E+03  0.23838167420E+03  0.25500000000E-02 0.  1.
         -2   -1    0    0    0  501 -0.00000000000E+00 -0.00000000000E+00 -0.18537561153E+03  0.18537561154E+03  0.25500000000E-02 0. -1.
    5000001    1    1    2    0    0  0.84189281686E+02 -0.50339582757E+02 -0.59868040576E+02  0.20107483936E+03  0.16500000000E+03 0.  0.
   -5000001    1    1    2    0    0 -0.84189281686E+02  0.50339582757E+02  0.11287410324E+03  0.22268244638E+03  0.16500000000E+03 0.  0.
<mgrwt>
<rscale>  0 0.42042906E+03</rscale>
<asrwt>0</asrwt>
<pdfrwt beam="1">  1        2 0.34054525E-01 0.42042906E+03</pdfrwt>
<pdfrwt beam="2">  1       -2 0.26482230E-01 0.42042906E+03</pdfrwt>
<totfact> 0.19705747E+03</totfact>
</mgrwt>
</event>
<event>
 4    1  0.5312547E-005  0.4206156E+03  0.7818608E-02  0.1036866E+00
          2   -1    0    0  501    0  0.00000000000E+00  0.00000000000E+00  0.97082615748E+03  0.97082615749E+03  0.25500000000E-02 0.  1.
         -2   -1    0    0    0  501 -0.00000000000E+00 -0.00000000000E+00 -0.45558489895E+02  0.45558489966E+02  0.25500000000E-02 0. -1.
    5000001    1    1    2    0    0 -0.12358918889E+03  0.20001946699E+02  0.55075898429E+03  0.58841721955E+03  0.16500000000E+03 0.  0.
   -5000001    1    1    2    0    0  0.12358918889E+03 -0.20001946699E+02  0.37450868330E+03  0.42796742791E+03  0.16500000000E+03 0.  0.
<mgrwt>
<rscale>  0 0.42061561E+03</rscale>
<asrwt>0</asrwt>
<pdfrwt beam="1">  1        2 0.13868947E+00 0.42061561E+03</pdfrwt>
<pdfrwt beam="2">  1       -2 0.65083550E-02 0.42061561E+03</pdfrwt>
<totfact> 0.39797557E+03</totfact>
</mgrwt>
</event>
<event>
 4    1  0.5312547E-005  0.5268783E+03  0.7818608E-02  0.1006992E+00
         -2   -1    0    0    0  501 -0.00000000000E+00  0.00000000000E+00  0.19338079127E+02  0.19338079295E+02  0.25500000000E-02 0. -1.
          2   -1    0    0  501    0  0.00000000000E+00 -0.00000000000E+00 -0.35887842786E+04  0.35887842786E+04  0.25500000000E-02 0.  1.
    5000001    1    1    2    0    0 -0.24532442509E+02 -0.14567591131E+03 -0.27616750703E+04  0.27705410131E+04  0.16500000000E+03 0.  0.
   -5000001    1    1    2    0    0  0.24532442509E+02  0.14567591131E+03 -0.80777112922E+03  0.83758134475E+03  0.16500000000E+03 0.  0.
<mgrwt>
<rscale>  0 0.52687833E+03</rscale>
<asrwt>0</asrwt>
<pdfrwt beam="1">  1        2 0.51268304E+00 0.52687833E+03</pdfrwt>
<pdfrwt beam="2">  1       -2 0.27625850E-02 0.52687833E+03</pdfrwt>
<totfact> 0.59675270E+02</totfact>
</mgrwt>
</event>
<event>
 4    1  0.5312547E-005  0.7572277E+03  0.7818608E-02  0.9624079E-01
          2   -1    0    0  501    0  0.00000000000E+00  0.00000000000E+00  0.10584743694E+04  0.10584743694E+04  0.25500000000E-02 0.  1.
         -2   -1    0    0    0  501 -0.00000000000E+00 -0.00000000000E+00 -0.13542931470E+03  0.13542931472E+03  0.25500000000E-02 0. -1.
    5000001    1    1    2    0    0 -0.14588208466E+03  0.20340408211E+03  0.96942885529E+02  0.31508368142E+03  0.16500000000E+03 0.  0.
   -5000001    1    1    2    0    0  0.14588208466E+03 -0.20340408211E+03  0.82610216917E+03  0.87882000270E+03  0.16500000000E+03 0.  0.
<mgrwt>
<rscale>  0 0.75722773E+03</rscale>
<asrwt>0</asrwt>
<pdfrwt beam="1">  1        2 0.15121062E+00 0.75722773E+03</pdfrwt>
<pdfrwt beam="2">  1       -2 0.19347045E-01 0.75722773E+03</pdfrwt>
<totfact> 0.58725332E+02</totfact>
</mgrwt>
</event>
<event>
 4    1  0.5312547E-005  0.6845625E+03  0.7818608E-02  0.9744003E-01
          2   -1    0    0  501    0  0.00000000000E+00  0.00000000000E+00  0.13362188195E+04  0.13362188195E+04  0.25500000000E-02 0.  1.
         -2   -1    0    0    0  501 -0.00000000000E+00 -0.00000000000E+00 -0.87677595335E+02  0.87677595372E+02  0.25500000000E-02 0. -1.
    5000001    1    1    2    0    0 -0.20451553022E+03  0.19818351268E+03  0.81970458064E+03  0.88331416060E+03  0.16500000000E+03 0.  0.
   -5000001    1    1    2    0    0  0.20451553022E+03 -0.19818351268E+03  0.42883664350E+03  0.54058225424E+03  0.16500000000E+03 0.  0.
<mgrwt>
<rscale>  0 0.68456250E+03</rscale>
<asrwt>0</asrwt>
<pdfrwt beam="1">  1        2 0.19088840E+00 0.68456250E+03</pdfrwt>
<pdfrwt beam="2">  1       -2 0.12525371E-01 0.68456250E+03</pdfrwt>
<totfact> 0.85762521E+02</totfact>
</mgrwt>
</event>
<event>
 4    1  0.5312547E-005  0.6540116E+03  0.7818608E-02  0.9799281E-01
         -2   -1    0    0    0  501 -0.00000000000E+00  0.00000000000E+00  0.64768934646E+02  0.64768934696E+02  0.25500000000E-02 0. -1.
          2   -1    0    0  501    0  0.00000000000E+00 -0.00000000000E+00 -0.16509890717E+04  0.16509890717E+04  0.25500000000E-02 0.  1.
    5000001    1    1    2    0    0 -0.19999084863E+03  0.89147912739E+02 -0.32554836578E+03  0.42561770210E+03  0.16500000000E+03 0.  0.
   -5000001    1    1    2    0    0  0.19999084863E+03 -0.89147912739E+02 -0.12606717713E+04  0.12901403043E+04  0.16500000000E+03 0.  0.
<mgrwt>
<rscale>  0 0.65401163E+03</rscale>
<asrwt>0</asrwt>
<pdfrwt beam="1">  1        2 0.23585556E+00 0.65401163E+03</pdfrwt>
<pdfrwt beam="2">  1       -2 0.92527060E-02 0.65401163E+03</pdfrwt>
<totfact> 0.96306837E+02</totfact>
</mgrwt>
</event>
<event>
 4    1  0.5312547E-005  0.8110360E+03  0.7818608E-02  0.9544179E-01
         -2   -1    0    0    0  501 -0.00000000000E+00  0.00000000000E+00  0.97697824265E+02  0.97697824299E+02  0.25500000000E-02 0. -1.
          2   -1    0    0  501    0  0.00000000000E+00 -0.00000000000E+00 -0.16831988503E+04  0.16831988503E+04  0.25500000000E-02 0.  1.
    5000001    1    1    2    0    0 -0.29307907364E+03 -0.19963765183E+03 -0.55758826987E+03  0.68108752310E+03  0.16500000000E+03 0.  0.
   -5000001    1    1    2    0    0  0.29307907364E+03  0.19963765183E+03 -0.10279127562E+04  0.10998091515E+04  0.16500000000E+03 0.  0.
<mgrwt>
<rscale>  0 0.81103604E+03</rscale>
<asrwt>0</asrwt>
<pdfrwt beam="1">  1        2 0.24045696E+00 0.81103604E+03</pdfrwt>
<pdfrwt beam="2">  1       -2 0.13956833E-01 0.81103604E+03</pdfrwt>
<totfact> 0.46755729E+02</totfact>
</mgrwt>
</event>
<event>
 4    1  0.5312547E-005  0.4809429E+03  0.7818608E-02  0.1018876E+00
          2   -1    0    0  501    0  0.00000000000E+00  0.00000000000E+00  0.18117959227E+04  0.18117959227E+04  0.25500000000E-02 0.  1.
         -2   -1    0    0    0  501 -0.00000000000E+00 -0.00000000000E+00 -0.31916684227E+02  0.31916684329E+02  0.25500000000E-02 0. -1.
    5000001    1    1    2    0    0  0.70132765682E+02  0.45422613131E+02  0.30077468051E+03  0.35308954536E+03  0.16500000000E+03 0.  0.
   -5000001    1    1    2    0    0 -0.70132765682E+02 -0.45422613131E+02  0.14791045580E+04  0.14906230617E+04  0.16500000000E+03 0.  0.
<mgrwt>
<rscale>  0 0.48094290E+03</rscale>
<asrwt>0</asrwt>
<pdfrwt beam="1">  1        2 0.25882803E+00 0.48094290E+03</pdfrwt>
<pdfrwt beam="2">  1       -2 0.45595257E-02 0.48094290E+03</pdfrwt>
<totfact> 0.24458977E+03</totfact>
</mgrwt>
</event>
<event>
 4    1  0.5312547E-005  0.3811317E+03  0.7818608E-02  0.1050516E+00
          2   -1    0    0  501    0  0.00000000000E+00  0.00000000000E+00  0.95328486519E+03  0.95328486519E+03  0.25500000000E-02 0.  1.
         -2   -1    0    0    0  501 -0.00000000000E+00 -0.00000000000E+00 -0.38094958974E+02  0.38094959059E+02  0.25500000000E-02 0. -1.
    5000001    1    1    2    0    0 -0.80730549860E+02 -0.48214283934E+02  0.41660652892E+03  0.45785154668E+03  0.16500000000E+03 0.  0.
   -5000001    1    1    2    0    0  0.80730549860E+02  0.48214283934E+02  0.49858337729E+03  0.53352827757E+03  0.16500000000E+03 0.  0.
<mgrwt>
<rscale>  0 0.38113172E+03</rscale>
<asrwt>0</asrwt>
<pdfrwt beam="1">  1        2 0.13618354E+00 0.38113172E+03</pdfrwt>
<pdfrwt beam="2">  1       -2 0.54421375E-02 0.38113172E+03</pdfrwt>
<totfact> 0.53756372E+03</totfact>
</mgrwt>
</event>
<event>
 4    1  0.5312547E-005  0.4722291E+03  0.7818608E-02  0.1021293E+00
          2   -1    0    0  501    0  0.00000000000E+00  0.00000000000E+00  0.97059583982E+02  0.97059584015E+02  0.25500000000E-02 0.  1.
         -2   -1    0    0    0  501 -0.00000000000E+00 -0.00000000000E+00 -0.57439029800E+03  0.57439029800E+03  0.25500000000E-02 0. -1.
    5000001    1    1    2    0    0  0.30616355916E+02  0.16063868610E+03 -0.29870368089E+03  0.37840591657E+03  0.16500000000E+03 0.  0.
   -5000001    1    1    2    0    0 -0.30616355916E+02 -0.16063868610E+03 -0.17862703312E+03  0.29304396544E+03  0.16500000000E+03 0.  0.
<mgrwt>
<rscale>  0 0.47222911E+03</rscale>
<asrwt>0</asrwt>
<pdfrwt beam="1">  1        2 0.13865655E-01 0.47222911E+03</pdfrwt>
<pdfrwt beam="2">  1       -2 0.82055755E-01 0.47222911E+03</pdfrwt>
<totfact> 0.58055614E+02</totfact>
</mgrwt>
</event>
<event>
 4    1  0.5312547E-005  0.5014952E+03  0.7818608E-02  0.1013389E+00
         -2   -1    0    0    0  501 -0.00000000000E+00  0.00000000000E+00  0.60460760039E+03  0.60460760040E+03  0.25500000000E-02 0. -1.
          2   -1    0    0  501    0  0.00000000000E+00 -0.00000000000E+00 -0.10399199259E+03  0.10399199262E+03  0.25500000000E-02 0.  1.
    5000001    1    1    2    0    0  0.14877113542E+03  0.22716322268E+02  0.89201093594E+02  0.24048018033E+03  0.16500000000E+03 0.  0.
   -5000001    1    1    2    0    0 -0.14877113542E+03 -0.22716322268E+02  0.41141451421E+03  0.46811941269E+03  0.16500000000E+03 0.  0.
<mgrwt>
<rscale>  0 0.50149516E+03</rscale>
<asrwt>0</asrwt>
<pdfrwt beam="1">  1        2 0.14855999E-01 0.50149516E+03</pdfrwt>
<pdfrwt beam="2">  1       -2 0.86372512E-01 0.50149516E+03</pdfrwt>
<totfact> 0.47564128E+02</totfact>
</mgrwt>
</event>
<event>
 4    1  0.5312547E-005  0.4374905E+03  0.7818608E-02  0.1031520E+00
          2   -1    0    0  501    0  0.00000000000E+00  0.00000000000E+00  0.15866028252E+04  0.15866028252E+04  0.25500000000E-02 0.  1.
         -2   -1    0    0    0  501 -0.00000000000E+00 -0.00000000000E+00 -0.30158453300E+02  0.30158453408E+02  0.25500000000E-02 0. -1.
    5000001    1    1    2    0    0 -0.14316661948E+03  0.14001310624E+01  0.81967909959E+03  0.84829090977E+03  0.16500000000E+03 0.  0.
   -5000001    1    1    2    0    0  0.14316661948E+03 -0.14001310624E+01  0.73676527233E+03  0.76847036886E+03  0.16500000000E+03 0.  0.
<mgrwt>
<rscale>  0 0.43749051E+03</rscale>
<asrwt>0</asrwt>
<pdfrwt beam="1">  1        2 0.22665755E+00 0.43749051E+03</pdfrwt>
<pdfrwt beam="2">  1       -2 0.43083505E-02 0.43749051E+03</pdfrwt>
<totfact> 0.34675018E+03</totfact>
</mgrwt>
</event>
<event>
 4    1  0.5312547E-005  0.6360314E+03  0.7818608E-02  0.9833349E-01
         -2   -1    0    0    0  501 -0.00000000000E+00  0.00000000000E+00  0.75293309587E+03  0.75293309587E+03  0.25500000000E-02 0. -1.
          2   -1    0    0  501    0  0.00000000000E+00 -0.00000000000E+00 -0.13431999824E+03  0.13431999826E+03  0.25500000000E-02 0.  1.
    5000001    1    1    2    0    0 -0.26925065554E+03  0.35500646349E+02  0.29206505678E+03  0.43160538550E+03  0.16500000000E+03 0.  0.
   -5000001    1    1    2    0    0  0.26925065554E+03 -0.35500646349E+02  0.32654804085E+03  0.45564770864E+03  0.16500000000E+03 0.  0.
<mgrwt>
<rscale>  0 0.63603136E+03</rscale>
<asrwt>0</asrwt>
<pdfrwt beam="1">  1        2 0.19188571E-01 0.63603136E+03</pdfrwt>
<pdfrwt beam="2">  1       -2 0.10756187E+00 0.63603136E+03</pdfrwt>
<totfact> 0.20939511E+02</totfact>
</mgrwt>
</event>
<event>
 4    1  0.5312547E-005  0.6064827E+03  0.7818608E-02  0.9892047E-01
         -2   -1    0    0    0  501 -0.00000000000E+00  0.00000000000E+00  0.11528315456E+03  0.11528315459E+03  0.25500000000E-02 0. -1.
          2   -1    0    0  501    0  0.00000000000E+00 -0.00000000000E+00 -0.79764754145E+03  0.79764754146E+03  0.25500000000E-02 0.  1.
    5000001    1    1    2    0    0  0.10317842721E+03 -0.97176545057E+01 -0.69094727948E+03  0.71789509239E+03  0.16500000000E+03 0.  0.
   -5000001    1    1    2    0    0 -0.10317842721E+03  0.97176545057E+01  0.85828925926E+01  0.19503560366E+03  0.16500000000E+03 0.  0.
<mgrwt>
<rscale>  0 0.60648273E+03</rscale>
<asrwt>0</asrwt>
<pdfrwt beam="1">  1        2 0.11394965E+00 0.60648273E+03</pdfrwt>
<pdfrwt beam="2">  1       -2 0.16469023E-01 0.60648273E+03</pdfrwt>
<totfact> 0.11429844E+03</totfact>
</mgrwt>
</event>
<event>
 4    1  0.5312547E-005  0.4473747E+03  0.7818608E-02  0.1028508E+00
         -2   -1    0    0    0  501 -0.00000000000E+00  0.00000000000E+00  0.21211757780E+02  0.21211757934E+02  0.25500000000E-02 0. -1.
          2   -1    0    0  501    0  0.00000000000E+00 -0.00000000000E+00 -0.23588820017E+04  0.23588820017E+04  0.25500000000E-02 0.  1.
    5000001    1    1    2    0    0  0.63856954156E+02 -0.12304480025E+03 -0.14877460436E+04  0.15032734361E+04  0.16500000000E+03 0.  0.
   -5000001    1    1    2    0    0 -0.63856954156E+02  0.12304480025E+03 -0.84992420038E+03  0.87682032359E+03  0.16500000000E+03 0.  0.
<mgrwt>
<rscale>  0 0.44737471E+03</rscale>
<asrwt>0</asrwt>
<pdfrwt beam="1">  1        2 0.33698298E+00 0.44737471E+03</pdfrwt>
<pdfrwt beam="2">  1       -2 0.30302526E-02 0.44737471E+03</pdfrwt>
<totfact> 0.24332177E+03</totfact>
</mgrwt>
</event>
<event>
 4    1  0.5312547E-005  0.7555368E+03  0.7818608E-02  0.9626704E-01
         -2   -1    0    0    0  501 -0.00000000000E+00  0.00000000000E+00  0.10575387227E+03  0.10575387230E+03  0.25500000000E-02 0. -1.
          2   -1    0    0  501    0  0.00000000000E+00 -0.00000000000E+00 -0.13494442609E+04  0.13494442609E+04  0.25500000000E-02 0.  1.
    5000001    1    1    2    0    0 -0.19809331621E+03 -0.16669769862E+03 -0.10458153057E+04  0.10899466677E+04  0.16500000000E+03 0.  0.
   -5000001    1    1    2    0    0  0.19809331621E+03  0.16669769862E+03 -0.19787508290E+03  0.36525146555E+03  0.16500000000E+03 0.  0.
<mgrwt>
<rscale>  0 0.75553678E+03</rscale>
<asrwt>0</asrwt>
<pdfrwt beam="1">  1        2 0.19277774E+00 0.75553678E+03</pdfrwt>
<pdfrwt beam="2">  1       -2 0.15107697E-01 0.75553678E+03</pdfrwt>
<totfact> 0.61449315E+02</totfact>
</mgrwt>
</event>
<event>
 4    1  0.5312547E-005  0.4691446E+03  0.7818608E-02  0.1022162E+00
          2   -1    0    0  501    0  0.00000000000E+00  0.00000000000E+00  0.12295720719E+04  0.12295720719E+04  0.25500000000E-02 0.  1.
         -2   -1    0    0    0  501 -0.00000000000E+00 -0.00000000000E+00 -0.44750670040E+02  0.44750670113E+02  0.25500000000E-02 0. -1.
    5000001    1    1    2    0    0 -0.82283392345E+02  0.10028255670E+03  0.30788854455E+03  0.37262246805E+03  0.16500000000E+03 0.  0.
   -5000001    1    1    2    0    0  0.82283392345E+02 -0.10028255670E+03  0.87693285735E+03  0.90170027400E+03  0.16500000000E+03 0.  0.
<mgrwt>
<rscale>  0 0.46914464E+03</rscale>
<asrwt>0</asrwt>
<pdfrwt beam="1">  1        2 0.17565316E+00 0.46914464E+03</pdfrwt>
<pdfrwt beam="2">  1       -2 0.63929525E-02 0.46914464E+03</pdfrwt>
<totfact> 0.29038347E+03</totfact>
</mgrwt>
</event>
<event>
 4    1  0.5312547E-005  0.6518526E+03  0.7818608E-02  0.9803309E-01
         -2   -1    0    0    0  501 -0.00000000000E+00  0.00000000000E+00  0.10906521747E+03  0.10906521750E+03  0.25500000000E-02 0.  1.
          2   -1    0    0  501    0  0.00000000000E+00 -0.00000000000E+00 -0.97398568575E+03  0.97398568575E+03  0.25500000000E-02 0. -1.
    5000001    1    1    2    0    0 -0.20353996609E+03  0.16013138008E+03 -0.25096590453E+03  0.39658474746E+03  0.16500000000E+03 0.  0.
   -5000001    1    1    2    0    0  0.20353996609E+03 -0.16013138008E+03 -0.61395456376E+03  0.68646615579E+03  0.16500000000E+03 0.  0.
<mgrwt>
<rscale>  0 0.65185262E+03</rscale>
<asrwt>0</asrwt>
<pdfrwt beam="1">  1        2 0.13914081E+00 0.65185262E+03</pdfrwt>
<pdfrwt beam="2">  1       -2 0.15580746E-01 0.65185262E+03</pdfrwt>
<totfact> 0.96182962E+02</totfact>
</mgrwt>
</event>
<event>
 4    1  0.5312547E-005  0.5417438E+03  0.7818608E-02  0.1003423E+00
         -2   -1    0    0    0  501 -0.00000000000E+00  0.00000000000E+00  0.86412947127E+03  0.86412947128E+03  0.25500000000E-02 0. -1.
          2   -1    0    0  501    0  0.00000000000E+00 -0.00000000000E+00 -0.84908089637E+02  0.84908089675E+02  0.25500000000E-02 0.  1.
    5000001    1    1    2    0    0 -0.63207920071E+02  0.16493429437E+03  0.60379186609E+03  0.65037541480E+03  0.16500000000E+03 0.  0.
   -5000001    1    1    2    0    0  0.63207920071E+02 -0.16493429437E+03  0.17542951554E+03  0.29866214615E+03  0.16500000000E+03 0.  0.
<mgrwt>
<rscale>  0 0.54174379E+03</rscale>
<asrwt>0</asrwt>
<pdfrwt beam="1">  1        2 0.12129727E-01 0.54174379E+03</pdfrwt>
<pdfrwt beam="2">  1       -2 0.12344707E+00 0.54174379E+03</pdfrwt>
<totfact> 0.26127240E+02</totfact>
</mgrwt>
</event>
<event>
 4    1  0.5312547E-005  0.3631233E+03  0.7818608E-02  0.1057354E+00
         -2   -1    0    0    0  501 -0.00000000000E+00  0.00000000000E+00  0.31108696273E+02  0.31108696377E+02  0.25500000000E-02 0.  1.
          2   -1    0    0  501    0  0.00000000000E+00 -0.00000000000E+00 -0.10596599563E+04  0.10596599563E+04  0.25500000000E-02 0. -1.
    5000001    1    1    2    0    0 -0.19109412532E+02 -0.62688714929E+02 -0.40010574491E+03  0.43772668611E+03  0.16500000000E+03 0.  0.
   -5000001    1    1    2    0    0  0.19109412532E+02  0.62688714929E+02 -0.62844551516E+03  0.65304196661E+03  0.16500000000E+03 0.  0.
<mgrwt>
<rscale>  0 0.36312334E+03</rscale>
<asrwt>0</asrwt>
<pdfrwt beam="1">  1        2 0.15137997E+00 0.36312334E+03</pdfrwt>
<pdfrwt beam="2">  1       -2 0.44441001E-02 0.36312334E+03</pdfrwt>
<totfact> 0.63296424E+03</totfact>
</mgrwt>
</event>
<event>
 4    1  0.5312547E-005  0.4409748E+03  0.7818608E-02  0.1030448E+00
         -2   -1    0    0    0  501 -0.00000000000E+00  0.00000000000E+00  0.11353748759E+03  0.11353748762E+03  0.25500000000E-02 0. -1.
          2   -1    0    0  501    0  0.00000000000E+00 -0.00000000000E+00 -0.42818189803E+03  0.42818189804E+03  0.25500000000E-02 0.  1.
    5000001    1    1    2    0    0  0.35603741188E+02 -0.11552218039E+03 -0.56194627512E+02  0.21212222116E+03  0.16500000000E+03 0.  0.
   -5000001    1    1    2    0    0 -0.35603741188E+02  0.11552218039E+03 -0.25844978292E+03  0.32959716449E+03  0.16500000000E+03 0.  0.
<mgrwt>
<rscale>  0 0.44097482E+03</rscale>
<asrwt>0</asrwt>
<pdfrwt beam="1">  1        2 0.61168842E-01 0.44097482E+03</pdfrwt>
<pdfrwt beam="2">  1       -2 0.16219641E-01 0.44097482E+03</pdfrwt>
<totfact> 0.24324202E+03</totfact>
</mgrwt>
</event>
<event>
 4    1  0.5312547E-005  0.3916070E+03  0.7818608E-02  0.1046725E+00
          2   -1    0    0  501    0  0.00000000000E+00  0.00000000000E+00  0.68901295230E+03  0.68901295231E+03  0.25500000000E-02 0.  1.
         -2   -1    0    0    0  501 -0.00000000000E+00 -0.00000000000E+00 -0.55643378402E+02  0.55643378460E+02  0.25500000000E-02 0. -1.
    5000001    1    1    2    0    0  0.19684525275E+02  0.10146203227E+03  0.27716275684E+03  0.33871258953E+03  0.16500000000E+03 0.  0.
   -5000001    1    1    2    0    0 -0.19684525275E+02 -0.10146203227E+03  0.35620681706E+03  0.40594374124E+03  0.16500000000E+03 0.  0.
<mgrwt>
<rscale>  0 0.39160699E+03</rscale>
<asrwt>0</asrwt>
<pdfrwt beam="1">  1        2 0.98430418E-01 0.39160699E+03</pdfrwt>
<pdfrwt beam="2">  1       -2 0.79490544E-02 0.39160699E+03</pdfrwt>
<totfact> 0.44961244E+03</totfact>
</mgrwt>
</event>
<event>
 4    1  0.5312547E-005  0.3446208E+03  0.7818608E-02  0.1064845E+00
          2   -1    0    0  501    0  0.00000000000E+00  0.00000000000E+00  0.43243324224E+03  0.43243324225E+03  0.25500000000E-02 0.  1.
         -2   -1    0    0    0  501 -0.00000000000E+00 -0.00000000000E+00 -0.68660031503E+02  0.68660031551E+02  0.25500000000E-02 0. -1.
    5000001    1    1    2    0    0 -0.46688075170E+02  0.16196210956E+02  0.17479504614E+03  0.24539845511E+03  0.16500000000E+03 0.  0.
   -5000001    1    1    2    0    0  0.46688075170E+02 -0.16196210956E+02  0.18897816459E+03  0.25569481869E+03  0.16500000000E+03 0.  0.
<mgrwt>
<rscale>  0 0.34462084E+03</rscale>
<asrwt>0</asrwt>
<pdfrwt beam="1">  1        2 0.61776178E-01 0.34462084E+03</pdfrwt>
<pdfrwt beam="2">  1       -2 0.98085759E-02 0.34462084E+03</pdfrwt>
<totfact> 0.54597353E+03</totfact>
</mgrwt>
</event>
<event>
 4    1  0.5312547E-005  0.5856075E+03  0.7818608E-02  0.9935724E-01
         -2   -1    0    0    0  501 -0.00000000000E+00  0.00000000000E+00  0.37019614473E+03  0.37019614474E+03  0.25500000000E-02 0. -1.
          2   -1    0    0  501    0  0.00000000000E+00 -0.00000000000E+00 -0.23159080258E+03  0.23159080259E+03  0.25500000000E-02 0.  1.
    5000001    1    1    2    0    0 -0.14228406849E+03 -0.18764400896E+03  0.12609244218E+03  0.31397346101E+03  0.16500000000E+03 0.  0.
   -5000001    1    1    2    0    0  0.14228406849E+03  0.18764400896E+03  0.12512899978E+02  0.28781348633E+03  0.16500000000E+03 0.  0.
<mgrwt>
<rscale>  0 0.58560745E+03</rscale>
<asrwt>0</asrwt>
<pdfrwt beam="1">  1        2 0.33084401E-01 0.58560745E+03</pdfrwt>
<pdfrwt beam="2">  1       -2 0.52885163E-01 0.58560745E+03</pdfrwt>
<totfact> 0.54147820E+02</totfact>
</mgrwt>
</event>
<event>
 4    1  0.5312547E-005  0.6020072E+03  0.7818608E-02  0.9901250E-01
          2   -1    0    0  501    0  0.00000000000E+00  0.00000000000E+00  0.48397825521E+03  0.48397825522E+03  0.25500000000E-02 0.  1.
         -2   -1    0    0    0  501 -0.00000000000E+00 -0.00000000000E+00 -0.18720504907E+03  0.18720504909E+03  0.25500000000E-02 0. -1.
    5000001    1    1    2    0    0  0.19685763905E+03 -0.10373916402E+03  0.27965941072E+03  0.39363578370E+03  0.16500000000E+03 0.  0.
   -5000001    1    1    2    0    0 -0.19685763905E+03  0.10373916402E+03  0.17113795426E+02  0.27754752061E+03  0.16500000000E+03 0.  0.
<mgrwt>
<rscale>  0 0.60200722E+03</rscale>
<asrwt>0</asrwt>
<pdfrwt beam="1">  1        2 0.69139750E-01 0.60200722E+03</pdfrwt>
<pdfrwt beam="2">  1       -2 0.26743579E-01 0.60200722E+03</pdfrwt>
<totfact> 0.88608698E+02</totfact>
</mgrwt>
</event>
<event>
 4    1  0.5312547E-005  0.5128670E+03  0.7818608E-02  0.1010474E+00
          2   -1    0    0  501    0  0.00000000000E+00  0.00000000000E+00  0.74454598250E+02  0.74454598294E+02  0.25500000000E-02 0.  1.
         -2   -1    0    0    0  501 -0.00000000000E+00 -0.00000000000E+00 -0.88319786457E+03  0.88319786458E+03  0.25500000000E-02 0. -1.
    5000001    1    1    2    0    0  0.11945030826E+03  0.13858594918E+03 -0.27156411484E+03  0.36666948322E+03  0.16500000000E+03 0.  0.
   -5000001    1    1    2    0    0 -0.11945030826E+03 -0.13858594918E+03 -0.53717915148E+03  0.59098297965E+03  0.16500000000E+03 0.  0.
<mgrwt>
<rscale>  0 0.51286701E+03</rscale>
<asrwt>0</asrwt>
<pdfrwt beam="1">  1        2 0.10636372E-01 0.51286701E+03</pdfrwt>
<pdfrwt beam="2">  1       -2 0.12617112E+00 0.51286701E+03</pdfrwt>
<totfact> 0.29174316E+02</totfact>
</mgrwt>
</event>
<event>
 4    1  0.5312547E-005  0.1065933E+04  0.7818608E-02  0.9239047E-01
          2   -1    0    0  501    0  0.00000000000E+00  0.00000000000E+00  0.39600862204E+03  0.39600862205E+03  0.25500000000E-02 0.  1.
         -2   -1    0    0    0  501 -0.00000000000E+00 -0.00000000000E+00 -0.71729134290E+03  0.71729134291E+03  0.25500000000E-02 0. -1.
    5000001    1    1    2    0    0  0.43979044786E+03  0.11151742336E+03  0.75171939006E+02  0.48859757895E+03  0.16500000000E+03 0.  0.
   -5000001    1    1    2    0    0 -0.43979044786E+03 -0.11151742336E+03 -0.39645465987E+03  0.62470238600E+03  0.16500000000E+03 0.  0.
<mgrwt>
<rscale>  0 0.10659335E+04</rscale>
<asrwt>0</asrwt>
<pdfrwt beam="1">  1        2 0.56572660E-01 0.10659335E+04</pdfrwt>
<pdfrwt beam="2">  1       -2 0.10247019E+00 0.10659335E+04</pdfrwt>
<totfact> 0.67859956E+01</totfact>
</mgrwt>
</event>
<event>
 4    1  0.5312547E-005  0.8551153E+03  0.7818608E-02  0.9483497E-01
          2   -1    0    0  501    0  0.00000000000E+00  0.00000000000E+00  0.11434091882E+04  0.11434091882E+04  0.25500000000E-02 0.  1.
         -2   -1    0    0    0  501 -0.00000000000E+00 -0.00000000000E+00 -0.15987761597E+03  0.15987761599E+03  0.25500000000E-02 0. -1.
    5000001    1    1    2    0    0  0.31413668152E+03  0.23695493592E+03  0.44999751413E+03  0.62012277740E+03  0.16500000000E+03 0.  0.
   -5000001    1    1    2    0    0 -0.31413668152E+03 -0.23695493592E+03  0.53353405806E+03  0.68316402675E+03  0.16500000000E+03 0.  0.
<mgrwt>
<rscale>  0 0.85511528E+03</rscale>
<asrwt>0</asrwt>
<pdfrwt beam="1">  1        2 0.16334417E+00 0.85511528E+03</pdfrwt>
<pdfrwt beam="2">  1       -2 0.22839660E-01 0.85511528E+03</pdfrwt>
<totfact> 0.38914613E+02</totfact>
</mgrwt>
</event>
<event>
 4    1  0.5312547E-005  0.4617924E+03  0.7818608E-02  0.1024263E+00
          2   -1    0    0  501    0  0.00000000000E+00  0.00000000000E+00  0.14210379207E+04  0.14210379207E+04  0.25500000000E-02 0. -1.
         -2   -1    0    0    0  501 -0.00000000000E+00 -0.00000000000E+00 -0.37516977611E+02  0.37516977698E+02  0.25500000000E-02 0.  1.
    5000001    1    1    2    0    0  0.14335282487E+03 -0.73915080584E+02  0.71903622107E+03  0.75515002400E+03  0.16500000000E+03 0.  0.
   -5000001    1    1    2    0    0 -0.14335282487E+03  0.73915080584E+02  0.66448472205E+03  0.70340487443E+03  0.16500000000E+03 0.  0.
<mgrwt>
<rscale>  0 0.46179237E+03</rscale>
<asrwt>0</asrwt>
<pdfrwt beam="1">  1        2 0.20300541E+00 0.46179237E+03</pdfrwt>
<pdfrwt beam="2">  1       -2 0.53595684E-02 0.46179237E+03</pdfrwt>
<totfact> 0.30162306E+03</totfact>
</mgrwt>
</event>
<event>
 4    1  0.5312547E-005  0.4908718E+03  0.7818608E-02  0.1016189E+00
         -2   -1    0    0    0  501 -0.00000000000E+00  0.00000000000E+00  0.26859890209E+02  0.26859890330E+02  0.25500000000E-02 0. -1.
          2   -1    0    0  501    0  0.00000000000E+00 -0.00000000000E+00 -0.22427042631E+04  0.22427042631E+04  0.25500000000E-02 0.  1.
    5000001    1    1    2    0    0  0.16220116803E+03  0.57038332739E+01 -0.73025992000E+03  0.76605894250E+03  0.16500000000E+03 0.  0.
   -5000001    1    1    2    0    0 -0.16220116803E+03 -0.57038332739E+01 -0.14855844529E+04  0.15035052109E+04  0.16500000000E+03 0.  0.
<mgrwt>
<rscale>  0 0.49087184E+03</rscale>
<asrwt>0</asrwt>
<pdfrwt beam="1">  1        2 0.32038620E+00 0.49087184E+03</pdfrwt>
<pdfrwt beam="2">  1       -2 0.38371286E-02 0.49087184E+03</pdfrwt>
<totfact> 0.19402912E+03</totfact>
</mgrwt>
</event>
<event>
 4    1  0.5312547E-005  0.6817911E+03  0.7818608E-02  0.9748889E-01
          2   -1    0    0  501    0  0.00000000000E+00  0.00000000000E+00  0.35978634113E+03  0.35978634114E+03  0.25500000000E-02 0.  1.
         -2   -1    0    0    0  501 -0.00000000000E+00 -0.00000000000E+00 -0.32299662323E+03  0.32299662324E+03  0.25500000000E-02 0. -1.
    5000001    1    1    2    0    0  0.14164138553E+03  0.22569255563E+03  0.15269947513E+03  0.34862808474E+03  0.16500000000E+03 0.  0.
   -5000001    1    1    2    0    0 -0.14164138553E+03 -0.22569255563E+03 -0.11590975723E+03  0.33415487964E+03  0.16500000000E+03 0.  0.
<mgrwt>
<rscale>  0 0.68179109E+03</rscale>
<asrwt>0</asrwt>
<pdfrwt beam="1">  1        2 0.51398049E-01 0.68179109E+03</pdfrwt>
<pdfrwt beam="2">  1       -2 0.46142375E-01 0.68179109E+03</pdfrwt>
<totfact> 0.43700664E+02</totfact>
</mgrwt>
</event>
<event>
 4    1  0.5312547E-005  0.7229833E+03  0.7818608E-02  0.9678715E-01
         -2   -1    0    0    0  501 -0.00000000000E+00  0.00000000000E+00  0.52864961005E+02  0.52864961066E+02  0.25500000000E-02 0. -1.
          2   -1    0    0  501    0  0.00000000000E+00 -0.00000000000E+00 -0.24718871619E+04  0.24718871619E+04  0.25500000000E-02 0.  1.
    5000001    1    1    2    0    0 -0.21301601264E+03  0.23817195370E+03 -0.13377972304E+04  0.13852899086E+04  0.16500000000E+03 0.  0.
   -5000001    1    1    2    0    0  0.21301601264E+03 -0.23817195370E+03 -0.10812249705E+04  0.11394622144E+04  0.16500000000E+03 0.  0.
<mgrwt>
<rscale>  0 0.72298332E+03</rscale>
<asrwt>0</asrwt>
<pdfrwt beam="1">  1        2 0.35312666E+00 0.72298332E+03</pdfrwt>
<pdfrwt beam="2">  1       -2 0.75521389E-02 0.72298332E+03</pdfrwt>
<totfact> 0.50877993E+02</totfact>
</mgrwt>
</event>
<event>
 4    1  0.5312547E-005  0.5280872E+03  0.7818608E-02  0.1006697E+00
          2   -1    0    0  501    0  0.00000000000E+00  0.00000000000E+00  0.47952622083E+03  0.47952622084E+03  0.25500000000E-02 0.  1.
         -2   -1    0    0    0  501 -0.00000000000E+00 -0.00000000000E+00 -0.14539146142E+03  0.14539146145E+03  0.25500000000E-02 0. -1.
    5000001    1    1    2    0    0 -0.18290785264E+03  0.62976917640E+02  0.82785473283E+02  0.26739448255E+03  0.16500000000E+03 0.  0.
   -5000001    1    1    2    0    0  0.18290785264E+03 -0.62976917640E+02  0.25134928613E+03  0.35752319973E+03  0.16500000000E+03 0.  0.
<mgrwt>
<rscale>  0 0.52808718E+03</rscale>
<asrwt>0</asrwt>
<pdfrwt beam="1">  1        2 0.68503747E-01 0.52808718E+03</pdfrwt>
<pdfrwt beam="2">  1       -2 0.20770209E-01 0.52808718E+03</pdfrwt>
<totfact> 0.14043010E+03</totfact>
</mgrwt>
</event>
<event>
 4    1  0.5312547E-005  0.6137927E+03  0.7818608E-02  0.9877197E-01
          2   -1    0    0  501    0  0.00000000000E+00  0.00000000000E+00  0.11054804717E+04  0.11054804717E+04  0.25500000000E-02 0. -1.
         -2   -1    0    0    0  501 -0.00000000000E+00 -0.00000000000E+00 -0.85198572343E+02  0.85198572381E+02  0.25500000000E-02 0.  1.
    5000001    1    1    2    0    0 -0.39840864943E+02 -0.25484735181E+03  0.47010758365E+03  0.56103529965E+03  0.16500000000E+03 0.  0.
   -5000001    1    1    2    0    0  0.39840864943E+02  0.25484735181E+03  0.55017431568E+03  0.62964374442E+03  0.16500000000E+03 0.  0.
<mgrwt>
<rscale>  0 0.61379266E+03</rscale>
<asrwt>0</asrwt>
<pdfrwt beam="1">  1        2 0.15792578E+00 0.61379266E+03</pdfrwt>
<pdfrwt beam="2">  1       -2 0.12171225E-01 0.61379266E+03</pdfrwt>
<totfact> 0.12131711E+03</totfact>
</mgrwt>
</event>
<event>
 4    1  0.5312547E-005  0.4232946E+03  0.7818608E-02  0.1035999E+00
          2   -1    0    0  501    0  0.00000000000E+00  0.00000000000E+00  0.22068614977E+03  0.22068614978E+03  0.25500000000E-02 0.  1.
         -2   -1    0    0    0  501 -0.00000000000E+00 -0.00000000000E+00 -0.20297863549E+03  0.20297863551E+03  0.25500000000E-02 0. -1.
    5000001    1    1    2    0    0 -0.94633671079E+02  0.61355548785E+02 -0.60845776728E+02  0.20891922749E+03  0.16500000000E+03 0.  0.
   -5000001    1    1    2    0    0  0.94633671079E+02 -0.61355548785E+02  0.78553291002E+02  0.21474555780E+03  0.16500000000E+03 0.  0.
<mgrwt>
<rscale>  0 0.42329457E+03</rscale>
<asrwt>0</asrwt>
<pdfrwt beam="1">  1        2 0.31526593E-01 0.42329457E+03</pdfrwt>
<pdfrwt beam="2">  1       -2 0.28996948E-01 0.42329457E+03</pdfrwt>
<totfact> 0.18210914E+03</totfact>
</mgrwt>
</event>
<event>
 4    1  0.5312547E-005  0.9982625E+03  0.7818608E-02  0.9310452E-01
          2   -1    0    0  501    0  0.00000000000E+00  0.00000000000E+00  0.31639446339E+04  0.31639446339E+04  0.25500000000E-02 0.  1.
         -2   -1    0    0    0  501 -0.00000000000E+00 -0.00000000000E+00 -0.78740955150E+02  0.78740955191E+02  0.25500000000E-02 0. -1.
    5000001    1    1    2    0    0 -0.40043289105E+03 -0.23965897994E+03  0.17512067056E+04  0.18198167085E+04  0.16500000000E+03 0.  0.
   -5000001    1    1    2    0    0  0.40043289105E+03  0.23965897994E+03  0.13339969732E+04  0.14228688806E+04  0.16500000000E+03 0.  0.
<mgrwt>
<rscale>  0 0.99826254E+03</rscale>
<asrwt>0</asrwt>
<pdfrwt beam="1">  1        2 0.45199210E+00 0.99826254E+03</pdfrwt>
<pdfrwt beam="2">  1       -2 0.11248708E-01 0.99826254E+03</pdfrwt>
<totfact> 0.11048576E+02</totfact>
</mgrwt>
</event>
<event>
 4    1  0.5312547E-005  0.5779805E+03  0.7818608E-02  0.9952173E-01
         -2   -1    0    0    0  501 -0.00000000000E+00  0.00000000000E+00  0.10023270554E+03  0.10023270557E+03  0.25500000000E-02 0. -1.
          2   -1    0    0  501    0  0.00000000000E+00 -0.00000000000E+00 -0.83321465564E+03  0.83321465564E+03  0.25500000000E-02 0.  1.
    5000001    1    1    2    0    0  0.13784192522E+03 -0.11398800630E+03 -0.61822984688E+03  0.66439958270E+03  0.16500000000E+03 0.  0.
   -5000001    1    1    2    0    0 -0.13784192522E+03  0.11398800630E+03 -0.11475210322E+03  0.26904777851E+03  0.16500000000E+03 0.  0.
<mgrwt>
<rscale>  0 0.57798048E+03</rscale>
<asrwt>0</asrwt>
<pdfrwt beam="1">  1        2 0.11903066E+00 0.57798048E+03</pdfrwt>
<pdfrwt beam="2">  1       -2 0.14318958E-01 0.57798048E+03</pdfrwt>
<totfact> 0.13689213E+03</totfact>
</mgrwt>
</event>
<event>
 4    1  0.5312547E-005  0.5088123E+03  0.7818608E-02  0.1011504E+00
          2   -1    0    0  501    0  0.00000000000E+00  0.00000000000E+00  0.20981551433E+02  0.20981551588E+02  0.25500000000E-02 0.  1.
         -2   -1    0    0    0  501 -0.00000000000E+00 -0.00000000000E+00 -0.30847337818E+04  0.30847337818E+04  0.25500000000E-02 0. -1.
    5000001    1    1    2    0    0 -0.44884584696E+02  0.12668204668E+03 -0.23828006974E+04  0.23922849184E+04  0.16500000000E+03 0.  0.
   -5000001    1    1    2    0    0  0.44884584696E+02 -0.12668204668E+03 -0.68095153294E+03  0.71343041505E+03  0.16500000000E+03 0.  0.
<mgrwt>
<rscale>  0 0.50881235E+03</rscale>
<asrwt>0</asrwt>
<pdfrwt beam="1">  1        2 0.29973665E-02 0.50881235E+03</pdfrwt>
<pdfrwt beam="2">  1       -2 0.44067597E+00 0.50881235E+03</pdfrwt>
<totfact> 0.14766490E+01</totfact>
</mgrwt>
</event>
<event>
 4    1  0.5312547E-005  0.3726343E+03  0.7818608E-02  0.1053690E+00
         -2   -1    0    0    0  501 -0.00000000000E+00  0.00000000000E+00  0.11899316017E+03  0.11899316019E+03  0.25500000000E-02 0. -1.
          2   -1    0    0  501    0  0.00000000000E+00 -0.00000000000E+00 -0.29173176732E+03  0.29173176733E+03  0.25500000000E-02 0.  1.
    5000001    1    1    2    0    0 -0.69508353104E+02  0.39897312517E+02 -0.50384262719E+02  0.19022823299E+03  0.16500000000E+03 0.  0.
   -5000001    1    1    2    0    0  0.69508353104E+02 -0.39897312517E+02 -0.12235434443E+03  0.22049669453E+03  0.16500000000E+03 0.  0.
<mgrwt>
<rscale>  0 0.37263432E+03</rscale>
<asrwt>0</asrwt>
<pdfrwt beam="1">  1        2 0.41675967E-01 0.37263432E+03</pdfrwt>
<pdfrwt beam="2">  1       -2 0.16999023E-01 0.37263432E+03</pdfrwt>
<totfact> 0.34094507E+03</totfact>
</mgrwt>
</event>
<event>
 4    1  0.5312547E-005  0.8011544E+03  0.7818608E-02  0.9558348E-01
          2   -1    0    0  501    0  0.00000000000E+00  0.00000000000E+00  0.15357938020E+04  0.15357938020E+04  0.25500000000E-02 0.  1.
         -2   -1    0    0    0  501 -0.00000000000E+00 -0.00000000000E+00 -0.10448154457E+03  0.10448154460E+03  0.25500000000E-02 0. -1.
    5000001    1    1    2    0    0  0.42228349777E+02 -0.32094275647E+03  0.10609896728E+04  0.11214774060E+04  0.16500000000E+03 0.  0.
   -5000001    1    1    2    0    0 -0.42228349777E+02  0.32094275647E+03  0.37032258468E+03  0.51879794061E+03  0.16500000000E+03 0.  0.
<mgrwt>
<rscale>  0 0.80115444E+03</rscale>
<asrwt>0</asrwt>
<pdfrwt beam="1">  1        2 0.21939910E+00 0.80115444E+03</pdfrwt>
<pdfrwt beam="2">  1       -2 0.14925936E-01 0.80115444E+03</pdfrwt>
<totfact> 0.49816320E+02</totfact>
</mgrwt>
</event>
<event>
 4    1  0.5312547E-005  0.4295257E+03  0.7818608E-02  0.1034010E+00
          2   -1    0    0  501    0  0.00000000000E+00  0.00000000000E+00  0.58700319416E+03  0.58700319417E+03  0.25500000000E-02 0.  1.
         -2   -1    0    0    0  501 -0.00000000000E+00 -0.00000000000E+00 -0.78573815086E+02  0.78573815128E+02  0.25500000000E-02 0. -1.
    5000001    1    1    2    0    0  0.26709406562E+02 -0.96800603851E+02  0.39969487463E+03  0.44391974737E+03  0.16500000000E+03 0.  0.
   -5000001    1    1    2    0    0 -0.26709406562E+02  0.96800603851E+02  0.10873450445E+03  0.22165726192E+03  0.16500000000E+03 0.  0.
<mgrwt>
<rscale>  0 0.42952569E+03</rscale>
<asrwt>0</asrwt>
<pdfrwt beam="1">  1        2 0.83857604E-01 0.42952569E+03</pdfrwt>
<pdfrwt beam="2">  1       -2 0.11224830E-01 0.42952569E+03</pdfrwt>
<totfact> 0.31309986E+03</totfact>
</mgrwt>
</event>
<event>
 4    1  0.5312547E-005  0.5077096E+03  0.7818608E-02  0.1011786E+00
          2   -1    0    0  501    0  0.00000000000E+00  0.00000000000E+00  0.39410395434E+04  0.39410395434E+04  0.25500000000E-02 0.  1.
         -2   -1    0    0    0  501 -0.00000000000E+00 -0.00000000000E+00 -0.16351588906E+02  0.16351589104E+02  0.25500000000E-02 0. -1.
    5000001    1    1    2    0    0 -0.52061524166E+02  0.12734962788E+03  0.30164583580E+04  0.30240989328E+04  0.16500000000E+03 0.  0.
   -5000001    1    1    2    0    0  0.52061524166E+02 -0.12734962788E+03  0.90822959651E+03  0.93329219969E+03  0.16500000000E+03 0.  0.
<mgrwt>
<rscale>  0 0.50770960E+03</rscale>
<asrwt>0</asrwt>
<pdfrwt beam="1">  1        2 0.56300562E+00 0.50770960E+03</pdfrwt>
<pdfrwt beam="2">  1       -2 0.23359414E-02 0.50770960E+03</pdfrwt>
<totfact> 0.46325373E+02</totfact>
</mgrwt>
</event>
<event>
 4    1  0.5312547E-005  0.5857841E+03  0.7818608E-02  0.9935346E-01
         -2   -1    0    0    0  501 -0.00000000000E+00  0.00000000000E+00  0.39617752137E+02  0.39617752219E+02  0.25500000000E-02 0. -1.
          2   -1    0    0  501    0  0.00000000000E+00 -0.00000000000E+00 -0.21653364276E+04  0.21653364276E+04  0.25500000000E-02 0.  1.
    5000001    1    1    2    0    0 -0.14564459747E+02 -0.23682119251E+03 -0.88374315487E+03  0.92979748574E+03  0.16500000000E+03 0.  0.
   -5000001    1    1    2    0    0  0.14564459747E+02  0.23682119251E+03 -0.12419755206E+04  0.12751566941E+04  0.16500000000E+03 0.  0.
<mgrwt>
<rscale>  0 0.58578413E+03</rscale>
<asrwt>0</asrwt>
<pdfrwt beam="1">  1        2 0.30933370E+00 0.58578413E+03</pdfrwt>
<pdfrwt beam="2">  1       -2 0.56596802E-02 0.58578413E+03</pdfrwt>
<totfact> 0.11588039E+03</totfact>
</mgrwt>
</event>
<event>
 4    1  0.5312547E-005  0.7474285E+03  0.7818608E-02  0.9639393E-01
         -2   -1    0    0    0  501 -0.00000000000E+00  0.00000000000E+00  0.18248160900E+03  0.18248160902E+03  0.25500000000E-02 0.  1.
          2   -1    0    0  501    0  0.00000000000E+00 -0.00000000000E+00 -0.76535017268E+03  0.76535017269E+03  0.25500000000E-02 0. -1.
    5000001    1    1    2    0    0  0.12404974387E+03  0.26170893226E+03 -0.77134778633E+02  0.34213254486E+03  0.16500000000E+03 0.  0.
   -5000001    1    1    2    0    0 -0.12404974387E+03 -0.26170893226E+03 -0.50573378505E+03  0.60569923685E+03  0.16500000000E+03 0.  0.
<mgrwt>
<rscale>  0 0.74742847E+03</rscale>
<asrwt>0</asrwt>
<pdfrwt beam="1">  1        2 0.10933574E+00 0.74742847E+03</pdfrwt>
<pdfrwt beam="2">  1       -2 0.26068802E-01 0.74742847E+03</pdfrwt>
<totfact> 0.53621802E+02</totfact>
</mgrwt>
</event>
<event>
 4    1  0.5312547E-005  0.4789264E+03  0.7818608E-02  0.1019431E+00
         -2   -1    0    0    0  501 -0.00000000000E+00  0.00000000000E+00  0.68383981147E+02  0.68383981195E+02  0.25500000000E-02 0. -1.
          2   -1    0    0  501    0  0.00000000000E+00 -0.00000000000E+00 -0.83853886888E+03  0.83853886889E+03  0.25500000000E-02 0.  1.
    5000001    1    1    2    0    0 -0.72541205046E+02  0.10330891217E+03 -0.61059509228E+03  0.64497001828E+03  0.16500000000E+03 0.  0.
   -5000001    1    1    2    0    0  0.72541205046E+02 -0.10330891217E+03 -0.15955979546E+03  0.26195283180E+03  0.16500000000E+03 0.  0.
<mgrwt>
<rscale>  0 0.47892641E+03</rscale>
<asrwt>0</asrwt>
<pdfrwt beam="1">  1        2 0.11979126E+00 0.47892641E+03</pdfrwt>
<pdfrwt beam="2">  1       -2 0.97691407E-02 0.47892641E+03</pdfrwt>
<totfact> 0.25427662E+03</totfact>
</mgrwt>
</event>
<event>
 4    1  0.5312547E-005  0.5172916E+03  0.7818608E-02  0.1009362E+00
          2   -1    0    0  501    0  0.00000000000E+00  0.00000000000E+00  0.70252814618E+03  0.70252814618E+03  0.25500000000E-02 0.  1.
         -2   -1    0    0    0  501 -0.00000000000E+00 -0.00000000000E+00 -0.95224157542E+02  0.95224157576E+02  0.25500000000E-02 0. -1.
    5000001    1    1    2    0    0 -0.10743454133E+03  0.16609444709E+03  0.26771229148E+03  0.37151637519E+03  0.16500000000E+03 0.  0.
   -5000001    1    1    2    0    0  0.10743454133E+03 -0.16609444709E+03  0.33959169716E+03  0.42623592857E+03  0.16500000000E+03 0.  0.
<mgrwt>
<rscale>  0 0.51729160E+03</rscale>
<asrwt>0</asrwt>
<pdfrwt beam="1">  1        2 0.10036116E+00 0.51729160E+03</pdfrwt>
<pdfrwt beam="2">  1       -2 0.13603452E-01 0.51729160E+03</pdfrwt>
<totfact> 0.18477752E+03</totfact>
</mgrwt>
</event>
<event>
 4    1  0.5312547E-005  0.6689591E+03  0.7818608E-02  0.9771840E-01
         -2   -1    0    0    0  501 -0.00000000000E+00  0.00000000000E+00  0.34116146972E+03  0.34116146973E+03  0.25500000000E-02 0. -1.
          2   -1    0    0  501    0  0.00000000000E+00 -0.00000000000E+00 -0.32792846984E+03  0.32792846985E+03  0.25500000000E-02 0.  1.
    5000001    1    1    2    0    0  0.23422357378E+03 -0.13238595676E+03 -0.10415187998E+03  0.33235423597E+03  0.16500000000E+03 0.  0.
   -5000001    1    1    2    0    0 -0.23422357378E+03  0.13238595676E+03  0.11738487986E+03  0.33673570361E+03  0.16500000000E+03 0.  0.
<mgrwt>
<rscale>  0 0.66895907E+03</rscale>
<asrwt>0</asrwt>
<pdfrwt beam="1">  1        2 0.46846924E-01 0.66895907E+03</pdfrwt>
<pdfrwt beam="2">  1       -2 0.48737353E-01 0.66895907E+03</pdfrwt>
<totfact> 0.43402268E+02</totfact>
</mgrwt>
</event>
<event>
 4    1  0.5312547E-005  0.9261078E+03  0.7818608E-02  0.9393521E-01
          2   -1    0    0  501    0  0.00000000000E+00  0.00000000000E+00  0.10096496184E+04  0.10096496184E+04  0.25500000000E-02 0.  1.
         -2   -1    0    0    0  501 -0.00000000000E+00 -0.00000000000E+00 -0.21236964844E+03  0.21236964845E+03  0.25500000000E-02 0. -1.
    5000001    1    1    2    0    0 -0.42434501979E+03 -0.64240094763E+02  0.47089447127E+03  0.65815050609E+03  0.16500000000E+03 0.  0.
   -5000001    1    1    2    0    0  0.42434501979E+03  0.64240094763E+02  0.32638549866E+03  0.56386876073E+03  0.16500000000E+03 0.  0.
<mgrwt>
<rscale>  0 0.92610784E+03</rscale>
<asrwt>0</asrwt>
<pdfrwt beam="1">  1        2 0.14423566E+00 0.92610784E+03</pdfrwt>
<pdfrwt beam="2">  1       -2 0.30338521E-01 0.92610784E+03</pdfrwt>
<totfact> 0.27778536E+02</totfact>
</mgrwt>
</event>
<event>
 4    1  0.5312547E-005  0.3832998E+03  0.7818608E-02  0.1049721E+00
         -2   -1    0    0    0  501 -0.00000000000E+00  0.00000000000E+00  0.34257296557E+02  0.34257296651E+02  0.25500000000E-02 0. -1.
          2   -1    0    0  501    0  0.00000000000E+00 -0.00000000000E+00 -0.10721713517E+04  0.10721713517E+04  0.25500000000E-02 0.  1.
    5000001    1    1    2    0    0  0.79672966026E+02 -0.50754450046E+02 -0.58852896155E+03  0.61847807908E+03  0.16500000000E+03 0.  0.
   -5000001    1    1    2    0    0 -0.79672966026E+02  0.50754450046E+02 -0.44938509360E+03  0.48795056928E+03  0.16500000000E+03 0.  0.
<mgrwt>
<rscale>  0 0.38329984E+03</rscale>
<asrwt>0</asrwt>
<pdfrwt beam="1">  1        2 0.15316732E+00 0.38329984E+03</pdfrwt>
<pdfrwt beam="2">  1       -2 0.48939002E-02 0.38329984E+03</pdfrwt>
<totfact> 0.53769942E+03</totfact>
</mgrwt>
</event>
<event>
 4    1  0.5312547E-005  0.3769052E+03  0.7818608E-02  0.1052084E+00
          2   -1    0    0  501    0  0.00000000000E+00  0.00000000000E+00  0.99539038915E+03  0.99539038915E+03  0.25500000000E-02 0.  1.
         -2   -1    0    0    0  501 -0.00000000000E+00 -0.00000000000E+00 -0.35678843471E+02  0.35678843563E+02  0.25500000000E-02 0. -1.
    5000001    1    1    2    0    0 -0.23963747267E+01  0.86882377504E+02  0.40568627572E+03  0.44649820206E+03  0.16500000000E+03 0.  0.
   -5000001    1    1    2    0    0  0.23963747267E+01 -0.86882377504E+02  0.55402526996E+03  0.58457103066E+03  0.16500000000E+03 0.  0.
<mgrwt>
<rscale>  0 0.37690518E+03</rscale>
<asrwt>0</asrwt>
<pdfrwt beam="1">  1        2 0.14219861E+00 0.37690518E+03</pdfrwt>
<pdfrwt beam="2">  1       -2 0.50969782E-02 0.37690518E+03</pdfrwt>
<totfact> 0.56046547E+03</totfact>
</mgrwt>
</event>
<event>
 4    1  0.5312547E-005  0.4619984E+03  0.7818608E-02  0.1024203E+00
          2   -1    0    0  501    0  0.00000000000E+00  0.00000000000E+00  0.12077751711E+04  0.12077751711E+04  0.25500000000E-02 0.  1.
         -2   -1    0    0    0  501 -0.00000000000E+00 -0.00000000000E+00 -0.44180927160E+02  0.44180927234E+02  0.25500000000E-02 0. -1.
    5000001    1    1    2    0    0 -0.13843874842E+03 -0.58337357900E+02  0.41994968383E+03  0.47555364717E+03  0.16500000000E+03 0.  0.
   -5000001    1    1    2    0    0  0.13843874842E+03  0.58337357900E+02  0.74364456011E+03  0.77640245116E+03  0.16500000000E+03 0.  0.
<mgrwt>
<rscale>  0 0.46199838E+03</rscale>
<asrwt>0</asrwt>
<pdfrwt beam="1">  1        2 0.17253931E+00 0.46199838E+03</pdfrwt>
<pdfrwt beam="2">  1       -2 0.63115609E-02 0.46199838E+03</pdfrwt>
<totfact> 0.30456978E+03</totfact>
</mgrwt>
</event>
<event>
 4    1  0.5312547E-005  0.4717617E+03  0.7818608E-02  0.1021424E+00
          2   -1    0    0  501    0  0.00000000000E+00  0.00000000000E+00  0.12262119416E+04  0.12262119416E+04  0.25500000000E-02 0.  1.
         -2   -1    0    0    0  501 -0.00000000000E+00 -0.00000000000E+00 -0.45375342277E+02  0.45375342348E+02  0.25500000000E-02 0. -1.
    5000001    1    1    2    0    0 -0.12037139775E+02  0.16614199408E+03  0.66001665788E+03  0.70042490219E+03  0.16500000000E+03 0.  0.
   -5000001    1    1    2    0    0  0.12037139775E+02 -0.16614199408E+03  0.52081994144E+03  0.57116238176E+03  0.16500000000E+03 0.  0.
<mgrwt>
<rscale>  0 0.47176175E+03</rscale>
<asrwt>0</asrwt>
<pdfrwt beam="1">  1        2 0.17517315E+00 0.47176175E+03</pdfrwt>
<pdfrwt beam="2">  1       -2 0.64821911E-02 0.47176175E+03</pdfrwt>
<totfact> 0.28536863E+03</totfact>
</mgrwt>
</event>
<event>
 4    1  0.5312547E-005  0.4191007E+03  0.7818608E-02  0.1037359E+00
          2   -1    0    0  501    0  0.00000000000E+00  0.00000000000E+00  0.20134035610E+04  0.20134035610E+04  0.25500000000E-02 0.  1.
         -2   -1    0    0    0  501 -0.00000000000E+00 -0.00000000000E+00 -0.21809508364E+02  0.21809508513E+02  0.25500000000E-02 0. -1.
    5000001    1    1    2    0    0  0.79522921056E+02 -0.84182863869E+02  0.12737319301E+04  0.12895846926E+04  0.16500000000E+03 0.  0.
   -5000001    1    1    2    0    0 -0.79522921056E+02  0.84182863869E+02  0.71786212259E+03  0.74562837700E+03  0.16500000000E+03 0.  0.
<mgrwt>
<rscale>  0 0.41910067E+03</rscale>
<asrwt>0</asrwt>
<pdfrwt beam="1">  1        2 0.28762927E+00 0.41910067E+03</pdfrwt>
<pdfrwt beam="2">  1       -2 0.31156420E-02 0.41910067E+03</pdfrwt>
<totfact> 0.34717280E+03</totfact>
</mgrwt>
</event>
<event>
 4    1  0.5312547E-005  0.6754382E+03  0.7818608E-02  0.9760183E-01
          2   -1    0    0  501    0  0.00000000000E+00  0.00000000000E+00  0.11745303489E+04  0.11745303489E+04  0.25500000000E-02 0.  1.
         -2   -1    0    0    0  501 -0.00000000000E+00 -0.00000000000E+00 -0.97106216952E+02  0.97106216985E+02  0.25500000000E-02 0. -1.
    5000001    1    1    2    0    0 -0.26740760702E+03 -0.24847347558E+02  0.31041013189E+03  0.44238407403E+03  0.16500000000E+03 0.  0.
   -5000001    1    1    2    0    0  0.26740760702E+03  0.24847347558E+02  0.76701400007E+03  0.82925249187E+03  0.16500000000E+03 0.  0.
<mgrwt>
<rscale>  0 0.67543822E+03</rscale>
<asrwt>0</asrwt>
<pdfrwt beam="1">  1        2 0.16779005E+00 0.67543822E+03</pdfrwt>
<pdfrwt beam="2">  1       -2 0.13872317E-01 0.67543822E+03</pdfrwt>
<totfact> 0.88936986E+02</totfact>
</mgrwt>
</event>
<event>
 4    1  0.5312547E-005  0.5479527E+03  0.7818608E-02  0.1001969E+00
         -2   -1    0    0    0  501 -0.00000000000E+00  0.00000000000E+00  0.62851091929E+02  0.62851091980E+02  0.25500000000E-02 0. -1.
          2   -1    0    0  501    0  0.00000000000E+00 -0.00000000000E+00 -0.11942998034E+04  0.11942998035E+04  0.25500000000E-02 0.  1.
    5000001    1    1    2    0    0  0.71925798165E+02 -0.20319964473E+03 -0.48066201288E+03  0.55201846590E+03  0.16500000000E+03 0.  0.
   -5000001    1    1    2    0    0 -0.71925798165E+02  0.20319964473E+03 -0.65078669864E+03  0.70513242954E+03  0.16500000000E+03 0.  0.
<mgrwt>
<rscale>  0 0.54795272E+03</rscale>
<asrwt>0</asrwt>
<pdfrwt beam="1">  1        2 0.17061424E+00 0.54795272E+03</pdfrwt>
<pdfrwt beam="2">  1       -2 0.89787281E-02 0.54795272E+03</pdfrwt>
<totfact> 0.17731342E+03</totfact>
</mgrwt>
</event>
<event>
 4    1  0.5312547E-005  0.3907645E+03  0.7818608E-02  0.1047025E+00
         -2   -1    0    0    0  501 -0.00000000000E+00  0.00000000000E+00  0.65156225507E+02  0.65156225557E+02  0.25500000000E-02 0. -1.
          2   -1    0    0  501    0  0.00000000000E+00 -0.00000000000E+00 -0.58588758642E+03  0.58588758642E+03  0.25500000000E-02 0.  1.
    5000001    1    1    2    0    0 -0.73509732368E+02  0.92907270159E+01 -0.38346640917E+03  0.42398288329E+03  0.16500000000E+03 0.  0.
   -5000001    1    1    2    0    0  0.73509732368E+02 -0.92907270159E+01 -0.13726495174E+03  0.22706092869E+03  0.16500000000E+03 0.  0.
<mgrwt>
<rscale>  0 0.39076450E+03</rscale>
<asrwt>0</asrwt>
<pdfrwt beam="1">  1        2 0.83698224E-01 0.39076450E+03</pdfrwt>
<pdfrwt beam="2">  1       -2 0.93080325E-02 0.39076450E+03</pdfrwt>
<totfact> 0.42348002E+03</totfact>
</mgrwt>
</event>
<event>
 4    1  0.5312547E-005  0.5621520E+03  0.7818608E-02  0.9987197E-01
          2   -1    0    0  501    0  0.00000000000E+00  0.00000000000E+00  0.21601716430E+04  0.21601716430E+04  0.25500000000E-02 0.  1.
         -2   -1    0    0    0  501 -0.00000000000E+00 -0.00000000000E+00 -0.36572883296E+02  0.36572883385E+02  0.25500000000E-02 0. -1.
    5000001    1    1    2    0    0  0.20013023621E+03  0.61742898303E+02  0.14094436370E+04  0.14344408885E+04  0.16500000000E+03 0.  0.
   -5000001    1    1    2    0    0 -0.20013023621E+03 -0.61742898303E+02  0.71415512271E+03  0.76230363781E+03  0.16500000000E+03 0.  0.
<mgrwt>
<rscale>  0 0.56215196E+03</rscale>
<asrwt>0</asrwt>
<pdfrwt beam="1">  1        2 0.30859600E+00 0.56215196E+03</pdfrwt>
<pdfrwt beam="2">  1       -2 0.52246967E-02 0.56215196E+03</pdfrwt>
<totfact> 0.13220826E+03</totfact>
</mgrwt>
</event>
<event>
 4    1  0.5312547E-005  0.7323638E+03  0.7818608E-02  0.9663432E-01
         -2   -1    0    0    0  501 -0.00000000000E+00  0.00000000000E+00  0.64161583108E+02  0.64161583159E+02  0.25500000000E-02 0. -1.
          2   -1    0    0  501    0  0.00000000000E+00 -0.00000000000E+00 -0.20898669146E+04  0.20898669146E+04  0.25500000000E-02 0.  1.
    5000001    1    1    2    0    0 -0.25006318456E+03 -0.49495799004E+02 -0.41092800333E+03  0.51094838713E+03  0.16500000000E+03 0.  0.
   -5000001    1    1    2    0    0  0.25006318456E+03  0.49495799004E+02 -0.16147773282E+04  0.16430801106E+04  0.16500000000E+03 0.  0.
<mgrwt>
<rscale>  0 0.73236376E+03</rscale>
<asrwt>0</asrwt>
<pdfrwt beam="1">  1        2 0.29855237E+00 0.73236376E+03</pdfrwt>
<pdfrwt beam="2">  1       -2 0.91659417E-02 0.73236376E+03</pdfrwt>
<totfact> 0.58323133E+02</totfact>
</mgrwt>
</event>
<event>
 4    1  0.5312547E-005  0.4476883E+03  0.7818608E-02  0.1028414E+00
          2   -1    0    0  501    0  0.00000000000E+00  0.00000000000E+00  0.17905575279E+04  0.17905575279E+04  0.25500000000E-02 0.  1.
         -2   -1    0    0    0  501 -0.00000000000E+00 -0.00000000000E+00 -0.27983576289E+02  0.27983576405E+02  0.25500000000E-02 0. -1.
    5000001    1    1    2    0    0  0.11197426399E+03 -0.91996980216E+02  0.10573917844E+04  0.10799555851E+04  0.16500000000E+03 0.  0.
   -5000001    1    1    2    0    0 -0.11197426399E+03  0.91996980216E+02  0.70518216719E+03  0.73858551914E+03  0.16500000000E+03 0.  0.
<mgrwt>
<rscale>  0 0.44768830E+03</rscale>
<asrwt>0</asrwt>
<pdfrwt beam="1">  1        2 0.25579390E+00 0.44768830E+03</pdfrwt>
<pdfrwt beam="2">  1       -2 0.39976543E-02 0.44768830E+03</pdfrwt>
<totfact> 0.30681096E+03</totfact>
</mgrwt>
</event>
<event>
 4    1  0.5312547E-005  0.3966927E+03  0.7818608E-02  0.1044931E+00
         -2   -1    0    0    0  501 -0.00000000000E+00  0.00000000000E+00  0.46289608656E+02  0.46289608726E+02  0.25500000000E-02 0. -1.
          2   -1    0    0  501    0  0.00000000000E+00 -0.00000000000E+00 -0.84989427261E+03  0.84989427262E+03  0.25500000000E-02 0.  1.
    5000001    1    1    2    0    0  0.28104112666E+02  0.96768167595E+02 -0.30172595061E+03  0.35835383168E+03  0.16500000000E+03 0.  0.
   -5000001    1    1    2    0    0 -0.28104112666E+02 -0.96768167595E+02 -0.50187871335E+03  0.53783004967E+03  0.16500000000E+03 0.  0.
<mgrwt>
<rscale>  0 0.39669269E+03</rscale>
<asrwt>0</asrwt>
<pdfrwt beam="1">  1        2 0.12141346E+00 0.39669269E+03</pdfrwt>
<pdfrwt beam="2">  1       -2 0.66128017E-02 0.39669269E+03</pdfrwt>
<totfact> 0.46263908E+03</totfact>
</mgrwt>
</event>
<event>
 4    1  0.5312547E-005  0.5196694E+03  0.7818608E-02  0.1008769E+00
         -2   -1    0    0    0  501 -0.00000000000E+00  0.00000000000E+00  0.67162874641E+02  0.67162874689E+02  0.25500000000E-02 0. -1.
          2   -1    0    0  501    0  0.00000000000E+00 -0.00000000000E+00 -0.10052292224E+04  0.10052292224E+04  0.25500000000E-02 0.  1.
    5000001    1    1    2    0    0  0.17638700649E+03 -0.38100844956E+02 -0.65040783475E+03  0.69485207199E+03  0.16500000000E+03 0.  0.
   -5000001    1    1    2    0    0 -0.17638700649E+03  0.38100844956E+02 -0.28765851298E+03  0.37754002508E+03  0.16500000000E+03 0.  0.
<mgrwt>
<rscale>  0 0.51966945E+03</rscale>
<asrwt>0</asrwt>
<pdfrwt beam="1">  1        2 0.14360417E+00 0.51966945E+03</pdfrwt>
<pdfrwt beam="2">  1       -2 0.95946970E-02 0.51966945E+03</pdfrwt>
<totfact> 0.20525046E+03</totfact>
</mgrwt>
</event>
<event>
 4    1  0.5312547E-005  0.8903073E+03  0.7818608E-02  0.9437779E-01
         -2   -1    0    0    0  501 -0.00000000000E+00  0.00000000000E+00  0.88839410652E+02  0.88839410689E+02  0.25500000000E-02 0. -1.
          2   -1    0    0  501    0  0.00000000000E+00 -0.00000000000E+00 -0.22305617090E+04  0.22305617090E+04  0.25500000000E-02 0.  1.
    5000001    1    1    2    0    0  0.40937366080E+03 -0.55176838740E+02 -0.11163964942E+04  0.12017476482E+04  0.16500000000E+03 0.  0.
   -5000001    1    1    2    0    0 -0.40937366080E+03  0.55176838740E+02 -0.10253258042E+04  0.11176534715E+04  0.16500000000E+03 0.  0.
<mgrwt>
<rscale>  0 0.89030734E+03</rscale>
<asrwt>0</asrwt>
<pdfrwt beam="1">  1        2 0.31865164E+00 0.89030734E+03</pdfrwt>
<pdfrwt beam="2">  1       -2 0.12691346E-01 0.89030734E+03</pdfrwt>
<totfact> 0.28691092E+02</totfact>
</mgrwt>
</event>
<event>
 4    1  0.5312547E-005  0.3421766E+03  0.7818608E-02  0.1065873E+00
         -2   -1    0    0    0  501 -0.00000000000E+00  0.00000000000E+00  0.32155914869E+03  0.32155914870E+03  0.25500000000E-02 0. -1.
          2   -1    0    0  501    0  0.00000000000E+00 -0.00000000000E+00 -0.91028991122E+02  0.91028991158E+02  0.25500000000E-02 0.  1.
    5000001    1    1    2    0    0  0.29101330088E+02 -0.11443081856E+02  0.15467703306E+03  0.22831516834E+03  0.16500000000E+03 0.  0.
   -5000001    1    1    2    0    0 -0.29101330088E+02  0.11443081856E+02  0.75853124501E+02  0.18427297152E+03  0.16500000000E+03 0.  0.
<mgrwt>
<rscale>  0 0.34217659E+03</rscale>
<asrwt>0</asrwt>
<pdfrwt beam="1">  1        2 0.13004142E-01 0.34217659E+03</pdfrwt>
<pdfrwt beam="2">  1       -2 0.45937021E-01 0.34217659E+03</pdfrwt>
<totfact> 0.21162701E+03</totfact>
</mgrwt>
</event>
<event>
 4    1  0.5312547E-005  0.4405630E+03  0.7818608E-02  0.1030574E+00
          2   -1    0    0  501    0  0.00000000000E+00  0.00000000000E+00  0.98489307845E+02  0.98489307878E+02  0.25500000000E-02 0.  1.
         -2   -1    0    0    0  501 -0.00000000000E+00 -0.00000000000E+00 -0.49268238601E+03  0.49268238602E+03  0.25500000000E-02 0. -1.
    5000001    1    1    2    0    0  0.10363168351E+03 -0.21401762769E+02 -0.33196054534E+03  0.38551311902E+03  0.16500000000E+03 0.  0.
   -5000001    1    1    2    0    0 -0.10363168351E+03  0.21401762769E+02 -0.62232532829E+02  0.20565857487E+03  0.16500000000E+03 0.  0.
<mgrwt>
<rscale>  0 0.44056304E+03</rscale>
<asrwt>0</asrwt>
<pdfrwt beam="1">  1        2 0.14069901E-01 0.44056304E+03</pdfrwt>
<pdfrwt beam="2">  1       -2 0.70383197E-01 0.44056304E+03</pdfrwt>
<totfact> 0.79960135E+02</totfact>
</mgrwt>
</event>
<event>
 4    1  0.5312547E-005  0.5298414E+03  0.7818608E-02  0.1006271E+00
         -2   -1    0    0    0  501 -0.00000000000E+00  0.00000000000E+00  0.76307153600E+03  0.76307153600E+03  0.25500000000E-02 0. -1.
          2   -1    0    0  501    0  0.00000000000E+00 -0.00000000000E+00 -0.91974295607E+02  0.91974295642E+02  0.25500000000E-02 0.  1.
    5000001    1    1    2    0    0 -0.13880719062E+03 -0.15145344800E+03  0.29128333160E+03  0.39278055241E+03  0.16500000000E+03 0.  0.
   -5000001    1    1    2    0    0  0.13880719062E+03  0.15145344800E+03  0.37981390879E+03  0.46226527924E+03  0.16500000000E+03 0.  0.
<mgrwt>
<rscale>  0 0.52984136E+03</rscale>
<asrwt>0</asrwt>
<pdfrwt beam="1">  1        2 0.13139186E-01 0.52984136E+03</pdfrwt>
<pdfrwt beam="2">  1       -2 0.10901021E+00 0.52984136E+03</pdfrwt>
<totfact> 0.32063064E+02</totfact>
</mgrwt>
</event>
<event>
 4    1  0.5312547E-005  0.7239484E+03  0.7818608E-02  0.9677132E-01
          2   -1    0    0  501    0  0.00000000000E+00  0.00000000000E+00  0.75529976125E+03  0.75529976126E+03  0.25500000000E-02 0.  1.
         -2   -1    0    0    0  501 -0.00000000000E+00 -0.00000000000E+00 -0.17347458509E+03  0.17347458511E+03  0.25500000000E-02 0. -1.
    5000001    1    1    2    0    0 -0.83119503072E+02 -0.10677398094E+03 -0.84200526108E+02  0.22939978944E+03  0.16500000000E+03 0.  0.
   -5000001    1    1    2    0    0  0.83119503072E+02  0.10677398094E+03  0.66602570227E+03  0.69937455693E+03  0.16500000000E+03 0.  0.
<mgrwt>
<rscale>  0 0.72394838E+03</rscale>
<asrwt>0</asrwt>
<pdfrwt beam="1">  1        2 0.10789997E+00 0.72394838E+03</pdfrwt>
<pdfrwt beam="2">  1       -2 0.24782084E-01 0.72394838E+03</pdfrwt>
<totfact> 0.59790116E+02</totfact>
</mgrwt>
</event>
<event>
 4    1  0.5312547E-005  0.8650692E+03  0.7818608E-02  0.9470332E-01
         -2   -1    0    0    0  501 -0.00000000000E+00  0.00000000000E+00  0.11012696044E+03  0.11012696047E+03  0.25500000000E-02 0. -1.
          2   -1    0    0  501    0  0.00000000000E+00 -0.00000000000E+00 -0.16988228373E+04  0.16988228373E+04  0.25500000000E-02 0.  1.
    5000001    1    1    2    0    0 -0.21381655713E+03  0.31924320658E+03 -0.56311824596E+03  0.70139924721E+03  0.16500000000E+03 0.  0.
   -5000001    1    1    2    0    0  0.21381655713E+03 -0.31924320658E+03 -0.10255776309E+04  0.11075505506E+04  0.16500000000E+03 0.  0.
<mgrwt>
<rscale>  0 0.86506924E+03</rscale>
<asrwt>0</asrwt>
<pdfrwt beam="1">  1        2 0.24268896E+00 0.86506924E+03</pdfrwt>
<pdfrwt beam="2">  1       -2 0.15732424E-01 0.86506924E+03</pdfrwt>
<totfact> 0.37364711E+02</totfact>
</mgrwt>
</event>
<event>
 4    1  0.5312547E-005  0.5380364E+03  0.7818608E-02  0.1004302E+00
         -2   -1    0    0    0  501 -0.00000000000E+00  0.00000000000E+00  0.25506052094E+02  0.25506052221E+02  0.25500000000E-02 0. -1.
          2   -1    0    0  501    0  0.00000000000E+00 -0.00000000000E+00 -0.28373967208E+04  0.28373967208E+04  0.25500000000E-02 0.  1.
    5000001    1    1    2    0    0  0.76057273619E+02 -0.18641734096E+03 -0.17672130526E+04  0.17862819227E+04  0.16500000000E+03 0.  0.
   -5000001    1    1    2    0    0 -0.76057273619E+02  0.18641734096E+03 -0.10446776161E+04  0.10766208504E+04  0.16500000000E+03 0.  0.
<mgrwt>
<rscale>  0 0.53803639E+03</rscale>
<asrwt>0</asrwt>
<pdfrwt beam="1">  1        2 0.40534219E+00 0.53803639E+03</pdfrwt>
<pdfrwt beam="2">  1       -2 0.36437235E-02 0.53803639E+03</pdfrwt>
<totfact> 0.10361179E+03</totfact>
</mgrwt>
</event>
<event>
 4    1  0.5312547E-005  0.8075085E+03  0.7818608E-02  0.9549212E-01
          2   -1    0    0  501    0  0.00000000000E+00  0.00000000000E+00  0.12590525908E+04  0.12590525908E+04  0.25500000000E-02 0.  1.
         -2   -1    0    0    0  501 -0.00000000000E+00 -0.00000000000E+00 -0.12947631240E+03  0.12947631243E+03  0.25500000000E-02 0. -1.
    5000001    1    1    2    0    0 -0.13619483371E+03  0.49379206597E+02  0.11474123307E+04  0.11682325947E+04  0.16500000000E+03 0.  0.
   -5000001    1    1    2    0    0  0.13619483371E+03 -0.49379206597E+02 -0.17836052304E+02  0.22029630849E+03  0.16500000000E+03 0.  0.
<mgrwt>
<rscale>  0 0.80750848E+03</rscale>
<asrwt>0</asrwt>
<pdfrwt beam="1">  1        2 0.17986466E+00 0.80750848E+03</pdfrwt>
<pdfrwt beam="2">  1       -2 0.18496616E-01 0.80750848E+03</pdfrwt>
<totfact> 0.48592916E+02</totfact>
</mgrwt>
</event>
<event>
 4    1  0.5312547E-005  0.6991271E+03  0.7818608E-02  0.9718726E-01
          2   -1    0    0  501    0  0.00000000000E+00  0.00000000000E+00  0.12705121678E+04  0.12705121678E+04  0.25500000000E-02 0.  1.
         -2   -1    0    0    0  501 -0.00000000000E+00 -0.00000000000E+00 -0.96177495521E+02  0.96177495555E+02  0.25500000000E-02 0. -1.
    5000001    1    1    2    0    0 -0.15135936579E+03  0.26708858828E+03  0.63975635618E+03  0.72853220030E+03  0.16500000000E+03 0.  0.
   -5000001    1    1    2    0    0  0.15135936579E+03 -0.26708858828E+03  0.53457831606E+03  0.63815746302E+03  0.16500000000E+03 0.  0.
<mgrwt>
<rscale>  0 0.69912711E+03</rscale>
<asrwt>0</asrwt>
<pdfrwt beam="1">  1        2 0.18150173E+00 0.69912711E+03</pdfrwt>
<pdfrwt beam="2">  1       -2 0.13739643E-01 0.69912711E+03</pdfrwt>
<totfact> 0.79803595E+02</totfact>
</mgrwt>
</event>
<event>
 4    1  0.5312547E-005  0.3597240E+03  0.7818608E-02  0.1058693E+00
         -2   -1    0    0    0  501 -0.00000000000E+00  0.00000000000E+00  0.20915004294E+03  0.20915004295E+03  0.25500000000E-02 0. -1.
          2   -1    0    0  501    0  0.00000000000E+00 -0.00000000000E+00 -0.15467529920E+03  0.15467529922E+03  0.25500000000E-02 0.  1.
    5000001    1    1    2    0    0  0.68457533251E+02 -0.19417585276E+01  0.61395030733E+01  0.17875373502E+03  0.16500000000E+03 0.  0.
   -5000001    1    1    2    0    0 -0.68457533251E+02  0.19417585276E+01  0.48335240667E+02  0.18507160716E+03  0.16500000000E+03 0.  0.
<mgrwt>
<rscale>  0 0.35972404E+03</rscale>
<asrwt>0</asrwt>
<pdfrwt beam="1">  1        2 0.22096471E-01 0.35972404E+03</pdfrwt>
<pdfrwt beam="2">  1       -2 0.29878578E-01 0.35972404E+03</pdfrwt>
<totfact> 0.25643327E+03</totfact>
</mgrwt>
</event>
<event>
 4    1  0.5312547E-005  0.8490135E+03  0.7818608E-02  0.9491662E-01
          2   -1    0    0  501    0  0.00000000000E+00  0.00000000000E+00  0.56015274188E+03  0.56015274188E+03  0.25500000000E-02 0.  1.
         -2   -1    0    0    0  501 -0.00000000000E+00 -0.00000000000E+00 -0.32170867700E+03  0.32170867701E+03  0.25500000000E-02 0. -1.
    5000001    1    1    2    0    0  0.33820705494E+03 -0.19599463237E+03  0.13327660200E+03  0.44473088556E+03  0.16500000000E+03 0.  0.
   -5000001    1    1    2    0    0 -0.33820705494E+03  0.19599463237E+03  0.10516746288E+03  0.43713053334E+03  0.16500000000E+03 0.  0.
<mgrwt>
<rscale>  0 0.84901354E+03</rscale>
<asrwt>0</asrwt>
<pdfrwt beam="1">  1        2 0.80021819E-01 0.84901354E+03</pdfrwt>
<pdfrwt beam="2">  1       -2 0.45958383E-01 0.84901354E+03</pdfrwt>
<totfact> 0.26530331E+02</totfact>
</mgrwt>
</event>
<event>
 4    1  0.5312547E-005  0.4504121E+03  0.7818608E-02  0.1027599E+00
         -2   -1    0    0    0  501 -0.00000000000E+00  0.00000000000E+00  0.42583376736E+02  0.42583376812E+02  0.25500000000E-02 0. -1.
          2   -1    0    0  501    0  0.00000000000E+00 -0.00000000000E+00 -0.11910225635E+04  0.11910225635E+04  0.25500000000E-02 0.  1.
    5000001    1    1    2    0    0  0.11730976188E+03 -0.32751581036E+02 -0.82907165560E+03  0.85406033534E+03  0.16500000000E+03 0.  0.
   -5000001    1    1    2    0    0 -0.11730976188E+03  0.32751581036E+02 -0.31936753119E+03  0.37954560499E+03  0.16500000000E+03 0.  0.
<mgrwt>
<rscale>  0 0.45041209E+03</rscale>
<asrwt>0</asrwt>
<pdfrwt beam="1">  1        2 0.17014606E+00 0.45041209E+03</pdfrwt>
<pdfrwt beam="2">  1       -2 0.60833403E-02 0.45041209E+03</pdfrwt>
<totfact> 0.32952906E+03</totfact>
</mgrwt>
</event>
<event>
 4    1  0.5312547E-005  0.5216065E+03  0.7818608E-02  0.1008288E+00
         -2   -1    0    0    0  501 -0.00000000000E+00  0.00000000000E+00  0.91109079880E+02  0.91109079916E+02  0.25500000000E-02 0. -1.
          2   -1    0    0  501    0  0.00000000000E+00 -0.00000000000E+00 -0.74655948967E+03  0.74655948967E+03  0.25500000000E-02 0.  1.
    5000001    1    1    2    0    0  0.10111138041E+03  0.13475450252E+03 -0.50663480268E+03  0.55882565303E+03  0.16500000000E+03 0.  0.
   -5000001    1    1    2    0    0 -0.10111138041E+03 -0.13475450252E+03 -0.14881560711E+03  0.27884291656E+03  0.16500000000E+03 0.  0.
<mgrwt>
<rscale>  0 0.52160655E+03</rscale>
<asrwt>0</asrwt>
<pdfrwt beam="1">  1        2 0.10665135E+00 0.52160655E+03</pdfrwt>
<pdfrwt beam="2">  1       -2 0.13015583E-01 0.52160655E+03</pdfrwt>
<totfact> 0.18449234E+03</totfact>
</mgrwt>
</event>
<event>
 4    1  0.5312547E-005  0.4760194E+03  0.7818608E-02  0.1020235E+00
          2   -1    0    0  501    0  0.00000000000E+00  0.00000000000E+00  0.14591971080E+04  0.14591971080E+04  0.25500000000E-02 0.  1.
         -2   -1    0    0    0  501 -0.00000000000E+00 -0.00000000000E+00 -0.38821770433E+02  0.38821770517E+02  0.25500000000E-02 0. -1.
    5000001    1    1    2    0    0 -0.67772492263E+02  0.13876003920E+03  0.47519186879E+03  0.52619366336E+03  0.16500000000E+03 0.  0.
   -5000001    1    1    2    0    0  0.67772492263E+02 -0.13876003920E+03  0.94518346873E+03  0.97182521512E+03  0.16500000000E+03 0.  0.
<mgrwt>
<rscale>  0 0.47601939E+03</rscale>
<asrwt>0</asrwt>
<pdfrwt beam="1">  1        2 0.20845668E+00 0.47601939E+03</pdfrwt>
<pdfrwt beam="2">  1       -2 0.55459686E-02 0.47601939E+03</pdfrwt>
<totfact> 0.27320539E+03</totfact>
</mgrwt>
</event>
<event>
 4    1  0.5312547E-005  0.5721699E+03  0.7818608E-02  0.9964888E-01
         -2   -1    0    0    0  501 -0.00000000000E+00  0.00000000000E+00  0.22401617883E+02  0.22401618028E+02  0.25500000000E-02 0. -1.
          2   -1    0    0  501    0  0.00000000000E+00 -0.00000000000E+00 -0.36535128601E+04  0.36535128601E+04  0.25500000000E-02 0.  1.
    5000001    1    1    2    0    0 -0.20485248916E+03  0.11243794732E+03 -0.18385092012E+04  0.18606310535E+04  0.16500000000E+03 0.  0.
   -5000001    1    1    2    0    0  0.20485248916E+03 -0.11243794732E+03 -0.17926020411E+04  0.18152834247E+04  0.16500000000E+03 0.  0.
<mgrwt>
<rscale>  0 0.57216990E+03</rscale>
<asrwt>0</asrwt>
<pdfrwt beam="1">  1        2 0.52193003E+00 0.57216990E+03</pdfrwt>
<pdfrwt beam="2">  1       -2 0.32002335E-02 0.57216990E+03</pdfrwt>
<totfact> 0.43361027E+02</totfact>
</mgrwt>
</event>
<event>
 4    1  0.5312547E-005  0.4585143E+03  0.7818608E-02  0.1025213E+00
         -2   -1    0    0    0  501 -0.00000000000E+00  0.00000000000E+00  0.18807294044E+03  0.18807294046E+03  0.25500000000E-02 0. -1.
          2   -1    0    0  501    0  0.00000000000E+00 -0.00000000000E+00 -0.27945986215E+03  0.27945986216E+03  0.25500000000E-02 0.  1.
    5000001    1    1    2    0    0 -0.11315205711E+03  0.45576495554E+02  0.58558571437E+02  0.21338863902E+03  0.16500000000E+03 0.  0.
   -5000001    1    1    2    0    0  0.11315205711E+03 -0.45576495554E+02 -0.14994549314E+03  0.25414416359E+03  0.16500000000E+03 0.  0.
<mgrwt>
<rscale>  0 0.45851429E+03</rscale>
<asrwt>0</asrwt>
<pdfrwt beam="1">  1        2 0.39922837E-01 0.45851429E+03</pdfrwt>
<pdfrwt beam="2">  1       -2 0.26867563E-01 0.45851429E+03</pdfrwt>
<totfact> 0.16132894E+03</totfact>
</mgrwt>
</event>
<event>
 4    1  0.5312547E-005  0.4291801E+03  0.7818608E-02  0.1034119E+00
          2   -1    0    0  501    0  0.00000000000E+00  0.00000000000E+00  0.15194708718E+03  0.15194708720E+03  0.25500000000E-02 0.  1.
         -2   -1    0    0    0  501 -0.00000000000E+00 -0.00000000000E+00 -0.30305868623E+03  0.30305868624E+03  0.25500000000E-02 0. -1.
    5000001    1    1    2    0    0 -0.12756312403E+03 -0.48384279343E+02 -0.60174296059E+02  0.22239454806E+03  0.16500000000E+03 0.  0.
   -5000001    1    1    2    0    0  0.12756312403E+03  0.48384279343E+02 -0.90937302992E+02  0.23261122539E+03  0.16500000000E+03 0.  0.
<mgrwt>
<rscale>  0 0.42918008E+03</rscale>
<asrwt>0</asrwt>
<pdfrwt beam="1">  1        2 0.21706727E-01 0.42918008E+03</pdfrwt>
<pdfrwt beam="2">  1       -2 0.43294098E-01 0.42918008E+03</pdfrwt>
<totfact> 0.13019738E+03</totfact>
</mgrwt>
</event>
<event>
 4    1  0.5312547E-005  0.5146140E+03  0.7818608E-02  0.1010033E+00
          2   -1    0    0  501    0  0.00000000000E+00  0.00000000000E+00  0.23258896638E+04  0.23258896638E+04  0.25500000000E-02 0. -1.
         -2   -1    0    0    0  501 -0.00000000000E+00 -0.00000000000E+00 -0.28465195846E+02  0.28465195961E+02  0.25500000000E-02 0.  1.
    5000001    1    1    2    0    0 -0.14376371414E+03 -0.77327672590E+02  0.64061354524E+03  0.68136501877E+03  0.16500000000E+03 0.  0.
   -5000001    1    1    2    0    0  0.14376371414E+03  0.77327672590E+02  0.16568109227E+04  0.16729898410E+04  0.16500000000E+03 0.  0.
<mgrwt>
<rscale>  0 0.51461405E+03</rscale>
<asrwt>0</asrwt>
<pdfrwt beam="1">  1        2 0.33227011E+00 0.51461405E+03</pdfrwt>
<pdfrwt beam="2">  1       -2 0.40664546E-02 0.51461405E+03</pdfrwt>
<totfact> 0.16104421E+03</totfact>
</mgrwt>
</event>
<event>
 4    1  0.5312547E-005  0.3651591E+03  0.7818608E-02  0.1056560E+00
          2   -1    0    0  501    0  0.00000000000E+00  0.00000000000E+00  0.20312477670E+04  0.20312477670E+04  0.25500000000E-02 0.  1.
         -2   -1    0    0    0  501 -0.00000000000E+00 -0.00000000000E+00 -0.16411234425E+02  0.16411234623E+02  0.25500000000E-02 0. -1.
    5000001    1    1    2    0    0  0.41354962482E+02 -0.60349669751E+02  0.85303473307E+03  0.87192062218E+03  0.16500000000E+03 0.  0.
   -5000001    1    1    2    0    0 -0.41354962482E+02  0.60349669751E+02  0.11618017995E+04  0.11757383794E+04  0.16500000000E+03 0.  0.
<mgrwt>
<rscale>  0 0.36515905E+03</rscale>
<asrwt>0</asrwt>
<pdfrwt beam="1">  1        2 0.29017817E+00 0.36515905E+03</pdfrwt>
<pdfrwt beam="2">  1       -2 0.23444627E-02 0.36515905E+03</pdfrwt>
<totfact> 0.52146955E+03</totfact>
</mgrwt>
</event>
<event>
 4    1  0.5312547E-005  0.6782788E+03  0.7818608E-02  0.9755117E-01
          2   -1    0    0  501    0  0.00000000000E+00  0.00000000000E+00  0.47222008414E+03  0.47222008415E+03  0.25500000000E-02 0.  1.
         -2   -1    0    0    0  501 -0.00000000000E+00 -0.00000000000E+00 -0.24356339325E+03  0.24356339326E+03  0.25500000000E-02 0. -1.
    5000001    1    1    2    0    0  0.22669006582E+03 -0.11382232223E+03 -0.47261309085E+02  0.30627200054E+03  0.16500000000E+03 0.  0.
   -5000001    1    1    2    0    0 -0.22669006582E+03  0.11382232223E+03  0.27591799998E+03  0.40951147687E+03  0.16500000000E+03 0.  0.
<mgrwt>
<rscale>  0 0.67827878E+03</rscale>
<asrwt>0</asrwt>
<pdfrwt beam="1">  1        2 0.67460012E-01 0.67827878E+03</pdfrwt>
<pdfrwt beam="2">  1       -2 0.34794770E-01 0.67827878E+03</pdfrwt>
<totfact> 0.55842737E+02</totfact>
</mgrwt>
</event>
<event>
 4    1  0.5312547E-005  0.1690814E+04  0.7818608E-02  0.8766621E-01
         -2   -1    0    0    0  501 -0.00000000000E+00  0.00000000000E+00  0.37757233702E+03  0.37757233702E+03  0.25500000000E-02 0. -1.
          2   -1    0    0  501    0  0.00000000000E+00 -0.00000000000E+00 -0.18929172327E+04  0.18929172327E+04  0.25500000000E-02 0.  1.
    5000001    1    1    2    0    0 -0.62755448979E+03  0.82592904370E+01 -0.30063233111E+02  0.64963193542E+03  0.16500000000E+03 0.  0.
   -5000001    1    1    2    0    0  0.62755448979E+03 -0.82592904370E+01 -0.14852816626E+04  0.16208576344E+04  0.16500000000E+03 0.  0.
<mgrwt>
<rscale>  0 0.16908142E+04</rscale>
<asrwt>0</asrwt>
<pdfrwt beam="1">  1        2 0.27041674E+00 0.16908142E+04</pdfrwt>
<pdfrwt beam="2">  1       -2 0.53938906E-01 0.16908142E+04</pdfrwt>
<totfact> 0.28151239E+01</totfact>
</mgrwt>
</event>
<event>
 4    1  0.5312547E-005  0.4168072E+03  0.7818608E-02  0.1038110E+00
         -2   -1    0    0    0  501 -0.00000000000E+00  0.00000000000E+00  0.88304599284E+02  0.88304599321E+02  0.25500000000E-02 0.  1.
          2   -1    0    0  501    0  0.00000000000E+00 -0.00000000000E+00 -0.49184379518E+03  0.49184379518E+03  0.25500000000E-02 0. -1.
    5000001    1    1    2    0    0  0.26144833717E+02 -0.12442235108E+03 -0.19268542110E+03  0.28375543217E+03  0.16500000000E+03 0.  0.
   -5000001    1    1    2    0    0 -0.26144833717E+02  0.12442235108E+03 -0.21085377479E+03  0.29639296234E+03  0.16500000000E+03 0.  0.
<mgrwt>
<rscale>  0 0.41680724E+03</rscale>
<asrwt>0</asrwt>
<pdfrwt beam="1">  1        2 0.70263398E-01 0.41680724E+03</pdfrwt>
<pdfrwt beam="2">  1       -2 0.12614943E-01 0.41680724E+03</pdfrwt>
<totfact> 0.31637233E+03</totfact>
</mgrwt>
</event>
<event>
 4    1  0.5312547E-005  0.4129986E+03  0.7818608E-02  0.1039369E+00
         -2   -1    0    0    0  501 -0.00000000000E+00  0.00000000000E+00  0.65009592774E+02  0.65009592824E+02  0.25500000000E-02 0. -1.
          2   -1    0    0  501    0  0.00000000000E+00 -0.00000000000E+00 -0.65593330529E+03  0.65593330529E+03  0.25500000000E-02 0.  1.
    5000001    1    1    2    0    0  0.12580713350E+02 -0.12271349985E+03 -0.32015371648E+03  0.38071023045E+03  0.16500000000E+03 0.  0.
   -5000001    1    1    2    0    0 -0.12580713350E+02  0.12271349985E+03 -0.27076999603E+03  0.34023266766E+03  0.16500000000E+03 0.  0.
<mgrwt>
<rscale>  0 0.41299858E+03</rscale>
<asrwt>0</asrwt>
<pdfrwt beam="1">  1        2 0.93704754E-01 0.41299858E+03</pdfrwt>
<pdfrwt beam="2">  1       -2 0.92870851E-02 0.41299858E+03</pdfrwt>
<totfact> 0.37283264E+03</totfact>
</mgrwt>
</event>
<event>
 4    1  0.5312547E-005  0.1016868E+04  0.7818608E-02  0.9290236E-01
          2   -1    0    0  501    0  0.00000000000E+00  0.00000000000E+00  0.14404228530E+04  0.14404228530E+04  0.25500000000E-02 0.  1.
         -2   -1    0    0    0  501 -0.00000000000E+00 -0.00000000000E+00 -0.17946467138E+03  0.17946467139E+03  0.25500000000E-02 0. -1.
    5000001    1    1    2    0    0  0.42816724083E+03 -0.21712735436E+03  0.67577626307E+03  0.84520413621E+03  0.16500000000E+03 0.  0.
   -5000001    1    1    2    0    0 -0.42816724083E+03  0.21712735436E+03  0.58518191856E+03  0.77468338819E+03  0.16500000000E+03 0.  0.
<mgrwt>
<rscale>  0 0.10168678E+04</rscale>
<asrwt>0</asrwt>
<pdfrwt beam="1">  1        2 0.20577470E+00 0.10168678E+04</pdfrwt>
<pdfrwt beam="2">  1       -2 0.25637810E-01 0.10168678E+04</pdfrwt>
<totfact> 0.21452322E+02</totfact>
</mgrwt>
</event>
<event>
 4    1  0.5312547E-005  0.4058601E+03  0.7818608E-02  0.1041769E+00
         -2   -1    0    0    0  501 -0.00000000000E+00  0.00000000000E+00  0.17681868538E+02  0.17681868722E+02  0.25500000000E-02 0. -1.
          2   -1    0    0  501    0  0.00000000000E+00 -0.00000000000E+00 -0.23289739052E+04  0.23289739052E+04  0.25500000000E-02 0.  1.
    5000001    1    1    2    0    0 -0.56406989190E+02 -0.83867681007E+02 -0.80204531825E+03  0.82505589439E+03  0.16500000000E+03 0.  0.
   -5000001    1    1    2    0    0  0.56406989190E+02  0.83867681007E+02 -0.15092467184E+04  0.15215998795E+04  0.16500000000E+03 0.  0.
<mgrwt>
<rscale>  0 0.40586013E+03</rscale>
<asrwt>0</asrwt>
<pdfrwt beam="1">  1        2 0.33271036E+00 0.40586013E+03</pdfrwt>
<pdfrwt beam="2">  1       -2 0.25259827E-02 0.40586013E+03</pdfrwt>
<totfact> 0.33176102E+03</totfact>
</mgrwt>
</event>
<event>
 4    1  0.5312547E-005  0.1016194E+04  0.7818608E-02  0.9290959E-01
         -2   -1    0    0    0  501 -0.00000000000E+00  0.00000000000E+00  0.26711446449E+03  0.26711446450E+03  0.25500000000E-02 0. -1.
          2   -1    0    0  501    0  0.00000000000E+00 -0.00000000000E+00 -0.96648714540E+03  0.96648714540E+03  0.25500000000E-02 0.  1.
    5000001    1    1    2    0    0  0.43724494189E+03  0.13345129446E+03 -0.16985348561E+03  0.51484715574E+03  0.16500000000E+03 0.  0.
   -5000001    1    1    2    0    0 -0.43724494189E+03 -0.13345129446E+03 -0.52951919530E+03  0.71875445417E+03  0.16500000000E+03 0.  0.
<mgrwt>
<rscale>  0 0.10161943E+04</rscale>
<asrwt>0</asrwt>
<pdfrwt beam="1">  1        2 0.13806959E+00 0.10161943E+04</pdfrwt>
<pdfrwt beam="2">  1       -2 0.38159210E-01 0.10161943E+04</pdfrwt>
<totfact> 0.19029408E+02</totfact>
</mgrwt>
</event>
<event>
 4    1  0.5312547E-005  0.4368749E+03  0.7818608E-02  0.1031710E+00
         -2   -1    0    0    0  501 -0.00000000000E+00  0.00000000000E+00  0.14764227222E+02  0.14764227442E+02  0.25500000000E-02 0. -1.
          2   -1    0    0  501    0  0.00000000000E+00 -0.00000000000E+00 -0.32317917947E+04  0.32317917947E+04  0.25500000000E-02 0.  1.
    5000001    1    1    2    0    0 -0.14228073116E+03  0.13748619876E+02 -0.16646572532E+04  0.16789108379E+04  0.16500000000E+03 0.  0.
   -5000001    1    1    2    0    0  0.14228073116E+03 -0.13748619876E+02 -0.15523703142E+04  0.15676451842E+04  0.16500000000E+03 0.  0.
<mgrwt>
<rscale>  0 0.43687485E+03</rscale>
<asrwt>0</asrwt>
<pdfrwt beam="1">  1        2 0.46168409E+00 0.43687485E+03</pdfrwt>
<pdfrwt beam="2">  1       -2 0.21091774E-02 0.43687485E+03</pdfrwt>
<totfact> 0.14567592E+03</totfact>
</mgrwt>
</event>
<event>
 4    1  0.5312547E-005  0.1062286E+04  0.7818608E-02  0.9242751E-01
         -2   -1    0    0    0  501 -0.00000000000E+00  0.00000000000E+00  0.56351276499E+03  0.56351276500E+03  0.25500000000E-02 0. -1.
          2   -1    0    0  501    0  0.00000000000E+00 -0.00000000000E+00 -0.50063239574E+03  0.50063239574E+03  0.25500000000E-02 0.  1.
    5000001    1    1    2    0    0 -0.29761964143E+03  0.37284876517E+03  0.19693860684E+03  0.54185188707E+03  0.16500000000E+03 0.  0.
   -5000001    1    1    2    0    0  0.29761964143E+03 -0.37284876517E+03 -0.13405823758E+03  0.52229327367E+03  0.16500000000E+03 0.  0.
<mgrwt>
<rscale>  0 0.10622857E+04</rscale>
<asrwt>0</asrwt>
<pdfrwt beam="1">  1        2 0.71518914E-01 0.10622857E+04</pdfrwt>
<pdfrwt beam="2">  1       -2 0.80501823E-01 0.10622857E+04</pdfrwt>
<totfact> 0.91026125E+01</totfact>
</mgrwt>
</event>
<event>
 4    1  0.5312547E-005  0.3415007E+03  0.7818608E-02  0.1066159E+00
         -2   -1    0    0    0  501 -0.00000000000E+00  0.00000000000E+00  0.28509870637E+02  0.28509870751E+02  0.25500000000E-02 0. -1.
          2   -1    0    0  501    0  0.00000000000E+00 -0.00000000000E+00 -0.10226522013E+04  0.10226522013E+04  0.25500000000E-02 0.  1.
    5000001    1    1    2    0    0  0.99711905576E+01  0.26216367722E+02 -0.39296333419E+03  0.42712048019E+03  0.16500000000E+03 0.  0.
   -5000001    1    1    2    0    0 -0.99711905576E+01 -0.26216367722E+02 -0.60117899644E+03  0.62404159183E+03  0.16500000000E+03 0.  0.
<mgrwt>
<rscale>  0 0.34150070E+03</rscale>
<asrwt>0</asrwt>
<pdfrwt beam="1">  1        2 0.14609315E+00 0.34150070E+03</pdfrwt>
<pdfrwt beam="2">  1       -2 0.40728393E-02 0.34150070E+03</pdfrwt>
<totfact> 0.75863741E+03</totfact>
</mgrwt>
</event>
<event>
 4    1  0.5312547E-005  0.1215465E+04  0.7818608E-02  0.9099427E-01
          2   -1    0    0  501    0  0.00000000000E+00  0.00000000000E+00  0.16086412008E+04  0.16086412008E+04  0.25500000000E-02 0.  1.
         -2   -1    0    0    0  501 -0.00000000000E+00 -0.00000000000E+00 -0.22959684513E+03  0.22959684515E+03  0.25500000000E-02 0. -1.
    5000001    1    1    2    0    0 -0.79025664333E+02  0.42754839796E+03  0.97816105345E+02  0.47522171529E+03  0.16500000000E+03 0.  0.
   -5000001    1    1    2    0    0  0.79025664333E+02 -0.42754839796E+03  0.12812282503E+04  0.13630163306E+04  0.16500000000E+03 0.  0.
<mgrwt>
<rscale>  0 0.12154653E+04</rscale>
<asrwt>0</asrwt>
<pdfrwt beam="1">  1        2 0.22980587E+00 0.12154653E+04</pdfrwt>
<pdfrwt beam="2">  1       -2 0.32799551E-01 0.12154653E+04</pdfrwt>
<totfact> 0.10935998E+02</totfact>
</mgrwt>
</event>
<event>
 4    1  0.5312547E-005  0.6213108E+03  0.7818608E-02  0.9862153E-01
          2   -1    0    0  501    0  0.00000000000E+00  0.00000000000E+00  0.33030199181E+03  0.33030199182E+03  0.25500000000E-02 0.  1.
         -2   -1    0    0    0  501 -0.00000000000E+00 -0.00000000000E+00 -0.29217736915E+03  0.29217736916E+03  0.25500000000E-02 0. -1.
    5000001    1    1    2    0    0  0.15655504392E+03 -0.21110731695E+03  0.33441516417E+02  0.31212035510E+03  0.16500000000E+03 0.  0.
   -5000001    1    1    2    0    0 -0.15655504392E+03  0.21110731695E+03  0.46831062444E+01  0.31035900588E+03  0.16500000000E+03 0.  0.
<mgrwt>
<rscale>  0 0.62131077E+03</rscale>
<asrwt>0</asrwt>
<pdfrwt beam="1">  1        2 0.47185999E-01 0.62131077E+03</pdfrwt>
<pdfrwt beam="2">  1       -2 0.41739624E-01 0.62131077E+03</pdfrwt>
<totfact> 0.58655068E+02</totfact>
</mgrwt>
</event>
<event>
 4    1  0.5312547E-005  0.4907226E+03  0.7818608E-02  0.1016229E+00
         -2   -1    0    0    0  501 -0.00000000000E+00  0.00000000000E+00  0.83233950332E+03  0.83233950332E+03  0.25500000000E-02 0.  1.
          2   -1    0    0  501    0  0.00000000000E+00 -0.00000000000E+00 -0.72328858059E+02  0.72328858104E+02  0.25500000000E-02 0. -1.
    5000001    1    1    2    0    0 -0.12197230170E+03 -0.13445980699E+03  0.37166163682E+03  0.44532466175E+03  0.16500000000E+03 0.  0.
   -5000001    1    1    2    0    0  0.12197230170E+03  0.13445980699E+03  0.38834900844E+03  0.45934369968E+03  0.16500000000E+03 0.  0.
<mgrwt>
<rscale>  0 0.49072259E+03</rscale>
<asrwt>0</asrwt>
<pdfrwt beam="1">  1        2 0.10332693E-01 0.49072259E+03</pdfrwt>
<pdfrwt beam="2">  1       -2 0.11890565E+00 0.49072259E+03</pdfrwt>
<totfact> 0.35054420E+02</totfact>
</mgrwt>
</event>
<event>
 4    1  0.5312547E-005  0.8190627E+03  0.7818608E-02  0.9532827E-01
         -2   -1    0    0    0  501 -0.00000000000E+00  0.00000000000E+00  0.17052000844E+03  0.17052000846E+03  0.25500000000E-02 0. -1.
          2   -1    0    0  501    0  0.00000000000E+00 -0.00000000000E+00 -0.98355580887E+03  0.98355580888E+03  0.25500000000E-02 0.  1.
    5000001    1    1    2    0    0  0.20192919430E+02 -0.31454992988E+03 -0.69231472593E+03  0.77837914420E+03  0.16500000000E+03 0.  0.
   -5000001    1    1    2    0    0 -0.20192919430E+02  0.31454992988E+03 -0.12072107450E+03  0.37569667314E+03  0.16500000000E+03 0.  0.
<mgrwt>
<rscale>  0 0.81906274E+03</rscale>
<asrwt>0</asrwt>
<pdfrwt beam="1">  1        2 0.14050797E+00 0.81906274E+03</pdfrwt>
<pdfrwt beam="2">  1       -2 0.24360002E-01 0.81906274E+03</pdfrwt>
<totfact> 0.43282099E+02</totfact>
</mgrwt>
</event>
<event>
 4    1  0.5312547E-005  0.5275009E+03  0.7818608E-02  0.1006840E+00
          2   -1    0    0  501    0  0.00000000000E+00  0.00000000000E+00  0.13318071989E+04  0.13318071989E+04  0.25500000000E-02 0.  1.
         -2   -1    0    0    0  501 -0.00000000000E+00 -0.00000000000E+00 -0.52233011398E+02  0.52233011461E+02  0.25500000000E-02 0. -1.
    5000001    1    1    2    0    0 -0.12440823636E+03  0.84809506920E+02  0.27181127680E+03  0.35181874869E+03  0.16500000000E+03 0.  0.
   -5000001    1    1    2    0    0  0.12440823636E+03 -0.84809506920E+02  0.10077629107E+04  0.10322214616E+04  0.16500000000E+03 0.  0.
<mgrwt>
<rscale>  0 0.52750090E+03</rscale>
<asrwt>0</asrwt>
<pdfrwt beam="1">  1        2 0.19025819E+00 0.52750090E+03</pdfrwt>
<pdfrwt beam="2">  1       -2 0.74618580E-02 0.52750090E+03</pdfrwt>
<totfact> 0.20026522E+03</totfact>
</mgrwt>
</event>
<event>
 4    1  0.5312547E-005  0.6647533E+03  0.7818608E-02  0.9779483E-01
         -2   -1    0    0    0  501 -0.00000000000E+00  0.00000000000E+00  0.38339735954E+02  0.38339736039E+02  0.25500000000E-02 0.  1.
          2   -1    0    0  501    0  0.00000000000E+00 -0.00000000000E+00 -0.28814549584E+04  0.28814549584E+04  0.25500000000E-02 0. -1.
    5000001    1    1    2    0    0  0.25226221528E+03  0.45478453012E+02 -0.20033458108E+04  0.20264066602E+04  0.16500000000E+03 0.  0.
   -5000001    1    1    2    0    0 -0.25226221528E+03 -0.45478453012E+02 -0.83976941163E+03  0.89338803420E+03  0.16500000000E+03 0.  0.
<mgrwt>
<rscale>  0 0.66475325E+03</rscale>
<asrwt>0</asrwt>
<pdfrwt beam="1">  1        2 0.41163629E+00 0.66475325E+03</pdfrwt>
<pdfrwt beam="2">  1       -2 0.54771070E-02 0.66475325E+03</pdfrwt>
<totfact> 0.51733622E+02</totfact>
</mgrwt>
</event>
<event>
 4    1  0.5312547E-005  0.5460371E+03  0.7818608E-02  0.1002415E+00
          2   -1    0    0  501    0  0.00000000000E+00  0.00000000000E+00  0.82224046659E+03  0.82224046660E+03  0.25500000000E-02 0.  1.
         -2   -1    0    0    0  501 -0.00000000000E+00 -0.00000000000E+00 -0.90653687331E+02  0.90653687367E+02  0.25500000000E-02 0. -1.
    5000001    1    1    2    0    0 -0.11708068591E+02  0.18020314892E+03  0.16306517663E+03  0.29398215181E+03  0.16500000000E+03 0.  0.
   -5000001    1    1    2    0    0  0.11708068591E+02 -0.18020314892E+03  0.56852160263E+03  0.61891200216E+03  0.16500000000E+03 0.  0.
<mgrwt>
<rscale>  0 0.54603711E+03</rscale>
<asrwt>0</asrwt>
<pdfrwt beam="1">  1        2 0.11746293E+00 0.54603711E+03</pdfrwt>
<pdfrwt beam="2">  1       -2 0.12950526E-01 0.54603711E+03</pdfrwt>
<totfact> 0.16464997E+03</totfact>
</mgrwt>
</event>
<event>
 4    1  0.5312547E-005  0.4053522E+03  0.7818608E-02  0.1041942E+00
         -2   -1    0    0    0  501 -0.00000000000E+00  0.00000000000E+00  0.37946594257E+02  0.37946594343E+02  0.25500000000E-02 0. -1.
          2   -1    0    0  501    0  0.00000000000E+00 -0.00000000000E+00 -0.10825107942E+04  0.10825107942E+04  0.25500000000E-02 0.  1.
    5000001    1    1    2    0    0 -0.35083417199E+02 -0.87672368653E+02 -0.32809519497E+03  0.37919486725E+03  0.16500000000E+03 0.  0.
   -5000001    1    1    2    0    0  0.35083417199E+02  0.87672368653E+02 -0.71646900496E+03  0.74126252128E+03  0.16500000000E+03 0.  0.
<mgrwt>
<rscale>  0 0.40535218E+03</rscale>
<asrwt>0</asrwt>
<pdfrwt beam="1">  1        2 0.15464438E+00 0.40535218E+03</pdfrwt>
<pdfrwt beam="2">  1       -2 0.54209427E-02 0.40535218E+03</pdfrwt>
<totfact> 0.45351512E+03</totfact>
</mgrwt>
</event>
<event>
 4    1  0.5312547E-005  0.5803032E+03  0.7818608E-02  0.9947135E-01
         -2   -1    0    0    0  501 -0.00000000000E+00  0.00000000000E+00  0.29003465018E+03  0.29003465019E+03  0.25500000000E-02 0. -1.
          2   -1    0    0  501    0  0.00000000000E+00 -0.00000000000E+00 -0.29026855394E+03  0.29026855395E+03  0.25500000000E-02 0.  1.
    5000001    1    1    2    0    0  0.19804607375E+03  0.57120979654E+02  0.12020714052E+03  0.29010310284E+03  0.16500000000E+03 0.  0.
   -5000001    1    1    2    0    0 -0.19804607375E+03 -0.57120979654E+02 -0.12044104428E+03  0.29020010130E+03  0.16500000000E+03 0.  0.
<mgrwt>
<rscale>  0 0.58030316E+03</rscale>
<asrwt>0</asrwt>
<pdfrwt beam="1">  1        2 0.41466936E-01 0.58030316E+03</pdfrwt>
<pdfrwt beam="2">  1       -2 0.41433521E-01 0.58030316E+03</pdfrwt>
<totfact> 0.68666813E+02</totfact>
</mgrwt>
</event>
<event>
 4    1  0.5312547E-005  0.5887850E+03  0.7818608E-02  0.9928951E-01
          2   -1    0    0  501    0  0.00000000000E+00  0.00000000000E+00  0.81894468943E+03  0.81894468943E+03  0.25500000000E-02 0.  1.
         -2   -1    0    0    0  501 -0.00000000000E+00 -0.00000000000E+00 -0.10582758226E+03  0.10582758229E+03  0.25500000000E-02 0. -1.
    5000001    1    1    2    0    0 -0.23823188642E+03 -0.45730290702E+02  0.39491077883E+03  0.49196058220E+03  0.16500000000E+03 0.  0.
   -5000001    1    1    2    0    0  0.23823188642E+03  0.45730290702E+02  0.31820632834E+03  0.43281168953E+03  0.16500000000E+03 0.  0.
<mgrwt>
<rscale>  0 0.58878497E+03</rscale>
<asrwt>0</asrwt>
<pdfrwt beam="1">  1        2 0.11699210E+00 0.58878497E+03</pdfrwt>
<pdfrwt beam="2">  1       -2 0.15118226E-01 0.58878497E+03</pdfrwt>
<totfact> 0.12776067E+03</totfact>
</mgrwt>
</event>
<event>
 4    1  0.5312547E-005  0.4727223E+03  0.7818608E-02  0.1021155E+00
          2   -1    0    0  501    0  0.00000000000E+00  0.00000000000E+00  0.12078603387E+04  0.12078603387E+04  0.25500000000E-02 0.  1.
         -2   -1    0    0    0  501 -0.00000000000E+00 -0.00000000000E+00 -0.46252530963E+02  0.46252531033E+02  0.25500000000E-02 0. -1.
    5000001    1    1    2    0    0  0.13284343706E+03  0.87025335377E+02  0.73596934241E+03  0.77077666074E+03  0.16500000000E+03 0.  0.
   -5000001    1    1    2    0    0 -0.13284343706E+03 -0.87025335377E+02  0.42563846535E+03  0.48333620903E+03  0.16500000000E+03 0.  0.
<mgrwt>
<rscale>  0 0.47272232E+03</rscale>
<asrwt>0</asrwt>
<pdfrwt beam="1">  1        2 0.17255146E+00 0.47272232E+03</pdfrwt>
<pdfrwt beam="2">  1       -2 0.66075050E-02 0.47272232E+03</pdfrwt>
<totfact> 0.28348172E+03</totfact>
</mgrwt>
</event>
<event>
 4    1  0.5312547E-005  0.3782963E+03  0.7818608E-02  0.1051565E+00
         -2   -1    0    0    0  501 -0.00000000000E+00  0.00000000000E+00  0.61734411394E+03  0.61734411394E+03  0.25500000000E-02 0. -1.
          2   -1    0    0  501    0  0.00000000000E+00 -0.00000000000E+00 -0.57953137266E+02  0.57953137322E+02  0.25500000000E-02 0.  1.
    5000001    1    1    2    0    0 -0.21073253889E+02  0.66106336238E+02  0.17055733391E+03  0.24724266191E+03  0.16500000000E+03 0.  0.
   -5000001    1    1    2    0    0  0.21073253889E+02 -0.66106336238E+02  0.38883364276E+03  0.42805458935E+03  0.16500000000E+03 0.  0.
<mgrwt>
<rscale>  0 0.37829633E+03</rscale>
<asrwt>0</asrwt>
<pdfrwt beam="1">  1        2 0.82790191E-02 0.37829633E+03</pdfrwt>
<pdfrwt beam="2">  1       -2 0.88192022E-01 0.37829633E+03</pdfrwt>
<totfact> 0.93839411E+02</totfact>
</mgrwt>
</event>
<event>
 4    1  0.5312547E-005  0.5304279E+03  0.7818608E-02  0.1006128E+00
          2   -1    0    0  501    0  0.00000000000E+00  0.00000000000E+00  0.38980347722E+03  0.38980347723E+03  0.25500000000E-02 0.  1.
         -2   -1    0    0    0  501 -0.00000000000E+00 -0.00000000000E+00 -0.18044590303E+03  0.18044590305E+03  0.25500000000E-02 0. -1.
    5000001    1    1    2    0    0  0.11510023203E+03  0.17280766609E+03  0.10650565014E+03  0.28579539252E+03  0.16500000000E+03 0.  0.
   -5000001    1    1    2    0    0 -0.11510023203E+03 -0.17280766609E+03  0.10285192406E+03  0.28445398776E+03  0.16500000000E+03 0.  0.
<mgrwt>
<rscale>  0 0.53042790E+03</rscale>
<asrwt>0</asrwt>
<pdfrwt beam="1">  1        2 0.55686211E-01 0.53042790E+03</pdfrwt>
<pdfrwt beam="2">  1       -2 0.25777986E-01 0.53042790E+03</pdfrwt>
<totfact> 0.12065600E+03</totfact>
</mgrwt>
</event>
<event>
 4    1  0.5312547E-005  0.4799205E+03  0.7818608E-02  0.1019157E+00
         -2   -1    0    0    0  501 -0.00000000000E+00  0.00000000000E+00  0.43401936688E+02  0.43401936763E+02  0.25500000000E-02 0. -1.
          2   -1    0    0  501    0  0.00000000000E+00 -0.00000000000E+00 -0.13266901519E+04  0.13266901519E+04  0.25500000000E-02 0.  1.
    5000001    1    1    2    0    0  0.11507908734E+03 -0.11497631803E+03 -0.46351608371E+03  0.51820354100E+03  0.16500000000E+03 0.  0.
   -5000001    1    1    2    0    0 -0.11507908734E+03  0.11497631803E+03 -0.81977213153E+03  0.85188854769E+03  0.16500000000E+03 0.  0.
<mgrwt>
<rscale>  0 0.47992050E+03</rscale>
<asrwt>0</asrwt>
<pdfrwt beam="1">  1        2 0.18952714E+00 0.47992050E+03</pdfrwt>
<pdfrwt beam="2">  1       -2 0.62002775E-02 0.47992050E+03</pdfrwt>
<totfact> 0.26979122E+03</totfact>
</mgrwt>
</event>
<event>
 4    1  0.5312547E-005  0.3858639E+03  0.7818608E-02  0.1048787E+00
          2   -1    0    0  501    0  0.00000000000E+00  0.00000000000E+00  0.97378796357E+03  0.97378796358E+03  0.25500000000E-02 0.  1.
         -2   -1    0    0    0  501 -0.00000000000E+00 -0.00000000000E+00 -0.38224686379E+02  0.38224686464E+02  0.25500000000E-02 0. -1.
    5000001    1    1    2    0    0 -0.72311076596E+02  0.23605170713E+02  0.29757457131E+03  0.34865702542E+03  0.16500000000E+03 0.  0.
   -5000001    1    1    2    0    0  0.72311076596E+02 -0.23605170713E+02  0.63798870589E+03  0.66335562462E+03  0.16500000000E+03 0.  0.
<mgrwt>
<rscale>  0 0.38586391E+03</rscale>
<asrwt>0</asrwt>
<pdfrwt beam="1">  1        2 0.13911253E+00 0.38586391E+03</pdfrwt>
<pdfrwt beam="2">  1       -2 0.54606711E-02 0.38586391E+03</pdfrwt>
<totfact> 0.51966453E+03</totfact>
</mgrwt>
</event>
<event>
 4    1  0.5312547E-005  0.5403442E+03  0.7818608E-02  0.1003754E+00
          2   -1    0    0  501    0  0.00000000000E+00  0.00000000000E+00  0.33845082440E+03  0.33845082441E+03  0.25500000000E-02 0.  1.
         -2   -1    0    0    0  501 -0.00000000000E+00 -0.00000000000E+00 -0.21566786587E+03  0.21566786588E+03  0.25500000000E-02 0. -1.
    5000001    1    1    2    0    0  0.11846519022E+03  0.17623746005E+03  0.88021187349E+02  0.28296002022E+03  0.16500000000E+03 0.  0.
   -5000001    1    1    2    0    0 -0.11846519022E+03 -0.17623746005E+03  0.34761771183E+02  0.27115867007E+03  0.16500000000E+03 0.  0.
<mgrwt>
<rscale>  0 0.54034421E+03</rscale>
<asrwt>0</asrwt>
<pdfrwt beam="1">  1        2 0.48350118E-01 0.54034421E+03</pdfrwt>
<pdfrwt beam="2">  1       -2 0.30809695E-01 0.54034421E+03</pdfrwt>
<totfact> 0.10183947E+03</totfact>
</mgrwt>
</event>
<event>
 4    1  0.5312547E-005  0.3986129E+03  0.7818608E-02  0.1044261E+00
          2   -1    0    0  501    0  0.00000000000E+00  0.00000000000E+00  0.23012425002E+04  0.23012425002E+04  0.25500000000E-02 0.  1.
         -2   -1    0    0    0  501 -0.00000000000E+00 -0.00000000000E+00 -0.17261573480E+02  0.17261573668E+02  0.25500000000E-02 0. -1.
    5000001    1    1    2    0    0 -0.57814549946E+02 -0.94150942757E+02  0.10427449697E+04  0.10614843352E+04  0.16500000000E+03 0.  0.
   -5000001    1    1    2    0    0  0.57814549946E+02  0.94150942757E+02  0.12412359571E+04  0.12570197386E+04  0.16500000000E+03 0.  0.
<mgrwt>
<rscale>  0 0.39861293E+03</rscale>
<asrwt>0</asrwt>
<pdfrwt beam="1">  1        2 0.32874882E+00 0.39861293E+03</pdfrwt>
<pdfrwt beam="2">  1       -2 0.24659399E-02 0.39861293E+03</pdfrwt>
<totfact> 0.35516611E+03</totfact>
</mgrwt>
</event>
<event>
 4    1  0.5312547E-005  0.4865764E+03  0.7818608E-02  0.1017343E+00
          2   -1    0    0  501    0  0.00000000000E+00  0.00000000000E+00  0.86361282543E+03  0.86361282543E+03  0.25500000000E-02 0.  1.
         -2   -1    0    0    0  501 -0.00000000000E+00 -0.00000000000E+00 -0.68536684688E+02  0.68536684735E+02  0.25500000000E-02 0. -1.
    5000001    1    1    2    0    0  0.36872701674E+02  0.11324882419E+03  0.65297955259E+03  0.68395335251E+03  0.16500000000E+03 0.  0.
   -5000001    1    1    2    0    0 -0.36872701674E+02 -0.11324882419E+03  0.14209658814E+03  0.24819615765E+03  0.16500000000E+03 0.  0.
<mgrwt>
<rscale>  0 0.48657645E+03</rscale>
<asrwt>0</asrwt>
<pdfrwt beam="1">  1        2 0.12337326E+00 0.48657645E+03</pdfrwt>
<pdfrwt beam="2">  1       -2 0.97909552E-02 0.48657645E+03</pdfrwt>
<totfact> 0.24387874E+03</totfact>
</mgrwt>
</event>
<event>
 4    1  0.5312547E-005  0.5983984E+03  0.7818608E-02  0.9908734E-01
          2   -1    0    0  501    0  0.00000000000E+00  0.00000000000E+00  0.15507530696E+04  0.15507530696E+04  0.25500000000E-02 0.  1.
         -2   -1    0    0    0  501 -0.00000000000E+00 -0.00000000000E+00 -0.57726903889E+02  0.57726903945E+02  0.25500000000E-02 0. -1.
    5000001    1    1    2    0    0  0.22963881343E+03  0.69323518325E+02  0.56115117309E+03  0.63218302246E+03  0.16500000000E+03 0.  0.
   -5000001    1    1    2    0    0 -0.22963881343E+03 -0.69323518325E+02  0.93187499261E+03  0.97629695107E+03  0.16500000000E+03 0.  0.
<mgrwt>
<rscale>  0 0.59839844E+03</rscale>
<asrwt>0</asrwt>
<pdfrwt beam="1">  1        2 0.22153617E+00 0.59839844E+03</pdfrwt>
<pdfrwt beam="2">  1       -2 0.82467000E-02 0.59839844E+03</pdfrwt>
<totfact> 0.13077382E+03</totfact>
</mgrwt>
</event>
<event>
 4    1  0.5312547E-005  0.7776313E+03  0.7818608E-02  0.9592971E-01
          2   -1    0    0  501    0  0.00000000000E+00  0.00000000000E+00  0.99872272711E+03  0.99872272711E+03  0.25500000000E-02 0.  1.
         -2   -1    0    0    0  501 -0.00000000000E+00 -0.00000000000E+00 -0.15137096838E+03  0.15137096840E+03  0.25500000000E-02 0. -1.
    5000001    1    1    2    0    0  0.22383155031E+03 -0.27175269353E+03  0.42132017812E+03  0.57331124343E+03  0.16500000000E+03 0.  0.
   -5000001    1    1    2    0    0 -0.22383155031E+03  0.27175269353E+03  0.42603158061E+03  0.57678245208E+03  0.16500000000E+03 0.  0.
<mgrwt>
<rscale>  0 0.77763134E+03</rscale>
<asrwt>0</asrwt>
<pdfrwt beam="1">  1        2 0.14267468E+00 0.77763134E+03</pdfrwt>
<pdfrwt beam="2">  1       -2 0.21624423E-01 0.77763134E+03</pdfrwt>
<totfact> 0.52466562E+02</totfact>
</mgrwt>
</event>
<event>
 4    1  0.5312547E-005  0.4224182E+03  0.7818608E-02  0.1036282E+00
         -2   -1    0    0    0  501 -0.00000000000E+00  0.00000000000E+00  0.29312141546E+03  0.29312141547E+03  0.25500000000E-02 0. -1.
          2   -1    0    0  501    0  0.00000000000E+00 -0.00000000000E+00 -0.15218704762E+03  0.15218704764E+03  0.25500000000E-02 0.  1.
    5000001    1    1    2    0    0  0.21089912882E+02 -0.12580995132E+03  0.10561065446E+03  0.23377668535E+03  0.16500000000E+03 0.  0.
   -5000001    1    1    2    0    0 -0.21089912882E+02  0.12580995132E+03  0.35323713385E+02  0.21153177776E+03  0.16500000000E+03 0.  0.
<mgrwt>
<rscale>  0 0.42241819E+03</rscale>
<asrwt>0</asrwt>
<pdfrwt beam="1">  1        2 0.21741007E-01 0.42241819E+03</pdfrwt>
<pdfrwt beam="2">  1       -2 0.41874488E-01 0.42241819E+03</pdfrwt>
<totfact> 0.13867723E+03</totfact>
</mgrwt>
</event>
<event>
 4    1  0.5312547E-005  0.3954704E+03  0.7818608E-02  0.1045359E+00
         -2   -1    0    0    0  501 -0.00000000000E+00  0.00000000000E+00  0.26955575498E+02  0.26955575619E+02  0.25500000000E-02 0. -1.
          2   -1    0    0  501    0  0.00000000000E+00 -0.00000000000E+00 -0.14505055456E+04  0.14505055456E+04  0.25500000000E-02 0.  1.
    5000001    1    1    2    0    0  0.54848316991E+02 -0.87701956725E+02 -0.83979581469E+03  0.86208003194E+03  0.16500000000E+03 0.  0.
   -5000001    1    1    2    0    0 -0.54848316991E+02  0.87701956725E+02 -0.58375415542E+03  0.61538108929E+03  0.16500000000E+03 0.  0.
<mgrwt>
<rscale>  0 0.39547041E+03</rscale>
<asrwt>0</asrwt>
<pdfrwt beam="1">  1        2 0.20721503E+00 0.39547041E+03</pdfrwt>
<pdfrwt beam="2">  1       -2 0.38507974E-02 0.39547041E+03</pdfrwt>
<totfact> 0.48307763E+03</totfact>
</mgrwt>
</event>
<event>
 4    1  0.5312547E-005  0.4260147E+03  0.7818608E-02  0.1035126E+00
          2   -1    0    0  501    0  0.00000000000E+00  0.00000000000E+00  0.16873475152E+04  0.16873475152E+04  0.25500000000E-02 0.  1.
         -2   -1    0    0    0  501 -0.00000000000E+00 -0.00000000000E+00 -0.26889616088E+02  0.26889616209E+02  0.25500000000E-02 0. -1.
    5000001    1    1    2    0    0  0.21609369547E+02 -0.10788006913E+03  0.11430086734E+04  0.11600857303E+04  0.16500000000E+03 0.  0.
   -5000001    1    1    2    0    0 -0.21609369547E+02  0.10788006913E+03  0.51744922573E+03  0.55415140113E+03  0.16500000000E+03 0.  0.
<mgrwt>
<rscale>  0 0.42601468E+03</rscale>
<asrwt>0</asrwt>
<pdfrwt beam="1">  1        2 0.24104967E+00 0.42601468E+03</pdfrwt>
<pdfrwt beam="2">  1       -2 0.38413734E-02 0.42601468E+03</pdfrwt>
<totfact> 0.36737446E+03</totfact>
</mgrwt>
</event>
<event>
 4    1  0.5312547E-005  0.4939468E+03  0.7818608E-02  0.1015371E+00
         -2   -1    0    0    0  501 -0.00000000000E+00  0.00000000000E+00  0.20654012886E+02  0.20654013043E+02  0.25500000000E-02 0. -1.
          2   -1    0    0  501    0  0.00000000000E+00 -0.00000000000E+00 -0.29532209796E+04  0.29532209796E+04  0.25500000000E-02 0.  1.
    5000001    1    1    2    0    0 -0.65279240227E+02  0.15598371716E+03 -0.18995421328E+04  0.19141780516E+04  0.16500000000E+03 0.  0.
   -5000001    1    1    2    0    0  0.65279240227E+02 -0.15598371716E+03 -0.10330248340E+04  0.10596969410E+04  0.16500000000E+03 0.  0.
<mgrwt>
<rscale>  0 0.49394682E+03</rscale>
<asrwt>0</asrwt>
<pdfrwt beam="1">  1        2 0.42188844E+00 0.49394682E+03</pdfrwt>
<pdfrwt beam="2">  1       -2 0.29505752E-02 0.49394682E+03</pdfrwt>
<totfact> 0.12430919E+03</totfact>
</mgrwt>
</event>
<event>
 4    1  0.5312547E-005  0.5748765E+03  0.7818608E-02  0.9958945E-01
          2   -1    0    0  501    0  0.00000000000E+00  0.00000000000E+00  0.76063656345E+03  0.76063656346E+03  0.25500000000E-02 0.  1.
         -2   -1    0    0    0  501 -0.00000000000E+00 -0.00000000000E+00 -0.10862053813E+03  0.10862053816E+03  0.25500000000E-02 0. -1.
    5000001    1    1    2    0    0 -0.12337191147E+03 -0.19914883553E+03  0.29169801973E+03  0.40889316691E+03  0.16500000000E+03 0.  0.
   -5000001    1    1    2    0    0  0.12337191147E+03  0.19914883553E+03  0.36031800560E+03  0.46036393472E+03  0.16500000000E+03 0.  0.
<mgrwt>
<rscale>  0 0.57487652E+03</rscale>
<asrwt>0</asrwt>
<pdfrwt beam="1">  1        2 0.10866237E+00 0.57487652E+03</pdfrwt>
<pdfrwt beam="2">  1       -2 0.15517220E-01 0.57487652E+03</pdfrwt>
<totfact> 0.13432116E+03</totfact>
</mgrwt>
</event>
<event>
 4    1  0.5312547E-005  0.8206175E+03  0.7818608E-02  0.9530644E-01
         -2   -1    0    0    0  501 -0.00000000000E+00  0.00000000000E+00  0.12608774653E+03  0.12608774656E+03  0.25500000000E-02 0. -1.
          2   -1    0    0  501    0  0.00000000000E+00 -0.00000000000E+00 -0.13352071894E+04  0.13352071894E+04  0.25500000000E-02 0.  1.
    5000001    1    1    2    0    0  0.21795320479E+03  0.10852980755E+03 -0.95116602857E+02  0.30911888772E+03  0.16500000000E+03 0.  0.
   -5000001    1    1    2    0    0 -0.21795320479E+03 -0.10852980755E+03 -0.11140028400E+04  0.11521760482E+04  0.16500000000E+03 0.  0.
<mgrwt>
<rscale>  0 0.82061749E+03</rscale>
<asrwt>0</asrwt>
<pdfrwt beam="1">  1        2 0.19074388E+00 0.82061749E+03</pdfrwt>
<pdfrwt beam="2">  1       -2 0.18012536E-01 0.82061749E+03</pdfrwt>
<totfact> 0.46168850E+02</totfact>
</mgrwt>
</event>
<event>
 4    1  0.5312547E-005  0.4250613E+03  0.7818608E-02  0.1035432E+00
         -2   -1    0    0    0  501 -0.00000000000E+00  0.00000000000E+00  0.16458726966E+03  0.16458726968E+03  0.25500000000E-02 0. -1.
          2   -1    0    0  501    0  0.00000000000E+00 -0.00000000000E+00 -0.27443966857E+03  0.27443966858E+03  0.25500000000E-02 0.  1.
    5000001    1    1    2    0    0  0.13330992473E+03 -0.16994750720E+01 -0.68387105665E+02  0.22288162883E+03  0.16500000000E+03 0.  0.
   -5000001    1    1    2    0    0 -0.13330992473E+03  0.16994750720E+01 -0.41465293251E+02  0.21614530944E+03  0.16500000000E+03 0.  0.
<mgrwt>
<rscale>  0 0.42506129E+03</rscale>
<asrwt>0</asrwt>
<pdfrwt beam="1">  1        2 0.39205667E-01 0.42506129E+03</pdfrwt>
<pdfrwt beam="2">  1       -2 0.23512467E-01 0.42506129E+03</pdfrwt>
<totfact> 0.20866068E+03</totfact>
</mgrwt>
</event>
<event>
 4    1  0.5312547E-005  0.5594668E+03  0.7818608E-02  0.9993262E-01
         -2   -1    0    0    0  501 -0.00000000000E+00  0.00000000000E+00  0.74095046663E+02  0.74095046707E+02  0.25500000000E-02 0. -1.
          2   -1    0    0  501    0  0.00000000000E+00 -0.00000000000E+00 -0.10560866162E+04  0.10560866162E+04  0.25500000000E-02 0.  1.
    5000001    1    1    2    0    0 -0.19800339031E+03 -0.97457568858E+02 -0.39364293621E+03  0.48050294644E+03  0.16500000000E+03 0.  0.
   -5000001    1    1    2    0    0  0.19800339031E+03  0.97457568858E+02 -0.58834863332E+03  0.64967871647E+03  0.16500000000E+03 0.  0.
<mgrwt>
<rscale>  0 0.55946684E+03</rscale>
<asrwt>0</asrwt>
<pdfrwt beam="1">  1        2 0.15086951E+00 0.55946684E+03</pdfrwt>
<pdfrwt beam="2">  1       -2 0.10585007E-01 0.55946684E+03</pdfrwt>
<totfact> 0.16317473E+03</totfact>
</mgrwt>
</event>
<event>
 4    1  0.5312547E-005  0.6574306E+03  0.7818608E-02  0.9792935E-01
         -2   -1    0    0    0  501 -0.00000000000E+00  0.00000000000E+00  0.59499360144E+02  0.59499360198E+02  0.25500000000E-02 0. -1.
          2   -1    0    0  501    0  0.00000000000E+00 -0.00000000000E+00 -0.18160490736E+04  0.18160490736E+04  0.25500000000E-02 0.  1.
    5000001    1    1    2    0    0  0.28236846255E+03 -0.19354856083E+02 -0.80160816226E+03  0.86597182685E+03  0.16500000000E+03 0.  0.
   -5000001    1    1    2    0    0 -0.28236846255E+03  0.19354856083E+02 -0.95494155122E+03  0.10095766070E+04  0.16500000000E+03 0.  0.
<mgrwt>
<rscale>  0 0.65743063E+03</rscale>
<asrwt>0</asrwt>
<pdfrwt beam="1">  1        2 0.25943555E+00 0.65743063E+03</pdfrwt>
<pdfrwt beam="2">  1       -2 0.84999097E-02 0.65743063E+03</pdfrwt>
<totfact> 0.90960828E+02</totfact>
</mgrwt>
</event>
<event>
 4    1  0.5312547E-005  0.5306446E+03  0.7818608E-02  0.1006076E+00
          2   -1    0    0  501    0  0.00000000000E+00  0.00000000000E+00  0.34043047357E+03  0.34043047358E+03  0.25500000000E-02 0.  1.
         -2   -1    0    0    0  501 -0.00000000000E+00 -0.00000000000E+00 -0.20678505966E+03  0.20678505967E+03  0.25500000000E-02 0. -1.
    5000001    1    1    2    0    0 -0.14005862870E+03  0.14849305031E+03  0.10681959791E+03  0.28337613160E+03  0.16500000000E+03 0.  0.
   -5000001    1    1    2    0    0  0.14005862870E+03 -0.14849305031E+03  0.26825815998E+02  0.26383940166E+03  0.16500000000E+03 0.  0.
<mgrwt>
<rscale>  0 0.53064465E+03</rscale>
<asrwt>0</asrwt>
<pdfrwt beam="1">  1        2 0.48632925E-01 0.53064465E+03</pdfrwt>
<pdfrwt beam="2">  1       -2 0.29540723E-01 0.53064465E+03</pdfrwt>
<totfact> 0.10935401E+03</totfact>
</mgrwt>
</event>
<event>
 4    1  0.5312547E-005  0.1006380E+04  0.7818608E-02  0.9301575E-01
         -2   -1    0    0    0  501 -0.00000000000E+00  0.00000000000E+00  0.52708777104E+03  0.52708777104E+03  0.25500000000E-02 0. -1.
          2   -1    0    0  501    0  0.00000000000E+00 -0.00000000000E+00 -0.48037602516E+03  0.48037602516E+03  0.25500000000E-02 0.  1.
    5000001    1    1    2    0    0  0.46544365252E+03 -0.63997962192E+02  0.95834066201E+02  0.50709239895E+03  0.16500000000E+03 0.  0.
   -5000001    1    1    2    0    0 -0.46544365252E+03  0.63997962192E+02 -0.49122320321E+02  0.50037139725E+03  0.16500000000E+03 0.  0.
<mgrwt>
<rscale>  0 0.10063803E+04</rscale>
<asrwt>0</asrwt>
<pdfrwt beam="1">  1        2 0.68625147E-01 0.10063803E+04</pdfrwt>
<pdfrwt beam="2">  1       -2 0.75298253E-01 0.10063803E+04</pdfrwt>
<totfact> 0.11115912E+02</totfact>
</mgrwt>
</event>
<event>
 4    1  0.5312547E-005  0.5897981E+03  0.7818608E-02  0.9926801E-01
          2   -1    0    0  501    0  0.00000000000E+00  0.00000000000E+00  0.12988395042E+03  0.12988395044E+03  0.25500000000E-02 0.  1.
         -2   -1    0    0    0  501 -0.00000000000E+00 -0.00000000000E+00 -0.66956263404E+03  0.66956263404E+03  0.25500000000E-02 0. -1.
    5000001    1    1    2    0    0  0.11518947166E+03 -0.15831815867E+03 -0.71519622042E+02  0.26584452238E+03  0.16500000000E+03 0.  0.
   -5000001    1    1    2    0    0 -0.11518947166E+03  0.15831815867E+03 -0.46815906158E+03  0.53360206210E+03  0.16500000000E+03 0.  0.
<mgrwt>
<rscale>  0 0.58979807E+03</rscale>
<asrwt>0</asrwt>
<pdfrwt beam="1">  1        2 0.18554850E-01 0.58979807E+03</pdfrwt>
<pdfrwt beam="2">  1       -2 0.95651803E-01 0.58979807E+03</pdfrwt>
<totfact> 0.28802167E+02</totfact>
</mgrwt>
</event>
<event>
 4    1  0.5312547E-005  0.7548646E+03  0.7818608E-02  0.9627749E-01
         -2   -1    0    0    0  501 -0.00000000000E+00  0.00000000000E+00  0.55447206449E+02  0.55447206508E+02  0.25500000000E-02 0. -1.
          2   -1    0    0  501    0  0.00000000000E+00 -0.00000000000E+00 -0.25692034228E+04  0.25692034228E+04  0.25500000000E-02 0.  1.
    5000001    1    1    2    0    0 -0.27714590110E+03  0.16044109982E+03 -0.86536692951E+03  0.93735591943E+03  0.16500000000E+03 0.  0.
   -5000001    1    1    2    0    0  0.27714590110E+03 -0.16044109982E+03 -0.16483892868E+04  0.16872947099E+04  0.16500000000E+03 0.  0.
<mgrwt>
<rscale>  0 0.75486463E+03</rscale>
<asrwt>0</asrwt>
<pdfrwt beam="1">  1        2 0.36702899E+00 0.75486463E+03</pdfrwt>
<pdfrwt beam="2">  1       -2 0.79210311E-02 0.75486463E+03</pdfrwt>
<totfact> 0.41880785E+02</totfact>
</mgrwt>
</event>
<event>
 4    1  0.5312547E-005  0.6347368E+03  0.7818608E-02  0.9835849E-01
          2   -1    0    0  501    0  0.00000000000E+00  0.00000000000E+00  0.36184421425E+04  0.36184421425E+04  0.25500000000E-02 0.  1.
         -2   -1    0    0    0  501 -0.00000000000E+00 -0.00000000000E+00 -0.27835932605E+02  0.27835932722E+02  0.25500000000E-02 0. -1.
    5000001    1    1    2    0    0 -0.12143635607E+03  0.17198863903E+03  0.81416422003E+03  0.85698031348E+03  0.16500000000E+03 0.  0.
   -5000001    1    1    2    0    0  0.12143635607E+03 -0.17198863903E+03  0.27764419899E+04  0.27892977618E+04  0.16500000000E+03 0.  0.
<mgrwt>
<rscale>  0 0.63473683E+03</rscale>
<asrwt>0</asrwt>
<pdfrwt beam="1">  1        2 0.51692050E+00 0.63473683E+03</pdfrwt>
<pdfrwt beam="2">  1       -2 0.39765603E-02 0.63473683E+03</pdfrwt>
<totfact> 0.32422694E+02</totfact>
</mgrwt>
</event>
<event>
 4    1  0.5312547E-005  0.5341544E+03  0.7818608E-02  0.1005230E+00
          2   -1    0    0  501    0  0.00000000000E+00  0.00000000000E+00  0.38050039854E+04  0.38050039854E+04  0.25500000000E-02 0.  1.
         -2   -1    0    0    0  501 -0.00000000000E+00 -0.00000000000E+00 -0.18746427732E+02  0.18746427905E+02  0.25500000000E-02 0. -1.
    5000001    1    1    2    0    0  0.18028209288E+03  0.83575319400E+02  0.23796319548E+04  0.23936080939E+04  0.16500000000E+03 0.  0.
   -5000001    1    1    2    0    0 -0.18028209288E+03 -0.83575319400E+02  0.14066256029E+04  0.14301423194E+04  0.16500000000E+03 0.  0.
<mgrwt>
<rscale>  0 0.53415441E+03</rscale>
<asrwt>0</asrwt>
<pdfrwt beam="1">  1        2 0.54357233E+00 0.53415441E+03</pdfrwt>
<pdfrwt beam="2">  1       -2 0.26780595E-02 0.53415441E+03</pdfrwt>
<totfact> 0.45948589E+02</totfact>
</mgrwt>
</event>
<event>
 4    1  0.5312547E-005  0.4685377E+03  0.7818608E-02  0.1022334E+00
          2   -1    0    0  501    0  0.00000000000E+00  0.00000000000E+00  0.16453836613E+04  0.16453836613E+04  0.25500000000E-02 0.  1.
         -2   -1    0    0    0  501 -0.00000000000E+00 -0.00000000000E+00 -0.33355076410E+02  0.33355076507E+02  0.25500000000E-02 0. -1.
    5000001    1    1    2    0    0 -0.38154235272E+02 -0.12202641707E+03  0.42496302800E+03  0.47346041788E+03  0.16500000000E+03 0.  0.
   -5000001    1    1    2    0    0  0.38154235272E+02  0.12202641707E+03  0.11870655569E+04  0.12052783200E+04  0.16500000000E+03 0.  0.
<mgrwt>
<rscale>  0 0.46853772E+03</rscale>
<asrwt>0</asrwt>
<pdfrwt beam="1">  1        2 0.23505483E+00 0.46853772E+03</pdfrwt>
<pdfrwt beam="2">  1       -2 0.47650104E-02 0.46853772E+03</pdfrwt>
<totfact> 0.27725404E+03</totfact>
</mgrwt>
</event>
<event>
 4    1  0.5312547E-005  0.6150584E+03  0.7818608E-02  0.9874648E-01
          2   -1    0    0  501    0  0.00000000000E+00  0.00000000000E+00  0.69052118280E+03  0.69052118281E+03  0.25500000000E-02 0.  1.
         -2   -1    0    0    0  501 -0.00000000000E+00 -0.00000000000E+00 -0.13696061458E+03  0.13696061460E+03  0.25500000000E-02 0. -1.
    5000001    1    1    2    0    0  0.17168369004E+03 -0.13871993380E+03  0.93144783312E+02  0.29089424215E+03  0.16500000000E+03 0.  0.
   -5000001    1    1    2    0    0 -0.17168369004E+03  0.13871993380E+03  0.46041578491E+03  0.53658755526E+03  0.16500000000E+03 0.  0.
<mgrwt>
<rscale>  0 0.61505839E+03</rscale>
<asrwt>0</asrwt>
<pdfrwt beam="1">  1        2 0.98645883E-01 0.61505839E+03</pdfrwt>
<pdfrwt beam="2">  1       -2 0.19565802E-01 0.61505839E+03</pdfrwt>
<totfact> 0.10173668E+03</totfact>
</mgrwt>
</event>
<event>
 4    1  0.5312547E-005  0.5373844E+03  0.7818608E-02  0.1004457E+00
         -2   -1    0    0    0  501 -0.00000000000E+00  0.00000000000E+00  0.77118298618E+02  0.77118298660E+02  0.25500000000E-02 0. -1.
          2   -1    0    0  501    0  0.00000000000E+00 -0.00000000000E+00 -0.93616553179E+03  0.93616553179E+03  0.25500000000E-02 0.  1.
    5000001    1    1    2    0    0  0.91659333264E+01 -0.19927657738E+03 -0.29387515789E+03  0.39164113299E+03  0.16500000000E+03 0.  0.
   -5000001    1    1    2    0    0 -0.91659333264E+01  0.19927657738E+03 -0.56517207528E+03  0.62164269746E+03  0.16500000000E+03 0.  0.
<mgrwt>
<rscale>  0 0.53738438E+03</rscale>
<asrwt>0</asrwt>
<pdfrwt beam="1">  1        2 0.13373793E+00 0.53738438E+03</pdfrwt>
<pdfrwt beam="2">  1       -2 0.11016900E-01 0.53738438E+03</pdfrwt>
<totfact> 0.18094315E+03</totfact>
</mgrwt>
</event>
<event>
 4    1  0.5312547E-005  0.7095989E+03  0.7818608E-02  0.9700956E-01
         -2   -1    0    0    0  501 -0.00000000000E+00  0.00000000000E+00  0.59312536074E+02  0.59312536129E+02  0.25500000000E-02 0. -1.
          2   -1    0    0  501    0  0.00000000000E+00 -0.00000000000E+00 -0.21223615602E+04  0.21223615602E+04  0.25500000000E-02 0.  1.
    5000001    1    1    2    0    0  0.21450787253E+03 -0.15120997106E+03 -0.50096254600E+03  0.58912354835E+03  0.16500000000E+03 0.  0.
   -5000001    1    1    2    0    0 -0.21450787253E+03  0.15120997106E+03 -0.15620864781E+04  0.15925505480E+04  0.16500000000E+03 0.  0.
<mgrwt>
<rscale>  0 0.70959889E+03</rscale>
<asrwt>0</asrwt>
<pdfrwt beam="1">  1        2 0.30319446E+00 0.70959889E+03</pdfrwt>
<pdfrwt beam="2">  1       -2 0.84732207E-02 0.70959889E+03</pdfrwt>
<totfact> 0.63831194E+02</totfact>
</mgrwt>
</event>
<event>
 4    1  0.5312547E-005  0.6575605E+03  0.7818608E-02  0.9792695E-01
         -2   -1    0    0    0  501 -0.00000000000E+00  0.00000000000E+00  0.62865951079E+03  0.62865951080E+03  0.25500000000E-02 0. -1.
          2   -1    0    0  501    0  0.00000000000E+00 -0.00000000000E+00 -0.17194752787E+03  0.17194752788E+03  0.25500000000E-02 0.  1.
    5000001    1    1    2    0    0 -0.27092970736E+03 -0.61045138584E+02  0.30283562477E+03  0.44279095622E+03  0.16500000000E+03 0.  0.
   -5000001    1    1    2    0    0  0.27092970736E+03  0.61045138584E+02  0.15387635816E+03  0.35781608247E+03  0.16500000000E+03 0.  0.
<mgrwt>
<rscale>  0 0.65756049E+03</rscale>
<asrwt>0</asrwt>
<pdfrwt beam="1">  1        2 0.24563933E-01 0.65756049E+03</pdfrwt>
<pdfrwt beam="2">  1       -2 0.89808498E-01 0.65756049E+03</pdfrwt>
<totfact> 0.23999202E+02</totfact>
</mgrwt>
</event>
<event>
 4    1  0.5312547E-005  0.7151009E+03  0.7818608E-02  0.9691751E-01
         -2   -1    0    0    0  501 -0.00000000000E+00  0.00000000000E+00  0.14138601814E+03  0.14138601816E+03  0.25500000000E-02 0. -1.
          2   -1    0    0  501    0  0.00000000000E+00 -0.00000000000E+00 -0.90420759035E+03  0.90420759036E+03  0.25500000000E-02 0.  1.
    5000001    1    1    2    0    0  0.20610838770E+03 -0.16052639781E+03 -0.11835188181E+03  0.33087997794E+03  0.16500000000E+03 0.  0.
   -5000001    1    1    2    0    0 -0.20610838770E+03  0.16052639781E+03 -0.64446969041E+03  0.71471363058E+03  0.16500000000E+03 0.  0.
<mgrwt>
<rscale>  0 0.71510086E+03</rscale>
<asrwt>0</asrwt>
<pdfrwt beam="1">  1        2 0.12917251E+00 0.71510086E+03</pdfrwt>
<pdfrwt beam="2">  1       -2 0.20198003E-01 0.71510086E+03</pdfrwt>
<totfact> 0.68010110E+02</totfact>
</mgrwt>
</event>
<event>
 4    1  0.5312547E-005  0.6430130E+03  0.7818608E-02  0.9819979E-01
         -2   -1    0    0    0  501 -0.00000000000E+00  0.00000000000E+00  0.16382625349E+03  0.16382625351E+03  0.25500000000E-02 0. -1.
          2   -1    0    0  501    0  0.00000000000E+00 -0.00000000000E+00 -0.63095151726E+03  0.63095151727E+03  0.25500000000E-02 0.  1.
    5000001    1    1    2    0    0  0.14865520522E+03 -0.23093261417E+03 -0.26657113423E+03  0.41678940958E+03  0.16500000000E+03 0.  0.
   -5000001    1    1    2    0    0 -0.14865520522E+03  0.23093261417E+03 -0.20055412954E+03  0.37798836120E+03  0.16500000000E+03 0.  0.
<mgrwt>
<rscale>  0 0.64301298E+03</rscale>
<asrwt>0</asrwt>
<pdfrwt beam="1">  1        2 0.90135930E-01 0.64301298E+03</pdfrwt>
<pdfrwt beam="2">  1       -2 0.23403751E-01 0.64301298E+03</pdfrwt>
<totfact> 0.82734299E+02</totfact>
</mgrwt>
</event>
<event>
 4    1  0.5312547E-005  0.8747819E+03  0.7818608E-02  0.9457666E-01
          2   -1    0    0  501    0  0.00000000000E+00  0.00000000000E+00  0.57114625261E+04  0.57114625261E+04  0.25500000000E-02 0.  1.
         -2   -1    0    0    0  501 -0.00000000000E+00 -0.00000000000E+00 -0.33495943416E+02  0.33495943514E+02  0.25500000000E-02 0. -1.
    5000001    1    1    2    0    0 -0.28921018891E+03  0.24895995250E+03  0.37313210224E+04  0.37544114270E+04  0.16500000000E+03 0.  0.
   -5000001    1    1    2    0    0  0.28921018891E+03 -0.24895995250E+03  0.19466455603E+04  0.19905470426E+04  0.16500000000E+03 0.  0.
<mgrwt>
<rscale>  0 0.87478186E+03</rscale>
<asrwt>0</asrwt>
<pdfrwt beam="1">  1        2 0.81592228E+00 0.87478186E+03</pdfrwt>
<pdfrwt beam="2">  1       -2 0.47851403E-02 0.87478186E+03</pdfrwt>
<totfact> 0.33316152E+00</totfact>
</mgrwt>
</event>
<event>
 4    1  0.5312547E-005  0.6062135E+03  0.7818608E-02  0.9892598E-01
          2   -1    0    0  501    0  0.00000000000E+00  0.00000000000E+00  0.25111660977E+04  0.25111660977E+04  0.25500000000E-02 0. -1.
         -2   -1    0    0    0  501 -0.00000000000E+00 -0.00000000000E+00 -0.36586068862E+02  0.36586068951E+02  0.25500000000E-02 0.  1.
    5000001    1    1    2    0    0 -0.19798064109E+03  0.15328885546E+03  0.10514699617E+04  0.10933928333E+04  0.16500000000E+03 0.  0.
   -5000001    1    1    2    0    0  0.19798064109E+03 -0.15328885546E+03  0.14231100672E+04  0.14543593334E+04  0.16500000000E+03 0.  0.
<mgrwt>
<rscale>  0 0.60621348E+03</rscale>
<asrwt>0</asrwt>
<pdfrwt beam="1">  1        2 0.35873806E+00 0.60621348E+03</pdfrwt>
<pdfrwt beam="2">  1       -2 0.52265806E-02 0.60621348E+03</pdfrwt>
<totfact> 0.87450352E+02</totfact>
</mgrwt>
</event>
<event>
 4    1  0.5312547E-005  0.4833874E+03  0.7818608E-02  0.1018208E+00
          2   -1    0    0  501    0  0.00000000000E+00  0.00000000000E+00  0.23959340884E+04  0.23959340884E+04  0.25500000000E-02 0.  1.
         -2   -1    0    0    0  501 -0.00000000000E+00 -0.00000000000E+00 -0.24381243652E+02  0.24381243785E+02  0.25500000000E-02 0. -1.
    5000001    1    1    2    0    0  0.67938372028E+02  0.16103935623E+03  0.10589546023E+04  0.10858909459E+04  0.16500000000E+03 0.  0.
   -5000001    1    1    2    0    0 -0.67938372028E+02 -0.16103935623E+03  0.13125982425E+04  0.13344243863E+04  0.16500000000E+03 0.  0.
<mgrwt>
<rscale>  0 0.48338743E+03</rscale>
<asrwt>0</asrwt>
<pdfrwt beam="1">  1        2 0.34227600E+00 0.48338743E+03</pdfrwt>
<pdfrwt beam="2">  1       -2 0.34830378E-02 0.48338743E+03</pdfrwt>
<totfact> 0.18837030E+03</totfact>
</mgrwt>
</event>
<event>
 4    1  0.5312547E-005  0.7457220E+03  0.7818608E-02  0.9642086E-01
          2   -1    0    0  501    0  0.00000000000E+00  0.00000000000E+00  0.45854697466E+03  0.45854697466E+03  0.25500000000E-02 0.  1.
         -2   -1    0    0    0  501 -0.00000000000E+00 -0.00000000000E+00 -0.30318669553E+03  0.30318669554E+03  0.25500000000E-02 0. -1.
    5000001    1    1    2    0    0  0.55924194283E+02  0.32443607460E+03  0.17995614115E+02  0.36869380810E+03  0.16500000000E+03 0.  0.
   -5000001    1    1    2    0    0 -0.55924194283E+02 -0.32443607460E+03  0.13736466501E+03  0.39303986210E+03  0.16500000000E+03 0.  0.
<mgrwt>
<rscale>  0 0.74572204E+03</rscale>
<asrwt>0</asrwt>
<pdfrwt beam="1">  1        2 0.65506710E-01 0.74572204E+03</pdfrwt>
<pdfrwt beam="2">  1       -2 0.43312385E-01 0.74572204E+03</pdfrwt>
<totfact> 0.37712854E+02</totfact>
</mgrwt>
</event>
<event>
 4    1  0.5312547E-005  0.8367168E+03  0.7818608E-02  0.9508341E-01
          2   -1    0    0  501    0  0.00000000000E+00  0.00000000000E+00  0.76092597219E+03  0.76092597219E+03  0.25500000000E-02 0.  1.
         -2   -1    0    0    0  501 -0.00000000000E+00 -0.00000000000E+00 -0.23001414169E+03  0.23001414171E+03  0.25500000000E-02 0. -1.
    5000001    1    1    2    0    0  0.42434769922E+01  0.28098889963E+03  0.57615866523E+03  0.66193396674E+03  0.16500000000E+03 0.  0.
   -5000001    1    1    2    0    0 -0.42434769922E+01 -0.28098889963E+03 -0.45246834729E+02  0.32900614716E+03  0.16500000000E+03 0.  0.
<mgrwt>
<rscale>  0 0.83671676E+03</rscale>
<asrwt>0</asrwt>
<pdfrwt beam="1">  1        2 0.10870371E+00 0.83671676E+03</pdfrwt>
<pdfrwt beam="2">  1       -2 0.32859163E-01 0.83671676E+03</pdfrwt>
<totfact> 0.35097682E+02</totfact>
</mgrwt>
</event>
<event>
 4    1  0.5312547E-005  0.5560307E+03  0.7818608E-02  0.1000108E+00
         -2   -1    0    0    0  501 -0.00000000000E+00  0.00000000000E+00  0.61249410117E+02  0.61249410170E+02  0.25500000000E-02 0. -1.
          2   -1    0    0  501    0  0.00000000000E+00 -0.00000000000E+00 -0.12619309283E+04  0.12619309283E+04  0.25500000000E-02 0.  1.
    5000001    1    1    2    0    0 -0.17318691138E+03 -0.87043668586E+02 -0.33431298720E+03  0.42019100410E+03  0.16500000000E+03 0.  0.
   -5000001    1    1    2    0    0  0.17318691138E+03  0.87043668586E+02 -0.86636853101E+03  0.90298933440E+03  0.16500000000E+03 0.  0.
<mgrwt>
<rscale>  0 0.55603066E+03</rscale>
<asrwt>0</asrwt>
<pdfrwt beam="1">  1        2 0.18027583E+00 0.55603066E+03</pdfrwt>
<pdfrwt beam="2">  1       -2 0.87499165E-02 0.55603066E+03</pdfrwt>
<totfact> 0.16950848E+03</totfact>
</mgrwt>
</event>
<event>
 4    1  0.5312547E-005  0.1070753E+04  0.7818608E-02  0.9234176E-01
         -2   -1    0    0    0  501 -0.00000000000E+00  0.00000000000E+00  0.84478535849E+02  0.84478535887E+02  0.25500000000E-02 0. -1.
          2   -1    0    0  501    0  0.00000000000E+00 -0.00000000000E+00 -0.33929080521E+04  0.33929080521E+04  0.25500000000E-02 0.  1.
    5000001    1    1    2    0    0 -0.46623517108E+03 -0.47887273203E+01 -0.23198141007E+04  0.23719529145E+04  0.16500000000E+03 0.  0.
   -5000001    1    1    2    0    0  0.46623517108E+03  0.47887273203E+01 -0.98861541546E+03  0.11054336734E+04  0.16500000000E+03 0.  0.
<mgrwt>
<rscale>  0 0.10707528E+04</rscale>
<asrwt>0</asrwt>
<pdfrwt beam="1">  1        2 0.48470106E+00 0.10707528E+04</pdfrwt>
<pdfrwt beam="2">  1       -2 0.12068364E-01 0.10707528E+04</pdfrwt>
<totfact> 0.71988341E+01</totfact>
</mgrwt>
</event>
<event>
 4    1  0.5312547E-005  0.5748094E+03  0.7818608E-02  0.9959092E-01
         -2   -1    0    0    0  501 -0.00000000000E+00  0.00000000000E+00  0.69168314402E+02  0.69168314449E+02  0.25500000000E-02 0. -1.
          2   -1    0    0  501    0  0.00000000000E+00 -0.00000000000E+00 -0.11942094138E+04  0.11942094138E+04  0.25500000000E-02 0.  1.
    5000001    1    1    2    0    0 -0.12322488977E+03  0.19986480386E+03 -0.52803798577E+03  0.60098205272E+03  0.16500000000E+03 0.  0.
   -5000001    1    1    2    0    0  0.12322488977E+03 -0.19986480386E+03 -0.59700311366E+03  0.66239567556E+03  0.16500000000E+03 0.  0.
<mgrwt>
<rscale>  0 0.57480937E+03</rscale>
<asrwt>0</asrwt>
<pdfrwt beam="1">  1        2 0.17060133E+00 0.57480937E+03</pdfrwt>
<pdfrwt beam="2">  1       -2 0.98811885E-02 0.57480937E+03</pdfrwt>
<totfact> 0.15189667E+03</totfact>
</mgrwt>
</event>
<event>
 4    1  0.5312547E-005  0.6895296E+03  0.7818608E-02  0.9735307E-01
         -2   -1    0    0    0  501 -0.00000000000E+00  0.00000000000E+00  0.78760183970E+02  0.78760184011E+02  0.25500000000E-02 0. -1.
          2   -1    0    0  501    0  0.00000000000E+00 -0.00000000000E+00 -0.15091732961E+04  0.15091732961E+04  0.25500000000E-02 0.  1.
    5000001    1    1    2    0    0 -0.58024130917E+02  0.28085447235E+03 -0.93838499722E+03  0.99500624994E+03  0.16500000000E+03 0.  0.
   -5000001    1    1    2    0    0  0.58024130917E+02 -0.28085447235E+03 -0.49202811486E+03  0.59292723013E+03  0.16500000000E+03 0.  0.
<mgrwt>
<rscale>  0 0.68952960E+03</rscale>
<asrwt>0</asrwt>
<pdfrwt beam="1">  1        2 0.21559617E+00 0.68952960E+03</pdfrwt>
<pdfrwt beam="2">  1       -2 0.11251456E-01 0.68952960E+03</pdfrwt>
<totfact> 0.82813606E+02</totfact>
</mgrwt>
</event>
<event>
 4    1  0.5312547E-005  0.3908144E+03  0.7818608E-02  0.1047008E+00
         -2   -1    0    0    0  501 -0.00000000000E+00  0.00000000000E+00  0.82757353948E+02  0.82757353988E+02  0.25500000000E-02 0. -1.
          2   -1    0    0  501    0  0.00000000000E+00 -0.00000000000E+00 -0.46139681789E+03  0.46139681789E+03  0.25500000000E-02 0.  1.
    5000001    1    1    2    0    0 -0.16139621812E+02  0.10340842251E+03 -0.18614755235E+03  0.26986978431E+03  0.16500000000E+03 0.  0.
   -5000001    1    1    2    0    0  0.16139621812E+02 -0.10340842251E+03 -0.19249191159E+03  0.27428438757E+03  0.16500000000E+03 0.  0.
<mgrwt>
<rscale>  0 0.39081443E+03</rscale>
<asrwt>0</asrwt>
<pdfrwt beam="1">  1        2 0.65913830E-01 0.39081443E+03</pdfrwt>
<pdfrwt beam="2">  1       -2 0.11822479E-01 0.39081443E+03</pdfrwt>
<totfact> 0.37729481E+03</totfact>
</mgrwt>
</event>
<event>
 4    1  0.5312547E-005  0.4671017E+03  0.7818608E-02  0.1022741E+00
         -2   -1    0    0    0  501 -0.00000000000E+00  0.00000000000E+00  0.56333822941E+02  0.56333822998E+02  0.25500000000E-02 0. -1.
          2   -1    0    0  501    0  0.00000000000E+00 -0.00000000000E+00 -0.96826380429E+03  0.96826380430E+03  0.25500000000E-02 0.  1.
    5000001    1    1    2    0    0  0.12850262840E+03  0.65507101790E+02 -0.63304204113E+03  0.66990397202E+03  0.16500000000E+03 0.  0.
   -5000001    1    1    2    0    0 -0.12850262840E+03 -0.65507101790E+02 -0.27888794022E+03  0.35469365528E+03  0.16500000000E+03 0.  0.
<mgrwt>
<rscale>  0 0.46710171E+03</rscale>
<asrwt>0</asrwt>
<pdfrwt beam="1">  1        2 0.13832339E+00 0.46710171E+03</pdfrwt>
<pdfrwt beam="2">  1       -2 0.80476896E-02 0.46710171E+03</pdfrwt>
<totfact> 0.28627181E+03</totfact>
</mgrwt>
</event>
<event>
 4    1  0.5312547E-005  0.4863014E+03  0.7818608E-02  0.1017418E+00
         -2   -1    0    0    0  501 -0.00000000000E+00  0.00000000000E+00  0.27806741888E+02  0.27806742005E+02  0.25500000000E-02 0. -1.
          2   -1    0    0  501    0  0.00000000000E+00 -0.00000000000E+00 -0.21261845024E+04  0.21261845024E+04  0.25500000000E-02 0.  1.
    5000001    1    1    2    0    0  0.91825897997E+02 -0.11156882446E+03 -0.15141142071E+04  0.15299171319E+04  0.16500000000E+03 0.  0.
   -5000001    1    1    2    0    0 -0.91825897997E+02  0.11156882446E+03 -0.58426355335E+03  0.62407411251E+03  0.16500000000E+03 0.  0.
<mgrwt>
<rscale>  0 0.48630140E+03</rscale>
<asrwt>0</asrwt>
<pdfrwt beam="1">  1        2 0.30374054E+00 0.48630140E+03</pdfrwt>
<pdfrwt beam="2">  1       -2 0.39723931E-02 0.48630140E+03</pdfrwt>
<totfact> 0.21049766E+03</totfact>
</mgrwt>
</event>
<event>
 4    1  0.5312547E-005  0.1141124E+04  0.7818608E-02  0.9166011E-01
          2   -1    0    0  501    0  0.00000000000E+00  0.00000000000E+00  0.89818917451E+03  0.89818917452E+03  0.25500000000E-02 0.  1.
         -2   -1    0    0    0  501 -0.00000000000E+00 -0.00000000000E+00 -0.36244159966E+03  0.36244159967E+03  0.25500000000E-02 0. -1.
    5000001    1    1    2    0    0  0.10144423585E+03 -0.48943665651E+03  0.51110685349E+03  0.73368548398E+03  0.16500000000E+03 0.  0.
   -5000001    1    1    2    0    0 -0.10144423585E+03  0.48943665651E+03  0.24640721363E+02  0.52694529020E+03  0.16500000000E+03 0.  0.
<mgrwt>
<rscale>  0 0.11411242E+04</rscale>
<asrwt>0</asrwt>
<pdfrwt beam="1">  1        2 0.12831274E+00 0.11411242E+04</pdfrwt>
<pdfrwt beam="2">  1       -2 0.51777372E-01 0.11411242E+04</pdfrwt>
<totfact> 0.11377215E+02</totfact>
</mgrwt>
</event>
<event>
 4    1  0.5312547E-005  0.3614449E+03  0.7818608E-02  0.1058013E+00
          2   -1    0    0  501    0  0.00000000000E+00  0.00000000000E+00  0.51551300650E+02  0.51551300713E+02  0.25500000000E-02 0.  1.
         -2   -1    0    0    0  501 -0.00000000000E+00 -0.00000000000E+00 -0.63355521909E+03  0.63355521909E+03  0.25500000000E-02 0. -1.
    5000001    1    1    2    0    0  0.71006355827E+02 -0.11573848365E+02 -0.26045382480E+03  0.31660235531E+03  0.16500000000E+03 0.  0.
   -5000001    1    1    2    0    0 -0.71006355827E+02  0.11573848365E+02 -0.32155009364E+03  0.36850416450E+03  0.16500000000E+03 0.  0.
<mgrwt>
<rscale>  0 0.36144485E+03</rscale>
<asrwt>0</asrwt>
<pdfrwt beam="1">  1        2 0.73644719E-02 0.36144485E+03</pdfrwt>
<pdfrwt beam="2">  1       -2 0.90507884E-01 0.36144485E+03</pdfrwt>
<totfact> 0.10278191E+03</totfact>
</mgrwt>
</event>
<event>
 4    1  0.5312547E-005  0.8319671E+03  0.7818608E-02  0.9514865E-01
         -2   -1    0    0    0  501 -0.00000000000E+00  0.00000000000E+00  0.59815559794E+02  0.59815559849E+02  0.25500000000E-02 0. -1.
          2   -1    0    0  501    0  0.00000000000E+00 -0.00000000000E+00 -0.28929317700E+04  0.28929317700E+04  0.25500000000E-02 0.  1.
    5000001    1    1    2    0    0 -0.86218131836E+02 -0.21896070646E+03 -0.34922414479E+03  0.45228294301E+03  0.16500000000E+03 0.  0.
   -5000001    1    1    2    0    0  0.86218131836E+02  0.21896070646E+03 -0.24838920654E+04  0.25004643869E+04  0.16500000000E+03 0.  0.
<mgrwt>
<rscale>  0 0.83196715E+03</rscale>
<asrwt>0</asrwt>
<pdfrwt beam="1">  1        2 0.41327588E+00 0.83196715E+03</pdfrwt>
<pdfrwt beam="2">  1       -2 0.85450818E-02 0.83196715E+03</pdfrwt>
<totfact> 0.24813925E+02</totfact>
</mgrwt>
</event>
<event>
 4    1  0.5312547E-005  0.6191889E+03  0.7818608E-02  0.9866376E-01
          2   -1    0    0  501    0  0.00000000000E+00  0.00000000000E+00  0.14033739342E+04  0.14033739342E+04  0.25500000000E-02 0.  1.
         -2   -1    0    0    0  501 -0.00000000000E+00 -0.00000000000E+00 -0.68298777948E+02  0.68298777995E+02  0.25500000000E-02 0. -1.
    5000001    1    1    2    0    0 -0.81853015361E+02 -0.24749737641E+03  0.60606876818E+03  0.68007295139E+03  0.16500000000E+03 0.  0.
   -5000001    1    1    2    0    0  0.81853015361E+02  0.24749737641E+03  0.72900638804E+03  0.79159976077E+03  0.16500000000E+03 0.  0.
<mgrwt>
<rscale>  0 0.61918890E+03</rscale>
<asrwt>0</asrwt>
<pdfrwt beam="1">  1        2 0.20048197E+00 0.61918890E+03</pdfrwt>
<pdfrwt beam="2">  1       -2 0.97569695E-02 0.61918890E+03</pdfrwt>
<totfact> 0.11911475E+03</totfact>
</mgrwt>
</event>
<event>
 4    1  0.5312547E-005  0.5731188E+03  0.7818608E-02  0.9962801E-01
          2   -1    0    0  501    0  0.00000000000E+00  0.00000000000E+00  0.59286559522E+03  0.59286559523E+03  0.25500000000E-02 0.  1.
         -2   -1    0    0    0  501 -0.00000000000E+00 -0.00000000000E+00 -0.13850744956E+03  0.13850744958E+03  0.25500000000E-02 0. -1.
    5000001    1    1    2    0    0  0.16657159751E+03  0.61333017859E+02  0.42232015111E+03  0.48691595395E+03  0.16500000000E+03 0.  0.
   -5000001    1    1    2    0    0 -0.16657159751E+03 -0.61333017859E+02  0.32037994555E+02  0.24445709086E+03  0.16500000000E+03 0.  0.
<mgrwt>
<rscale>  0 0.57311884E+03</rscale>
<asrwt>0</asrwt>
<pdfrwt beam="1">  1        2 0.84695087E-01 0.57311884E+03</pdfrwt>
<pdfrwt beam="2">  1       -2 0.19786778E-01 0.57311884E+03</pdfrwt>
<totfact> 0.11976770E+03</totfact>
</mgrwt>
</event>
<event>
 4    1  0.5312547E-005  0.5820133E+03  0.7818608E-02  0.9943442E-01
          2   -1    0    0  501    0  0.00000000000E+00  0.00000000000E+00  0.23015306945E+04  0.23015306945E+04  0.25500000000E-02 0.  1.
         -2   -1    0    0    0  501 -0.00000000000E+00 -0.00000000000E+00 -0.36795017990E+02  0.36795018079E+02  0.25500000000E-02 0. -1.
    5000001    1    1    2    0    0 -0.53818203105E+02 -0.23114430950E+03  0.99696810465E+03  0.10380243217E+04  0.16500000000E+03 0.  0.
   -5000001    1    1    2    0    0  0.53818203105E+02  0.23114430950E+03  0.12677675718E+04  0.13003013908E+04  0.16500000000E+03 0.  0.
<mgrwt>
<rscale>  0 0.58201328E+03</rscale>
<asrwt>0</asrwt>
<pdfrwt beam="1">  1        2 0.32879010E+00 0.58201328E+03</pdfrwt>
<pdfrwt beam="2">  1       -2 0.52564311E-02 0.58201328E+03</pdfrwt>
<totfact> 0.11103139E+03</totfact>
</mgrwt>
</event>
<event>
 4    1  0.5312547E-005  0.5528283E+03  0.7818608E-02  0.1000841E+00
          2   -1    0    0  501    0  0.00000000000E+00  0.00000000000E+00  0.16110807409E+04  0.16110807409E+04  0.25500000000E-02 0.  1.
         -2   -1    0    0    0  501 -0.00000000000E+00 -0.00000000000E+00 -0.47424552477E+02  0.47424552545E+02  0.25500000000E-02 0. -1.
    5000001    1    1    2    0    0  0.19997317031E+01 -0.22175298651E+03  0.77828189438E+03  0.82590925232E+03  0.16500000000E+03 0.  0.
   -5000001    1    1    2    0    0 -0.19997317031E+01  0.22175298651E+03  0.78537429400E+03  0.83259604109E+03  0.16500000000E+03 0.  0.
<mgrwt>
<rscale>  0 0.55282830E+03</rscale>
<asrwt>0</asrwt>
<pdfrwt beam="1">  1        2 0.23015445E+00 0.55282830E+03</pdfrwt>
<pdfrwt beam="2">  1       -2 0.67749342E-02 0.55282830E+03</pdfrwt>
<totfact> 0.16655370E+03</totfact>
</mgrwt>
</event>
<event>
 4    1  0.5312547E-005  0.4304133E+03  0.7818608E-02  0.1033729E+00
          2   -1    0    0  501    0  0.00000000000E+00  0.00000000000E+00  0.11052988289E+03  0.11052988292E+03  0.25500000000E-02 0.  1.
         -2   -1    0    0    0  501 -0.00000000000E+00 -0.00000000000E+00 -0.41901701152E+03  0.41901701153E+03  0.25500000000E-02 0. -1.
    5000001    1    1    2    0    0  0.68835504624E+02 -0.83508992602E+02 -0.25991398086E+03  0.32633166562E+03  0.16500000000E+03 0.  0.
   -5000001    1    1    2    0    0 -0.68835504624E+02  0.83508992602E+02 -0.48573147768E+02  0.20321522882E+03  0.16500000000E+03 0.  0.
<mgrwt>
<rscale>  0 0.43041330E+03</rscale>
<asrwt>0</asrwt>
<pdfrwt beam="1">  1        2 0.15789984E-01 0.43041330E+03</pdfrwt>
<pdfrwt beam="2">  1       -2 0.59859572E-01 0.43041330E+03</pdfrwt>
<totfact> 0.98197507E+02</totfact>
</mgrwt>
</event>
<event>
 4    1  0.5312547E-005  0.3755903E+03  0.7818608E-02  0.1052576E+00
         -2   -1    0    0    0  501 -0.00000000000E+00  0.00000000000E+00  0.15944046140E+02  0.15944046344E+02  0.25500000000E-02 0. -1.
          2   -1    0    0  501    0  0.00000000000E+00 -0.00000000000E+00 -0.22119240673E+04  0.22119240673E+04  0.25500000000E-02 0.  1.
    5000001    1    1    2    0    0  0.28577209782E+02  0.58248646126E+02 -0.73078060215E+03  0.75198061822E+03  0.16500000000E+03 0.  0.
   -5000001    1    1    2    0    0 -0.28577209782E+02 -0.58248646126E+02 -0.14651994190E+04  0.14758874954E+04  0.16500000000E+03 0.  0.
<mgrwt>
<rscale>  0 0.37559031E+03</rscale>
<asrwt>0</asrwt>
<pdfrwt beam="1">  1        2 0.31598896E+00 0.37559031E+03</pdfrwt>
<pdfrwt beam="2">  1       -2 0.22777223E-02 0.37559031E+03</pdfrwt>
<totfact> 0.44320322E+03</totfact>
</mgrwt>
</event>
<event>
 4    1  0.5312547E-005  0.6948586E+03  0.7818608E-02  0.9726065E-01
         -2   -1    0    0    0  501 -0.00000000000E+00  0.00000000000E+00  0.94937387284E+03  0.94937387285E+03  0.25500000000E-02 0. -1.
          2   -1    0    0  501    0  0.00000000000E+00 -0.00000000000E+00 -0.12714393297E+03  0.12714393299E+03  0.25500000000E-02 0.  1.
    5000001    1    1    2    0    0  0.14995075461E+03  0.24161827516E+03  0.23709000135E+03  0.40534095332E+03  0.16500000000E+03 0.  0.
   -5000001    1    1    2    0    0 -0.14995075461E+03 -0.24161827516E+03  0.58513993852E+03  0.67117685252E+03  0.16500000000E+03 0.  0.
<mgrwt>
<rscale>  0 0.69485863E+03</rscale>
<asrwt>0</asrwt>
<pdfrwt beam="1">  1        2 0.18163419E-01 0.69485863E+03</pdfrwt>
<pdfrwt beam="2">  1       -2 0.13562484E+00 0.69485863E+03</pdfrwt>
<totfact> 0.12567522E+02</totfact>
</mgrwt>
</event>
<event>
 4    1  0.5312547E-005  0.5812994E+03  0.7818608E-02  0.9944982E-01
         -2   -1    0    0    0  501 -0.00000000000E+00  0.00000000000E+00  0.30028265986E+02  0.30028266095E+02  0.25500000000E-02 0. -1.
          2   -1    0    0  501    0  0.00000000000E+00 -0.00000000000E+00 -0.28132579882E+04  0.28132579882E+04  0.25500000000E-02 0.  1.
    5000001    1    1    2    0    0  0.18382384926E+03  0.59722526003E+02 -0.70171715037E+03  0.74631759111E+03  0.16500000000E+03 0.  0.
   -5000001    1    1    2    0    0 -0.18382384926E+03 -0.59722526003E+02 -0.20815125718E+04  0.20969686632E+04  0.16500000000E+03 0.  0.
<mgrwt>
<rscale>  0 0.58129944E+03</rscale>
<asrwt>0</asrwt>
<pdfrwt beam="1">  1        2 0.40189383E+00 0.58129944E+03</pdfrwt>
<pdfrwt beam="2">  1       -2 0.42897541E-02 0.58129944E+03</pdfrwt>
<totfact> 0.82774901E+02</totfact>
</mgrwt>
</event>
<event>
 4    1  0.5312547E-005  0.5476630E+03  0.7818608E-02  0.1002036E+00
          2   -1    0    0  501    0  0.00000000000E+00  0.00000000000E+00  0.23062628355E+03  0.23062628356E+03  0.25500000000E-02 0.  1.
         -2   -1    0    0    0  501 -0.00000000000E+00 -0.00000000000E+00 -0.32513068666E+03  0.32513068667E+03  0.25500000000E-02 0. -1.
    5000001    1    1    2    0    0  0.19967007215E+03 -0.39224496883E+02  0.33625017105E+02  0.26412561527E+03  0.16500000000E+03 0.  0.
   -5000001    1    1    2    0    0 -0.19967007215E+03  0.39224496883E+02 -0.12812942022E+03  0.29163135495E+03  0.16500000000E+03 0.  0.
<mgrwt>
<rscale>  0 0.54766297E+03</rscale>
<asrwt>0</asrwt>
<pdfrwt beam="1">  1        2 0.32946612E-01 0.54766297E+03</pdfrwt>
<pdfrwt beam="2">  1       -2 0.46447241E-01 0.54766297E+03</pdfrwt>
<totfact> 0.70745027E+02</totfact>
</mgrwt>
</event>
<event>
 4    1  0.5312547E-005  0.5443330E+03  0.7818608E-02  0.1002814E+00
          2   -1    0    0  501    0  0.00000000000E+00  0.00000000000E+00  0.10993640491E+04  0.10993640491E+04  0.25500000000E-02 0.  1.
         -2   -1    0    0    0  501 -0.00000000000E+00 -0.00000000000E+00 -0.67379507036E+02  0.67379507084E+02  0.25500000000E-02 0. -1.
    5000001    1    1    2    0    0 -0.18154603672E+03 -0.10951289658E+03  0.42262178725E+03  0.50078559586E+03  0.16500000000E+03 0.  0.
   -5000001    1    1    2    0    0  0.18154603672E+03  0.10951289658E+03  0.60936275485E+03  0.66595796036E+03  0.16500000000E+03 0.  0.
<mgrwt>
<rscale>  0 0.54433301E+03</rscale>
<asrwt>0</asrwt>
<pdfrwt beam="1">  1        2 0.15705200E+00 0.54433301E+03</pdfrwt>
<pdfrwt beam="2">  1       -2 0.96256445E-02 0.54433301E+03</pdfrwt>
<totfact> 0.17956362E+03</totfact>
</mgrwt>
</event>
<event>
 4    1  0.5312547E-005  0.3751107E+03  0.7818608E-02  0.1052756E+00
         -2   -1    0    0    0  501 -0.00000000000E+00  0.00000000000E+00  0.29044131113E+02  0.29044131225E+02  0.25500000000E-02 0. -1.
          2   -1    0    0  501    0  0.00000000000E+00 -0.00000000000E+00 -0.12111569503E+04  0.12111569503E+04  0.25500000000E-02 0.  1.
    5000001    1    1    2    0    0 -0.45924294969E+02 -0.49214846622E+02 -0.39768141663E+03  0.43578280270E+03  0.16500000000E+03 0.  0.
   -5000001    1    1    2    0    0  0.45924294969E+02  0.49214846622E+02 -0.78443140256E+03  0.80441827883E+03  0.16500000000E+03 0.  0.
<mgrwt>
<rscale>  0 0.37511066E+03</rscale>
<asrwt>0</asrwt>
<pdfrwt beam="1">  1        2 0.17302239E+00 0.37511066E+03</pdfrwt>
<pdfrwt beam="2">  1       -2 0.41491624E-02 0.37511066E+03</pdfrwt>
<totfact> 0.57765941E+03</totfact>
</mgrwt>
</event>
<event>
 4    1  0.5312547E-005  0.4558197E+03  0.7818608E-02  0.1026001E+00
         -2   -1    0    0    0  501 -0.00000000000E+00  0.00000000000E+00  0.66704496586E+02  0.66704496635E+02  0.25500000000E-02 0. -1.
          2   -1    0    0  501    0  0.00000000000E+00 -0.00000000000E+00 -0.77870163911E+03  0.77870163911E+03  0.25500000000E-02 0.  1.
    5000001    1    1    2    0    0  0.13820890310E+03  0.61168344857E+02 -0.27569580770E+03  0.35507245133E+03  0.16500000000E+03 0.  0.
   -5000001    1    1    2    0    0 -0.13820890310E+03 -0.61168344857E+02 -0.43630133482E+03  0.49033368442E+03  0.16500000000E+03 0.  0.
<mgrwt>
<rscale>  0 0.45581970E+03</rscale>
<asrwt>0</asrwt>
<pdfrwt beam="1">  1        2 0.11124309E+00 0.45581970E+03</pdfrwt>
<pdfrwt beam="2">  1       -2 0.95292143E-02 0.45581970E+03</pdfrwt>
<totfact> 0.29065560E+03</totfact>
</mgrwt>
</event>
<event>
 4    1  0.5312547E-005  0.5769133E+03  0.7818608E-02  0.9954496E-01
         -2   -1    0    0    0  501 -0.00000000000E+00  0.00000000000E+00  0.16176129016E+02  0.16176129217E+02  0.25500000000E-02 0. -1.
          2   -1    0    0  501    0  0.00000000000E+00 -0.00000000000E+00 -0.51438282624E+04  0.51438282624E+04  0.25500000000E-02 0.  1.
    5000001    1    1    2    0    0 -0.27338704887E+02  0.10800759296E+03 -0.44307613441E+04  0.44352321397E+04  0.16500000000E+03 0.  0.
   -5000001    1    1    2    0    0  0.27338704887E+02 -0.10800759296E+03 -0.69689078934E+03  0.72477225195E+03  0.16500000000E+03 0.  0.
<mgrwt>
<rscale>  0 0.57691327E+03</rscale>
<asrwt>0</asrwt>
<pdfrwt beam="1">  1        2 0.73483156E+00 0.57691327E+03</pdfrwt>
<pdfrwt beam="2">  1       -2 0.23108789E-02 0.57691327E+03</pdfrwt>
<totfact> 0.50946877E+01</totfact>
</mgrwt>
</event>
<event>
 4    1  0.5312547E-005  0.4359512E+03  0.7818608E-02  0.1031996E+00
         -2   -1    0    0    0  501 -0.00000000000E+00  0.00000000000E+00  0.62136495221E+02  0.62136495273E+02  0.25500000000E-02 0. -1.
          2   -1    0    0  501    0  0.00000000000E+00 -0.00000000000E+00 -0.76466103162E+03  0.76466103162E+03  0.25500000000E-02 0.  1.
    5000001    1    1    2    0    0  0.33514101023E+02 -0.13255948911E+03 -0.42696102669E+03  0.47771951125E+03  0.16500000000E+03 0.  0.
   -5000001    1    1    2    0    0 -0.33514101023E+02  0.13255948911E+03 -0.27556350971E+03  0.34907801564E+03  0.16500000000E+03 0.  0.
<mgrwt>
<rscale>  0 0.43595117E+03</rscale>
<asrwt>0</asrwt>
<pdfrwt beam="1">  1        2 0.10923729E+00 0.43595117E+03</pdfrwt>
<pdfrwt beam="2">  1       -2 0.88766426E-02 0.43595117E+03</pdfrwt>
<totfact> 0.33291116E+03</totfact>
</mgrwt>
</event>
<event>
 4    1  0.5312547E-005  0.4272401E+03  0.7818608E-02  0.1034735E+00
         -2   -1    0    0    0  501 -0.00000000000E+00  0.00000000000E+00  0.35508427440E+02  0.35508427532E+02  0.25500000000E-02 0. -1.
          2   -1    0    0  501    0  0.00000000000E+00 -0.00000000000E+00 -0.12851464077E+04  0.12851464077E+04  0.25500000000E-02 0.  1.
    5000001    1    1    2    0    0 -0.63233829013E+02  0.11243552158E+03 -0.49483468803E+03  0.53733288762E+03  0.16500000000E+03 0.  0.
   -5000001    1    1    2    0    0  0.63233829013E+02 -0.11243552158E+03 -0.75480329221E+03  0.78332194759E+03  0.16500000000E+03 0.  0.
<mgrwt>
<rscale>  0 0.42724011E+03</rscale>
<asrwt>0</asrwt>
<pdfrwt beam="1">  1        2 0.18359231E+00 0.42724011E+03</pdfrwt>
<pdfrwt beam="2">  1       -2 0.50726333E-02 0.42724011E+03</pdfrwt>
<totfact> 0.38766659E+03</totfact>
</mgrwt>
</event>
<event>
 4    1  0.5312547E-005  0.3675648E+03  0.7818608E-02  0.1055628E+00
         -2   -1    0    0    0  501 -0.00000000000E+00  0.00000000000E+00  0.20549636798E+03  0.20549636800E+03  0.25500000000E-02 0. -1.
          2   -1    0    0  501    0  0.00000000000E+00 -0.00000000000E+00 -0.16436288294E+03  0.16436288296E+03  0.25500000000E-02 0.  1.
    5000001    1    1    2    0    0  0.38430090623E+02 -0.36948653234E+02  0.81847643138E+02  0.19174491265E+03  0.16500000000E+03 0.  0.
   -5000001    1    1    2    0    0 -0.38430090623E+02  0.36948653234E+02 -0.40714158095E+02  0.17811433831E+03  0.16500000000E+03 0.  0.
<mgrwt>
<rscale>  0 0.36756483E+03</rscale>
<asrwt>0</asrwt>
<pdfrwt beam="1">  1        2 0.23480412E-01 0.36756483E+03</pdfrwt>
<pdfrwt beam="2">  1       -2 0.29356624E-01 0.36756483E+03</pdfrwt>
<totfact> 0.24721794E+03</totfact>
</mgrwt>
</event>
<event>
 4    1  0.5312547E-005  0.4626755E+03  0.7818608E-02  0.1024008E+00
          2   -1    0    0  501    0  0.00000000000E+00  0.00000000000E+00  0.19780253295E+03  0.19780253296E+03  0.25500000000E-02 0.  1.
         -2   -1    0    0    0  501 -0.00000000000E+00 -0.00000000000E+00 -0.27055845097E+03  0.27055845098E+03  0.25500000000E-02 0. -1.
    5000001    1    1    2    0    0  0.60974661727E+02 -0.12252482440E+03 -0.12440575838E+03  0.24785486617E+03  0.16500000000E+03 0.  0.
   -5000001    1    1    2    0    0 -0.60974661727E+02  0.12252482440E+03  0.51649840356E+02  0.22050611777E+03  0.16500000000E+03 0.  0.
<mgrwt>
<rscale>  0 0.46267547E+03</rscale>
<asrwt>0</asrwt>
<pdfrwt beam="1">  1        2 0.28257505E-01 0.46267547E+03</pdfrwt>
<pdfrwt beam="2">  1       -2 0.38651207E-01 0.46267547E+03</pdfrwt>
<totfact> 0.12029264E+03</totfact>
</mgrwt>
</event>
<event>
 4    1  0.5312547E-005  0.8756802E+03  0.7818608E-02  0.9456504E-01
          2   -1    0    0  501    0  0.00000000000E+00  0.00000000000E+00  0.10939982456E+03  0.10939982459E+03  0.25500000000E-02 0. -1.
         -2   -1    0    0    0  501 -0.00000000000E+00 -0.00000000000E+00 -0.17523243287E+04  0.17523243287E+04  0.25500000000E-02 0.  1.
    5000001    1    1    2    0    0  0.19728810674E+03 -0.32481507744E+03 -0.11225157473E+04  0.11965341760E+04  0.16500000000E+03 0.  0.
   -5000001    1    1    2    0    0 -0.19728810674E+03  0.32481507744E+03 -0.52040875688E+03  0.66518997725E+03  0.16500000000E+03 0.  0.
<mgrwt>
<rscale>  0 0.87568025E+03</rscale>
<asrwt>0</asrwt>
<pdfrwt beam="1">  1        2 0.15628547E-01 0.87568025E+03</pdfrwt>
<pdfrwt beam="2">  1       -2 0.25033203E+00 0.87568025E+03</pdfrwt>
<totfact> 0.24840950E+01</totfact>
</mgrwt>
</event>
<event>
 4    1  0.5312547E-005  0.1494575E+04  0.7818608E-02  0.8888068E-01
          2   -1    0    0  501    0  0.00000000000E+00  0.00000000000E+00  0.21692192708E+04  0.21692192708E+04  0.25500000000E-02 0.  1.
         -2   -1    0    0    0  501 -0.00000000000E+00 -0.00000000000E+00 -0.25743768581E+03  0.25743768582E+03  0.25500000000E-02 0. -1.
    5000001    1    1    2    0    0  0.55626859141E+02 -0.70730744697E+03  0.12267795803E+04  0.14267415010E+04  0.16500000000E+03 0.  0.
   -5000001    1    1    2    0    0 -0.55626859141E+02  0.70730744697E+03  0.68500200467E+03  0.99991545563E+03  0.16500000000E+03 0.  0.
<mgrwt>
<rscale>  0 0.14945752E+04</rscale>
<asrwt>0</asrwt>
<pdfrwt beam="1">  1        2 0.30988847E+00 0.14945752E+04</pdfrwt>
<pdfrwt beam="2">  1       -2 0.36776811E-01 0.14945752E+04</pdfrwt>
<totfact> 0.44244552E+01</totfact>
</mgrwt>
</event>
<event>
 4    1  0.5312547E-005  0.1050853E+04  0.7818608E-02  0.9254464E-01
          2   -1    0    0  501    0  0.00000000000E+00  0.00000000000E+00  0.29933187035E+04  0.29933187035E+04  0.25500000000E-02 0.  1.
         -2   -1    0    0    0  501 -0.00000000000E+00 -0.00000000000E+00 -0.92229723985E+02  0.92229724020E+02  0.25500000000E-02 0. -1.
    5000001    1    1    2    0    0 -0.35060774074E+03 -0.87783558221E+01  0.40892616806E+03  0.56342564578E+03  0.16500000000E+03 0.  0.
   -5000001    1    1    2    0    0  0.35060774074E+03  0.87783558221E+01  0.24921628114E+04  0.25221227817E+04  0.16500000000E+03 0.  0.
<mgrwt>
<rscale>  0 0.10508529E+04</rscale>
<asrwt>0</asrwt>
<pdfrwt beam="1">  1        2 0.42761692E+00 0.10508529E+04</pdfrwt>
<pdfrwt beam="2">  1       -2 0.13175676E-01 0.10508529E+04</pdfrwt>
<totfact> 0.10526521E+02</totfact>
</mgrwt>
</event>
<event>
 4    1  0.5312547E-005  0.4080340E+03  0.7818608E-02  0.1041033E+00
          2   -1    0    0  501    0  0.00000000000E+00  0.00000000000E+00  0.10708582402E+04  0.10708582402E+04  0.25500000000E-02 0.  1.
         -2   -1    0    0    0  501 -0.00000000000E+00 -0.00000000000E+00 -0.38868769166E+02  0.38868769249E+02  0.25500000000E-02 0. -1.
    5000001    1    1    2    0    0 -0.80852523549E+02  0.82751371404E+02  0.42943236081E+03  0.47436491496E+03  0.16500000000E+03 0.  0.
   -5000001    1    1    2    0    0  0.80852523549E+02 -0.82751371404E+02  0.60255711018E+03  0.63536209445E+03  0.16500000000E+03 0.  0.
<mgrwt>
<rscale>  0 0.40803403E+03</rscale>
<asrwt>0</asrwt>
<pdfrwt beam="1">  1        2 0.15297974E+00 0.40803403E+03</pdfrwt>
<pdfrwt beam="2">  1       -2 0.55526817E-02 0.40803403E+03</pdfrwt>
<totfact> 0.44388649E+03</totfact>
</mgrwt>
</event>
<event>
 4    1  0.5312547E-005  0.6019370E+03  0.7818608E-02  0.9901396E-01
         -2   -1    0    0    0  501 -0.00000000000E+00  0.00000000000E+00  0.57213349008E+02  0.57213349065E+02  0.25500000000E-02 0. -1.
          2   -1    0    0  501    0  0.00000000000E+00 -0.00000000000E+00 -0.15832325724E+04  0.15832325724E+04  0.25500000000E-02 0.  1.
    5000001    1    1    2    0    0  0.12815651776E+03 -0.10317397684E+03 -0.12821595967E+04  0.13031604637E+04  0.16500000000E+03 0.  0.
   -5000001    1    1    2    0    0 -0.12815651776E+03  0.10317397684E+03 -0.24385962669E+03  0.33728545784E+03  0.16500000000E+03 0.  0.
<mgrwt>
<rscale>  0 0.60193700E+03</rscale>
<asrwt>0</asrwt>
<pdfrwt beam="1">  1        2 0.22617606E+00 0.60193700E+03</pdfrwt>
<pdfrwt beam="2">  1       -2 0.81733365E-02 0.60193700E+03</pdfrwt>
<totfact> 0.12761285E+03</totfact>
</mgrwt>
</event>
<event>
 4    1  0.5312547E-005  0.4461945E+03  0.7818608E-02  0.1028863E+00
          2   -1    0    0  501    0  0.00000000000E+00  0.00000000000E+00  0.25261752753E+04  0.25261752753E+04  0.25500000000E-02 0.  1.
         -2   -1    0    0    0  501 -0.00000000000E+00 -0.00000000000E+00 -0.19702665254E+02  0.19702665419E+02  0.25500000000E-02 0. -1.
    5000001    1    1    2    0    0  0.69733594073E+02  0.92500072337E+02  0.17983780730E+04  0.18096429844E+04  0.16500000000E+03 0.  0.
   -5000001    1    1    2    0    0 -0.69733594073E+02 -0.92500072337E+02  0.70809453711E+03  0.73623495639E+03  0.16500000000E+03 0.  0.
<mgrwt>
<rscale>  0 0.44619451E+03</rscale>
<asrwt>0</asrwt>
<pdfrwt beam="1">  1        2 0.36088220E+00 0.44619451E+03</pdfrwt>
<pdfrwt beam="2">  1       -2 0.28146663E-02 0.44619451E+03</pdfrwt>
<totfact> 0.22383816E+03</totfact>
</mgrwt>
</event>
<event>
 4    1  0.5312547E-005  0.5369327E+03  0.7818608E-02  0.1004565E+00
          2   -1    0    0  501    0  0.00000000000E+00  0.00000000000E+00  0.25818508473E+03  0.25818508474E+03  0.25500000000E-02 0.  1.
         -2   -1    0    0    0  501 -0.00000000000E+00 -0.00000000000E+00 -0.27915698181E+03  0.27915698182E+03  0.25500000000E-02 0. -1.
    5000001    1    1    2    0    0 -0.16106819795E+03 -0.12632838796E+03  0.43844884561E+02  0.26655055787E+03  0.16500000000E+03 0.  0.
   -5000001    1    1    2    0    0  0.16106819795E+03  0.12632838796E+03 -0.64816781644E+02  0.27079150869E+03  0.16500000000E+03 0.  0.
<mgrwt>
<rscale>  0 0.53693266E+03</rscale>
<asrwt>0</asrwt>
<pdfrwt beam="1">  1        2 0.36883583E-01 0.53693266E+03</pdfrwt>
<pdfrwt beam="2">  1       -2 0.39879569E-01 0.53693266E+03</pdfrwt>
<totfact> 0.84211660E+02</totfact>
</mgrwt>
</event>
<event>
 4    1  0.5312547E-005  0.5187275E+03  0.7818608E-02  0.1009003E+00
         -2   -1    0    0    0  501 -0.00000000000E+00  0.00000000000E+00  0.30372533697E+02  0.30372533804E+02  0.25500000000E-02 0. -1.
          2   -1    0    0  501    0  0.00000000000E+00 -0.00000000000E+00 -0.22148153323E+04  0.22148153323E+04  0.25500000000E-02 0.  1.
    5000001    1    1    2    0    0 -0.39720180617E+02 -0.19592473927E+03 -0.10534219203E+04  0.10848442000E+04  0.16500000000E+03 0.  0.
   -5000001    1    1    2    0    0  0.39720180617E+02  0.19592473927E+03 -0.11310208784E+04  0.11603436661E+04  0.16500000000E+03 0.  0.
<mgrwt>
<rscale>  0 0.51872749E+03</rscale>
<asrwt>0</asrwt>
<pdfrwt beam="1">  1        2 0.31640209E+00 0.51872749E+03</pdfrwt>
<pdfrwt beam="2">  1       -2 0.43389348E-02 0.51872749E+03</pdfrwt>
<totfact> 0.16576121E+03</totfact>
</mgrwt>
</event>
<event>
 4    1  0.5312547E-005  0.5227944E+03  0.7818608E-02  0.1007995E+00
         -2   -1    0    0    0  501 -0.00000000000E+00  0.00000000000E+00  0.32647665595E+03  0.32647665596E+03  0.25500000000E-02 0. -1.
          2   -1    0    0  501    0  0.00000000000E+00 -0.00000000000E+00 -0.20929062795E+03  0.20929062796E+03  0.25500000000E-02 0.  1.
    5000001    1    1    2    0    0 -0.19043309289E+03  0.66870676440E+02  0.78227081522E+02  0.27217811543E+03  0.16500000000E+03 0.  0.
   -5000001    1    1    2    0    0  0.19043309289E+03 -0.66870676440E+02  0.38958946475E+02  0.26358916849E+03  0.16500000000E+03 0.  0.
<mgrwt>
<rscale>  0 0.52279443E+03</rscale>
<asrwt>0</asrwt>
<pdfrwt beam="1">  1        2 0.29898661E-01 0.52279443E+03</pdfrwt>
<pdfrwt beam="2">  1       -2 0.46639522E-01 0.52279443E+03</pdfrwt>
<totfact> 0.78212003E+02</totfact>
</mgrwt>
</event>
<event>
 4    1  0.5312547E-005  0.4350798E+03  0.7818608E-02  0.1032267E+00
          2   -1    0    0  501    0  0.00000000000E+00  0.00000000000E+00  0.61769792733E+03  0.61769792734E+03  0.25500000000E-02 0.  1.
         -2   -1    0    0    0  501 -0.00000000000E+00 -0.00000000000E+00 -0.76612855462E+02  0.76612855504E+02  0.25500000000E-02 0. -1.
    5000001    1    1    2    0    0  0.58228356617E+02  0.12923175834E+03  0.27482849447E+03  0.35049549248E+03  0.16500000000E+03 0.  0.
   -5000001    1    1    2    0    0 -0.58228356617E+02 -0.12923175834E+03  0.26625657740E+03  0.34381529036E+03  0.16500000000E+03 0.  0.
<mgrwt>
<rscale>  0 0.43507977E+03</rscale>
<asrwt>0</asrwt>
<pdfrwt beam="1">  1        2 0.88242561E-01 0.43507977E+03</pdfrwt>
<pdfrwt beam="2">  1       -2 0.10944694E-01 0.43507977E+03</pdfrwt>
<totfact> 0.30746540E+03</totfact>
</mgrwt>
</event>
<event>
 4    1  0.5312547E-005  0.4708385E+03  0.7818608E-02  0.1021684E+00
          2   -1    0    0  501    0  0.00000000000E+00  0.00000000000E+00  0.23459113465E+04  0.23459113465E+04  0.25500000000E-02 0.  1.
         -2   -1    0    0    0  501 -0.00000000000E+00 -0.00000000000E+00 -0.23625032014E+02  0.23625032152E+02  0.25500000000E-02 0. -1.
    5000001    1    1    2    0    0  0.83693815323E+02  0.12451032126E+03  0.78153266729E+03  0.81272737425E+03  0.16500000000E+03 0.  0.
   -5000001    1    1    2    0    0 -0.83693815323E+02 -0.12451032126E+03  0.15407536472E+04  0.15568090044E+04  0.16500000000E+03 0.  0.
<mgrwt>
<rscale>  0 0.47083853E+03</rscale>
<asrwt>0</asrwt>
<pdfrwt beam="1">  1        2 0.33513015E+00 0.47083853E+03</pdfrwt>
<pdfrwt beam="2">  1       -2 0.33750050E-02 0.47083853E+03</pdfrwt>
<totfact> 0.20957146E+03</totfact>
</mgrwt>
</event>
<event>
 4    1  0.5312547E-005  0.5141616E+03  0.7818608E-02  0.1010147E+00
          2   -1    0    0  501    0  0.00000000000E+00  0.00000000000E+00  0.89551510314E+02  0.89551510350E+02  0.25500000000E-02 0.  1.
         -2   -1    0    0    0  501 -0.00000000000E+00 -0.00000000000E+00 -0.73801692815E+03  0.73801692816E+03  0.25500000000E-02 0. -1.
    5000001    1    1    2    0    0 -0.77197624357E+02  0.16123107069E+03 -0.19043084681E+03  0.30893986272E+03  0.16500000000E+03 0.  0.
   -5000001    1    1    2    0    0  0.77197624357E+02 -0.16123107069E+03 -0.45803457103E+03  0.51862857579E+03  0.16500000000E+03 0.  0.
<mgrwt>
<rscale>  0 0.51416157E+03</rscale>
<asrwt>0</asrwt>
<pdfrwt beam="1">  1        2 0.12793073E-01 0.51416157E+03</pdfrwt>
<pdfrwt beam="2">  1       -2 0.10543099E+00 0.51416157E+03</pdfrwt>
<totfact> 0.35897093E+02</totfact>
</mgrwt>
</event>
<event>
 4    1  0.5312547E-005  0.4098456E+03  0.7818608E-02  0.1040423E+00
         -2   -1    0    0    0  501 -0.00000000000E+00  0.00000000000E+00  0.28195082996E+02  0.28195083111E+02  0.25500000000E-02 0. -1.
          2   -1    0    0  501    0  0.00000000000E+00 -0.00000000000E+00 -0.14893859321E+04  0.14893859321E+04  0.25500000000E-02 0.  1.
    5000001    1    1    2    0    0 -0.22835721775E+02 -0.11527572019E+03 -0.84522708194E+03  0.86916269012E+03  0.16500000000E+03 0.  0.
   -5000001    1    1    2    0    0  0.22835721775E+02  0.11527572019E+03 -0.61596376712E+03  0.64841832505E+03  0.16500000000E+03 0.  0.
<mgrwt>
<rscale>  0 0.40984563E+03</rscale>
<asrwt>0</asrwt>
<pdfrwt beam="1">  1        2 0.21276937E+00 0.40984563E+03</pdfrwt>
<pdfrwt beam="2">  1       -2 0.40278700E-02 0.40984563E+03</pdfrwt>
<totfact> 0.43087436E+03</totfact>
</mgrwt>
</event>
<event>
 4    1  0.5312547E-005  0.3946078E+03  0.7818608E-02  0.1045663E+00
         -2   -1    0    0    0  501 -0.00000000000E+00  0.00000000000E+00  0.21571974495E+03  0.21571974496E+03  0.25500000000E-02 0. -1.
          2   -1    0    0  501    0  0.00000000000E+00 -0.00000000000E+00 -0.18046023691E+03  0.18046023692E+03  0.25500000000E-02 0.  1.
    5000001    1    1    2    0    0  0.10764314103E+03  0.14292535896E+01  0.28384467202E+02  0.19904714656E+03  0.16500000000E+03 0.  0.
   -5000001    1    1    2    0    0 -0.10764314103E+03 -0.14292535896E+01  0.68750408387E+01  0.19713283532E+03  0.16500000000E+03 0.  0.
<mgrwt>
<rscale>  0 0.39460784E+03</rscale>
<asrwt>0</asrwt>
<pdfrwt beam="1">  1        2 0.25780034E-01 0.39460784E+03</pdfrwt>
<pdfrwt beam="2">  1       -2 0.30817106E-01 0.39460784E+03</pdfrwt>
<totfact> 0.20376119E+03</totfact>
</mgrwt>
</event>
<event>
 4    1  0.5312547E-005  0.8638506E+03  0.7818608E-02  0.9471933E-01
          2   -1    0    0  501    0  0.00000000000E+00  0.00000000000E+00  0.31377588608E+03  0.31377588609E+03  0.25500000000E-02 0.  1.
         -2   -1    0    0    0  501 -0.00000000000E+00 -0.00000000000E+00 -0.59456282295E+03  0.59456282296E+03  0.25500000000E-02 0. -1.
    5000001    1    1    2    0    0 -0.33032833031E+03 -0.18351027934E+03 -0.27563141222E+03  0.49597429755E+03  0.16500000000E+03 0.  0.
   -5000001    1    1    2    0    0  0.33032833031E+03  0.18351027934E+03 -0.51555246635E+01  0.41236441149E+03  0.16500000000E+03 0.  0.
<mgrwt>
<rscale>  0 0.86385063E+03</rscale>
<asrwt>0</asrwt>
<pdfrwt beam="1">  1        2 0.44825127E-01 0.86385063E+03</pdfrwt>
<pdfrwt beam="2">  1       -2 0.84937546E-01 0.86385063E+03</pdfrwt>
<totfact> 0.13762706E+02</totfact>
</mgrwt>
</event>
<event>
 4    1  0.5312547E-005  0.6036531E+03  0.7818608E-02  0.9897856E-01
         -2   -1    0    0    0  501 -0.00000000000E+00  0.00000000000E+00  0.13122344415E+03  0.13122344418E+03  0.25500000000E-02 0. -1.
          2   -1    0    0  501    0  0.00000000000E+00 -0.00000000000E+00 -0.69423004061E+03  0.69423004062E+03  0.25500000000E-02 0.  1.
    5000001    1    1    2    0    0 -0.12796765134E+03 -0.21483890633E+03 -0.23139520597E+03  0.37855015098E+03  0.16500000000E+03 0.  0.
   -5000001    1    1    2    0    0  0.12796765134E+03  0.21483890633E+03 -0.33161139049E+03  0.44690333381E+03  0.16500000000E+03 0.  0.
<mgrwt>
<rscale>  0 0.60365307E+03</rscale>
<asrwt>0</asrwt>
<pdfrwt beam="1">  1        2 0.99175719E-01 0.60365307E+03</pdfrwt>
<pdfrwt beam="2">  1       -2 0.18746207E-01 0.60365307E+03</pdfrwt>
<totfact> 0.10887332E+03</totfact>
</mgrwt>
</event>
<event>
 4    1  0.5312547E-005  0.6220824E+03  0.7818608E-02  0.9860622E-01
          2   -1    0    0  501    0  0.00000000000E+00  0.00000000000E+00  0.60939418758E+03  0.60939418758E+03  0.25500000000E-02 0.  1.
         -2   -1    0    0    0  501 -0.00000000000E+00 -0.00000000000E+00 -0.15875871219E+03  0.15875871221E+03  0.25500000000E-02 0. -1.
    5000001    1    1    2    0    0  0.22356768041E+02  0.19006373968E+03  0.13519106855E+01  0.25268731246E+03  0.16500000000E+03 0.  0.
   -5000001    1    1    2    0    0 -0.22356768041E+02 -0.19006373968E+03  0.44928356470E+03  0.51546558733E+03  0.16500000000E+03 0.  0.
<mgrwt>
<rscale>  0 0.62208243E+03</rscale>
<asrwt>0</asrwt>
<pdfrwt beam="1">  1        2 0.87056315E-01 0.62208243E+03</pdfrwt>
<pdfrwt beam="2">  1       -2 0.22679815E-01 0.62208243E+03</pdfrwt>
<totfact> 0.91206245E+02</totfact>
</mgrwt>
</event>
<event>
 4    1  0.5312547E-005  0.8711361E+03  0.7818608E-02  0.9462400E-01
         -2   -1    0    0    0  501 -0.00000000000E+00  0.00000000000E+00  0.88529537353E+02  0.88529537390E+02  0.25500000000E-02 0. -1.
          2   -1    0    0  501    0  0.00000000000E+00 -0.00000000000E+00 -0.21430083720E+04  0.21430083720E+04  0.25500000000E-02 0.  1.
    5000001    1    1    2    0    0 -0.17884873776E+03  0.22827567451E+03 -0.17444891845E+04  0.17761092786E+04  0.16500000000E+03 0.  0.
   -5000001    1    1    2    0    0  0.17884873776E+03 -0.22827567451E+03 -0.30998965014E+03  0.45542863081E+03  0.16500000000E+03 0.  0.
<mgrwt>
<rscale>  0 0.87113613E+03</rscale>
<asrwt>0</asrwt>
<pdfrwt beam="1">  1        2 0.30614402E+00 0.87113613E+03</pdfrwt>
<pdfrwt beam="2">  1       -2 0.12647078E-01 0.87113613E+03</pdfrwt>
<totfact> 0.32025330E+02</totfact>
</mgrwt>
</event>
<event>
 4    1  0.5312547E-005  0.6688001E+03  0.7818608E-02  0.9772128E-01
          2   -1    0    0  501    0  0.00000000000E+00  0.00000000000E+00  0.28458072898E+03  0.28458072899E+03  0.25500000000E-02 0.  1.
         -2   -1    0    0    0  501 -0.00000000000E+00 -0.00000000000E+00 -0.39294082131E+03  0.39294082131E+03  0.25500000000E-02 0. -1.
    5000001    1    1    2    0    0  0.12027786643E+03 -0.26306232506E+03 -0.23289231560E+02  0.33382022157E+03  0.16500000000E+03 0.  0.
   -5000001    1    1    2    0    0 -0.12027786643E+03  0.26306232506E+03 -0.85070860771E+02  0.34370132873E+03  0.16500000000E+03 0.  0.
<mgrwt>
<rscale>  0 0.66880008E+03</rscale>
<asrwt>0</asrwt>
<pdfrwt beam="1">  1        2 0.40654390E-01 0.66880008E+03</pdfrwt>
<pdfrwt beam="2">  1       -2 0.56134403E-01 0.66880008E+03</pdfrwt>
<totfact> 0.38015547E+02</totfact>
</mgrwt>
</event>
<event>
 4    1  0.5312547E-005  0.5190700E+03  0.7818608E-02  0.1008918E+00
          2   -1    0    0  501    0  0.00000000000E+00  0.00000000000E+00  0.27267943682E+03  0.27267943684E+03  0.25500000000E-02 0.  1.
         -2   -1    0    0    0  501 -0.00000000000E+00 -0.00000000000E+00 -0.24702420351E+03  0.24702420352E+03  0.25500000000E-02 0. -1.
    5000001    1    1    2    0    0 -0.18557873707E+03  0.74824971587E+02  0.30598544651E+01  0.25936963341E+03  0.16500000000E+03 0.  0.
   -5000001    1    1    2    0    0  0.18557873707E+03 -0.74824971587E+02  0.22595378850E+02  0.26033400695E+03  0.16500000000E+03 0.  0.
<mgrwt>
<rscale>  0 0.51907002E+03</rscale>
<asrwt>0</asrwt>
<pdfrwt beam="1">  1        2 0.38954205E-01 0.51907002E+03</pdfrwt>
<pdfrwt beam="2">  1       -2 0.35289172E-01 0.51907002E+03</pdfrwt>
<totfact> 0.10019343E+03</totfact>
</mgrwt>
</event>
<event>
 4    1  0.5312547E-005  0.4812594E+03  0.7818608E-02  0.1018790E+00
         -2   -1    0    0    0  501 -0.00000000000E+00  0.00000000000E+00  0.39470106259E+02  0.39470106341E+02  0.25500000000E-02 0. -1.
          2   -1    0    0  501    0  0.00000000000E+00 -0.00000000000E+00 -0.14670000000E+04  0.14670000000E+04  0.25500000000E-02 0.  1.
    5000001    1    1    2    0    0  0.15390283496E+03 -0.69595253509E+02 -0.85884407227E+03  0.89071191886E+03  0.16500000000E+03 0.  0.
   -5000001    1    1    2    0    0 -0.15390283496E+03  0.69595253509E+02 -0.56868582151E+03  0.61575818753E+03  0.16500000000E+03 0.  0.
<mgrwt>
<rscale>  0 0.48125937E+03</rscale>
<asrwt>0</asrwt>
<pdfrwt beam="1">  1        2 0.20957139E+00 0.48125937E+03</pdfrwt>
<pdfrwt beam="2">  1       -2 0.56385875E-02 0.48125937E+03</pdfrwt>
<totfact> 0.26377813E+03</totfact>
</mgrwt>
</event>
<event>
 4    1  0.5312547E-005  0.5439698E+03  0.7818608E-02  0.1002899E+00
          2   -1    0    0  501    0  0.00000000000E+00  0.00000000000E+00  0.85253556226E+03  0.85253556226E+03  0.25500000000E-02 0.  1.
         -2   -1    0    0    0  501 -0.00000000000E+00 -0.00000000000E+00 -0.86771499361E+02  0.86771499399E+02  0.25500000000E-02 0. -1.
    5000001    1    1    2    0    0 -0.97097932753E+02  0.17184339944E+03  0.53531353039E+03  0.59392233355E+03  0.16500000000E+03 0.  0.
   -5000001    1    1    2    0    0  0.97097932753E+02 -0.17184339944E+03  0.23045053251E+03  0.34538472811E+03  0.16500000000E+03 0.  0.
<mgrwt>
<rscale>  0 0.54396981E+03</rscale>
<asrwt>0</asrwt>
<pdfrwt beam="1">  1        2 0.12179080E+00 0.54396981E+03</pdfrwt>
<pdfrwt beam="2">  1       -2 0.12395928E-01 0.54396981E+03</pdfrwt>
<totfact> 0.16888939E+03</totfact>
</mgrwt>
</event>
<event>
 4    1  0.5312547E-005  0.6109795E+03  0.7818608E-02  0.9882885E-01
          2   -1    0    0  501    0  0.00000000000E+00  0.00000000000E+00  0.16467749804E+03  0.16467749806E+03  0.25500000000E-02 0.  1.
         -2   -1    0    0    0  501 -0.00000000000E+00 -0.00000000000E+00 -0.56670761885E+03  0.56670761886E+03  0.25500000000E-02 0. -1.
    5000001    1    1    2    0    0 -0.23198621660E+02 -0.85191836940E+02 -0.49006011464E+03  0.52457577250E+03  0.16500000000E+03 0.  0.
   -5000001    1    1    2    0    0  0.23198621660E+02  0.85191836940E+02  0.88029993832E+02  0.20680934443E+03  0.16500000000E+03 0.  0.
<mgrwt>
<rscale>  0 0.61097952E+03</rscale>
<asrwt>0</asrwt>
<pdfrwt beam="1">  1        2 0.23525357E-01 0.61097952E+03</pdfrwt>
<pdfrwt beam="2">  1       -2 0.80958230E-01 0.61097952E+03</pdfrwt>
<totfact> 0.31961753E+02</totfact>
</mgrwt>
</event>
<event>
 4    1  0.5312547E-005  0.4552419E+03  0.7818608E-02  0.1026170E+00
         -2   -1    0    0    0  501 -0.00000000000E+00  0.00000000000E+00  0.44825763226E+02  0.44825763298E+02  0.25500000000E-02 0.  1.
          2   -1    0    0  501    0  0.00000000000E+00 -0.00000000000E+00 -0.11558373307E+04  0.11558373307E+04  0.25500000000E-02 0. -1.
    5000001    1    1    2    0    0  0.10337269849E+03 -0.96316147630E+02 -0.37616959484E+03  0.43438609458E+03  0.16500000000E+03 0.  0.
   -5000001    1    1    2    0    0 -0.10337269849E+03  0.96316147630E+02 -0.73484197268E+03  0.76627699946E+03  0.16500000000E+03 0.  0.
<mgrwt>
<rscale>  0 0.45524187E+03</rscale>
<asrwt>0</asrwt>
<pdfrwt beam="1">  1        2 0.16511960E+00 0.45524187E+03</pdfrwt>
<pdfrwt beam="2">  1       -2 0.64036812E-02 0.45524187E+03</pdfrwt>
<totfact> 0.31830502E+03</totfact>
</mgrwt>
</event>
<event>
 4    1  0.5312547E-005  0.5351496E+03  0.7818608E-02  0.1004991E+00
         -2   -1    0    0    0  501 -0.00000000000E+00  0.00000000000E+00  0.15258864682E+03  0.15258864684E+03  0.25500000000E-02 0. -1.
          2   -1    0    0  501    0  0.00000000000E+00 -0.00000000000E+00 -0.46921093244E+03  0.46921093245E+03  0.25500000000E-02 0.  1.
    5000001    1    1    2    0    0  0.21599099764E+01 -0.92417619785E+02  0.61612473807E+02  0.19891399796E+03  0.16500000000E+03 0.  0.
   -5000001    1    1    2    0    0 -0.21599099764E+01  0.92417619785E+02 -0.37823475943E+03  0.42288558133E+03  0.16500000000E+03 0.  0.
<mgrwt>
<rscale>  0 0.53514955E+03</rscale>
<asrwt>0</asrwt>
<pdfrwt beam="1">  1        2 0.67030133E-01 0.53514955E+03</pdfrwt>
<pdfrwt beam="2">  1       -2 0.21798378E-01 0.53514955E+03</pdfrwt>
<totfact> 0.13223260E+03</totfact>
</mgrwt>
</event>
<event>
 4    1  0.5312547E-005  0.7330903E+03  0.7818608E-02  0.9662259E-01
          2   -1    0    0  501    0  0.00000000000E+00  0.00000000000E+00  0.57083532353E+03  0.57083532353E+03  0.25500000000E-02 0.  1.
         -2   -1    0    0    0  501 -0.00000000000E+00 -0.00000000000E+00 -0.23536618797E+03  0.23536618798E+03  0.25500000000E-02 0. -1.
    5000001    1    1    2    0    0 -0.26001922719E+03 -0.19845815847E+03  0.15497130485E+03  0.39778982453E+03  0.16500000000E+03 0.  0.
   -5000001    1    1    2    0    0  0.26001922719E+03  0.19845815847E+03  0.18049783070E+03  0.40841168698E+03  0.16500000000E+03 0.  0.
<mgrwt>
<rscale>  0 0.73309026E+03</rscale>
<asrwt>0</asrwt>
<pdfrwt beam="1">  1        2 0.81547904E-01 0.73309026E+03</pdfrwt>
<pdfrwt beam="2">  1       -2 0.33623741E-01 0.73309026E+03</pdfrwt>
<totfact> 0.47829902E+02</totfact>
</mgrwt>
</event>
<event>
 4    1  0.5312547E-005  0.7309343E+03  0.7818608E-02  0.9665745E-01
         -2   -1    0    0    0  501 -0.00000000000E+00  0.00000000000E+00  0.14070812794E+03  0.14070812796E+03  0.25500000000E-02 0. -1.
          2   -1    0    0  501    0  0.00000000000E+00 -0.00000000000E+00 -0.94924320343E+03  0.94924320344E+03  0.25500000000E-02 0.  1.
    5000001    1    1    2    0    0 -0.15443307473E+03 -0.13557698726E+03 -0.26701008562E+02  0.26489363507E+03  0.16500000000E+03 0.  0.
   -5000001    1    1    2    0    0  0.15443307473E+03  0.13557698726E+03 -0.78183406693E+03  0.82505769632E+03  0.16500000000E+03 0.  0.
<mgrwt>
<rscale>  0 0.73093429E+03</rscale>
<asrwt>0</asrwt>
<pdfrwt beam="1">  1        2 0.13560617E+00 0.73093429E+03</pdfrwt>
<pdfrwt beam="2">  1       -2 0.20101162E-01 0.73093429E+03</pdfrwt>
<totfact> 0.64153527E+02</totfact>
</mgrwt>
</event>
<event>
 4    1  0.5312547E-005  0.1014518E+04  0.7818608E-02  0.9292763E-01
          2   -1    0    0  501    0  0.00000000000E+00  0.00000000000E+00  0.11087295094E+04  0.11087295094E+04  0.25500000000E-02 0.  1.
         -2   -1    0    0    0  501 -0.00000000000E+00 -0.00000000000E+00 -0.23207810225E+03  0.23207810227E+03  0.25500000000E-02 0. -1.
    5000001    1    1    2    0    0 -0.36247662313E+03 -0.56123243837E+01  0.85346173985E+03  0.94182946540E+03  0.16500000000E+03 0.  0.
   -5000001    1    1    2    0    0  0.36247662313E+03  0.56123243837E+01  0.23189667254E+02  0.39897814623E+03  0.16500000000E+03 0.  0.
<mgrwt>
<rscale>  0 0.10145183E+04</rscale>
<asrwt>0</asrwt>
<pdfrwt beam="1">  1        2 0.15838993E+00 0.10145183E+04</pdfrwt>
<pdfrwt beam="2">  1       -2 0.33154015E-01 0.10145183E+04</pdfrwt>
<totfact> 0.20411059E+02</totfact>
</mgrwt>
</event>
<event>
 4    1  0.5312547E-005  0.5364272E+03  0.7818608E-02  0.1004685E+00
          2   -1    0    0  501    0  0.00000000000E+00  0.00000000000E+00  0.10059677049E+04  0.10059677049E+04  0.25500000000E-02 0.  1.
         -2   -1    0    0    0  501 -0.00000000000E+00 -0.00000000000E+00 -0.71511779681E+02  0.71511779727E+02  0.25500000000E-02 0. -1.
    5000001    1    1    2    0    0  0.18659285318E+03 -0.71016867902E+02  0.32729673439E+03  0.41738284671E+03  0.16500000000E+03 0.  0.
   -5000001    1    1    2    0    0 -0.18659285318E+03  0.71016867902E+02  0.60715919080E+03  0.66009663790E+03  0.16500000000E+03 0.  0.
<mgrwt>
<rscale>  0 0.53642722E+03</rscale>
<asrwt>0</asrwt>
<pdfrwt beam="1">  1        2 0.14370966E+00 0.53642722E+03</pdfrwt>
<pdfrwt beam="2">  1       -2 0.10215969E-01 0.53642722E+03</pdfrwt>
<totfact> 0.18525450E+03</totfact>
</mgrwt>
</event>
<event>
 4    1  0.5312547E-005  0.5603083E+03  0.7818608E-02  0.9991357E-01
          2   -1    0    0  501    0  0.00000000000E+00  0.00000000000E+00  0.26523385796E+03  0.26523385797E+03  0.25500000000E-02 0.  1.
         -2   -1    0    0    0  501 -0.00000000000E+00 -0.00000000000E+00 -0.29591375095E+03  0.29591375096E+03  0.25500000000E-02 0. -1.
    5000001    1    1    2    0    0 -0.25492635372E+02 -0.17948923839E+03 -0.15117159188E+03  0.28800019331E+03  0.16500000000E+03 0.  0.
   -5000001    1    1    2    0    0  0.25492635372E+02  0.17948923839E+03  0.12049169889E+03  0.27314741562E+03  0.16500000000E+03 0.  0.
<mgrwt>
<rscale>  0 0.56030829E+03</rscale>
<asrwt>0</asrwt>
<pdfrwt beam="1">  1        2 0.37890551E-01 0.56030829E+03</pdfrwt>
<pdfrwt beam="2">  1       -2 0.42273393E-01 0.56030829E+03</pdfrwt>
<totfact> 0.72955538E+02</totfact>
</mgrwt>
</event>
<event>
 4    1  0.5312547E-005  0.3908003E+03  0.7818608E-02  0.1047013E+00
          2   -1    0    0  501    0  0.00000000000E+00  0.00000000000E+00  0.32145139504E+04  0.32145139504E+04  0.25500000000E-02 0.  1.
         -2   -1    0    0    0  501 -0.00000000000E+00 -0.00000000000E+00 -0.11877756247E+02  0.11877756521E+02  0.25500000000E-02 0. -1.
    5000001    1    1    2    0    0 -0.75502549943E+02  0.65380428101E+02  0.13427398990E+04  0.13565215338E+04  0.16500000000E+03 0.  0.
   -5000001    1    1    2    0    0  0.75502549943E+02 -0.65380428101E+02  0.18598962952E+04  0.18698701731E+04  0.16500000000E+03 0.  0.
<mgrwt>
<rscale>  0 0.39080027E+03</rscale>
<asrwt>0</asrwt>
<pdfrwt beam="1">  1        2 0.45921692E+00 0.39080027E+03</pdfrwt>
<pdfrwt beam="2">  1       -2 0.16968200E-02 0.39080027E+03</pdfrwt>
<totfact> 0.20676023E+03</totfact>
</mgrwt>
</event>
<event>
 4    1  0.5312547E-005  0.5803353E+03  0.7818608E-02  0.9947065E-01
          2   -1    0    0  501    0  0.00000000000E+00  0.00000000000E+00  0.50178802248E+03  0.50178802249E+03  0.25500000000E-02 0.  1.
         -2   -1    0    0    0  501 -0.00000000000E+00 -0.00000000000E+00 -0.16779447561E+03  0.16779447563E+03  0.25500000000E-02 0. -1.
    5000001    1    1    2    0    0  0.41623045740E+02  0.18421993135E+03 -0.14037505006E+01  0.25079160982E+03  0.16500000000E+03 0.  0.
   -5000001    1    1    2    0    0 -0.41623045740E+02 -0.18421993135E+03  0.33539729737E+03  0.41879088830E+03  0.16500000000E+03 0.  0.
<mgrwt>
<rscale>  0 0.58033528E+03</rscale>
<asrwt>0</asrwt>
<pdfrwt beam="1">  1        2 0.71684004E-01 0.58033528E+03</pdfrwt>
<pdfrwt beam="2">  1       -2 0.23970639E-01 0.58033528E+03</pdfrwt>
<totfact> 0.10357457E+03</totfact>
</mgrwt>
</event>
<event>
 4    1  0.5312547E-005  0.6554634E+03  0.7818608E-02  0.9796581E-01
         -2   -1    0    0    0  501 -0.00000000000E+00  0.00000000000E+00  0.21732404588E+02  0.21732404737E+02  0.25500000000E-02 0. -1.
          2   -1    0    0  501    0  0.00000000000E+00 -0.00000000000E+00 -0.49422996434E+04  0.49422996434E+04  0.25500000000E-02 0.  1.
    5000001    1    1    2    0    0  0.13326429744E+03  0.21206904810E+03 -0.14598486417E+04  0.14903408036E+04  0.16500000000E+03 0.  0.
   -5000001    1    1    2    0    0 -0.13326429744E+03 -0.21206904810E+03 -0.34607185971E+04  0.34736912446E+04  0.16500000000E+03 0.  0.
<mgrwt>
<rscale>  0 0.65546337E+03</rscale>
<asrwt>0</asrwt>
<pdfrwt beam="1">  1        2 0.70604209E+00 0.65546337E+03</pdfrwt>
<pdfrwt beam="2">  1       -2 0.31046324E-02 0.65546337E+03</pdfrwt>
<totfact> 0.50004858E+01</totfact>
</mgrwt>
</event>
<event>
 4    1  0.5312547E-005  0.4264684E+03  0.7818608E-02  0.1034981E+00
          2   -1    0    0  501    0  0.00000000000E+00  0.00000000000E+00  0.12409221427E+04  0.12409221427E+04  0.25500000000E-02 0.  1.
         -2   -1    0    0    0  501 -0.00000000000E+00 -0.00000000000E+00 -0.36641161922E+02  0.36641162010E+02  0.25500000000E-02 0. -1.
    5000001    1    1    2    0    0  0.12647577835E+03 -0.47405441870E+02  0.60410669936E+03  0.64063507759E+03  0.16500000000E+03 0.  0.
   -5000001    1    1    2    0    0 -0.12647577835E+03  0.47405441870E+02  0.60017428143E+03  0.63692822713E+03  0.16500000000E+03 0.  0.
<mgrwt>
<rscale>  0 0.42646842E+03</rscale>
<asrwt>0</asrwt>
<pdfrwt beam="1">  1        2 0.17727460E+00 0.42646842E+03</pdfrwt>
<pdfrwt beam="2">  1       -2 0.52344515E-02 0.42646842E+03</pdfrwt>
<totfact> 0.39032479E+03</totfact>
</mgrwt>
</event>
<event>
 4    1  0.5312547E-005  0.5608310E+03  0.7818608E-02  0.9990176E-01
          2   -1    0    0  501    0  0.00000000000E+00  0.00000000000E+00  0.84442525717E+03  0.84442525717E+03  0.25500000000E-02 0.  1.
         -2   -1    0    0    0  501 -0.00000000000E+00 -0.00000000000E+00 -0.93119966693E+02  0.93119966728E+02  0.25500000000E-02 0. -1.
    5000001    1    1    2    0    0  0.13936181076E+03 -0.17073372273E+03  0.28662527420E+03  0.39743020291E+03  0.16500000000E+03 0.  0.
   -5000001    1    1    2    0    0 -0.13936181076E+03  0.17073372273E+03  0.46468001627E+03  0.54011502099E+03  0.16500000000E+03 0.  0.
<mgrwt>
<rscale>  0 0.56083100E+03</rscale>
<asrwt>0</asrwt>
<pdfrwt beam="1">  1        2 0.12063217E+00 0.56083100E+03</pdfrwt>
<pdfrwt beam="2">  1       -2 0.13302853E-01 0.56083100E+03</pdfrwt>
<totfact> 0.15213352E+03</totfact>
</mgrwt>
</event>
<event>
 4    1  0.5312547E-005  0.4263977E+03  0.7818608E-02  0.1035004E+00
         -2   -1    0    0    0  501 -0.00000000000E+00  0.00000000000E+00  0.15457636077E+02  0.15457636287E+02  0.25500000000E-02 0. -1.
          2   -1    0    0  501    0  0.00000000000E+00 -0.00000000000E+00 -0.29405367014E+04  0.29405367014E+04  0.25500000000E-02 0.  1.
    5000001    1    1    2    0    0 -0.10089972923E+03 -0.89347131258E+02 -0.15184659296E+04  0.15333386595E+04  0.16500000000E+03 0.  0.
   -5000001    1    1    2    0    0  0.10089972923E+03  0.89347131258E+02 -0.14066131357E+04  0.14226556782E+04  0.16500000000E+03 0.  0.
<mgrwt>
<rscale>  0 0.42639769E+03</rscale>
<asrwt>0</asrwt>
<pdfrwt beam="1">  1        2 0.42007631E+00 0.42639769E+03</pdfrwt>
<pdfrwt beam="2">  1       -2 0.22082356E-02 0.42639769E+03</pdfrwt>
<totfact> 0.19633122E+03</totfact>
</mgrwt>
</event>
<event>
 4    1  0.5312547E-005  0.4854711E+03  0.7818608E-02  0.1017642E+00
          2   -1    0    0  501    0  0.00000000000E+00  0.00000000000E+00  0.10787839635E+04  0.10787839635E+04  0.25500000000E-02 0.  1.
         -2   -1    0    0    0  501 -0.00000000000E+00 -0.00000000000E+00 -0.54617550618E+02  0.54617550677E+02  0.25500000000E-02 0. -1.
    5000001    1    1    2    0    0  0.15705030048E+03 -0.80197747542E+02  0.56922533225E+03  0.61833563253E+03  0.16500000000E+03 0.  0.
   -5000001    1    1    2    0    0 -0.15705030048E+03  0.80197747542E+02  0.45494108067E+03  0.51506588168E+03  0.16500000000E+03 0.  0.
<mgrwt>
<rscale>  0 0.48547106E+03</rscale>
<asrwt>0</asrwt>
<pdfrwt beam="1">  1        2 0.15411200E+00 0.48547106E+03</pdfrwt>
<pdfrwt beam="2">  1       -2 0.78025071E-02 0.48547106E+03</pdfrwt>
<totfact> 0.25827236E+03</totfact>
</mgrwt>
</event>
<event>
 4    1  0.5312547E-005  0.5386418E+03  0.7818608E-02  0.1004158E+00
          2   -1    0    0  501    0  0.00000000000E+00  0.00000000000E+00  0.90709156854E+03  0.90709156854E+03  0.25500000000E-02 0.  1.
         -2   -1    0    0    0  501 -0.00000000000E+00 -0.00000000000E+00 -0.79962982931E+02  0.79962982972E+02  0.25500000000E-02 0. -1.
    5000001    1    1    2    0    0 -0.20018663608E+02  0.20966489101E+03  0.47000474627E+03  0.54082305325E+03  0.16500000000E+03 0.  0.
   -5000001    1    1    2    0    0  0.20018663608E+02 -0.20966489101E+03  0.35712383934E+03  0.44623149826E+03  0.16500000000E+03 0.  0.
<mgrwt>
<rscale>  0 0.53864180E+03</rscale>
<asrwt>0</asrwt>
<pdfrwt beam="1">  1        2 0.12958452E+00 0.53864180E+03</pdfrwt>
<pdfrwt beam="2">  1       -2 0.11423283E-01 0.53864180E+03</pdfrwt>
<totfact> 0.17795074E+03</totfact>
</mgrwt>
</event>
<event>
 4    1  0.5312547E-005  0.6408493E+03  0.7818608E-02  0.9824103E-01
         -2   -1    0    0    0  501 -0.00000000000E+00  0.00000000000E+00  0.17830811888E+03  0.17830811890E+03  0.25500000000E-02 0. -1.
          2   -1    0    0  501    0  0.00000000000E+00 -0.00000000000E+00 -0.57581198014E+03  0.57581198015E+03  0.25500000000E-02 0.  1.
    5000001    1    1    2    0    0  0.17870606143E+03 -0.33158221607E+02 -0.44109303312E+03  0.50480034461E+03  0.16500000000E+03 0.  0.
   -5000001    1    1    2    0    0 -0.17870606143E+03  0.33158221607E+02  0.43589171853E+02  0.24931975444E+03  0.16500000000E+03 0.  0.
<mgrwt>
<rscale>  0 0.64084928E+03</rscale>
<asrwt>0</asrwt>
<pdfrwt beam="1">  1        2 0.82258853E-01 0.64084928E+03</pdfrwt>
<pdfrwt beam="2">  1       -2 0.25472589E-01 0.64084928E+03</pdfrwt>
<totfact> 0.79190869E+02</totfact>
</mgrwt>
</event>
<event>
 4    1  0.5312547E-005  0.4737946E+03  0.7818608E-02  0.1020855E+00
          2   -1    0    0  501    0  0.00000000000E+00  0.00000000000E+00  0.82737730824E+03  0.82737730824E+03  0.25500000000E-02 0.  1.
         -2   -1    0    0    0  501 -0.00000000000E+00 -0.00000000000E+00 -0.67829184726E+02  0.67829184774E+02  0.25500000000E-02 0. -1.
    5000001    1    1    2    0    0 -0.30030915962E+02  0.15971981112E+03  0.28562277995E+03  0.36771952138E+03  0.16500000000E+03 0.  0.
   -5000001    1    1    2    0    0  0.30030915962E+02 -0.15971981112E+03  0.47392534355E+03  0.52748697163E+03  0.16500000000E+03 0.  0.
<mgrwt>
<rscale>  0 0.47379459E+03</rscale>
<asrwt>0</asrwt>
<pdfrwt beam="1">  1        2 0.11819677E+00 0.47379459E+03</pdfrwt>
<pdfrwt beam="2">  1       -2 0.96898827E-02 0.47379459E+03</pdfrwt>
<totfact> 0.26209494E+03</totfact>
</mgrwt>
</event>
<event>
 4    1  0.5312547E-005  0.5783728E+03  0.7818608E-02  0.9951320E-01
          2   -1    0    0  501    0  0.00000000000E+00  0.00000000000E+00  0.19788506482E+04  0.19788506482E+04  0.25500000000E-02 0.  1.
         -2   -1    0    0    0  501 -0.00000000000E+00 -0.00000000000E+00 -0.42261279678E+02  0.42261279755E+02  0.25500000000E-02 0. -1.
    5000001    1    1    2    0    0 -0.20414302563E+03 -0.49207304021E+02  0.58061168165E+03  0.63908579906E+03  0.16500000000E+03 0.  0.
   -5000001    1    1    2    0    0  0.20414302563E+03  0.49207304021E+02  0.13559776868E+04  0.13820261289E+04  0.16500000000E+03 0.  0.
<mgrwt>
<rscale>  0 0.57837275E+03</rscale>
<asrwt>0</asrwt>
<pdfrwt beam="1">  1        2 0.28269296E+00 0.57837275E+03</pdfrwt>
<pdfrwt beam="2">  1       -2 0.60373254E-02 0.57837275E+03</pdfrwt>
<totfact> 0.13000210E+03</totfact>
</mgrwt>
</event>
<event>
 4    1  0.5312547E-005  0.4649775E+03  0.7818608E-02  0.1023347E+00
         -2   -1    0    0    0  501 -0.00000000000E+00  0.00000000000E+00  0.28289585609E+02  0.28289585723E+02  0.25500000000E-02 0. -1.
          2   -1    0    0  501    0  0.00000000000E+00 -0.00000000000E+00 -0.19106333745E+04  0.19106333745E+04  0.25500000000E-02 0.  1.
    5000001    1    1    2    0    0  0.35968283242E+02 -0.49559184347E+02 -0.30772429063E+03  0.35449833455E+03  0.16500000000E+03 0.  0.
   -5000001    1    1    2    0    0 -0.35968283242E+02  0.49559184347E+02 -0.15746194982E+04  0.15844246257E+04  0.16500000000E+03 0.  0.
<mgrwt>
<rscale>  0 0.46497753E+03</rscale>
<asrwt>0</asrwt>
<pdfrwt beam="1">  1        2 0.27294754E+00 0.46497753E+03</pdfrwt>
<pdfrwt beam="2">  1       -2 0.40413706E-02 0.46497753E+03</pdfrwt>
<totfact> 0.26276446E+03</totfact>
</mgrwt>
</event>
<event>
 4    1  0.5312547E-005  0.4976868E+03  0.7818608E-02  0.1014384E+00
         -2   -1    0    0    0  501 -0.00000000000E+00  0.00000000000E+00  0.11191919694E+03  0.11191919697E+03  0.25500000000E-02 0. -1.
          2   -1    0    0  501    0  0.00000000000E+00 -0.00000000000E+00 -0.55328351658E+03  0.55328351659E+03  0.25500000000E-02 0.  1.
    5000001    1    1    2    0    0  0.14291717026E+03  0.81420931787E+02 -0.10382911075E+03  0.25506895132E+03  0.16500000000E+03 0.  0.
   -5000001    1    1    2    0    0 -0.14291717026E+03 -0.81420931787E+02 -0.33753520889E+03  0.41013376224E+03  0.16500000000E+03 0.  0.
<mgrwt>
<rscale>  0 0.49768684E+03</rscale>
<asrwt>0</asrwt>
<pdfrwt beam="1">  1        2 0.79040501E-01 0.49768684E+03</pdfrwt>
<pdfrwt beam="2">  1       -2 0.15988457E-01 0.49768684E+03</pdfrwt>
<totfact> 0.18693470E+03</totfact>
</mgrwt>
</event>
<event>
 4    1  0.5312547E-005  0.3909268E+03  0.7818608E-02  0.1046967E+00
          2   -1    0    0  501    0  0.00000000000E+00  0.00000000000E+00  0.16369059295E+04  0.16369059295E+04  0.25500000000E-02 0.  1.
         -2   -1    0    0    0  501 -0.00000000000E+00 -0.00000000000E+00 -0.23340338502E+02  0.23340338641E+02  0.25500000000E-02 0. -1.
    5000001    1    1    2    0    0 -0.80258285882E+02  0.61207199552E+02  0.92639493088E+03  0.94637216870E+03  0.16500000000E+03 0.  0.
   -5000001    1    1    2    0    0  0.80258285882E+02 -0.61207199552E+02  0.68717066014E+03  0.71387409947E+03  0.16500000000E+03 0.  0.
<mgrwt>
<rscale>  0 0.39092679E+03</rscale>
<asrwt>0</asrwt>
<pdfrwt beam="1">  1        2 0.23384372E+00 0.39092679E+03</pdfrwt>
<pdfrwt beam="2">  1       -2 0.33343339E-02 0.39092679E+03</pdfrwt>
<totfact> 0.48266020E+03</totfact>
</mgrwt>
</event>
<event>
 4    1  0.5312547E-005  0.1625229E+04  0.7818608E-02  0.8805197E-01
          2   -1    0    0  501    0  0.00000000000E+00  0.00000000000E+00  0.20049991063E+04  0.20049991063E+04  0.25500000000E-02 0.  1.
         -2   -1    0    0    0  501 -0.00000000000E+00 -0.00000000000E+00 -0.32934803834E+03  0.32934803835E+03  0.25500000000E-02 0. -1.
    5000001    1    1    2    0    0  0.60125634936E+03 -0.50361366434E+03  0.64522166639E+03  0.10289178390E+04  0.16500000000E+03 0.  0.
   -5000001    1    1    2    0    0 -0.60125634936E+03  0.50361366434E+03  0.10304294016E+04  0.13054293057E+04  0.16500000000E+03 0.  0.
<mgrwt>
<rscale>  0 0.16252292E+04</rscale>
<asrwt>0</asrwt>
<pdfrwt beam="1">  1        2 0.28642844E+00 0.16252292E+04</pdfrwt>
<pdfrwt beam="2">  1       -2 0.47049721E-01 0.16252292E+04</pdfrwt>
<totfact> 0.32748941E+01</totfact>
</mgrwt>
</event>
<event>
 4    1  0.5312547E-005  0.3893094E+03  0.7818608E-02  0.1047546E+00
         -2   -1    0    0    0  501 -0.00000000000E+00  0.00000000000E+00  0.16355233584E+03  0.16355233586E+03  0.25500000000E-02 0. -1.
          2   -1    0    0  501    0  0.00000000000E+00 -0.00000000000E+00 -0.23167175649E+03  0.23167175650E+03  0.25500000000E-02 0.  1.
    5000001    1    1    2    0    0 -0.41056757119E+02 -0.45075042268E+02 -0.11868100287E+03  0.21219707157E+03  0.16500000000E+03 0.  0.
   -5000001    1    1    2    0    0  0.41056757119E+02  0.45075042268E+02  0.50561582223E+02  0.18302702079E+03  0.16500000000E+03 0.  0.
<mgrwt>
<rscale>  0 0.38930942E+03</rscale>
<asrwt>0</asrwt>
<pdfrwt beam="1">  1        2 0.33095965E-01 0.38930942E+03</pdfrwt>
<pdfrwt beam="2">  1       -2 0.23364619E-01 0.38930942E+03</pdfrwt>
<totfact> 0.25382879E+03</totfact>
</mgrwt>
</event>
<event>
 4    1  0.5312547E-005  0.5140948E+03  0.7818608E-02  0.1010164E+00
         -2   -1    0    0    0  501 -0.00000000000E+00  0.00000000000E+00  0.44827543084E+02  0.44827543156E+02  0.25500000000E-02 0.  1.
          2   -1    0    0  501    0  0.00000000000E+00 -0.00000000000E+00 -0.14739456893E+04  0.14739456893E+04  0.25500000000E-02 0. -1.
    5000001    1    1    2    0    0 -0.95651220917E+02 -0.17192682974E+03 -0.67955716872E+03  0.72645091810E+03  0.16500000000E+03 0.  0.
   -5000001    1    1    2    0    0  0.95651220917E+02  0.17192682974E+03 -0.74956097748E+03  0.79232231434E+03  0.16500000000E+03 0.  0.
<mgrwt>
<rscale>  0 0.51409479E+03</rscale>
<asrwt>0</asrwt>
<pdfrwt beam="1">  1        2 0.21056364E+00 0.51409479E+03</pdfrwt>
<pdfrwt beam="2">  1       -2 0.64039356E-02 0.51409479E+03</pdfrwt>
<totfact> 0.21437229E+03</totfact>
</mgrwt>
</event>
<event>
 4    1  0.5312547E-005  0.6820858E+03  0.7818608E-02  0.9748368E-01
         -2   -1    0    0    0  501 -0.00000000000E+00  0.00000000000E+00  0.44453290943E+03  0.44453290944E+03  0.25500000000E-02 0. -1.
          2   -1    0    0  501    0  0.00000000000E+00 -0.00000000000E+00 -0.26164599965E+03  0.26164599966E+03  0.25500000000E-02 0.  1.
    5000001    1    1    2    0    0 -0.17321416216E+03  0.24301026020E+03  0.85952833529E+02  0.35166748802E+03  0.16500000000E+03 0.  0.
   -5000001    1    1    2    0    0  0.17321416216E+03 -0.24301026020E+03  0.96934076259E+02  0.35451142108E+03  0.16500000000E+03 0.  0.
<mgrwt>
<rscale>  0 0.68208579E+03</rscale>
<asrwt>0</asrwt>
<pdfrwt beam="1">  1        2 0.37378000E-01 0.68208579E+03</pdfrwt>
<pdfrwt beam="2">  1       -2 0.63504702E-01 0.68208579E+03</pdfrwt>
<totfact> 0.32180092E+02</totfact>
</mgrwt>
</event>
<event>
 4    1  0.5312547E-005  0.4198399E+03  0.7818608E-02  0.1037118E+00
          2   -1    0    0  501    0  0.00000000000E+00  0.00000000000E+00  0.25366107596E+03  0.25366107597E+03  0.25500000000E-02 0.  1.
         -2   -1    0    0    0  501 -0.00000000000E+00 -0.00000000000E+00 -0.17372153070E+03  0.17372153072E+03  0.25500000000E-02 0. -1.
    5000001    1    1    2    0    0 -0.11240302294E+03  0.54343044035E+02  0.39248132622E+01  0.20694929369E+03  0.16500000000E+03 0.  0.
   -5000001    1    1    2    0    0  0.11240302294E+03 -0.54343044035E+02  0.76014731994E+02  0.22043331300E+03  0.16500000000E+03 0.  0.
<mgrwt>
<rscale>  0 0.41983992E+03</rscale>
<asrwt>0</asrwt>
<pdfrwt beam="1">  1        2 0.36237296E-01 0.41983992E+03</pdfrwt>
<pdfrwt beam="2">  1       -2 0.24817362E-01 0.41983992E+03</pdfrwt>
<totfact> 0.20668616E+03</totfact>
</mgrwt>
</event>
<event>
 4    1  0.5312547E-005  0.6607353E+03  0.7818608E-02  0.9786841E-01
         -2   -1    0    0    0  501 -0.00000000000E+00  0.00000000000E+00  0.61036929350E+02  0.61036929403E+02  0.25500000000E-02 0. -1.
          2   -1    0    0  501    0  0.00000000000E+00 -0.00000000000E+00 -0.17881436392E+04  0.17881436392E+04  0.25500000000E-02 0.  1.
    5000001    1    1    2    0    0  0.14300793973E+03  0.24783483514E+03 -0.84490053862E+03  0.90716883571E+03  0.16500000000E+03 0.  0.
   -5000001    1    1    2    0    0 -0.14300793973E+03 -0.24783483514E+03 -0.88220617119E+03  0.94201173284E+03  0.16500000000E+03 0.  0.
<mgrwt>
<rscale>  0 0.66073534E+03</rscale>
<asrwt>0</asrwt>
<pdfrwt beam="1">  1        2 0.25544906E+00 0.66073534E+03</pdfrwt>
<pdfrwt beam="2">  1       -2 0.87195624E-02 0.66073534E+03</pdfrwt>
<totfact> 0.90184677E+02</totfact>
</mgrwt>
</event>
<event>
 4    1  0.5312547E-005  0.3871268E+03  0.7818608E-02  0.1048331E+00
         -2   -1    0    0    0  501 -0.00000000000E+00  0.00000000000E+00  0.13190035289E+03  0.13190035291E+03  0.25500000000E-02 0. -1.
          2   -1    0    0  501    0  0.00000000000E+00 -0.00000000000E+00 -0.28405369041E+03  0.28405369042E+03  0.25500000000E-02 0.  1.
    5000001    1    1    2    0    0  0.36934369236E+02  0.94221191394E+02 -0.76117892721E+02  0.20799210113E+03  0.16500000000E+03 0.  0.
   -5000001    1    1    2    0    0 -0.36934369236E+02 -0.94221191394E+02 -0.76035444799E+02  0.20796194220E+03  0.16500000000E+03 0.  0.
<mgrwt>
<rscale>  0 0.38712676E+03</rscale>
<asrwt>0</asrwt>
<pdfrwt beam="1">  1        2 0.40579098E-01 0.38712676E+03</pdfrwt>
<pdfrwt beam="2">  1       -2 0.18842908E-01 0.38712676E+03</pdfrwt>
<totfact> 0.29486872E+03</totfact>
</mgrwt>
</event>
<event>
 4    1  0.5312547E-005  0.3500216E+03  0.7818608E-02  0.1062606E+00
          2   -1    0    0  501    0  0.00000000000E+00  0.00000000000E+00  0.19789014831E+04  0.19789014831E+04  0.25500000000E-02 0.  1.
         -2   -1    0    0    0  501 -0.00000000000E+00 -0.00000000000E+00 -0.15477665377E+02  0.15477665587E+02  0.25500000000E-02 0. -1.
    5000001    1    1    2    0    0 -0.16635419830E+02 -0.53767485247E+02  0.10692620367E+04  0.10833808116E+04  0.16500000000E+03 0.  0.
   -5000001    1    1    2    0    0  0.16635419830E+02  0.53767485247E+02  0.89416178097E+03  0.91099833711E+03  0.16500000000E+03 0.  0.
<mgrwt>
<rscale>  0 0.35002157E+03</rscale>
<asrwt>0</asrwt>
<pdfrwt beam="1">  1        2 0.28270022E+00 0.35002157E+03</pdfrwt>
<pdfrwt beam="2">  1       -2 0.22110950E-02 0.35002157E+03</pdfrwt>
<totfact> 0.60374244E+03</totfact>
</mgrwt>
</event>
<event>
 4    1  0.5312547E-005  0.8230143E+03  0.7818608E-02  0.9527290E-01
         -2   -1    0    0    0  501 -0.00000000000E+00  0.00000000000E+00  0.84910146598E+02  0.84910146637E+02  0.25500000000E-02 0. -1.
          2   -1    0    0  501    0  0.00000000000E+00 -0.00000000000E+00 -0.19943217327E+04  0.19943217327E+04  0.25500000000E-02 0.  1.
    5000001    1    1    2    0    0 -0.35568201894E+03  0.63216396007E+02 -0.12268869924E+04  0.12895668666E+04  0.16500000000E+03 0.  0.
   -5000001    1    1    2    0    0  0.35568201894E+03 -0.63216396007E+02 -0.68252459370E+03  0.78966501273E+03  0.16500000000E+03 0.  0.
<mgrwt>
<rscale>  0 0.82301434E+03</rscale>
<asrwt>0</asrwt>
<pdfrwt beam="1">  1        2 0.28490307E+00 0.82301434E+03</pdfrwt>
<pdfrwt beam="2">  1       -2 0.12130022E-01 0.82301434E+03</pdfrwt>
<totfact> 0.40978977E+02</totfact>
</mgrwt>
</event>
<event>
 4    1  0.5312547E-005  0.4368243E+03  0.7818608E-02  0.1031726E+00
          2   -1    0    0  501    0  0.00000000000E+00  0.00000000000E+00  0.54007140117E+03  0.54007140118E+03  0.25500000000E-02 0.  1.
         -2   -1    0    0    0  501 -0.00000000000E+00 -0.00000000000E+00 -0.88328802698E+02  0.88328802735E+02  0.25500000000E-02 0. -1.
    5000001    1    1    2    0    0  0.12833304786E+03 -0.43322165385E+02  0.29230559143E+03  0.36195820196E+03  0.16500000000E+03 0.  0.
   -5000001    1    1    2    0    0 -0.12833304786E+03  0.43322165385E+02  0.15943700705E+03  0.26644200195E+03  0.16500000000E+03 0.  0.
<mgrwt>
<rscale>  0 0.43682427E+03</rscale>
<asrwt>0</asrwt>
<pdfrwt beam="1">  1        2 0.77153058E-01 0.43682427E+03</pdfrwt>
<pdfrwt beam="2">  1       -2 0.12618400E-01 0.43682427E+03</pdfrwt>
<totfact> 0.28468063E+03</totfact>
</mgrwt>
</event>
<event>
 4    1  0.5312547E-005  0.5945244E+03  0.7818608E-02  0.9916832E-01
         -2   -1    0    0    0  501 -0.00000000000E+00  0.00000000000E+00  0.11478602304E+03  0.11478602307E+03  0.25500000000E-02 0. -1.
          2   -1    0    0  501    0  0.00000000000E+00 -0.00000000000E+00 -0.76982195915E+03  0.76982195916E+03  0.25500000000E-02 0.  1.
    5000001    1    1    2    0    0 -0.24702700683E+03 -0.94746532114E+01 -0.31968831239E+03  0.43650627514E+03  0.16500000000E+03 0.  0.
   -5000001    1    1    2    0    0  0.24702700683E+03  0.94746532114E+01 -0.33534762372E+03  0.44810170709E+03  0.16500000000E+03 0.  0.
<mgrwt>
<rscale>  0 0.59452435E+03</rscale>
<asrwt>0</asrwt>
<pdfrwt beam="1">  1        2 0.10997456E+00 0.59452435E+03</pdfrwt>
<pdfrwt beam="2">  1       -2 0.16398004E-01 0.59452435E+03</pdfrwt>
<totfact> 0.12046942E+03</totfact>
</mgrwt>
</event>
<event>
 4    1  0.5312547E-005  0.8014109E+03  0.7818608E-02  0.9557977E-01
          2   -1    0    0  501    0  0.00000000000E+00  0.00000000000E+00  0.28270285758E+03  0.28270285759E+03  0.25500000000E-02 0. -1.
         -2   -1    0    0    0  501 -0.00000000000E+00 -0.00000000000E+00 -0.56796332403E+03  0.56796332404E+03  0.25500000000E-02 0.  1.
    5000001    1    1    2    0    0  0.20482280088E+03  0.27268375697E+03 -0.28115408456E+03  0.47178536469E+03  0.16500000000E+03 0.  0.
   -5000001    1    1    2    0    0 -0.20482280088E+03 -0.27268375697E+03 -0.41063818969E+01  0.37888081694E+03  0.16500000000E+03 0.  0.
<mgrwt>
<rscale>  0 0.80141089E+03</rscale>
<asrwt>0</asrwt>
<pdfrwt beam="1">  1        2 0.40386122E-01 0.80141089E+03</pdfrwt>
<pdfrwt beam="2">  1       -2 0.81137618E-01 0.80141089E+03</pdfrwt>
<totfact> 0.17186029E+02</totfact>
</mgrwt>
</event>
<event>
 4    1  0.5312547E-005  0.4836585E+03  0.7818608E-02  0.1018135E+00
         -2   -1    0    0    0  501 -0.00000000000E+00  0.00000000000E+00  0.22531368301E+02  0.22531368445E+02  0.25500000000E-02 0.  1.
          2   -1    0    0  501    0  0.00000000000E+00 -0.00000000000E+00 -0.25955543562E+04  0.25955543562E+04  0.25500000000E-02 0. -1.
    5000001    1    1    2    0    0  0.16609997124E+03 -0.46958611352E+02 -0.10795304640E+04  0.11056244093E+04  0.16500000000E+03 0.  0.
   -5000001    1    1    2    0    0 -0.16609997124E+03  0.46958611352E+02 -0.14934925239E+04  0.15124613154E+04  0.16500000000E+03 0.  0.
<mgrwt>
<rscale>  0 0.48365852E+03</rscale>
<asrwt>0</asrwt>
<pdfrwt beam="1">  1        2 0.37079329E+00 0.48365852E+03</pdfrwt>
<pdfrwt beam="2">  1       -2 0.32187686E-02 0.48365852E+03</pdfrwt>
<totfact> 0.16801281E+03</totfact>
</mgrwt>
</event>
<event>
 4    1  0.5312547E-005  0.7954618E+03  0.7818608E-02  0.9566609E-01
          2   -1    0    0  501    0  0.00000000000E+00  0.00000000000E+00  0.13437679655E+04  0.13437679656E+04  0.25500000000E-02 0.  1.
         -2   -1    0    0    0  501 -0.00000000000E+00 -0.00000000000E+00 -0.11772110974E+03  0.11772110976E+03  0.25500000000E-02 0. -1.
    5000001    1    1    2    0    0  0.11357934457E+03 -0.24641918104E+03  0.10529835828E+04  0.10998282165E+04  0.16500000000E+03 0.  0.
   -5000001    1    1    2    0    0 -0.11357934457E+03  0.24641918104E+03  0.17306327304E+03  0.36166085878E+03  0.16500000000E+03 0.  0.
<mgrwt>
<rscale>  0 0.79546177E+03</rscale>
<asrwt>0</asrwt>
<pdfrwt beam="1">  1        2 0.19196685E+00 0.79546177E+03</pdfrwt>
<pdfrwt beam="2">  1       -2 0.16817302E-01 0.79546177E+03</pdfrwt>
<totfact> 0.51466278E+02</totfact>
</mgrwt>
</event>
<event>
 4    1  0.5312547E-005  0.5022711E+03  0.7818608E-02  0.1013188E+00
         -2   -1    0    0    0  501 -0.00000000000E+00  0.00000000000E+00  0.82834615652E+02  0.82834615691E+02  0.25500000000E-02 0. -1.
          2   -1    0    0  501    0  0.00000000000E+00 -0.00000000000E+00 -0.76138523980E+03  0.76138523980E+03  0.25500000000E-02 0.  1.
    5000001    1    1    2    0    0  0.91937919093E+02 -0.16490440002E+03 -0.31562359183E+03  0.40309960783E+03  0.16500000000E+03 0.  0.
   -5000001    1    1    2    0    0 -0.91937919093E+02  0.16490440002E+03 -0.36292703232E+03  0.44112024767E+03  0.16500000000E+03 0.  0.
<mgrwt>
<rscale>  0 0.50227106E+03</rscale>
<asrwt>0</asrwt>
<pdfrwt beam="1">  1        2 0.10876932E+00 0.50227106E+03</pdfrwt>
<pdfrwt beam="2">  1       -2 0.11833517E-01 0.50227106E+03</pdfrwt>
<totfact> 0.21056283E+03</totfact>
</mgrwt>
</event>
<event>
 4    1  0.5312547E-005  0.6056583E+03  0.7818608E-02  0.9893736E-01
          2   -1    0    0  501    0  0.00000000000E+00  0.00000000000E+00  0.26004783670E+04  0.26004783670E+04  0.25500000000E-02 0.  1.
         -2   -1    0    0    0  501 -0.00000000000E+00 -0.00000000000E+00 -0.35264857943E+02  0.35264858035E+02  0.25500000000E-02 0. -1.
    5000001    1    1    2    0    0 -0.18716760009E+03  0.16898994048E+03  0.11526913898E+04  0.11914326462E+04  0.16500000000E+03 0.  0.
   -5000001    1    1    2    0    0  0.18716760009E+03 -0.16898994048E+03  0.14125221193E+04  0.14443105788E+04  0.16500000000E+03 0.  0.
<mgrwt>
<rscale>  0 0.60565832E+03</rscale>
<asrwt>0</asrwt>
<pdfrwt beam="1">  1        2 0.37149695E+00 0.60565832E+03</pdfrwt>
<pdfrwt beam="2">  1       -2 0.50378363E-02 0.60565832E+03</pdfrwt>
<totfact> 0.83276701E+02</totfact>
</mgrwt>
</event>
<event>
 4    1  0.5312547E-005  0.4617079E+03  0.7818608E-02  0.1024287E+00
          2   -1    0    0  501    0  0.00000000000E+00  0.00000000000E+00  0.64392302155E+03  0.64392302155E+03  0.25500000000E-02 0.  1.
         -2   -1    0    0    0  501 -0.00000000000E+00 -0.00000000000E+00 -0.82763849172E+02  0.82763849211E+02  0.25500000000E-02 0. -1.
    5000001    1    1    2    0    0  0.15662773937E+03  0.33954252631E+02  0.31139801513E+03  0.38714191692E+03  0.16500000000E+03 0.  0.
   -5000001    1    1    2    0    0 -0.15662773937E+03 -0.33954252631E+02  0.24976115725E+03  0.33954495384E+03  0.16500000000E+03 0.  0.
<mgrwt>
<rscale>  0 0.46170791E+03</rscale>
<asrwt>0</asrwt>
<pdfrwt beam="1">  1        2 0.91989006E-01 0.46170791E+03</pdfrwt>
<pdfrwt beam="2">  1       -2 0.11823407E-01 0.46170791E+03</pdfrwt>
<totfact> 0.25835107E+03</totfact>
</mgrwt>
</event>
<event>
 4    1  0.5312547E-005  0.4939553E+03  0.7818608E-02  0.1015369E+00
         -2   -1    0    0    0  501 -0.00000000000E+00  0.00000000000E+00  0.79161239644E+02  0.79161239686E+02  0.25500000000E-02 0. -1.
          2   -1    0    0  501    0  0.00000000000E+00 -0.00000000000E+00 -0.77055338863E+03  0.77055338864E+03  0.25500000000E-02 0.  1.
    5000001    1    1    2    0    0  0.52564714238E+02  0.17575251673E+03 -0.36461583267E+03  0.44025186172E+03  0.16500000000E+03 0.  0.
   -5000001    1    1    2    0    0 -0.52564714238E+02 -0.17575251673E+03 -0.32677631632E+03  0.40946276660E+03  0.16500000000E+03 0.  0.
<mgrwt>
<rscale>  0 0.49395531E+03</rscale>
<asrwt>0</asrwt>
<pdfrwt beam="1">  1        2 0.11007905E+00 0.49395531E+03</pdfrwt>
<pdfrwt beam="2">  1       -2 0.11308749E-01 0.49395531E+03</pdfrwt>
<totfact> 0.22338655E+03</totfact>
</mgrwt>
</event>
<event>
 4    1  0.5312547E-005  0.4277015E+03  0.7818608E-02  0.1034589E+00
          2   -1    0    0  501    0  0.00000000000E+00  0.00000000000E+00  0.66831131994E+02  0.66831132043E+02  0.25500000000E-02 0.  1.
         -2   -1    0    0    0  501 -0.00000000000E+00 -0.00000000000E+00 -0.68429412436E+03  0.68429412436E+03  0.25500000000E-02 0. -1.
    5000001    1    1    2    0    0 -0.13365879822E+03 -0.23125327653E+02 -0.29050634940E+03  0.36058063475E+03  0.16500000000E+03 0.  0.
   -5000001    1    1    2    0    0  0.13365879822E+03  0.23125327653E+02 -0.32695664296E+03  0.39054462165E+03  0.16500000000E+03 0.  0.
<mgrwt>
<rscale>  0 0.42770154E+03</rscale>
<asrwt>0</asrwt>
<pdfrwt beam="1">  1        2 0.95473050E-02 0.42770154E+03</pdfrwt>
<pdfrwt beam="2">  1       -2 0.97756299E-01 0.42770154E+03</pdfrwt>
<totfact> 0.61841974E+02</totfact>
</mgrwt>
</event>
<event>
 4    1  0.5312547E-005  0.3967569E+03  0.7818608E-02  0.1044908E+00
          2   -1    0    0  501    0  0.00000000000E+00  0.00000000000E+00  0.29806011732E+04  0.29806011732E+04  0.25500000000E-02 0.  1.
         -2   -1    0    0    0  501 -0.00000000000E+00 -0.00000000000E+00 -0.13203381119E+02  0.13203381365E+02  0.25500000000E-02 0. -1.
    5000001    1    1    2    0    0  0.35988212280E+02 -0.98201390311E+02  0.17440360271E+04  0.17549431126E+04  0.16500000000E+03 0.  0.
   -5000001    1    1    2    0    0 -0.35988212280E+02  0.98201390311E+02  0.12233617650E+04  0.12388614420E+04  0.16500000000E+03 0.  0.
<mgrwt>
<rscale>  0 0.39675692E+03</rscale>
<asrwt>0</asrwt>
<pdfrwt beam="1">  1        2 0.42580058E+00 0.39675692E+03</pdfrwt>
<pdfrwt beam="2">  1       -2 0.18861955E-02 0.39675692E+03</pdfrwt>
<totfact> 0.23690830E+03</totfact>
</mgrwt>
</event>
<event>
 4    1  0.5312547E-005  0.8900257E+03  0.7818608E-02  0.9438136E-01
          2   -1    0    0  501    0  0.00000000000E+00  0.00000000000E+00  0.62067849194E+03  0.62067849195E+03  0.25500000000E-02 0.  1.
         -2   -1    0    0    0  501 -0.00000000000E+00 -0.00000000000E+00 -0.31906446380E+03  0.31906446381E+03  0.25500000000E-02 0. -1.
    5000001    1    1    2    0    0 -0.24671791237E+03 -0.17535017025E+01 -0.19928460245E+03  0.35750825980E+03  0.16500000000E+03 0.  0.
   -5000001    1    1    2    0    0  0.24671791237E+03  0.17535017025E+01  0.50089863059E+03  0.58223469596E+03  0.16500000000E+03 0.  0.
<mgrwt>
<rscale>  0 0.89002573E+03</rscale>
<asrwt>0</asrwt>
<pdfrwt beam="1">  1        2 0.88668356E-01 0.89002573E+03</pdfrwt>
<pdfrwt beam="2">  1       -2 0.45580637E-01 0.89002573E+03</pdfrwt>
<totfact> 0.23847080E+02</totfact>
</mgrwt>
</event>
<event>
 4    1  0.5312547E-005  0.4825686E+03  0.7818608E-02  0.1018432E+00
         -2   -1    0    0    0  501 -0.00000000000E+00  0.00000000000E+00  0.58843210865E+02  0.58843210920E+02  0.25500000000E-02 0. -1.
          2   -1    0    0  501    0  0.00000000000E+00 -0.00000000000E+00 -0.98937707947E+03  0.98937707947E+03  0.25500000000E-02 0.  1.
    5000001    1    1    2    0    0  0.15340689670E+03 -0.38889143652E+01 -0.27785117302E+03  0.35773603950E+03  0.16500000000E+03 0.  0.
   -5000001    1    1    2    0    0 -0.15340689670E+03  0.38889143652E+01 -0.65268269559E+03  0.69048425089E+03  0.16500000000E+03 0.  0.
<mgrwt>
<rscale>  0 0.48256864E+03</rscale>
<asrwt>0</asrwt>
<pdfrwt beam="1">  1        2 0.14133957E+00 0.48256864E+03</pdfrwt>
<pdfrwt beam="2">  1       -2 0.84061736E-02 0.48256864E+03</pdfrwt>
<totfact> 0.25933623E+03</totfact>
</mgrwt>
</event>
<event>
 4    1  0.5312547E-005  0.4773801E+03  0.7818608E-02  0.1019858E+00
         -2   -1    0    0    0  501 -0.00000000000E+00  0.00000000000E+00  0.64156860950E+02  0.64156861000E+02  0.25500000000E-02 0. -1.
          2   -1    0    0  501    0  0.00000000000E+00 -0.00000000000E+00 -0.88802556501E+03  0.88802556501E+03  0.25500000000E-02 0.  1.
    5000001    1    1    2    0    0  0.52580235688E+02  0.14860978620E+03 -0.27233537146E+03  0.35530424187E+03  0.16500000000E+03 0.  0.
   -5000001    1    1    2    0    0 -0.52580235688E+02 -0.14860978620E+03 -0.55153333260E+03  0.59687818415E+03  0.16500000000E+03 0.  0.
<mgrwt>
<rscale>  0 0.47738007E+03</rscale>
<asrwt>0</asrwt>
<pdfrwt beam="1">  1        2 0.12686079E+00 0.47738007E+03</pdfrwt>
<pdfrwt beam="2">  1       -2 0.91652664E-02 0.47738007E+03</pdfrwt>
<totfact> 0.26140689E+03</totfact>
</mgrwt>
</event>
<event>
 4    1  0.5312547E-005  0.5912040E+03  0.7818608E-02  0.9923825E-01
          2   -1    0    0  501    0  0.00000000000E+00  0.00000000000E+00  0.78727826982E+03  0.78727826983E+03  0.25500000000E-02 0.  1.
         -2   -1    0    0    0  501 -0.00000000000E+00 -0.00000000000E+00 -0.11099068509E+03  0.11099068512E+03  0.25500000000E-02 0. -1.
    5000001    1    1    2    0    0 -0.20097821999E+03 -0.71695559738E+02  0.52187717601E+03  0.58746343293E+03  0.16500000000E+03 0.  0.
   -5000001    1    1    2    0    0  0.20097821999E+03  0.71695559738E+02  0.15441040873E+03  0.31080552202E+03  0.16500000000E+03 0.  0.
<mgrwt>
<rscale>  0 0.59120404E+03</rscale>
<asrwt>0</asrwt>
<pdfrwt beam="1">  1        2 0.11246833E+00 0.59120404E+03</pdfrwt>
<pdfrwt beam="2">  1       -2 0.15855812E-01 0.59120404E+03</pdfrwt>
<totfact> 0.12397876E+03</totfact>
</mgrwt>
</event>
<event>
 4    1  0.5312547E-005  0.4534996E+03  0.7818608E-02  0.1026684E+00
         -2   -1    0    0    0  501 -0.00000000000E+00  0.00000000000E+00  0.18032337092E+03  0.18032337094E+03  0.25500000000E-02 0. -1.
          2   -1    0    0  501    0  0.00000000000E+00 -0.00000000000E+00 -0.28512921857E+03  0.28512921858E+03  0.25500000000E-02 0.  1.
    5000001    1    1    2    0    0 -0.21105662137E+02  0.11614864956E+03  0.51530663055E+02  0.20932359400E+03  0.16500000000E+03 0.  0.
   -5000001    1    1    2    0    0  0.21105662137E+02 -0.11614864956E+03 -0.15633651071E+03  0.25612899552E+03  0.16500000000E+03 0.  0.
<mgrwt>
<rscale>  0 0.45349956E+03</rscale>
<asrwt>0</asrwt>
<pdfrwt beam="1">  1        2 0.40732745E-01 0.45349956E+03</pdfrwt>
<pdfrwt beam="2">  1       -2 0.25760482E-01 0.45349956E+03</pdfrwt>
<totfact> 0.17020899E+03</totfact>
</mgrwt>
</event>
<event>
 4    1  0.5312547E-005  0.4986186E+03  0.7818608E-02  0.1014140E+00
          2   -1    0    0  501    0  0.00000000000E+00  0.00000000000E+00  0.32362284686E+04  0.32362284686E+04  0.25500000000E-02 0.  1.
         -2   -1    0    0    0  501 -0.00000000000E+00 -0.00000000000E+00 -0.19206039036E+02  0.19206039205E+02  0.25500000000E-02 0. -1.
    5000001    1    1    2    0    0 -0.11875971361E+03  0.14377161039E+03  0.15269691026E+04  0.15471372873E+04  0.16500000000E+03 0.  0.
   -5000001    1    1    2    0    0  0.11875971361E+03 -0.14377161039E+03  0.16900533270E+04  0.17082972205E+04  0.16500000000E+03 0.  0.
<mgrwt>
<rscale>  0 0.49861861E+03</rscale>
<asrwt>0</asrwt>
<pdfrwt beam="1">  1        2 0.46231808E+00 0.49861861E+03</pdfrwt>
<pdfrwt beam="2">  1       -2 0.27437215E-02 0.49861861E+03</pdfrwt>
<totfact> 0.96968581E+02</totfact>
</mgrwt>
</event>
<event>
 4    1  0.5312547E-005  0.5007277E+03  0.7818608E-02  0.1013589E+00
         -2   -1    0    0    0  501 -0.00000000000E+00  0.00000000000E+00  0.66870195337E+02  0.66870195385E+02  0.25500000000E-02 0.  1.
          2   -1    0    0  501    0  0.00000000000E+00 -0.00000000000E+00 -0.93736920907E+03  0.93736920907E+03  0.25500000000E-02 0. -1.
    5000001    1    1    2    0    0  0.15979503073E+03  0.84223577369E+02 -0.32857711201E+03  0.40965348939E+03  0.16500000000E+03 0.  0.
   -5000001    1    1    2    0    0 -0.15979503073E+03 -0.84223577369E+02 -0.54192190172E+03  0.59458591507E+03  0.16500000000E+03 0.  0.
<mgrwt>
<rscale>  0 0.50072772E+03</rscale>
<asrwt>0</asrwt>
<pdfrwt beam="1">  1        2 0.13390988E+00 0.50072772E+03</pdfrwt>
<pdfrwt beam="2">  1       -2 0.95528857E-02 0.50072772E+03</pdfrwt>
<totfact> 0.22757332E+03</totfact>
</mgrwt>
</event>
<event>
 4    1  0.5312547E-005  0.4254390E+03  0.7818608E-02  0.1035311E+00
          2   -1    0    0  501    0  0.00000000000E+00  0.00000000000E+00  0.18745387736E+03  0.18745387738E+03  0.25500000000E-02 0.  1.
         -2   -1    0    0    0  501 -0.00000000000E+00 -0.00000000000E+00 -0.24139046722E+03  0.24139046723E+03  0.25500000000E-02 0. -1.
    5000001    1    1    2    0    0  0.99037256835E+02  0.40272464584E+02 -0.10882377095E+03  0.22471729522E+03  0.16500000000E+03 0.  0.
   -5000001    1    1    2    0    0 -0.99037256835E+02 -0.40272464584E+02  0.54887181097E+02  0.20412704939E+03  0.16500000000E+03 0.  0.
<mgrwt>
<rscale>  0 0.42543897E+03</rscale>
<asrwt>0</asrwt>
<pdfrwt beam="1">  1        2 0.26779126E-01 0.42543897E+03</pdfrwt>
<pdfrwt beam="2">  1       -2 0.34484352E-01 0.42543897E+03</pdfrwt>
<totfact> 0.15856377E+03</totfact>
</mgrwt>
</event>
<event>
 4    1  0.5312547E-005  0.5281950E+03  0.7818608E-02  0.1006671E+00
         -2   -1    0    0    0  501 -0.00000000000E+00  0.00000000000E+00  0.60303819866E+02  0.60303819920E+02  0.25500000000E-02 0. -1.
          2   -1    0    0  501    0  0.00000000000E+00 -0.00000000000E+00 -0.11566017132E+04  0.11566017132E+04  0.25500000000E-02 0.  1.
    5000001    1    1    2    0    0  0.16550869381E+03 -0.11407882257E+03 -0.65411295402E+03  0.70391466961E+03  0.16500000000E+03 0.  0.
   -5000001    1    1    2    0    0 -0.16550869381E+03  0.11407882257E+03 -0.44218493933E+03  0.51299086352E+03  0.16500000000E+03 0.  0.
<mgrwt>
<rscale>  0 0.52819505E+03</rscale>
<asrwt>0</asrwt>
<pdfrwt beam="1">  1        2 0.16522880E+00 0.52819505E+03</pdfrwt>
<pdfrwt beam="2">  1       -2 0.86148321E-02 0.52819505E+03</pdfrwt>
<totfact> 0.19900296E+03</totfact>
</mgrwt>
</event>
<event>
 4    1  0.5312547E-005  0.8573754E+03  0.7818608E-02  0.9480491E-01
          2   -1    0    0  501    0  0.00000000000E+00  0.00000000000E+00  0.17890381260E+04  0.17890381260E+04  0.25500000000E-02 0. -1.
         -2   -1    0    0    0  501 -0.00000000000E+00 -0.00000000000E+00 -0.10272176395E+03  0.10272176398E+03  0.25500000000E-02 0.  1.
    5000001    1    1    2    0    0  0.53227669858E+02 -0.37885693335E+03  0.62050962808E+03  0.74741083704E+03  0.16500000000E+03 0.  0.
   -5000001    1    1    2    0    0 -0.53227669858E+02  0.37885693335E+03  0.10658067339E+04  0.11443490529E+04  0.16500000000E+03 0.  0.
<mgrwt>
<rscale>  0 0.85737542E+03</rscale>
<asrwt>0</asrwt>
<pdfrwt beam="1">  1        2 0.25557685E+00 0.85737542E+03</pdfrwt>
<pdfrwt beam="2">  1       -2 0.14674539E-01 0.85737542E+03</pdfrwt>
<totfact> 0.37815720E+02</totfact>
</mgrwt>
</event>
<event>
 4    1  0.5312547E-005  0.4978497E+03  0.7818608E-02  0.1014342E+00
         -2   -1    0    0    0  501 -0.00000000000E+00  0.00000000000E+00  0.17340789113E+03  0.17340789115E+03  0.25500000000E-02 0.  1.
          2   -1    0    0  501    0  0.00000000000E+00 -0.00000000000E+00 -0.35732851196E+03  0.35732851197E+03  0.25500000000E-02 0. -1.
    5000001    1    1    2    0    0 -0.78475416475E+02  0.15149666798E+03 -0.17194270492E+03  0.29308518416E+03  0.16500000000E+03 0.  0.
   -5000001    1    1    2    0    0  0.78475416475E+02 -0.15149666798E+03 -0.11977915906E+02  0.23765121895E+03  0.16500000000E+03 0.  0.
<mgrwt>
<rscale>  0 0.49784971E+03</rscale>
<asrwt>0</asrwt>
<pdfrwt beam="1">  1        2 0.51046930E-01 0.49784971E+03</pdfrwt>
<pdfrwt beam="2">  1       -2 0.24772556E-01 0.49784971E+03</pdfrwt>
<totfact> 0.14261265E+03</totfact>
</mgrwt>
</event>
<event>
 4    1  0.5312547E-005  0.4149143E+03  0.7818608E-02  0.1038734E+00
         -2   -1    0    0    0  501 -0.00000000000E+00  0.00000000000E+00  0.29143770564E+03  0.29143770565E+03  0.25500000000E-02 0. -1.
          2   -1    0    0  501    0  0.00000000000E+00 -0.00000000000E+00 -0.14767642665E+03  0.14767642667E+03  0.25500000000E-02 0.  1.
    5000001    1    1    2    0    0 -0.75799649076E+02  0.80178649166E+02  0.13572557922E+03  0.24045921783E+03  0.16500000000E+03 0.  0.
   -5000001    1    1    2    0    0  0.75799649076E+02 -0.80178649166E+02  0.80356997686E+01  0.19865491449E+03  0.16500000000E+03 0.  0.
<mgrwt>
<rscale>  0 0.41491435E+03</rscale>
<asrwt>0</asrwt>
<pdfrwt beam="1">  1        2 0.21096633E-01 0.41491435E+03</pdfrwt>
<pdfrwt beam="2">  1       -2 0.41633957E-01 0.41491435E+03</pdfrwt>
<totfact> 0.14515574E+03</totfact>
</mgrwt>
</event>
<event>
 4    1  0.5312547E-005  0.3824563E+03  0.7818608E-02  0.1050030E+00
          2   -1    0    0  501    0  0.00000000000E+00  0.00000000000E+00  0.37669539679E+04  0.37669539679E+04  0.25500000000E-02 0.  1.
         -2   -1    0    0    0  501 -0.00000000000E+00 -0.00000000000E+00 -0.97076306804E+01  0.97076310153E+01  0.25500000000E-02 0. -1.
    5000001    1    1    2    0    0  0.44079450648E+02  0.69004609817E+02  0.13713870825E+04  0.13837023395E+04  0.16500000000E+03 0.  0.
   -5000001    1    1    2    0    0 -0.44079450648E+02 -0.69004609817E+02  0.23858592547E+04  0.23929592595E+04  0.16500000000E+03 0.  0.
<mgrwt>
<rscale>  0 0.38245626E+03</rscale>
<asrwt>0</asrwt>
<pdfrwt beam="1">  1        2 0.53813770E+00 0.38245626E+03</pdfrwt>
<pdfrwt beam="2">  1       -2 0.13868007E-02 0.38245626E+03</pdfrwt>
<totfact> 0.13231923E+03</totfact>
</mgrwt>
</event>
<event>
 4    1  0.5312547E-005  0.1337320E+04  0.7818608E-02  0.9000483E-01
         -2   -1    0    0    0  501 -0.00000000000E+00  0.00000000000E+00  0.26166001798E+03  0.26166001799E+03  0.25500000000E-02 0. -1.
          2   -1    0    0  501    0  0.00000000000E+00 -0.00000000000E+00 -0.17087292258E+04  0.17087292258E+04  0.25500000000E-02 0.  1.
    5000001    1    1    2    0    0  0.60264855389E+03  0.23479063557E+03 -0.78190001995E+03  0.10280586380E+04  0.16500000000E+03 0.  0.
   -5000001    1    1    2    0    0 -0.60264855389E+03 -0.23479063557E+03 -0.66516918787E+03  0.94233060576E+03  0.16500000000E+03 0.  0.
<mgrwt>
<rscale>  0 0.13373199E+04</rscale>
<asrwt>0</asrwt>
<pdfrwt beam="1">  1        2 0.24410417E+00 0.13373199E+04</pdfrwt>
<pdfrwt beam="2">  1       -2 0.37380004E-01 0.13373199E+04</pdfrwt>
<totfact> 0.74910219E+01</totfact>
</mgrwt>
</event>
<event>
 4    1  0.5312547E-005  0.4409973E+03  0.7818608E-02  0.1030441E+00
         -2   -1    0    0    0  501 -0.00000000000E+00  0.00000000000E+00  0.34928585818E+03  0.34928585819E+03  0.25500000000E-02 0. -1.
          2   -1    0    0  501    0  0.00000000000E+00 -0.00000000000E+00 -0.13919732210E+03  0.13919732212E+03  0.25500000000E-02 0.  1.
    5000001    1    1    2    0    0  0.51911420634E+02 -0.99166539229E+02  0.74672844632E+00  0.19938494351E+03  0.16500000000E+03 0.  0.
   -5000001    1    1    2    0    0 -0.51911420634E+02  0.99166539229E+02  0.20934180764E+03  0.28909823680E+03  0.16500000000E+03 0.  0.
<mgrwt>
<rscale>  0 0.44099731E+03</rscale>
<asrwt>0</asrwt>
<pdfrwt beam="1">  1        2 0.19885332E-01 0.44099731E+03</pdfrwt>
<pdfrwt beam="2">  1       -2 0.49897979E-01 0.44099731E+03</pdfrwt>
<totfact> 0.10871485E+03</totfact>
</mgrwt>
</event>
<event>
 4    1  0.5312547E-005  0.9071233E+03  0.7818608E-02  0.9416720E-01
          2   -1    0    0  501    0  0.00000000000E+00  0.00000000000E+00  0.13534541407E+04  0.13534541407E+04  0.25500000000E-02 0.  1.
         -2   -1    0    0    0  501 -0.00000000000E+00 -0.00000000000E+00 -0.15199493551E+03  0.15199493553E+03  0.25500000000E-02 0. -1.
    5000001    1    1    2    0    0  0.18776285901E+03 -0.28770739306E+03  0.10088080454E+04  0.10784011813E+04  0.16500000000E+03 0.  0.
   -5000001    1    1    2    0    0 -0.18776285901E+03  0.28770739306E+03  0.19265115979E+03  0.42704789499E+03  0.16500000000E+03 0.  0.
<mgrwt>
<rscale>  0 0.90712331E+03</rscale>
<asrwt>0</asrwt>
<pdfrwt beam="1">  1        2 0.19335060E+00 0.90712331E+03</pdfrwt>
<pdfrwt beam="2">  1       -2 0.21713561E-01 0.90712331E+03</pdfrwt>
<totfact> 0.32395405E+02</totfact>
</mgrwt>
</event>
<event>
 4    1  0.5312547E-005  0.6926787E+03  0.7818608E-02  0.9729835E-01
         -2   -1    0    0    0  501 -0.00000000000E+00  0.00000000000E+00  0.53968795345E+02  0.53968795405E+02  0.25500000000E-02 0.  1.
          2   -1    0    0  501    0  0.00000000000E+00 -0.00000000000E+00 -0.22225983779E+04  0.22225983779E+04  0.25500000000E-02 0. -1.
    5000001    1    1    2    0    0  0.21448807607E+03  0.12130572326E+03 -0.16722948227E+04  0.16983860536E+04  0.16500000000E+03 0.  0.
   -5000001    1    1    2    0    0 -0.21448807607E+03 -0.12130572326E+03 -0.49633475992E+03  0.57818111970E+03  0.16500000000E+03 0.  0.
<mgrwt>
<rscale>  0 0.69267873E+03</rscale>
<asrwt>0</asrwt>
<pdfrwt beam="1">  1        2 0.31751400E+00 0.69267873E+03</pdfrwt>
<pdfrwt beam="2">  1       -2 0.77098293E-02 0.69267873E+03</pdfrwt>
<totfact> 0.66133299E+02</totfact>
</mgrwt>
</event>
<event>
 4    1  0.5312547E-005  0.4953448E+03  0.7818608E-02  0.1015001E+00
         -2   -1    0    0    0  501 -0.00000000000E+00  0.00000000000E+00  0.16071926738E+03  0.16071926740E+03  0.25500000000E-02 0. -1.
          2   -1    0    0  501    0  0.00000000000E+00 -0.00000000000E+00 -0.38166936928E+03  0.38166936929E+03  0.25500000000E-02 0.  1.
    5000001    1    1    2    0    0 -0.36058200749E+02  0.18028767612E+03 -0.12984031543E+03  0.27908304770E+03  0.16500000000E+03 0.  0.
   -5000001    1    1    2    0    0  0.36058200749E+02 -0.18028767612E+03 -0.91109786477E+02  0.26330558899E+03  0.16500000000E+03 0.  0.
<mgrwt>
<rscale>  0 0.49534481E+03</rscale>
<asrwt>0</asrwt>
<pdfrwt beam="1">  1        2 0.54524195E-01 0.49534481E+03</pdfrwt>
<pdfrwt beam="2">  1       -2 0.22959896E-01 0.49534481E+03</pdfrwt>
<totfact> 0.15179416E+03</totfact>
</mgrwt>
</event>
<event>
 4    1  0.5312547E-005  0.8172766E+03  0.7818608E-02  0.9535341E-01
          2   -1    0    0  501    0  0.00000000000E+00  0.00000000000E+00  0.96933989076E+03  0.96933989076E+03  0.25500000000E-02 0.  1.
         -2   -1    0    0    0  501 -0.00000000000E+00 -0.00000000000E+00 -0.17226697431E+03  0.17226697433E+03  0.25500000000E-02 0. -1.
    5000001    1    1    2    0    0  0.18484464756E+02  0.30810345838E+03  0.10390250577E+03  0.36508923184E+03  0.16500000000E+03 0.  0.
   -5000001    1    1    2    0    0 -0.18484464756E+02 -0.30810345838E+03  0.69317041068E+03  0.77651763325E+03  0.16500000000E+03 0.  0.
<mgrwt>
<rscale>  0 0.81727658E+03</rscale>
<asrwt>0</asrwt>
<pdfrwt beam="1">  1        2 0.13847712E+00 0.81727658E+03</pdfrwt>
<pdfrwt beam="2">  1       -2 0.24609568E-01 0.81727658E+03</pdfrwt>
<totfact> 0.43374542E+02</totfact>
</mgrwt>
</event>
<event>
 4    1  0.5312547E-005  0.4267912E+03  0.7818608E-02  0.1034878E+00
         -2   -1    0    0    0  501 -0.00000000000E+00  0.00000000000E+00  0.24563980518E+02  0.24563980650E+02  0.25500000000E-02 0. -1.
          2   -1    0    0  501    0  0.00000000000E+00 -0.00000000000E+00 -0.18538394319E+04  0.18538394319E+04  0.25500000000E-02 0.  1.
    5000001    1    1    2    0    0 -0.79881654979E+02  0.85301173980E+02 -0.61434307707E+03  0.64676099560E+03  0.16500000000E+03 0.  0.
   -5000001    1    1    2    0    0  0.79881654979E+02 -0.85301173980E+02 -0.12149323743E+04  0.12316424169E+04  0.16500000000E+03 0.  0.
<mgrwt>
<rscale>  0 0.42679117E+03</rscale>
<asrwt>0</asrwt>
<pdfrwt beam="1">  1        2 0.26483412E+00 0.42679117E+03</pdfrwt>
<pdfrwt beam="2">  1       -2 0.35091413E-02 0.42679117E+03</pdfrwt>
<totfact> 0.34797841E+03</totfact>
</mgrwt>
</event>
<event>
 4    1  0.5312547E-005  0.3551980E+03  0.7818608E-02  0.1060502E+00
         -2   -1    0    0    0  501 -0.00000000000E+00  0.00000000000E+00  0.47874732852E+03  0.47874732853E+03  0.25500000000E-02 0. -1.
          2   -1    0    0  501    0  0.00000000000E+00 -0.00000000000E+00 -0.65883183891E+02  0.65883183940E+02  0.25500000000E-02 0.  1.
    5000001    1    1    2    0    0 -0.15954823385E+02 -0.35168125721E+02  0.28792955128E+03  0.33409546533E+03  0.16500000000E+03 0.  0.
   -5000001    1    1    2    0    0  0.15954823385E+02  0.35168125721E+02  0.12493459335E+03  0.21053504713E+03  0.16500000000E+03 0.  0.
<mgrwt>
<rscale>  0 0.35519796E+03</rscale>
<asrwt>0</asrwt>
<pdfrwt beam="1">  1        2 0.94118837E-02 0.35519796E+03</pdfrwt>
<pdfrwt beam="2">  1       -2 0.68392474E-01 0.35519796E+03</pdfrwt>
<totfact> 0.13952730E+03</totfact>
</mgrwt>
</event>
<event>
 4    1  0.5312547E-005  0.5491000E+03  0.7818608E-02  0.1001702E+00
         -2   -1    0    0    0  501 -0.00000000000E+00  0.00000000000E+00  0.77635479813E+02  0.77635479855E+02  0.25500000000E-02 0. -1.
          2   -1    0    0  501    0  0.00000000000E+00 -0.00000000000E+00 -0.97091837479E+03  0.97091837479E+03  0.25500000000E-02 0.  1.
    5000001    1    1    2    0    0  0.19043398410E+03 -0.76018216367E+01 -0.23894531735E+03  0.34733665899E+03  0.16500000000E+03 0.  0.
   -5000001    1    1    2    0    0 -0.19043398410E+03  0.76018216367E+01 -0.65433757763E+03  0.70121719566E+03  0.16500000000E+03 0.  0.
<mgrwt>
<rscale>  0 0.54910004E+03</rscale>
<asrwt>0</asrwt>
<pdfrwt beam="1">  1        2 0.13870262E+00 0.54910004E+03</pdfrwt>
<pdfrwt beam="2">  1       -2 0.11090783E-01 0.54910004E+03</pdfrwt>
<totfact> 0.17026130E+03</totfact>
</mgrwt>
</event>
<event>
 4    1  0.5312547E-005  0.6126476E+03  0.7818608E-02  0.9879508E-01
          2   -1    0    0  501    0  0.00000000000E+00  0.00000000000E+00  0.26861842140E+03  0.26861842141E+03  0.25500000000E-02 0.  1.
         -2   -1    0    0    0  501 -0.00000000000E+00 -0.00000000000E+00 -0.34932181762E+03  0.34932181763E+03  0.25500000000E-02 0. -1.
    5000001    1    1    2    0    0 -0.49127302006E+02 -0.25318168560E+03 -0.50173246357E+02  0.31025282010E+03  0.16500000000E+03 0.  0.
   -5000001    1    1    2    0    0  0.49127302006E+02  0.25318168560E+03 -0.30530149869E+02  0.30768741895E+03  0.16500000000E+03 0.  0.
<mgrwt>
<rscale>  0 0.61264762E+03</rscale>
<asrwt>0</asrwt>
<pdfrwt beam="1">  1        2 0.38374060E-01 0.61264762E+03</pdfrwt>
<pdfrwt beam="2">  1       -2 0.49903117E-01 0.61264762E+03</pdfrwt>
<totfact> 0.51655738E+02</totfact>
</mgrwt>
</event>
<event>
 4    1  0.5312547E-005  0.1113411E+04  0.7818608E-02  0.9192218E-01
         -2   -1    0    0    0  501 -0.00000000000E+00  0.00000000000E+00  0.11704695166E+03  0.11704695169E+03  0.25500000000E-02 0. -1.
          2   -1    0    0  501    0  0.00000000000E+00 -0.00000000000E+00 -0.26478347985E+04  0.26478347985E+04  0.25500000000E-02 0.  1.
    5000001    1    1    2    0    0  0.88161972257E+02 -0.47485308257E+03 -0.71325094596E+03  0.87704611925E+03  0.16500000000E+03 0.  0.
   -5000001    1    1    2    0    0 -0.88161972257E+02  0.47485308257E+03 -0.18175369009E+04  0.18878356310E+04  0.16500000000E+03 0.  0.
<mgrwt>
<rscale>  0 0.11134110E+04</rscale>
<asrwt>0</asrwt>
<pdfrwt beam="1">  1        2 0.37826208E+00 0.11134110E+04</pdfrwt>
<pdfrwt beam="2">  1       -2 0.16720995E-01 0.11134110E+04</pdfrwt>
<totfact> 0.10736747E+02</totfact>
</mgrwt>
</event>
<event>
 4    1  0.5312547E-005  0.7727772E+03  0.7818608E-02  0.9600279E-01
         -2   -1    0    0    0  501 -0.00000000000E+00  0.00000000000E+00  0.32648514227E+03  0.32648514228E+03  0.25500000000E-02 0. -1.
          2   -1    0    0  501    0  0.00000000000E+00 -0.00000000000E+00 -0.45728312902E+03  0.45728312903E+03  0.25500000000E-02 0.  1.
    5000001    1    1    2    0    0  0.25123527004E+03 -0.52627865571E+02  0.17500026154E+03  0.35176546830E+03  0.16500000000E+03 0.  0.
   -5000001    1    1    2    0    0 -0.25123527004E+03  0.52627865571E+02 -0.30579824830E+03  0.43200280301E+03  0.16500000000E+03 0.  0.
<mgrwt>
<rscale>  0 0.77277719E+03</rscale>
<asrwt>0</asrwt>
<pdfrwt beam="1">  1        2 0.65326162E-01 0.77277719E+03</pdfrwt>
<pdfrwt beam="2">  1       -2 0.46640734E-01 0.77277719E+03</pdfrwt>
<totfact> 0.32616538E+02</totfact>
</mgrwt>
</event>
<event>
 4    1  0.5312547E-005  0.4431915E+03  0.7818608E-02  0.1029772E+00
          2   -1    0    0  501    0  0.00000000000E+00  0.00000000000E+00  0.34068012983E+03  0.34068012984E+03  0.25500000000E-02 0. -1.
         -2   -1    0    0    0  501 -0.00000000000E+00 -0.00000000000E+00 -0.14413717684E+03  0.14413717687E+03  0.25500000000E-02 0.  1.
    5000001    1    1    2    0    0 -0.76546108515E+02 -0.61342216878E+02 -0.22840648345E+02  0.19331029336E+03  0.16500000000E+03 0.  0.
   -5000001    1    1    2    0    0  0.76546108515E+02  0.61342216878E+02  0.21938360133E+03  0.29150701335E+03  0.16500000000E+03 0.  0.
<mgrwt>
<rscale>  0 0.44319148E+03</rscale>
<asrwt>0</asrwt>
<pdfrwt beam="1">  1        2 0.48668589E-01 0.44319148E+03</pdfrwt>
<pdfrwt beam="2">  1       -2 0.20591026E-01 0.44319148E+03</pdfrwt>
<totfact> 0.20792306E+03</totfact>
</mgrwt>
</event>
<event>
 4    1  0.5312547E-005  0.4261048E+03  0.7818608E-02  0.1035098E+00
          2   -1    0    0  501    0  0.00000000000E+00  0.00000000000E+00  0.16598236790E+04  0.16598236790E+04  0.25500000000E-02 0.  1.
         -2   -1    0    0    0  501 -0.00000000000E+00 -0.00000000000E+00 -0.27347074002E+02  0.27347074121E+02  0.25500000000E-02 0. -1.
    5000001    1    1    2    0    0 -0.10867451187E+03  0.41250104680E+01  0.50098594310E+03  0.53855276476E+03  0.16500000000E+03 0.  0.
   -5000001    1    1    2    0    0  0.10867451187E+03 -0.41250104680E+01  0.11314906619E+04  0.11486179884E+04  0.16500000000E+03 0.  0.
<mgrwt>
<rscale>  0 0.42610478E+03</rscale>
<asrwt>0</asrwt>
<pdfrwt beam="1">  1        2 0.23711770E+00 0.42610478E+03</pdfrwt>
<pdfrwt beam="2">  1       -2 0.39067244E-02 0.42610478E+03</pdfrwt>
<totfact> 0.36967185E+03</totfact>
</mgrwt>
</event>
<event>
 4    1  0.5312547E-005  0.4841030E+03  0.7818608E-02  0.1018014E+00
          2   -1    0    0  501    0  0.00000000000E+00  0.00000000000E+00  0.12256672624E+03  0.12256672627E+03  0.25500000000E-02 0.  1.
         -2   -1    0    0    0  501 -0.00000000000E+00 -0.00000000000E+00 -0.47801668949E+03  0.47801668950E+03  0.25500000000E-02 0. -1.
    5000001    1    1    2    0    0 -0.53276542382E+02  0.10896283375E+03 -0.33781977766E+03  0.39504239176E+03  0.16500000000E+03 0.  0.
   -5000001    1    1    2    0    0  0.53276542382E+02 -0.10896283375E+03 -0.17630185586E+02  0.20554102401E+03  0.16500000000E+03 0.  0.
<mgrwt>
<rscale>  0 0.48410305E+03</rscale>
<asrwt>0</asrwt>
<pdfrwt beam="1">  1        2 0.17509533E-01 0.48410305E+03</pdfrwt>
<pdfrwt beam="2">  1       -2 0.68288098E-01 0.48410305E+03</pdfrwt>
<totfact> 0.65697248E+02</totfact>
</mgrwt>
</event>
<event>
 4    1  0.5312547E-005  0.1015028E+04  0.7818608E-02  0.9292214E-01
          2   -1    0    0  501    0  0.00000000000E+00  0.00000000000E+00  0.18127505978E+04  0.18127505978E+04  0.25500000000E-02 0. -1.
         -2   -1    0    0    0  501 -0.00000000000E+00 -0.00000000000E+00 -0.14208829295E+03  0.14208829298E+03  0.25500000000E-02 0.  1.
    5000001    1    1    2    0    0  0.12013790758E+03 -0.33456458608E+03  0.21431093454E+03  0.44667746279E+03  0.16500000000E+03 0.  0.
   -5000001    1    1    2    0    0 -0.12013790758E+03  0.33456458608E+03  0.14563513703E+04  0.15081614279E+04  0.16500000000E+03 0.  0.
<mgrwt>
<rscale>  0 0.10150284E+04</rscale>
<asrwt>0</asrwt>
<pdfrwt beam="1">  1        2 0.25896436E+00 0.10150284E+04</pdfrwt>
<pdfrwt beam="2">  1       -2 0.20298329E-01 0.10150284E+04</pdfrwt>
<totfact> 0.20816205E+02</totfact>
</mgrwt>
</event>
<event>
 4    1  0.5312547E-005  0.5345835E+03  0.7818608E-02  0.1005127E+00
         -2   -1    0    0    0  501 -0.00000000000E+00  0.00000000000E+00  0.57788921332E+02  0.57788921388E+02  0.25500000000E-02 0. -1.
          2   -1    0    0  501    0  0.00000000000E+00 -0.00000000000E+00 -0.12363074740E+04  0.12363074740E+04  0.25500000000E-02 0.  1.
    5000001    1    1    2    0    0  0.77910187013E+02  0.60865982528E+02 -0.13998090605E+03  0.23789560552E+03  0.16500000000E+03 0.  0.
   -5000001    1    1    2    0    0 -0.77910187013E+02 -0.60865982528E+02 -0.10385376466E+04  0.10562007899E+04  0.16500000000E+03 0.  0.
<mgrwt>
<rscale>  0 0.53458348E+03</rscale>
<asrwt>0</asrwt>
<pdfrwt beam="1">  1        2 0.17661534E+00 0.53458348E+03</pdfrwt>
<pdfrwt beam="2">  1       -2 0.82555610E-02 0.53458348E+03</pdfrwt>
<totfact> 0.19222083E+03</totfact>
</mgrwt>
</event>
<event>
 4    1  0.5312547E-005  0.4284448E+03  0.7818608E-02  0.1034352E+00
         -2   -1    0    0    0  501 -0.00000000000E+00  0.00000000000E+00  0.32168203214E+03  0.32168203215E+03  0.25500000000E-02 0. -1.
          2   -1    0    0  501    0  0.00000000000E+00 -0.00000000000E+00 -0.14266022922E+03  0.14266022924E+03  0.25500000000E-02 0.  1.
    5000001    1    1    2    0    0 -0.10138097179E+03 -0.30919889067E+02  0.18294359707E+03  0.26819302879E+03  0.16500000000E+03 0.  0.
   -5000001    1    1    2    0    0  0.10138097179E+03  0.30919889067E+02 -0.39217941528E+01  0.19614923260E+03  0.16500000000E+03 0.  0.
<mgrwt>
<rscale>  0 0.42844478E+03</rscale>
<asrwt>0</asrwt>
<pdfrwt beam="1">  1        2 0.20380033E-01 0.42844478E+03</pdfrwt>
<pdfrwt beam="2">  1       -2 0.45954575E-01 0.42844478E+03</pdfrwt>
<totfact> 0.12451344E+03</totfact>
</mgrwt>
</event>
<event>
 4    1  0.5312547E-005  0.4250954E+03  0.7818608E-02  0.1035421E+00
         -2   -1    0    0    0  501 -0.00000000000E+00  0.00000000000E+00  0.96778575390E+02  0.96778575424E+02  0.25500000000E-02 0. -1.
          2   -1    0    0  501    0  0.00000000000E+00 -0.00000000000E+00 -0.46680287568E+03  0.46680287569E+03  0.25500000000E-02 0.  1.
    5000001    1    1    2    0    0  0.92587558091E+02  0.69914956844E+02 -0.27385856847E+03  0.34012361375E+03  0.16500000000E+03 0.  0.
   -5000001    1    1    2    0    0 -0.92587558091E+02 -0.69914956844E+02 -0.96165731824E+02  0.22345783737E+03  0.16500000000E+03 0.  0.
<mgrwt>
<rscale>  0 0.42509536E+03</rscale>
<asrwt>0</asrwt>
<pdfrwt beam="1">  1        2 0.66686124E-01 0.42509536E+03</pdfrwt>
<pdfrwt beam="2">  1       -2 0.13825511E-01 0.42509536E+03</pdfrwt>
<totfact> 0.28846925E+03</totfact>
</mgrwt>
</event>
<event>
 4    1  0.5312547E-005  0.4446845E+03  0.7818608E-02  0.1029319E+00
         -2   -1    0    0    0  501 -0.00000000000E+00  0.00000000000E+00  0.14492942696E+02  0.14492942920E+02  0.25500000000E-02 0. -1.
          2   -1    0    0  501    0  0.00000000000E+00 -0.00000000000E+00 -0.34110440694E+04  0.34110440694E+04  0.25500000000E-02 0.  1.
    5000001    1    1    2    0    0 -0.13244114508E+03 -0.64593006286E+02 -0.18702081498E+04  0.18832462497E+04  0.16500000000E+03 0.  0.
   -5000001    1    1    2    0    0  0.13244114508E+03  0.64593006286E+02 -0.15263429769E+04  0.15422907626E+04  0.16500000000E+03 0.  0.
<mgrwt>
<rscale>  0 0.44468446E+03</rscale>
<asrwt>0</asrwt>
<pdfrwt beam="1">  1        2 0.48729150E+00 0.44468446E+03</pdfrwt>
<pdfrwt beam="2">  1       -2 0.20704226E-02 0.44468446E+03</pdfrwt>
<totfact> 0.11834750E+03</totfact>
</mgrwt>
</event>
<event>
 4    1  0.5312547E-005  0.4698855E+03  0.7818608E-02  0.1021953E+00
          2   -1    0    0  501    0  0.00000000000E+00  0.00000000000E+00  0.11626534070E+03  0.11626534073E+03  0.25500000000E-02 0.  1.
         -2   -1    0    0    0  501 -0.00000000000E+00 -0.00000000000E+00 -0.47475976354E+03  0.47475976354E+03  0.25500000000E-02 0. -1.
    5000001    1    1    2    0    0  0.10140333948E+03  0.73764890848E+02 -0.40038032021E+02  0.21107330572E+03  0.16500000000E+03 0.  0.
   -5000001    1    1    2    0    0 -0.10140333948E+03 -0.73764890848E+02 -0.31845639081E+03  0.37995179856E+03  0.16500000000E+03 0.  0.
<mgrwt>
<rscale>  0 0.46988554E+03</rscale>
<asrwt>0</asrwt>
<pdfrwt beam="1">  1        2 0.16609335E-01 0.46988554E+03</pdfrwt>
<pdfrwt beam="2">  1       -2 0.67822822E-01 0.46988554E+03</pdfrwt>
<totfact> 0.70978791E+02</totfact>
</mgrwt>
</event>
<event>
 4    1  0.5312547E-005  0.3892653E+03  0.7818608E-02  0.1047561E+00
         -2   -1    0    0    0  501 -0.00000000000E+00  0.00000000000E+00  0.15511259617E+03  0.15511259619E+03  0.25500000000E-02 0. -1.
          2   -1    0    0  501    0  0.00000000000E+00 -0.00000000000E+00 -0.24422173569E+03  0.24422173571E+03  0.25500000000E-02 0.  1.
    5000001    1    1    2    0    0  0.23349467222E+02  0.89730941698E+02  0.20069899931E+01  0.18927722400E+03  0.16500000000E+03 0.  0.
   -5000001    1    1    2    0    0 -0.23349467222E+02 -0.89730941698E+02 -0.91116129517E+02  0.21005710789E+03  0.16500000000E+03 0.  0.
<mgrwt>
<rscale>  0 0.38926529E+03</rscale>
<asrwt>0</asrwt>
<pdfrwt beam="1">  1        2 0.34888819E-01 0.38926529E+03</pdfrwt>
<pdfrwt beam="2">  1       -2 0.22158942E-01 0.38926529E+03</pdfrwt>
<totfact> 0.26285111E+03</totfact>
</mgrwt>
</event>
<event>
 4    1  0.5312547E-005  0.3647232E+03  0.7818608E-02  0.1056729E+00
          2   -1    0    0  501    0  0.00000000000E+00  0.00000000000E+00  0.14718957037E+04  0.14718957037E+04  0.25500000000E-02 0.  1.
         -2   -1    0    0    0  501 -0.00000000000E+00 -0.00000000000E+00 -0.22593826697E+02  0.22593826841E+02  0.25500000000E-02 0. -1.
    5000001    1    1    2    0    0 -0.76971647396E+02  0.73065424584E+01  0.69489421765E+03  0.71838777397E+03  0.16500000000E+03 0.  0.
   -5000001    1    1    2    0    0  0.76971647396E+02 -0.73065424584E+01  0.75440765936E+03  0.77610175658E+03  0.16500000000E+03 0.  0.
<mgrwt>
<rscale>  0 0.36472322E+03</rscale>
<asrwt>0</asrwt>
<pdfrwt beam="1">  1        2 0.21027078E+00 0.36472322E+03</pdfrwt>
<pdfrwt beam="2">  1       -2 0.32276901E-02 0.36472322E+03</pdfrwt>
<totfact> 0.61453249E+03</totfact>
</mgrwt>
</event>
<event>
 4    1  0.5312547E-005  0.4600372E+03  0.7818608E-02  0.1024770E+00
         -2   -1    0    0    0  501 -0.00000000000E+00  0.00000000000E+00  0.19594417773E+03  0.19594417775E+03  0.25500000000E-02 0. -1.
          2   -1    0    0  501    0  0.00000000000E+00 -0.00000000000E+00 -0.27001846207E+03  0.27001846209E+03  0.25500000000E-02 0.  1.
    5000001    1    1    2    0    0 -0.10650464927E+03  0.11829855307E+03 -0.18203078740E+02  0.22998726063E+03  0.16500000000E+03 0.  0.
   -5000001    1    1    2    0    0  0.10650464927E+03 -0.11829855307E+03 -0.55871205605E+02  0.23597537921E+03  0.16500000000E+03 0.  0.
<mgrwt>
<rscale>  0 0.46003715E+03</rscale>
<asrwt>0</asrwt>
<pdfrwt beam="1">  1        2 0.38574066E-01 0.46003715E+03</pdfrwt>
<pdfrwt beam="2">  1       -2 0.27992025E-01 0.46003715E+03</pdfrwt>
<totfact> 0.15554922E+03</totfact>
</mgrwt>
</event>
<event>
 4    1  0.5312547E-005  0.3669271E+03  0.7818608E-02  0.1055874E+00
         -2   -1    0    0    0  501 -0.00000000000E+00  0.00000000000E+00  0.19173731747E+03  0.19173731749E+03  0.25500000000E-02 0. -1.
          2   -1    0    0  501    0  0.00000000000E+00 -0.00000000000E+00 -0.17554677709E+03  0.17554677710E+03  0.25500000000E-02 0.  1.
    5000001    1    1    2    0    0  0.77908049480E+02 -0.15934634716E+02  0.18607459059E+02  0.18410544340E+03  0.16500000000E+03 0.  0.
   -5000001    1    1    2    0    0 -0.77908049480E+02  0.15934634716E+02 -0.24169186725E+01  0.18317865119E+03  0.16500000000E+03 0.  0.
<mgrwt>
<rscale>  0 0.36692707E+03</rscale>
<asrwt>0</asrwt>
<pdfrwt beam="1">  1        2 0.25078111E-01 0.36692707E+03</pdfrwt>
<pdfrwt beam="2">  1       -2 0.27391045E-01 0.36692707E+03</pdfrwt>
<totfact> 0.26016981E+03</totfact>
</mgrwt>
</event>
<event>
 4    1  0.5312547E-005  0.5895925E+03  0.7818608E-02  0.9927237E-01
         -2   -1    0    0    0  501 -0.00000000000E+00  0.00000000000E+00  0.33916294441E+02  0.33916294537E+02  0.25500000000E-02 0. -1.
          2   -1    0    0  501    0  0.00000000000E+00 -0.00000000000E+00 -0.25623324182E+04  0.25623324182E+04  0.25500000000E-02 0.  1.
    5000001    1    1    2    0    0 -0.13067275121E+03  0.20019719764E+03 -0.10429133367E+04  0.10826114324E+04  0.16500000000E+03 0.  0.
   -5000001    1    1    2    0    0  0.13067275121E+03 -0.20019719764E+03 -0.14855027871E+04  0.15136372803E+04  0.16500000000E+03 0.  0.
<mgrwt>
<rscale>  0 0.58959247E+03</rscale>
<asrwt>0</asrwt>
<pdfrwt beam="1">  1        2 0.36604737E+00 0.58959247E+03</pdfrwt>
<pdfrwt beam="2">  1       -2 0.48451865E-02 0.58959247E+03</pdfrwt>
<totfact> 0.92690098E+02</totfact>
</mgrwt>
</event>
<event>
 4    1  0.5312547E-005  0.4478130E+03  0.7818608E-02  0.1028376E+00
          2   -1    0    0  501    0  0.00000000000E+00  0.00000000000E+00  0.64291754301E+03  0.64291754302E+03  0.25500000000E-02 0.  1.
         -2   -1    0    0    0  501 -0.00000000000E+00 -0.00000000000E+00 -0.77979075337E+02  0.77979075379E+02  0.25500000000E-02 0. -1.
    5000001    1    1    2    0    0 -0.12667940827E+02  0.15067753735E+03  0.29325843263E+03  0.36890338206E+03  0.16500000000E+03 0.  0.
   -5000001    1    1    2    0    0  0.12667940827E+02 -0.15067753735E+03  0.27168003505E+03  0.35199323634E+03  0.16500000000E+03 0.  0.
<mgrwt>
<rscale>  0 0.44781298E+03</rscale>
<asrwt>0</asrwt>
<pdfrwt beam="1">  1        2 0.91845360E-01 0.44781298E+03</pdfrwt>
<pdfrwt beam="2">  1       -2 0.11139868E-01 0.44781298E+03</pdfrwt>
<totfact> 0.28511792E+03</totfact>
</mgrwt>
</event>
<event>
 4    1  0.5312547E-005  0.4456309E+03  0.7818608E-02  0.1029033E+00
         -2   -1    0    0    0  501 -0.00000000000E+00  0.00000000000E+00  0.79504128890E+02  0.79504128931E+02  0.25500000000E-02 0. -1.
          2   -1    0    0  501    0  0.00000000000E+00 -0.00000000000E+00 -0.62445462458E+03  0.62445462459E+03  0.25500000000E-02 0.  1.
    5000001    1    1    2    0    0 -0.11064850248E+03 -0.73564376078E+02 -0.38154153289E+03  0.43641007075E+03  0.16500000000E+03 0.  0.
   -5000001    1    1    2    0    0  0.11064850248E+03  0.73564376078E+02 -0.16340896280E+03  0.26754868277E+03  0.16500000000E+03 0.  0.
<mgrwt>
<rscale>  0 0.44563088E+03</rscale>
<asrwt>0</asrwt>
<pdfrwt beam="1">  1        2 0.89207801E-01 0.44563088E+03</pdfrwt>
<pdfrwt beam="2">  1       -2 0.11357733E-01 0.44563088E+03</pdfrwt>
<totfact> 0.28592283E+03</totfact>
</mgrwt>
</event>
<event>
 4    1  0.5312547E-005  0.1020857E+04  0.7818608E-02  0.9285961E-01
          2   -1    0    0  501    0  0.00000000000E+00  0.00000000000E+00  0.13404457868E+04  0.13404457868E+04  0.25500000000E-02 0.  1.
         -2   -1    0    0    0  501 -0.00000000000E+00 -0.00000000000E+00 -0.19436598583E+03  0.19436598585E+03  0.25500000000E-02 0. -1.
    5000001    1    1    2    0    0  0.43014866824E+03 -0.77609757486E+01  0.90319787333E+03  0.10139425565E+04  0.16500000000E+03 0.  0.
   -5000001    1    1    2    0    0 -0.43014866824E+03  0.77609757486E+01  0.24288192762E+03  0.52086921611E+03  0.16500000000E+03 0.  0.
<mgrwt>
<rscale>  0 0.10208566E+04</rscale>
<asrwt>0</asrwt>
<pdfrwt beam="1">  1        2 0.19149225E+00 0.10208566E+04</pdfrwt>
<pdfrwt beam="2">  1       -2 0.27766570E-01 0.10208566E+04</pdfrwt>
<totfact> 0.20997858E+02</totfact>
</mgrwt>
</event>
<event>
 4    1  0.5312547E-005  0.5494566E+03  0.7818608E-02  0.1001620E+00
         -2   -1    0    0    0  501 -0.00000000000E+00  0.00000000000E+00  0.18619280530E+02  0.18619280705E+02  0.25500000000E-02 0. -1.
          2   -1    0    0  501    0  0.00000000000E+00 -0.00000000000E+00 -0.40536285095E+04  0.40536285095E+04  0.25500000000E-02 0.  1.
    5000001    1    1    2    0    0 -0.10630644850E+03  0.16843205844E+03 -0.13309893801E+04  0.13558864810E+04  0.16500000000E+03 0.  0.
   -5000001    1    1    2    0    0  0.10630644850E+03 -0.16843205844E+03 -0.27040198489E+04  0.27163613093E+04  0.16500000000E+03 0.  0.
<mgrwt>
<rscale>  0 0.54945663E+03</rscale>
<asrwt>0</asrwt>
<pdfrwt beam="1">  1        2 0.57908922E+00 0.54945663E+03</pdfrwt>
<pdfrwt beam="2">  1       -2 0.26598998E-02 0.54945663E+03</pdfrwt>
<totfact> 0.31867130E+02</totfact>
</mgrwt>
</event>
<event>
 4    1  0.5312547E-005  0.7068511E+03  0.7818608E-02  0.9705587E-01
          2   -1    0    0  501    0  0.00000000000E+00  0.00000000000E+00  0.21254594437E+04  0.21254594437E+04  0.25500000000E-02 0.  1.
         -2   -1    0    0    0  501 -0.00000000000E+00 -0.00000000000E+00 -0.58768294048E+02  0.58768294104E+02  0.25500000000E-02 0. -1.
    5000001    1    1    2    0    0 -0.20641900903E+03  0.24216256564E+02  0.31202894147E+03  0.40961237125E+03  0.16500000000E+03 0.  0.
   -5000001    1    1    2    0    0  0.20641900903E+03 -0.24216256564E+02  0.17546622082E+04  0.17746153666E+04  0.16500000000E+03 0.  0.
<mgrwt>
<rscale>  0 0.70685112E+03</rscale>
<asrwt>0</asrwt>
<pdfrwt beam="1">  1        2 0.30363702E+00 0.70685112E+03</pdfrwt>
<pdfrwt beam="2">  1       -2 0.83954718E-02 0.70685112E+03</pdfrwt>
<totfact> 0.64561202E+02</totfact>
</mgrwt>
</event>
<event>
 4    1  0.5312547E-005  0.6003169E+03  0.7818608E-02  0.9904749E-01
         -2   -1    0    0    0  501 -0.00000000000E+00  0.00000000000E+00  0.41480492101E+02  0.41480492179E+02  0.25500000000E-02 0. -1.
          2   -1    0    0  501    0  0.00000000000E+00 -0.00000000000E+00 -0.21719873011E+04  0.21719873011E+04  0.25500000000E-02 0.  1.
    5000001    1    1    2    0    0  0.30621923155E+02 -0.24795674723E+03 -0.11434570874E+04  0.11820064981E+04  0.16500000000E+03 0.  0.
   -5000001    1    1    2    0    0 -0.30621923155E+02  0.24795674723E+03 -0.98704972155E+03  0.10314612952E+04  0.16500000000E+03 0.  0.
<mgrwt>
<rscale>  0 0.60031692E+03</rscale>
<asrwt>0</asrwt>
<pdfrwt beam="1">  1        2 0.31028383E+00 0.60031692E+03</pdfrwt>
<pdfrwt beam="2">  1       -2 0.59257860E-02 0.60031692E+03</pdfrwt>
<totfact> 0.10693121E+03</totfact>
</mgrwt>
</event>
<event>
 4    1  0.5312547E-005  0.3688563E+03  0.7818608E-02  0.1055131E+00
         -2   -1    0    0    0  501 -0.00000000000E+00  0.00000000000E+00  0.75630366408E+03  0.75630366409E+03  0.25500000000E-02 0. -1.
          2   -1    0    0  501    0  0.00000000000E+00 -0.00000000000E+00 -0.44973661327E+02  0.44973661400E+02  0.25500000000E-02 0.  1.
    5000001    1    1    2    0    0  0.67312599606E+02 -0.42552524972E+02  0.40159532662E+03  0.44141308296E+03  0.16500000000E+03 0.  0.
   -5000001    1    1    2    0    0 -0.67312599606E+02  0.42552524972E+02  0.30973467614E+03  0.35986424252E+03  0.16500000000E+03 0.  0.
<mgrwt>
<rscale>  0 0.36885631E+03</rscale>
<asrwt>0</asrwt>
<pdfrwt beam="1">  1        2 0.64248087E-02 0.36885631E+03</pdfrwt>
<pdfrwt beam="2">  1       -2 0.10804338E+00 0.36885631E+03</pdfrwt>
<totfact> 0.81257562E+02</totfact>
</mgrwt>
</event>
<event>
 4    1  0.5312547E-005  0.4409287E+03  0.7818608E-02  0.1030462E+00
         -2   -1    0    0    0  501 -0.00000000000E+00  0.00000000000E+00  0.37585230522E+03  0.37585230522E+03  0.25500000000E-02 0. -1.
          2   -1    0    0  501    0  0.00000000000E+00 -0.00000000000E+00 -0.12931815273E+03  0.12931815275E+03  0.25500000000E-02 0.  1.
    5000001    1    1    2    0    0  0.64821386879E+02 -0.15116967236E+02 -0.25890075060E+02  0.17979330044E+03  0.16500000000E+03 0.  0.
   -5000001    1    1    2    0    0 -0.64821386879E+02  0.15116967236E+02  0.27242422755E+03  0.32537715754E+03  0.16500000000E+03 0.  0.
<mgrwt>
<rscale>  0 0.44092868E+03</rscale>
<asrwt>0</asrwt>
<pdfrwt beam="1">  1        2 0.18474022E-01 0.44092868E+03</pdfrwt>
<pdfrwt beam="2">  1       -2 0.53693186E-01 0.44092868E+03</pdfrwt>
<totfact> 0.10209938E+03</totfact>
</mgrwt>
</event>
<event>
 4    1  0.5312547E-005  0.7158527E+03  0.7818608E-02  0.9690500E-01
          2   -1    0    0  501    0  0.00000000000E+00  0.00000000000E+00  0.33016021738E+03  0.33016021739E+03  0.25500000000E-02 0.  1.
         -2   -1    0    0    0  501 -0.00000000000E+00 -0.00000000000E+00 -0.38802761027E+03  0.38802761028E+03  0.25500000000E-02 0. -1.
    5000001    1    1    2    0    0 -0.40560681743E+02  0.27752363855E+03  0.12062215260E+03  0.34704357443E+03  0.16500000000E+03 0.  0.
   -5000001    1    1    2    0    0  0.40560681743E+02 -0.27752363855E+03 -0.17848954549E+03  0.37114425323E+03  0.16500000000E+03 0.  0.
<mgrwt>
<rscale>  0 0.71585272E+03</rscale>
<asrwt>0</asrwt>
<pdfrwt beam="1">  1        2 0.47165745E-01 0.71585272E+03</pdfrwt>
<pdfrwt beam="2">  1       -2 0.55432516E-01 0.71585272E+03</pdfrwt>
<totfact> 0.33059975E+02</totfact>
</mgrwt>
</event>
<event>
 4    1  0.5312547E-005  0.4069952E+03  0.7818608E-02  0.1041384E+00
          2   -1    0    0  501    0  0.00000000000E+00  0.00000000000E+00  0.18036531203E+04  0.18036531203E+04  0.25500000000E-02 0.  1.
         -2   -1    0    0    0  501 -0.00000000000E+00 -0.00000000000E+00 -0.22959661523E+02  0.22959661665E+02  0.25500000000E-02 0. -1.
    5000001    1    1    2    0    0  0.11496845417E+03  0.29240663754E+02  0.93816145814E+03  0.95991910253E+03  0.16500000000E+03 0.  0.
   -5000001    1    1    2    0    0 -0.11496845417E+03 -0.29240663754E+02  0.84253200064E+03  0.86669367944E+03  0.16500000000E+03 0.  0.
<mgrwt>
<rscale>  0 0.40699516E+03</rscale>
<asrwt>0</asrwt>
<pdfrwt beam="1">  1        2 0.25766476E+00 0.40699516E+03</pdfrwt>
<pdfrwt beam="2">  1       -2 0.32799512E-02 0.40699516E+03</pdfrwt>
<totfact> 0.40833331E+03</totfact>
</mgrwt>
</event>
<event>
 4    1  0.5312547E-005  0.5749756E+03  0.7818608E-02  0.9958728E-01
          2   -1    0    0  501    0  0.00000000000E+00  0.00000000000E+00  0.18465599671E+04  0.18465599671E+04  0.25500000000E-02 0.  1.
         -2   -1    0    0    0  501 -0.00000000000E+00 -0.00000000000E+00 -0.44758487444E+02  0.44758487517E+02  0.25500000000E-02 0. -1.
    5000001    1    1    2    0    0  0.63594936581E+02 -0.16525205633E+03  0.14112510628E+04  0.14318544341E+04  0.16500000000E+03 0.  0.
   -5000001    1    1    2    0    0 -0.63594936581E+02  0.16525205633E+03  0.39055041684E+03  0.45946402054E+03  0.16500000000E+03 0.  0.
<mgrwt>
<rscale>  0 0.57497559E+03</rscale>
<asrwt>0</asrwt>
<pdfrwt beam="1">  1        2 0.26379418E+00 0.57497559E+03</pdfrwt>
<pdfrwt beam="2">  1       -2 0.63940722E-02 0.57497559E+03</pdfrwt>
<totfact> 0.13847334E+03</totfact>
</mgrwt>
</event>
<event>
 4    1  0.5312547E-005  0.4260090E+03  0.7818608E-02  0.1035128E+00
          2   -1    0    0  501    0  0.00000000000E+00  0.00000000000E+00  0.12449167718E+04  0.12449167718E+04  0.25500000000E-02 0.  1.
         -2   -1    0    0    0  501 -0.00000000000E+00 -0.00000000000E+00 -0.36444938662E+02  0.36444938752E+02  0.25500000000E-02 0. -1.
    5000001    1    1    2    0    0  0.97257497808E+02 -0.65963072680E+02  0.40618084220E+03  0.45389208454E+03  0.16500000000E+03 0.  0.
   -5000001    1    1    2    0    0 -0.97257497808E+02  0.65963072680E+02  0.80229099094E+03  0.82746962601E+03  0.16500000000E+03 0.  0.
<mgrwt>
<rscale>  0 0.42600899E+03</rscale>
<asrwt>0</asrwt>
<pdfrwt beam="1">  1        2 0.17784525E+00 0.42600899E+03</pdfrwt>
<pdfrwt beam="2">  1       -2 0.52064198E-02 0.42600899E+03</pdfrwt>
<totfact> 0.39159766E+03</totfact>
</mgrwt>
</event>
<event>
 4    1  0.5312547E-005  0.6516151E+03  0.7818608E-02  0.9803753E-01
          2   -1    0    0  501    0  0.00000000000E+00  0.00000000000E+00  0.44990336108E+03  0.44990336109E+03  0.25500000000E-02 0.  1.
         -2   -1    0    0    0  501 -0.00000000000E+00 -0.00000000000E+00 -0.23594076537E+03  0.23594076539E+03  0.25500000000E-02 0. -1.
    5000001    1    1    2    0    0  0.60431482087E+01  0.17754724669E+03  0.33605100870E+03  0.41438487532E+03  0.16500000000E+03 0.  0.
   -5000001    1    1    2    0    0 -0.60431482087E+01 -0.17754724669E+03 -0.12208841299E+03  0.27145925115E+03  0.16500000000E+03 0.  0.
<mgrwt>
<rscale>  0 0.65161505E+03</rscale>
<asrwt>0</asrwt>
<pdfrwt beam="1">  1        2 0.64271908E-01 0.65161505E+03</pdfrwt>
<pdfrwt beam="2">  1       -2 0.33705824E-01 0.65161505E+03</pdfrwt>
<totfact> 0.62672645E+02</totfact>
</mgrwt>
</event>
<event>
 4    1  0.5312547E-005  0.4353075E+03  0.7818608E-02  0.1032196E+00
         -2   -1    0    0    0  501 -0.00000000000E+00  0.00000000000E+00  0.53947866254E+02  0.53947866314E+02  0.25500000000E-02 0. -1.
          2   -1    0    0  501    0  0.00000000000E+00 -0.00000000000E+00 -0.87812835716E+03  0.87812835717E+03  0.25500000000E-02 0.  1.
    5000001    1    1    2    0    0 -0.93324330623E+02 -0.58283557912E+02 -0.60410319108E+03  0.63582392946E+03  0.16500000000E+03 0.  0.
   -5000001    1    1    2    0    0  0.93324330623E+02  0.58283557912E+02 -0.22007729983E+03  0.29625229402E+03  0.16500000000E+03 0.  0.
<mgrwt>
<rscale>  0 0.43530748E+03</rscale>
<asrwt>0</asrwt>
<pdfrwt beam="1">  1        2 0.12544690E+00 0.43530748E+03</pdfrwt>
<pdfrwt beam="2">  1       -2 0.77068386E-02 0.43530748E+03</pdfrwt>
<totfact> 0.34919018E+03</totfact>
</mgrwt>
</event>
<event>
 4    1  0.5312547E-005  0.3607270E+03  0.7818608E-02  0.1058296E+00
          2   -1    0    0  501    0  0.00000000000E+00  0.00000000000E+00  0.64013287918E+03  0.64013287918E+03  0.25500000000E-02 0.  1.
         -2   -1    0    0    0  501 -0.00000000000E+00 -0.00000000000E+00 -0.50819115112E+02  0.50819115176E+02  0.25500000000E-02 0. -1.
    5000001    1    1    2    0    0 -0.71956659571E+02  0.89988214839E+01  0.30782293825E+03  0.35670534192E+03  0.16500000000E+03 0.  0.
   -5000001    1    1    2    0    0  0.71956659571E+02 -0.89988214839E+01  0.28149082582E+03  0.33424665243E+03  0.16500000000E+03 0.  0.
<mgrwt>
<rscale>  0 0.36072697E+03</rscale>
<asrwt>0</asrwt>
<pdfrwt beam="1">  1        2 0.91447554E-01 0.36072697E+03</pdfrwt>
<pdfrwt beam="2">  1       -2 0.72598736E-02 0.36072697E+03</pdfrwt>
<totfact> 0.56468311E+03</totfact>
</mgrwt>
</event>
<event>
 4    1  0.5312547E-005  0.5986165E+03  0.7818608E-02  0.9908280E-01
          2   -1    0    0  501    0  0.00000000000E+00  0.00000000000E+00  0.15369124172E+03  0.15369124174E+03  0.25500000000E-02 0.  1.
         -2   -1    0    0    0  501 -0.00000000000E+00 -0.00000000000E+00 -0.58289227032E+03  0.58289227033E+03  0.25500000000E-02 0. -1.
    5000001    1    1    2    0    0 -0.15327151043E+03  0.39961060622E+02 -0.45215383794E+03  0.50671208337E+03  0.16500000000E+03 0.  0.
   -5000001    1    1    2    0    0  0.15327151043E+03 -0.39961060622E+02  0.22952809331E+02  0.22987142870E+03  0.16500000000E+03 0.  0.
<mgrwt>
<rscale>  0 0.59861653E+03</rscale>
<asrwt>0</asrwt>
<pdfrwt beam="1">  1        2 0.21955892E-01 0.59861653E+03</pdfrwt>
<pdfrwt beam="2">  1       -2 0.83270323E-01 0.59861653E+03</pdfrwt>
<totfact> 0.32497650E+02</totfact>
</mgrwt>
</event>
<event>
 4    1  0.5312547E-005  0.4613893E+03  0.7818608E-02  0.1024379E+00
         -2   -1    0    0    0  501 -0.00000000000E+00  0.00000000000E+00  0.13239064033E+04  0.13239064033E+04  0.25500000000E-02 0. -1.
          2   -1    0    0  501    0  0.00000000000E+00 -0.00000000000E+00 -0.40199229109E+02  0.40199229190E+02  0.25500000000E-02 0.  1.
    5000001    1    1    2    0    0  0.11657026807E+02 -0.72973965029E+02  0.21819447464E+03  0.28336357319E+03  0.16500000000E+03 0.  0.
   -5000001    1    1    2    0    0 -0.11657026807E+02  0.72973965029E+02  0.10655126996E+04  0.10807420593E+04  0.16500000000E+03 0.  0.
<mgrwt>
<rscale>  0 0.46138928E+03</rscale>
<asrwt>0</asrwt>
<pdfrwt beam="1">  1        2 0.57427477E-02 0.46138928E+03</pdfrwt>
<pdfrwt beam="2">  1       -2 0.18912946E+00 0.46138928E+03</pdfrwt>
<totfact> 0.22114070E+02</totfact>
</mgrwt>
</event>
<event>
 4    1  0.5312547E-005  0.3509931E+03  0.7818608E-02  0.1062208E+00
         -2   -1    0    0    0  501 -0.00000000000E+00  0.00000000000E+00  0.37027667923E+02  0.37027668011E+02  0.25500000000E-02 0. -1.
          2   -1    0    0  501    0  0.00000000000E+00 -0.00000000000E+00 -0.83178430066E+03  0.83178430066E+03  0.25500000000E-02 0.  1.
    5000001    1    1    2    0    0  0.57886265276E+02 -0.43400793300E+01 -0.43276526992E+03  0.46677664342E+03  0.16500000000E+03 0.  0.
   -5000001    1    1    2    0    0 -0.57886265276E+02  0.43400793300E+01 -0.36199136281E+03  0.40203532525E+03  0.16500000000E+03 0.  0.
<mgrwt>
<rscale>  0 0.35099306E+03</rscale>
<asrwt>0</asrwt>
<pdfrwt beam="1">  1        2 0.11882632E+00 0.35099306E+03</pdfrwt>
<pdfrwt beam="2">  1       -2 0.52896674E-02 0.35099306E+03</pdfrwt>
<totfact> 0.67000197E+03</totfact>
</mgrwt>
</event>
<event>
 4    1  0.5312547E-005  0.7255316E+03  0.7818608E-02  0.9674539E-01
          2   -1    0    0  501    0  0.00000000000E+00  0.00000000000E+00  0.16827999221E+04  0.16827999221E+04  0.25500000000E-02 0.  1.
         -2   -1    0    0    0  501 -0.00000000000E+00 -0.00000000000E+00 -0.78202417460E+02  0.78202417502E+02  0.25500000000E-02 0. -1.
    5000001    1    1    2    0    0  0.11538222364E+03 -0.13181195074E+03  0.14343170200E+03  0.28015192491E+03  0.16500000000E+03 0.  0.
   -5000001    1    1    2    0    0 -0.11538222364E+03  0.13181195074E+03  0.14611658026E+04  0.14808504147E+04  0.16500000000E+03 0.  0.
<mgrwt>
<rscale>  0 0.72553159E+03</rscale>
<asrwt>0</asrwt>
<pdfrwt beam="1">  1        2 0.24039999E+00 0.72553159E+03</pdfrwt>
<pdfrwt beam="2">  1       -2 0.11171774E-01 0.72553159E+03</pdfrwt>
<totfact> 0.68009803E+02</totfact>
</mgrwt>
</event>
<event>
 4    1  0.5312547E-005  0.6590723E+03  0.7818608E-02  0.9789903E-01
         -2   -1    0    0    0  501 -0.00000000000E+00  0.00000000000E+00  0.72470448304E+03  0.72470448305E+03  0.25500000000E-02 0. -1.
          2   -1    0    0  501    0  0.00000000000E+00 -0.00000000000E+00 -0.14984601917E+03  0.14984601919E+03  0.25500000000E-02 0.  1.
    5000001    1    1    2    0    0 -0.17189138363E+03  0.21265358826E+03  0.39523771094E+03  0.50813978836E+03  0.16500000000E+03 0.  0.
   -5000001    1    1    2    0    0  0.17189138363E+03 -0.21265358826E+03  0.17962075293E+03  0.36641071388E+03  0.16500000000E+03 0.  0.
<mgrwt>
<rscale>  0 0.65907232E+03</rscale>
<asrwt>0</asrwt>
<pdfrwt beam="1">  1        2 0.21406574E-01 0.65907232E+03</pdfrwt>
<pdfrwt beam="2">  1       -2 0.10352921E+00 0.65907232E+03</pdfrwt>
<totfact> 0.20171812E+02</totfact>
</mgrwt>
</event>
<event>
 4    1  0.5312547E-005  0.4726406E+03  0.7818608E-02  0.1021178E+00
          2   -1    0    0  501    0  0.00000000000E+00  0.00000000000E+00  0.23939956170E+03  0.23939956172E+03  0.25500000000E-02 0.  1.
         -2   -1    0    0    0  501 -0.00000000000E+00 -0.00000000000E+00 -0.23328059984E+03  0.23328059985E+03  0.25500000000E-02 0. -1.
    5000001    1    1    2    0    0  0.13975790474E+03  0.58730658615E+02 -0.72051480900E+02  0.23536775076E+03  0.16500000000E+03 0.  0.
   -5000001    1    1    2    0    0 -0.13975790474E+03 -0.58730658615E+02  0.78170442768E+02  0.23731241080E+03  0.16500000000E+03 0.  0.
<mgrwt>
<rscale>  0 0.47264055E+03</rscale>
<asrwt>0</asrwt>
<pdfrwt beam="1">  1        2 0.34199937E-01 0.47264055E+03</pdfrwt>
<pdfrwt beam="2">  1       -2 0.33325800E-01 0.47264055E+03</pdfrwt>
<totfact> 0.12881342E+03</totfact>
</mgrwt>
</event>
<event>
 4    1  0.5312547E-005  0.4414649E+03  0.7818608E-02  0.1030298E+00
         -2   -1    0    0    0  501 -0.00000000000E+00  0.00000000000E+00  0.18117592696E+03  0.18117592698E+03  0.25500000000E-02 0. -1.
          2   -1    0    0  501    0  0.00000000000E+00 -0.00000000000E+00 -0.26892546149E+03  0.26892546150E+03  0.25500000000E-02 0.  1.
    5000001    1    1    2    0    0  0.36249265631E+02 -0.14027930381E+03 -0.66798562268E+02  0.22951980363E+03  0.16500000000E+03 0.  0.
   -5000001    1    1    2    0    0 -0.36249265631E+02  0.14027930381E+03 -0.20950972260E+02  0.22058158485E+03  0.16500000000E+03 0.  0.
<mgrwt>
<rscale>  0 0.44146492E+03</rscale>
<asrwt>0</asrwt>
<pdfrwt beam="1">  1        2 0.38417923E-01 0.44146492E+03</pdfrwt>
<pdfrwt beam="2">  1       -2 0.25882275E-01 0.44146492E+03</pdfrwt>
<totfact> 0.17991591E+03</totfact>
</mgrwt>
</event>
<event>
 4    1  0.5312547E-005  0.6004502E+03  0.7818608E-02  0.9904472E-01
          2   -1    0    0  501    0  0.00000000000E+00  0.00000000000E+00  0.20316637118E+04  0.20316637118E+04  0.25500000000E-02 0. -1.
         -2   -1    0    0    0  501 -0.00000000000E+00 -0.00000000000E+00 -0.44365171040E+02  0.44365171113E+02  0.25500000000E-02 0.  1.
    5000001    1    1    2    0    0  0.67176314903E+02 -0.22201018927E+03  0.13236310860E+04  0.13538926963E+04  0.16500000000E+03 0.  0.
   -5000001    1    1    2    0    0 -0.67176314903E+02  0.22201018927E+03  0.66366745473E+03  0.72213618653E+03  0.16500000000E+03 0.  0.
<mgrwt>
<rscale>  0 0.60045019E+03</rscale>
<asrwt>0</asrwt>
<pdfrwt beam="1">  1        2 0.29023756E+00 0.60045019E+03</pdfrwt>
<pdfrwt beam="2">  1       -2 0.63378840E-02 0.60045019E+03</pdfrwt>
<totfact> 0.11319953E+03</totfact>
</mgrwt>
</event>
<event>
 4    1  0.5312547E-005  0.5459913E+03  0.7818608E-02  0.1002426E+00
         -2   -1    0    0    0  501 -0.00000000000E+00  0.00000000000E+00  0.35994193953E+03  0.35994193953E+03  0.25500000000E-02 0. -1.
          2   -1    0    0  501    0  0.00000000000E+00 -0.00000000000E+00 -0.20705181770E+03  0.20705181771E+03  0.25500000000E-02 0.  1.
    5000001    1    1    2    0    0 -0.17696127765E+03  0.20561986309E+02 -0.53107731231E+02  0.24856290992E+03  0.16500000000E+03 0.  0.
   -5000001    1    1    2    0    0  0.17696127765E+03 -0.20561986309E+02  0.20599785306E+03  0.31843084733E+03  0.16500000000E+03 0.  0.
<mgrwt>
<rscale>  0 0.54599133E+03</rscale>
<asrwt>0</asrwt>
<pdfrwt beam="1">  1        2 0.29578831E-01 0.54599133E+03</pdfrwt>
<pdfrwt beam="2">  1       -2 0.51420277E-01 0.54599133E+03</pdfrwt>
<totfact> 0.65028281E+02</totfact>
</mgrwt>
</event>
<event>
 4    1  0.5312547E-005  0.4001118E+03  0.7818608E-02  0.1043741E+00
          2   -1    0    0  501    0  0.00000000000E+00  0.00000000000E+00  0.14672054968E+04  0.14672054968E+04  0.25500000000E-02 0.  1.
         -2   -1    0    0    0  501 -0.00000000000E+00 -0.00000000000E+00 -0.27277956070E+02  0.27277956189E+02  0.25500000000E-02 0. -1.
    5000001    1    1    2    0    0 -0.13504626981E+02  0.85402350710E+02  0.99243706024E+03  0.10097684165E+04  0.16500000000E+03 0.  0.
   -5000001    1    1    2    0    0  0.13504626981E+02 -0.85402350710E+02  0.44749048051E+03  0.48471503649E+03  0.16500000000E+03 0.  0.
<mgrwt>
<rscale>  0 0.40011182E+03</rscale>
<asrwt>0</asrwt>
<pdfrwt beam="1">  1        2 0.20960075E+00 0.40011182E+03</pdfrwt>
<pdfrwt beam="2">  1       -2 0.38968515E-02 0.40011182E+03</pdfrwt>
<totfact> 0.46513158E+03</totfact>
</mgrwt>
</event>
<event>
 4    1  0.5312547E-005  0.4315164E+03  0.7818608E-02  0.1033382E+00
          2   -1    0    0  501    0  0.00000000000E+00  0.00000000000E+00  0.17934803786E+04  0.17934803786E+04  0.25500000000E-02 0.  1.
         -2   -1    0    0    0  501 -0.00000000000E+00 -0.00000000000E+00 -0.25956016624E+02  0.25956016749E+02  0.25500000000E-02 0. -1.
    5000001    1    1    2    0    0 -0.51473814321E+02  0.42732177087E+01  0.33955871072E+03  0.38104190318E+03  0.16500000000E+03 0.  0.
   -5000001    1    1    2    0    0  0.51473814321E+02 -0.42732177087E+01  0.14279656513E+04  0.14383944922E+04  0.16500000000E+03 0.  0.
<mgrwt>
<rscale>  0 0.43151643E+03</rscale>
<asrwt>0</asrwt>
<pdfrwt beam="1">  1        2 0.25621147E+00 0.43151643E+03</pdfrwt>
<pdfrwt beam="2">  1       -2 0.37080026E-02 0.43151643E+03</pdfrwt>
<totfact> 0.34297526E+03</totfact>
</mgrwt>
</event>
<event>
 4    1  0.5312547E-005  0.4198921E+03  0.7818608E-02  0.1037101E+00
         -2   -1    0    0    0  501 -0.00000000000E+00  0.00000000000E+00  0.52059040332E+02  0.52059040394E+02  0.25500000000E-02 0. -1.
          2   -1    0    0  501    0  0.00000000000E+00 -0.00000000000E+00 -0.84667976962E+03  0.84667976962E+03  0.25500000000E-02 0.  1.
    5000001    1    1    2    0    0  0.21073730818E+02 -0.79755475019E+02 -0.61185639321E+03  0.63906046963E+03  0.16500000000E+03 0.  0.
   -5000001    1    1    2    0    0 -0.21073730818E+02  0.79755475019E+02 -0.18276433607E+03  0.25967834039E+03  0.16500000000E+03 0.  0.
<mgrwt>
<rscale>  0 0.41989206E+03</rscale>
<asrwt>0</asrwt>
<pdfrwt beam="1">  1        2 0.12095424E+00 0.41989206E+03</pdfrwt>
<pdfrwt beam="2">  1       -2 0.74370063E-02 0.41989206E+03</pdfrwt>
<totfact> 0.38711081E+03</totfact>
</mgrwt>
</event>
<event>
 4    1  0.5312547E-005  0.3846099E+03  0.7818608E-02  0.1049243E+00
         -2   -1    0    0    0  501 -0.00000000000E+00  0.00000000000E+00  0.26817150730E+03  0.26817150731E+03  0.25500000000E-02 0. -1.
          2   -1    0    0  501    0  0.00000000000E+00 -0.00000000000E+00 -0.13790128953E+03  0.13790128955E+03  0.25500000000E-02 0.  1.
    5000001    1    1    2    0    0  0.23942451271E+02 -0.72306879143E+02  0.13153060140E+03  0.22433640999E+03  0.16500000000E+03 0.  0.
   -5000001    1    1    2    0    0 -0.23942451271E+02  0.72306879143E+02 -0.12603836251E+01  0.18173638687E+03  0.16500000000E+03 0.  0.
<mgrwt>
<rscale>  0 0.38460991E+03</rscale>
<asrwt>0</asrwt>
<pdfrwt beam="1">  1        2 0.19700184E-01 0.38460991E+03</pdfrwt>
<pdfrwt beam="2">  1       -2 0.38310216E-01 0.38460991E+03</pdfrwt>
<totfact> 0.18421980E+03</totfact>
</mgrwt>
</event>
<event>
 4    1  0.5312547E-005  0.4300999E+03  0.7818608E-02  0.1033828E+00
         -2   -1    0    0    0  501 -0.00000000000E+00  0.00000000000E+00  0.14155193022E+02  0.14155193252E+02  0.25500000000E-02 0.  1.
          2   -1    0    0  501    0  0.00000000000E+00 -0.00000000000E+00 -0.32671028236E+04  0.32671028236E+04  0.25500000000E-02 0. -1.
    5000001    1    1    2    0    0 -0.49200076719E+01 -0.12266682647E+03 -0.11469878089E+04  0.11652799623E+04  0.16500000000E+03 0.  0.
   -5000001    1    1    2    0    0  0.49200076719E+01  0.12266682647E+03 -0.21059598217E+04  0.21159780546E+04  0.16500000000E+03 0.  0.
<mgrwt>
<rscale>  0 0.43009986E+03</rscale>
<asrwt>0</asrwt>
<pdfrwt beam="1">  1        2 0.46672849E+00 0.43009986E+03</pdfrwt>
<pdfrwt beam="2">  1       -2 0.20221725E-02 0.43009986E+03</pdfrwt>
<totfact> 0.14831443E+03</totfact>
</mgrwt>
</event>
<event>
 4    1  0.5312547E-005  0.5137267E+03  0.7818608E-02  0.1010257E+00
         -2   -1    0    0    0  501 -0.00000000000E+00  0.00000000000E+00  0.86893102060E+02  0.86893102098E+02  0.25500000000E-02 0. -1.
          2   -1    0    0  501    0  0.00000000000E+00 -0.00000000000E+00 -0.75930964590E+03  0.75930964590E+03  0.25500000000E-02 0.  1.
    5000001    1    1    2    0    0 -0.13200861011E+03  0.61014863634E+02 -0.11765543843E+03  0.24943313517E+03  0.16500000000E+03 0.  0.
   -5000001    1    1    2    0    0  0.13200861011E+03 -0.61014863634E+02 -0.55476110540E+03  0.59676961283E+03  0.16500000000E+03 0.  0.
<mgrwt>
<rscale>  0 0.51372666E+03</rscale>
<asrwt>0</asrwt>
<pdfrwt beam="1">  1        2 0.10847280E+00 0.51372666E+03</pdfrwt>
<pdfrwt beam="2">  1       -2 0.12413301E-01 0.51372666E+03</pdfrwt>
<totfact> 0.19532974E+03</totfact>
</mgrwt>
</event>
<event>
 4    1  0.5312547E-005  0.4760814E+03  0.7818608E-02  0.1020218E+00
          2   -1    0    0  501    0  0.00000000000E+00  0.00000000000E+00  0.11577127836E+04  0.11577127836E+04  0.25500000000E-02 0.  1.
         -2   -1    0    0    0  501 -0.00000000000E+00 -0.00000000000E+00 -0.48944236517E+02  0.48944236583E+02  0.25500000000E-02 0. -1.
    5000001    1    1    2    0    0 -0.14118846094E+03 -0.43353088803E+02  0.77570084622E+03  0.80669106517E+03  0.16500000000E+03 0.  0.
   -5000001    1    1    2    0    0  0.14118846094E+03  0.43353088803E+02  0.33306770089E+03  0.39996595503E+03  0.16500000000E+03 0.  0.
<mgrwt>
<rscale>  0 0.47608137E+03</rscale>
<asrwt>0</asrwt>
<pdfrwt beam="1">  1        2 0.16538754E+00 0.47608137E+03</pdfrwt>
<pdfrwt beam="2">  1       -2 0.69920338E-02 0.47608137E+03</pdfrwt>
<totfact> 0.27669730E+03</totfact>
</mgrwt>
</event>
<event>
 4    1  0.5312547E-005  0.5335907E+03  0.7818608E-02  0.1005365E+00
          2   -1    0    0  501    0  0.00000000000E+00  0.00000000000E+00  0.16929124455E+04  0.16929124455E+04  0.25500000000E-02 0.  1.
         -2   -1    0    0    0  501 -0.00000000000E+00 -0.00000000000E+00 -0.42045737232E+02  0.42045737309E+02  0.25500000000E-02 0. -1.
    5000001    1    1    2    0    0  0.86450284131E+02 -0.13408864669E+03  0.12676980937E+04  0.12883077557E+04  0.16500000000E+03 0.  0.
   -5000001    1    1    2    0    0 -0.86450284131E+02  0.13408864669E+03  0.38316861464E+03  0.44665042712E+03  0.16500000000E+03 0.  0.
<mgrwt>
<rscale>  0 0.53359067E+03</rscale>
<asrwt>0</asrwt>
<pdfrwt beam="1">  1        2 0.24184461E+00 0.53359067E+03</pdfrwt>
<pdfrwt beam="2">  1       -2 0.60065345E-02 0.53359067E+03</pdfrwt>
<totfact> 0.18287601E+03</totfact>
</mgrwt>
</event>
<event>
 4    1  0.5312547E-005  0.5450822E+03  0.7818608E-02  0.1002639E+00
          2   -1    0    0  501    0  0.00000000000E+00  0.00000000000E+00  0.66524423356E+03  0.66524423357E+03  0.25500000000E-02 0.  1.
         -2   -1    0    0    0  501 -0.00000000000E+00 -0.00000000000E+00 -0.11165620211E+03  0.11165620214E+03  0.25500000000E-02 0. -1.
    5000001    1    1    2    0    0 -0.16902506348E+03  0.12742641232E+03  0.20923642017E+03  0.34031139001E+03  0.16500000000E+03 0.  0.
   -5000001    1    1    2    0    0  0.16902506348E+03 -0.12742641232E+03  0.34435161128E+03  0.43658904570E+03  0.16500000000E+03 0.  0.
<mgrwt>
<rscale>  0 0.54508218E+03</rscale>
<asrwt>0</asrwt>
<pdfrwt beam="1">  1        2 0.95034893E-01 0.54508218E+03</pdfrwt>
<pdfrwt beam="2">  1       -2 0.15950886E-01 0.54508218E+03</pdfrwt>
<totfact> 0.15115766E+03</totfact>
</mgrwt>
</event>
<event>
 4    1  0.5312547E-005  0.8813493E+03  0.7818608E-02  0.9449201E-01
          2   -1    0    0  501    0  0.00000000000E+00  0.00000000000E+00  0.36303983461E+04  0.36303983461E+04  0.25500000000E-02 0.  1.
         -2   -1    0    0    0  501 -0.00000000000E+00 -0.00000000000E+00 -0.53491145124E+02  0.53491145185E+02  0.25500000000E-02 0. -1.
    5000001    1    1    2    0    0  0.37482833921E+03  0.15464740533E+03  0.19998166463E+04  0.20471696858E+04  0.16500000000E+03 0.  0.
   -5000001    1    1    2    0    0 -0.37482833921E+03 -0.15464740533E+03  0.15770905547E+04  0.16367198054E+04  0.16500000000E+03 0.  0.
<mgrwt>
<rscale>  0 0.88134934E+03</rscale>
<asrwt>0</asrwt>
<pdfrwt beam="1">  1        2 0.51862851E+00 0.88134934E+03</pdfrwt>
<pdfrwt beam="2">  1       -2 0.76415896E-02 0.88134934E+03</pdfrwt>
<totfact> 0.11124486E+02</totfact>
</mgrwt>
</event>
<event>
 4    1  0.5312547E-005  0.6428680E+03  0.7818608E-02  0.9820255E-01
          2   -1    0    0  501    0  0.00000000000E+00  0.00000000000E+00  0.51602285373E+03  0.51602285373E+03  0.25500000000E-02 0. -1.
         -2   -1    0    0    0  501 -0.00000000000E+00 -0.00000000000E+00 -0.20022335827E+03  0.20022335829E+03  0.25500000000E-02 0.  1.
    5000001    1    1    2    0    0  0.38281487816E+00 -0.26786863840E+03  0.23130702824E+03  0.39048904632E+03  0.16500000000E+03 0.  0.
   -5000001    1    1    2    0    0 -0.38281487816E+00  0.26786863840E+03  0.84492467216E+02  0.32575716569E+03  0.16500000000E+03 0.  0.
<mgrwt>
<rscale>  0 0.64286804E+03</rscale>
<asrwt>0</asrwt>
<pdfrwt beam="1">  1        2 0.73717549E-01 0.64286804E+03</pdfrwt>
<pdfrwt beam="2">  1       -2 0.28603337E-01 0.64286804E+03</pdfrwt>
<totfact> 0.72808536E+02</totfact>
</mgrwt>
</event>
<event>
 4    1  0.5312547E-005  0.4398959E+03  0.7818608E-02  0.1030779E+00
         -2   -1    0    0    0  501 -0.00000000000E+00  0.00000000000E+00  0.32588861625E+02  0.32588861725E+02  0.25500000000E-02 0. -1.
          2   -1    0    0  501    0  0.00000000000E+00 -0.00000000000E+00 -0.14844673241E+04  0.14844673241E+04  0.25500000000E-02 0.  1.
    5000001    1    1    2    0    0  0.80132522321E+02 -0.10130264161E+03 -0.49540250800E+03  0.53789598554E+03  0.16500000000E+03 0.  0.
   -5000001    1    1    2    0    0 -0.80132522321E+02  0.10130264161E+03 -0.95647595443E+03  0.97916020024E+03  0.16500000000E+03 0.  0.
<mgrwt>
<rscale>  0 0.43989590E+03</rscale>
<asrwt>0</asrwt>
<pdfrwt beam="1">  1        2 0.21206672E+00 0.43989590E+03</pdfrwt>
<pdfrwt beam="2">  1       -2 0.46555526E-02 0.43989590E+03</pdfrwt>
<totfact> 0.34735370E+03</totfact>
</mgrwt>
</event>
<event>
 4    1  0.5312547E-005  0.4497990E+03  0.7818608E-02  0.1027782E+00
         -2   -1    0    0    0  501 -0.00000000000E+00  0.00000000000E+00  0.19126681802E+02  0.19126681972E+02  0.25500000000E-02 0. -1.
          2   -1    0    0  501    0  0.00000000000E+00 -0.00000000000E+00 -0.26444617601E+04  0.26444617601E+04  0.25500000000E-02 0.  1.
    5000001    1    1    2    0    0  0.96486954657E+02 -0.11844456416E+03 -0.13363038178E+04  0.13550910451E+04  0.16500000000E+03 0.  0.
   -5000001    1    1    2    0    0 -0.96486954657E+02  0.11844456416E+03 -0.12890312606E+04  0.13084973970E+04  0.16500000000E+03 0.  0.
<mgrwt>
<rscale>  0 0.44979897E+03</rscale>
<asrwt>0</asrwt>
<pdfrwt beam="1">  1        2 0.37778002E+00 0.44979897E+03</pdfrwt>
<pdfrwt beam="2">  1       -2 0.27323848E-02 0.44979897E+03</pdfrwt>
<totfact> 0.20354346E+03</totfact>
</mgrwt>
</event>
<event>
 4    1  0.5312547E-005  0.4542668E+03  0.7818608E-02  0.1026457E+00
          2   -1    0    0  501    0  0.00000000000E+00  0.00000000000E+00  0.19666473859E+04  0.19666473859E+04  0.25500000000E-02 0.  1.
         -2   -1    0    0    0  501 -0.00000000000E+00 -0.00000000000E+00 -0.26232252247E+02  0.26232252371E+02  0.25500000000E-02 0. -1.
    5000001    1    1    2    0    0 -0.15465486003E+03  0.11500375896E+02  0.89244379627E+03  0.92072325586E+03  0.16500000000E+03 0.  0.
   -5000001    1    1    2    0    0  0.15465486003E+03 -0.11500375896E+02  0.10479713374E+04  0.10721563824E+04  0.16500000000E+03 0.  0.
<mgrwt>
<rscale>  0 0.45426684E+03</rscale>
<asrwt>0</asrwt>
<pdfrwt beam="1">  1        2 0.28094976E+00 0.45426684E+03</pdfrwt>
<pdfrwt beam="2">  1       -2 0.37474629E-02 0.45426684E+03</pdfrwt>
<totfact> 0.27658451E+03</totfact>
</mgrwt>
</event>
<event>
 4    1  0.5312547E-005  0.6628002E+03  0.7818608E-02  0.9783053E-01
         -2   -1    0    0    0  501 -0.00000000000E+00  0.00000000000E+00  0.29676776132E+03  0.29676776133E+03  0.25500000000E-02 0. -1.
          2   -1    0    0  501    0  0.00000000000E+00 -0.00000000000E+00 -0.37007398449E+03  0.37007398450E+03  0.25500000000E-02 0.  1.
    5000001    1    1    2    0    0 -0.28054767273E+03  0.21040380938E+02 -0.95759390059E+02  0.33991845359E+03  0.16500000000E+03 0.  0.
   -5000001    1    1    2    0    0  0.28054767273E+03 -0.21040380938E+02  0.22453166888E+02  0.32692329224E+03  0.16500000000E+03 0.  0.
<mgrwt>
<rscale>  0 0.66280020E+03</rscale>
<asrwt>0</asrwt>
<pdfrwt beam="1">  1        2 0.52867712E-01 0.66280020E+03</pdfrwt>
<pdfrwt beam="2">  1       -2 0.42395395E-01 0.66280020E+03</pdfrwt>
<totfact> 0.50116286E+02</totfact>
</mgrwt>
</event>
<event>
 4    1  0.5312547E-005  0.1591914E+04  0.7818608E-02  0.8825531E-01
         -2   -1    0    0    0  501 -0.00000000000E+00  0.00000000000E+00  0.23490368967E+03  0.23490368968E+03  0.25500000000E-02 0. -1.
          2   -1    0    0  501    0  0.00000000000E+00 -0.00000000000E+00 -0.26970515762E+04  0.26970515762E+04  0.25500000000E-02 0.  1.
    5000001    1    1    2    0    0  0.34973433481E+03 -0.67961839397E+03 -0.95710581063E+03  0.12359093005E+04  0.16500000000E+03 0.  0.
   -5000001    1    1    2    0    0 -0.34973433481E+03  0.67961839397E+03 -0.15050420759E+04  0.16960459654E+04  0.16500000000E+03 0.  0.
<mgrwt>
<rscale>  0 0.15919138E+04</rscale>
<asrwt>0</asrwt>
<pdfrwt beam="1">  1        2 0.38529306E+00 0.15919138E+04</pdfrwt>
<pdfrwt beam="2">  1       -2 0.33557672E-01 0.15919138E+04</pdfrwt>
<totfact> 0.27671316E+01</totfact>
</mgrwt>
</event>
<event>
 4    1  0.5312547E-005  0.1024167E+04  0.7818608E-02  0.9282429E-01
         -2   -1    0    0    0  501 -0.00000000000E+00  0.00000000000E+00  0.10846534119E+03  0.10846534122E+03  0.25500000000E-02 0. -1.
          2   -1    0    0  501    0  0.00000000000E+00 -0.00000000000E+00 -0.24176328345E+04  0.24176328345E+04  0.25500000000E-02 0.  1.
    5000001    1    1    2    0    0  0.46935018217E+03 -0.95688779678E+02 -0.13384727674E+04  0.14311464933E+04  0.16500000000E+03 0.  0.
   -5000001    1    1    2    0    0 -0.46935018217E+03  0.95688779678E+02 -0.97069472592E+03  0.10949516825E+04  0.16500000000E+03 0.  0.
<mgrwt>
<rscale>  0 0.10241667E+04</rscale>
<asrwt>0</asrwt>
<pdfrwt beam="1">  1        2 0.34537608E+00 0.10241667E+04</pdfrwt>
<pdfrwt beam="2">  1       -2 0.15495050E-01 0.10241667E+04</pdfrwt>
<totfact> 0.16259283E+02</totfact>
</mgrwt>
</event>
<event>
 4    1  0.5312547E-005  0.5859394E+03  0.7818608E-02  0.9935015E-01
         -2   -1    0    0    0  501 -0.00000000000E+00  0.00000000000E+00  0.24161388090E+02  0.24161388225E+02  0.25500000000E-02 0. -1.
          2   -1    0    0  501    0  0.00000000000E+00 -0.00000000000E+00 -0.35524132122E+04  0.35524132122E+04  0.25500000000E-02 0.  1.
    5000001    1    1    2    0    0  0.79152079478E+02  0.20871378679E+03 -0.11921794316E+04  0.12240683370E+04  0.16500000000E+03 0.  0.
   -5000001    1    1    2    0    0 -0.79152079478E+02 -0.20871378679E+03 -0.23360723926E+04  0.23525062635E+04  0.16500000000E+03 0.  0.
<mgrwt>
<rscale>  0 0.58593936E+03</rscale>
<asrwt>0</asrwt>
<pdfrwt beam="1">  1        2 0.50748727E+00 0.58593936E+03</pdfrwt>
<pdfrwt beam="2">  1       -2 0.34516292E-02 0.58593936E+03</pdfrwt>
<totfact> 0.44417527E+02</totfact>
</mgrwt>
</event>
<event>
 4    1  0.5312547E-005  0.4364011E+03  0.7818608E-02  0.1031857E+00
         -2   -1    0    0    0  501 -0.00000000000E+00  0.00000000000E+00  0.28363644252E+03  0.28363644253E+03  0.25500000000E-02 0. -1.
          2   -1    0    0  501    0  0.00000000000E+00 -0.00000000000E+00 -0.16786097759E+03  0.16786097761E+03  0.25500000000E-02 0.  1.
    5000001    1    1    2    0    0 -0.69171216192E+02  0.79594357549E+02  0.15748075939E+03  0.25128690471E+03  0.16500000000E+03 0.  0.
   -5000001    1    1    2    0    0  0.69171216192E+02 -0.79594357549E+02 -0.41705294459E+02  0.20021051543E+03  0.16500000000E+03 0.  0.
<mgrwt>
<rscale>  0 0.43640115E+03</rscale>
<asrwt>0</asrwt>
<pdfrwt beam="1">  1        2 0.23980139E-01 0.43640115E+03</pdfrwt>
<pdfrwt beam="2">  1       -2 0.40519492E-01 0.43640115E+03</pdfrwt>
<totfact> 0.13216831E+03</totfact>
</mgrwt>
</event>
<event>
 4    1  0.5312547E-005  0.8468640E+03  0.7818608E-02  0.9494556E-01
         -2   -1    0    0    0  501 -0.00000000000E+00  0.00000000000E+00  0.25628242938E+03  0.25628242939E+03  0.25500000000E-02 0.  1.
          2   -1    0    0  501    0  0.00000000000E+00 -0.00000000000E+00 -0.69959786318E+03  0.69959786319E+03  0.25500000000E-02 0. -1.
    5000001    1    1    2    0    0 -0.25347656302E+03 -0.15455053154E+03  0.63742157063E+02  0.34557820734E+03  0.16500000000E+03 0.  0.
   -5000001    1    1    2    0    0  0.25347656302E+03  0.15455053154E+03 -0.50705759086E+03  0.61030208524E+03  0.16500000000E+03 0.  0.
<mgrwt>
<rscale>  0 0.84686396E+03</rscale>
<asrwt>0</asrwt>
<pdfrwt beam="1">  1        2 0.99942551E-01 0.84686396E+03</pdfrwt>
<pdfrwt beam="2">  1       -2 0.36611776E-01 0.84686396E+03</pdfrwt>
<totfact> 0.31728032E+02</totfact>
</mgrwt>
</event>
<event>
 4    1  0.5312547E-005  0.3949669E+03  0.7818608E-02  0.1045537E+00
          2   -1    0    0  501    0  0.00000000000E+00  0.00000000000E+00  0.72531657100E+02  0.72531657144E+02  0.25500000000E-02 0.  1.
         -2   -1    0    0    0  501 -0.00000000000E+00 -0.00000000000E+00 -0.53769235397E+03  0.53769235397E+03  0.25500000000E-02 0. -1.
    5000001    1    1    2    0    0  0.72329142210E+02  0.67456552162E+02 -0.16360986340E+03  0.25253728169E+03  0.16500000000E+03 0.  0.
   -5000001    1    1    2    0    0 -0.72329142210E+02 -0.67456552162E+02 -0.30155083347E+03  0.35768672942E+03  0.16500000000E+03 0.  0.
<mgrwt>
<rscale>  0 0.39496692E+03</rscale>
<asrwt>0</asrwt>
<pdfrwt beam="1">  1        2 0.10361666E-01 0.39496692E+03</pdfrwt>
<pdfrwt beam="2">  1       -2 0.76813191E-01 0.39496692E+03</pdfrwt>
<totfact> 0.96230751E+02</totfact>
</mgrwt>
</event>
<event>
 4    1  0.5312547E-005  0.3609007E+03  0.7818608E-02  0.1058228E+00
          2   -1    0    0  501    0  0.00000000000E+00  0.00000000000E+00  0.29716662416E+04  0.29716662416E+04  0.25500000000E-02 0.  1.
         -2   -1    0    0    0  501 -0.00000000000E+00 -0.00000000000E+00 -0.10957602162E+02  0.10957602458E+02  0.25500000000E-02 0. -1.
    5000001    1    1    2    0    0 -0.52420384963E+02 -0.49516305586E+02  0.13834191416E+04  0.13950889874E+04  0.16500000000E+03 0.  0.
   -5000001    1    1    2    0    0  0.52420384963E+02  0.49516305586E+02  0.15772894978E+04  0.15875348567E+04  0.16500000000E+03 0.  0.
<mgrwt>
<rscale>  0 0.36090074E+03</rscale>
<asrwt>0</asrwt>
<pdfrwt beam="1">  1        2 0.42452386E+00 0.36090074E+03</pdfrwt>
<pdfrwt beam="2">  1       -2 0.15653714E-02 0.36090074E+03</pdfrwt>
<totfact> 0.31650422E+03</totfact>
</mgrwt>
</event>
<event>
 4    1  0.5312547E-005  0.5413070E+03  0.7818608E-02  0.1003526E+00
          2   -1    0    0  501    0  0.00000000000E+00  0.00000000000E+00  0.99381200433E+03  0.99381200434E+03  0.25500000000E-02 0.  1.
         -2   -1    0    0    0  501 -0.00000000000E+00 -0.00000000000E+00 -0.73709441544E+02  0.73709441588E+02  0.25500000000E-02 0. -1.
    5000001    1    1    2    0    0 -0.20242154258E+03 -0.38703211120E+02  0.34245103910E+03  0.43240043204E+03  0.16500000000E+03 0.  0.
   -5000001    1    1    2    0    0  0.20242154258E+03  0.38703211120E+02  0.57765152369E+03  0.63512101388E+03  0.16500000000E+03 0.  0.
<mgrwt>
<rscale>  0 0.54130704E+03</rscale>
<asrwt>0</asrwt>
<pdfrwt beam="1">  1        2 0.14197314E+00 0.54130704E+03</pdfrwt>
<pdfrwt beam="2">  1       -2 0.10529920E-01 0.54130704E+03</pdfrwt>
<totfact> 0.17939327E+03</totfact>
</mgrwt>
</event>
<event>
 4    1  0.5312547E-005  0.3418991E+03  0.7818608E-02  0.1065990E+00
          2   -1    0    0  501    0  0.00000000000E+00  0.00000000000E+00  0.30526653767E+04  0.30526653767E+04  0.25500000000E-02 0.  1.
         -2   -1    0    0    0  501 -0.00000000000E+00 -0.00000000000E+00 -0.95731886411E+01  0.95731889808E+01  0.25500000000E-02 0. -1.
    5000001    1    1    2    0    0  0.40217322531E+02 -0.17489721207E+02  0.15993283428E+04  0.16084152049E+04  0.16500000000E+03 0.  0.
   -5000001    1    1    2    0    0 -0.40217322531E+02  0.17489721207E+02  0.14437638453E+04  0.14538233608E+04  0.16500000000E+03 0.  0.
<mgrwt>
<rscale>  0 0.34189906E+03</rscale>
<asrwt>0</asrwt>
<pdfrwt beam="1">  1        2 0.43609509E+00 0.34189906E+03</pdfrwt>
<pdfrwt beam="2">  1       -2 0.13675983E-02 0.34189906E+03</pdfrwt>
<totfact> 0.34986992E+03</totfact>
</mgrwt>
</event>
<event>
 4    1  0.5312547E-005  0.5306810E+03  0.7818608E-02  0.1006067E+00
         -2   -1    0    0    0  501 -0.00000000000E+00  0.00000000000E+00  0.17882558217E+03  0.17882558219E+03  0.25500000000E-02 0. -1.
          2   -1    0    0  501    0  0.00000000000E+00 -0.00000000000E+00 -0.39371090708E+03  0.39371090709E+03  0.25500000000E-02 0.  1.
    5000001    1    1    2    0    0 -0.13778031958E+03 -0.14658672126E+03 -0.16360098339E+03  0.30734567685E+03  0.16500000000E+03 0.  0.
   -5000001    1    1    2    0    0  0.13778031958E+03  0.14658672126E+03 -0.51284341528E+02  0.26519081243E+03  0.16500000000E+03 0.  0.
<mgrwt>
<rscale>  0 0.53068100E+03</rscale>
<asrwt>0</asrwt>
<pdfrwt beam="1">  1        2 0.56244415E-01 0.53068100E+03</pdfrwt>
<pdfrwt beam="2">  1       -2 0.25546512E-01 0.53068100E+03</pdfrwt>
<totfact> 0.12128199E+03</totfact>
</mgrwt>
</event>
<event>
 4    1  0.5312547E-005  0.5541643E+03  0.7818608E-02  0.1000535E+00
          2   -1    0    0  501    0  0.00000000000E+00  0.00000000000E+00  0.46141136321E+03  0.46141136322E+03  0.25500000000E-02 0.  1.
         -2   -1    0    0    0  501 -0.00000000000E+00 -0.00000000000E+00 -0.16639062597E+03  0.16639062599E+03  0.25500000000E-02 0. -1.
    5000001    1    1    2    0    0 -0.20761714530E+03 -0.29078484316E+02  0.23228048493E+03  0.35373671134E+03  0.16500000000E+03 0.  0.
   -5000001    1    1    2    0    0  0.20761714530E+03  0.29078484316E+02  0.62740252315E+02  0.27406527787E+03  0.16500000000E+03 0.  0.
<mgrwt>
<rscale>  0 0.55416433E+03</rscale>
<asrwt>0</asrwt>
<pdfrwt beam="1">  1        2 0.65915909E-01 0.55416433E+03</pdfrwt>
<pdfrwt beam="2">  1       -2 0.23770089E-01 0.55416433E+03</pdfrwt>
<totfact> 0.11560987E+03</totfact>
</mgrwt>
</event>
<event>
 4    1  0.5312547E-005  0.4017640E+03  0.7818608E-02  0.1043171E+00
          2   -1    0    0  501    0  0.00000000000E+00  0.00000000000E+00  0.17753966360E+04  0.17753966360E+04  0.25500000000E-02 0.  1.
         -2   -1    0    0    0  501 -0.00000000000E+00 -0.00000000000E+00 -0.22729329107E+02  0.22729329250E+02  0.25500000000E-02 0. -1.
    5000001    1    1    2    0    0  0.19246552427E+02  0.11150484112E+03  0.79567197075E+03  0.82044051851E+03  0.16500000000E+03 0.  0.
   -5000001    1    1    2    0    0 -0.19246552427E+02 -0.11150484112E+03  0.95699533614E+03  0.97768544674E+03  0.16500000000E+03 0.  0.
<mgrwt>
<rscale>  0 0.40176398E+03</rscale>
<asrwt>0</asrwt>
<pdfrwt beam="1">  1        2 0.25362818E+00 0.40176398E+03</pdfrwt>
<pdfrwt beam="2">  1       -2 0.32470459E-02 0.40176398E+03</pdfrwt>
<totfact> 0.42826372E+03</totfact>
</mgrwt>
</event>
<event>
 4    1  0.5312547E-005  0.5185268E+03  0.7818608E-02  0.1009053E+00
          2   -1    0    0  501    0  0.00000000000E+00  0.00000000000E+00  0.66505877635E+03  0.66505877636E+03  0.25500000000E-02 0.  1.
         -2   -1    0    0    0  501 -0.00000000000E+00 -0.00000000000E+00 -0.10107002696E+03  0.10107002700E+03  0.25500000000E-02 0. -1.
    5000001    1    1    2    0    0  0.14296530540E+02 -0.10857008151E+03  0.34756680040E+02  0.20105939469E+03  0.16500000000E+03 0.  0.
   -5000001    1    1    2    0    0 -0.14296530540E+02  0.10857008151E+03  0.52923206935E+03  0.56506940867E+03  0.16500000000E+03 0.  0.
<mgrwt>
<rscale>  0 0.51852679E+03</rscale>
<asrwt>0</asrwt>
<pdfrwt beam="1">  1        2 0.95008395E-01 0.51852679E+03</pdfrwt>
<pdfrwt beam="2">  1       -2 0.14438575E-01 0.51852679E+03</pdfrwt>
<totfact> 0.17878087E+03</totfact>
</mgrwt>
</event>
<event>
 4    1  0.5312547E-005  0.3881135E+03  0.7818608E-02  0.1047975E+00
          2   -1    0    0  501    0  0.00000000000E+00  0.00000000000E+00  0.10645449303E+03  0.10645449306E+03  0.25500000000E-02 0.  1.
         -2   -1    0    0    0  501 -0.00000000000E+00 -0.00000000000E+00 -0.35374758236E+03  0.35374758237E+03  0.25500000000E-02 0. -1.
    5000001    1    1    2    0    0  0.46418717290E+02 -0.75531421257E+02 -0.18379677529E+03  0.26242322214E+03  0.16500000000E+03 0.  0.
   -5000001    1    1    2    0    0 -0.46418717290E+02  0.75531421257E+02 -0.63496314038E+02  0.19777885329E+03  0.16500000000E+03 0.  0.
<mgrwt>
<rscale>  0 0.38811349E+03</rscale>
<asrwt>0</asrwt>
<pdfrwt beam="1">  1        2 0.15207785E-01 0.38811349E+03</pdfrwt>
<pdfrwt beam="2">  1       -2 0.50535368E-01 0.38811349E+03</pdfrwt>
<totfact> 0.14521212E+03</totfact>
</mgrwt>
</event>
<event>
 4    1  0.5312547E-005  0.7280470E+03  0.7818608E-02  0.9670435E-01
         -2   -1    0    0    0  501 -0.00000000000E+00  0.00000000000E+00  0.61593051189E+02  0.61593051242E+02  0.25500000000E-02 0. -1.
          2   -1    0    0  501    0  0.00000000000E+00 -0.00000000000E+00 -0.21514294001E+04  0.21514294001E+04  0.25500000000E-02 0.  1.
    5000001    1    1    2    0    0 -0.20516415109E+03  0.14781567267E+03 -0.42683810862E+03  0.52283608612E+03  0.16500000000E+03 0.  0.
   -5000001    1    1    2    0    0  0.20516415109E+03 -0.14781567267E+03 -0.16629982403E+04  0.16901863653E+04  0.16500000000E+03 0.  0.
<mgrwt>
<rscale>  0 0.72804698E+03</rscale>
<asrwt>0</asrwt>
<pdfrwt beam="1">  1        2 0.30734701E+00 0.72804698E+03</pdfrwt>
<pdfrwt beam="2">  1       -2 0.87990087E-02 0.72804698E+03</pdfrwt>
<totfact> 0.58002747E+02</totfact>
</mgrwt>
</event>
<event>
 4    1  0.5312547E-005  0.4079924E+03  0.7818608E-02  0.1041047E+00
         -2   -1    0    0    0  501 -0.00000000000E+00  0.00000000000E+00  0.88688023083E+02  0.88688023120E+02  0.25500000000E-02 0. -1.
          2   -1    0    0  501    0  0.00000000000E+00 -0.00000000000E+00 -0.46922276920E+03  0.46922276921E+03  0.25500000000E-02 0.  1.
    5000001    1    1    2    0    0  0.59146062980E+02  0.10260273762E+03 -0.16418298501E+03  0.26116399274E+03  0.16500000000E+03 0.  0.
   -5000001    1    1    2    0    0 -0.59146062980E+02 -0.10260273762E+03 -0.21635176110E+03  0.29674679959E+03  0.16500000000E+03 0.  0.
<mgrwt>
<rscale>  0 0.40799235E+03</rscale>
<asrwt>0</asrwt>
<pdfrwt beam="1">  1        2 0.67031823E-01 0.40799235E+03</pdfrwt>
<pdfrwt beam="2">  1       -2 0.12669718E-01 0.40799235E+03</pdfrwt>
<totfact> 0.33099183E+03</totfact>
</mgrwt>
</event>
<event>
 4    1  0.5312547E-005  0.4085341E+03  0.7818608E-02  0.1040864E+00
         -2   -1    0    0    0  501 -0.00000000000E+00  0.00000000000E+00  0.19773591784E+03  0.19773591786E+03  0.25500000000E-02 0. -1.
          2   -1    0    0  501    0  0.00000000000E+00 -0.00000000000E+00 -0.21101393259E+03  0.21101393261E+03  0.25500000000E-02 0.  1.
    5000001    1    1    2    0    0 -0.36078976288E+02  0.66388185486E+02  0.87170567302E+02  0.20132757264E+03  0.16500000000E+03 0.  0.
   -5000001    1    1    2    0    0  0.36078976288E+02 -0.66388185486E+02 -0.10044858205E+03  0.20742227783E+03  0.16500000000E+03 0.  0.
<mgrwt>
<rscale>  0 0.40853413E+03</rscale>
<asrwt>0</asrwt>
<pdfrwt beam="1">  1        2 0.30144848E-01 0.40853413E+03</pdfrwt>
<pdfrwt beam="2">  1       -2 0.28247988E-01 0.40853413E+03</pdfrwt>
<totfact> 0.20064753E+03</totfact>
</mgrwt>
</event>
<event>
 4    1  0.5312547E-005  0.1328137E+04  0.7818608E-02  0.9007545E-01
         -2   -1    0    0    0  501 -0.00000000000E+00  0.00000000000E+00  0.27884351353E+03  0.27884351354E+03  0.25500000000E-02 0. -1.
          2   -1    0    0  501    0  0.00000000000E+00 -0.00000000000E+00 -0.15814864128E+04  0.15814864128E+04  0.25500000000E-02 0.  1.
    5000001    1    1    2    0    0  0.56481022019E+03  0.19064805365E+03 -0.98983171774E+03  0.11671971104E+04  0.16500000000E+03 0.  0.
   -5000001    1    1    2    0    0 -0.56481022019E+03 -0.19064805365E+03 -0.31281118156E+03  0.69313281592E+03  0.16500000000E+03 0.  0.
<mgrwt>
<rscale>  0 0.13281374E+04</rscale>
<asrwt>0</asrwt>
<pdfrwt beam="1">  1        2 0.22592663E+00 0.13281374E+04</pdfrwt>
<pdfrwt beam="2">  1       -2 0.39834789E-01 0.13281374E+04</pdfrwt>
<totfact> 0.77201454E+01</totfact>
</mgrwt>
</event>
<event>
 4    1  0.5312547E-005  0.3949279E+03  0.7818608E-02  0.1045550E+00
          2   -1    0    0  501    0  0.00000000000E+00  0.00000000000E+00  0.23762480994E+03  0.23762480996E+03  0.25500000000E-02 0.  1.
         -2   -1    0    0    0  501 -0.00000000000E+00 -0.00000000000E+00 -0.16409062445E+03  0.16409062447E+03  0.25500000000E-02 0. -1.
    5000001    1    1    2    0    0 -0.25589051775E+02 -0.91729122720E+02 -0.16067633419E+02  0.19118629755E+03  0.16500000000E+03 0.  0.
   -5000001    1    1    2    0    0  0.25589051775E+02  0.91729122720E+02  0.89601818910E+02  0.21052913689E+03  0.16500000000E+03 0.  0.
<mgrwt>
<rscale>  0 0.39492786E+03</rscale>
<asrwt>0</asrwt>
<pdfrwt beam="1">  1        2 0.33946401E-01 0.39492786E+03</pdfrwt>
<pdfrwt beam="2">  1       -2 0.23441518E-01 0.39492786E+03</pdfrwt>
<totfact> 0.24546876E+03</totfact>
</mgrwt>
</event>
<event>
 4    1  0.5312547E-005  0.1489539E+04  0.7818608E-02  0.8891439E-01
          2   -1    0    0  501    0  0.00000000000E+00  0.00000000000E+00  0.74267287086E+03  0.74267287086E+03  0.25500000000E-02 0.  1.
         -2   -1    0    0    0  501 -0.00000000000E+00 -0.00000000000E+00 -0.74687212646E+03  0.74687212646E+03  0.25500000000E-02 0. -1.
    5000001    1    1    2    0    0 -0.11358546220E+03  0.69876614236E+03 -0.16421408204E+03  0.74522952415E+03  0.16500000000E+03 0.  0.
   -5000001    1    1    2    0    0  0.11358546220E+03 -0.69876614236E+03  0.16001482644E+03  0.74431547317E+03  0.16500000000E+03 0.  0.
<mgrwt>
<rscale>  0 0.14895391E+04</rscale>
<asrwt>0</asrwt>
<pdfrwt beam="1">  1        2 0.10609612E+00 0.14895391E+04</pdfrwt>
<pdfrwt beam="2">  1       -2 0.10669602E+00 0.14895391E+04</pdfrwt>
<totfact> 0.28646475E+01</totfact>
</mgrwt>
</event>
<event>
 4    1  0.5312547E-005  0.4804326E+03  0.7818608E-02  0.1019016E+00
          2   -1    0    0  501    0  0.00000000000E+00  0.00000000000E+00  0.27060719371E+04  0.27060719371E+04  0.25500000000E-02 0.  1.
         -2   -1    0    0    0  501 -0.00000000000E+00 -0.00000000000E+00 -0.21323848414E+02  0.21323848567E+02  0.25500000000E-02 0. -1.
    5000001    1    1    2    0    0  0.14249867645E+03  0.29201221484E+02  0.18904367830E+04  0.19031906932E+04  0.16500000000E+03 0.  0.
   -5000001    1    1    2    0    0 -0.14249867645E+03 -0.29201221484E+02  0.79431130566E+03  0.82420509245E+03  0.16500000000E+03 0.  0.
<mgrwt>
<rscale>  0 0.48043259E+03</rscale>
<asrwt>0</asrwt>
<pdfrwt beam="1">  1        2 0.38658165E+00 0.48043259E+03</pdfrwt>
<pdfrwt beam="2">  1       -2 0.30462645E-02 0.48043259E+03</pdfrwt>
<totfact> 0.16016034E+03</totfact>
</mgrwt>
</event>
<event>
 4    1  0.5312547E-005  0.1064805E+04  0.7818608E-02  0.9240191E-01
         -2   -1    0    0    0  501 -0.00000000000E+00  0.00000000000E+00  0.19780679491E+03  0.19780679492E+03  0.25500000000E-02 0. -1.
          2   -1    0    0  501    0  0.00000000000E+00 -0.00000000000E+00 -0.14329760344E+04  0.14329760344E+04  0.25500000000E-02 0.  1.
    5000001    1    1    2    0    0  0.20507162621E+03  0.42893874837E+03 -0.35150071863E+03  0.61385713072E+03  0.16500000000E+03 0.  0.
   -5000001    1    1    2    0    0 -0.20507162621E+03 -0.42893874837E+03 -0.88366852090E+03  0.10169256986E+04  0.16500000000E+03 0.  0.
<mgrwt>
<rscale>  0 0.10648050E+04</rscale>
<asrwt>0</asrwt>
<pdfrwt beam="1">  1        2 0.20471086E+00 0.10648050E+04</pdfrwt>
<pdfrwt beam="2">  1       -2 0.28258114E-01 0.10648050E+04</pdfrwt>
<totfact> 0.18067416E+02</totfact>
</mgrwt>
</event>
<event>
 4    1  0.5312547E-005  0.4480245E+03  0.7818608E-02  0.1028313E+00
          2   -1    0    0  501    0  0.00000000000E+00  0.00000000000E+00  0.13825650612E+03  0.13825650614E+03  0.25500000000E-02 0.  1.
         -2   -1    0    0    0  501 -0.00000000000E+00 -0.00000000000E+00 -0.36295930889E+03  0.36295930889E+03  0.25500000000E-02 0. -1.
    5000001    1    1    2    0    0 -0.11504016599E+03  0.95984409857E+02 -0.87105904576E+02  0.23928996080E+03  0.16500000000E+03 0.  0.
   -5000001    1    1    2    0    0  0.11504016599E+03 -0.95984409857E+02 -0.13759689819E+03  0.26192585424E+03  0.16500000000E+03 0.  0.
<mgrwt>
<rscale>  0 0.44802449E+03</rscale>
<asrwt>0</asrwt>
<pdfrwt beam="1">  1        2 0.19750929E-01 0.44802449E+03</pdfrwt>
<pdfrwt beam="2">  1       -2 0.51851330E-01 0.44802449E+03</pdfrwt>
<totfact> 0.10139874E+03</totfact>
</mgrwt>
</event>
<event>
 4    1  0.5312547E-005  0.1025555E+04  0.7818608E-02  0.9280953E-01
          2   -1    0    0  501    0  0.00000000000E+00  0.00000000000E+00  0.41325795736E+03  0.41325795737E+03  0.25500000000E-02 0.  1.
         -2   -1    0    0    0  501 -0.00000000000E+00 -0.00000000000E+00 -0.63626259342E+03  0.63626259342E+03  0.25500000000E-02 0. -1.
    5000001    1    1    2    0    0  0.44765501428E+03  0.17715950955E+02 -0.30297543632E+03  0.56544494139E+03  0.16500000000E+03 0.  0.
   -5000001    1    1    2    0    0 -0.44765501428E+03 -0.17715950955E+02  0.79970800261E+02  0.48407560940E+03  0.16500000000E+03 0.  0.
<mgrwt>
<rscale>  0 0.10255546E+04</rscale>
<asrwt>0</asrwt>
<pdfrwt beam="1">  1        2 0.59036851E-01 0.10255546E+04</pdfrwt>
<pdfrwt beam="2">  1       -2 0.90894656E-01 0.10255546E+04</pdfrwt>
<totfact> 0.85936970E+01</totfact>
</mgrwt>
</event>
<event>
 4    1  0.5312547E-005  0.5611508E+03  0.7818608E-02  0.9989454E-01
         -2   -1    0    0    0  501 -0.00000000000E+00  0.00000000000E+00  0.20186792284E+03  0.20186792285E+03  0.25500000000E-02 0. -1.
          2   -1    0    0  501    0  0.00000000000E+00 -0.00000000000E+00 -0.38997053952E+03  0.38997053953E+03  0.25500000000E-02 0.  1.
    5000001    1    1    2    0    0 -0.11854226570E+03  0.14822116558E+03  0.37153462686E+02  0.25421872959E+03  0.16500000000E+03 0.  0.
   -5000001    1    1    2    0    0  0.11854226570E+03 -0.14822116558E+03 -0.22525607937E+03  0.33761973280E+03  0.16500000000E+03 0.  0.
<mgrwt>
<rscale>  0 0.56115076E+03</rscale>
<asrwt>0</asrwt>
<pdfrwt beam="1">  1        2 0.55710077E-01 0.56115076E+03</pdfrwt>
<pdfrwt beam="2">  1       -2 0.28838275E-01 0.56115076E+03</pdfrwt>
<totfact> 0.98361834E+02</totfact>
</mgrwt>
</event>
<event>
 4    1  0.5312547E-005  0.4510108E+03  0.7818608E-02  0.1027421E+00
         -2   -1    0    0    0  501 -0.00000000000E+00  0.00000000000E+00  0.29358349018E+02  0.29358349128E+02  0.25500000000E-02 0. -1.
          2   -1    0    0  501    0  0.00000000000E+00 -0.00000000000E+00 -0.17321371372E+04  0.17321371372E+04  0.25500000000E-02 0.  1.
    5000001    1    1    2    0    0  0.89584060435E+02 -0.12384378677E+03 -0.78779792052E+03  0.81927599195E+03  0.16500000000E+03 0.  0.
   -5000001    1    1    2    0    0 -0.89584060435E+02  0.12384378677E+03 -0.91498086768E+03  0.94221949440E+03  0.16500000000E+03 0.  0.
<mgrwt>
<rscale>  0 0.45101081E+03</rscale>
<asrwt>0</asrwt>
<pdfrwt beam="1">  1        2 0.24744810E+00 0.45101081E+03</pdfrwt>
<pdfrwt beam="2">  1       -2 0.41940510E-02 0.45101081E+03</pdfrwt>
<totfact> 0.30500102E+03</totfact>
</mgrwt>
</event>
<event>
 4    1  0.5312547E-005  0.4611812E+03  0.7818608E-02  0.1024439E+00
          2   -1    0    0  501    0  0.00000000000E+00  0.00000000000E+00  0.19760932715E+03  0.19760932717E+03  0.25500000000E-02 0.  1.
         -2   -1    0    0    0  501 -0.00000000000E+00 -0.00000000000E+00 -0.26907652831E+03  0.26907652832E+03  0.25500000000E-02 0. -1.
    5000001    1    1    2    0    0  0.43443522277E+02  0.13091395362E+03 -0.11992052027E+03  0.24623511947E+03  0.16500000000E+03 0.  0.
   -5000001    1    1    2    0    0 -0.43443522277E+02 -0.13091395362E+03  0.48453319111E+02  0.22045073602E+03  0.16500000000E+03 0.  0.
<mgrwt>
<rscale>  0 0.46118123E+03</rscale>
<asrwt>0</asrwt>
<pdfrwt beam="1">  1        2 0.28229904E-01 0.46118123E+03</pdfrwt>
<pdfrwt beam="2">  1       -2 0.38439504E-01 0.46118123E+03</pdfrwt>
<totfact> 0.12169768E+03</totfact>
</mgrwt>
</event>
<event>
 4    1  0.5312547E-005  0.1695706E+04  0.7818608E-02  0.8763817E-01
          2   -1    0    0  501    0  0.00000000000E+00  0.00000000000E+00  0.82768582928E+03  0.82768582928E+03  0.25500000000E-02 0.  1.
         -2   -1    0    0    0  501 -0.00000000000E+00 -0.00000000000E+00 -0.86851140216E+03  0.86851140216E+03  0.25500000000E-02 0. -1.
    5000001    1    1    2    0    0 -0.53159022938E+03  0.40814788398E+03 -0.51295441134E+03  0.85995354251E+03  0.16500000000E+03 0.  0.
   -5000001    1    1    2    0    0  0.53159022938E+03 -0.40814788398E+03  0.47212883847E+03  0.83624368893E+03  0.16500000000E+03 0.  0.
<mgrwt>
<rscale>  0 0.16957058E+04</rscale>
<asrwt>0</asrwt>
<pdfrwt beam="1">  1        2 0.11824083E+00 0.16957058E+04</pdfrwt>
<pdfrwt beam="2">  1       -2 0.12407306E+00 0.16957058E+04</pdfrwt>
<totfact> 0.16953912E+01</totfact>
</mgrwt>
</event>
<event>
 4    1  0.5312547E-005  0.5560072E+03  0.7818608E-02  0.1000113E+00
         -2   -1    0    0    0  501 -0.00000000000E+00  0.00000000000E+00  0.28023603243E+02  0.28023603359E+02  0.25500000000E-02 0. -1.
          2   -1    0    0  501    0  0.00000000000E+00 -0.00000000000E+00 -0.27578891946E+04  0.27578891946E+04  0.25500000000E-02 0.  1.
    5000001    1    1    2    0    0 -0.40016586523E+02  0.16457829567E+03 -0.63240100696E+03  0.67516174078E+03  0.16500000000E+03 0.  0.
   -5000001    1    1    2    0    0  0.40016586523E+02 -0.16457829567E+03 -0.20974645844E+04  0.21107510572E+04  0.16500000000E+03 0.  0.
<mgrwt>
<rscale>  0 0.55600717E+03</rscale>
<asrwt>0</asrwt>
<pdfrwt beam="1">  1        2 0.39398400E+00 0.55600717E+03</pdfrwt>
<pdfrwt beam="2">  1       -2 0.40033736E-02 0.55600717E+03</pdfrwt>
<totfact> 0.98664891E+02</totfact>
</mgrwt>
</event>
<event>
 4    1  0.5312547E-005  0.7682642E+03  0.7818608E-02  0.9607125E-01
         -2   -1    0    0    0  501 -0.00000000000E+00  0.00000000000E+00  0.10819433721E+03  0.10819433724E+03  0.25500000000E-02 0. -1.
          2   -1    0    0  501    0  0.00000000000E+00 -0.00000000000E+00 -0.13638187706E+04  0.13638187706E+04  0.25500000000E-02 0.  1.
    5000001    1    1    2    0    0  0.22445969623E+02 -0.23733288612E+03 -0.11106418572E+04  0.11478593360E+04  0.16500000000E+03 0.  0.
   -5000001    1    1    2    0    0 -0.22445969623E+02  0.23733288612E+03 -0.14498257622E+03  0.32415377183E+03  0.16500000000E+03 0.  0.
<mgrwt>
<rscale>  0 0.76826419E+03</rscale>
<asrwt>0</asrwt>
<pdfrwt beam="1">  1        2 0.19483124E+00 0.76826419E+03</pdfrwt>
<pdfrwt beam="2">  1       -2 0.15456335E-01 0.76826419E+03</pdfrwt>
<totfact> 0.58037086E+02</totfact>
</mgrwt>
</event>
<event>
 4    1  0.5312547E-005  0.7191104E+03  0.7818608E-02  0.9685098E-01
         -2   -1    0    0    0  501 -0.00000000000E+00  0.00000000000E+00  0.12079815522E+03  0.12079815525E+03  0.25500000000E-02 0. -1.
          2   -1    0    0  501    0  0.00000000000E+00 -0.00000000000E+00 -0.10702145768E+04  0.10702145768E+04  0.25500000000E-02 0.  1.
    5000001    1    1    2    0    0 -0.15941952559E+03 -0.26666961022E+03 -0.59784626597E+03  0.69366593104E+03  0.16500000000E+03 0.  0.
   -5000001    1    1    2    0    0  0.15941952559E+03  0.26666961022E+03 -0.35157015562E+03  0.49734680101E+03  0.16500000000E+03 0.  0.
<mgrwt>
<rscale>  0 0.71911041E+03</rscale>
<asrwt>0</asrwt>
<pdfrwt beam="1">  1        2 0.15288779E+00 0.71911041E+03</pdfrwt>
<pdfrwt beam="2">  1       -2 0.17256880E-01 0.71911041E+03</pdfrwt>
<totfact> 0.70513607E+02</totfact>
</mgrwt>
</event>
<event>
 4    1  0.5312547E-005  0.4931763E+03  0.7818608E-02  0.1015575E+00
         -2   -1    0    0    0  501 -0.00000000000E+00  0.00000000000E+00  0.62057417248E+02  0.62057417300E+02  0.25500000000E-02 0. -1.
          2   -1    0    0  501    0  0.00000000000E+00 -0.00000000000E+00 -0.97983003857E+03  0.97983003858E+03  0.25500000000E-02 0.  1.
    5000001    1    1    2    0    0 -0.15022131051E+03  0.97997678043E+02 -0.53823527065E+03  0.59084024373E+03  0.16500000000E+03 0.  0.
   -5000001    1    1    2    0    0  0.15022131051E+03 -0.97997678043E+02 -0.37953735068E+03  0.45104721215E+03  0.16500000000E+03 0.  0.
<mgrwt>
<rscale>  0 0.49317632E+03</rscale>
<asrwt>0</asrwt>
<pdfrwt beam="1">  1        2 0.13997571E+00 0.49317632E+03</pdfrwt>
<pdfrwt beam="2">  1       -2 0.88653459E-02 0.49317632E+03</pdfrwt>
<totfact> 0.24146952E+03</totfact>
</mgrwt>
</event>
<event>
 4    1  0.5312547E-005  0.9631284E+03  0.7818608E-02  0.9349936E-01
         -2   -1    0    0    0  501 -0.00000000000E+00  0.00000000000E+00  0.39711267308E+03  0.39711267309E+03  0.25500000000E-02 0. -1.
          2   -1    0    0  501    0  0.00000000000E+00 -0.00000000000E+00 -0.58397547630E+03  0.58397547631E+03  0.25500000000E-02 0.  1.
    5000001    1    1    2    0    0  0.25576258082E+03  0.32874137570E+03 -0.27334215017E+03  0.52481074771E+03  0.16500000000E+03 0.  0.
   -5000001    1    1    2    0    0 -0.25576258082E+03 -0.32874137570E+03  0.86479346954E+02  0.45627740169E+03  0.16500000000E+03 0.  0.
<mgrwt>
<rscale>  0 0.96312837E+03</rscale>
<asrwt>0</asrwt>
<pdfrwt beam="1">  1        2 0.83425067E-01 0.96312837E+03</pdfrwt>
<pdfrwt beam="2">  1       -2 0.56730382E-01 0.96312837E+03</pdfrwt>
<totfact> 0.16337888E+02</totfact>
</mgrwt>
</event>
<event>
 4    1  0.5312547E-005  0.7406978E+03  0.7818608E-02  0.9650058E-01
         -2   -1    0    0    0  501 -0.00000000000E+00  0.00000000000E+00  0.53692072725E+03  0.53692072726E+03  0.25500000000E-02 0. -1.
          2   -1    0    0  501    0  0.00000000000E+00 -0.00000000000E+00 -0.25545358406E+03  0.25545358407E+03  0.25500000000E-02 0.  1.
    5000001    1    1    2    0    0  0.10204396342E+03 -0.29282411841E+03  0.15181037146E+02  0.35158839384E+03  0.16500000000E+03 0.  0.
   -5000001    1    1    2    0    0 -0.10204396342E+03  0.29282411841E+03  0.26628610604E+03  0.44078591750E+03  0.16500000000E+03 0.  0.
<mgrwt>
<rscale>  0 0.74069784E+03</rscale>
<asrwt>0</asrwt>
<pdfrwt beam="1">  1        2 0.36493370E-01 0.74069784E+03</pdfrwt>
<pdfrwt beam="2">  1       -2 0.76702960E-01 0.74069784E+03</pdfrwt>
<totfact> 0.21869066E+02</totfact>
</mgrwt>
</event>
<event>
 4    1  0.5312547E-005  0.3684072E+03  0.7818608E-02  0.1055304E+00
          2   -1    0    0  501    0  0.00000000000E+00  0.00000000000E+00  0.22563496227E+04  0.22563496227E+04  0.25500000000E-02 0.  1.
         -2   -1    0    0    0  501 -0.00000000000E+00 -0.00000000000E+00 -0.15037990420E+02  0.15037990636E+02  0.25500000000E-02 0. -1.
    5000001    1    1    2    0    0  0.47421082356E+02  0.57226303518E+02  0.90865517485E+03  0.92650031606E+03  0.16500000000E+03 0.  0.
   -5000001    1    1    2    0    0 -0.47421082356E+02 -0.57226303518E+02  0.13326564574E+04  0.13448872973E+04  0.16500000000E+03 0.  0.
<mgrwt>
<rscale>  0 0.36840719E+03</rscale>
<asrwt>0</asrwt>
<pdfrwt beam="1">  1        2 0.32233569E+00 0.36840719E+03</pdfrwt>
<pdfrwt beam="2">  1       -2 0.21482842E-02 0.36840719E+03</pdfrwt>
<totfact> 0.45968435E+03</totfact>
</mgrwt>
</event>
<event>
 4    1  0.5312547E-005  0.5539246E+03  0.7818608E-02  0.1000590E+00
         -2   -1    0    0    0  501 -0.00000000000E+00  0.00000000000E+00  0.36776767388E+03  0.36776767389E+03  0.25500000000E-02 0. -1.
          2   -1    0    0  501    0  0.00000000000E+00 -0.00000000000E+00 -0.20857766347E+03  0.20857766348E+03  0.25500000000E-02 0.  1.
    5000001    1    1    2    0    0  0.24630446549E+02  0.22068191472E+03  0.93396745016E+02  0.29198479132E+03  0.16500000000E+03 0.  0.
   -5000001    1    1    2    0    0 -0.24630446549E+02 -0.22068191472E+03  0.65793265400E+02  0.28436054606E+03  0.16500000000E+03 0.  0.
<mgrwt>
<rscale>  0 0.55392462E+03</rscale>
<asrwt>0</asrwt>
<pdfrwt beam="1">  1        2 0.29796810E-01 0.55392462E+03</pdfrwt>
<pdfrwt beam="2">  1       -2 0.52538238E-01 0.55392462E+03</pdfrwt>
<totfact> 0.61722738E+02</totfact>
</mgrwt>
</event>
<event>
 4    1  0.5312547E-005  0.4529194E+03  0.7818608E-02  0.1026855E+00
          2   -1    0    0  501    0  0.00000000000E+00  0.00000000000E+00  0.21970735228E+04  0.21970735228E+04  0.25500000000E-02 0.  1.
         -2   -1    0    0    0  501 -0.00000000000E+00 -0.00000000000E+00 -0.23341953809E+02  0.23341953949E+02  0.25500000000E-02 0. -1.
    5000001    1    1    2    0    0 -0.43140555024E+02  0.13663965025E+03  0.79569614881E+03  0.82515990132E+03  0.16500000000E+03 0.  0.
   -5000001    1    1    2    0    0  0.43140555024E+02 -0.13663965025E+03  0.13780354202E+04  0.13952555755E+04  0.16500000000E+03 0.  0.
<mgrwt>
<rscale>  0 0.45291937E+03</rscale>
<asrwt>0</asrwt>
<pdfrwt beam="1">  1        2 0.31386749E+00 0.45291937E+03</pdfrwt>
<pdfrwt beam="2">  1       -2 0.33345665E-02 0.45291937E+03</pdfrwt>
<totfact> 0.25362597E+03</totfact>
</mgrwt>
</event>
<event>
 4    1  0.5312547E-005  0.3968088E+03  0.7818608E-02  0.1044890E+00
          2   -1    0    0  501    0  0.00000000000E+00  0.00000000000E+00  0.31190583790E+03  0.31190583791E+03  0.25500000000E-02 0.  1.
         -2   -1    0    0    0  501 -0.00000000000E+00 -0.00000000000E+00 -0.12620572242E+03  0.12620572244E+03  0.25500000000E-02 0. -1.
    5000001    1    1    2    0    0  0.70975222868E+02 -0.29831612747E+02  0.58307812725E+01  0.18217136271E+03  0.16500000000E+03 0.  0.
   -5000001    1    1    2    0    0 -0.70975222868E+02  0.29831612747E+02  0.17986933421E+03  0.25594019764E+03  0.16500000000E+03 0.  0.
<mgrwt>
<rscale>  0 0.39680878E+03</rscale>
<asrwt>0</asrwt>
<pdfrwt beam="1">  1        2 0.44557977E-01 0.39680878E+03</pdfrwt>
<pdfrwt beam="2">  1       -2 0.18029389E-01 0.39680878E+03</pdfrwt>
<totfact> 0.28726671E+03</totfact>
</mgrwt>
</event>
<event>
 4    1  0.5312547E-005  0.4464150E+03  0.7818608E-02  0.1028797E+00
          2   -1    0    0  501    0  0.00000000000E+00  0.00000000000E+00  0.37064695847E+03  0.37064695848E+03  0.25500000000E-02 0.  1.
         -2   -1    0    0    0  501 -0.00000000000E+00 -0.00000000000E+00 -0.13441789425E+03  0.13441789427E+03  0.25500000000E-02 0. -1.
    5000001    1    1    2    0    0  0.32314922701E+00 -0.13852110647E+03  0.52063054277E+02  0.22163881200E+03  0.16500000000E+03 0.  0.
   -5000001    1    1    2    0    0 -0.32314922701E+00  0.13852110647E+03  0.18416600995E+03  0.28342604076E+03  0.16500000000E+03 0.  0.
<mgrwt>
<rscale>  0 0.44641498E+03</rscale>
<asrwt>0</asrwt>
<pdfrwt beam="1">  1        2 0.52949566E-01 0.44641498E+03</pdfrwt>
<pdfrwt beam="2">  1       -2 0.19202556E-01 0.44641498E+03</pdfrwt>
<totfact> 0.21391478E+03</totfact>
</mgrwt>
</event>
<event>
 4    1  0.5312547E-005  0.4719286E+03  0.7818608E-02  0.1021377E+00
          2   -1    0    0  501    0  0.00000000000E+00  0.00000000000E+00  0.40890697502E+04  0.40890697502E+04  0.25500000000E-02 0. -1.
         -2   -1    0    0    0  501 -0.00000000000E+00 -0.00000000000E+00 -0.13616583720E+02  0.13616583959E+02  0.25500000000E-02 0.  1.
    5000001    1    1    2    0    0 -0.13130461428E+03 -0.10150749308E+03  0.17755520446E+04  0.17909089134E+04  0.16500000000E+03 0.  0.
   -5000001    1    1    2    0    0  0.13130461428E+03  0.10150749308E+03  0.22999011219E+04  0.23117774208E+04  0.16500000000E+03 0.  0.
<mgrwt>
<rscale>  0 0.47192864E+03</rscale>
<asrwt>0</asrwt>
<pdfrwt beam="1">  1        2 0.58415341E+00 0.47192864E+03</pdfrwt>
<pdfrwt beam="2">  1       -2 0.19452243E-02 0.47192864E+03</pdfrwt>
<totfact> 0.48835175E+02</totfact>
</mgrwt>
</event>
<event>
 4    1  0.5312547E-005  0.4678997E+03  0.7818608E-02  0.1022515E+00
         -2   -1    0    0    0  501 -0.00000000000E+00  0.00000000000E+00  0.55318667564E+02  0.55318667623E+02  0.25500000000E-02 0. -1.
          2   -1    0    0  501    0  0.00000000000E+00 -0.00000000000E+00 -0.98940428226E+03  0.98940428227E+03  0.25500000000E-02 0.  1.
    5000001    1    1    2    0    0 -0.12531370755E+03 -0.60440149989E+02 -0.66862564758E+03  0.70259646572E+03  0.16500000000E+03 0.  0.
   -5000001    1    1    2    0    0  0.12531370755E+03  0.60440149989E+02 -0.26545996712E+03  0.34212648417E+03  0.16500000000E+03 0.  0.
<mgrwt>
<rscale>  0 0.46789968E+03</rscale>
<asrwt>0</asrwt>
<pdfrwt beam="1">  1        2 0.14134346E+00 0.46789968E+03</pdfrwt>
<pdfrwt beam="2">  1       -2 0.79026674E-02 0.46789968E+03</pdfrwt>
<totfact> 0.28601399E+03</totfact>
</mgrwt>
</event>
<event>
 4    1  0.5312547E-005  0.5507062E+03  0.7818608E-02  0.1001331E+00
          2   -1    0    0  501    0  0.00000000000E+00  0.00000000000E+00  0.14266413036E+04  0.14266413036E+04  0.25500000000E-02 0.  1.
         -2   -1    0    0    0  501 -0.00000000000E+00 -0.00000000000E+00 -0.53145343768E+02  0.53145343830E+02  0.25500000000E-02 0. -1.
    5000001    1    1    2    0    0 -0.20875033593E+03 -0.50465338084E+02  0.82031700620E+03  0.86386830232E+03  0.16500000000E+03 0.  0.
   -5000001    1    1    2    0    0  0.20875033593E+03  0.50465338084E+02  0.55317895365E+03  0.61591834512E+03  0.16500000000E+03 0.  0.
<mgrwt>
<rscale>  0 0.55070625E+03</rscale>
<asrwt>0</asrwt>
<pdfrwt beam="1">  1        2 0.20380589E+00 0.55070625E+03</pdfrwt>
<pdfrwt beam="2">  1       -2 0.75921925E-02 0.55070625E+03</pdfrwt>
<totfact> 0.17340661E+03</totfact>
</mgrwt>
</event>
<event>
 4    1  0.5312547E-005  0.4850748E+03  0.7818608E-02  0.1017750E+00
         -2   -1    0    0    0  501 -0.00000000000E+00  0.00000000000E+00  0.83732193438E+02  0.83732193477E+02  0.25500000000E-02 0. -1.
          2   -1    0    0  501    0  0.00000000000E+00 -0.00000000000E+00 -0.70253008661E+03  0.70253008662E+03  0.25500000000E-02 0.  1.
    5000001    1    1    2    0    0 -0.15550541401E+03 -0.81282265347E+02 -0.26324870105E+03  0.35681034045E+03  0.16500000000E+03 0.  0.
   -5000001    1    1    2    0    0  0.15550541401E+03  0.81282265347E+02 -0.35554919212E+03  0.42945193965E+03  0.16500000000E+03 0.  0.
<mgrwt>
<rscale>  0 0.48507478E+03</rscale>
<asrwt>0</asrwt>
<pdfrwt beam="1">  1        2 0.10036144E+00 0.48507478E+03</pdfrwt>
<pdfrwt beam="2">  1       -2 0.11961742E-01 0.48507478E+03</pdfrwt>
<totfact> 0.22839944E+03</totfact>
</mgrwt>
</event>
<event>
 4    1  0.5312547E-005  0.3635700E+03  0.7818608E-02  0.1057179E+00
          2   -1    0    0  501    0  0.00000000000E+00  0.00000000000E+00  0.17281374119E+04  0.17281374119E+04  0.25500000000E-02 0.  1.
         -2   -1    0    0    0  501 -0.00000000000E+00 -0.00000000000E+00 -0.19122199685E+02  0.19122199855E+02  0.25500000000E-02 0. -1.
    5000001    1    1    2    0    0  0.58315998685E+02 -0.33466687159E+02  0.10277855919E+04  0.10431150453E+04  0.16500000000E+03 0.  0.
   -5000001    1    1    2    0    0 -0.58315998685E+02  0.33466687159E+02  0.68122962035E+03  0.70414456647E+03  0.16500000000E+03 0.  0.
<mgrwt>
<rscale>  0 0.36357001E+03</rscale>
<asrwt>0</asrwt>
<pdfrwt beam="1">  1        2 0.24687667E+00 0.36357001E+03</pdfrwt>
<pdfrwt beam="2">  1       -2 0.27317440E-02 0.36357001E+03</pdfrwt>
<totfact> 0.58606255E+03</totfact>
</mgrwt>
</event>
<event>
 4    1  0.5312547E-005  0.4122303E+03  0.7818608E-02  0.1039625E+00
          2   -1    0    0  501    0  0.00000000000E+00  0.00000000000E+00  0.12346652931E+04  0.12346652931E+04  0.25500000000E-02 0.  1.
         -2   -1    0    0    0  501 -0.00000000000E+00 -0.00000000000E+00 -0.34408881237E+02  0.34408881331E+02  0.25500000000E-02 0. -1.
    5000001    1    1    2    0    0  0.11525935645E+03  0.44261604735E+02  0.61190850054E+03  0.64567857479E+03  0.16500000000E+03 0.  0.
   -5000001    1    1    2    0    0 -0.11525935645E+03 -0.44261604735E+02  0.58834791133E+03  0.62339559966E+03  0.16500000000E+03 0.  0.
<mgrwt>
<rscale>  0 0.41223028E+03</rscale>
<asrwt>0</asrwt>
<pdfrwt beam="1">  1        2 0.17638073E+00 0.41223028E+03</pdfrwt>
<pdfrwt beam="2">  1       -2 0.49155551E-02 0.41223028E+03</pdfrwt>
<totfact> 0.43327825E+03</totfact>
</mgrwt>
</event>
<event>
 4    1  0.5312547E-005  0.3861923E+03  0.7818608E-02  0.1048668E+00
         -2   -1    0    0    0  501 -0.00000000000E+00  0.00000000000E+00  0.10887360745E+03  0.10887360748E+03  0.25500000000E-02 0. -1.
          2   -1    0    0  501    0  0.00000000000E+00 -0.00000000000E+00 -0.34247164475E+03  0.34247164476E+03  0.25500000000E-02 0.  1.
    5000001    1    1    2    0    0  0.12134601219E+02 -0.67670817332E+02 -0.31439183964E+02  0.18149383007E+03  0.16500000000E+03 0.  0.
   -5000001    1    1    2    0    0 -0.12134601219E+02  0.67670817332E+02 -0.20215885334E+03  0.26985142217E+03  0.16500000000E+03 0.  0.
<mgrwt>
<rscale>  0 0.38619230E+03</rscale>
<asrwt>0</asrwt>
<pdfrwt beam="1">  1        2 0.48924520E-01 0.38619230E+03</pdfrwt>
<pdfrwt beam="2">  1       -2 0.15553373E-01 0.38619230E+03</pdfrwt>
<totfact> 0.33273544E+03</totfact>
</mgrwt>
</event>
<event>
 4    1  0.5312547E-005  0.4530619E+03  0.7818608E-02  0.1026813E+00
         -2   -1    0    0    0  501 -0.00000000000E+00  0.00000000000E+00  0.94190902737E+02  0.94190902772E+02  0.25500000000E-02 0. -1.
          2   -1    0    0  501    0  0.00000000000E+00 -0.00000000000E+00 -0.54481130530E+03  0.54481130530E+03  0.25500000000E-02 0.  1.
    5000001    1    1    2    0    0  0.75388895756E+02  0.12440206234E+03 -0.30167973565E+03  0.37335642705E+03  0.16500000000E+03 0.  0.
   -5000001    1    1    2    0    0 -0.75388895756E+02 -0.12440206234E+03 -0.14894066691E+03  0.26564578102E+03  0.16500000000E+03 0.  0.
<mgrwt>
<rscale>  0 0.45306189E+03</rscale>
<asrwt>0</asrwt>
<pdfrwt beam="1">  1        2 0.77830185E-01 0.45306189E+03</pdfrwt>
<pdfrwt beam="2">  1       -2 0.13455844E-01 0.45306189E+03</pdfrwt>
<totfact> 0.25363572E+03</totfact>
</mgrwt>
</event>
<event>
 4    1  0.5312547E-005  0.4619606E+03  0.7818608E-02  0.1024214E+00
         -2   -1    0    0    0  501 -0.00000000000E+00  0.00000000000E+00  0.71993687364E+02  0.71993687409E+02  0.25500000000E-02 0. -1.
          2   -1    0    0  501    0  0.00000000000E+00 -0.00000000000E+00 -0.74106364122E+03  0.74106364123E+03  0.25500000000E-02 0.  1.
    5000001    1    1    2    0    0  0.28906140448E+02  0.14809604181E+03 -0.43653842428E+03  0.49046793822E+03  0.16500000000E+03 0.  0.
   -5000001    1    1    2    0    0 -0.28906140448E+02 -0.14809604181E+03 -0.23253152959E+03  0.32258939041E+03  0.16500000000E+03 0.  0.
<mgrwt>
<rscale>  0 0.46196062E+03</rscale>
<asrwt>0</asrwt>
<pdfrwt beam="1">  1        2 0.10586623E+00 0.46196062E+03</pdfrwt>
<pdfrwt beam="2">  1       -2 0.10284813E-01 0.46196062E+03</pdfrwt>
<totfact> 0.27341780E+03</totfact>
</mgrwt>
</event>
<event>
 4    1  0.5312547E-005  0.5397295E+03  0.7818608E-02  0.1003899E+00
         -2   -1    0    0    0  501 -0.00000000000E+00  0.00000000000E+00  0.16318912237E+04  0.16318912237E+04  0.25500000000E-02 0. -1.
          2   -1    0    0  501    0  0.00000000000E+00 -0.00000000000E+00 -0.44627355632E+02  0.44627355705E+02  0.25500000000E-02 0.  1.
    5000001    1    1    2    0    0  0.16472631610E+03 -0.88203193260E+02  0.47251087590E+03  0.53423411568E+03  0.16500000000E+03 0.  0.
   -5000001    1    1    2    0    0 -0.16472631610E+03  0.88203193260E+02  0.11147529921E+04  0.11422844637E+04  0.16500000000E+03 0.  0.
<mgrwt>
<rscale>  0 0.53972953E+03</rscale>
<asrwt>0</asrwt>
<pdfrwt beam="1">  1        2 0.63753359E-02 0.53972953E+03</pdfrwt>
<pdfrwt beam="2">  1       -2 0.23312734E+00 0.53972953E+03</pdfrwt>
<totfact> 0.10127294E+02</totfact>
</mgrwt>
</event>
<event>
 4    1  0.5312547E-005  0.4932394E+03  0.7818608E-02  0.1015559E+00
         -2   -1    0    0    0  501 -0.00000000000E+00  0.00000000000E+00  0.41280373359E+02  0.41280373438E+02  0.25500000000E-02 0. -1.
          2   -1    0    0  501    0  0.00000000000E+00 -0.00000000000E+00 -0.14733701644E+04  0.14733701644E+04  0.25500000000E-02 0.  1.
    5000001    1    1    2    0    0  0.13404517949E+03  0.10957343725E+03 -0.53123795825E+03  0.58259180957E+03  0.16500000000E+03 0.  0.
   -5000001    1    1    2    0    0 -0.13404517949E+03 -0.10957343725E+03 -0.90085183275E+03  0.93205872822E+03  0.16500000000E+03 0.  0.
<mgrwt>
<rscale>  0 0.49323938E+03</rscale>
<asrwt>0</asrwt>
<pdfrwt beam="1">  1        2 0.21048142E+00 0.49323938E+03</pdfrwt>
<pdfrwt beam="2">  1       -2 0.58971971E-02 0.49323938E+03</pdfrwt>
<totfact> 0.24409757E+03</totfact>
</mgrwt>
</event>
<event>
 4    1  0.5312547E-005  0.5441965E+03  0.7818608E-02  0.1002846E+00
          2   -1    0    0  501    0  0.00000000000E+00  0.00000000000E+00  0.12082580625E+04  0.12082580625E+04  0.25500000000E-02 0.  1.
         -2   -1    0    0    0  501 -0.00000000000E+00 -0.00000000000E+00 -0.61276197364E+02  0.61276197417E+02  0.25500000000E-02 0. -1.
    5000001    1    1    2    0    0  0.13943533688E+03 -0.20704945348E+02  0.95640381482E+03  0.98071614901E+03  0.16500000000E+03 0.  0.
   -5000001    1    1    2    0    0 -0.13943533688E+03  0.20704945348E+02  0.19057805034E+03  0.28881811094E+03  0.16500000000E+03 0.  0.
<mgrwt>
<rscale>  0 0.54419651E+03</rscale>
<asrwt>0</asrwt>
<pdfrwt beam="1">  1        2 0.17260830E+00 0.54419651E+03</pdfrwt>
<pdfrwt beam="2">  1       -2 0.87537420E-02 0.54419651E+03</pdfrwt>
<totfact> 0.18140003E+03</totfact>
</mgrwt>
</event>
<event>
 4    1  0.5312547E-005  0.3450616E+03  0.7818608E-02  0.1064660E+00
         -2   -1    0    0    0  501 -0.00000000000E+00  0.00000000000E+00  0.25315833956E+02  0.25315834085E+02  0.25500000000E-02 0. -1.
          2   -1    0    0  501    0  0.00000000000E+00 -0.00000000000E+00 -0.11758207775E+04  0.11758207775E+04  0.25500000000E-02 0.  1.
    5000001    1    1    2    0    0  0.31464415531E+02 -0.39343985611E+02 -0.58214875980E+03  0.60717389369E+03  0.16500000000E+03 0.  0.
   -5000001    1    1    2    0    0 -0.31464415531E+02  0.39343985611E+02 -0.56835618379E+03  0.59396271794E+03  0.16500000000E+03 0.  0.
<mgrwt>
<rscale>  0 0.34506164E+03</rscale>
<asrwt>0</asrwt>
<pdfrwt beam="1">  1        2 0.16797436E+00 0.34506164E+03</pdfrwt>
<pdfrwt beam="2">  1       -2 0.36165485E-02 0.34506164E+03</pdfrwt>
<totfact> 0.74278946E+03</totfact>
</mgrwt>
</event>
<event>
 4    1  0.5312547E-005  0.6924320E+03  0.7818608E-02  0.9730263E-01
         -2   -1    0    0    0  501 -0.00000000000E+00  0.00000000000E+00  0.14832836675E+03  0.14832836677E+03  0.25500000000E-02 0.  1.
          2   -1    0    0  501    0  0.00000000000E+00 -0.00000000000E+00 -0.80810918834E+03  0.80810918834E+03  0.25500000000E-02 0. -1.
    5000001    1    1    2    0    0 -0.20045025978E+02 -0.29787262707E+03 -0.24804942478E+03  0.42176228157E+03  0.16500000000E+03 0.  0.
   -5000001    1    1    2    0    0  0.20045025978E+02  0.29787262707E+03 -0.41173139681E+03  0.53467527355E+03  0.16500000000E+03 0.  0.
<mgrwt>
<rscale>  0 0.69243199E+03</rscale>
<asrwt>0</asrwt>
<pdfrwt beam="1">  1        2 0.11544417E+00 0.69243199E+03</pdfrwt>
<pdfrwt beam="2">  1       -2 0.21189767E-01 0.69243199E+03</pdfrwt>
<totfact> 0.72548015E+02</totfact>
</mgrwt>
</event>
<event>
 4    1  0.5312547E-005  0.3546914E+03  0.7818608E-02  0.1060706E+00
         -2   -1    0    0    0  501 -0.00000000000E+00  0.00000000000E+00  0.32064029819E+02  0.32064029921E+02  0.25500000000E-02 0. -1.
          2   -1    0    0  501    0  0.00000000000E+00 -0.00000000000E+00 -0.98089667370E+03  0.98089667370E+03  0.25500000000E-02 0.  1.
    5000001    1    1    2    0    0 -0.16117975184E+02  0.62170156232E+02 -0.50320037890E+03  0.53344216067E+03  0.16500000000E+03 0.  0.
   -5000001    1    1    2    0    0  0.16117975184E+02 -0.62170156232E+02 -0.44563226498E+03  0.47951854296E+03  0.16500000000E+03 0.  0.
<mgrwt>
<rscale>  0 0.35469142E+03</rscale>
<asrwt>0</asrwt>
<pdfrwt beam="1">  1        2 0.14012808E+00 0.35469142E+03</pdfrwt>
<pdfrwt beam="2">  1       -2 0.45805763E-02 0.35469142E+03</pdfrwt>
<totfact> 0.67255641E+03</totfact>
</mgrwt>
</event>
<event>
 4    1  0.5312547E-005  0.5748723E+03  0.7818608E-02  0.9958955E-01
          2   -1    0    0  501    0  0.00000000000E+00  0.00000000000E+00  0.95857992314E+03  0.95857992315E+03  0.25500000000E-02 0.  1.
         -2   -1    0    0    0  501 -0.00000000000E+00 -0.00000000000E+00 -0.86189505776E+02  0.86189505814E+02  0.25500000000E-02 0. -1.
    5000001    1    1    2    0    0  0.20577671903E+03 -0.25067871838E+02  0.63875169233E+03  0.69152091852E+03  0.16500000000E+03 0.  0.
   -5000001    1    1    2    0    0 -0.20577671903E+03  0.25067871838E+02  0.23363872504E+03  0.35324851045E+03  0.16500000000E+03 0.  0.
<mgrwt>
<rscale>  0 0.57487226E+03</rscale>
<asrwt>0</asrwt>
<pdfrwt beam="1">  1        2 0.13693998E+00 0.57487226E+03</pdfrwt>
<pdfrwt beam="2">  1       -2 0.12312787E-01 0.57487226E+03</pdfrwt>
<totfact> 0.14593720E+03</totfact>
</mgrwt>
</event>
<event>
 4    1  0.5312547E-005  0.7869633E+03  0.7818608E-02  0.9579081E-01
         -2   -1    0    0    0  501 -0.00000000000E+00  0.00000000000E+00  0.36797182334E+03  0.36797182335E+03  0.25500000000E-02 0. -1.
          2   -1    0    0  501    0  0.00000000000E+00 -0.00000000000E+00 -0.42076000034E+03  0.42076000035E+03  0.25500000000E-02 0.  1.
    5000001    1    1    2    0    0 -0.11976245134E+02  0.32982268018E+03  0.11057462383E+03  0.38519888142E+03  0.16500000000E+03 0.  0.
   -5000001    1    1    2    0    0  0.11976245134E+02 -0.32982268018E+03 -0.16336280084E+03  0.40353294228E+03  0.16500000000E+03 0.  0.
<mgrwt>
<rscale>  0 0.78696334E+03</rscale>
<asrwt>0</asrwt>
<pdfrwt beam="1">  1        2 0.60108571E-01 0.78696334E+03</pdfrwt>
<pdfrwt beam="2">  1       -2 0.52567404E-01 0.78696334E+03</pdfrwt>
<totfact> 0.28087309E+02</totfact>
</mgrwt>
</event>
<event>
 4    1  0.5312547E-005  0.7190524E+03  0.7818608E-02  0.9685194E-01
          2   -1    0    0  501    0  0.00000000000E+00  0.00000000000E+00  0.35491068699E+03  0.35491068700E+03  0.25500000000E-02 0.  1.
         -2   -1    0    0    0  501 -0.00000000000E+00 -0.00000000000E+00 -0.36420169982E+03  0.36420169983E+03  0.25500000000E-02 0. -1.
    5000001    1    1    2    0    0 -0.35101361281E+02  0.95321686952E+02  0.29822584999E+03  0.35564306147E+03  0.16500000000E+03 0.  0.
   -5000001    1    1    2    0    0  0.35101361281E+02 -0.95321686952E+02 -0.30751686282E+03  0.36346932537E+03  0.16500000000E+03 0.  0.
<mgrwt>
<rscale>  0 0.71905236E+03</rscale>
<asrwt>0</asrwt>
<pdfrwt beam="1">  1        2 0.50701527E-01 0.71905236E+03</pdfrwt>
<pdfrwt beam="2">  1       -2 0.52028814E-01 0.71905236E+03</pdfrwt>
<totfact> 0.34766016E+02</totfact>
</mgrwt>
</event>
<event>
 4    1  0.5312547E-005  0.6042346E+03  0.7818608E-02  0.9896659E-01
          2   -1    0    0  501    0  0.00000000000E+00  0.00000000000E+00  0.17689559469E+04  0.17689559469E+04  0.25500000000E-02 0.  1.
         -2   -1    0    0    0  501 -0.00000000000E+00 -0.00000000000E+00 -0.51598162687E+02  0.51598162750E+02  0.25500000000E-02 0. -1.
    5000001    1    1    2    0    0  0.22764499122E+03  0.72437826640E+02  0.60694713934E+03  0.67281446975E+03  0.16500000000E+03 0.  0.
   -5000001    1    1    2    0    0 -0.22764499122E+03 -0.72437826640E+02  0.11104106449E+04  0.11477396399E+04  0.16500000000E+03 0.  0.
<mgrwt>
<rscale>  0 0.60423465E+03</rscale>
<asrwt>0</asrwt>
<pdfrwt beam="1">  1        2 0.25270801E+00 0.60423465E+03</pdfrwt>
<pdfrwt beam="2">  1       -2 0.73711655E-02 0.60423465E+03</pdfrwt>
<totfact> 0.12091749E+03</totfact>
</mgrwt>
</event>
<event>
 4    1  0.5312547E-005  0.5239776E+03  0.7818608E-02  0.1007703E+00
         -2   -1    0    0    0  501 -0.00000000000E+00  0.00000000000E+00  0.35008647316E+02  0.35008647409E+02  0.25500000000E-02 0. -1.
          2   -1    0    0  501    0  0.00000000000E+00 -0.00000000000E+00 -0.19606051142E+04  0.19606051142E+04  0.25500000000E-02 0.  1.
    5000001    1    1    2    0    0  0.31904962611E+02 -0.13242627154E+03 -0.15386192649E+04  0.15534248892E+04  0.16500000000E+03 0.  0.
   -5000001    1    1    2    0    0 -0.31904962611E+02  0.13242627154E+03 -0.38697720195E+03  0.44218887239E+03  0.16500000000E+03 0.  0.
<mgrwt>
<rscale>  0 0.52397761E+03</rscale>
<asrwt>0</asrwt>
<pdfrwt beam="1">  1        2 0.28008637E+00 0.52397761E+03</pdfrwt>
<pdfrwt beam="2">  1       -2 0.50012366E-02 0.52397761E+03</pdfrwt>
<totfact> 0.17841110E+03</totfact>
</mgrwt>
</event>
<event>
 4    1  0.5312547E-005  0.4563019E+03  0.7818608E-02  0.1025859E+00
         -2   -1    0    0    0  501 -0.00000000000E+00  0.00000000000E+00  0.27604295366E+03  0.27604295367E+03  0.25500000000E-02 0. -1.
          2   -1    0    0  501    0  0.00000000000E+00 -0.00000000000E+00 -0.18856793743E+03  0.18856793745E+03  0.25500000000E-02 0.  1.
    5000001    1    1    2    0    0  0.75754891732E+02  0.13806282232E+03  0.49096801402E+02  0.23331447113E+03  0.16500000000E+03 0.  0.
   -5000001    1    1    2    0    0 -0.75754891732E+02 -0.13806282232E+03  0.38378214821E+02  0.23129641999E+03  0.16500000000E+03 0.  0.
<mgrwt>
<rscale>  0 0.45630188E+03</rscale>
<asrwt>0</asrwt>
<pdfrwt beam="1">  1        2 0.26938277E-01 0.45630188E+03</pdfrwt>
<pdfrwt beam="2">  1       -2 0.39434708E-01 0.45630188E+03</pdfrwt>
<totfact> 0.12211951E+03</totfact>
</mgrwt>
</event>
<event>
 4    1  0.5312547E-005  0.5213951E+03  0.7818608E-02  0.1008341E+00
          2   -1    0    0  501    0  0.00000000000E+00  0.00000000000E+00  0.25823847404E+04  0.25823847404E+04  0.25500000000E-02 0. -1.
         -2   -1    0    0    0  501 -0.00000000000E+00 -0.00000000000E+00 -0.26318001424E+02  0.26318001548E+02  0.25500000000E-02 0.  1.
    5000001    1    1    2    0    0  0.10531813172E+03  0.16884216351E+03  0.14468624094E+04  0.14697739339E+04  0.16500000000E+03 0.  0.
   -5000001    1    1    2    0    0 -0.10531813172E+03 -0.16884216351E+03  0.11092043296E+04  0.11389288080E+04  0.16500000000E+03 0.  0.
<mgrwt>
<rscale>  0 0.52139507E+03</rscale>
<asrwt>0</asrwt>
<pdfrwt beam="1">  1        2 0.36891219E+00 0.52139507E+03</pdfrwt>
<pdfrwt beam="2">  1       -2 0.37597137E-02 0.52139507E+03</pdfrwt>
<totfact> 0.13437114E+03</totfact>
</mgrwt>
</event>
<event>
 4    1  0.5312547E-005  0.8354158E+03  0.7818608E-02  0.9510123E-01
         -2   -1    0    0    0  501 -0.00000000000E+00  0.00000000000E+00  0.14657991077E+03  0.14657991079E+03  0.25500000000E-02 0.  1.
          2   -1    0    0  501    0  0.00000000000E+00 -0.00000000000E+00 -0.11903398528E+04  0.11903398528E+04  0.25500000000E-02 0. -1.
    5000001    1    1    2    0    0 -0.45109353378E+02 -0.36093490252E+03 -0.32623626727E+03  0.51571693757E+03  0.16500000000E+03 0.  0.
   -5000001    1    1    2    0    0  0.45109353378E+02  0.36093490252E+03 -0.71752367479E+03  0.82120282604E+03  0.16500000000E+03 0.  0.
<mgrwt>
<rscale>  0 0.83541585E+03</rscale>
<asrwt>0</asrwt>
<pdfrwt beam="1">  1        2 0.17004855E+00 0.83541585E+03</pdfrwt>
<pdfrwt beam="2">  1       -2 0.20939988E-01 0.83541585E+03</pdfrwt>
<totfact> 0.42701934E+02</totfact>
</mgrwt>
</event>
<event>
 4    1  0.5312547E-005  0.5369264E+03  0.7818608E-02  0.1004566E+00
          2   -1    0    0  501    0  0.00000000000E+00  0.00000000000E+00  0.79004640082E+03  0.79004640083E+03  0.25500000000E-02 0.  1.
         -2   -1    0    0    0  501 -0.00000000000E+00 -0.00000000000E+00 -0.91225644590E+02  0.91225644626E+02  0.25500000000E-02 0. -1.
    5000001    1    1    2    0    0  0.21037488989E+03  0.58222636348E+01  0.38811227823E+03  0.47132540093E+03  0.16500000000E+03 0.  0.
   -5000001    1    1    2    0    0 -0.21037488989E+03 -0.58222636348E+01  0.31070847800E+03  0.40994664452E+03  0.16500000000E+03 0.  0.
<mgrwt>
<rscale>  0 0.53692641E+03</rscale>
<asrwt>0</asrwt>
<pdfrwt beam="1">  1        2 0.11286378E+00 0.53692641E+03</pdfrwt>
<pdfrwt beam="2">  1       -2 0.13032234E-01 0.53692641E+03</pdfrwt>
<totfact> 0.17147574E+03</totfact>
</mgrwt>
</event>
<event>
 4    1  0.5312547E-005  0.4953123E+03  0.7818608E-02  0.1015010E+00
         -2   -1    0    0    0  501 -0.00000000000E+00  0.00000000000E+00  0.39343115298E+03  0.39343115298E+03  0.25500000000E-02 0. -1.
          2   -1    0    0  501    0  0.00000000000E+00 -0.00000000000E+00 -0.15589406299E+03  0.15589406301E+03  0.25500000000E-02 0.  1.
    5000001    1    1    2    0    0  0.90884767010E+02  0.88093038618E+02  0.26792688231E+03  0.33916108060E+03  0.16500000000E+03 0.  0.
   -5000001    1    1    2    0    0 -0.90884767010E+02 -0.88093038618E+02 -0.30389792326E+02  0.21016413539E+03  0.16500000000E+03 0.  0.
<mgrwt>
<rscale>  0 0.49531235E+03</rscale>
<asrwt>0</asrwt>
<pdfrwt beam="1">  1        2 0.22270580E-01 0.49531235E+03</pdfrwt>
<pdfrwt beam="2">  1       -2 0.56204450E-01 0.49531235E+03</pdfrwt>
<totfact> 0.74826505E+02</totfact>
</mgrwt>
</event>
<event>
 4    1  0.5312547E-005  0.3910599E+03  0.7818608E-02  0.1046920E+00
          2   -1    0    0  501    0  0.00000000000E+00  0.00000000000E+00  0.93503272813E+03  0.93503272813E+03  0.25500000000E-02 0.  1.
         -2   -1    0    0    0  501 -0.00000000000E+00 -0.00000000000E+00 -0.40888372864E+02  0.40888372944E+02  0.25500000000E-02 0. -1.
    5000001    1    1    2    0    0  0.39976019472E+02  0.90071781005E+02  0.53691161501E+03  0.57027194407E+03  0.16500000000E+03 0.  0.
   -5000001    1    1    2    0    0 -0.39976019472E+02 -0.90071781005E+02  0.35723274026E+03  0.40564915701E+03  0.16500000000E+03 0.  0.
<mgrwt>
<rscale>  0 0.39105993E+03</rscale>
<asrwt>0</asrwt>
<pdfrwt beam="1">  1        2 0.13357610E+00 0.39105993E+03</pdfrwt>
<pdfrwt beam="2">  1       -2 0.58411962E-02 0.39105993E+03</pdfrwt>
<totfact> 0.49482228E+03</totfact>
</mgrwt>
</event>
<event>
 4    1  0.5312547E-005  0.4395518E+03  0.7818608E-02  0.1030884E+00
         -2   -1    0    0    0  501 -0.00000000000E+00  0.00000000000E+00  0.45001564985E+02  0.45001565057E+02  0.25500000000E-02 0. -1.
          2   -1    0    0  501    0  0.00000000000E+00 -0.00000000000E+00 -0.10733282160E+04  0.10733282160E+04  0.25500000000E-02 0.  1.
    5000001    1    1    2    0    0 -0.21983182316E+02 -0.14106266534E+03 -0.44711310588E+03  0.49751086954E+03  0.16500000000E+03 0.  0.
   -5000001    1    1    2    0    0  0.21983182316E+02  0.14106266534E+03 -0.58121354515E+03  0.62081891153E+03  0.16500000000E+03 0.  0.
<mgrwt>
<rscale>  0 0.43955181E+03</rscale>
<asrwt>0</asrwt>
<pdfrwt beam="1">  1        2 0.15333259E+00 0.43955181E+03</pdfrwt>
<pdfrwt beam="2">  1       -2 0.64287957E-02 0.43955181E+03</pdfrwt>
<totfact> 0.35263052E+03</totfact>
</mgrwt>
</event>
<event>
 4    1  0.5312547E-005  0.4775773E+03  0.7818608E-02  0.1019803E+00
         -2   -1    0    0    0  501 -0.00000000000E+00  0.00000000000E+00  0.37708526711E+03  0.37708526712E+03  0.25500000000E-02 0. -1.
          2   -1    0    0  501    0  0.00000000000E+00 -0.00000000000E+00 -0.15121256403E+03  0.15121256405E+03  0.25500000000E-02 0.  1.
    5000001    1    1    2    0    0  0.14917522578E+03  0.83217040141E+02  0.14040734218E+03  0.27589408384E+03  0.16500000000E+03 0.  0.
   -5000001    1    1    2    0    0 -0.14917522578E+03 -0.83217040141E+02  0.85465360892E+02  0.25240374734E+03  0.16500000000E+03 0.  0.
<mgrwt>
<rscale>  0 0.47757734E+03</rscale>
<asrwt>0</asrwt>
<pdfrwt beam="1">  1        2 0.21601795E-01 0.47757734E+03</pdfrwt>
<pdfrwt beam="2">  1       -2 0.53869323E-01 0.47757734E+03</pdfrwt>
<totfact> 0.84573418E+02</totfact>
</mgrwt>
</event>
<event>
 4    1  0.5312547E-005  0.8205304E+03  0.7818608E-02  0.9530767E-01
         -2   -1    0    0    0  501 -0.00000000000E+00  0.00000000000E+00  0.14916952920E+03  0.14916952922E+03  0.25500000000E-02 0. -1.
          2   -1    0    0  501    0  0.00000000000E+00 -0.00000000000E+00 -0.11283641640E+04  0.11283641640E+04  0.25500000000E-02 0.  1.
    5000001    1    1    2    0    0 -0.99290087597E+02 -0.34983501749E+03 -0.34313132759E+03  0.52650467133E+03  0.16500000000E+03 0.  0.
   -5000001    1    1    2    0    0  0.99290087597E+02  0.34983501749E+03 -0.63606330725E+03  0.75102902193E+03  0.16500000000E+03 0.  0.
<mgrwt>
<rscale>  0 0.82053044E+03</rscale>
<asrwt>0</asrwt>
<pdfrwt beam="1">  1        2 0.16119488E+00 0.82053044E+03</pdfrwt>
<pdfrwt beam="2">  1       -2 0.21309933E-01 0.82053044E+03</pdfrwt>
<totfact> 0.44971439E+02</totfact>
</mgrwt>
</event>
<event>
 4    1  0.5312547E-005  0.6244192E+03  0.7818608E-02  0.9856000E-01
         -2   -1    0    0    0  501 -0.00000000000E+00  0.00000000000E+00  0.90543258436E+02  0.90543258472E+02  0.25500000000E-02 0. -1.
          2   -1    0    0  501    0  0.00000000000E+00 -0.00000000000E+00 -0.10765552375E+04  0.10765552375E+04  0.25500000000E-02 0.  1.
    5000001    1    1    2    0    0 -0.60166235923E+02 -0.22755618322E+03 -0.72075980641E+03  0.77596487743E+03  0.16500000000E+03 0.  0.
   -5000001    1    1    2    0    0  0.60166235923E+02  0.22755618322E+03 -0.26525217268E+03  0.39113361857E+03  0.16500000000E+03 0.  0.
<mgrwt>
<rscale>  0 0.62441915E+03</rscale>
<asrwt>0</asrwt>
<pdfrwt beam="1">  1        2 0.15379360E+00 0.62441915E+03</pdfrwt>
<pdfrwt beam="2">  1       -2 0.12934752E-01 0.62441915E+03</pdfrwt>
<totfact> 0.11402668E+03</totfact>
</mgrwt>
</event>
<event>
 4    1  0.5312547E-005  0.4760425E+03  0.7818608E-02  0.1020229E+00
          2   -1    0    0  501    0  0.00000000000E+00  0.00000000000E+00  0.62387315368E+03  0.62387315369E+03  0.25500000000E-02 0. -1.
         -2   -1    0    0    0  501 -0.00000000000E+00 -0.00000000000E+00 -0.90810304029E+02  0.90810304065E+02  0.25500000000E-02 0.  1.
    5000001    1    1    2    0    0 -0.98721465645E+02  0.14010655844E+03  0.27749558347E+03  0.36551959502E+03  0.16500000000E+03 0.  0.
   -5000001    1    1    2    0    0  0.98721465645E+02 -0.14010655844E+03  0.25556726618E+03  0.34916386273E+03  0.16500000000E+03 0.  0.
<mgrwt>
<rscale>  0 0.47604248E+03</rscale>
<asrwt>0</asrwt>
<pdfrwt beam="1">  1        2 0.89124735E-01 0.47604248E+03</pdfrwt>
<pdfrwt beam="2">  1       -2 0.12972901E-01 0.47604248E+03</pdfrwt>
<totfact> 0.23035019E+03</totfact>
</mgrwt>
</event>
<event>
 4    1  0.5312547E-005  0.3752439E+03  0.7818608E-02  0.1052706E+00
          2   -1    0    0  501    0  0.00000000000E+00  0.00000000000E+00  0.21057314698E+04  0.21057314698E+04  0.25500000000E-02 0.  1.
         -2   -1    0    0    0  501 -0.00000000000E+00 -0.00000000000E+00 -0.16717233730E+02  0.16717233924E+02  0.25500000000E-02 0. -1.
    5000001    1    1    2    0    0  0.50473087060E+02 -0.68470047101E+02  0.89050454665E+03  0.90964774911E+03  0.16500000000E+03 0.  0.
   -5000001    1    1    2    0    0 -0.50473087060E+02  0.68470047101E+02  0.11985096894E+04  0.12128009546E+04  0.16500000000E+03 0.  0.
<mgrwt>
<rscale>  0 0.37524395E+03</rscale>
<asrwt>0</asrwt>
<pdfrwt beam="1">  1        2 0.30081881E+00 0.37524395E+03</pdfrwt>
<pdfrwt beam="2">  1       -2 0.23881761E-02 0.37524395E+03</pdfrwt>
<totfact> 0.46609367E+03</totfact>
</mgrwt>
</event>
<event>
 4    1  0.5312547E-005  0.5017146E+03  0.7818608E-02  0.1013332E+00
          2   -1    0    0  501    0  0.00000000000E+00  0.00000000000E+00  0.80866621178E+03  0.80866621179E+03  0.25500000000E-02 0.  1.
         -2   -1    0    0    0  501 -0.00000000000E+00 -0.00000000000E+00 -0.77818731510E+02  0.77818731552E+02  0.25500000000E-02 0. -1.
    5000001    1    1    2    0    0 -0.11506121310E+03 -0.70244157315E+02  0.59937137809E+03  0.63611663496E+03  0.16500000000E+03 0.  0.
   -5000001    1    1    2    0    0  0.11506121310E+03  0.70244157315E+02  0.13147610218E+03  0.25036830838E+03  0.16500000000E+03 0.  0.
<mgrwt>
<rscale>  0 0.50171458E+03</rscale>
<asrwt>0</asrwt>
<pdfrwt beam="1">  1        2 0.11552375E+00 0.50171458E+03</pdfrwt>
<pdfrwt beam="2">  1       -2 0.11116961E-01 0.50171458E+03</pdfrwt>
<totfact> 0.21611778E+03</totfact>
</mgrwt>
</event>
<event>
 4    1  0.5312547E-005  0.5237101E+03  0.7818608E-02  0.1007769E+00
          2   -1    0    0  501    0  0.00000000000E+00  0.00000000000E+00  0.14357973577E+04  0.14357973577E+04  0.25500000000E-02 0.  1.
         -2   -1    0    0    0  501 -0.00000000000E+00 -0.00000000000E+00 -0.47756084607E+02  0.47756084675E+02  0.25500000000E-02 0. -1.
    5000001    1    1    2    0    0  0.11164491776E+03  0.19632662748E+02  0.21585144177E+03  0.29439238105E+03  0.16500000000E+03 0.  0.
   -5000001    1    1    2    0    0 -0.11164491776E+03 -0.19632662748E+02  0.11721898313E+04  0.11891610613E+04  0.16500000000E+03 0.  0.
<mgrwt>
<rscale>  0 0.52371007E+03</rscale>
<asrwt>0</asrwt>
<pdfrwt beam="1">  1        2 0.20511387E+00 0.52371007E+03</pdfrwt>
<pdfrwt beam="2">  1       -2 0.68222989E-02 0.52371007E+03</pdfrwt>
<totfact> 0.20317452E+03</totfact>
</mgrwt>
</event>
<event>
 4    1  0.5312547E-005  0.8977099E+03  0.7818608E-02  0.9428449E-01
         -2   -1    0    0    0  501 -0.00000000000E+00  0.00000000000E+00  0.38591009265E+02  0.38591009349E+02  0.25500000000E-02 0. -1.
          2   -1    0    0  501    0  0.00000000000E+00 -0.00000000000E+00 -0.52206656691E+04  0.52206656691E+04  0.25500000000E-02 0.  1.
    5000001    1    1    2    0    0  0.36309653157E+01 -0.40605040791E+03 -0.31577006568E+04  0.31879756203E+04  0.16500000000E+03 0.  0.
   -5000001    1    1    2    0    0 -0.36309653157E+01  0.40605040791E+03 -0.20243740030E+04  0.20712810581E+04  0.16500000000E+03 0.  0.
<mgrwt>
<rscale>  0 0.89770988E+03</rscale>
<asrwt>0</asrwt>
<pdfrwt beam="1">  1        2 0.74580893E+00 0.89770988E+03</pdfrwt>
<pdfrwt beam="2">  1       -2 0.55130047E-02 0.89770988E+03</pdfrwt>
<totfact> 0.10471663E+01</totfact>
</mgrwt>
</event>
<event>
 4    1  0.5312547E-005  0.4099415E+03  0.7818608E-02  0.1040391E+00
          2   -1    0    0  501    0  0.00000000000E+00  0.00000000000E+00  0.64634788867E+03  0.64634788868E+03  0.25500000000E-02 0.  1.
         -2   -1    0    0    0  501 -0.00000000000E+00 -0.00000000000E+00 -0.65000621676E+02  0.65000621726E+02  0.25500000000E-02 0. -1.
    5000001    1    1    2    0    0  0.82593147216E+02 -0.52184263839E+02  0.41632241310E+03  0.45836031352E+03  0.16500000000E+03 0.  0.
   -5000001    1    1    2    0    0 -0.82593147216E+02  0.52184263839E+02  0.16502485390E+03  0.25298819689E+03  0.16500000000E+03 0.  0.
<mgrwt>
<rscale>  0 0.40994153E+03</rscale>
<asrwt>0</asrwt>
<pdfrwt beam="1">  1        2 0.92335414E-01 0.40994153E+03</pdfrwt>
<pdfrwt beam="2">  1       -2 0.92858030E-02 0.40994153E+03</pdfrwt>
<totfact> 0.37942688E+03</totfact>
</mgrwt>
</event>
<event>
 4    1  0.5312547E-005  0.4067055E+03  0.7818608E-02  0.1041482E+00
          2   -1    0    0  501    0  0.00000000000E+00  0.00000000000E+00  0.41285722639E+03  0.41285722639E+03  0.25500000000E-02 0.  1.
         -2   -1    0    0    0  501 -0.00000000000E+00 -0.00000000000E+00 -0.10016137857E+03  0.10016137860E+03  0.25500000000E-02 0. -1.
    5000001    1    1    2    0    0 -0.87830642527E+00 -0.11782277016E+03  0.13662918782E+03  0.24449030973E+03  0.16500000000E+03 0.  0.
   -5000001    1    1    2    0    0  0.87830642527E+00  0.11782277016E+03  0.17606666000E+03  0.26852829526E+03  0.16500000000E+03 0.  0.
<mgrwt>
<rscale>  0 0.40670554E+03</rscale>
<asrwt>0</asrwt>
<pdfrwt beam="1">  1        2 0.58979604E-01 0.40670554E+03</pdfrwt>
<pdfrwt beam="2">  1       -2 0.14308768E-01 0.40670554E+03</pdfrwt>
<totfact> 0.31194611E+03</totfact>
</mgrwt>
</event>
<event>
 4    1  0.5312547E-005  0.6472248E+03  0.7818608E-02  0.9812001E-01
         -2   -1    0    0    0  501 -0.00000000000E+00  0.00000000000E+00  0.45519206059E+03  0.45519206060E+03  0.25500000000E-02 0. -1.
          2   -1    0    0  501    0  0.00000000000E+00 -0.00000000000E+00 -0.23006766529E+03  0.23006766531E+03  0.25500000000E-02 0.  1.
    5000001    1    1    2    0    0  0.13190320202E+03  0.11259672107E+03 -0.11800465675E+03  0.26688307424E+03  0.16500000000E+03 0.  0.
   -5000001    1    1    2    0    0 -0.13190320202E+03 -0.11259672107E+03  0.34312905205E+03  0.41837665167E+03  0.16500000000E+03 0.  0.
<mgrwt>
<rscale>  0 0.64722477E+03</rscale>
<asrwt>0</asrwt>
<pdfrwt beam="1">  1        2 0.32866810E-01 0.64722477E+03</pdfrwt>
<pdfrwt beam="2">  1       -2 0.65027437E-01 0.64722477E+03</pdfrwt>
<totfact> 0.35342266E+02</totfact>
</mgrwt>
</event>
<event>
 4    1  0.5312547E-005  0.7398176E+03  0.7818608E-02  0.9651462E-01
         -2   -1    0    0    0  501 -0.00000000000E+00  0.00000000000E+00  0.47320052318E+02  0.47320052387E+02  0.25500000000E-02 0. -1.
          2   -1    0    0  501    0  0.00000000000E+00 -0.00000000000E+00 -0.28916392511E+04  0.28916392511E+04  0.25500000000E-02 0.  1.
    5000001    1    1    2    0    0 -0.32433733440E+03  0.54858793474E+02 -0.12733440334E+04  0.13254562313E+04  0.16500000000E+03 0.  0.
   -5000001    1    1    2    0    0  0.32433733440E+03 -0.54858793474E+02 -0.15709751654E+04  0.16135030722E+04  0.16500000000E+03 0.  0.
<mgrwt>
<rscale>  0 0.73981760E+03</rscale>
<asrwt>0</asrwt>
<pdfrwt beam="1">  1        2 0.41309121E+00 0.73981760E+03</pdfrwt>
<pdfrwt beam="2">  1       -2 0.67600093E-02 0.73981760E+03</pdfrwt>
<totfact> 0.36440160E+02</totfact>
</mgrwt>
</event>
<event>
 4    1  0.5312547E-005  0.1527809E+04  0.7818608E-02  0.8866168E-01
          2   -1    0    0  501    0  0.00000000000E+00  0.00000000000E+00  0.24996343449E+04  0.24996343449E+04  0.25500000000E-02 0.  1.
         -2   -1    0    0    0  501 -0.00000000000E+00 -0.00000000000E+00 -0.23345406881E+03  0.23345406882E+03  0.25500000000E-02 0. -1.
    5000001    1    1    2    0    0 -0.38372007251E+03  0.55676476487E+03  0.56995277854E+03  0.89961061977E+03  0.16500000000E+03 0.  0.
   -5000001    1    1    2    0    0  0.38372007251E+03 -0.55676476487E+03  0.16962274975E+04  0.18334777939E+04  0.16500000000E+03 0.  0.
<mgrwt>
<rscale>  0 0.15278086E+04</rscale>
<asrwt>0</asrwt>
<pdfrwt beam="1">  1        2 0.35709065E+00 0.15278086E+04</pdfrwt>
<pdfrwt beam="2">  1       -2 0.33350579E-01 0.15278086E+04</pdfrwt>
<totfact> 0.35823176E+01</totfact>
</mgrwt>
</event>
<event>
 4    1  0.5312547E-005  0.5630865E+03  0.7818608E-02  0.9985095E-01
          2   -1    0    0  501    0  0.00000000000E+00  0.00000000000E+00  0.82860129019E+03  0.82860129019E+03  0.25500000000E-02 0.  1.
         -2   -1    0    0    0  501 -0.00000000000E+00 -0.00000000000E+00 -0.95663125780E+02  0.95663125814E+02  0.25500000000E-02 0. -1.
    5000001    1    1    2    0    0 -0.21323336143E+03 -0.47249405537E+02  0.25832646642E+03  0.37637552525E+03  0.16500000000E+03 0.  0.
   -5000001    1    1    2    0    0  0.21323336143E+03  0.47249405537E+02  0.47461169799E+03  0.54788889076E+03  0.16500000000E+03 0.  0.
<mgrwt>
<rscale>  0 0.56308646E+03</rscale>
<asrwt>0</asrwt>
<pdfrwt beam="1">  1        2 0.11837161E+00 0.56308646E+03</pdfrwt>
<pdfrwt beam="2">  1       -2 0.13666161E-01 0.56308646E+03</pdfrwt>
<totfact> 0.14907490E+03</totfact>
</mgrwt>
</event>
<event>
 4    1  0.5312547E-005  0.4105643E+03  0.7818608E-02  0.1040182E+00
         -2   -1    0    0    0  501 -0.00000000000E+00  0.00000000000E+00  0.16388238937E+02  0.16388239135E+02  0.25500000000E-02 0. -1.
          2   -1    0    0  501    0  0.00000000000E+00 -0.00000000000E+00 -0.25714031307E+04  0.25714031307E+04  0.25500000000E-02 0.  1.
    5000001    1    1    2    0    0  0.98574417989E+02 -0.28452816514E+02 -0.85992214898E+03  0.88159944473E+03  0.16500000000E+03 0.  0.
   -5000001    1    1    2    0    0 -0.98574417989E+02  0.28452816514E+02 -0.16950927428E+04  0.17061919251E+04  0.16500000000E+03 0.  0.
<mgrwt>
<rscale>  0 0.41056434E+03</rscale>
<asrwt>0</asrwt>
<pdfrwt beam="1">  1        2 0.36734305E+00 0.41056434E+03</pdfrwt>
<pdfrwt beam="2">  1       -2 0.23411787E-02 0.41056434E+03</pdfrwt>
<totfact> 0.28039887E+03</totfact>
</mgrwt>
</event>
<event>
 4    1  0.5312547E-005  0.7413772E+03  0.7818608E-02  0.9648976E-01
          2   -1    0    0  501    0  0.00000000000E+00  0.00000000000E+00  0.51651155501E+03  0.51651155502E+03  0.25500000000E-02 0.  1.
         -2   -1    0    0    0  501 -0.00000000000E+00 -0.00000000000E+00 -0.26603481476E+03  0.26603481477E+03  0.25500000000E-02 0. -1.
    5000001    1    1    2    0    0 -0.32860545936E+00  0.29971340537E+03 -0.25361924853E+02  0.34306917753E+03  0.16500000000E+03 0.  0.
   -5000001    1    1    2    0    0  0.32860545936E+00 -0.29971340537E+03  0.27583866511E+03  0.43947719225E+03  0.16500000000E+03 0.  0.
<mgrwt>
<rscale>  0 0.74137725E+03</rscale>
<asrwt>0</asrwt>
<pdfrwt beam="1">  1        2 0.73787364E-01 0.74137725E+03</pdfrwt>
<pdfrwt beam="2">  1       -2 0.38004974E-01 0.74137725E+03</pdfrwt>
<totfact> 0.42506690E+02</totfact>
</mgrwt>
</event>
<event>
 4    1  0.5312547E-005  0.5719806E+03  0.7818608E-02  0.9965305E-01
          2   -1    0    0  501    0  0.00000000000E+00  0.00000000000E+00  0.77219842821E+03  0.77219842822E+03  0.25500000000E-02 0.  1.
         -2   -1    0    0    0  501 -0.00000000000E+00 -0.00000000000E+00 -0.10591896920E+03  0.10591896923E+03  0.25500000000E-02 0. -1.
    5000001    1    1    2    0    0 -0.49379935995E+02 -0.22808835750E+03  0.34870423659E+03  0.45086840821E+03  0.16500000000E+03 0.  0.
   -5000001    1    1    2    0    0  0.49379935995E+02  0.22808835750E+03  0.31757522242E+03  0.42724898923E+03  0.16500000000E+03 0.  0.
<mgrwt>
<rscale>  0 0.57198063E+03</rscale>
<asrwt>0</asrwt>
<pdfrwt beam="1">  1        2 0.11031406E+00 0.57198063E+03</pdfrwt>
<pdfrwt beam="2">  1       -2 0.15131282E-01 0.57198063E+03</pdfrwt>
<totfact> 0.13751852E+03</totfact>
</mgrwt>
</event>
<event>
 4    1  0.5312547E-005  0.4727934E+03  0.7818608E-02  0.1021135E+00
         -2   -1    0    0    0  501 -0.00000000000E+00  0.00000000000E+00  0.84674376142E+02  0.84674376180E+02  0.25500000000E-02 0. -1.
          2   -1    0    0  501    0  0.00000000000E+00 -0.00000000000E+00 -0.65998001064E+03  0.65998001065E+03  0.25500000000E-02 0.  1.
    5000001    1    1    2    0    0  0.99020372330E+02  0.32279163868E+02 -0.49785276325E+03  0.53472362248E+03  0.16500000000E+03 0.  0.
   -5000001    1    1    2    0    0 -0.99020372330E+02 -0.32279163868E+02 -0.77452871248E+02  0.20993076435E+03  0.16500000000E+03 0.  0.
<mgrwt>
<rscale>  0 0.47279338E+03</rscale>
<asrwt>0</asrwt>
<pdfrwt beam="1">  1        2 0.94282856E-01 0.47279338E+03</pdfrwt>
<pdfrwt beam="2">  1       -2 0.12096340E-01 0.47279338E+03</pdfrwt>
<totfact> 0.24174079E+03</totfact>
</mgrwt>
</event>
<event>
 4    1  0.5312547E-005  0.7045846E+03  0.7818608E-02  0.9709424E-01
         -2   -1    0    0    0  501 -0.00000000000E+00  0.00000000000E+00  0.59982719584E+02  0.59982719639E+02  0.25500000000E-02 0. -1.
          2   -1    0    0  501    0  0.00000000000E+00 -0.00000000000E+00 -0.20690936845E+04  0.20690936845E+04  0.25500000000E-02 0.  1.
    5000001    1    1    2    0    0  0.26302937339E+03  0.58082881200E+02 -0.14758588424E+04  0.15092853921E+04  0.16500000000E+03 0.  0.
   -5000001    1    1    2    0    0 -0.26302937339E+03 -0.58082881200E+02 -0.53325212261E+03  0.61979101205E+03  0.16500000000E+03 0.  0.
<mgrwt>
<rscale>  0 0.70458460E+03</rscale>
<asrwt>0</asrwt>
<pdfrwt beam="1">  1        2 0.29558477E+00 0.70458460E+03</pdfrwt>
<pdfrwt beam="2">  1       -2 0.85689613E-02 0.70458460E+03</pdfrwt>
<totfact> 0.66718769E+02</totfact>
</mgrwt>
</event>
<event>
 4    1  0.5312547E-005  0.5844774E+03  0.7818608E-02  0.9938144E-01
          2   -1    0    0  501    0  0.00000000000E+00  0.00000000000E+00  0.55564049282E+02  0.55564049340E+02  0.25500000000E-02 0.  1.
         -2   -1    0    0    0  501 -0.00000000000E+00 -0.00000000000E+00 -0.15370271485E+04  0.15370271485E+04  0.25500000000E-02 0. -1.
    5000001    1    1    2    0    0  0.18011076031E+03 -0.15588550227E+03 -0.63739408767E+03  0.70016883592E+03  0.16500000000E+03 0.  0.
   -5000001    1    1    2    0    0 -0.18011076031E+03  0.15588550227E+03 -0.84406901151E+03  0.89242236189E+03  0.16500000000E+03 0.  0.
<mgrwt>
<rscale>  0 0.58447738E+03</rscale>
<asrwt>0</asrwt>
<pdfrwt beam="1">  1        2 0.79377223E-02 0.58447738E+03</pdfrwt>
<pdfrwt beam="2">  1       -2 0.21957528E+00 0.58447738E+03</pdfrwt>
<totfact> 0.91799619E+01</totfact>
</mgrwt>
</event>
<event>
 4    1  0.5312547E-005  0.6413083E+03  0.7818608E-02  0.9823227E-01
         -2   -1    0    0    0  501 -0.00000000000E+00  0.00000000000E+00  0.23825308423E+03  0.23825308424E+03  0.25500000000E-02 0. -1.
          2   -1    0    0  501    0  0.00000000000E+00 -0.00000000000E+00 -0.43155403075E+03  0.43155403076E+03  0.25500000000E-02 0.  1.
    5000001    1    1    2    0    0 -0.35193647926E+02  0.25454101150E+03  0.54930540747E+01  0.30542575699E+03  0.16500000000E+03 0.  0.
   -5000001    1    1    2    0    0  0.35193647926E+02 -0.25454101150E+03 -0.19879400060E+03  0.36438135801E+03  0.16500000000E+03 0.  0.
<mgrwt>
<rscale>  0 0.64130828E+03</rscale>
<asrwt>0</asrwt>
<pdfrwt beam="1">  1        2 0.61650575E-01 0.64130828E+03</pdfrwt>
<pdfrwt beam="2">  1       -2 0.34036155E-01 0.64130828E+03</pdfrwt>
<totfact> 0.64487257E+02</totfact>
</mgrwt>
</event>
<event>
 4    1  0.5312547E-005  0.9768540E+03  0.7818608E-02  0.9334302E-01
          2   -1    0    0  501    0  0.00000000000E+00  0.00000000000E+00  0.27842905134E+03  0.27842905135E+03  0.25500000000E-02 0.  1.
         -2   -1    0    0    0  501 -0.00000000000E+00 -0.00000000000E+00 -0.85681050440E+03  0.85681050441E+03  0.25500000000E-02 0. -1.
    5000001    1    1    2    0    0  0.14494923604E+03  0.33419461949E+03 -0.61508635376E+03  0.73365696842E+03  0.16500000000E+03 0.  0.
   -5000001    1    1    2    0    0 -0.14494923604E+03 -0.33419461949E+03  0.36704900700E+02  0.40158258734E+03  0.16500000000E+03 0.  0.
<mgrwt>
<rscale>  0 0.97685400E+03</rscale>
<asrwt>0</asrwt>
<pdfrwt beam="1">  1        2 0.39775579E-01 0.97685400E+03</pdfrwt>
<pdfrwt beam="2">  1       -2 0.12240150E+00 0.97685400E+03</pdfrwt>
<totfact> 0.65479401E+01</totfact>
</mgrwt>
</event>
<event>
 4    1  0.5312547E-005  0.5637457E+03  0.7818608E-02  0.9983615E-01
          2   -1    0    0  501    0  0.00000000000E+00  0.00000000000E+00  0.42297177171E+03  0.42297177172E+03  0.25500000000E-02 0.  1.
         -2   -1    0    0    0  501 -0.00000000000E+00 -0.00000000000E+00 -0.18784304230E+03  0.18784304232E+03  0.25500000000E-02 0. -1.
    5000001    1    1    2    0    0 -0.43935136609E+02 -0.14122262466E+03 -0.71203648357E+02  0.23274253046E+03  0.16500000000E+03 0.  0.
   -5000001    1    1    2    0    0  0.43935136609E+02  0.14122262466E+03  0.30633237776E+03  0.37807228358E+03  0.16500000000E+03 0.  0.
<mgrwt>
<rscale>  0 0.56374570E+03</rscale>
<asrwt>0</asrwt>
<pdfrwt beam="1">  1        2 0.60424540E-01 0.56374570E+03</pdfrwt>
<pdfrwt beam="2">  1       -2 0.26834720E-01 0.56374570E+03</pdfrwt>
<totfact> 0.10248073E+03</totfact>
</mgrwt>
</event>
<event>
 4    1  0.5312547E-005  0.9206490E+03  0.7818608E-02  0.9400131E-01
          2   -1    0    0  501    0  0.00000000000E+00  0.00000000000E+00  0.80157725296E+03  0.80157725297E+03  0.25500000000E-02 0.  1.
         -2   -1    0    0    0  501 -0.00000000000E+00 -0.00000000000E+00 -0.26435209370E+03  0.26435209371E+03  0.25500000000E-02 0. -1.
    5000001    1    1    2    0    0 -0.39639925341E+03  0.14926801152E+03  0.35258570982E+03  0.57528687638E+03  0.16500000000E+03 0.  0.
   -5000001    1    1    2    0    0  0.39639925341E+03 -0.14926801152E+03  0.18463944944E+03  0.49064247030E+03  0.16500000000E+03 0.  0.
<mgrwt>
<rscale>  0 0.92064896E+03</rscale>
<asrwt>0</asrwt>
<pdfrwt beam="1">  1        2 0.11451104E+00 0.92064896E+03</pdfrwt>
<pdfrwt beam="2">  1       -2 0.37764585E-01 0.92064896E+03</pdfrwt>
<totfact> 0.25087523E+02</totfact>
</mgrwt>
</event>
<event>
 4    1  0.5312547E-005  0.4149881E+03  0.7818608E-02  0.1038710E+00
         -2   -1    0    0    0  501 -0.00000000000E+00  0.00000000000E+00  0.16695293841E+02  0.16695294035E+02  0.25500000000E-02 0. -1.
          2   -1    0    0  501    0  0.00000000000E+00 -0.00000000000E+00 -0.25787970382E+04  0.25787970382E+04  0.25500000000E-02 0.  1.
    5000001    1    1    2    0    0 -0.10214269322E+03 -0.19572451030E+02 -0.83824425597E+03  0.86063618520E+03  0.16500000000E+03 0.  0.
   -5000001    1    1    2    0    0  0.10214269322E+03  0.19572451030E+02 -0.17238574884E+04  0.17348561471E+04  0.16500000000E+03 0.  0.
<mgrwt>
<rscale>  0 0.41498807E+03</rscale>
<asrwt>0</asrwt>
<pdfrwt beam="1">  1        2 0.36839932E+00 0.41498807E+03</pdfrwt>
<pdfrwt beam="2">  1       -2 0.23850436E-02 0.41498807E+03</pdfrwt>
<totfact> 0.27030004E+03</totfact>
</mgrwt>
</event>
<event>
 4    1  0.5312547E-005  0.5302373E+03  0.7818608E-02  0.1006175E+00
         -2   -1    0    0    0  501 -0.00000000000E+00  0.00000000000E+00  0.48990389914E+02  0.48990389980E+02  0.25500000000E-02 0. -1.
          2   -1    0    0  501    0  0.00000000000E+00 -0.00000000000E+00 -0.14347282929E+04  0.14347282929E+04  0.25500000000E-02 0.  1.
    5000001    1    1    2    0    0 -0.18699672008E+03 -0.13873172777E+02 -0.44411616916E+03  0.50953352191E+03  0.16500000000E+03 0.  0.
   -5000001    1    1    2    0    0  0.18699672008E+03  0.13873172777E+02 -0.94162173383E+03  0.97418516098E+03  0.16500000000E+03 0.  0.
<mgrwt>
<rscale>  0 0.53023730E+03</rscale>
<asrwt>0</asrwt>
<pdfrwt beam="1">  1        2 0.20496116E+00 0.53023730E+03</pdfrwt>
<pdfrwt beam="2">  1       -2 0.69986280E-02 0.53023730E+03</pdfrwt>
<totfact> 0.19539667E+03</totfact>
</mgrwt>
</event>
<event>
 4    1  0.5312547E-005  0.4761295E+03  0.7818608E-02  0.1020204E+00
         -2   -1    0    0    0  501 -0.00000000000E+00  0.00000000000E+00  0.10202323946E+03  0.10202323949E+03  0.25500000000E-02 0. -1.
          2   -1    0    0  501    0  0.00000000000E+00 -0.00000000000E+00 -0.55550891055E+03  0.55550891056E+03  0.25500000000E-02 0.  1.
    5000001    1    1    2    0    0 -0.76247908966E+02 -0.15368179510E+03 -0.22088689008E+03  0.32472735638E+03  0.16500000000E+03 0.  0.
   -5000001    1    1    2    0    0  0.76247908966E+02  0.15368179510E+03 -0.23259878101E+03  0.33280479368E+03  0.16500000000E+03 0.  0.
<mgrwt>
<rscale>  0 0.47612947E+03</rscale>
<asrwt>0</asrwt>
<pdfrwt beam="1">  1        2 0.79358414E-01 0.47612947E+03</pdfrwt>
<pdfrwt beam="2">  1       -2 0.14574749E-01 0.47612947E+03</pdfrwt>
<totfact> 0.21730413E+03</totfact>
</mgrwt>
</event>
<event>
 4    1  0.5312547E-005  0.4486741E+03  0.7818608E-02  0.1028118E+00
          2   -1    0    0  501    0  0.00000000000E+00  0.00000000000E+00  0.24968285156E+04  0.24968285156E+04  0.25500000000E-02 0.  1.
         -2   -1    0    0    0  501 -0.00000000000E+00 -0.00000000000E+00 -0.20156417322E+02  0.20156417483E+02  0.25500000000E-02 0. -1.
    5000001    1    1    2    0    0 -0.10830894257E+03 -0.74981946553E+02  0.81298678631E+03  0.83995573339E+03  0.16500000000E+03 0.  0.
   -5000001    1    1    2    0    0  0.10830894257E+03  0.74981946553E+02  0.16636853119E+04  0.16770291997E+04  0.16500000000E+03 0.  0.
<mgrwt>
<rscale>  0 0.44867413E+03</rscale>
<asrwt>0</asrwt>
<pdfrwt beam="1">  1        2 0.35668975E+00 0.44867413E+03</pdfrwt>
<pdfrwt beam="2">  1       -2 0.28794885E-02 0.44867413E+03</pdfrwt>
<totfact> 0.22381895E+03</totfact>
</mgrwt>
</event>
<event>
 4    1  0.5312547E-005  0.3524537E+03  0.7818608E-02  0.1061612E+00
          2   -1    0    0  501    0  0.00000000000E+00  0.00000000000E+00  0.32044125957E+04  0.32044125957E+04  0.25500000000E-02 0.  1.
         -2   -1    0    0    0  501 -0.00000000000E+00 -0.00000000000E+00 -0.96916076998E+01  0.96916080353E+01  0.25500000000E-02 0. -1.
    5000001    1    1    2    0    0 -0.30354805243E+02 -0.53763426070E+02  0.15576210358E+04  0.15675522994E+04  0.16500000000E+03 0.  0.
   -5000001    1    1    2    0    0  0.30354805243E+02  0.53763426070E+02  0.16370999522E+04  0.16465519044E+04  0.16500000000E+03 0.  0.
<mgrwt>
<rscale>  0 0.35245374E+03</rscale>
<asrwt>0</asrwt>
<pdfrwt beam="1">  1        2 0.45777299E+00 0.35245374E+03</pdfrwt>
<pdfrwt beam="2">  1       -2 0.13845161E-02 0.35245374E+03</pdfrwt>
<totfact> 0.28376325E+03</totfact>
</mgrwt>
</event>
<event>
 4    1  0.5312547E-005  0.6358338E+03  0.7818608E-02  0.9833730E-01
         -2   -1    0    0    0  501 -0.00000000000E+00  0.00000000000E+00  0.35471786515E+03  0.35471786516E+03  0.25500000000E-02 0. -1.
          2   -1    0    0  501    0  0.00000000000E+00 -0.00000000000E+00 -0.28493392821E+03  0.28493392822E+03  0.25500000000E-02 0.  1.
    5000001    1    1    2    0    0 -0.15417157484E+03 -0.10460604441E+03  0.23390516755E+03  0.34153759152E+03  0.16500000000E+03 0.  0.
   -5000001    1    1    2    0    0  0.15417157484E+03  0.10460604441E+03 -0.16412123061E+03  0.29811420186E+03  0.16500000000E+03 0.  0.
<mgrwt>
<rscale>  0 0.63583380E+03</rscale>
<asrwt>0</asrwt>
<pdfrwt beam="1">  1        2 0.40704847E-01 0.63583380E+03</pdfrwt>
<pdfrwt beam="2">  1       -2 0.50673981E-01 0.63583380E+03</pdfrwt>
<totfact> 0.46886617E+02</totfact>
</mgrwt>
</event>
<event>
 4    1  0.5312547E-005  0.4136316E+03  0.7818608E-02  0.1039159E+00
         -2   -1    0    0    0  501 -0.00000000000E+00  0.00000000000E+00  0.33002541376E+03  0.33002541377E+03  0.25500000000E-02 0. -1.
          2   -1    0    0  501    0  0.00000000000E+00 -0.00000000000E+00 -0.12960448587E+03  0.12960448590E+03  0.25500000000E-02 0.  1.
    5000001    1    1    2    0    0  0.43651377924E+02 -0.11629689862E+03  0.11224860809E+03  0.23506416452E+03  0.16500000000E+03 0.  0.
   -5000001    1    1    2    0    0 -0.43651377924E+02  0.11629689862E+03  0.88172319807E+02  0.22456573515E+03  0.16500000000E+03 0.  0.
<mgrwt>
<rscale>  0 0.41363159E+03</rscale>
<asrwt>0</asrwt>
<pdfrwt beam="1">  1        2 0.18514926E-01 0.41363159E+03</pdfrwt>
<pdfrwt beam="2">  1       -2 0.47146488E-01 0.41363159E+03</pdfrwt>
<totfact> 0.13229513E+03</totfact>
</mgrwt>
</event>
<event>
 4    1  0.5312547E-005  0.6312302E+03  0.7818608E-02  0.9842651E-01
         -2   -1    0    0    0  501 -0.00000000000E+00  0.00000000000E+00  0.59933012179E+02  0.59933012233E+02  0.25500000000E-02 0. -1.
          2   -1    0    0  501    0  0.00000000000E+00 -0.00000000000E+00 -0.16620706878E+04  0.16620706878E+04  0.25500000000E-02 0.  1.
    5000001    1    1    2    0    0  0.12825972729E+02  0.18471504066E+03 -0.26855591464E+03  0.36555633097E+03  0.16500000000E+03 0.  0.
   -5000001    1    1    2    0    0 -0.12825972729E+02 -0.18471504066E+03 -0.13335817610E+04  0.13564473691E+04  0.16500000000E+03 0.  0.
<mgrwt>
<rscale>  0 0.63123024E+03</rscale>
<asrwt>0</asrwt>
<pdfrwt beam="1">  1        2 0.23743864E+00 0.63123024E+03</pdfrwt>
<pdfrwt beam="2">  1       -2 0.85618599E-02 0.63123024E+03</pdfrwt>
<totfact> 0.10780618E+03</totfact>
</mgrwt>
</event>
<event>
 4    1  0.5312547E-005  0.4959451E+03  0.7818608E-02  0.1014843E+00
         -2   -1    0    0    0  501 -0.00000000000E+00  0.00000000000E+00  0.12489187209E+03  0.12489187212E+03  0.25500000000E-02 0. -1.
          2   -1    0    0  501    0  0.00000000000E+00 -0.00000000000E+00 -0.49234906187E+03  0.49234906188E+03  0.25500000000E-02 0.  1.
    5000001    1    1    2    0    0 -0.87771606505E+02 -0.95289364147E+02 -0.34828324366E+03  0.40658349160E+03  0.16500000000E+03 0.  0.
   -5000001    1    1    2    0    0  0.87771606505E+02  0.95289364147E+02 -0.19173946120E+02  0.21065744240E+03  0.16500000000E+03 0.  0.
<mgrwt>
<rscale>  0 0.49594514E+03</rscale>
<asrwt>0</asrwt>
<pdfrwt beam="1">  1        2 0.70335579E-01 0.49594514E+03</pdfrwt>
<pdfrwt beam="2">  1       -2 0.17841696E-01 0.49594514E+03</pdfrwt>
<totfact> 0.17721213E+03</totfact>
</mgrwt>
</event>
<event>
 4    1  0.5312547E-005  0.9054486E+03  0.7818608E-02  0.9418796E-01
         -2   -1    0    0    0  501 -0.00000000000E+00  0.00000000000E+00  0.71027618300E+03  0.71027618301E+03  0.25500000000E-02 0. -1.
          2   -1    0    0  501    0  0.00000000000E+00 -0.00000000000E+00 -0.28856279239E+03  0.28856279240E+03  0.25500000000E-02 0.  1.
    5000001    1    1    2    0    0 -0.12603423439E+03 -0.26530164484E+03  0.54448156780E+03  0.64027710303E+03  0.16500000000E+03 0.  0.
   -5000001    1    1    2    0    0  0.12603423439E+03  0.26530164484E+03 -0.12276817718E+03  0.35856187238E+03  0.16500000000E+03 0.  0.
<mgrwt>
<rscale>  0 0.90544857E+03</rscale>
<asrwt>0</asrwt>
<pdfrwt beam="1">  1        2 0.41223256E-01 0.90544857E+03</pdfrwt>
<pdfrwt beam="2">  1       -2 0.10146803E+00 0.90544857E+03</pdfrwt>
<totfact> 0.99691986E+01</totfact>
</mgrwt>
</event>
<event>
 4    1  0.5312547E-005  0.5526906E+03  0.7818608E-02  0.1000873E+00
          2   -1    0    0  501    0  0.00000000000E+00  0.00000000000E+00  0.26135109614E+03  0.26135109615E+03  0.25500000000E-02 0.  1.
         -2   -1    0    0    0  501 -0.00000000000E+00 -0.00000000000E+00 -0.29219976437E+03  0.29219976438E+03  0.25500000000E-02 0. -1.
    5000001    1    1    2    0    0 -0.12514648246E+02  0.20715350876E+03  0.62623434967E+02  0.27242592978E+03  0.16500000000E+03 0.  0.
   -5000001    1    1    2    0    0  0.12514648246E+02 -0.20715350876E+03 -0.93472103194E+02  0.28112493075E+03  0.16500000000E+03 0.  0.
<mgrwt>
<rscale>  0 0.55269061E+03</rscale>
<asrwt>0</asrwt>
<pdfrwt beam="1">  1        2 0.37335871E-01 0.55269061E+03</pdfrwt>
<pdfrwt beam="2">  1       -2 0.41742823E-01 0.55269061E+03</pdfrwt>
<totfact> 0.76015741E+02</totfact>
</mgrwt>
</event>
<event>
 4    1  0.5312547E-005  0.4698108E+03  0.7818608E-02  0.1021974E+00
         -2   -1    0    0    0  501 -0.00000000000E+00  0.00000000000E+00  0.63083706253E+02  0.63083706304E+02  0.25500000000E-02 0. -1.
          2   -1    0    0  501    0  0.00000000000E+00 -0.00000000000E+00 -0.87471957452E+03  0.87471957452E+03  0.25500000000E-02 0.  1.
    5000001    1    1    2    0    0 -0.39939327659E+02 -0.89449760296E+02 -0.67628533881E+03  0.70298169890E+03  0.16500000000E+03 0.  0.
   -5000001    1    1    2    0    0  0.39939327659E+02  0.89449760296E+02 -0.13535052946E+03  0.23482158192E+03  0.16500000000E+03 0.  0.
<mgrwt>
<rscale>  0 0.46981082E+03</rscale>
<asrwt>0</asrwt>
<pdfrwt beam="1">  1        2 0.12495993E+00 0.46981082E+03</pdfrwt>
<pdfrwt beam="2">  1       -2 0.90119586E-02 0.46981082E+03</pdfrwt>
<totfact> 0.27392199E+03</totfact>
</mgrwt>
</event>
<event>
 4    1  0.5312547E-005  0.6453685E+03  0.7818608E-02  0.9815509E-01
          2   -1    0    0  501    0  0.00000000000E+00  0.00000000000E+00  0.77168903324E+03  0.77168903324E+03  0.25500000000E-02 0.  1.
         -2   -1    0    0    0  501 -0.00000000000E+00 -0.00000000000E+00 -0.13493144648E+03  0.13493144650E+03  0.25500000000E-02 0. -1.
    5000001    1    1    2    0    0 -0.12193387479E+03  0.22715573545E+02 -0.30048931611E+02  0.20859483549E+03  0.16500000000E+03 0.  0.
   -5000001    1    1    2    0    0  0.12193387479E+03 -0.22715573545E+02  0.66680651837E+03  0.69802564426E+03  0.16500000000E+03 0.  0.
<mgrwt>
<rscale>  0 0.64536848E+03</rscale>
<asrwt>0</asrwt>
<pdfrwt beam="1">  1        2 0.11024129E+00 0.64536848E+03</pdfrwt>
<pdfrwt beam="2">  1       -2 0.19275921E-01 0.64536848E+03</pdfrwt>
<totfact> 0.90896472E+02</totfact>
</mgrwt>
</event>
<event>
 4    1  0.5312547E-005  0.4143575E+03  0.7818608E-02  0.1038919E+00
          2   -1    0    0  501    0  0.00000000000E+00  0.00000000000E+00  0.94237453768E+03  0.94237453768E+03  0.25500000000E-02 0.  1.
         -2   -1    0    0    0  501 -0.00000000000E+00 -0.00000000000E+00 -0.45547746896E+02  0.45547746967E+02  0.25500000000E-02 0. -1.
    5000001    1    1    2    0    0 -0.12382881167E+03  0.62857675259E-02  0.40289636890E+03  0.45264120306E+03  0.16500000000E+03 0.  0.
   -5000001    1    1    2    0    0  0.12382881167E+03 -0.62857675259E-02  0.49393042189E+03  0.53528108159E+03  0.16500000000E+03 0.  0.
<mgrwt>
<rscale>  0 0.41435751E+03</rscale>
<asrwt>0</asrwt>
<pdfrwt beam="1">  1        2 0.13462493E+00 0.41435751E+03</pdfrwt>
<pdfrwt beam="2">  1       -2 0.65068214E-02 0.41435751E+03</pdfrwt>
<totfact> 0.41443159E+03</totfact>
</mgrwt>
</event>
<event>
 4    1  0.5312547E-005  0.4033164E+03  0.7818608E-02  0.1042637E+00
          2   -1    0    0  501    0  0.00000000000E+00  0.00000000000E+00  0.10139355522E+04  0.10139355522E+04  0.25500000000E-02 0.  1.
         -2   -1    0    0    0  501 -0.00000000000E+00 -0.00000000000E+00 -0.40107118393E+02  0.40107118474E+02  0.25500000000E-02 0. -1.
    5000001    1    1    2    0    0 -0.58457776094E+02  0.65454122022E+02  0.28892180343E+03  0.34409644312E+03  0.16500000000E+03 0.  0.
   -5000001    1    1    2    0    0  0.58457776094E+02 -0.65454122022E+02  0.68490663035E+03  0.70994622752E+03  0.16500000000E+03 0.  0.
<mgrwt>
<rscale>  0 0.40331642E+03</rscale>
<asrwt>0</asrwt>
<pdfrwt beam="1">  1        2 0.14484794E+00 0.40331642E+03</pdfrwt>
<pdfrwt beam="2">  1       -2 0.57295884E-02 0.40331642E+03</pdfrwt>
<totfact> 0.45668966E+03</totfact>
</mgrwt>
</event>
<event>
 4    1  0.5312547E-005  0.7216598E+03  0.7818608E-02  0.9680892E-01
         -2   -1    0    0    0  501 -0.00000000000E+00  0.00000000000E+00  0.65568738054E+02  0.65568738103E+02  0.25500000000E-02 0. -1.
          2   -1    0    0  501    0  0.00000000000E+00 -0.00000000000E+00 -0.19856754498E+04  0.19856754498E+04  0.25500000000E-02 0.  1.
    5000001    1    1    2    0    0 -0.31495197643E+03  0.43656083968E+02 -0.10830550474E+04  0.11407602012E+04  0.16500000000E+03 0.  0.
   -5000001    1    1    2    0    0  0.31495197643E+03 -0.43656083968E+02 -0.83705166440E+03  0.91048398668E+03  0.16500000000E+03 0.  0.
<mgrwt>
<rscale>  0 0.72165985E+03</rscale>
<asrwt>0</asrwt>
<pdfrwt beam="1">  1        2 0.28366788E+00 0.72165985E+03</pdfrwt>
<pdfrwt beam="2">  1       -2 0.93669638E-02 0.72165985E+03</pdfrwt>
<totfact> 0.63613852E+02</totfact>
</mgrwt>
</event>
<event>
 4    1  0.5312547E-005  0.4716553E+03  0.7818608E-02  0.1021454E+00
         -2   -1    0    0    0  501 -0.00000000000E+00  0.00000000000E+00  0.21143383069E+02  0.21143383223E+02  0.25500000000E-02 0. -1.
          2   -1    0    0  501    0  0.00000000000E+00 -0.00000000000E+00 -0.26303585355E+04  0.26303585355E+04  0.25500000000E-02 0.  1.
    5000001    1    1    2    0    0  0.91671202290E+02  0.12960217761E+03 -0.98712641831E+03  0.10133330644E+04  0.16500000000E+03 0.  0.
   -5000001    1    1    2    0    0 -0.91671202290E+02 -0.12960217761E+03 -0.16220887342E+04  0.16381688543E+04  0.16500000000E+03 0.  0.
<mgrwt>
<rscale>  0 0.47165529E+03</rscale>
<asrwt>0</asrwt>
<pdfrwt beam="1">  1        2 0.37576530E+00 0.47165529E+03</pdfrwt>
<pdfrwt beam="2">  1       -2 0.30204850E-02 0.47165529E+03</pdfrwt>
<totfact> 0.17766590E+03</totfact>
</mgrwt>
</event>
<event>
 4    1  0.5312547E-005  0.4115091E+03  0.7818608E-02  0.1039866E+00
          2   -1    0    0  501    0  0.00000000000E+00  0.00000000000E+00  0.10992406546E+04  0.10992406546E+04  0.25500000000E-02 0.  1.
         -2   -1    0    0    0  501 -0.00000000000E+00 -0.00000000000E+00 -0.38512897414E+02  0.38512897498E+02  0.25500000000E-02 0. -1.
    5000001    1    1    2    0    0  0.87722031113E+02  0.31062115799E+01  0.76828627937E+03  0.79069185551E+03  0.16500000000E+03 0.  0.
   -5000001    1    1    2    0    0 -0.87722031113E+02 -0.31062115799E+01  0.29244147778E+03  0.34706169656E+03  0.16500000000E+03 0.  0.
<mgrwt>
<rscale>  0 0.41150914E+03</rscale>
<asrwt>0</asrwt>
<pdfrwt beam="1">  1        2 0.15703439E+00 0.41150914E+03</pdfrwt>
<pdfrwt beam="2">  1       -2 0.55018422E-02 0.41150914E+03</pdfrwt>
<totfact> 0.43361695E+03</totfact>
</mgrwt>
</event>
<event>
 4    1  0.5312547E-005  0.3782359E+03  0.7818608E-02  0.1051588E+00
         -2   -1    0    0    0  501 -0.00000000000E+00  0.00000000000E+00  0.63374399555E+02  0.63374399606E+02  0.25500000000E-02 0. -1.
          2   -1    0    0  501    0  0.00000000000E+00 -0.00000000000E+00 -0.56435389992E+03  0.56435389992E+03  0.25500000000E-02 0.  1.
    5000001    1    1    2    0    0 -0.35679874381E+02  0.84950642812E+02 -0.23864646935E+03  0.30441222459E+03  0.16500000000E+03 0.  0.
   -5000001    1    1    2    0    0  0.35679874381E+02 -0.84950642812E+02 -0.26233303101E+03  0.32331607494E+03  0.16500000000E+03 0.  0.
<mgrwt>
<rscale>  0 0.37823585E+03</rscale>
<asrwt>0</asrwt>
<pdfrwt beam="1">  1        2 0.80621983E-01 0.37823585E+03</pdfrwt>
<pdfrwt beam="2">  1       -2 0.90534860E-02 0.37823585E+03</pdfrwt>
<totfact> 0.46172911E+03</totfact>
</mgrwt>
</event>
<event>
 4    1  0.5312547E-005  0.3969568E+03  0.7818608E-02  0.1044839E+00
          2   -1    0    0  501    0  0.00000000000E+00  0.00000000000E+00  0.39892387910E+04  0.39892387910E+04  0.25500000000E-02 0.  1.
         -2   -1    0    0    0  501 -0.00000000000E+00 -0.00000000000E+00 -0.98749845013E+01  0.98749848305E+01  0.25500000000E-02 0. -1.
    5000001    1    1    2    0    0  0.86464450128E+02  0.15436337547E+02  0.26620541652E+04  0.26686085813E+04  0.16500000000E+03 0.  0.
   -5000001    1    1    2    0    0 -0.86464450128E+02 -0.15436337547E+02  0.13173096412E+04  0.13305051945E+04  0.16500000000E+03 0.  0.
<mgrwt>
<rscale>  0 0.39695678E+03</rscale>
<asrwt>0</asrwt>
<pdfrwt beam="1">  1        2 0.56989030E+00 0.39695678E+03</pdfrwt>
<pdfrwt beam="2">  1       -2 0.14107145E-02 0.39695678E+03</pdfrwt>
<totfact> 0.92840015E+02</totfact>
</mgrwt>
</event>
<event>
 4    1  0.5312547E-005  0.3957442E+03  0.7818608E-02  0.1045263E+00
         -2   -1    0    0    0  501 -0.00000000000E+00  0.00000000000E+00  0.22428906681E+02  0.22428906825E+02  0.25500000000E-02 0. -1.
          2   -1    0    0  501    0  0.00000000000E+00 -0.00000000000E+00 -0.17456657958E+04  0.17456657958E+04  0.25500000000E-02 0.  1.
    5000001    1    1    2    0    0 -0.70356422947E+02 -0.83206130641E+02 -0.82845778912E+03  0.85172800516E+03  0.16500000000E+03 0.  0.
   -5000001    1    1    2    0    0  0.70356422947E+02  0.83206130641E+02 -0.89477910003E+03  0.91636669750E+03  0.16500000000E+03 0.  0.
<mgrwt>
<rscale>  0 0.39574424E+03</rscale>
<asrwt>0</asrwt>
<pdfrwt beam="1">  1        2 0.24938074E+00 0.39574424E+03</pdfrwt>
<pdfrwt beam="2">  1       -2 0.32041306E-02 0.39574424E+03</pdfrwt>
<totfact> 0.45212455E+03</totfact>
</mgrwt>
</event>
<event>
 4    1  0.5312547E-005  0.3793591E+03  0.7818608E-02  0.1051171E+00
         -2   -1    0    0    0  501 -0.00000000000E+00  0.00000000000E+00  0.93469387139E+01  0.93469390617E+01  0.25500000000E-02 0. -1.
          2   -1    0    0  501    0  0.00000000000E+00 -0.00000000000E+00 -0.38492101214E+04  0.38492101214E+04  0.25500000000E-02 0.  1.
    5000001    1    1    2    0    0  0.51850129526E+02  0.69606177706E+02 -0.15646831018E+04  0.15757511431E+04  0.16500000000E+03 0.  0.
   -5000001    1    1    2    0    0 -0.51850129526E+02 -0.69606177706E+02 -0.22751800809E+04  0.22828059173E+04  0.16500000000E+03 0.  0.
<mgrwt>
<rscale>  0 0.37935910E+03</rscale>
<asrwt>0</asrwt>
<pdfrwt beam="1">  1        2 0.54988614E+00 0.37935910E+03</pdfrwt>
<pdfrwt beam="2">  1       -2 0.13352795E-02 0.37935910E+03</pdfrwt>
<totfact> 0.12429512E+03</totfact>
</mgrwt>
</event>
<event>
 4    1  0.5312547E-005  0.5521529E+03  0.7818608E-02  0.1000997E+00
          2   -1    0    0  501    0  0.00000000000E+00  0.00000000000E+00  0.11529326505E+04  0.11529326505E+04  0.25500000000E-02 0.  1.
         -2   -1    0    0    0  501 -0.00000000000E+00 -0.00000000000E+00 -0.66108117608E+02  0.66108117657E+02  0.25500000000E-02 0. -1.
    5000001    1    1    2    0    0 -0.19203235442E+03 -0.47738397171E+02  0.32443023881E+03  0.41428898074E+03  0.16500000000E+03 0.  0.
   -5000001    1    1    2    0    0  0.19203235442E+03  0.47738397171E+02  0.76239429406E+03  0.80475178740E+03  0.16500000000E+03 0.  0.
<mgrwt>
<rscale>  0 0.55215290E+03</rscale>
<asrwt>0</asrwt>
<pdfrwt beam="1">  1        2 0.16470467E+00 0.55215290E+03</pdfrwt>
<pdfrwt beam="2">  1       -2 0.94440162E-02 0.55215290E+03</pdfrwt>
<totfact> 0.17248830E+03</totfact>
</mgrwt>
</event>
<event>
 4    1  0.5312547E-005  0.7020281E+03  0.7818608E-02  0.9713770E-01
          2   -1    0    0  501    0  0.00000000000E+00  0.00000000000E+00  0.57005515253E+03  0.57005515254E+03  0.25500000000E-02 0.  1.
         -2   -1    0    0    0  501 -0.00000000000E+00 -0.00000000000E+00 -0.21613849858E+03  0.21613849859E+03  0.25500000000E-02 0. -1.
    5000001    1    1    2    0    0 -0.22055760484E+03  0.19410243377E+03  0.28705233219E+03  0.44265726388E+03  0.16500000000E+03 0.  0.
   -5000001    1    1    2    0    0  0.22055760484E+03 -0.19410243377E+03  0.66864321764E+02  0.34353638726E+03  0.16500000000E+03 0.  0.
<mgrwt>
<rscale>  0 0.70202810E+03</rscale>
<asrwt>0</asrwt>
<pdfrwt beam="1">  1        2 0.81436449E-01 0.70202810E+03</pdfrwt>
<pdfrwt beam="2">  1       -2 0.30876929E-01 0.70202810E+03</pdfrwt>
<totfact> 0.56254129E+02</totfact>
</mgrwt>
</event>
<event>
 4    1  0.5312547E-005  0.7599146E+03  0.7818608E-02  0.9619923E-01
          2   -1    0    0  501    0  0.00000000000E+00  0.00000000000E+00  0.83916205642E+03  0.83916205642E+03  0.25500000000E-02 0.  1.
         -2   -1    0    0    0  501 -0.00000000000E+00 -0.00000000000E+00 -0.17203776790E+03  0.17203776791E+03  0.25500000000E-02 0. -1.
    5000001    1    1    2    0    0  0.87120566191E+02 -0.32533195228E+03  0.25249249310E+03  0.45211539600E+03  0.16500000000E+03 0.  0.
   -5000001    1    1    2    0    0 -0.87120566191E+02  0.32533195228E+03  0.41463179543E+03  0.55908442834E+03  0.16500000000E+03 0.  0.
<mgrwt>
<rscale>  0 0.75991465E+03</rscale>
<asrwt>0</asrwt>
<pdfrwt beam="1">  1        2 0.11988029E+00 0.75991465E+03</pdfrwt>
<pdfrwt beam="2">  1       -2 0.24576824E-01 0.75991465E+03</pdfrwt>
<totfact> 0.52951461E+02</totfact>
</mgrwt>
</event>
<event>
 4    1  0.5312547E-005  0.5664877E+03  0.7818608E-02  0.9977481E-01
         -2   -1    0    0    0  501 -0.00000000000E+00  0.00000000000E+00  0.44499182500E+02  0.44499182573E+02  0.25500000000E-02 0. -1.
          2   -1    0    0  501    0  0.00000000000E+00 -0.00000000000E+00 -0.18028887786E+04  0.18028887786E+04  0.25500000000E-02 0.  1.
    5000001    1    1    2    0    0  0.72345617496E+02  0.19991688131E+03 -0.11672360640E+04  0.11978587883E+04  0.16500000000E+03 0.  0.
   -5000001    1    1    2    0    0 -0.72345617496E+02 -0.19991688131E+03 -0.59115353218E+03  0.64952917287E+03  0.16500000000E+03 0.  0.
<mgrwt>
<rscale>  0 0.56648769E+03</rscale>
<asrwt>0</asrwt>
<pdfrwt beam="1">  1        2 0.25755549E+00 0.56648769E+03</pdfrwt>
<pdfrwt beam="2">  1       -2 0.63570272E-02 0.56648769E+03</pdfrwt>
<totfact> 0.14705580E+03</totfact>
</mgrwt>
</event>
<event>
 4    1  0.5312547E-005  0.4648602E+03  0.7818608E-02  0.1023381E+00
         -2   -1    0    0    0  501 -0.00000000000E+00  0.00000000000E+00  0.28873982991E+02  0.28873983103E+02  0.25500000000E-02 0. -1.
          2   -1    0    0  501    0  0.00000000000E+00 -0.00000000000E+00 -0.18710180602E+04  0.18710180602E+04  0.25500000000E-02 0.  1.
    5000001    1    1    2    0    0 -0.14778611799E+03  0.65719408192E+02 -0.81776126247E+03  0.84977541720E+03  0.16500000000E+03 0.  0.
   -5000001    1    1    2    0    0  0.14778611799E+03 -0.65719408192E+02 -0.10243828147E+04  0.10501166261E+04  0.16500000000E+03 0.  0.
<mgrwt>
<rscale>  0 0.46486017E+03</rscale>
<asrwt>0</asrwt>
<pdfrwt beam="1">  1        2 0.26728822E+00 0.46486017E+03</pdfrwt>
<pdfrwt beam="2">  1       -2 0.41248559E-02 0.46486017E+03</pdfrwt>
<totfact> 0.26652931E+03</totfact>
</mgrwt>
</event>
<event>
 4    1  0.5312547E-005  0.5623668E+03  0.7818608E-02  0.9986714E-01
         -2   -1    0    0    0  501 -0.00000000000E+00  0.00000000000E+00  0.16743185978E+03  0.16743185980E+03  0.25500000000E-02 0. -1.
          2   -1    0    0  501    0  0.00000000000E+00 -0.00000000000E+00 -0.47221657334E+03  0.47221657334E+03  0.25500000000E-02 0.  1.
    5000001    1    1    2    0    0  0.21089226445E+03 -0.76555046447E+02 -0.19648674946E+03  0.34083465941E+03  0.16500000000E+03 0.  0.
   -5000001    1    1    2    0    0 -0.21089226445E+03  0.76555046447E+02 -0.10829796410E+03  0.29881377373E+03  0.16500000000E+03 0.  0.
<mgrwt>
<rscale>  0 0.56236678E+03</rscale>
<asrwt>0</asrwt>
<pdfrwt beam="1">  1        2 0.67459510E-01 0.56236678E+03</pdfrwt>
<pdfrwt beam="2">  1       -2 0.23918837E-01 0.56236678E+03</pdfrwt>
<totfact> 0.11138948E+03</totfact>
</mgrwt>
</event>
<event>
 4    1  0.5312547E-005  0.8651440E+03  0.7818608E-02  0.9470234E-01
         -2   -1    0    0    0  501 -0.00000000000E+00  0.00000000000E+00  0.15677000199E+03  0.15677000201E+03  0.25500000000E-02 0. -1.
          2   -1    0    0  501    0  0.00000000000E+00 -0.00000000000E+00 -0.11935864654E+04  0.11935864654E+04  0.25500000000E-02 0.  1.
    5000001    1    1    2    0    0 -0.39058051965E+03 -0.60581090288E+02 -0.61296949364E+03  0.74778326470E+03  0.16500000000E+03 0.  0.
   -5000001    1    1    2    0    0  0.39058051965E+03  0.60581090288E+02 -0.42384696973E+03  0.60257320267E+03  0.16500000000E+03 0.  0.
<mgrwt>
<rscale>  0 0.86514404E+03</rscale>
<asrwt>0</asrwt>
<pdfrwt beam="1">  1        2 0.17051235E+00 0.86514404E+03</pdfrwt>
<pdfrwt beam="2">  1       -2 0.22395715E-01 0.86514404E+03</pdfrwt>
<totfact> 0.37698262E+02</totfact>
</mgrwt>
</event>
<event>
 4    1  0.5312547E-005  0.6066758E+03  0.7818608E-02  0.9891652E-01
          2   -1    0    0  501    0  0.00000000000E+00  0.00000000000E+00  0.41331623393E+04  0.41331623393E+04  0.25500000000E-02 0.  1.
         -2   -1    0    0    0  501 -0.00000000000E+00 -0.00000000000E+00 -0.22262347037E+02  0.22262347183E+02  0.25500000000E-02 0. -1.
    5000001    1    1    2    0    0 -0.23840997695E+03 -0.47734868599E+02  0.15396432708E+04  0.15674324024E+04  0.16500000000E+03 0.  0.
   -5000001    1    1    2    0    0  0.23840997695E+03  0.47734868599E+02  0.25712567215E+04  0.25879922841E+04  0.16500000000E+03 0.  0.
<mgrwt>
<rscale>  0 0.60667584E+03</rscale>
<asrwt>0</asrwt>
<pdfrwt beam="1">  1        2 0.59045145E+00 0.60667584E+03</pdfrwt>
<pdfrwt beam="2">  1       -2 0.31803370E-02 0.60667584E+03</pdfrwt>
<totfact> 0.21252867E+02</totfact>
</mgrwt>
</event>
<event>
 4    1  0.5312547E-005  0.7447750E+03  0.7818608E-02  0.9643583E-01
         -2   -1    0    0    0  501 -0.00000000000E+00  0.00000000000E+00  0.88679987352E+02  0.88679987389E+02  0.25500000000E-02 0. -1.
          2   -1    0    0  501    0  0.00000000000E+00 -0.00000000000E+00 -0.15637399431E+04  0.15637399431E+04  0.25500000000E-02 0.  1.
    5000001    1    1    2    0    0  0.32063064448E+03 -0.68400193699E+02 -0.87723379758E+03  0.95091888839E+03  0.16500000000E+03 0.  0.
   -5000001    1    1    2    0    0 -0.32063064448E+03  0.68400193699E+02 -0.59782615816E+03  0.70150104209E+03  0.16500000000E+03 0.  0.
<mgrwt>
<rscale>  0 0.74477497E+03</rscale>
<asrwt>0</asrwt>
<pdfrwt beam="1">  1        2 0.22339140E+00 0.74477497E+03</pdfrwt>
<pdfrwt beam="2">  1       -2 0.12668571E-01 0.74477497E+03</pdfrwt>
<totfact> 0.63595981E+02</totfact>
</mgrwt>
</event>
<event>
 4    1  0.5312547E-005  0.3840620E+03  0.7818608E-02  0.1049443E+00
          2   -1    0    0  501    0  0.00000000000E+00  0.00000000000E+00  0.73761041698E+03  0.73761041699E+03  0.25500000000E-02 0.  1.
         -2   -1    0    0    0  501 -0.00000000000E+00 -0.00000000000E+00 -0.49993752711E+02  0.49993752776E+02  0.25500000000E-02 0. -1.
    5000001    1    1    2    0    0 -0.32950251301E+02 -0.50314545774E+02  0.50310119839E+03  0.53287248793E+03  0.16500000000E+03 0.  0.
   -5000001    1    1    2    0    0  0.32950251301E+02  0.50314545774E+02  0.18451546588E+03  0.25473168183E+03  0.16500000000E+03 0.  0.
<mgrwt>
<rscale>  0 0.38406204E+03</rscale>
<asrwt>0</asrwt>
<pdfrwt beam="1">  1        2 0.10537292E+00 0.38406204E+03</pdfrwt>
<pdfrwt beam="2">  1       -2 0.71419644E-02 0.38406204E+03</pdfrwt>
<totfact> 0.48964278E+03</totfact>
</mgrwt>
</event>
<event>
 4    1  0.5312547E-005  0.4364644E+03  0.7818608E-02  0.1031837E+00
          2   -1    0    0  501    0  0.00000000000E+00  0.00000000000E+00  0.16320456900E+04  0.16320456900E+04  0.25500000000E-02 0.  1.
         -2   -1    0    0    0  501 -0.00000000000E+00 -0.00000000000E+00 -0.29181341391E+02  0.29181341502E+02  0.25500000000E-02 0. -1.
    5000001    1    1    2    0    0 -0.94924512800E+02 -0.10337056110E+03  0.90242993076E+03  0.92806299137E+03  0.16500000000E+03 0.  0.
   -5000001    1    1    2    0    0  0.94924512800E+02  0.10337056110E+03  0.70043441790E+03  0.73316404018E+03  0.16500000000E+03 0.  0.
<mgrwt>
<rscale>  0 0.43646435E+03</rscale>
<asrwt>0</asrwt>
<pdfrwt beam="1">  1        2 0.23314945E+00 0.43646435E+03</pdfrwt>
<pdfrwt beam="2">  1       -2 0.41687619E-02 0.43646435E+03</pdfrwt>
<totfact> 0.34580192E+03</totfact>
</mgrwt>
</event>
<event>
 4    1  0.5312547E-005  0.4485699E+03  0.7818608E-02  0.1028149E+00
          2   -1    0    0  501    0  0.00000000000E+00  0.00000000000E+00  0.69290278740E+03  0.69290278740E+03  0.25500000000E-02 0.  1.
         -2   -1    0    0    0  501 -0.00000000000E+00 -0.00000000000E+00 -0.72598544150E+02  0.72598544194E+02  0.25500000000E-02 0. -1.
    5000001    1    1    2    0    0 -0.79865086250E+02  0.11218600237E+03  0.41961825728E+03  0.47145372305E+03  0.16500000000E+03 0.  0.
   -5000001    1    1    2    0    0  0.79865086250E+02 -0.11218600237E+03  0.20068598596E+03  0.29404760855E+03  0.16500000000E+03 0.  0.
<mgrwt>
<rscale>  0 0.44856988E+03</rscale>
<asrwt>0</asrwt>
<pdfrwt beam="1">  1        2 0.98986122E-01 0.44856988E+03</pdfrwt>
<pdfrwt beam="2">  1       -2 0.10371220E-01 0.44856988E+03</pdfrwt>
<totfact> 0.29272206E+03</totfact>
</mgrwt>
</event>
<event>
 4    1  0.5312547E-005  0.5016748E+03  0.7818608E-02  0.1013343E+00
          2   -1    0    0  501    0  0.00000000000E+00  0.00000000000E+00  0.21308758670E+03  0.21308758672E+03  0.25500000000E-02 0.  1.
         -2   -1    0    0    0  501 -0.00000000000E+00 -0.00000000000E+00 -0.29527488118E+03  0.29527488119E+03  0.25500000000E-02 0. -1.
    5000001    1    1    2    0    0  0.96478611772E+02 -0.12989169787E+03 -0.13993591124E+03  0.27016112777E+03  0.16500000000E+03 0.  0.
   -5000001    1    1    2    0    0 -0.96478611772E+02  0.12989169787E+03  0.57748616765E+02  0.23820134014E+03  0.16500000000E+03 0.  0.
<mgrwt>
<rscale>  0 0.50167484E+03</rscale>
<asrwt>0</asrwt>
<pdfrwt beam="1">  1        2 0.30441084E-01 0.50167484E+03</pdfrwt>
<pdfrwt beam="2">  1       -2 0.42182125E-01 0.50167484E+03</pdfrwt>
<totfact> 0.93466391E+02</totfact>
</mgrwt>
</event>
<event>
 4    1  0.5312547E-005  0.5754612E+03  0.7818608E-02  0.9957666E-01
          2   -1    0    0  501    0  0.00000000000E+00  0.00000000000E+00  0.82235273455E+03  0.82235273455E+03  0.25500000000E-02 0.  1.
         -2   -1    0    0    0  501 -0.00000000000E+00 -0.00000000000E+00 -0.10067320488E+03  0.10067320492E+03  0.25500000000E-02 0. -1.
    5000001    1    1    2    0    0 -0.15806043062E+03  0.20999585625E+01  0.80366870406E+02  0.24222168237E+03  0.16500000000E+03 0.  0.
   -5000001    1    1    2    0    0  0.15806043062E+03 -0.20999585625E+01  0.64131265926E+03  0.68080425709E+03  0.16500000000E+03 0.  0.
<mgrwt>
<rscale>  0 0.57546116E+03</rscale>
<asrwt>0</asrwt>
<pdfrwt beam="1">  1        2 0.11747897E+00 0.57546116E+03</pdfrwt>
<pdfrwt beam="2">  1       -2 0.14381886E-01 0.57546116E+03</pdfrwt>
<totfact> 0.13821838E+03</totfact>
</mgrwt>
</event>
<event>
 4    1  0.5312547E-005  0.4400886E+03  0.7818608E-02  0.1030720E+00
          2   -1    0    0  501    0  0.00000000000E+00  0.00000000000E+00  0.57821521265E+03  0.57821521265E+03  0.25500000000E-02 0.  1.
         -2   -1    0    0    0  501 -0.00000000000E+00 -0.00000000000E+00 -0.83739562288E+02  0.83739562327E+02  0.25500000000E-02 0. -1.
    5000001    1    1    2    0    0  0.50575351565E+02  0.13001319552E+03  0.30985760204E+03  0.37775392882E+03  0.16500000000E+03 0.  0.
   -5000001    1    1    2    0    0 -0.50575351565E+02 -0.13001319552E+03  0.18461804832E+03  0.28420084617E+03  0.16500000000E+03 0.  0.
<mgrwt>
<rscale>  0 0.44008858E+03</rscale>
<asrwt>0</asrwt>
<pdfrwt beam="1">  1        2 0.82602175E-01 0.44008858E+03</pdfrwt>
<pdfrwt beam="2">  1       -2 0.11962794E-01 0.44008858E+03</pdfrwt>
<totfact> 0.28730493E+03</totfact>
</mgrwt>
</event>
<event>
 4    1  0.5312547E-005  0.4729054E+03  0.7818608E-02  0.1021103E+00
         -2   -1    0    0    0  501 -0.00000000000E+00  0.00000000000E+00  0.23918551928E+04  0.23918551928E+04  0.25500000000E-02 0. -1.
          2   -1    0    0  501    0  0.00000000000E+00 -0.00000000000E+00 -0.23375106281E+02  0.23375106420E+02  0.25500000000E-02 0.  1.
    5000001    1    1    2    0    0  0.12671112897E+03 -0.67784013154E+02  0.16420269698E+04  0.16565409600E+04  0.16500000000E+03 0.  0.
   -5000001    1    1    2    0    0 -0.12671112897E+03  0.67784013154E+02  0.72645311675E+03  0.75868933924E+03  0.16500000000E+03 0.  0.
<mgrwt>
<rscale>  0 0.47290536E+03</rscale>
<asrwt>0</asrwt>
<pdfrwt beam="1">  1        2 0.33392999E-02 0.47290536E+03</pdfrwt>
<pdfrwt beam="2">  1       -2 0.34169370E+00 0.47290536E+03</pdfrwt>
<totfact> 0.54657894E+01</totfact>
</mgrwt>
</event>
<event>
 4    1  0.5312547E-005  0.1530217E+04  0.7818608E-02  0.8864604E-01
          2   -1    0    0  501    0  0.00000000000E+00  0.00000000000E+00  0.36633585188E+04  0.36633585188E+04  0.25500000000E-02 0.  1.
         -2   -1    0    0    0  501 -0.00000000000E+00 -0.00000000000E+00 -0.15979622129E+03  0.15979622131E+03  0.25500000000E-02 0. -1.
    5000001    1    1    2    0    0 -0.72591003193E+03  0.14548242298E+03  0.15012468046E+04  0.16819861706E+04  0.16500000000E+03 0.  0.
   -5000001    1    1    2    0    0  0.72591003193E+03 -0.14548242298E+03  0.20023154930E+04  0.21411685695E+04  0.16500000000E+03 0.  0.
<mgrwt>
<rscale>  0 0.15302168E+04</rscale>
<asrwt>0</asrwt>
<pdfrwt beam="1">  1        2 0.52333681E+00 0.15302168E+04</pdfrwt>
<pdfrwt beam="2">  1       -2 0.22828037E-01 0.15302168E+04</pdfrwt>
<totfact> 0.15700046E+01</totfact>
</mgrwt>
</event>
<event>
 4    1  0.5312547E-005  0.5976711E+03  0.7818608E-02  0.9910250E-01
          2   -1    0    0  501    0  0.00000000000E+00  0.00000000000E+00  0.11611330836E+04  0.11611330836E+04  0.25500000000E-02 0.  1.
         -2   -1    0    0    0  501 -0.00000000000E+00 -0.00000000000E+00 -0.76909948262E+02  0.76909948304E+02  0.25500000000E-02 0. -1.
    5000001    1    1    2    0    0 -0.11074934806E+03 -0.21953459723E+03  0.45881916554E+03  0.54607772720E+03  0.16500000000E+03 0.  0.
   -5000001    1    1    2    0    0  0.11074934806E+03  0.21953459723E+03  0.62540396978E+03  0.69196530469E+03  0.16500000000E+03 0.  0.
<mgrwt>
<rscale>  0 0.59767110E+03</rscale>
<asrwt>0</asrwt>
<pdfrwt beam="1">  1        2 0.16587615E+00 0.59767110E+03</pdfrwt>
<pdfrwt beam="2">  1       -2 0.10987136E-01 0.59767110E+03</pdfrwt>
<totfact> 0.13337843E+03</totfact>
</mgrwt>
</event>
<event>
 4    1  0.5312547E-005  0.5116010E+03  0.7818608E-02  0.1010794E+00
         -2   -1    0    0    0  501 -0.00000000000E+00  0.00000000000E+00  0.39550924114E+03  0.39550924115E+03  0.25500000000E-02 0. -1.
          2   -1    0    0  501    0  0.00000000000E+00 -0.00000000000E+00 -0.16544216091E+03  0.16544216093E+03  0.25500000000E-02 0.  1.
    5000001    1    1    2    0    0  0.11734820605E+03 -0.15436628757E+03  0.87967313961E+02  0.26937483276E+03  0.16500000000E+03 0.  0.
   -5000001    1    1    2    0    0 -0.11734820605E+03  0.15436628757E+03  0.14209976627E+03  0.29157656932E+03  0.16500000000E+03 0.  0.
<mgrwt>
<rscale>  0 0.51160103E+03</rscale>
<asrwt>0</asrwt>
<pdfrwt beam="1">  1        2 0.23634594E-01 0.51160103E+03</pdfrwt>
<pdfrwt beam="2">  1       -2 0.56501321E-01 0.51160103E+03</pdfrwt>
<totfact> 0.69126318E+02</totfact>
</mgrwt>
</event>
<event>
 4    1  0.5312547E-005  0.4843321E+03  0.7818608E-02  0.1017951E+00
          2   -1    0    0  501    0  0.00000000000E+00  0.00000000000E+00  0.87414120424E+03  0.87414120424E+03  0.25500000000E-02 0.  1.
         -2   -1    0    0    0  501 -0.00000000000E+00 -0.00000000000E+00 -0.67088003038E+02  0.67088003086E+02  0.25500000000E-02 0. -1.
    5000001    1    1    2    0    0 -0.16934153150E+03 -0.46875806743E+02  0.44891516636E+03  0.50953284697E+03  0.16500000000E+03 0.  0.
   -5000001    1    1    2    0    0  0.16934153150E+03  0.46875806743E+02  0.35813803484E+03  0.43169636036E+03  0.16500000000E+03 0.  0.
<mgrwt>
<rscale>  0 0.48433207E+03</rscale>
<asrwt>0</asrwt>
<pdfrwt beam="1">  1        2 0.12487731E+00 0.48433207E+03</pdfrwt>
<pdfrwt beam="2">  1       -2 0.95840006E-02 0.48433207E+03</pdfrwt>
<totfact> 0.24843399E+03</totfact>
</mgrwt>
</event>
<event>
 4    1  0.5312547E-005  0.9579040E+03  0.7818608E-02  0.9355959E-01
          2   -1    0    0  501    0  0.00000000000E+00  0.00000000000E+00  0.97635028395E+03  0.97635028395E+03  0.25500000000E-02 0.  1.
         -2   -1    0    0    0  501 -0.00000000000E+00 -0.00000000000E+00 -0.23495157327E+03  0.23495157328E+03  0.25500000000E-02 0. -1.
    5000001    1    1    2    0    0 -0.28858379280E+03  0.28630862492E+03  0.12773508555E+03  0.45694035306E+03  0.16500000000E+03 0.  0.
   -5000001    1    1    2    0    0  0.28858379280E+03 -0.28630862492E+03  0.61366362514E+03  0.75436150418E+03  0.16500000000E+03 0.  0.
<mgrwt>
<rscale>  0 0.95790404E+03</rscale>
<asrwt>0</asrwt>
<pdfrwt beam="1">  1        2 0.13947862E+00 0.95790404E+03</pdfrwt>
<pdfrwt beam="2">  1       -2 0.33564509E-01 0.95790404E+03</pdfrwt>
<totfact> 0.24057673E+02</totfact>
</mgrwt>
</event>
<event>
 4    1  0.5312547E-005  0.5142987E+03  0.7818608E-02  0.1010113E+00
          2   -1    0    0  501    0  0.00000000000E+00  0.00000000000E+00  0.33686628883E+03  0.33686628884E+03  0.25500000000E-02 0.  1.
         -2   -1    0    0    0  501 -0.00000000000E+00 -0.00000000000E+00 -0.19629686764E+03  0.19629686765E+03  0.25500000000E-02 0. -1.
    5000001    1    1    2    0    0 -0.14491065338E+03 -0.11826335793E+03  0.13515369066E+03  0.28368440103E+03  0.16500000000E+03 0.  0.
   -5000001    1    1    2    0    0  0.14491065338E+03  0.11826335793E+03  0.54157305400E+01  0.24947875547E+03  0.16500000000E+03 0.  0.
<mgrwt>
<rscale>  0 0.51429874E+03</rscale>
<asrwt>0</asrwt>
<pdfrwt beam="1">  1        2 0.48123755E-01 0.51429874E+03</pdfrwt>
<pdfrwt beam="2">  1       -2 0.28042410E-01 0.51429874E+03</pdfrwt>
<totfact> 0.12168318E+03</totfact>
</mgrwt>
</event>
<event>
 4    1  0.5312547E-005  0.5366137E+03  0.7818608E-02  0.1004641E+00
         -2   -1    0    0    0  501 -0.00000000000E+00  0.00000000000E+00  0.47165194952E+02  0.47165195021E+02  0.25500000000E-02 0. -1.
          2   -1    0    0  501    0  0.00000000000E+00 -0.00000000000E+00 -0.15263068778E+04  0.15263068778E+04  0.25500000000E-02 0.  1.
    5000001    1    1    2    0    0  0.14776767595E+03  0.15094283752E+03 -0.77482287565E+03  0.81987469462E+03  0.16500000000E+03 0.  0.
   -5000001    1    1    2    0    0 -0.14776767595E+03 -0.15094283752E+03 -0.70431880722E+03  0.75359737822E+03  0.16500000000E+03 0.  0.
<mgrwt>
<rscale>  0 0.53661368E+03</rscale>
<asrwt>0</asrwt>
<pdfrwt beam="1">  1        2 0.21804381E+00 0.53661368E+03</pdfrwt>
<pdfrwt beam="2">  1       -2 0.67378860E-02 0.53661368E+03</pdfrwt>
<totfact> 0.18582865E+03</totfact>
</mgrwt>
</event>
<event>
 4    1  0.5312547E-005  0.3677549E+03  0.7818608E-02  0.1055555E+00
         -2   -1    0    0    0  501 -0.00000000000E+00  0.00000000000E+00  0.73231128415E+01  0.73231132855E+01  0.25500000000E-02 0. -1.
          2   -1    0    0  501    0  0.00000000000E+00 -0.00000000000E+00 -0.46170148232E+04  0.46170148232E+04  0.25500000000E-02 0.  1.
    5000001    1    1    2    0    0  0.56167993938E+02 -0.56479886529E+02 -0.25000954175E+04  0.25068001352E+04  0.16500000000E+03 0.  0.
   -5000001    1    1    2    0    0 -0.56167993938E+02  0.56479886529E+02 -0.21095962928E+04  0.21175378013E+04  0.16500000000E+03 0.  0.
<mgrwt>
<rscale>  0 0.36775493E+03</rscale>
<asrwt>0</asrwt>
<pdfrwt beam="1">  1        2 0.65957168E+00 0.36775493E+03</pdfrwt>
<pdfrwt beam="2">  1       -2 0.10461620E-02 0.36775493E+03</pdfrwt>
<totfact> 0.51119165E+02</totfact>
</mgrwt>
</event>
<event>
 4    1  0.5312547E-005  0.4752241E+03  0.7818608E-02  0.1020456E+00
          2   -1    0    0  501    0  0.00000000000E+00  0.00000000000E+00  0.80651341336E+03  0.80651341336E+03  0.25500000000E-02 0.  1.
         -2   -1    0    0    0  501 -0.00000000000E+00 -0.00000000000E+00 -0.70004403231E+02  0.70004403278E+02  0.25500000000E-02 0. -1.
    5000001    1    1    2    0    0 -0.14451277700E+03  0.57052366156E+02  0.23659298151E+03  0.32762807282E+03  0.16500000000E+03 0.  0.
   -5000001    1    1    2    0    0  0.14451277700E+03 -0.57052366156E+02  0.49991602861E+03  0.54888974382E+03  0.16500000000E+03 0.  0.
<mgrwt>
<rscale>  0 0.47522412E+03</rscale>
<asrwt>0</asrwt>
<pdfrwt beam="1">  1        2 0.11521619E+00 0.47522412E+03</pdfrwt>
<pdfrwt beam="2">  1       -2 0.10000630E-01 0.47522412E+03</pdfrwt>
<totfact> 0.25736403E+03</totfact>
</mgrwt>
</event>
<event>
 4    1  0.5312547E-005  0.3761034E+03  0.7818608E-02  0.1052383E+00
         -2   -1    0    0    0  501 -0.00000000000E+00  0.00000000000E+00  0.45825454896E+02  0.45825454967E+02  0.25500000000E-02 0. -1.
          2   -1    0    0  501    0  0.00000000000E+00 -0.00000000000E+00 -0.77169870114E+03  0.77169870114E+03  0.25500000000E-02 0.  1.
    5000001    1    1    2    0    0  0.75475576497E+02 -0.41746157259E+02 -0.30546210728E+03  0.35773090903E+03  0.16500000000E+03 0.  0.
   -5000001    1    1    2    0    0 -0.75475576497E+02  0.41746157259E+02 -0.42041113896E+03  0.45979324708E+03  0.16500000000E+03 0.  0.
<mgrwt>
<rscale>  0 0.37610341E+03</rscale>
<asrwt>0</asrwt>
<pdfrwt beam="1">  1        2 0.11024266E+00 0.37610341E+03</pdfrwt>
<pdfrwt beam="2">  1       -2 0.65464940E-02 0.37610341E+03</pdfrwt>
<totfact> 0.53032573E+03</totfact>
</mgrwt>
</event>
<event>
 4    1  0.5312547E-005  0.5792237E+03  0.7818608E-02  0.9949473E-01
          2   -1    0    0  501    0  0.00000000000E+00  0.00000000000E+00  0.79595227466E+03  0.79595227467E+03  0.25500000000E-02 0.  1.
         -2   -1    0    0    0  501 -0.00000000000E+00 -0.00000000000E+00 -0.10537696186E+03  0.10537696189E+03  0.25500000000E-02 0. -1.
    5000001    1    1    2    0    0  0.10221092995E+03  0.79537276874E+02  0.65602765019E+03  0.68874562099E+03  0.16500000000E+03 0.  0.
   -5000001    1    1    2    0    0 -0.10221092995E+03 -0.79537276874E+02  0.34547662610E+02  0.21258361556E+03  0.16500000000E+03 0.  0.
<mgrwt>
<rscale>  0 0.57922373E+03</rscale>
<asrwt>0</asrwt>
<pdfrwt beam="1">  1        2 0.11370746E+00 0.57922373E+03</pdfrwt>
<pdfrwt beam="2">  1       -2 0.15053852E-01 0.57922373E+03</pdfrwt>
<totfact> 0.13347759E+03</totfact>
</mgrwt>
</event>
<event>
 4    1  0.5312547E-005  0.5422424E+03  0.7818608E-02  0.1003306E+00
          2   -1    0    0  501    0  0.00000000000E+00  0.00000000000E+00  0.60307639425E+03  0.60307639425E+03  0.25500000000E-02 0.  1.
         -2   -1    0    0    0  501 -0.00000000000E+00 -0.00000000000E+00 -0.12188620625E+03  0.12188620628E+03  0.25500000000E-02 0. -1.
    5000001    1    1    2    0    0 -0.90828781732E+02 -0.14682338595E+03  0.41220058386E+03  0.47638355932E+03  0.16500000000E+03 0.  0.
   -5000001    1    1    2    0    0  0.90828781732E+02  0.14682338595E+03  0.68989604135E+02  0.24857904121E+03  0.16500000000E+03 0.  0.
<mgrwt>
<rscale>  0 0.54224236E+03</rscale>
<asrwt>0</asrwt>
<pdfrwt beam="1">  1        2 0.86153771E-01 0.54224236E+03</pdfrwt>
<pdfrwt beam="2">  1       -2 0.17412315E-01 0.54224236E+03</pdfrwt>
<totfact> 0.14633299E+03</totfact>
</mgrwt>
</event>
<event>
 4    1  0.5312547E-005  0.4651132E+03  0.7818608E-02  0.1023309E+00
          2   -1    0    0  501    0  0.00000000000E+00  0.00000000000E+00  0.11260528628E+04  0.11260528628E+04  0.25500000000E-02 0.  1.
         -2   -1    0    0    0  501 -0.00000000000E+00 -0.00000000000E+00 -0.48028444185E+02  0.48028444253E+02  0.25500000000E-02 0. -1.
    5000001    1    1    2    0    0 -0.24604120278E+02  0.16128999616E+03  0.57793393130E+03  0.62277801385E+03  0.16500000000E+03 0.  0.
   -5000001    1    1    2    0    0  0.24604120278E+02 -0.16128999616E+03  0.50009048736E+03  0.55130329325E+03  0.16500000000E+03 0.  0.
<mgrwt>
<rscale>  0 0.46511318E+03</rscale>
<asrwt>0</asrwt>
<pdfrwt beam="1">  1        2 0.16086470E+00 0.46511318E+03</pdfrwt>
<pdfrwt beam="2">  1       -2 0.68612061E-02 0.46511318E+03</pdfrwt>
<totfact> 0.29704788E+03</totfact>
</mgrwt>
</event>
<event>
 4    1  0.5312547E-005  0.7259946E+03  0.7818608E-02  0.9673782E-01
         -2   -1    0    0    0  501 -0.00000000000E+00  0.00000000000E+00  0.10639844018E+03  0.10639844021E+03  0.25500000000E-02 0. -1.
          2   -1    0    0  501    0  0.00000000000E+00 -0.00000000000E+00 -0.12384302356E+04  0.12384302356E+04  0.25500000000E-02 0.  1.
    5000001    1    1    2    0    0 -0.18462110509E+03  0.26498711422E+03 -0.59464856607E+03  0.69651636038E+03  0.16500000000E+03 0.  0.
   -5000001    1    1    2    0    0  0.18462110509E+03 -0.26498711422E+03 -0.53738322935E+03  0.64831231543E+03  0.16500000000E+03 0.  0.
<mgrwt>
<rscale>  0 0.72599462E+03</rscale>
<asrwt>0</asrwt>
<pdfrwt beam="1">  1        2 0.17691860E+00 0.72599462E+03</pdfrwt>
<pdfrwt beam="2">  1       -2 0.15199778E-01 0.72599462E+03</pdfrwt>
<totfact> 0.70071587E+02</totfact>
</mgrwt>
</event>
<event>
 4    1  0.5312547E-005  0.9400915E+03  0.7818608E-02  0.9376808E-01
          2   -1    0    0  501    0  0.00000000000E+00  0.00000000000E+00  0.94049483954E+03  0.94049483954E+03  0.25500000000E-02 0.  1.
         -2   -1    0    0    0  501 -0.00000000000E+00 -0.00000000000E+00 -0.23492209763E+03  0.23492209765E+03  0.25500000000E-02 0. -1.
    5000001    1    1    2    0    0  0.91018327733E+02  0.21787315212E+03  0.81720135889E+03  0.86648491468E+03  0.16500000000E+03 0.  0.
   -5000001    1    1    2    0    0 -0.91018327733E+02 -0.21787315212E+03 -0.11162861699E+03  0.30893202250E+03  0.16500000000E+03 0.  0.
<mgrwt>
<rscale>  0 0.94009153E+03</rscale>
<asrwt>0</asrwt>
<pdfrwt beam="1">  1        2 0.13435640E+00 0.94009153E+03</pdfrwt>
<pdfrwt beam="2">  1       -2 0.33560300E-01 0.94009153E+03</pdfrwt>
<totfact> 0.25373795E+02</totfact>
</mgrwt>
</event>
<event>
 4    1  0.5312547E-005  0.4712799E+03  0.7818608E-02  0.1021560E+00
          2   -1    0    0  501    0  0.00000000000E+00  0.00000000000E+00  0.18695732525E+04  0.18695732525E+04  0.25500000000E-02 0.  1.
         -2   -1    0    0    0  501 -0.00000000000E+00 -0.00000000000E+00 -0.29699923182E+02  0.29699923291E+02  0.25500000000E-02 0. -1.
    5000001    1    1    2    0    0  0.11717210037E+03 -0.87713805211E+02  0.12541663076E+04  0.12734131851E+04  0.16500000000E+03 0.  0.
   -5000001    1    1    2    0    0 -0.11717210037E+03  0.87713805211E+02  0.58570702172E+03  0.62585999075E+03  0.16500000000E+03 0.  0.
<mgrwt>
<rscale>  0 0.47127988E+03</rscale>
<asrwt>0</asrwt>
<pdfrwt beam="1">  1        2 0.26708190E+00 0.47127988E+03</pdfrwt>
<pdfrwt beam="2">  1       -2 0.42428460E-02 0.47127988E+03</pdfrwt>
<totfact> 0.25564938E+03</totfact>
</mgrwt>
</event>
<event>
 4    1  0.5312547E-005  0.4239108E+03  0.7818608E-02  0.1035801E+00
          2   -1    0    0  501    0  0.00000000000E+00  0.00000000000E+00  0.19948066305E+04  0.19948066305E+04  0.25500000000E-02 0.  1.
         -2   -1    0    0    0  501 -0.00000000000E+00 -0.00000000000E+00 -0.22521022616E+02  0.22521022760E+02  0.25500000000E-02 0. -1.
    5000001    1    1    2    0    0  0.66904996023E+01  0.12406997441E+03  0.12124742196E+04  0.12299418094E+04  0.16500000000E+03 0.  0.
   -5000001    1    1    2    0    0 -0.66904996023E+01 -0.12406997441E+03  0.75981138829E+03  0.78738584386E+03  0.16500000000E+03 0.  0.
<mgrwt>
<rscale>  0 0.42391077E+03</rscale>
<asrwt>0</asrwt>
<pdfrwt beam="1">  1        2 0.28497224E+00 0.42391077E+03</pdfrwt>
<pdfrwt beam="2">  1       -2 0.32172905E-02 0.42391077E+03</pdfrwt>
<totfact> 0.33780385E+03</totfact>
</mgrwt>
</event>
<event>
 4    1  0.5312547E-005  0.4372834E+03  0.7818608E-02  0.1031584E+00
          2   -1    0    0  501    0  0.00000000000E+00  0.00000000000E+00  0.79284987135E+03  0.79284987135E+03  0.25500000000E-02 0.  1.
         -2   -1    0    0    0  501 -0.00000000000E+00 -0.00000000000E+00 -0.60294117304E+02  0.60294117358E+02  0.25500000000E-02 0. -1.
    5000001    1    1    2    0    0 -0.11673867822E+03  0.60310276418E+01  0.20404007489E+03  0.28726580800E+03  0.16500000000E+03 0.  0.
   -5000001    1    1    2    0    0  0.11673867822E+03 -0.60310276418E+01  0.52851567916E+03  0.56587818071E+03  0.16500000000E+03 0.  0.
<mgrwt>
<rscale>  0 0.43728336E+03</rscale>
<asrwt>0</asrwt>
<pdfrwt beam="1">  1        2 0.11326426E+00 0.43728336E+03</pdfrwt>
<pdfrwt beam="2">  1       -2 0.86134457E-02 0.43728336E+03</pdfrwt>
<totfact> 0.33379979E+03</totfact>
</mgrwt>
</event>
<event>
 4    1  0.5312547E-005  0.5974766E+03  0.7818608E-02  0.9910655E-01
         -2   -1    0    0    0  501 -0.00000000000E+00  0.00000000000E+00  0.11723463792E+03  0.11723463795E+03  0.25500000000E-02 0. -1.
          2   -1    0    0  501    0  0.00000000000E+00 -0.00000000000E+00 -0.76124753326E+03  0.76124753327E+03  0.25500000000E-02 0.  1.
    5000001    1    1    2    0    0 -0.89730494099E+02 -0.23215542200E+03 -0.33447190577E+03  0.44837947910E+03  0.16500000000E+03 0.  0.
   -5000001    1    1    2    0    0  0.89730494099E+02  0.23215542200E+03 -0.30954098958E+03  0.43010269211E+03  0.16500000000E+03 0.  0.
<mgrwt>
<rscale>  0 0.59747662E+03</rscale>
<asrwt>0</asrwt>
<pdfrwt beam="1">  1        2 0.10874964E+00 0.59747662E+03</pdfrwt>
<pdfrwt beam="2">  1       -2 0.16747806E-01 0.59747662E+03</pdfrwt>
<totfact> 0.11786350E+03</totfact>
</mgrwt>
</event>
<event>
 4    1  0.5312547E-005  0.4026703E+03  0.7818608E-02  0.1042859E+00
         -2   -1    0    0    0  501 -0.00000000000E+00  0.00000000000E+00  0.16196327259E+02  0.16196327460E+02  0.25500000000E-02 0. -1.
          2   -1    0    0  501    0  0.00000000000E+00 -0.00000000000E+00 -0.25027803792E+04  0.25027803792E+04  0.25500000000E-02 0.  1.
    5000001    1    1    2    0    0  0.11358353905E+03 -0.20078596974E+02 -0.12592163050E+04  0.12752078549E+04  0.16500000000E+03 0.  0.
   -5000001    1    1    2    0    0 -0.11358353905E+03  0.20078596974E+02 -0.12273677470E+04  0.12437688518E+04  0.16500000000E+03 0.  0.
<mgrwt>
<rscale>  0 0.40267034E+03</rscale>
<asrwt>0</asrwt>
<pdfrwt beam="1">  1        2 0.35753981E+00 0.40267034E+03</pdfrwt>
<pdfrwt beam="2">  1       -2 0.23137626E-02 0.40267034E+03</pdfrwt>
<totfact> 0.30936194E+03</totfact>
</mgrwt>
</event>
<event>
 4    1  0.5312547E-005  0.6504581E+03  0.7818608E-02  0.9805920E-01
         -2   -1    0    0    0  501 -0.00000000000E+00  0.00000000000E+00  0.20997620994E+03  0.20997620996E+03  0.25500000000E-02 0.  1.
          2   -1    0    0  501    0  0.00000000000E+00 -0.00000000000E+00 -0.50374254527E+03  0.50374254528E+03  0.25500000000E-02 0. -1.
    5000001    1    1    2    0    0  0.73864078978E+01 -0.27377310527E+03 -0.21219225389E+03  0.38374056966E+03  0.16500000000E+03 0.  0.
   -5000001    1    1    2    0    0 -0.73864078978E+01  0.27377310527E+03 -0.81574081442E+02  0.32997818558E+03  0.16500000000E+03 0.  0.
<mgrwt>
<rscale>  0 0.65045815E+03</rscale>
<asrwt>0</asrwt>
<pdfrwt beam="1">  1        2 0.71963220E-01 0.65045815E+03</pdfrwt>
<pdfrwt beam="2">  1       -2 0.29996602E-01 0.65045815E+03</pdfrwt>
<totfact> 0.68552418E+02</totfact>
</mgrwt>
</event>
<event>
 4    1  0.5312547E-005  0.3987606E+03  0.7818608E-02  0.1044210E+00
          2   -1    0    0  501    0  0.00000000000E+00  0.00000000000E+00  0.42772236863E+03  0.42772236864E+03  0.25500000000E-02 0.  1.
         -2   -1    0    0    0  501 -0.00000000000E+00 -0.00000000000E+00 -0.92939983632E+02  0.92939983667E+02  0.25500000000E-02 0. -1.
    5000001    1    1    2    0    0 -0.10973304767E+03 -0.72002664991E+01  0.14017978551E+03  0.24283442477E+03  0.16500000000E+03 0.  0.
   -5000001    1    1    2    0    0  0.10973304767E+03  0.72002664991E+01  0.19460259949E+03  0.27782792753E+03  0.16500000000E+03 0.  0.
<mgrwt>
<rscale>  0 0.39876063E+03</rscale>
<asrwt>0</asrwt>
<pdfrwt beam="1">  1        2 0.61103194E-01 0.39876063E+03</pdfrwt>
<pdfrwt beam="2">  1       -2 0.13277141E-01 0.39876063E+03</pdfrwt>
<totfact> 0.33942953E+03</totfact>
</mgrwt>
</event>
<event>
 4    1  0.5312547E-005  0.3904564E+03  0.7818608E-02  0.1047135E+00
          2   -1    0    0  501    0  0.00000000000E+00  0.00000000000E+00  0.34532607056E+03  0.34532607057E+03  0.25500000000E-02 0.  1.
         -2   -1    0    0    0  501 -0.00000000000E+00 -0.00000000000E+00 -0.11037116427E+03  0.11037116430E+03  0.25500000000E-02 0. -1.
    5000001    1    1    2    0    0 -0.23058421495E+02 -0.86135503787E+02  0.54217098794E+02  0.19523193800E+03  0.16500000000E+03 0.  0.
   -5000001    1    1    2    0    0  0.23058421495E+02  0.86135503787E+02  0.18073780750E+03  0.26046529687E+03  0.16500000000E+03 0.  0.
<mgrwt>
<rscale>  0 0.39045635E+03</rscale>
<asrwt>0</asrwt>
<pdfrwt beam="1">  1        2 0.49332296E-01 0.39045635E+03</pdfrwt>
<pdfrwt beam="2">  1       -2 0.15767309E-01 0.39045635E+03</pdfrwt>
<totfact> 0.32235298E+03</totfact>
</mgrwt>
</event>
<event>
 4    1  0.5312547E-005  0.4112569E+03  0.7818608E-02  0.1039950E+00
          2   -1    0    0  501    0  0.00000000000E+00  0.00000000000E+00  0.21926631560E+02  0.21926631708E+02  0.25500000000E-02 0.  1.
         -2   -1    0    0    0  501 -0.00000000000E+00 -0.00000000000E+00 -0.19283886416E+04  0.19283886416E+04  0.25500000000E-02 0. -1.
    5000001    1    1    2    0    0  0.10117809568E+03 -0.63006577571E+02 -0.81486944977E+03  0.83990717108E+03  0.16500000000E+03 0.  0.
   -5000001    1    1    2    0    0 -0.10117809568E+03  0.63006577571E+02 -0.10915925603E+04  0.11104081022E+04  0.16500000000E+03 0.  0.
<mgrwt>
<rscale>  0 0.41125694E+03</rscale>
<asrwt>0</asrwt>
<pdfrwt beam="1">  1        2 0.31323772E-02 0.41125694E+03</pdfrwt>
<pdfrwt beam="2">  1       -2 0.27548398E+00 0.41125694E+03</pdfrwt>
<totfact> 0.14906469E+02</totfact>
</mgrwt>
</event>
<event>
 4    1  0.5312547E-005  0.7096938E+03  0.7818608E-02  0.9700797E-01
         -2   -1    0    0    0  501 -0.00000000000E+00  0.00000000000E+00  0.45276269542E+02  0.45276269614E+02  0.25500000000E-02 0. -1.
          2   -1    0    0  501    0  0.00000000000E+00 -0.00000000000E+00 -0.27810666840E+04  0.27810666840E+04  0.25500000000E-02 0.  1.
    5000001    1    1    2    0    0  0.16641682757E+03  0.26644689803E+03 -0.13612134936E+04  0.14067038370E+04  0.16500000000E+03 0.  0.
   -5000001    1    1    2    0    0 -0.16641682757E+03 -0.26644689803E+03 -0.13745769209E+04  0.14196391166E+04  0.16500000000E+03 0.  0.
<mgrwt>
<rscale>  0 0.70969381E+03</rscale>
<asrwt>0</asrwt>
<pdfrwt beam="1">  1        2 0.39729513E+00 0.70969381E+03</pdfrwt>
<pdfrwt beam="2">  1       -2 0.64680403E-02 0.70969381E+03</pdfrwt>
<totfact> 0.44897553E+02</totfact>
</mgrwt>
</event>
<event>
 4    1  0.5312547E-005  0.4985332E+03  0.7818608E-02  0.1014162E+00
         -2   -1    0    0    0  501 -0.00000000000E+00  0.00000000000E+00  0.23526343693E+02  0.23526343831E+02  0.25500000000E-02 0. -1.
          2   -1    0    0  501    0  0.00000000000E+00 -0.00000000000E+00 -0.26410328759E+04  0.26410328759E+04  0.25500000000E-02 0.  1.
    5000001    1    1    2    0    0 -0.76246586847E+02 -0.17007097124E+03 -0.12388262230E+04  0.12635873884E+04  0.16500000000E+03 0.  0.
   -5000001    1    1    2    0    0  0.76246586847E+02  0.17007097124E+03 -0.13786803092E+04  0.14009718313E+04  0.16500000000E+03 0.  0.
<mgrwt>
<rscale>  0 0.49853324E+03</rscale>
<asrwt>0</asrwt>
<pdfrwt beam="1">  1        2 0.37729022E+00 0.49853324E+03</pdfrwt>
<pdfrwt beam="2">  1       -2 0.33609079E-02 0.49853324E+03</pdfrwt>
<totfact> 0.14892037E+03</totfact>
</mgrwt>
</event>
<event>
 4    1  0.5312547E-005  0.5252880E+03  0.7818608E-02  0.1007381E+00
          2   -1    0    0  501    0  0.00000000000E+00  0.00000000000E+00  0.49129945727E+03  0.49129945727E+03  0.25500000000E-02 0.  1.
         -2   -1    0    0    0  501 -0.00000000000E+00 -0.00000000000E+00 -0.14040696057E+03  0.14040696059E+03  0.25500000000E-02 0. -1.
    5000001    1    1    2    0    0 -0.67318123771E+02  0.15238075432E+03  0.31776531981E+03  0.39490685300E+03  0.16500000000E+03 0.  0.
   -5000001    1    1    2    0    0  0.67318123771E+02 -0.15238075432E+03  0.33127176892E+02  0.23679956487E+03  0.16500000000E+03 0.  0.
<mgrwt>
<rscale>  0 0.52528797E+03</rscale>
<asrwt>0</asrwt>
<pdfrwt beam="1">  1        2 0.70185635E-01 0.52528797E+03</pdfrwt>
<pdfrwt beam="2">  1       -2 0.20058138E-01 0.52528797E+03</pdfrwt>
<totfact> 0.14519642E+03</totfact>
</mgrwt>
</event>
<event>
 4    1  0.5312547E-005  0.5407631E+03  0.7818608E-02  0.1003655E+00
          2   -1    0    0  501    0  0.00000000000E+00  0.00000000000E+00  0.83380467584E+02  0.83380467623E+02  0.25500000000E-02 0.  1.
         -2   -1    0    0    0  501 -0.00000000000E+00 -0.00000000000E+00 -0.87677831779E+03  0.87677831779E+03  0.25500000000E-02 0. -1.
    5000001    1    1    2    0    0  0.11929041675E+02  0.20482739439E+03 -0.50593027219E+03  0.57033937603E+03  0.16500000000E+03 0.  0.
   -5000001    1    1    2    0    0 -0.11929041675E+02 -0.20482739439E+03 -0.28746757801E+03  0.38981940939E+03  0.16500000000E+03 0.  0.
<mgrwt>
<rscale>  0 0.54076311E+03</rscale>
<asrwt>0</asrwt>
<pdfrwt beam="1">  1        2 0.11911496E-01 0.54076311E+03</pdfrwt>
<pdfrwt beam="2">  1       -2 0.12525404E+00 0.54076311E+03</pdfrwt>
<totfact> 0.25774568E+02</totfact>
</mgrwt>
</event>
<event>
 4    1  0.5312547E-005  0.5954760E+03  0.7818608E-02  0.9914837E-01
          2   -1    0    0  501    0  0.00000000000E+00  0.00000000000E+00  0.16384244332E+04  0.16384244333E+04  0.25500000000E-02 0.  1.
         -2   -1    0    0    0  501 -0.00000000000E+00 -0.00000000000E+00 -0.54105578837E+02  0.54105578897E+02  0.25500000000E-02 0. -1.
    5000001    1    1    2    0    0  0.13206685813E+03  0.20792823197E+03  0.86984866468E+03  0.91898721651E+03  0.16500000000E+03 0.  0.
   -5000001    1    1    2    0    0 -0.13206685813E+03 -0.20792823197E+03  0.71447018973E+03  0.77354279564E+03  0.16500000000E+03 0.  0.
<mgrwt>
<rscale>  0 0.59547595E+03</rscale>
<asrwt>0</asrwt>
<pdfrwt beam="1">  1        2 0.23406065E+00 0.59547595E+03</pdfrwt>
<pdfrwt beam="2">  1       -2 0.77293680E-02 0.59547595E+03</pdfrwt>
<totfact> 0.13071348E+03</totfact>
</mgrwt>
</event>
<event>
 4    1  0.5312547E-005  0.4264233E+03  0.7818608E-02  0.1034996E+00
         -2   -1    0    0    0  501 -0.00000000000E+00  0.00000000000E+00  0.55198254935E+02  0.55198254994E+02  0.25500000000E-02 0. -1.
          2   -1    0    0  501    0  0.00000000000E+00 -0.00000000000E+00 -0.82356246768E+03  0.82356246769E+03  0.25500000000E-02 0.  1.
    5000001    1    1    2    0    0 -0.48739414655E+02  0.88045565528E+02 -0.19863651279E+03  0.27714439624E+03  0.16500000000E+03 0.  0.
   -5000001    1    1    2    0    0  0.48739414655E+02 -0.88045565528E+02 -0.56972769995E+03  0.60161632644E+03  0.16500000000E+03 0.  0.
<mgrwt>
<rscale>  0 0.42642332E+03</rscale>
<asrwt>0</asrwt>
<pdfrwt beam="1">  1        2 0.11765177E+00 0.42642332E+03</pdfrwt>
<pdfrwt beam="2">  1       -2 0.78854655E-02 0.42642332E+03</pdfrwt>
<totfact> 0.36579524E+03</totfact>
</mgrwt>
</event>
<event>
 4    1  0.5312547E-005  0.8357570E+03  0.7818608E-02  0.9509655E-01
         -2   -1    0    0    0  501 -0.00000000000E+00  0.00000000000E+00  0.26083071061E+03  0.26083071062E+03  0.25500000000E-02 0. -1.
          2   -1    0    0  501    0  0.00000000000E+00 -0.00000000000E+00 -0.66948572384E+03  0.66948572384E+03  0.25500000000E-02 0.  1.
    5000001    1    1    2    0    0  0.24760988509E+03  0.26388074437E+03 -0.61542396935E+02  0.40243778284E+03  0.16500000000E+03 0.  0.
   -5000001    1    1    2    0    0 -0.24760988509E+03 -0.26388074437E+03 -0.34711261629E+03  0.52787865161E+03  0.16500000000E+03 0.  0.
<mgrwt>
<rscale>  0 0.83575699E+03</rscale>
<asrwt>0</asrwt>
<pdfrwt beam="1">  1        2 0.95640817E-01 0.83575699E+03</pdfrwt>
<pdfrwt beam="2">  1       -2 0.37261530E-01 0.83575699E+03</pdfrwt>
<totfact> 0.32389099E+02</totfact>
</mgrwt>
</event>
<event>
 4    1  0.5312547E-005  0.5264575E+03  0.7818608E-02  0.1007095E+00
          2   -1    0    0  501    0  0.00000000000E+00  0.00000000000E+00  0.55472857002E+03  0.55472857002E+03  0.25500000000E-02 0.  1.
         -2   -1    0    0    0  501 -0.00000000000E+00 -0.00000000000E+00 -0.12490681633E+03  0.12490681636E+03  0.25500000000E-02 0. -1.
    5000001    1    1    2    0    0 -0.33048280867E+02  0.20025781048E+03  0.17685492731E+03  0.31574997204E+03  0.16500000000E+03 0.  0.
   -5000001    1    1    2    0    0  0.33048280867E+02 -0.20025781048E+03  0.25296682638E+03  0.36388541435E+03  0.16500000000E+03 0.  0.
<mgrwt>
<rscale>  0 0.52645752E+03</rscale>
<asrwt>0</asrwt>
<pdfrwt beam="1">  1        2 0.79246939E-01 0.52645752E+03</pdfrwt>
<pdfrwt beam="2">  1       -2 0.17843831E-01 0.52645752E+03</pdfrwt>
<totfact> 0.15466252E+03</totfact>
</mgrwt>
</event>
<event>
 4    1  0.5312547E-005  0.5032006E+03  0.7818608E-02  0.1012947E+00
          2   -1    0    0  501    0  0.00000000000E+00  0.00000000000E+00  0.11371307101E+04  0.11371307101E+04  0.25500000000E-02 0.  1.
         -2   -1    0    0    0  501 -0.00000000000E+00 -0.00000000000E+00 -0.55668803733E+02  0.55668803792E+02  0.25500000000E-02 0. -1.
    5000001    1    1    2    0    0  0.62627429284E+02 -0.14534813447E+03  0.78967564947E+03  0.82210760030E+03  0.16500000000E+03 0.  0.
   -5000001    1    1    2    0    0 -0.62627429284E+02  0.14534813447E+03  0.29178625689E+03  0.37069191359E+03  0.16500000000E+03 0.  0.
<mgrwt>
<rscale>  0 0.50320058E+03</rscale>
<asrwt>0</asrwt>
<pdfrwt beam="1">  1        2 0.16244723E+00 0.50320058E+03</pdfrwt>
<pdfrwt beam="2">  1       -2 0.79526869E-02 0.50320058E+03</pdfrwt>
<totfact> 0.23191634E+03</totfact>
</mgrwt>
</event>
<event>
 4    1  0.5312547E-005  0.7373675E+03  0.7818608E-02  0.9655380E-01
          2   -1    0    0  501    0  0.00000000000E+00  0.00000000000E+00  0.17148375856E+04  0.17148375856E+04  0.25500000000E-02 0.  1.
         -2   -1    0    0    0  501 -0.00000000000E+00 -0.00000000000E+00 -0.79265642361E+02  0.79265642402E+02  0.25500000000E-02 0. -1.
    5000001    1    1    2    0    0 -0.26394645161E+03  0.11215952395E+03  0.42203764399E+03  0.53627256230E+03  0.16500000000E+03 0.  0.
   -5000001    1    1    2    0    0  0.26394645161E+03 -0.11215952395E+03  0.12135342993E+04  0.12578306657E+04  0.16500000000E+03 0.  0.
<mgrwt>
<rscale>  0 0.73736749E+03</rscale>
<asrwt>0</asrwt>
<pdfrwt beam="1">  1        2 0.24497679E+00 0.73736749E+03</pdfrwt>
<pdfrwt beam="2">  1       -2 0.11323663E-01 0.73736749E+03</pdfrwt>
<totfact> 0.64010805E+02</totfact>
</mgrwt>
</event>
<event>
 4    1  0.5312547E-005  0.5637568E+03  0.7818608E-02  0.9983590E-01
         -2   -1    0    0    0  501 -0.00000000000E+00  0.00000000000E+00  0.56068780517E+02  0.56068780575E+02  0.25500000000E-02 0. -1.
          2   -1    0    0  501    0  0.00000000000E+00 -0.00000000000E+00 -0.14171063170E+04  0.14171063170E+04  0.25500000000E-02 0.  1.
    5000001    1    1    2    0    0  0.22198139606E+03  0.48876354274E+02 -0.74267551501E+03  0.79401294625E+03  0.16500000000E+03 0.  0.
   -5000001    1    1    2    0    0 -0.22198139606E+03 -0.48876354274E+02 -0.61836202144E+03  0.67916215131E+03  0.16500000000E+03 0.  0.
<mgrwt>
<rscale>  0 0.56375677E+03</rscale>
<asrwt>0</asrwt>
<pdfrwt beam="1">  1        2 0.20244374E+00 0.56375677E+03</pdfrwt>
<pdfrwt beam="2">  1       -2 0.80098266E-02 0.56375677E+03</pdfrwt>
<totfact> 0.16106230E+03</totfact>
</mgrwt>
</event>
<event>
 4    1  0.5312547E-005  0.3963604E+03  0.7818608E-02  0.1045047E+00
          2   -1    0    0  501    0  0.00000000000E+00  0.00000000000E+00  0.16301434067E+04  0.16301434067E+04  0.25500000000E-02 0.  1.
         -2   -1    0    0    0  501 -0.00000000000E+00 -0.00000000000E+00 -0.24093207261E+02  0.24093207396E+02  0.25500000000E-02 0. -1.
    5000001    1    1    2    0    0 -0.77861847157E+02 -0.57781470953E+02  0.58820929938E+03  0.61855989646E+03  0.16500000000E+03 0.  0.
   -5000001    1    1    2    0    0  0.77861847157E+02  0.57781470953E+02  0.10178409000E+04  0.10356767176E+04  0.16500000000E+03 0.  0.
<mgrwt>
<rscale>  0 0.39636036E+03</rscale>
<asrwt>0</asrwt>
<pdfrwt beam="1">  1        2 0.23287773E+00 0.39636036E+03</pdfrwt>
<pdfrwt beam="2">  1       -2 0.34418853E-02 0.39636036E+03</pdfrwt>
<totfact> 0.46369920E+03</totfact>
</mgrwt>
</event>
<event>
 4    1  0.5312547E-005  0.4542718E+03  0.7818608E-02  0.1026456E+00
          2   -1    0    0  501    0  0.00000000000E+00  0.00000000000E+00  0.31151960866E+03  0.31151960867E+03  0.25500000000E-02 0.  1.
         -2   -1    0    0    0  501 -0.00000000000E+00 -0.00000000000E+00 -0.16560983369E+03  0.16560983371E+03  0.25500000000E-02 0. -1.
    5000001    1    1    2    0    0  0.68542441564E+02  0.92207034305E+02 -0.38028938521E+02  0.20462503179E+03  0.16500000000E+03 0.  0.
   -5000001    1    1    2    0    0 -0.68542441564E+02 -0.92207034305E+02  0.18393871349E+03  0.27250441059E+03  0.16500000000E+03 0.  0.
<mgrwt>
<rscale>  0 0.45427177E+03</rscale>
<asrwt>0</asrwt>
<pdfrwt beam="1">  1        2 0.44502801E-01 0.45427177E+03</pdfrwt>
<pdfrwt beam="2">  1       -2 0.23658548E-01 0.45427177E+03</pdfrwt>
<totfact> 0.17979112E+03</totfact>
</mgrwt>
</event>
<event>
 4    1  0.5312547E-005  0.3567552E+03  0.7818608E-02  0.1059876E+00
         -2   -1    0    0    0  501 -0.00000000000E+00  0.00000000000E+00  0.72639841166E+02  0.72639841210E+02  0.25500000000E-02 0. -1.
          2   -1    0    0  501    0  0.00000000000E+00 -0.00000000000E+00 -0.43803186701E+03  0.43803186701E+03  0.25500000000E-02 0.  1.
    5000001    1    1    2    0    0 -0.29311399071E+02  0.57679530750E+02 -0.21159110318E+03  0.27601065437E+03  0.16500000000E+03 0.  0.
   -5000001    1    1    2    0    0  0.29311399071E+02 -0.57679530750E+02 -0.15380092266E+03  0.23466105385E+03  0.16500000000E+03 0.  0.
<mgrwt>
<rscale>  0 0.35675518E+03</rscale>
<asrwt>0</asrwt>
<pdfrwt beam="1">  1        2 0.62575980E-01 0.35675518E+03</pdfrwt>
<pdfrwt beam="2">  1       -2 0.10377120E-01 0.35675518E+03</pdfrwt>
<totfact> 0.49231916E+03</totfact>
</mgrwt>
</event>
<event>
 4    1  0.5312547E-005  0.4080977E+03  0.7818608E-02  0.1041011E+00
          2   -1    0    0  501    0  0.00000000000E+00  0.00000000000E+00  0.16956073038E+03  0.16956073040E+03  0.25500000000E-02 0.  1.
         -2   -1    0    0    0  501 -0.00000000000E+00 -0.00000000000E+00 -0.24555169542E+03  0.24555169543E+03  0.25500000000E-02 0. -1.
    5000001    1    1    2    0    0 -0.15083651725E+02  0.11668593293E+03 -0.62233652942E+02  0.21199328068E+03  0.16500000000E+03 0.  0.
   -5000001    1    1    2    0    0  0.15083651725E+02 -0.11668593293E+03 -0.13757312089E+02  0.20311914516E+03  0.16500000000E+03 0.  0.
<mgrwt>
<rscale>  0 0.40809766E+03</rscale>
<asrwt>0</asrwt>
<pdfrwt beam="1">  1        2 0.24222961E-01 0.40809766E+03</pdfrwt>
<pdfrwt beam="2">  1       -2 0.35078814E-01 0.40809766E+03</pdfrwt>
<totfact> 0.17190954E+03</totfact>
</mgrwt>
</event>
<event>
 4    1  0.5312547E-005  0.3566693E+03  0.7818608E-02  0.1059910E+00
         -2   -1    0    0    0  501 -0.00000000000E+00  0.00000000000E+00  0.27229412425E+02  0.27229412544E+02  0.25500000000E-02 0. -1.
          2   -1    0    0  501    0  0.00000000000E+00 -0.00000000000E+00 -0.11679741410E+04  0.11679741410E+04  0.25500000000E-02 0.  1.
    5000001    1    1    2    0    0  0.15902347483E+02  0.20766109284E+02 -0.36125911009E+03  0.39801665866E+03  0.16500000000E+03 0.  0.
   -5000001    1    1    2    0    0 -0.15902347483E+02 -0.20766109284E+02 -0.77948561852E+03  0.79718689492E+03  0.16500000000E+03 0.  0.
<mgrwt>
<rscale>  0 0.35666931E+03</rscale>
<asrwt>0</asrwt>
<pdfrwt beam="1">  1        2 0.16685342E+00 0.35666931E+03</pdfrwt>
<pdfrwt beam="2">  1       -2 0.38899168E-02 0.35666931E+03</pdfrwt>
<totfact> 0.67244077E+03</totfact>
</mgrwt>
</event>
<event>
 4    1  0.5312547E-005  0.4762845E+03  0.7818608E-02  0.1020161E+00
          2   -1    0    0  501    0  0.00000000000E+00  0.00000000000E+00  0.48491986058E+04  0.48491986058E+04  0.25500000000E-02 0.  1.
         -2   -1    0    0    0  501 -0.00000000000E+00 -0.00000000000E+00 -0.11695073458E+02  0.11695073736E+02  0.25500000000E-02 0. -1.
    5000001    1    1    2    0    0  0.16785757049E+03 -0.97221548049E+00  0.27880890978E+04  0.27980069562E+04  0.16500000000E+03 0.  0.
   -5000001    1    1    2    0    0 -0.16785757049E+03  0.97221548049E+00  0.20494144345E+04  0.20628867233E+04  0.16500000000E+03 0.  0.
<mgrwt>
<rscale>  0 0.47628451E+03</rscale>
<asrwt>0</asrwt>
<pdfrwt beam="1">  1        2 0.69274331E+00 0.47628451E+03</pdfrwt>
<pdfrwt beam="2">  1       -2 0.16707232E-02 0.47628451E+03</pdfrwt>
<totfact> 0.15993748E+02</totfact>
</mgrwt>
</event>
<event>
 4    1  0.5312547E-005  0.6752245E+03  0.7818608E-02  0.9760565E-01
          2   -1    0    0  501    0  0.00000000000E+00  0.00000000000E+00  0.89512745732E+03  0.89512745733E+03  0.25500000000E-02 0.  1.
         -2   -1    0    0    0  501 -0.00000000000E+00 -0.00000000000E+00 -0.12733610561E+03  0.12733610563E+03  0.25500000000E-02 0. -1.
    5000001    1    1    2    0    0  0.82781053276E+02 -0.27072907620E+03  0.50700868115E+03  0.60368016220E+03  0.16500000000E+03 0.  0.
   -5000001    1    1    2    0    0 -0.82781053276E+02  0.27072907620E+03  0.26078267057E+03  0.41878340075E+03  0.16500000000E+03 0.  0.
<mgrwt>
<rscale>  0 0.67522454E+03</rscale>
<asrwt>0</asrwt>
<pdfrwt beam="1">  1        2 0.12787535E+00 0.67522454E+03</pdfrwt>
<pdfrwt beam="2">  1       -2 0.18190873E-01 0.67522454E+03</pdfrwt>
<totfact> 0.82781438E+02</totfact>
</mgrwt>
</event>
<event>
 4    1  0.5312547E-005  0.7224391E+03  0.7818608E-02  0.9679610E-01
         -2   -1    0    0    0  501 -0.00000000000E+00  0.00000000000E+00  0.11644955547E+03  0.11644955550E+03  0.25500000000E-02 0. -1.
          2   -1    0    0  501    0  0.00000000000E+00 -0.00000000000E+00 -0.11204814941E+04  0.11204814941E+04  0.25500000000E-02 0.  1.
    5000001    1    1    2    0    0  0.19283312947E+03  0.24142176267E+03 -0.35094285898E+03  0.49583764841E+03  0.16500000000E+03 0.  0.
   -5000001    1    1    2    0    0 -0.19283312947E+03 -0.24142176267E+03 -0.65308907961E+03  0.74109340114E+03  0.16500000000E+03 0.  0.
<mgrwt>
<rscale>  0 0.72243912E+03</rscale>
<asrwt>0</asrwt>
<pdfrwt beam="1">  1        2 0.16006878E+00 0.72243912E+03</pdfrwt>
<pdfrwt beam="2">  1       -2 0.16635651E-01 0.72243912E+03</pdfrwt>
<totfact> 0.70143934E+02</totfact>
</mgrwt>
</event>
<event>
 4    1  0.5312547E-005  0.5725052E+03  0.7818608E-02  0.9964150E-01
          2   -1    0    0  501    0  0.00000000000E+00  0.00000000000E+00  0.82879583250E+03  0.82879583250E+03  0.25500000000E-02 0.  1.
         -2   -1    0    0    0  501 -0.00000000000E+00 -0.00000000000E+00 -0.98866978942E+02  0.98866978975E+02  0.25500000000E-02 0. -1.
    5000001    1    1    2    0    0 -0.96418661627E+02 -0.10522195020E+03  0.64663144151E+02  0.22754019277E+03  0.16500000000E+03 0.  0.
   -5000001    1    1    2    0    0  0.96418661627E+02  0.10522195020E+03  0.66526570941E+03  0.70012261871E+03  0.16500000000E+03 0.  0.
<mgrwt>
<rscale>  0 0.57250516E+03</rscale>
<asrwt>0</asrwt>
<pdfrwt beam="1">  1        2 0.11839941E+00 0.57250516E+03</pdfrwt>
<pdfrwt beam="2">  1       -2 0.14123854E-01 0.57250516E+03</pdfrwt>
<totfact> 0.14104620E+03</totfact>
</mgrwt>
</event>
<event>
 4    1  0.5312547E-005  0.3565372E+03  0.7818608E-02  0.1059963E+00
          2   -1    0    0  501    0  0.00000000000E+00  0.00000000000E+00  0.84480118453E+03  0.84480118454E+03  0.25500000000E-02 0.  1.
         -2   -1    0    0    0  501 -0.00000000000E+00 -0.00000000000E+00 -0.37617965271E+02  0.37617965357E+02  0.25500000000E-02 0. -1.
    5000001    1    1    2    0    0  0.57968009393E+02  0.75373460602E+01  0.32011499939E+03  0.36485026317E+03  0.16500000000E+03 0.  0.
   -5000001    1    1    2    0    0 -0.57968009393E+02 -0.75373460602E+01  0.48706821987E+03  0.51756888673E+03  0.16500000000E+03 0.  0.
<mgrwt>
<rscale>  0 0.35653724E+03</rscale>
<asrwt>0</asrwt>
<pdfrwt beam="1">  1        2 0.12068587E+00 0.35653724E+03</pdfrwt>
<pdfrwt beam="2">  1       -2 0.53739956E-02 0.35653724E+03</pdfrwt>
<totfact> 0.64134973E+03</totfact>
</mgrwt>
</event>
<event>
 4    1  0.5312547E-005  0.1535655E+04  0.7818608E-02  0.8861083E-01
         -2   -1    0    0    0  501 -0.00000000000E+00  0.00000000000E+00  0.80977896317E+03  0.80977896318E+03  0.25500000000E-02 0.  1.
          2   -1    0    0  501    0  0.00000000000E+00 -0.00000000000E+00 -0.72804973390E+03  0.72804973390E+03  0.25500000000E-02 0. -1.
    5000001    1    1    2    0    0  0.11276878698E+03  0.56381181091E+03 -0.44120403527E+03  0.74329439536E+03  0.16500000000E+03 0.  0.
   -5000001    1    1    2    0    0 -0.11276878698E+03 -0.56381181091E+03  0.52293326454E+03  0.79453430172E+03  0.16500000000E+03 0.  0.
<mgrwt>
<rscale>  0 0.15356554E+04</rscale>
<asrwt>0</asrwt>
<pdfrwt beam="1">  1        2 0.10400710E+00 0.15356554E+04</pdfrwt>
<pdfrwt beam="2">  1       -2 0.11568271E+00 0.15356554E+04</pdfrwt>
<totfact> 0.24052863E+01</totfact>
</mgrwt>
</event>
<event>
 4    1  0.5312547E-005  0.6411700E+03  0.7818608E-02  0.9823491E-01
          2   -1    0    0  501    0  0.00000000000E+00  0.00000000000E+00  0.26097456980E+04  0.26097456980E+04  0.25500000000E-02 0. -1.
         -2   -1    0    0    0  501 -0.00000000000E+00 -0.00000000000E+00 -0.39381135856E+02  0.39381135938E+02  0.25500000000E-02 0.  1.
    5000001    1    1    2    0    0  0.23381116472E+03  0.13048251740E+03  0.15417610315E+04  0.15735137198E+04  0.16500000000E+03 0.  0.
   -5000001    1    1    2    0    0 -0.23381116472E+03 -0.13048251740E+03  0.10286035307E+04  0.10756131142E+04  0.16500000000E+03 0.  0.
<mgrwt>
<rscale>  0 0.64117002E+03</rscale>
<asrwt>0</asrwt>
<pdfrwt beam="1">  1        2 0.37282083E+00 0.64117002E+03</pdfrwt>
<pdfrwt beam="2">  1       -2 0.56258762E-02 0.64117002E+03</pdfrwt>
<totfact> 0.69156450E+02</totfact>
</mgrwt>
</event>
<event>
 4    1  0.5312547E-005  0.4146357E+03  0.7818608E-02  0.1038826E+00
         -2   -1    0    0    0  501 -0.00000000000E+00  0.00000000000E+00  0.20326364827E+02  0.20326364987E+02  0.25500000000E-02 0. -1.
          2   -1    0    0  501    0  0.00000000000E+00 -0.00000000000E+00 -0.21145288201E+04  0.21145288201E+04  0.25500000000E-02 0.  1.
    5000001    1    1    2    0    0  0.11476590697E+03  0.34444428234E+02 -0.85458671177E+03  0.87857901180E+03  0.16500000000E+03 0.  0.
   -5000001    1    1    2    0    0 -0.11476590697E+03 -0.34444428234E+02 -0.12396157435E+04  0.12562761733E+04  0.16500000000E+03 0.  0.
<mgrwt>
<rscale>  0 0.41463567E+03</rscale>
<asrwt>0</asrwt>
<pdfrwt beam="1">  1        2 0.30207541E+00 0.41463567E+03</pdfrwt>
<pdfrwt beam="2">  1       -2 0.29037678E-02 0.41463567E+03</pdfrwt>
<totfact> 0.34399773E+03</totfact>
</mgrwt>
</event>
<event>
 4    1  0.5312547E-005  0.5847981E+03  0.7818608E-02  0.9937457E-01
          2   -1    0    0  501    0  0.00000000000E+00  0.00000000000E+00  0.71439752359E+03  0.71439752360E+03  0.25500000000E-02 0.  1.
         -2   -1    0    0    0  501 -0.00000000000E+00 -0.00000000000E+00 -0.11967735434E+03  0.11967735437E+03  0.25500000000E-02 0. -1.
    5000001    1    1    2    0    0 -0.96948996747E+02 -0.72762251608E+01 -0.17776379603E+02  0.19233577695E+03  0.16500000000E+03 0.  0.
   -5000001    1    1    2    0    0  0.96948996747E+02  0.72762251608E+01  0.61249654885E+03  0.64173910102E+03  0.16500000000E+03 0.  0.
<mgrwt>
<rscale>  0 0.58479810E+03</rscale>
<asrwt>0</asrwt>
<pdfrwt beam="1">  1        2 0.10205679E+00 0.58479810E+03</pdfrwt>
<pdfrwt beam="2">  1       -2 0.17096765E-01 0.58479810E+03</pdfrwt>
<totfact> 0.12315710E+03</totfact>
</mgrwt>
</event>
<event>
 4    1  0.5312547E-005  0.5583116E+03  0.7818608E-02  0.9995882E-01
         -2   -1    0    0    0  501 -0.00000000000E+00  0.00000000000E+00  0.61681744953E+02  0.61681745006E+02  0.25500000000E-02 0. -1.
          2   -1    0    0  501    0  0.00000000000E+00 -0.00000000000E+00 -0.12633875863E+04  0.12633875863E+04  0.25500000000E-02 0.  1.
    5000001    1    1    2    0    0 -0.17027783951E+02 -0.22294839959E+03 -0.53774602959E+03  0.60530300399E+03  0.16500000000E+03 0.  0.
   -5000001    1    1    2    0    0  0.17027783951E+02  0.22294839959E+03 -0.66395981172E+03  0.71976632728E+03  0.16500000000E+03 0.  0.
<mgrwt>
<rscale>  0 0.55831157E+03</rscale>
<asrwt>0</asrwt>
<pdfrwt beam="1">  1        2 0.18048393E+00 0.55831157E+03</pdfrwt>
<pdfrwt beam="2">  1       -2 0.88116786E-02 0.55831157E+03</pdfrwt>
<totfact> 0.16729339E+03</totfact>
</mgrwt>
</event>
<event>
 4    1  0.5312547E-005  0.3938492E+03  0.7818608E-02  0.1045931E+00
         -2   -1    0    0    0  501 -0.00000000000E+00  0.00000000000E+00  0.27126508974E+02  0.27126509094E+02  0.25500000000E-02 0. -1.
          2   -1    0    0  501    0  0.00000000000E+00 -0.00000000000E+00 -0.14295718417E+04  0.14295718417E+04  0.25500000000E-02 0.  1.
    5000001    1    1    2    0    0 -0.47728472619E+02 -0.74340264748E+02 -0.47473508169E+03  0.51029685463E+03  0.16500000000E+03 0.  0.
   -5000001    1    1    2    0    0  0.47728472619E+02  0.74340264748E+02 -0.92771025105E+03  0.94640149617E+03  0.16500000000E+03 0.  0.
<mgrwt>
<rscale>  0 0.39384918E+03</rscale>
<asrwt>0</asrwt>
<pdfrwt beam="1">  1        2 0.20422450E+00 0.39384918E+03</pdfrwt>
<pdfrwt beam="2">  1       -2 0.38752165E-02 0.39384918E+03</pdfrwt>
<totfact> 0.49055616E+03</totfact>
</mgrwt>
</event>
<event>
 4    1  0.5312547E-005  0.5090083E+03  0.7818608E-02  0.1011454E+00
         -2   -1    0    0    0  501 -0.00000000000E+00  0.00000000000E+00  0.22014235635E+02  0.22014235782E+02  0.25500000000E-02 0. -1.
          2   -1    0    0  501    0  0.00000000000E+00 -0.00000000000E+00 -0.29422947981E+04  0.29422947981E+04  0.25500000000E-02 0.  1.
    5000001    1    1    2    0    0 -0.93898701479E+02 -0.16664937464E+03 -0.12798509830E+04  0.13045430307E+04  0.16500000000E+03 0.  0.
   -5000001    1    1    2    0    0  0.93898701479E+02  0.16664937464E+03 -0.16404295795E+04  0.16597660032E+04  0.16500000000E+03 0.  0.
<mgrwt>
<rscale>  0 0.50900833E+03</rscale>
<asrwt>0</asrwt>
<pdfrwt beam="1">  1        2 0.42032758E+00 0.50900833E+03</pdfrwt>
<pdfrwt beam="2">  1       -2 0.31448927E-02 0.50900833E+03</pdfrwt>
<totfact> 0.11424736E+03</totfact>
</mgrwt>
</event>
<event>
 4    1  0.5312547E-005  0.4200957E+03  0.7818608E-02  0.1037035E+00
          2   -1    0    0  501    0  0.00000000000E+00  0.00000000000E+00  0.11255259264E+04  0.11255259264E+04  0.25500000000E-02 0. -1.
         -2   -1    0    0    0  501 -0.00000000000E+00 -0.00000000000E+00 -0.39199539003E+02  0.39199539086E+02  0.25500000000E-02 0.  1.
    5000001    1    1    2    0    0  0.99934221059E+02 -0.80895462936E+02  0.49025423213E+03  0.53301513729E+03  0.16500000000E+03 0.  0.
   -5000001    1    1    2    0    0 -0.99934221059E+02  0.80895462936E+02  0.59607215524E+03  0.63171032817E+03  0.16500000000E+03 0.  0.
<mgrwt>
<rscale>  0 0.42009569E+03</rscale>
<asrwt>0</asrwt>
<pdfrwt beam="1">  1        2 0.16078943E+00 0.42009569E+03</pdfrwt>
<pdfrwt beam="2">  1       -2 0.55999337E-02 0.42009569E+03</pdfrwt>
<totfact> 0.40768145E+03</totfact>
</mgrwt>
</event>
<event>
 4    1  0.5312547E-005  0.5332372E+03  0.7818608E-02  0.1005450E+00
         -2   -1    0    0    0  501 -0.00000000000E+00  0.00000000000E+00  0.86824223328E+02  0.86824223365E+02  0.25500000000E-02 0. -1.
          2   -1    0    0  501    0  0.00000000000E+00 -0.00000000000E+00 -0.81872878219E+03  0.81872878219E+03  0.25500000000E-02 0.  1.
    5000001    1    1    2    0    0  0.97355280205E+02 -0.59183931427E+02 -0.67530888283E+02  0.21158026655E+03  0.16500000000E+03 0.  0.
   -5000001    1    1    2    0    0 -0.97355280205E+02  0.59183931427E+02 -0.66437367058E+03  0.69397273900E+03  0.16500000000E+03 0.  0.
<mgrwt>
<rscale>  0 0.53323725E+03</rscale>
<asrwt>0</asrwt>
<pdfrwt beam="1">  1        2 0.11696125E+00 0.53323725E+03</pdfrwt>
<pdfrwt beam="2">  1       -2 0.12403461E-01 0.53323725E+03</pdfrwt>
<totfact> 0.17779696E+03</totfact>
</mgrwt>
</event>
<event>
 4    1  0.5312547E-005  0.3988773E+03  0.7818608E-02  0.1044169E+00
          2   -1    0    0  501    0  0.00000000000E+00  0.00000000000E+00  0.14860738427E+04  0.14860738427E+04  0.25500000000E-02 0.  1.
         -2   -1    0    0    0  501 -0.00000000000E+00 -0.00000000000E+00 -0.26765675057E+02  0.26765675179E+02  0.25500000000E-02 0. -1.
    5000001    1    1    2    0    0  0.11065364781E+03 -0.12903748640E+02  0.77453575676E+03  0.79971330800E+03  0.16500000000E+03 0.  0.
   -5000001    1    1    2    0    0 -0.11065364781E+03  0.12903748640E+02  0.68477241089E+03  0.71312620988E+03  0.16500000000E+03 0.  0.
<mgrwt>
<rscale>  0 0.39887727E+03</rscale>
<asrwt>0</asrwt>
<pdfrwt beam="1">  1        2 0.21229630E+00 0.39887727E+03</pdfrwt>
<pdfrwt beam="2">  1       -2 0.38236671E-02 0.39887727E+03</pdfrwt>
<totfact> 0.46811408E+03</totfact>
</mgrwt>
</event>
<event>
 4    1  0.5312547E-005  0.6097792E+03  0.7818608E-02  0.9885323E-01
          2   -1    0    0  501    0  0.00000000000E+00  0.00000000000E+00  0.21297210857E+03  0.21297210858E+03  0.25500000000E-02 0.  1.
         -2   -1    0    0    0  501 -0.00000000000E+00 -0.00000000000E+00 -0.43647811022E+03  0.43647811023E+03  0.25500000000E-02 0. -1.
    5000001    1    1    2    0    0 -0.10301271304E+02  0.25617461047E+03 -0.11287826063E+03  0.32511236360E+03  0.16500000000E+03 0.  0.
   -5000001    1    1    2    0    0  0.10301271304E+02 -0.25617461047E+03 -0.11062774103E+03  0.32433785522E+03  0.16500000000E+03 0.  0.
<mgrwt>
<rscale>  0 0.60977918E+03</rscale>
<asrwt>0</asrwt>
<pdfrwt beam="1">  1        2 0.30424587E-01 0.60977918E+03</pdfrwt>
<pdfrwt beam="2">  1       -2 0.62354016E-01 0.60977918E+03</pdfrwt>
<totfact> 0.42178341E+02</totfact>
</mgrwt>
</event>
<event>
 4    1  0.5312547E-005  0.6886891E+03  0.7818608E-02  0.9736773E-01
         -2   -1    0    0    0  501 -0.00000000000E+00  0.00000000000E+00  0.79966560113E+02  0.79966560153E+02  0.25500000000E-02 0. -1.
          2   -1    0    0  501    0  0.00000000000E+00 -0.00000000000E+00 -0.14827845522E+04  0.14827845522E+04  0.25500000000E-02 0.  1.
    5000001    1    1    2    0    0  0.11243804602E+03  0.24741806278E+03 -0.40131066598E+03  0.51198951416E+03  0.16500000000E+03 0.  0.
   -5000001    1    1    2    0    0 -0.11243804602E+03 -0.24741806278E+03 -0.10015073261E+04  0.10507615982E+04  0.16500000000E+03 0.  0.
<mgrwt>
<rscale>  0 0.68868913E+03</rscale>
<asrwt>0</asrwt>
<pdfrwt beam="1">  1        2 0.21182635E+00 0.68868913E+03</pdfrwt>
<pdfrwt beam="2">  1       -2 0.11423795E-01 0.68868913E+03</pdfrwt>
<totfact> 0.83388570E+02</totfact>
</mgrwt>
</event>
<event>
 4    1  0.5312547E-005  0.4830221E+03  0.7818608E-02  0.1018308E+00
          2   -1    0    0  501    0  0.00000000000E+00  0.00000000000E+00  0.13861400393E+04  0.13861400393E+04  0.25500000000E-02 0.  1.
         -2   -1    0    0    0  501 -0.00000000000E+00 -0.00000000000E+00 -0.42079146501E+02  0.42079146578E+02  0.25500000000E-02 0. -1.
    5000001    1    1    2    0    0 -0.17424215487E+02  0.15059093824E+03  0.93849664246E+03  0.96487417930E+03  0.16500000000E+03 0.  0.
   -5000001    1    1    2    0    0  0.17424215487E+02 -0.15059093824E+03  0.40556425029E+03  0.46334500654E+03  0.16500000000E+03 0.  0.
<mgrwt>
<rscale>  0 0.48302211E+03</rscale>
<asrwt>0</asrwt>
<pdfrwt beam="1">  1        2 0.19801998E+00 0.48302211E+03</pdfrwt>
<pdfrwt beam="2">  1       -2 0.60113074E-02 0.48302211E+03</pdfrwt>
<totfact> 0.26324464E+03</totfact>
</mgrwt>
</event>
<event>
 4    1  0.5312547E-005  0.4693868E+03  0.7818608E-02  0.1022093E+00
         -2   -1    0    0    0  501 -0.00000000000E+00  0.00000000000E+00  0.39876418197E+02  0.39876418279E+02  0.25500000000E-02 0. -1.
          2   -1    0    0  501    0  0.00000000000E+00 -0.00000000000E+00 -0.13812925394E+04  0.13812925395E+04  0.25500000000E-02 0.  1.
    5000001    1    1    2    0    0  0.12510055161E+03  0.94427062337E+02 -0.84435690443E+03  0.87448853633E+03  0.16500000000E+03 0.  0.
   -5000001    1    1    2    0    0 -0.12510055161E+03 -0.94427062337E+02 -0.49705921682E+03  0.54668042140E+03  0.16500000000E+03 0.  0.
<mgrwt>
<rscale>  0 0.46938683E+03</rscale>
<asrwt>0</asrwt>
<pdfrwt beam="1">  1        2 0.19732747E+00 0.46938683E+03</pdfrwt>
<pdfrwt beam="2">  1       -2 0.56966321E-02 0.46938683E+03</pdfrwt>
<totfact> 0.28793307E+03</totfact>
</mgrwt>
</event>
<event>
 4    1  0.5312547E-005  0.4640995E+03  0.7818608E-02  0.1023599E+00
          2   -1    0    0  501    0  0.00000000000E+00  0.00000000000E+00  0.19576070751E+03  0.19576070752E+03  0.25500000000E-02 0.  1.
         -2   -1    0    0    0  501 -0.00000000000E+00 -0.00000000000E+00 -0.27506589616E+03  0.27506589617E+03  0.25500000000E-02 0. -1.
    5000001    1    1    2    0    0  0.14471794263E+03  0.62954103994E+02 -0.81672677587E+02  0.24249108931E+03  0.16500000000E+03 0.  0.
   -5000001    1    1    2    0    0 -0.14471794263E+03 -0.62954103994E+02  0.23674889312E+01  0.22833551439E+03  0.16500000000E+03 0.  0.
<mgrwt>
<rscale>  0 0.46409953E+03</rscale>
<asrwt>0</asrwt>
<pdfrwt beam="1">  1        2 0.27965815E-01 0.46409953E+03</pdfrwt>
<pdfrwt beam="2">  1       -2 0.39295128E-01 0.46409953E+03</pdfrwt>
<totfact> 0.11789906E+03</totfact>
</mgrwt>
</event>
<event>
 4    1  0.5312547E-005  0.7028688E+03  0.7818608E-02  0.9712339E-01
          2   -1    0    0  501    0  0.00000000000E+00  0.00000000000E+00  0.80022382019E+03  0.80022382020E+03  0.25500000000E-02 0.  1.
         -2   -1    0    0    0  501 -0.00000000000E+00 -0.00000000000E+00 -0.15433947546E+03  0.15433947548E+03  0.25500000000E-02 0. -1.
    5000001    1    1    2    0    0 -0.62767567363E+02  0.29891683738E+03  0.24867925603E+03  0.42703327219E+03  0.16500000000E+03 0.  0.
   -5000001    1    1    2    0    0  0.62767567363E+02 -0.29891683738E+03  0.39720508871E+03  0.52753002348E+03  0.16500000000E+03 0.  0.
<mgrwt>
<rscale>  0 0.70286876E+03</rscale>
<asrwt>0</asrwt>
<pdfrwt beam="1">  1        2 0.11431769E+00 0.70286876E+03</pdfrwt>
<pdfrwt beam="2">  1       -2 0.22048496E-01 0.70286876E+03</pdfrwt>
<totfact> 0.68475483E+02</totfact>
</mgrwt>
</event>
<event>
 4    1  0.5312547E-005  0.5180686E+03  0.7818608E-02  0.1009167E+00
          2   -1    0    0  501    0  0.00000000000E+00  0.00000000000E+00  0.25014268509E+04  0.25014268509E+04  0.25500000000E-02 0.  1.
         -2   -1    0    0    0  501 -0.00000000000E+00 -0.00000000000E+00 -0.26824196452E+02  0.26824196573E+02  0.25500000000E-02 0. -1.
    5000001    1    1    2    0    0 -0.79794674798E+02 -0.83002741915E+02  0.20334853674E+04  0.20434148832E+04  0.16500000000E+03 0.  0.
   -5000001    1    1    2    0    0  0.79794674798E+02  0.83002741915E+02  0.44111728701E+03  0.48483616428E+03  0.16500000000E+03 0.  0.
<mgrwt>
<rscale>  0 0.51806859E+03</rscale>
<asrwt>0</asrwt>
<pdfrwt beam="1">  1        2 0.35734666E+00 0.51806859E+03</pdfrwt>
<pdfrwt beam="2">  1       -2 0.38320284E-02 0.51806859E+03</pdfrwt>
<totfact> 0.14363649E+03</totfact>
</mgrwt>
</event>
<event>
 4    1  0.5312547E-005  0.5349264E+03  0.7818608E-02  0.1005044E+00
          2   -1    0    0  501    0  0.00000000000E+00  0.00000000000E+00  0.71115293548E+03  0.71115293549E+03  0.25500000000E-02 0.  1.
         -2   -1    0    0    0  501 -0.00000000000E+00 -0.00000000000E+00 -0.10059236415E+03  0.10059236418E+03  0.25500000000E-02 0. -1.
    5000001    1    1    2    0    0 -0.12347362196E+03  0.16013373143E+03  0.21649730515E+03  0.33909383716E+03  0.16500000000E+03 0.  0.
   -5000001    1    1    2    0    0  0.12347362196E+03 -0.16013373143E+03  0.39406326618E+03  0.47265146251E+03  0.16500000000E+03 0.  0.
<mgrwt>
<rscale>  0 0.53492637E+03</rscale>
<asrwt>0</asrwt>
<pdfrwt beam="1">  1        2 0.10159328E+00 0.53492637E+03</pdfrwt>
<pdfrwt beam="2">  1       -2 0.14370338E-01 0.53492637E+03</pdfrwt>
<totfact> 0.16614025E+03</totfact>
</mgrwt>
</event>
<event>
 4    1  0.5312547E-005  0.3799383E+03  0.7818608E-02  0.1050957E+00
         -2   -1    0    0    0  501 -0.00000000000E+00  0.00000000000E+00  0.35240396252E+02  0.35240396344E+02  0.25500000000E-02 0. -1.
          2   -1    0    0  501    0  0.00000000000E+00 -0.00000000000E+00 -0.10240601243E+04  0.10240601243E+04  0.25500000000E-02 0.  1.
    5000001    1    1    2    0    0  0.10339672027E+02  0.93549074352E+02 -0.48820896742E+03  0.52386194174E+03  0.16500000000E+03 0.  0.
   -5000001    1    1    2    0    0 -0.10339672027E+02 -0.93549074352E+02 -0.50061076061E+03  0.53543857889E+03  0.16500000000E+03 0.  0.
<mgrwt>
<rscale>  0 0.37993834E+03</rscale>
<asrwt>0</asrwt>
<pdfrwt beam="1">  1        2 0.14629429E+00 0.37993834E+03</pdfrwt>
<pdfrwt beam="2">  1       -2 0.50343430E-02 0.37993834E+03</pdfrwt>
<totfact> 0.54925387E+03</totfact>
</mgrwt>
</event>
<event>
 4    1  0.5312547E-005  0.9744707E+03  0.7818608E-02  0.9336997E-01
          2   -1    0    0  501    0  0.00000000000E+00  0.00000000000E+00  0.63474791609E+03  0.63474791609E+03  0.25500000000E-02 0.  1.
         -2   -1    0    0    0  501 -0.00000000000E+00 -0.00000000000E+00 -0.37400405424E+03  0.37400405425E+03  0.25500000000E-02 0. -1.
    5000001    1    1    2    0    0 -0.10281187514E+03 -0.21744152663E+03 -0.27364279777E+03  0.39994559623E+03  0.16500000000E+03 0.  0.
   -5000001    1    1    2    0    0  0.10281187514E+03  0.21744152663E+03  0.53438665962E+03  0.60880637411E+03  0.16500000000E+03 0.  0.
<mgrwt>
<rscale>  0 0.97447072E+03</rscale>
<asrwt>0</asrwt>
<pdfrwt beam="1">  1        2 0.90678273E-01 0.97447072E+03</pdfrwt>
<pdfrwt beam="2">  1       -2 0.53429151E-01 0.97447072E+03</pdfrwt>
<totfact> 0.16743051E+02</totfact>
</mgrwt>
</event>
<event>
 4    1  0.5312547E-005  0.6295363E+03  0.7818608E-02  0.9845954E-01
          2   -1    0    0  501    0  0.00000000000E+00  0.00000000000E+00  0.54928818043E+03  0.54928818044E+03  0.25500000000E-02 0.  1.
         -2   -1    0    0    0  501 -0.00000000000E+00 -0.00000000000E+00 -0.18037708330E+03  0.18037708332E+03  0.25500000000E-02 0. -1.
    5000001    1    1    2    0    0 -0.24855056260E+02 -0.21028106503E+03 -0.60599315432E+01  0.26851000522E+03  0.16500000000E+03 0.  0.
   -5000001    1    1    2    0    0  0.24855056260E+02  0.21028106503E+03  0.37497102868E+03  0.46115525854E+03  0.16500000000E+03 0.  0.
<mgrwt>
<rscale>  0 0.62953634E+03</rscale>
<asrwt>0</asrwt>
<pdfrwt beam="1">  1        2 0.78469739E-01 0.62953634E+03</pdfrwt>
<pdfrwt beam="2">  1       -2 0.25768155E-01 0.62953634E+03</pdfrwt>
<totfact> 0.81950724E+02</totfact>
</mgrwt>
</event>
<event>
 4    1  0.5312547E-005  0.4093806E+03  0.7818608E-02  0.1040579E+00
          2   -1    0    0  501    0  0.00000000000E+00  0.00000000000E+00  0.17102976600E+04  0.17102976600E+04  0.25500000000E-02 0.  1.
         -2   -1    0    0    0  501 -0.00000000000E+00 -0.00000000000E+00 -0.24497561461E+02  0.24497561593E+02  0.25500000000E-02 0. -1.
    5000001    1    1    2    0    0  0.55494936481E+02 -0.10551289387E+03  0.93383241829E+03  0.95576181352E+03  0.16500000000E+03 0.  0.
   -5000001    1    1    2    0    0 -0.55494936481E+02  0.10551289387E+03  0.75196768026E+03  0.77903340808E+03  0.16500000000E+03 0.  0.
<mgrwt>
<rscale>  0 0.40938062E+03</rscale>
<asrwt>0</asrwt>
<pdfrwt beam="1">  1        2 0.24432843E+00 0.40938062E+03</pdfrwt>
<pdfrwt beam="2">  1       -2 0.34996488E-02 0.40938062E+03</pdfrwt>
<totfact> 0.41212964E+03</totfact>
</mgrwt>
</event>
<event>
 4    1  0.5312547E-005  0.3680542E+03  0.7818608E-02  0.1055439E+00
         -2   -1    0    0    0  501 -0.00000000000E+00  0.00000000000E+00  0.44035307805E+02  0.44035307879E+02  0.25500000000E-02 0. -1.
          2   -1    0    0  501    0  0.00000000000E+00 -0.00000000000E+00 -0.76906405232E+03  0.76906405233E+03  0.25500000000E-02 0.  1.
    5000001    1    1    2    0    0 -0.57752105633E+02  0.35641005852E+01 -0.48928695146E+03  0.51959092505E+03  0.16500000000E+03 0.  0.
   -5000001    1    1    2    0    0  0.57752105633E+02 -0.35641005852E+01 -0.23574179306E+03  0.29350843516E+03  0.16500000000E+03 0.  0.
<mgrwt>
<rscale>  0 0.36805419E+03</rscale>
<asrwt>0</asrwt>
<pdfrwt beam="1">  1        2 0.10986629E+00 0.36805419E+03</pdfrwt>
<pdfrwt beam="2">  1       -2 0.62907587E-02 0.36805419E+03</pdfrwt>
<totfact> 0.56633222E+03</totfact>
</mgrwt>
</event>
<event>
 4    1  0.5312547E-005  0.3716043E+03  0.7818608E-02  0.1054081E+00
          2   -1    0    0  501    0  0.00000000000E+00  0.00000000000E+00  0.19275197582E+04  0.19275197582E+04  0.25500000000E-02 0.  1.
         -2   -1    0    0    0  501 -0.00000000000E+00 -0.00000000000E+00 -0.17910286416E+02  0.17910286598E+02  0.25500000000E-02 0. -1.
    5000001    1    1    2    0    0 -0.26082050982E+02  0.73168395359E+02  0.76871172472E+03  0.79004848154E+03  0.16500000000E+03 0.  0.
   -5000001    1    1    2    0    0  0.26082050982E+02 -0.73168395359E+02  0.11408977471E+04  0.11553815633E+04  0.16500000000E+03 0.  0.
<mgrwt>
<rscale>  0 0.37160426E+03</rscale>
<asrwt>0</asrwt>
<pdfrwt beam="1">  1        2 0.27535997E+00 0.37160426E+03</pdfrwt>
<pdfrwt beam="2">  1       -2 0.25586123E-02 0.37160426E+03</pdfrwt>
<totfact> 0.51491744E+03</totfact>
</mgrwt>
</event>
<event>
 4    1  0.5312547E-005  0.5185958E+03  0.7818608E-02  0.1009036E+00
          2   -1    0    0  501    0  0.00000000000E+00  0.00000000000E+00  0.30572953888E+04  0.30572953888E+04  0.25500000000E-02 0.  1.
         -2   -1    0    0    0  501 -0.00000000000E+00 -0.00000000000E+00 -0.21991789621E+02  0.21991789769E+02  0.25500000000E-02 0. -1.
    5000001    1    1    2    0    0 -0.18988713101E+03  0.50002132486E+02  0.12913108146E+04  0.13165355885E+04  0.16500000000E+03 0.  0.
   -5000001    1    1    2    0    0  0.18988713101E+03 -0.50002132486E+02  0.17439927846E+04  0.17627515901E+04  0.16500000000E+03 0.  0.
<mgrwt>
<rscale>  0 0.51859579E+03</rscale>
<asrwt>0</asrwt>
<pdfrwt beam="1">  1        2 0.43675631E+00 0.51859579E+03</pdfrwt>
<pdfrwt beam="2">  1       -2 0.31416855E-02 0.51859579E+03</pdfrwt>
<totfact> 0.99054191E+02</totfact>
</mgrwt>
</event>
<event>
 4    1  0.5312547E-005  0.3880299E+03  0.7818608E-02  0.1048005E+00
          2   -1    0    0  501    0  0.00000000000E+00  0.00000000000E+00  0.98849082873E+02  0.98849082905E+02  0.25500000000E-02 0.  1.
         -2   -1    0    0    0  501 -0.00000000000E+00 -0.00000000000E+00 -0.38080062072E+03  0.38080062073E+03  0.25500000000E-02 0. -1.
    5000001    1    1    2    0    0 -0.13076263528E+02  0.29361637477E+02 -0.21233897045E+02  0.16943722379E+03  0.16500000000E+03 0.  0.
   -5000001    1    1    2    0    0  0.13076263528E+02 -0.29361637477E+02 -0.26071764080E+03  0.31021247984E+03  0.16500000000E+03 0.  0.
<mgrwt>
<rscale>  0 0.38802986E+03</rscale>
<asrwt>0</asrwt>
<pdfrwt beam="1">  1        2 0.14121298E-01 0.38802986E+03</pdfrwt>
<pdfrwt beam="2">  1       -2 0.54400088E-01 0.38802986E+03</pdfrwt>
<totfact> 0.13668939E+03</totfact>
</mgrwt>
</event>
<event>
 4    1  0.5312547E-005  0.3991754E+03  0.7818608E-02  0.1044066E+00
         -2   -1    0    0    0  501 -0.00000000000E+00  0.00000000000E+00  0.19255446903E+02  0.19255447072E+02  0.25500000000E-02 0. -1.
          2   -1    0    0  501    0  0.00000000000E+00 -0.00000000000E+00 -0.20687783050E+04  0.20687783050E+04  0.25500000000E-02 0.  1.
    5000001    1    1    2    0    0 -0.87814142909E+02 -0.60607129745E+02 -0.12078943340E+04  0.12237721479E+04  0.16500000000E+03 0.  0.
   -5000001    1    1    2    0    0  0.87814142909E+02  0.60607129745E+02 -0.84162852409E+03  0.86426160417E+03  0.16500000000E+03 0.  0.
<mgrwt>
<rscale>  0 0.39917540E+03</rscale>
<asrwt>0</asrwt>
<pdfrwt beam="1">  1        2 0.29553962E+00 0.39917540E+03</pdfrwt>
<pdfrwt beam="2">  1       -2 0.27507795E-02 0.39917540E+03</pdfrwt>
<totfact> 0.39328563E+03</totfact>
</mgrwt>
</event>
<event>
 4    1  0.5312547E-005  0.4646218E+03  0.7818608E-02  0.1023449E+00
         -2   -1    0    0    0  501 -0.00000000000E+00  0.00000000000E+00  0.56472763476E+03  0.56472763477E+03  0.25500000000E-02 0. -1.
          2   -1    0    0  501    0  0.00000000000E+00 -0.00000000000E+00 -0.95565291714E+02  0.95565291748E+02  0.25500000000E-02 0.  1.
    5000001    1    1    2    0    0  0.31353365549E+02 -0.15983908275E+03  0.25526329627E+03  0.34484187149E+03  0.16500000000E+03 0.  0.
   -5000001    1    1    2    0    0 -0.31353365549E+02  0.15983908275E+03  0.21389904678E+03  0.31545105503E+03  0.16500000000E+03 0.  0.
<mgrwt>
<rscale>  0 0.46462183E+03</rscale>
<asrwt>0</asrwt>
<pdfrwt beam="1">  1        2 0.13652184E-01 0.46462183E+03</pdfrwt>
<pdfrwt beam="2">  1       -2 0.80675377E-01 0.46462183E+03</pdfrwt>
<totfact> 0.61450771E+02</totfact>
</mgrwt>
</event>
<event>
 4    1  0.5312547E-005  0.4854630E+03  0.7818608E-02  0.1017644E+00
          2   -1    0    0  501    0  0.00000000000E+00  0.00000000000E+00  0.19358587526E+04  0.19358587526E+04  0.25500000000E-02 0.  1.
         -2   -1    0    0    0  501 -0.00000000000E+00 -0.00000000000E+00 -0.30435373640E+02  0.30435373747E+02  0.25500000000E-02 0. -1.
    5000001    1    1    2    0    0  0.13644940020E+03 -0.35766825270E+02  0.51280809993E+03  0.55686160934E+03  0.16500000000E+03 0.  0.
   -5000001    1    1    2    0    0 -0.13644940020E+03  0.35766825270E+02  0.13926152791E+04  0.14094325170E+04  0.16500000000E+03 0.  0.
<mgrwt>
<rscale>  0 0.48546301E+03</rscale>
<asrwt>0</asrwt>
<pdfrwt beam="1">  1        2 0.27655123E+00 0.48546301E+03</pdfrwt>
<pdfrwt beam="2">  1       -2 0.43479108E-02 0.48546301E+03</pdfrwt>
<totfact> 0.22808193E+03</totfact>
</mgrwt>
</event>
<event>
 4    1  0.5312547E-005  0.3967367E+03  0.7818608E-02  0.1044916E+00
         -2   -1    0    0    0  501 -0.00000000000E+00  0.00000000000E+00  0.23928603864E+02  0.23928604000E+02  0.25500000000E-02 0. -1.
          2   -1    0    0  501    0  0.00000000000E+00 -0.00000000000E+00 -0.16444750936E+04  0.16444750936E+04  0.25500000000E-02 0.  1.
    5000001    1    1    2    0    0 -0.10644601022E+03  0.86202833724E+01 -0.92310833993E+03  0.94380033356E+03  0.16500000000E+03 0.  0.
   -5000001    1    1    2    0    0  0.10644601022E+03 -0.86202833724E+01 -0.69743814980E+03  0.72460336403E+03  0.16500000000E+03 0.  0.
<mgrwt>
<rscale>  0 0.39673665E+03</rscale>
<asrwt>0</asrwt>
<pdfrwt beam="1">  1        2 0.23492494E+00 0.39673665E+03</pdfrwt>
<pdfrwt beam="2">  1       -2 0.34183730E-02 0.39673665E+03</pdfrwt>
<totfact> 0.46080661E+03</totfact>
</mgrwt>
</event>
<event>
 4    1  0.5312547E-005  0.4078000E+03  0.7818608E-02  0.1041112E+00
          2   -1    0    0  501    0  0.00000000000E+00  0.00000000000E+00  0.73886151875E+03  0.73886151875E+03  0.25500000000E-02 0.  1.
         -2   -1    0    0    0  501 -0.00000000000E+00 -0.00000000000E+00 -0.56269276344E+02  0.56269276402E+02  0.25500000000E-02 0. -1.
    5000001    1    1    2    0    0  0.11609485931E+03  0.28728383251E+02  0.32794790275E+03  0.38610641445E+03  0.16500000000E+03 0.  0.
   -5000001    1    1    2    0    0 -0.11609485931E+03 -0.28728383251E+02  0.35464433965E+03  0.40902438071E+03  0.16500000000E+03 0.  0.
<mgrwt>
<rscale>  0 0.40779997E+03</rscale>
<asrwt>0</asrwt>
<pdfrwt beam="1">  1        2 0.10555165E+00 0.40779997E+03</pdfrwt>
<pdfrwt beam="2">  1       -2 0.80384680E-02 0.40779997E+03</pdfrwt>
<totfact> 0.40616488E+03</totfact>
</mgrwt>
</event>
<event>
 4    1  0.5312547E-005  0.4477274E+03  0.7818608E-02  0.1028402E+00
         -2   -1    0    0    0  501 -0.00000000000E+00  0.00000000000E+00  0.45554296434E+03  0.45554296434E+03  0.25500000000E-02 0. -1.
          2   -1    0    0  501    0  0.00000000000E+00 -0.00000000000E+00 -0.11001149038E+03  0.11001149041E+03  0.25500000000E-02 0.  1.
    5000001    1    1    2    0    0  0.22273360848E+02  0.14963554387E+03  0.17497604673E+03  0.28412763949E+03  0.16500000000E+03 0.  0.
   -5000001    1    1    2    0    0 -0.22273360848E+02 -0.14963554387E+03  0.17055542722E+03  0.28142681526E+03  0.16500000000E+03 0.  0.
<mgrwt>
<rscale>  0 0.44772742E+03</rscale>
<asrwt>0</asrwt>
<pdfrwt beam="1">  1        2 0.15715927E-01 0.44772742E+03</pdfrwt>
<pdfrwt beam="2">  1       -2 0.65077567E-01 0.44772742E+03</pdfrwt>
<totfact> 0.82813123E+02</totfact>
</mgrwt>
</event>
<event>
 4    1  0.5312547E-005  0.6668732E+03  0.7818608E-02  0.9775623E-01
          2   -1    0    0  501    0  0.00000000000E+00  0.00000000000E+00  0.10438379865E+04  0.10438379865E+04  0.25500000000E-02 0.  1.
         -2   -1    0    0    0  501 -0.00000000000E+00 -0.00000000000E+00 -0.10651075465E+03  0.10651075468E+03  0.25500000000E-02 0. -1.
    5000001    1    1    2    0    0  0.20812493185E+03  0.19333326296E+03  0.56717291254E+03  0.65544172170E+03  0.16500000000E+03 0.  0.
   -5000001    1    1    2    0    0 -0.20812493185E+03 -0.19333326296E+03  0.37015431927E+03  0.49490701945E+03  0.16500000000E+03 0.  0.
<mgrwt>
<rscale>  0 0.66687322E+03</rscale>
<asrwt>0</asrwt>
<pdfrwt beam="1">  1        2 0.14911972E+00 0.66687322E+03</pdfrwt>
<pdfrwt beam="2">  1       -2 0.15215821E-01 0.66687322E+03</pdfrwt>
<totfact> 0.90738935E+02</totfact>
</mgrwt>
</event>
<event>
 4    1  0.5312547E-005  0.1159905E+04  0.7818608E-02  0.9148694E-01
          2   -1    0    0  501    0  0.00000000000E+00  0.00000000000E+00  0.14163117225E+04  0.14163117225E+04  0.25500000000E-02 0.  1.
         -2   -1    0    0    0  501 -0.00000000000E+00 -0.00000000000E+00 -0.23747930755E+03  0.23747930757E+03  0.25500000000E-02 0. -1.
    5000001    1    1    2    0    0  0.42905657642E+03 -0.33967520429E+03  0.44934687327E+03  0.72705323237E+03  0.16500000000E+03 0.  0.
   -5000001    1    1    2    0    0 -0.42905657642E+03  0.33967520429E+03  0.72948554167E+03  0.92673779770E+03  0.16500000000E+03 0.  0.
<mgrwt>
<rscale>  0 0.11599047E+04</rscale>
<asrwt>0</asrwt>
<pdfrwt beam="1">  1        2 0.20233025E+00 0.11599047E+04</pdfrwt>
<pdfrwt beam="2">  1       -2 0.33925615E-01 0.11599047E+04</pdfrwt>
<totfact> 0.13023988E+02</totfact>
</mgrwt>
</event>
<event>
 4    1  0.5312547E-005  0.4283593E+03  0.7818608E-02  0.1034379E+00
         -2   -1    0    0    0  501 -0.00000000000E+00  0.00000000000E+00  0.40209118000E+02  0.40209118081E+02  0.25500000000E-02 0. -1.
          2   -1    0    0  501    0  0.00000000000E+00 -0.00000000000E+00 -0.11408589372E+04  0.11408589372E+04  0.25500000000E-02 0.  1.
    5000001    1    1    2    0    0 -0.59453790815E+02 -0.11806300005E+03 -0.45584109832E+03  0.50248356405E+03  0.16500000000E+03 0.  0.
   -5000001    1    1    2    0    0  0.59453790815E+02  0.11806300005E+03 -0.64480872092E+03  0.67858449128E+03  0.16500000000E+03 0.  0.
<mgrwt>
<rscale>  0 0.42835934E+03</rscale>
<asrwt>0</asrwt>
<pdfrwt beam="1">  1        2 0.16297983E+00 0.42835934E+03</pdfrwt>
<pdfrwt beam="2">  1       -2 0.57441604E-02 0.42835934E+03</pdfrwt>
<totfact> 0.38423689E+03</totfact>
</mgrwt>
</event>
<event>
 4    1  0.5312547E-005  0.4458617E+03  0.7818608E-02  0.1028963E+00
         -2   -1    0    0    0  501 -0.00000000000E+00  0.00000000000E+00  0.27872308969E+02  0.27872309086E+02  0.25500000000E-02 0. -1.
          2   -1    0    0  501    0  0.00000000000E+00 -0.00000000000E+00 -0.17830662944E+04  0.17830662944E+04  0.25500000000E-02 0.  1.
    5000001    1    1    2    0    0  0.13745603302E+03  0.23773776524E+02 -0.11005751188E+04  0.11215836774E+04  0.16500000000E+03 0.  0.
   -5000001    1    1    2    0    0 -0.13745603302E+03 -0.23773776524E+02 -0.65461886667E+03  0.68935492604E+03  0.16500000000E+03 0.  0.
<mgrwt>
<rscale>  0 0.44586175E+03</rscale>
<asrwt>0</asrwt>
<pdfrwt beam="1">  1        2 0.25472368E+00 0.44586175E+03</pdfrwt>
<pdfrwt beam="2">  1       -2 0.39817596E-02 0.44586175E+03</pdfrwt>
<totfact> 0.31136562E+03</totfact>
</mgrwt>
</event>
<event>
 4    1  0.5312547E-005  0.3848748E+03  0.7818608E-02  0.1049147E+00
         -2   -1    0    0    0  501 -0.00000000000E+00  0.00000000000E+00  0.26974730638E+02  0.26974730758E+02  0.25500000000E-02 0. -1.
          2   -1    0    0  501    0  0.00000000000E+00 -0.00000000000E+00 -0.13728462603E+04  0.13728462603E+04  0.25500000000E-02 0.  1.
    5000001    1    1    2    0    0 -0.34306447954E+02  0.73403340402E+02 -0.88003154444E+03  0.89902475047E+03  0.16500000000E+03 0.  0.
   -5000001    1    1    2    0    0  0.34306447954E+02 -0.73403340402E+02 -0.46583998521E+03  0.50079624057E+03  0.16500000000E+03 0.  0.
<mgrwt>
<rscale>  0 0.38487483E+03</rscale>
<asrwt>0</asrwt>
<pdfrwt beam="1">  1        2 0.19612085E+00 0.38487483E+03</pdfrwt>
<pdfrwt beam="2">  1       -2 0.38535338E-02 0.38487483E+03</pdfrwt>
<totfact> 0.52956756E+03</totfact>
</mgrwt>
</event>
<event>
 4    1  0.5312547E-005  0.5430056E+03  0.7818608E-02  0.1003126E+00
          2   -1    0    0  501    0  0.00000000000E+00  0.00000000000E+00  0.22829294481E+04  0.22829294481E+04  0.25500000000E-02 0.  1.
         -2   -1    0    0    0  501 -0.00000000000E+00 -0.00000000000E+00 -0.32289109226E+02  0.32289109327E+02  0.25500000000E-02 0. -1.
    5000001    1    1    2    0    0 -0.13302583186E+03  0.16968453005E+03  0.11262419848E+04  0.11585053820E+04  0.16500000000E+03 0.  0.
   -5000001    1    1    2    0    0  0.13302583186E+03 -0.16968453005E+03  0.11243983541E+04  0.11567131755E+04  0.16500000000E+03 0.  0.
<mgrwt>
<rscale>  0 0.54300556E+03</rscale>
<asrwt>0</asrwt>
<pdfrwt beam="1">  1        2 0.32613271E+00 0.54300556E+03</pdfrwt>
<pdfrwt beam="2">  1       -2 0.46127309E-02 0.54300556E+03</pdfrwt>
<totfact> 0.13922966E+03</totfact>
</mgrwt>
</event>
<event>
 4    1  0.5312547E-005  0.4445416E+03  0.7818608E-02  0.1029362E+00
         -2   -1    0    0    0  501 -0.00000000000E+00  0.00000000000E+00  0.53374168742E+02  0.53374168803E+02  0.25500000000E-02 0. -1.
          2   -1    0    0  501    0  0.00000000000E+00 -0.00000000000E+00 -0.92562220684E+03  0.92562220684E+03  0.25500000000E-02 0.  1.
    5000001    1    1    2    0    0 -0.14729102777E+03  0.88132473836E+01 -0.39169532444E+03  0.44991393330E+03  0.16500000000E+03 0.  0.
   -5000001    1    1    2    0    0  0.14729102777E+03 -0.88132473836E+01 -0.48055271365E+03  0.52908244234E+03  0.16500000000E+03 0.  0.
<mgrwt>
<rscale>  0 0.44454163E+03</rscale>
<asrwt>0</asrwt>
<pdfrwt beam="1">  1        2 0.13223173E+00 0.44454163E+03</pdfrwt>
<pdfrwt beam="2">  1       -2 0.76248818E-02 0.44454163E+03</pdfrwt>
<totfact> 0.33127910E+03</totfact>
</mgrwt>
</event>
<event>
 4    1  0.5312547E-005  0.6249487E+03  0.7818608E-02  0.9854956E-01
         -2   -1    0    0    0  501 -0.00000000000E+00  0.00000000000E+00  0.68047665041E+03  0.68047665042E+03  0.25500000000E-02 0. -1.
          2   -1    0    0  501    0  0.00000000000E+00 -0.00000000000E+00 -0.14348798574E+03  0.14348798577E+03  0.25500000000E-02 0.  1.
    5000001    1    1    2    0    0 -0.50496074445E+02  0.22283064444E+03  0.44642119272E+03  0.52793960918E+03  0.16500000000E+03 0.  0.
   -5000001    1    1    2    0    0  0.50496074445E+02 -0.22283064444E+03  0.90567471952E+02  0.29602502700E+03  0.16500000000E+03 0.  0.
<mgrwt>
<rscale>  0 0.62494871E+03</rscale>
<asrwt>0</asrwt>
<pdfrwt beam="1">  1        2 0.20498284E-01 0.62494871E+03</pdfrwt>
<pdfrwt beam="2">  1       -2 0.97210950E-01 0.62494871E+03</pdfrwt>
<totfact> 0.24649553E+02</totfact>
</mgrwt>
</event>
<event>
 4    1  0.5312547E-005  0.4397843E+03  0.7818608E-02  0.1030813E+00
         -2   -1    0    0    0  501 -0.00000000000E+00  0.00000000000E+00  0.46629533528E+03  0.46629533529E+03  0.25500000000E-02 0. -1.
          2   -1    0    0  501    0  0.00000000000E+00 -0.00000000000E+00 -0.10369511691E+03  0.10369511694E+03  0.25500000000E-02 0.  1.
    5000001    1    1    2    0    0 -0.34715424239E+02 -0.12366378957E+03  0.93113580362E+02  0.22889524324E+03  0.16500000000E+03 0.  0.
   -5000001    1    1    2    0    0  0.34715424239E+02  0.12366378957E+03  0.26948663801E+03  0.34109520899E+03  0.16500000000E+03 0.  0.
<mgrwt>
<rscale>  0 0.43978426E+03</rscale>
<asrwt>0</asrwt>
<pdfrwt beam="1">  1        2 0.14813588E-01 0.43978426E+03</pdfrwt>
<pdfrwt beam="2">  1       -2 0.66613620E-01 0.43978426E+03</pdfrwt>
<totfact> 0.84581642E+02</totfact>
</mgrwt>
</event>
<event>
 4    1  0.5312547E-005  0.3805635E+03  0.7818608E-02  0.1050726E+00
         -2   -1    0    0    0  501 -0.00000000000E+00  0.00000000000E+00  0.38105627124E+03  0.38105627125E+03  0.25500000000E-02 0. -1.
          2   -1    0    0  501    0  0.00000000000E+00 -0.00000000000E+00 -0.95017860618E+02  0.95017860652E+02  0.25500000000E-02 0.  1.
    5000001    1    1    2    0    0  0.13697963937E+02 -0.72460282180E+02  0.68546729108E+02  0.19329195736E+03  0.16500000000E+03 0.  0.
   -5000001    1    1    2    0    0 -0.13697963937E+02  0.72460282180E+02  0.21749168152E+03  0.28278217454E+03  0.16500000000E+03 0.  0.
<mgrwt>
<rscale>  0 0.38056354E+03</rscale>
<asrwt>0</asrwt>
<pdfrwt beam="1">  1        2 0.13573980E-01 0.38056354E+03</pdfrwt>
<pdfrwt beam="2">  1       -2 0.54436610E-01 0.38056354E+03</pdfrwt>
<totfact> 0.14314721E+03</totfact>
</mgrwt>
</event>
<event>
 4    1  0.5312547E-005  0.5099729E+03  0.7818608E-02  0.1011208E+00
         -2   -1    0    0    0  501 -0.00000000000E+00  0.00000000000E+00  0.22842507783E+03  0.22842507785E+03  0.25500000000E-02 0. -1.
          2   -1    0    0  501    0  0.00000000000E+00 -0.00000000000E+00 -0.28463639015E+03  0.28463639016E+03  0.25500000000E-02 0.  1.
    5000001    1    1    2    0    0  0.27586951955E+01  0.16278719221E+03 -0.13498373879E+03  0.26824035879E+03  0.16500000000E+03 0.  0.
   -5000001    1    1    2    0    0 -0.27586951955E+01 -0.16278719221E+03  0.78772426469E+02  0.24482110922E+03  0.16500000000E+03 0.  0.
<mgrwt>
<rscale>  0 0.50997290E+03</rscale>
<asrwt>0</asrwt>
<pdfrwt beam="1">  1        2 0.40662341E-01 0.50997290E+03</pdfrwt>
<pdfrwt beam="2">  1       -2 0.32632154E-01 0.50997290E+03</pdfrwt>
<totfact> 0.11071873E+03</totfact>
</mgrwt>
</event>
<event>
 4    1  0.5312547E-005  0.4055128E+03  0.7818608E-02  0.1041887E+00
          2   -1    0    0  501    0  0.00000000000E+00  0.00000000000E+00  0.20196192445E+03  0.20196192446E+03  0.25500000000E-02 0.  1.
         -2   -1    0    0    0  501 -0.00000000000E+00 -0.00000000000E+00 -0.20355402637E+03  0.20355402639E+03  0.25500000000E-02 0. -1.
    5000001    1    1    2    0    0  0.60790983986E+02 -0.68741273640E+02  0.73125127975E+02  0.20246775244E+03  0.16500000000E+03 0.  0.
   -5000001    1    1    2    0    0 -0.60790983986E+02  0.68741273640E+02 -0.74717229903E+02  0.20304819842E+03  0.16500000000E+03 0.  0.
<mgrwt>
<rscale>  0 0.40551283E+03</rscale>
<asrwt>0</asrwt>
<pdfrwt beam="1">  1        2 0.28851703E-01 0.40551283E+03</pdfrwt>
<pdfrwt beam="2">  1       -2 0.29079147E-01 0.40551283E+03</pdfrwt>
<totfact> 0.19983545E+03</totfact>
</mgrwt>
</event>
<event>
 4    1  0.5312547E-005  0.4053646E+03  0.7818608E-02  0.1041938E+00
          2   -1    0    0  501    0  0.00000000000E+00  0.00000000000E+00  0.10519930384E+03  0.10519930387E+03  0.25500000000E-02 0.  1.
         -2   -1    0    0    0  501 -0.00000000000E+00 -0.00000000000E+00 -0.39049806006E+03  0.39049806007E+03  0.25500000000E-02 0. -1.
    5000001    1    1    2    0    0 -0.23841383250E+02  0.94794035420E+02 -0.62454702634E+02  0.20169261411E+03  0.16500000000E+03 0.  0.
   -5000001    1    1    2    0    0  0.23841383250E+02 -0.94794035420E+02 -0.22284405358E+03  0.29400474983E+03  0.16500000000E+03 0.  0.
<mgrwt>
<rscale>  0 0.40536465E+03</rscale>
<asrwt>0</asrwt>
<pdfrwt beam="1">  1        2 0.15028472E-01 0.40536465E+03</pdfrwt>
<pdfrwt beam="2">  1       -2 0.55785436E-01 0.40536465E+03</pdfrwt>
<totfact> 0.12051430E+03</totfact>
</mgrwt>
</event>
<event>
 4    1  0.5312547E-005  0.5148883E+03  0.7818608E-02  0.1009964E+00
          2   -1    0    0  501    0  0.00000000000E+00  0.00000000000E+00  0.59447641268E+03  0.59447641268E+03  0.25500000000E-02 0.  1.
         -2   -1    0    0    0  501 -0.00000000000E+00 -0.00000000000E+00 -0.11148884045E+03  0.11148884047E+03  0.25500000000E-02 0. -1.
    5000001    1    1    2    0    0 -0.94101974874E+02  0.16685335787E+03  0.17492445798E+03  0.30743908454E+03  0.16500000000E+03 0.  0.
   -5000001    1    1    2    0    0  0.94101974874E+02 -0.16685335787E+03  0.30806311425E+03  0.39852616861E+03  0.16500000000E+03 0.  0.
<mgrwt>
<rscale>  0 0.51488828E+03</rscale>
<asrwt>0</asrwt>
<pdfrwt beam="1">  1        2 0.84925203E-01 0.51488828E+03</pdfrwt>
<pdfrwt beam="2">  1       -2 0.15926977E-01 0.51488828E+03</pdfrwt>
<totfact> 0.17314300E+03</totfact>
</mgrwt>
</event>
<event>
 4    1  0.5312547E-005  0.8420064E+03  0.7818608E-02  0.9501129E-01
          2   -1    0    0  501    0  0.00000000000E+00  0.00000000000E+00  0.11495373631E+04  0.11495373631E+04  0.25500000000E-02 0. -1.
         -2   -1    0    0    0  501 -0.00000000000E+00 -0.00000000000E+00 -0.15418698817E+03  0.15418698819E+03  0.25500000000E-02 0.  1.
    5000001    1    1    2    0    0 -0.10185160706E+03 -0.37368296894E+03  0.49388482387E+03  0.64896835854E+03  0.16500000000E+03 0.  0.
   -5000001    1    1    2    0    0  0.10185160706E+03  0.37368296894E+03  0.50146555106E+03  0.65475599274E+03  0.16500000000E+03 0.  0.
<mgrwt>
<rscale>  0 0.84200642E+03</rscale>
<asrwt>0</asrwt>
<pdfrwt beam="1">  1        2 0.16421962E+00 0.84200642E+03</pdfrwt>
<pdfrwt beam="2">  1       -2 0.22026713E-01 0.84200642E+03</pdfrwt>
<totfact> 0.41193615E+02</totfact>
</mgrwt>
</event>
<event>
 4    1  0.5312547E-005  0.5988057E+03  0.7818608E-02  0.9907887E-01
         -2   -1    0    0    0  501 -0.00000000000E+00  0.00000000000E+00  0.92426734165E+02  0.92426734200E+02  0.25500000000E-02 0. -1.
          2   -1    0    0  501    0  0.00000000000E+00 -0.00000000000E+00 -0.96987173371E+03  0.96987173371E+03  0.25500000000E-02 0.  1.
    5000001    1    1    2    0    0  0.20515281647E+03 -0.13009599092E+03 -0.54223264893E+03  0.61664729832E+03  0.16500000000E+03 0.  0.
   -5000001    1    1    2    0    0 -0.20515281647E+03  0.13009599092E+03 -0.33521235062E+03  0.44565116960E+03  0.16500000000E+03 0.  0.
<mgrwt>
<rscale>  0 0.59880573E+03</rscale>
<asrwt>0</asrwt>
<pdfrwt beam="1">  1        2 0.13855310E+00 0.59880573E+03</pdfrwt>
<pdfrwt beam="2">  1       -2 0.13203820E-01 0.59880573E+03</pdfrwt>
<totfact> 0.12786782E+03</totfact>
</mgrwt>
</event>
<event>
 4    1  0.5312547E-005  0.4235425E+03  0.7818608E-02  0.1035919E+00
          2   -1    0    0  501    0  0.00000000000E+00  0.00000000000E+00  0.52916912366E+03  0.52916912366E+03  0.25500000000E-02 0.  1.
         -2   -1    0    0    0  501 -0.00000000000E+00 -0.00000000000E+00 -0.84749958856E+02  0.84749958894E+02  0.25500000000E-02 0. -1.
    5000001    1    1    2    0    0  0.78068084951E+02 -0.10727018504E+03  0.21563987665E+03  0.30220369767E+03  0.16500000000E+03 0.  0.
   -5000001    1    1    2    0    0 -0.78068084951E+02  0.10727018504E+03  0.22877928815E+03  0.31171538489E+03  0.16500000000E+03 0.  0.
<mgrwt>
<rscale>  0 0.42354250E+03</rscale>
<asrwt>0</asrwt>
<pdfrwt beam="1">  1        2 0.75595592E-01 0.42354250E+03</pdfrwt>
<pdfrwt beam="2">  1       -2 0.12107137E-01 0.42354250E+03</pdfrwt>
<totfact> 0.31165907E+03</totfact>
</mgrwt>
</event>
<event>
 4    1  0.5312547E-005  0.3631146E+03  0.7818608E-02  0.1057357E+00
         -2   -1    0    0    0  501 -0.00000000000E+00  0.00000000000E+00  0.65196903162E+02  0.65196903212E+02  0.25500000000E-02 0. -1.
          2   -1    0    0  501    0  0.00000000000E+00 -0.00000000000E+00 -0.50559232354E+03  0.50559232355E+03  0.25500000000E-02 0.  1.
    5000001    1    1    2    0    0  0.70775759001E+02  0.14280709865E+02 -0.18418355348E+03  0.25760770196E+03  0.16500000000E+03 0.  0.
   -5000001    1    1    2    0    0 -0.70775759001E+02 -0.14280709865E+02 -0.25621186690E+03  0.31318152480E+03  0.16500000000E+03 0.  0.
<mgrwt>
<rscale>  0 0.36311460E+03</rscale>
<asrwt>0</asrwt>
<pdfrwt beam="1">  1        2 0.72227473E-01 0.36311460E+03</pdfrwt>
<pdfrwt beam="2">  1       -2 0.93138436E-02 0.36311460E+03</pdfrwt>
<totfact> 0.49933850E+03</totfact>
</mgrwt>
</event>
<event>
 4    1  0.5312547E-005  0.5421232E+03  0.7818608E-02  0.1003334E+00
          2   -1    0    0  501    0  0.00000000000E+00  0.00000000000E+00  0.43286093937E+04  0.43286093937E+04  0.25500000000E-02 0.  1.
         -2   -1    0    0    0  501 -0.00000000000E+00 -0.00000000000E+00 -0.16974133613E+02  0.16974133805E+02  0.25500000000E-02 0. -1.
    5000001    1    1    2    0    0  0.18162836863E+03  0.11511883220E+03  0.21787502832E+04  0.21955452641E+04  0.16500000000E+03 0.  0.
   -5000001    1    1    2    0    0 -0.18162836863E+03 -0.11511883220E+03  0.21328849768E+04  0.21500382634E+04  0.16500000000E+03 0.  0.
<mgrwt>
<rscale>  0 0.54212321E+03</rscale>
<asrwt>0</asrwt>
<pdfrwt beam="1">  1        2 0.61837237E+00 0.54212321E+03</pdfrwt>
<pdfrwt beam="2">  1       -2 0.24248778E-02 0.54212321E+03</pdfrwt>
<totfact> 0.23523477E+02</totfact>
</mgrwt>
</event>
<event>
 4    1  0.5312547E-005  0.5000793E+03  0.7818608E-02  0.1013758E+00
          2   -1    0    0  501    0  0.00000000000E+00  0.00000000000E+00  0.59079549296E+03  0.59079549297E+03  0.25500000000E-02 0.  1.
         -2   -1    0    0    0  501 -0.00000000000E+00 -0.00000000000E+00 -0.10582313843E+03  0.10582313846E+03  0.25500000000E-02 0. -1.
    5000001    1    1    2    0    0  0.12103087594E+03 -0.14058995268E+03  0.20114325890E+03  0.31952717932E+03  0.16500000000E+03 0.  0.
   -5000001    1    1    2    0    0 -0.12103087594E+03  0.14058995268E+03  0.28382909563E+03  0.37709145211E+03  0.16500000000E+03 0.  0.
<mgrwt>
<rscale>  0 0.50007933E+03</rscale>
<asrwt>0</asrwt>
<pdfrwt beam="1">  1        2 0.84399354E-01 0.50007933E+03</pdfrwt>
<pdfrwt beam="2">  1       -2 0.15117592E-01 0.50007933E+03</pdfrwt>
<totfact> 0.19039415E+03</totfact>
</mgrwt>
</event>
<event>
 4    1  0.5312547E-005  0.5640303E+03  0.7818608E-02  0.9982976E-01
          2   -1    0    0  501    0  0.00000000000E+00  0.00000000000E+00  0.47359305818E+03  0.47359305818E+03  0.25500000000E-02 0. -1.
         -2   -1    0    0    0  501 -0.00000000000E+00 -0.00000000000E+00 -0.16793438474E+03  0.16793438476E+03  0.25500000000E-02 0.  1.
    5000001    1    1    2    0    0 -0.18499722879E+03 -0.12707845487E+02  0.30509681362E+03  0.39331225468E+03  0.16500000000E+03 0.  0.
   -5000001    1    1    2    0    0  0.18499722879E+03  0.12707845487E+02  0.56185982028E+00  0.24821518826E+03  0.16500000000E+03 0.  0.
<mgrwt>
<rscale>  0 0.56403035E+03</rscale>
<asrwt>0</asrwt>
<pdfrwt beam="1">  1        2 0.67656152E-01 0.56403035E+03</pdfrwt>
<pdfrwt beam="2">  1       -2 0.23990626E-01 0.56403035E+03</pdfrwt>
<totfact> 0.11043221E+03</totfact>
</mgrwt>
</event>
<event>
 4    1  0.5312547E-005  0.9143332E+03  0.7818608E-02  0.9407840E-01
          2   -1    0    0  501    0  0.00000000000E+00  0.00000000000E+00  0.35984344369E+04  0.35984344369E+04  0.25500000000E-02 0.  1.
         -2   -1    0    0    0  501 -0.00000000000E+00 -0.00000000000E+00 -0.58081169230E+02  0.58081169286E+02  0.25500000000E-02 0. -1.
    5000001    1    1    2    0    0  0.38188332373E+03 -0.41966480930E+02  0.25095271787E+04  0.25441202249E+04  0.16500000000E+03 0.  0.
   -5000001    1    1    2    0    0 -0.38188332373E+03  0.41966480930E+02  0.10308260890E+04  0.11123953813E+04  0.16500000000E+03 0.  0.
<mgrwt>
<rscale>  0 0.91433316E+03</rscale>
<asrwt>0</asrwt>
<pdfrwt beam="1">  1        2 0.51406212E+00 0.91433316E+03</pdfrwt>
<pdfrwt beam="2">  1       -2 0.82973090E-02 0.91433316E+03</pdfrwt>
<totfact> 0.10161392E+02</totfact>
</mgrwt>
</event>
<event>
 4    1  0.5312547E-005  0.3890973E+03  0.7818608E-02  0.1047622E+00
         -2   -1    0    0    0  501 -0.00000000000E+00  0.00000000000E+00  0.67970507979E+02  0.67970508027E+02  0.25500000000E-02 0. -1.
          2   -1    0    0  501    0  0.00000000000E+00 -0.00000000000E+00 -0.55684694365E+03  0.55684694365E+03  0.25500000000E-02 0.  1.
    5000001    1    1    2    0    0 -0.72482650043E+02  0.63546964734E+02 -0.18582673828E+03  0.26654929740E+03  0.16500000000E+03 0.  0.
   -5000001    1    1    2    0    0  0.72482650043E+02 -0.63546964734E+02 -0.30304969739E+03  0.35826815428E+03  0.16500000000E+03 0.  0.
<mgrwt>
<rscale>  0 0.38909726E+03</rscale>
<asrwt>0</asrwt>
<pdfrwt beam="1">  1        2 0.79549561E-01 0.38909726E+03</pdfrwt>
<pdfrwt beam="2">  1       -2 0.97100729E-02 0.38909726E+03</pdfrwt>
<totfact> 0.41954228E+03</totfact>
</mgrwt>
</event>
<event>
 4    1  0.5312547E-005  0.6335414E+03  0.7818608E-02  0.9838162E-01
         -2   -1    0    0    0  501 -0.00000000000E+00  0.00000000000E+00  0.58889477716E+02  0.58889477771E+02  0.25500000000E-02 0. -1.
          2   -1    0    0  501    0  0.00000000000E+00 -0.00000000000E+00 -0.17039322801E+04  0.17039322801E+04  0.25500000000E-02 0.  1.
    5000001    1    1    2    0    0  0.61963498931E+02  0.16597538928E+03 -0.13909353772E+04  0.14118475585E+04  0.16500000000E+03 0.  0.
   -5000001    1    1    2    0    0 -0.61963498931E+02 -0.16597538928E+03 -0.25410742515E+03  0.35097419928E+03  0.16500000000E+03 0.  0.
<mgrwt>
<rscale>  0 0.63354142E+03</rscale>
<asrwt>0</asrwt>
<pdfrwt beam="1">  1        2 0.24341887E+00 0.63354142E+03</pdfrwt>
<pdfrwt beam="2">  1       -2 0.84127836E-02 0.63354142E+03</pdfrwt>
<totfact> 0.10554920E+03</totfact>
</mgrwt>
</event>
<event>
 4    1  0.5312547E-005  0.7071829E+03  0.7818608E-02  0.9705027E-01
          2   -1    0    0  501    0  0.00000000000E+00  0.00000000000E+00  0.25776547465E+04  0.25776547465E+04  0.25500000000E-02 0.  1.
         -2   -1    0    0    0  501 -0.00000000000E+00 -0.00000000000E+00 -0.48504134570E+02  0.48504134637E+02  0.25500000000E-02 0. -1.
    5000001    1    1    2    0    0 -0.14181379455E+03  0.23062945901E+03  0.68330318146E+03  0.75327905685E+03  0.16500000000E+03 0.  0.
   -5000001    1    1    2    0    0  0.14181379455E+03 -0.23062945901E+03  0.18458474305E+04  0.18728798243E+04  0.16500000000E+03 0.  0.
<mgrwt>
<rscale>  0 0.70718290E+03</rscale>
<asrwt>0</asrwt>
<pdfrwt beam="1">  1        2 0.36823633E+00 0.70718290E+03</pdfrwt>
<pdfrwt beam="2">  1       -2 0.69291632E-02 0.70718290E+03</pdfrwt>
<totfact> 0.51499031E+02</totfact>
</mgrwt>
</event>
<event>
 4    1  0.5312547E-005  0.7797185E+03  0.7818608E-02  0.9589847E-01
         -2   -1    0    0    0  501 -0.00000000000E+00  0.00000000000E+00  0.80289513573E+02  0.80289513614E+02  0.25500000000E-02 0. -1.
          2   -1    0    0  501    0  0.00000000000E+00 -0.00000000000E+00 -0.18930273667E+04  0.18930273667E+04  0.25500000000E-02 0.  1.
    5000001    1    1    2    0    0 -0.23239277160E+02 -0.23149889147E+03 -0.15789802466E+04  0.16045358892E+04  0.16500000000E+03 0.  0.
   -5000001    1    1    2    0    0  0.23239277160E+02  0.23149889147E+03 -0.23375760652E+03  0.36878099105E+03  0.16500000000E+03 0.  0.
<mgrwt>
<rscale>  0 0.77971853E+03</rscale>
<asrwt>0</asrwt>
<pdfrwt beam="1">  1        2 0.27043245E+00 0.77971853E+03</pdfrwt>
<pdfrwt beam="2">  1       -2 0.11469932E-01 0.77971853E+03</pdfrwt>
<totfact> 0.50733727E+02</totfact>
</mgrwt>
</event>
<event>
 4    1  0.5312547E-005  0.5032273E+03  0.7818608E-02  0.1012940E+00
          2   -1    0    0  501    0  0.00000000000E+00  0.00000000000E+00  0.91493678925E+03  0.91493678925E+03  0.25500000000E-02 0.  1.
         -2   -1    0    0    0  501 -0.00000000000E+00 -0.00000000000E+00 -0.69195404587E+02  0.69195404634E+02  0.25500000000E-02 0. -1.
    5000001    1    1    2    0    0  0.12902587845E+03  0.15202848185E+02  0.15184940225E+03  0.25915641005E+03  0.16500000000E+03 0.  0.
   -5000001    1    1    2    0    0 -0.12902587845E+03 -0.15202848185E+02  0.69389198240E+03  0.72497578384E+03  0.16500000000E+03 0.  0.
<mgrwt>
<rscale>  0 0.50322727E+03</rscale>
<asrwt>0</asrwt>
<pdfrwt beam="1">  1        2 0.13070525E+00 0.50322727E+03</pdfrwt>
<pdfrwt beam="2">  1       -2 0.98850582E-02 0.50322727E+03</pdfrwt>
<totfact> 0.22251716E+03</totfact>
</mgrwt>
</event>
<event>
 4    1  0.5312547E-005  0.4333835E+03  0.7818608E-02  0.1032796E+00
         -2   -1    0    0    0  501 -0.00000000000E+00  0.00000000000E+00  0.25763903301E+03  0.25763903302E+03  0.25500000000E-02 0. -1.
          2   -1    0    0  501    0  0.00000000000E+00 -0.00000000000E+00 -0.18225235303E+03  0.18225235305E+03  0.25500000000E-02 0.  1.
    5000001    1    1    2    0    0  0.61114733726E+02 -0.11917260500E+03 -0.52887342029E+01  0.21257961137E+03  0.16500000000E+03 0.  0.
   -5000001    1    1    2    0    0 -0.61114733726E+02  0.11917260500E+03  0.80675414181E+02  0.22731177470E+03  0.16500000000E+03 0.  0.
<mgrwt>
<rscale>  0 0.43338353E+03</rscale>
<asrwt>0</asrwt>
<pdfrwt beam="1">  1        2 0.26036050E-01 0.43338353E+03</pdfrwt>
<pdfrwt beam="2">  1       -2 0.36805576E-01 0.43338353E+03</pdfrwt>
<totfact> 0.14475119E+03</totfact>
</mgrwt>
</event>
<event>
 4    1  0.5312547E-005  0.4124988E+03  0.7818608E-02  0.1039536E+00
          2   -1    0    0  501    0  0.00000000000E+00  0.00000000000E+00  0.59023767022E+03  0.59023767023E+03  0.25500000000E-02 0.  1.
         -2   -1    0    0    0  501 -0.00000000000E+00 -0.00000000000E+00 -0.72070655057E+02  0.72070655102E+02  0.25500000000E-02 0. -1.
    5000001    1    1    2    0    0 -0.10676562258E+03  0.62520401833E+02  0.25511252938E+03  0.32804740733E+03  0.16500000000E+03 0.  0.
   -5000001    1    1    2    0    0  0.10676562258E+03 -0.62520401833E+02  0.26305448578E+03  0.33426091800E+03  0.16500000000E+03 0.  0.
<mgrwt>
<rscale>  0 0.41249880E+03</rscale>
<asrwt>0</asrwt>
<pdfrwt beam="1">  1        2 0.84319668E-01 0.41249880E+03</pdfrwt>
<pdfrwt beam="2">  1       -2 0.10295808E-01 0.41249880E+03</pdfrwt>
<totfact> 0.35755763E+03</totfact>
</mgrwt>
</event>
<event>
 4    1  0.5312547E-005  0.6051807E+03  0.7818608E-02  0.9894716E-01
         -2   -1    0    0    0  501 -0.00000000000E+00  0.00000000000E+00  0.15623304357E+03  0.15623304359E+03  0.25500000000E-02 0.  1.
          2   -1    0    0  501    0  0.00000000000E+00 -0.00000000000E+00 -0.58605340453E+03  0.58605340454E+03  0.25500000000E-02 0. -1.
    5000001    1    1    2    0    0  0.18772676168E+03  0.39380241397E+02 -0.41847285949E+03  0.48901602693E+03  0.16500000000E+03 0.  0.
   -5000001    1    1    2    0    0 -0.18772676168E+03 -0.39380241397E+02 -0.11347501478E+02  0.25327042120E+03  0.16500000000E+03 0.  0.
<mgrwt>
<rscale>  0 0.60518066E+03</rscale>
<asrwt>0</asrwt>
<pdfrwt beam="1">  1        2 0.83721914E-01 0.60518066E+03</pdfrwt>
<pdfrwt beam="2">  1       -2 0.22319006E-01 0.60518066E+03</pdfrwt>
<totfact> 0.98269754E+02</totfact>
</mgrwt>
</event>
<event>
 4    1  0.5312547E-005  0.4451695E+03  0.7818608E-02  0.1029172E+00
          2   -1    0    0  501    0  0.00000000000E+00  0.00000000000E+00  0.81684748607E+03  0.81684748608E+03  0.25500000000E-02 0. -1.
         -2   -1    0    0    0  501 -0.00000000000E+00 -0.00000000000E+00 -0.60652652745E+02  0.60652652799E+02  0.25500000000E-02 0.  1.
    5000001    1    1    2    0    0  0.71283983353E+02  0.53088538828E+02  0.14140087852E+03  0.23477437612E+03  0.16500000000E+03 0.  0.
   -5000001    1    1    2    0    0 -0.71283983353E+02 -0.53088538828E+02  0.61479395481E+03  0.64272576275E+03  0.16500000000E+03 0.  0.
<mgrwt>
<rscale>  0 0.44516948E+03</rscale>
<asrwt>0</asrwt>
<pdfrwt beam="1">  1        2 0.11669249E+00 0.44516948E+03</pdfrwt>
<pdfrwt beam="2">  1       -2 0.86646652E-02 0.44516948E+03</pdfrwt>
<totfact> 0.31847317E+03</totfact>
</mgrwt>
</event>
<event>
 4    1  0.5312547E-005  0.4173164E+03  0.7818608E-02  0.1037943E+00
          2   -1    0    0  501    0  0.00000000000E+00  0.00000000000E+00  0.20966762775E+04  0.20966762775E+04  0.25500000000E-02 0.  1.
         -2   -1    0    0    0  501 -0.00000000000E+00 -0.00000000000E+00 -0.20765367358E+02  0.20765367515E+02  0.25500000000E-02 0. -1.
    5000001    1    1    2    0    0  0.10421374543E+03 -0.43179278332E+02  0.13418971177E+04  0.13567010833E+04  0.16500000000E+03 0.  0.
   -5000001    1    1    2    0    0 -0.10421374543E+03  0.43179278332E+02  0.73401379239E+03  0.76074056171E+03  0.16500000000E+03 0.  0.
<mgrwt>
<rscale>  0 0.41731644E+03</rscale>
<asrwt>0</asrwt>
<pdfrwt beam="1">  1        2 0.29952504E+00 0.41731644E+03</pdfrwt>
<pdfrwt beam="2">  1       -2 0.29664825E-02 0.41731644E+03</pdfrwt>
<totfact> 0.33994356E+03</totfact>
</mgrwt>
</event>
<event>
 4    1  0.5312547E-005  0.4939558E+03  0.7818608E-02  0.1015369E+00
         -2   -1    0    0    0  501 -0.00000000000E+00  0.00000000000E+00  0.29292774458E+02  0.29292774569E+02  0.25500000000E-02 0. -1.
          2   -1    0    0  501    0  0.00000000000E+00 -0.00000000000E+00 -0.20823592532E+04  0.20823592532E+04  0.25500000000E-02 0.  1.
    5000001    1    1    2    0    0 -0.15031805865E+03  0.87555556145E+02 -0.77320364754E+03  0.80952478328E+03  0.16500000000E+03 0.  0.
   -5000001    1    1    2    0    0  0.15031805865E+03 -0.87555556145E+02 -0.12798628312E+04  0.13021272445E+04  0.16500000000E+03 0.  0.
<mgrwt>
<rscale>  0 0.49395579E+03</rscale>
<asrwt>0</asrwt>
<pdfrwt beam="1">  1        2 0.29747980E+00 0.49395579E+03</pdfrwt>
<pdfrwt beam="2">  1       -2 0.41846834E-02 0.49395579E+03</pdfrwt>
<totfact> 0.20434712E+03</totfact>
</mgrwt>
</event>
<event>
 4    1  0.5312547E-005  0.3910590E+03  0.7818608E-02  0.1046920E+00
          2   -1    0    0  501    0  0.00000000000E+00  0.00000000000E+00  0.19391726572E+02  0.19391726740E+02  0.25500000000E-02 0.  1.
         -2   -1    0    0    0  501 -0.00000000000E+00 -0.00000000000E+00 -0.19715516815E+04  0.19715516815E+04  0.25500000000E-02 0. -1.
    5000001    1    1    2    0    0 -0.19825089684E+02 -0.87232790503E+02 -0.12551292072E+04  0.12690850723E+04  0.16500000000E+03 0.  0.
   -5000001    1    1    2    0    0  0.19825089684E+02  0.87232790503E+02 -0.69703074776E+03  0.72185833599E+03  0.16500000000E+03 0.  0.
<mgrwt>
<rscale>  0 0.39105903E+03</rscale>
<asrwt>0</asrwt>
<pdfrwt beam="1">  1        2 0.27702479E-02 0.39105903E+03</pdfrwt>
<pdfrwt beam="2">  1       -2 0.28165011E+00 0.39105903E+03</pdfrwt>
<totfact> 0.16261447E+02</totfact>
</mgrwt>
</event>
<event>
 4    1  0.5312547E-005  0.4176231E+03  0.7818608E-02  0.1037843E+00
          2   -1    0    0  501    0  0.00000000000E+00  0.00000000000E+00  0.10668573447E+02  0.10668573752E+02  0.25500000000E-02 0.  1.
         -2   -1    0    0    0  501 -0.00000000000E+00 -0.00000000000E+00 -0.40869815902E+04  0.40869815902E+04  0.25500000000E-02 0. -1.
    5000001    1    1    2    0    0  0.91043798602E+02 -0.13848238384E+02 -0.29100594602E+04  0.29161878899E+04  0.16500000000E+03 0.  0.
   -5000001    1    1    2    0    0 -0.91043798602E+02  0.13848238384E+02 -0.11662535565E+04  0.11814622741E+04  0.16500000000E+03 0.  0.
<mgrwt>
<rscale>  0 0.41762310E+03</rscale>
<asrwt>0</asrwt>
<pdfrwt beam="1">  1        2 0.15240846E-02 0.41762310E+03</pdfrwt>
<pdfrwt beam="2">  1       -2 0.58385351E+00 0.41762310E+03</pdfrwt>
<totfact> 0.54352167E+00</totfact>
</mgrwt>
</event>
<event>
 4    1  0.5312547E-005  0.4765383E+03  0.7818608E-02  0.1020091E+00
         -2   -1    0    0    0  501 -0.00000000000E+00  0.00000000000E+00  0.34433597748E+03  0.34433597749E+03  0.25500000000E-02 0. -1.
          2   -1    0    0  501    0  0.00000000000E+00 -0.00000000000E+00 -0.16487440291E+03  0.16487440293E+03  0.25500000000E-02 0.  1.
    5000001    1    1    2    0    0  0.88425908401E+02  0.10770507307E+03 -0.17805265230E+02  0.21670614092E+03  0.16500000000E+03 0.  0.
   -5000001    1    1    2    0    0 -0.88425908401E+02 -0.10770507307E+03  0.19726683980E+03  0.29250423950E+03  0.16500000000E+03 0.  0.
<mgrwt>
<rscale>  0 0.47653830E+03</rscale>
<asrwt>0</asrwt>
<pdfrwt beam="1">  1        2 0.23553486E-01 0.47653830E+03</pdfrwt>
<pdfrwt beam="2">  1       -2 0.49190854E-01 0.47653830E+03</pdfrwt>
<totfact> 0.92079277E+02</totfact>
</mgrwt>
</event>
<event>
 4    1  0.5312547E-005  0.4703787E+03  0.7818608E-02  0.1021813E+00
          2   -1    0    0  501    0  0.00000000000E+00  0.00000000000E+00  0.30664318083E+03  0.30664318084E+03  0.25500000000E-02 0.  1.
         -2   -1    0    0    0  501 -0.00000000000E+00 -0.00000000000E+00 -0.18038566301E+03  0.18038566303E+03  0.25500000000E-02 0. -1.
    5000001    1    1    2    0    0 -0.13960904391E+03 -0.65151370683E+01 -0.32643538790E+02  0.21868637995E+03  0.16500000000E+03 0.  0.
   -5000001    1    1    2    0    0  0.13960904391E+03  0.65151370683E+01  0.15890105660E+03  0.26834246392E+03  0.16500000000E+03 0.  0.
<mgrwt>
<rscale>  0 0.47037871E+03</rscale>
<asrwt>0</asrwt>
<pdfrwt beam="1">  1        2 0.43806169E-01 0.47037871E+03</pdfrwt>
<pdfrwt beam="2">  1       -2 0.25769380E-01 0.47037871E+03</pdfrwt>
<totfact> 0.15712085E+03</totfact>
</mgrwt>
</event>
<event>
 4    1  0.5312547E-005  0.4722722E+03  0.7818608E-02  0.1021281E+00
         -2   -1    0    0    0  501 -0.00000000000E+00  0.00000000000E+00  0.20103821246E+03  0.20103821248E+03  0.25500000000E-02 0. -1.
          2   -1    0    0  501    0  0.00000000000E+00 -0.00000000000E+00 -0.27736146374E+03  0.27736146375E+03  0.25500000000E-02 0.  1.
    5000001    1    1    2    0    0 -0.79021768381E+02 -0.14127798347E+03 -0.87072083739E+02  0.24700294787E+03  0.16500000000E+03 0.  0.
   -5000001    1    1    2    0    0  0.79021768381E+02  0.14127798347E+03  0.10748832465E+02  0.23139672835E+03  0.16500000000E+03 0.  0.
<mgrwt>
<rscale>  0 0.47227218E+03</rscale>
<asrwt>0</asrwt>
<pdfrwt beam="1">  1        2 0.39623066E-01 0.47227218E+03</pdfrwt>
<pdfrwt beam="2">  1       -2 0.28719745E-01 0.47227218E+03</pdfrwt>
<totfact> 0.14415809E+03</totfact>
</mgrwt>
</event>
<event>
 4    1  0.5312547E-005  0.9205412E+03  0.7818608E-02  0.9400262E-01
         -2   -1    0    0    0  501 -0.00000000000E+00  0.00000000000E+00  0.11217015607E+03  0.11217015610E+03  0.25500000000E-02 0. -1.
          2   -1    0    0  501    0  0.00000000000E+00 -0.00000000000E+00 -0.18886396966E+04  0.18886396967E+04  0.25500000000E-02 0.  1.
    5000001    1    1    2    0    0  0.16504382634E+03  0.72210874925E+02 -0.40368585122E+02  0.24760552848E+03  0.16500000000E+03 0.  0.
   -5000001    1    1    2    0    0 -0.16504382634E+03 -0.72210874925E+02 -0.17361009555E+04  0.17532043243E+04  0.16500000000E+03 0.  0.
<mgrwt>
<rscale>  0 0.92054117E+03</rscale>
<asrwt>0</asrwt>
<pdfrwt beam="1">  1        2 0.26980565E+00 0.92054117E+03</pdfrwt>
<pdfrwt beam="2">  1       -2 0.16024309E-01 0.92054117E+03</pdfrwt>
<totfact> 0.28851440E+02</totfact>
</mgrwt>
</event>
<event>
 4    1  0.5312547E-005  0.7618006E+03  0.7818608E-02  0.9617017E-01
          2   -1    0    0  501    0  0.00000000000E+00  0.00000000000E+00  0.15384851452E+04  0.15384851452E+04  0.25500000000E-02 0.  1.
         -2   -1    0    0    0  501 -0.00000000000E+00 -0.00000000000E+00 -0.94303832769E+02  0.94303832803E+02  0.25500000000E-02 0. -1.
    5000001    1    1    2    0    0  0.33322337927E+03 -0.43091357542E+02  0.57106034333E+03  0.68281007704E+03  0.16500000000E+03 0.  0.
   -5000001    1    1    2    0    0 -0.33322337927E+03  0.43091357542E+02  0.87312096906E+03  0.94997890092E+03  0.16500000000E+03 0.  0.
<mgrwt>
<rscale>  0 0.76180062E+03</rscale>
<asrwt>0</asrwt>
<pdfrwt beam="1">  1        2 0.21978359E+00 0.76180062E+03</pdfrwt>
<pdfrwt beam="2">  1       -2 0.13471976E-01 0.76180062E+03</pdfrwt>
<totfact> 0.59116258E+02</totfact>
</mgrwt>
</event>
<event>
 4    1  0.5312547E-005  0.4695352E+03  0.7818608E-02  0.1022051E+00
         -2   -1    0    0    0  501 -0.00000000000E+00  0.00000000000E+00  0.17437442941E+04  0.17437442941E+04  0.25500000000E-02 0. -1.
          2   -1    0    0  501    0  0.00000000000E+00 -0.00000000000E+00 -0.31607739343E+02  0.31607739445E+02  0.25500000000E-02 0.  1.
    5000001    1    1    2    0    0 -0.36475254913E+01  0.16400737797E+03  0.73775653709E+03  0.77357703720E+03  0.16500000000E+03 0.  0.
   -5000001    1    1    2    0    0  0.36475254913E+01 -0.16400737797E+03  0.97438001766E+03  0.10017749963E+04  0.16500000000E+03 0.  0.
<mgrwt>
<rscale>  0 0.46953515E+03</rscale>
<asrwt>0</asrwt>
<pdfrwt beam="1">  1        2 0.45153911E-02 0.46953515E+03</pdfrwt>
<pdfrwt beam="2">  1       -2 0.24910634E+00 0.46953515E+03</pdfrwt>
<totfact> 0.12926709E+02</totfact>
</mgrwt>
</event>
<event>
 4    1  0.5312547E-005  0.8090101E+03  0.7818608E-02  0.9547066E-01
          2   -1    0    0  501    0  0.00000000000E+00  0.00000000000E+00  0.57359466943E+03  0.57359466944E+03  0.25500000000E-02 0.  1.
         -2   -1    0    0    0  501 -0.00000000000E+00 -0.00000000000E+00 -0.28526126884E+03  0.28526126885E+03  0.25500000000E-02 0. -1.
    5000001    1    1    2    0    0  0.82123109359E+02 -0.16777210961E+03  0.48239953974E+03  0.54297882260E+03  0.16500000000E+03 0.  0.
   -5000001    1    1    2    0    0 -0.82123109359E+02  0.16777210961E+03 -0.19406613914E+03  0.31587711569E+03  0.16500000000E+03 0.  0.
<mgrwt>
<rscale>  0 0.80901012E+03</rscale>
<asrwt>0</asrwt>
<pdfrwt beam="1">  1        2 0.81942094E-01 0.80901012E+03</pdfrwt>
<pdfrwt beam="2">  1       -2 0.40751610E-01 0.80901012E+03</pdfrwt>
<totfact> 0.32784945E+02</totfact>
</mgrwt>
</event>
<event>
 4    1  0.5312547E-005  0.8385487E+03  0.7818608E-02  0.9505837E-01
          2   -1    0    0  501    0  0.00000000000E+00  0.00000000000E+00  0.80118321682E+03  0.80118321682E+03  0.25500000000E-02 0.  1.
         -2   -1    0    0    0  501 -0.00000000000E+00 -0.00000000000E+00 -0.21941420988E+03  0.21941420989E+03  0.25500000000E-02 0. -1.
    5000001    1    1    2    0    0  0.35157432412E+03 -0.15255165651E+03  0.34091114148E+03  0.53881529272E+03  0.16500000000E+03 0.  0.
   -5000001    1    1    2    0    0 -0.35157432412E+03  0.15255165651E+03  0.24085786546E+03  0.48178213399E+03  0.16500000000E+03 0.  0.
<mgrwt>
<rscale>  0 0.83854870E+03</rscale>
<asrwt>0</asrwt>
<pdfrwt beam="1">  1        2 0.11445475E+00 0.83854870E+03</pdfrwt>
<pdfrwt beam="2">  1       -2 0.31344887E-01 0.83854870E+03</pdfrwt>
<totfact> 0.35897850E+02</totfact>
</mgrwt>
</event>
<event>
 4    1  0.5312547E-005  0.4064191E+03  0.7818608E-02  0.1041579E+00
         -2   -1    0    0    0  501 -0.00000000000E+00  0.00000000000E+00  0.20535773452E+02  0.20535773610E+02  0.25500000000E-02 0. -1.
          2   -1    0    0  501    0  0.00000000000E+00 -0.00000000000E+00 -0.20108381751E+04  0.20108381751E+04  0.25500000000E-02 0.  1.
    5000001    1    1    2    0    0  0.35898831587E+02  0.11171015077E+03 -0.10819007866E+04  0.11006826046E+04  0.16500000000E+03 0.  0.
   -5000001    1    1    2    0    0 -0.35898831587E+02 -0.11171015077E+03 -0.90840161509E+03  0.93069134421E+03  0.16500000000E+03 0.  0.
<mgrwt>
<rscale>  0 0.40641908E+03</rscale>
<asrwt>0</asrwt>
<pdfrwt beam="1">  1        2 0.28726247E+00 0.40641908E+03</pdfrwt>
<pdfrwt beam="2">  1       -2 0.29336832E-02 0.40641908E+03</pdfrwt>
<totfact> 0.38134027E+03</totfact>
</mgrwt>
</event>
<event>
 4    1  0.5312547E-005  0.3888743E+03  0.7818608E-02  0.1047702E+00
          2   -1    0    0  501    0  0.00000000000E+00  0.00000000000E+00  0.19950269868E+04  0.19950269868E+04  0.25500000000E-02 0.  1.
         -2   -1    0    0    0  501 -0.00000000000E+00 -0.00000000000E+00 -0.18950026499E+02  0.18950026671E+02  0.25500000000E-02 0. -1.
    5000001    1    1    2    0    0  0.31649117574E+02  0.46318617866E+02  0.54151047037E+03  0.56886349024E+03  0.16500000000E+03 0.  0.
   -5000001    1    1    2    0    0 -0.31649117574E+02 -0.46318617866E+02  0.14345664899E+04  0.14451135232E+04  0.16500000000E+03 0.  0.
<mgrwt>
<rscale>  0 0.38887435E+03</rscale>
<asrwt>0</asrwt>
<pdfrwt beam="1">  1        2 0.28500402E+00 0.38887435E+03</pdfrwt>
<pdfrwt beam="2">  1       -2 0.27071451E-02 0.38887435E+03</pdfrwt>
<totfact> 0.43819335E+03</totfact>
</mgrwt>
</event>
<event>
 4    1  0.5312547E-005  0.7726315E+03  0.7818608E-02  0.9600499E-01
          2   -1    0    0  501    0  0.00000000000E+00  0.00000000000E+00  0.28304736132E+04  0.28304736132E+04  0.25500000000E-02 0.  1.
         -2   -1    0    0    0  501 -0.00000000000E+00 -0.00000000000E+00 -0.52726104586E+02  0.52726104648E+02  0.25500000000E-02 0. -1.
    5000001    1    1    2    0    0 -0.12041852195E+03 -0.24978309859E+03  0.59619076233E+03  0.67790902181E+03  0.16500000000E+03 0.  0.
   -5000001    1    1    2    0    0  0.12041852195E+03  0.24978309859E+03  0.21815567463E+04  0.22052906960E+04  0.16500000000E+03 0.  0.
<mgrwt>
<rscale>  0 0.77263147E+03</rscale>
<asrwt>0</asrwt>
<pdfrwt beam="1">  1        2 0.40435339E+00 0.77263147E+03</pdfrwt>
<pdfrwt beam="2">  1       -2 0.75323004E-02 0.77263147E+03</pdfrwt>
<totfact> 0.32998277E+02</totfact>
</mgrwt>
</event>
<event>
 4    1  0.5312547E-005  0.8396370E+03  0.7818608E-02  0.9504352E-01
          2   -1    0    0  501    0  0.00000000000E+00  0.00000000000E+00  0.31742440629E+04  0.31742440629E+04  0.25500000000E-02 0.  1.
         -2   -1    0    0    0  501 -0.00000000000E+00 -0.00000000000E+00 -0.55524263422E+02  0.55524263481E+02  0.25500000000E-02 0. -1.
    5000001    1    1    2    0    0 -0.37712175104E+03  0.12790427527E+02  0.18727631231E+04  0.19175117015E+04  0.16500000000E+03 0.  0.
   -5000001    1    1    2    0    0  0.37712175104E+03 -0.12790427527E+02  0.12459566764E+04  0.13122566250E+04  0.16500000000E+03 0.  0.
<mgrwt>
<rscale>  0 0.83963698E+03</rscale>
<asrwt>0</asrwt>
<pdfrwt beam="1">  1        2 0.45346362E+00 0.83963698E+03</pdfrwt>
<pdfrwt beam="2">  1       -2 0.79320344E-02 0.83963698E+03</pdfrwt>
<totfact> 0.19542118E+02</totfact>
</mgrwt>
</event>
<event>
 4    1  0.5312547E-005  0.5389357E+03  0.7818608E-02  0.1004088E+00
          2   -1    0    0  501    0  0.00000000000E+00  0.00000000000E+00  0.43369467042E+03  0.43369467042E+03  0.25500000000E-02 0.  1.
         -2   -1    0    0    0  501 -0.00000000000E+00 -0.00000000000E+00 -0.16742865686E+03  0.16742865688E+03  0.25500000000E-02 0. -1.
    5000001    1    1    2    0    0 -0.85922716821E+01 -0.13647790744E+03  0.31534778713E+03  0.38127322644E+03  0.16500000000E+03 0.  0.
   -5000001    1    1    2    0    0  0.85922716821E+01  0.13647790744E+03 -0.49081773572E+02  0.21985010086E+03  0.16500000000E+03 0.  0.
<mgrwt>
<rscale>  0 0.53893568E+03</rscale>
<asrwt>0</asrwt>
<pdfrwt beam="1">  1        2 0.61956381E-01 0.53893568E+03</pdfrwt>
<pdfrwt beam="2">  1       -2 0.23918380E-01 0.53893568E+03</pdfrwt>
<totfact> 0.12254777E+03</totfact>
</mgrwt>
</event>
<event>
 4    1  0.5312547E-005  0.5315034E+03  0.7818608E-02  0.1005868E+00
          2   -1    0    0  501    0  0.00000000000E+00  0.00000000000E+00  0.61916318241E+03  0.61916318241E+03  0.25500000000E-02 0.  1.
         -2   -1    0    0    0  501 -0.00000000000E+00 -0.00000000000E+00 -0.11406357485E+03  0.11406357488E+03  0.25500000000E-02 0. -1.
    5000001    1    1    2    0    0  0.62318944927E+02 -0.18161933150E+03  0.36402544725E+03  0.44340586230E+03  0.16500000000E+03 0.  0.
   -5000001    1    1    2    0    0 -0.62318944927E+02  0.18161933150E+03  0.14107416030E+03  0.28982089500E+03  0.16500000000E+03 0.  0.
<mgrwt>
<rscale>  0 0.53150340E+03</rscale>
<asrwt>0</asrwt>
<pdfrwt beam="1">  1        2 0.88451881E-01 0.53150340E+03</pdfrwt>
<pdfrwt beam="2">  1       -2 0.16294797E-01 0.53150340E+03</pdfrwt>
<totfact> 0.15881650E+03</totfact>
</mgrwt>
</event>
<event>
 4    1  0.5312547E-005  0.3947822E+03  0.7818608E-02  0.1045602E+00
         -2   -1    0    0    0  501 -0.00000000000E+00  0.00000000000E+00  0.22181065173E+03  0.22181065174E+03  0.25500000000E-02 0. -1.
          2   -1    0    0  501    0  0.00000000000E+00 -0.00000000000E+00 -0.17565996267E+03  0.17565996269E+03  0.25500000000E-02 0.  1.
    5000001    1    1    2    0    0 -0.78987265195E+02 -0.14985954628E+02 -0.50046250816E+02  0.19024508961E+03  0.16500000000E+03 0.  0.
   -5000001    1    1    2    0    0  0.78987265195E+02  0.14985954628E+02  0.96196939870E+02  0.20722552483E+03  0.16500000000E+03 0.  0.
<mgrwt>
<rscale>  0 0.39478222E+03</rscale>
<asrwt>0</asrwt>
<pdfrwt beam="1">  1        2 0.25094280E-01 0.39478222E+03</pdfrwt>
<pdfrwt beam="2">  1       -2 0.31687236E-01 0.39478222E+03</pdfrwt>
<totfact> 0.19954644E+03</totfact>
</mgrwt>
</event>
<event>
 4    1  0.5312547E-005  0.4118396E+03  0.7818608E-02  0.1039755E+00
          2   -1    0    0  501    0  0.00000000000E+00  0.00000000000E+00  0.18542174866E+04  0.18542174866E+04  0.25500000000E-02 0.  1.
         -2   -1    0    0    0  501 -0.00000000000E+00 -0.00000000000E+00 -0.22868385939E+02  0.22868386081E+02  0.25500000000E-02 0. -1.
    5000001    1    1    2    0    0  0.11428768175E+03 -0.39363607845E+02  0.10241842216E+04  0.10444086784E+04  0.16500000000E+03 0.  0.
   -5000001    1    1    2    0    0 -0.11428768175E+03  0.39363607845E+02  0.80716487903E+03  0.83267719422E+03  0.16500000000E+03 0.  0.
<mgrwt>
<rscale>  0 0.41183959E+03</rscale>
<asrwt>0</asrwt>
<pdfrwt beam="1">  1        2 0.26488834E+00 0.41183959E+03</pdfrwt>
<pdfrwt beam="2">  1       -2 0.32669107E-02 0.41183959E+03</pdfrwt>
<totfact> 0.38767165E+03</totfact>
</mgrwt>
</event>
<event>
 4    1  0.5312547E-005  0.4379688E+03  0.7818608E-02  0.1031372E+00
         -2   -1    0    0    0  501 -0.00000000000E+00  0.00000000000E+00  0.76606438784E+02  0.76606438826E+02  0.25500000000E-02 0. -1.
          2   -1    0    0  501    0  0.00000000000E+00 -0.00000000000E+00 -0.62598099143E+03  0.62598099144E+03  0.25500000000E-02 0.  1.
    5000001    1    1    2    0    0  0.51966691148E+02 -0.11403339976E+03 -0.38840446707E+03  0.44021265689E+03  0.16500000000E+03 0.  0.
   -5000001    1    1    2    0    0 -0.51966691148E+02  0.11403339976E+03 -0.16097008558E+03  0.26237477337E+03  0.16500000000E+03 0.  0.
<mgrwt>
<rscale>  0 0.43796883E+03</rscale>
<asrwt>0</asrwt>
<pdfrwt beam="1">  1        2 0.89425853E-01 0.43796883E+03</pdfrwt>
<pdfrwt beam="2">  1       -2 0.10943777E-01 0.43796883E+03</pdfrwt>
<totfact> 0.30276427E+03</totfact>
</mgrwt>
</event>
<event>
 4    1  0.5312547E-005  0.9216364E+03  0.7818608E-02  0.9398932E-01
         -2   -1    0    0    0  501 -0.00000000000E+00  0.00000000000E+00  0.41980030592E+03  0.41980030592E+03  0.25500000000E-02 0. -1.
          2   -1    0    0  501    0  0.00000000000E+00 -0.00000000000E+00 -0.50584383736E+03  0.50584383737E+03  0.25500000000E-02 0.  1.
    5000001    1    1    2    0    0 -0.27581630491E+03 -0.25092485833E+03 -0.25864227435E+03  0.48286514127E+03  0.16500000000E+03 0.  0.
   -5000001    1    1    2    0    0  0.27581630491E+03  0.25092485833E+03  0.17259874290E+03  0.44277900202E+03  0.16500000000E+03 0.  0.
<mgrwt>
<rscale>  0 0.92163637E+03</rscale>
<asrwt>0</asrwt>
<pdfrwt beam="1">  1        2 0.72263405E-01 0.92163637E+03</pdfrwt>
<pdfrwt beam="2">  1       -2 0.59971473E-01 0.92163637E+03</pdfrwt>
<totfact> 0.17221263E+02</totfact>
</mgrwt>
</event>
<event>
 4    1  0.5312547E-005  0.6986288E+03  0.7818608E-02  0.9719580E-01
          2   -1    0    0  501    0  0.00000000000E+00  0.00000000000E+00  0.60800580945E+03  0.60800580946E+03  0.25500000000E-02 0.  1.
         -2   -1    0    0    0  501 -0.00000000000E+00 -0.00000000000E+00 -0.20068975573E+03  0.20068975574E+03  0.25500000000E-02 0. -1.
    5000001    1    1    2    0    0  0.22698562428E+03  0.16558975257E+03  0.34940369849E+03  0.47775556962E+03  0.16500000000E+03 0.  0.
   -5000001    1    1    2    0    0 -0.22698562428E+03 -0.16558975257E+03  0.57912355232E+02  0.33093999558E+03  0.16500000000E+03 0.  0.
<mgrwt>
<rscale>  0 0.69862876E+03</rscale>
<asrwt>0</asrwt>
<pdfrwt beam="1">  1        2 0.86857973E-01 0.69862876E+03</pdfrwt>
<pdfrwt beam="2">  1       -2 0.28669965E-01 0.69862876E+03</pdfrwt>
<totfact> 0.59815546E+02</totfact>
</mgrwt>
</event>
<event>
 4    1  0.5312547E-005  0.4694981E+03  0.7818608E-02  0.1022062E+00
          2   -1    0    0  501    0  0.00000000000E+00  0.00000000000E+00  0.44809953088E+03  0.44809953089E+03  0.25500000000E-02 0.  1.
         -2   -1    0    0    0  501 -0.00000000000E+00 -0.00000000000E+00 -0.12297965644E+03  0.12297965646E+03  0.25500000000E-02 0. -1.
    5000001    1    1    2    0    0 -0.51746936106E+02 -0.92876214406E+02  0.59448387916E+01  0.19637738594E+03  0.16500000000E+03 0.  0.
   -5000001    1    1    2    0    0  0.51746936106E+02  0.92876214406E+02  0.31917503565E+03  0.37470180141E+03  0.16500000000E+03 0.  0.
<mgrwt>
<rscale>  0 0.46949814E+03</rscale>
<asrwt>0</asrwt>
<pdfrwt beam="1">  1        2 0.64014217E-01 0.46949814E+03</pdfrwt>
<pdfrwt beam="2">  1       -2 0.17568523E-01 0.46949814E+03</pdfrwt>
<totfact> 0.20211382E+03</totfact>
</mgrwt>
</event>
<event>
 4    1  0.5312547E-005  0.5222621E+03  0.7818608E-02  0.1008126E+00
          2   -1    0    0  501    0  0.00000000000E+00  0.00000000000E+00  0.33169185037E+04  0.33169185037E+04  0.25500000000E-02 0.  1.
         -2   -1    0    0    0  501 -0.00000000000E+00 -0.00000000000E+00 -0.20558063439E+02  0.20558063597E+02  0.25500000000E-02 0. -1.
    5000001    1    1    2    0    0  0.40144967394E+02  0.18844109506E+03  0.12520379701E+04  0.12774763181E+04  0.16500000000E+03 0.  0.
   -5000001    1    1    2    0    0 -0.40144967394E+02 -0.18844109506E+03  0.20443224702E+04  0.20600002492E+04  0.16500000000E+03 0.  0.
<mgrwt>
<rscale>  0 0.52226208E+03</rscale>
<asrwt>0</asrwt>
<pdfrwt beam="1">  1        2 0.47384572E+00 0.52226208E+03</pdfrwt>
<pdfrwt beam="2">  1       -2 0.29368648E-02 0.52226208E+03</pdfrwt>
<totfact> 0.78558297E+02</totfact>
</mgrwt>
</event>
<event>
 4    1  0.5312547E-005  0.4579323E+03  0.7818608E-02  0.1025383E+00
          2   -1    0    0  501    0  0.00000000000E+00  0.00000000000E+00  0.54995641439E+03  0.54995641440E+03  0.25500000000E-02 0.  1.
         -2   -1    0    0    0  501 -0.00000000000E+00 -0.00000000000E+00 -0.95326620736E+02  0.95326620770E+02  0.25500000000E-02 0. -1.
    5000001    1    1    2    0    0  0.65936468502E+02 -0.14433100173E+03  0.23383818060E+03  0.32723745300E+03  0.16500000000E+03 0.  0.
   -5000001    1    1    2    0    0 -0.65936468502E+02  0.14433100173E+03  0.22079161305E+03  0.31804558216E+03  0.16500000000E+03 0.  0.
<mgrwt>
<rscale>  0 0.45793225E+03</rscale>
<asrwt>0</asrwt>
<pdfrwt beam="1">  1        2 0.78565201E-01 0.45793225E+03</pdfrwt>
<pdfrwt beam="2">  1       -2 0.13618089E-01 0.45793225E+03</pdfrwt>
<totfact> 0.24601835E+03</totfact>
</mgrwt>
</event>
<event>
 4    1  0.5312547E-005  0.4561704E+03  0.7818608E-02  0.1025898E+00
         -2   -1    0    0    0  501 -0.00000000000E+00  0.00000000000E+00  0.61284863630E+02  0.61284863683E+02  0.25500000000E-02 0. -1.
          2   -1    0    0  501    0  0.00000000000E+00 -0.00000000000E+00 -0.84886969725E+03  0.84886969725E+03  0.25500000000E-02 0.  1.
    5000001    1    1    2    0    0 -0.15526725983E+03 -0.10348259400E+02 -0.44196149886E+03  0.49675947391E+03  0.16500000000E+03 0.  0.
   -5000001    1    1    2    0    0  0.15526725983E+03  0.10348259400E+02 -0.34562333476E+03  0.41339508703E+03  0.16500000000E+03 0.  0.
<mgrwt>
<rscale>  0 0.45617042E+03</rscale>
<asrwt>0</asrwt>
<pdfrwt beam="1">  1        2 0.12126709E+00 0.45617042E+03</pdfrwt>
<pdfrwt beam="2">  1       -2 0.87549810E-02 0.45617042E+03</pdfrwt>
<totfact> 0.29823573E+03</totfact>
</mgrwt>
</event>
<event>
 4    1  0.5312547E-005  0.3652680E+03  0.7818608E-02  0.1056517E+00
          2   -1    0    0  501    0  0.00000000000E+00  0.00000000000E+00  0.13706399357E+04  0.13706399357E+04  0.25500000000E-02 0.  1.
         -2   -1    0    0    0  501 -0.00000000000E+00 -0.00000000000E+00 -0.24335482919E+02  0.24335483052E+02  0.25500000000E-02 0. -1.
    5000001    1    1    2    0    0  0.10638282143E+02  0.31373906807E+02  0.94408089515E+03  0.95896362374E+03  0.16500000000E+03 0.  0.
   -5000001    1    1    2    0    0 -0.10638282143E+02 -0.31373906807E+02  0.40222355763E+03  0.43601179501E+03  0.16500000000E+03 0.  0.
<mgrwt>
<rscale>  0 0.36526804E+03</rscale>
<asrwt>0</asrwt>
<pdfrwt beam="1">  1        2 0.19580569E+00 0.36526804E+03</pdfrwt>
<pdfrwt beam="2">  1       -2 0.34764979E-02 0.36526804E+03</pdfrwt>
<totfact> 0.62011929E+03</totfact>
</mgrwt>
</event>
<event>
 4    1  0.5312547E-005  0.4412418E+03  0.7818608E-02  0.1030366E+00
          2   -1    0    0  501    0  0.00000000000E+00  0.00000000000E+00  0.82315799289E+03  0.82315799289E+03  0.25500000000E-02 0.  1.
         -2   -1    0    0    0  501 -0.00000000000E+00 -0.00000000000E+00 -0.59130291740E+02  0.59130291795E+02  0.25500000000E-02 0. -1.
    5000001    1    1    2    0    0 -0.14496235124E+03 -0.20807527240E+02  0.37953582985E+03  0.43899827176E+03  0.16500000000E+03 0.  0.
   -5000001    1    1    2    0    0  0.14496235124E+03  0.20807527240E+02  0.38449187130E+03  0.44329001293E+03  0.16500000000E+03 0.  0.
<mgrwt>
<rscale>  0 0.44124176E+03</rscale>
<asrwt>0</asrwt>
<pdfrwt beam="1">  1        2 0.11759399E+00 0.44124176E+03</pdfrwt>
<pdfrwt beam="2">  1       -2 0.84471854E-02 0.44124176E+03</pdfrwt>
<totfact> 0.32834489E+03</totfact>
</mgrwt>
</event>
<event>
 4    1  0.5312547E-005  0.6638151E+03  0.7818608E-02  0.9781196E-01
         -2   -1    0    0    0  501 -0.00000000000E+00  0.00000000000E+00  0.48869457761E+02  0.48869457828E+02  0.25500000000E-02 0. -1.
          2   -1    0    0  501    0  0.00000000000E+00 -0.00000000000E+00 -0.22542221204E+04  0.22542221204E+04  0.25500000000E-02 0.  1.
    5000001    1    1    2    0    0 -0.99229255562E+02  0.22014261749E+03 -0.55819604766E+03  0.63017223425E+03  0.16500000000E+03 0.  0.
   -5000001    1    1    2    0    0  0.99229255562E+02 -0.22014261749E+03 -0.16471566150E+04  0.16729193440E+04  0.16500000000E+03 0.  0.
<mgrwt>
<rscale>  0 0.66381507E+03</rscale>
<asrwt>0</asrwt>
<pdfrwt beam="1">  1        2 0.32203167E+00 0.66381507E+03</pdfrwt>
<pdfrwt beam="2">  1       -2 0.69813525E-02 0.66381507E+03</pdfrwt>
<totfact> 0.74773509E+02</totfact>
</mgrwt>
</event>
<event>
 4    1  0.5312547E-005  0.7370820E+03  0.7818608E-02  0.9655837E-01
          2   -1    0    0  501    0  0.00000000000E+00  0.00000000000E+00  0.22371645354E+03  0.22371645355E+03  0.25500000000E-02 0.  1.
         -2   -1    0    0    0  501 -0.00000000000E+00 -0.00000000000E+00 -0.60711889558E+03  0.60711889559E+03  0.25500000000E-02 0. -1.
    5000001    1    1    2    0    0 -0.31995768569E+03  0.66619476460E+02 -0.14405923957E+03  0.39343250982E+03  0.16500000000E+03 0.  0.
   -5000001    1    1    2    0    0  0.31995768569E+03 -0.66619476460E+02 -0.23934320248E+03  0.43740283932E+03  0.16500000000E+03 0.  0.
<mgrwt>
<rscale>  0 0.73708205E+03</rscale>
<asrwt>0</asrwt>
<pdfrwt beam="1">  1        2 0.31959494E-01 0.73708205E+03</pdfrwt>
<pdfrwt beam="2">  1       -2 0.86731270E-01 0.73708205E+03</pdfrwt>
<totfact> 0.19234437E+02</totfact>
</mgrwt>
</event>
<event>
 4    1  0.5312547E-005  0.4307023E+03  0.7818608E-02  0.1033638E+00
          2   -1    0    0  501    0  0.00000000000E+00  0.00000000000E+00  0.92835405298E+03  0.92835405298E+03  0.25500000000E-02 0.  1.
         -2   -1    0    0    0  501 -0.00000000000E+00 -0.00000000000E+00 -0.49955208917E+02  0.49955208982E+02  0.25500000000E-02 0. -1.
    5000001    1    1    2    0    0 -0.11479678906E+03  0.67631693909E+02  0.52415118778E+03  0.56543064690E+03  0.16500000000E+03 0.  0.
   -5000001    1    1    2    0    0  0.11479678906E+03 -0.67631693909E+02  0.35424765628E+03  0.41287861507E+03  0.16500000000E+03 0.  0.
<mgrwt>
<rscale>  0 0.43070231E+03</rscale>
<asrwt>0</asrwt>
<pdfrwt beam="1">  1        2 0.13262200E+00 0.43070231E+03</pdfrwt>
<pdfrwt beam="2">  1       -2 0.71364588E-02 0.43070231E+03</pdfrwt>
<totfact> 0.36610545E+03</totfact>
</mgrwt>
</event>
<event>
 4    1  0.5312547E-005  0.5254073E+03  0.7818608E-02  0.1007352E+00
         -2   -1    0    0    0  501 -0.00000000000E+00  0.00000000000E+00  0.43167111235E+03  0.43167111236E+03  0.25500000000E-02 0. -1.
          2   -1    0    0  501    0  0.00000000000E+00 -0.00000000000E+00 -0.15987448144E+03  0.15987448146E+03  0.25500000000E-02 0.  1.
    5000001    1    1    2    0    0  0.23252776066E+00 -0.20440234672E+03  0.13274950519E+03  0.29432601744E+03  0.16500000000E+03 0.  0.
   -5000001    1    1    2    0    0 -0.23252776066E+00  0.20440234672E+03  0.13904712572E+03  0.29721957638E+03  0.16500000000E+03 0.  0.
<mgrwt>
<rscale>  0 0.52540725E+03</rscale>
<asrwt>0</asrwt>
<pdfrwt beam="1">  1        2 0.22839211E-01 0.52540725E+03</pdfrwt>
<pdfrwt beam="2">  1       -2 0.61667302E-01 0.52540725E+03</pdfrwt>
<totfact> 0.59876041E+02</totfact>
</mgrwt>
</event>
<event>
 4    1  0.5312547E-005  0.6178204E+03  0.7818608E-02  0.9869109E-01
          2   -1    0    0  501    0  0.00000000000E+00  0.00000000000E+00  0.47917592980E+03  0.47917592981E+03  0.25500000000E-02 0.  1.
         -2   -1    0    0    0  501 -0.00000000000E+00 -0.00000000000E+00 -0.19914502843E+03  0.19914502845E+03  0.25500000000E-02 0. -1.
    5000001    1    1    2    0    0 -0.20518154684E+03  0.13414984582E+03  0.41172510205E+02  0.29835519753E+03  0.16500000000E+03 0.  0.
   -5000001    1    1    2    0    0  0.20518154684E+03 -0.13414984582E+03  0.23885839116E+03  0.37996576073E+03  0.16500000000E+03 0.  0.
<mgrwt>
<rscale>  0 0.61782038E+03</rscale>
<asrwt>0</asrwt>
<pdfrwt beam="1">  1        2 0.68453705E-01 0.61782038E+03</pdfrwt>
<pdfrwt beam="2">  1       -2 0.28449290E-01 0.61782038E+03</pdfrwt>
<totfact> 0.80042234E+02</totfact>
</mgrwt>
</event>
<event>
 4    1  0.5312547E-005  0.3705359E+03  0.7818608E-02  0.1054488E+00
         -2   -1    0    0    0  501 -0.00000000000E+00  0.00000000000E+00  0.11905532440E+02  0.11905532713E+02  0.25500000000E-02 0. -1.
          2   -1    0    0  501    0  0.00000000000E+00 -0.00000000000E+00 -0.28830469557E+04  0.28830469557E+04  0.25500000000E-02 0.  1.
    5000001    1    1    2    0    0  0.54430478994E+02 -0.59216074843E+02 -0.16316707230E+04  0.16419633275E+04  0.16500000000E+03 0.  0.
   -5000001    1    1    2    0    0 -0.54430478994E+02  0.59216074843E+02 -0.12394707003E+04  0.12529891610E+04  0.16500000000E+03 0.  0.
<mgrwt>
<rscale>  0 0.37053588E+03</rscale>
<asrwt>0</asrwt>
<pdfrwt beam="1">  1        2 0.41186340E+00 0.37053588E+03</pdfrwt>
<pdfrwt beam="2">  1       -2 0.17007922E-02 0.37053588E+03</pdfrwt>
<totfact> 0.31176198E+03</totfact>
</mgrwt>
</event>
<event>
 4    1  0.5312547E-005  0.6671828E+03  0.7818608E-02  0.9775061E-01
         -2   -1    0    0    0  501 -0.00000000000E+00  0.00000000000E+00  0.67560853986E+02  0.67560854035E+02  0.25500000000E-02 0. -1.
          2   -1    0    0  501    0  0.00000000000E+00 -0.00000000000E+00 -0.16471555219E+04  0.16471555219E+04  0.25500000000E-02 0.  1.
    5000001    1    1    2    0    0  0.15283051236E+02 -0.18268480845E+03 -0.21252334591E+03  0.32557408289E+03  0.16500000000E+03 0.  0.
   -5000001    1    1    2    0    0 -0.15283051236E+02  0.18268480845E+03 -0.13670713220E+04  0.13891422931E+04  0.16500000000E+03 0.  0.
<mgrwt>
<rscale>  0 0.66718283E+03</rscale>
<asrwt>0</asrwt>
<pdfrwt beam="1">  1        2 0.23530791E+00 0.66718283E+03</pdfrwt>
<pdfrwt beam="2">  1       -2 0.96515516E-02 0.66718283E+03</pdfrwt>
<totfact> 0.90306334E+02</totfact>
</mgrwt>
</event>
<event>
 4    1  0.5312547E-005  0.3629761E+03  0.7818608E-02  0.1057412E+00
          2   -1    0    0  501    0  0.00000000000E+00  0.00000000000E+00  0.21435086425E+04  0.21435086425E+04  0.25500000000E-02 0.  1.
         -2   -1    0    0    0  501 -0.00000000000E+00 -0.00000000000E+00 -0.15366355770E+02  0.15366355981E+02  0.25500000000E-02 0. -1.
    5000001    1    1    2    0    0 -0.55036885757E+02  0.49555203056E+02  0.97423525749E+03  0.99088047406E+03  0.16500000000E+03 0.  0.
   -5000001    1    1    2    0    0  0.55036885757E+02 -0.49555203056E+02  0.11539070292E+04  0.11679945244E+04  0.16500000000E+03 0.  0.
<mgrwt>
<rscale>  0 0.36297612E+03</rscale>
<asrwt>0</asrwt>
<pdfrwt beam="1">  1        2 0.30621535E+00 0.36297612E+03</pdfrwt>
<pdfrwt beam="2">  1       -2 0.21951949E-02 0.36297612E+03</pdfrwt>
<totfact> 0.50628040E+03</totfact>
</mgrwt>
</event>
<event>
 4    1  0.5312547E-005  0.6726369E+03  0.7818608E-02  0.9765206E-01
          2   -1    0    0  501    0  0.00000000000E+00  0.00000000000E+00  0.18741236414E+04  0.18741236414E+04  0.25500000000E-02 0.  1.
         -2   -1    0    0    0  501 -0.00000000000E+00 -0.00000000000E+00 -0.60353591870E+02  0.60353591924E+02  0.25500000000E-02 0. -1.
    5000001    1    1    2    0    0 -0.85929484173E+02 -0.17121635897E+03  0.26905571145E+03  0.36920846915E+03  0.16500000000E+03 0.  0.
   -5000001    1    1    2    0    0  0.85929484173E+02  0.17121635897E+03  0.15447143381E+04  0.15652687642E+04  0.16500000000E+03 0.  0.
<mgrwt>
<rscale>  0 0.67263688E+03</rscale>
<asrwt>0</asrwt>
<pdfrwt beam="1">  1        2 0.26773195E+00 0.67263688E+03</pdfrwt>
<pdfrwt beam="2">  1       -2 0.86219416E-02 0.67263688E+03</pdfrwt>
<totfact> 0.83021906E+02</totfact>
</mgrwt>
</event>
<event>
 4    1  0.5312547E-005  0.7047853E+03  0.7818608E-02  0.9709083E-01
          2   -1    0    0  501    0  0.00000000000E+00  0.00000000000E+00  0.35532365733E+04  0.35532365733E+04  0.25500000000E-02 0.  1.
         -2   -1    0    0    0  501 -0.00000000000E+00 -0.00000000000E+00 -0.34948583302E+02  0.34948583395E+02  0.25500000000E-02 0. -1.
    5000001    1    1    2    0    0  0.23002330139E+03 -0.19379792055E+03  0.13490837254E+04  0.13920202051E+04  0.16500000000E+03 0.  0.
   -5000001    1    1    2    0    0 -0.23002330139E+03  0.19379792055E+03  0.21692042646E+04  0.21961649516E+04  0.16500000000E+03 0.  0.
<mgrwt>
<rscale>  0 0.70478531E+03</rscale>
<asrwt>0</asrwt>
<pdfrwt beam="1">  1        2 0.50760525E+00 0.70478531E+03</pdfrwt>
<pdfrwt beam="2">  1       -2 0.49926545E-02 0.70478531E+03</pdfrwt>
<totfact> 0.24764276E+02</totfact>
</mgrwt>
</event>
<event>
 4    1  0.5312547E-005  0.4073687E+03  0.7818608E-02  0.1041258E+00
          2   -1    0    0  501    0  0.00000000000E+00  0.00000000000E+00  0.84803878811E+03  0.84803878811E+03  0.25500000000E-02 0.  1.
         -2   -1    0    0    0  501 -0.00000000000E+00 -0.00000000000E+00 -0.48921490621E+02  0.48921490688E+02  0.25500000000E-02 0. -1.
    5000001    1    1    2    0    0 -0.86571041876E+01  0.11873376267E+03  0.42040877142E+03  0.46705587132E+03  0.16500000000E+03 0.  0.
   -5000001    1    1    2    0    0  0.86571041876E+01 -0.11873376267E+03  0.37870852607E+03  0.42990440747E+03  0.16500000000E+03 0.  0.
<mgrwt>
<rscale>  0 0.40736874E+03</rscale>
<asrwt>0</asrwt>
<pdfrwt beam="1">  1        2 0.12114840E+00 0.40736874E+03</pdfrwt>
<pdfrwt beam="2">  1       -2 0.69887842E-02 0.40736874E+03</pdfrwt>
<totfact> 0.42572347E+03</totfact>
</mgrwt>
</event>
<event>
 4    1  0.5312547E-005  0.5088100E+03  0.7818608E-02  0.1011505E+00
         -2   -1    0    0    0  501 -0.00000000000E+00  0.00000000000E+00  0.43255947526E+03  0.43255947527E+03  0.25500000000E-02 0. -1.
          2   -1    0    0  501    0  0.00000000000E+00 -0.00000000000E+00 -0.14962546188E+03  0.14962546190E+03  0.25500000000E-02 0.  1.
    5000001    1    1    2    0    0  0.13600018592E+03  0.28345327237E+02 -0.12884193358E+02  0.21607987084E+03  0.16500000000E+03 0.  0.
   -5000001    1    1    2    0    0 -0.13600018592E+03 -0.28345327237E+02  0.29581820675E+03  0.36610506632E+03  0.16500000000E+03 0.  0.
<mgrwt>
<rscale>  0 0.50881003E+03</rscale>
<asrwt>0</asrwt>
<pdfrwt beam="1">  1        2 0.21375066E-01 0.50881003E+03</pdfrwt>
<pdfrwt beam="2">  1       -2 0.61794211E-01 0.50881003E+03</pdfrwt>
<totfact> 0.64360984E+02</totfact>
</mgrwt>
</event>
<event>
 4    1  0.5312547E-005  0.5169726E+03  0.7818608E-02  0.1009441E+00
          2   -1    0    0  501    0  0.00000000000E+00  0.00000000000E+00  0.93683748343E+03  0.93683748343E+03  0.25500000000E-02 0.  1.
         -2   -1    0    0    0  501 -0.00000000000E+00 -0.00000000000E+00 -0.71319920934E+02  0.71319920980E+02  0.25500000000E-02 0. -1.
    5000001    1    1    2    0    0  0.91555797793E+02 -0.16490394134E+03  0.55631687073E+03  0.61015509064E+03  0.16500000000E+03 0.  0.
   -5000001    1    1    2    0    0 -0.91555797793E+02  0.16490394134E+03  0.30920069177E+03  0.39800231377E+03  0.16500000000E+03 0.  0.
<mgrwt>
<rscale>  0 0.51697263E+03</rscale>
<asrwt>0</asrwt>
<pdfrwt beam="1">  1        2 0.13383392E+00 0.51697263E+03</pdfrwt>
<pdfrwt beam="2">  1       -2 0.10188561E-01 0.51697263E+03</pdfrwt>
<totfact> 0.20525872E+03</totfact>
</mgrwt>
</event>
<event>
 4    1  0.5312547E-005  0.7920484E+03  0.7818608E-02  0.9571599E-01
          2   -1    0    0  501    0  0.00000000000E+00  0.00000000000E+00  0.27708155452E+04  0.27708155452E+04  0.25500000000E-02 0.  1.
         -2   -1    0    0    0  501 -0.00000000000E+00 -0.00000000000E+00 -0.56602533636E+02  0.56602533693E+02  0.25500000000E-02 0. -1.
    5000001    1    1    2    0    0  0.31929004164E+03  0.12925899765E+03  0.17307586634E+04  0.17724007928E+04  0.16500000000E+03 0.  0.
   -5000001    1    1    2    0    0 -0.31929004164E+03 -0.12925899765E+03  0.98345434813E+03  0.10550172861E+04  0.16500000000E+03 0.  0.
<mgrwt>
<rscale>  0 0.79204843E+03</rscale>
<asrwt>0</asrwt>
<pdfrwt beam="1">  1        2 0.39583074E+00 0.79204843E+03</pdfrwt>
<pdfrwt beam="2">  1       -2 0.80860773E-02 0.79204843E+03</pdfrwt>
<totfact> 0.31645131E+02</totfact>
</mgrwt>
</event>
<event>
 4    1  0.5312547E-005  0.4752700E+03  0.7818608E-02  0.1020443E+00
         -2   -1    0    0    0  501 -0.00000000000E+00  0.00000000000E+00  0.30573474499E+02  0.30573474605E+02  0.25500000000E-02 0. -1.
          2   -1    0    0  501    0  0.00000000000E+00 -0.00000000000E+00 -0.18470391366E+04  0.18470391366E+04  0.25500000000E-02 0.  1.
    5000001    1    1    2    0    0 -0.56865768930E+02  0.14377984190E+03 -0.11968999772E+04  0.12180726226E+04  0.16500000000E+03 0.  0.
   -5000001    1    1    2    0    0  0.56865768930E+02 -0.14377984190E+03 -0.61956568497E+03  0.65953998863E+03  0.16500000000E+03 0.  0.
<mgrwt>
<rscale>  0 0.47527005E+03</rscale>
<asrwt>0</asrwt>
<pdfrwt beam="1">  1        2 0.26386266E+00 0.47527005E+03</pdfrwt>
<pdfrwt beam="2">  1       -2 0.43676404E-02 0.47527005E+03</pdfrwt>
<totfact> 0.25092960E+03</totfact>
</mgrwt>
</event>
<event>
 4    1  0.5312547E-005  0.6761745E+03  0.7818608E-02  0.9758867E-01
          2   -1    0    0  501    0  0.00000000000E+00  0.00000000000E+00  0.21961052048E+04  0.21961052048E+04  0.25500000000E-02 0.  1.
         -2   -1    0    0    0  501 -0.00000000000E+00 -0.00000000000E+00 -0.52048043564E+02  0.52048043626E+02  0.25500000000E-02 0. -1.
    5000001    1    1    2    0    0 -0.20869192234E+03 -0.19658185441E+03  0.83973777406E+03  0.90254156310E+03  0.16500000000E+03 0.  0.
   -5000001    1    1    2    0    0  0.20869192234E+03  0.19658185441E+03  0.13043193872E+04  0.13456116853E+04  0.16500000000E+03 0.  0.
<mgrwt>
<rscale>  0 0.67617447E+03</rscale>
<asrwt>0</asrwt>
<pdfrwt beam="1">  1        2 0.31372932E+00 0.67617447E+03</pdfrwt>
<pdfrwt beam="2">  1       -2 0.74354346E-02 0.67617447E+03</pdfrwt>
<totfact> 0.72339731E+02</totfact>
</mgrwt>
</event>
<event>
 4    1  0.5312547E-005  0.4830730E+03  0.7818608E-02  0.1018294E+00
          2   -1    0    0  501    0  0.00000000000E+00  0.00000000000E+00  0.53956285256E+03  0.53956285257E+03  0.25500000000E-02 0.  1.
         -2   -1    0    0    0  501 -0.00000000000E+00 -0.00000000000E+00 -0.10812434255E+03  0.10812434258E+03  0.25500000000E-02 0. -1.
    5000001    1    1    2    0    0  0.13807063028E+03  0.10957917580E+03  0.22459102461E+03  0.32975327603E+03  0.16500000000E+03 0.  0.
   -5000001    1    1    2    0    0 -0.13807063028E+03 -0.10957917580E+03  0.20684748539E+03  0.31793391912E+03  0.16500000000E+03 0.  0.
<mgrwt>
<rscale>  0 0.48307299E+03</rscale>
<asrwt>0</asrwt>
<pdfrwt beam="1">  1        2 0.77080407E-01 0.48307299E+03</pdfrwt>
<pdfrwt beam="2">  1       -2 0.15446335E-01 0.48307299E+03</pdfrwt>
<totfact> 0.20387409E+03</totfact>
</mgrwt>
</event>
<event>
 4    1  0.5312547E-005  0.4561909E+03  0.7818608E-02  0.1025892E+00
          2   -1    0    0  501    0  0.00000000000E+00  0.00000000000E+00  0.17370281596E+04  0.17370281596E+04  0.25500000000E-02 0.  1.
         -2   -1    0    0    0  501 -0.00000000000E+00 -0.00000000000E+00 -0.29952039321E+02  0.29952039430E+02  0.25500000000E-02 0. -1.
    5000001    1    1    2    0    0 -0.67671609521E+02  0.10446992054E+03  0.12272521611E+04  0.12445345628E+04  0.16500000000E+03 0.  0.
   -5000001    1    1    2    0    0  0.67671609521E+02 -0.10446992054E+03  0.47982395914E+03  0.52244563621E+03  0.16500000000E+03 0.  0.
<mgrwt>
<rscale>  0 0.45619091E+03</rscale>
<asrwt>0</asrwt>
<pdfrwt beam="1">  1        2 0.24814687E+00 0.45619091E+03</pdfrwt>
<pdfrwt beam="2">  1       -2 0.42788629E-02 0.45619091E+03</pdfrwt>
<totfact> 0.29410570E+03</totfact>
</mgrwt>
</event>
<event>
 4    1  0.5312547E-005  0.4579435E+03  0.7818608E-02  0.1025379E+00
         -2   -1    0    0    0  501 -0.00000000000E+00  0.00000000000E+00  0.87742303949E+02  0.87742303986E+02  0.25500000000E-02 0. -1.
          2   -1    0    0  501    0  0.00000000000E+00 -0.00000000000E+00 -0.59752331088E+03  0.59752331089E+03  0.25500000000E-02 0.  1.
    5000001    1    1    2    0    0  0.15525489989E+03 -0.29486407327E+02 -0.27756178230E+03  0.35949836599E+03  0.16500000000E+03 0.  0.
   -5000001    1    1    2    0    0 -0.15525489989E+03  0.29486407327E+02 -0.23221922464E+03  0.32576724889E+03  0.16500000000E+03 0.  0.
<mgrwt>
<rscale>  0 0.45794354E+03</rscale>
<asrwt>0</asrwt>
<pdfrwt beam="1">  1        2 0.85360471E-01 0.45794354E+03</pdfrwt>
<pdfrwt beam="2">  1       -2 0.12534615E-01 0.45794354E+03</pdfrwt>
<totfact> 0.25630850E+03</totfact>
</mgrwt>
</event>
<event>
 4    1  0.5312547E-005  0.8713587E+03  0.7818608E-02  0.9462110E-01
         -2   -1    0    0    0  501 -0.00000000000E+00  0.00000000000E+00  0.21453231513E+04  0.21453231513E+04  0.25500000000E-02 0.  1.
          2   -1    0    0  501    0  0.00000000000E+00 -0.00000000000E+00 -0.88479218644E+02  0.88479218681E+02  0.25500000000E-02 0. -1.
    5000001    1    1    2    0    0  0.19735351708E+03  0.28283863742E+03  0.15639929563E+04  0.16100450530E+04  0.16500000000E+03 0.  0.
   -5000001    1    1    2    0    0 -0.19735351708E+03 -0.28283863742E+03  0.49285097634E+03  0.62375731691E+03  0.16500000000E+03 0.  0.
<mgrwt>
<rscale>  0 0.87135875E+03</rscale>
<asrwt>0</asrwt>
<pdfrwt beam="1">  1        2 0.12639887E-01 0.87135875E+03</pdfrwt>
<pdfrwt beam="2">  1       -2 0.30647477E+00 0.87135875E+03</pdfrwt>
<totfact> 0.14797778E+01</totfact>
</mgrwt>
</event>
<event>
 4    1  0.5312547E-005  0.3583736E+03  0.7818608E-02  0.1059230E+00
          2   -1    0    0  501    0  0.00000000000E+00  0.00000000000E+00  0.21859573096E+03  0.21859573097E+03  0.25500000000E-02 0.  1.
         -2   -1    0    0    0  501 -0.00000000000E+00 -0.00000000000E+00 -0.14688259626E+03  0.14688259629E+03  0.25500000000E-02 0. -1.
    5000001    1    1    2    0    0 -0.63561363588E+02 -0.20065344640E+02  0.14458620543E+02  0.17854051838E+03  0.16500000000E+03 0.  0.
   -5000001    1    1    2    0    0  0.63561363588E+02  0.20065344640E+02  0.57254514151E+02  0.18693780888E+03  0.16500000000E+03 0.  0.
<mgrwt>
<rscale>  0 0.35837360E+03</rscale>
<asrwt>0</asrwt>
<pdfrwt beam="1">  1        2 0.31227961E-01 0.35837360E+03</pdfrwt>
<pdfrwt beam="2">  1       -2 0.20983228E-01 0.35837360E+03</pdfrwt>
<totfact> 0.32599633E+03</totfact>
</mgrwt>
</event>
<event>
 4    1  0.5312547E-005  0.8553730E+03  0.7818608E-02  0.9483154E-01
          2   -1    0    0  501    0  0.00000000000E+00  0.00000000000E+00  0.32789965258E+04  0.32789965258E+04  0.25500000000E-02 0.  1.
         -2   -1    0    0    0  501 -0.00000000000E+00 -0.00000000000E+00 -0.55784060820E+02  0.55784060878E+02  0.25500000000E-02 0. -1.
    5000001    1    1    2    0    0  0.13930483379E+03 -0.36864905856E+03  0.16878816220E+04  0.17411138202E+04  0.16500000000E+03 0.  0.
   -5000001    1    1    2    0    0 -0.13930483379E+03  0.36864905856E+03  0.15353308430E+04  0.15936667665E+04  0.16500000000E+03 0.  0.
<mgrwt>
<rscale>  0 0.85537300E+03</rscale>
<asrwt>0</asrwt>
<pdfrwt beam="1">  1        2 0.46842805E+00 0.85537300E+03</pdfrwt>
<pdfrwt beam="2">  1       -2 0.79691519E-02 0.85537300E+03</pdfrwt>
<totfact> 0.16878852E+02</totfact>
</mgrwt>
</event>
<event>
 4    1  0.5312547E-005  0.3621809E+03  0.7818608E-02  0.1057724E+00
         -2   -1    0    0    0  501 -0.00000000000E+00  0.00000000000E+00  0.84685740294E+01  0.84685744134E+01  0.25500000000E-02 0. -1.
          2   -1    0    0  501    0  0.00000000000E+00 -0.00000000000E+00 -0.38724053803E+04  0.38724053803E+04  0.25500000000E-02 0.  1.
    5000001    1    1    2    0    0  0.28493455432E+02  0.59299126274E+02 -0.23093671421E+04  0.23161886496E+04  0.16500000000E+03 0.  0.
   -5000001    1    1    2    0    0 -0.28493455432E+02 -0.59299126274E+02 -0.15545696642E+04  0.15646853051E+04  0.16500000000E+03 0.  0.
<mgrwt>
<rscale>  0 0.36218091E+03</rscale>
<asrwt>0</asrwt>
<pdfrwt beam="1">  1        2 0.55319964E+00 0.36218091E+03</pdfrwt>
<pdfrwt beam="2">  1       -2 0.12097988E-02 0.36218091E+03</pdfrwt>
<totfact> 0.13926302E+03</totfact>
</mgrwt>
</event>
<event>
 4    1  0.5312547E-005  0.1366364E+04  0.7818608E-02  0.8978532E-01
         -2   -1    0    0    0  501 -0.00000000000E+00  0.00000000000E+00  0.35792590399E+03  0.35792590400E+03  0.25500000000E-02 0. -1.
          2   -1    0    0  501    0  0.00000000000E+00 -0.00000000000E+00 -0.13040065893E+04  0.13040065893E+04  0.25500000000E-02 0.  1.
    5000001    1    1    2    0    0 -0.58767877850E+03 -0.18096591641E+03 -0.17165434281E+03  0.65939762132E+03  0.16500000000E+03 0.  0.
   -5000001    1    1    2    0    0  0.58767877850E+03  0.18096591641E+03 -0.77442634253E+03  0.10025348720E+04  0.16500000000E+03 0.  0.
<mgrwt>
<rscale>  0 0.13663641E+04</rscale>
<asrwt>0</asrwt>
<pdfrwt beam="1">  1        2 0.18628665E+00 0.13663641E+04</pdfrwt>
<pdfrwt beam="2">  1       -2 0.51132273E-01 0.13663641E+04</pdfrwt>
<totfact> 0.65914275E+01</totfact>
</mgrwt>
</event>
<event>
 4    1  0.5312547E-005  0.1253271E+04  0.7818608E-02  0.9067465E-01
         -2   -1    0    0    0  501 -0.00000000000E+00  0.00000000000E+00  0.18245603139E+03  0.18245603140E+03  0.25500000000E-02 0. -1.
          2   -1    0    0  501    0  0.00000000000E+00 -0.00000000000E+00 -0.21521455468E+04  0.21521455468E+04  0.25500000000E-02 0.  1.
    5000001    1    1    2    0    0  0.54771906337E+02 -0.60106472690E+03 -0.10485126489E+04  0.12210170116E+04  0.16500000000E+03 0.  0.
   -5000001    1    1    2    0    0 -0.54771906337E+02  0.60106472690E+03 -0.92117686655E+03  0.11135845667E+04  0.16500000000E+03 0.  0.
<mgrwt>
<rscale>  0 0.12532708E+04</rscale>
<asrwt>0</asrwt>
<pdfrwt beam="1">  1        2 0.30744935E+00 0.12532708E+04</pdfrwt>
<pdfrwt beam="2">  1       -2 0.26065149E-01 0.12532708E+04</pdfrwt>
<totfact> 0.87658748E+01</totfact>
</mgrwt>
</event>
<event>
 4    1  0.5312547E-005  0.1195585E+04  0.7818608E-02  0.9116730E-01
          2   -1    0    0  501    0  0.00000000000E+00  0.00000000000E+00  0.27228204454E+04  0.27228204454E+04  0.25500000000E-02 0.  1.
         -2   -1    0    0    0  501 -0.00000000000E+00 -0.00000000000E+00 -0.13124468026E+03  0.13124468029E+03  0.25500000000E-02 0. -1.
    5000001    1    1    2    0    0 -0.20954714818E+03  0.16479741707E+03  0.25108145377E+04  0.25303127947E+04  0.16500000000E+03 0.  0.
   -5000001    1    1    2    0    0  0.20954714818E+03 -0.16479741707E+03  0.80761227393E+02  0.32375233101E+03  0.16500000000E+03 0.  0.
<mgrwt>
<rscale>  0 0.11955847E+04</rscale>
<asrwt>0</asrwt>
<pdfrwt beam="1">  1        2 0.38897434E+00 0.11955847E+04</pdfrwt>
<pdfrwt beam="2">  1       -2 0.18749240E-01 0.11955847E+04</pdfrwt>
<totfact> 0.79779714E+01</totfact>
</mgrwt>
</event>
<event>
 4    1  0.5312547E-005  0.6321264E+03  0.7818608E-02  0.9840908E-01
          2   -1    0    0  501    0  0.00000000000E+00  0.00000000000E+00  0.42042049684E+03  0.42042049685E+03  0.25500000000E-02 0.  1.
         -2   -1    0    0    0  501 -0.00000000000E+00 -0.00000000000E+00 -0.23760962251E+03  0.23760962252E+03  0.25500000000E-02 0. -1.
    5000001    1    1    2    0    0 -0.19276058094E+03  0.98870837082E+02 -0.75602293814E+02  0.28261774683E+03  0.16500000000E+03 0.  0.
   -5000001    1    1    2    0    0  0.19276058094E+03 -0.98870837082E+02  0.25841316814E+03  0.37541237255E+03  0.16500000000E+03 0.  0.
<mgrwt>
<rscale>  0 0.63212643E+03</rscale>
<asrwt>0</asrwt>
<pdfrwt beam="1">  1        2 0.60060071E-01 0.63212643E+03</pdfrwt>
<pdfrwt beam="2">  1       -2 0.33944232E-01 0.63212643E+03</pdfrwt>
<totfact> 0.66751465E+02</totfact>
</mgrwt>
</event>
<event>
 4    1  0.5312547E-005  0.5018988E+03  0.7818608E-02  0.1013284E+00
          2   -1    0    0  501    0  0.00000000000E+00  0.00000000000E+00  0.24552422835E+03  0.24552422836E+03  0.25500000000E-02 0.  1.
         -2   -1    0    0    0  501 -0.00000000000E+00 -0.00000000000E+00 -0.25649441843E+03  0.25649441844E+03  0.25500000000E-02 0. -1.
    5000001    1    1    2    0    0 -0.15203928274E+03 -0.10813287481E+03  0.25213146904E+02  0.25033850061E+03  0.16500000000E+03 0.  0.
   -5000001    1    1    2    0    0  0.15203928274E+03  0.10813287481E+03 -0.36183336986E+02  0.25168014619E+03  0.16500000000E+03 0.  0.
<mgrwt>
<rscale>  0 0.50189877E+03</rscale>
<asrwt>0</asrwt>
<pdfrwt beam="1">  1        2 0.35074890E-01 0.50189877E+03</pdfrwt>
<pdfrwt beam="2">  1       -2 0.36642059E-01 0.50189877E+03</pdfrwt>
<totfact> 0.10475183E+03</totfact>
</mgrwt>
</event>
<event>
 4    1  0.5312547E-005  0.3821658E+03  0.7818608E-02  0.1050136E+00
         -2   -1    0    0    0  501 -0.00000000000E+00  0.00000000000E+00  0.27962690709E+02  0.27962690826E+02  0.25500000000E-02 0. -1.
          2   -1    0    0  501    0  0.00000000000E+00 -0.00000000000E+00 -0.13057642323E+04  0.13057642323E+04  0.25500000000E-02 0.  1.
    5000001    1    1    2    0    0 -0.47830694751E+02 -0.39469073645E+02 -0.89635394447E+03  0.91352119674E+03  0.16500000000E+03 0.  0.
   -5000001    1    1    2    0    0  0.47830694751E+02  0.39469073645E+02 -0.38144759710E+03  0.42020572636E+03  0.16500000000E+03 0.  0.
<mgrwt>
<rscale>  0 0.38216584E+03</rscale>
<asrwt>0</asrwt>
<pdfrwt beam="1">  1        2 0.18653771E+00 0.38216584E+03</pdfrwt>
<pdfrwt beam="2">  1       -2 0.39946709E-02 0.38216584E+03</pdfrwt>
<totfact> 0.54409687E+03</totfact>
</mgrwt>
</event>
<event>
 4    1  0.5312547E-005  0.4873173E+03  0.7818608E-02  0.1017143E+00
         -2   -1    0    0    0  501 -0.00000000000E+00  0.00000000000E+00  0.64410152876E+02  0.64410152927E+02  0.25500000000E-02 0. -1.
          2   -1    0    0  501    0  0.00000000000E+00 -0.00000000000E+00 -0.92174185951E+03  0.92174185951E+03  0.25500000000E-02 0.  1.
    5000001    1    1    2    0    0  0.75512273792E+02 -0.16140018201E+03 -0.38857889421E+03  0.45822557684E+03  0.16500000000E+03 0.  0.
   -5000001    1    1    2    0    0 -0.75512273792E+02  0.16140018201E+03 -0.46875281242E+03  0.52792643560E+03  0.16500000000E+03 0.  0.
<mgrwt>
<rscale>  0 0.48731729E+03</rscale>
<asrwt>0</asrwt>
<pdfrwt beam="1">  1        2 0.13167740E+00 0.48731729E+03</pdfrwt>
<pdfrwt beam="2">  1       -2 0.92014510E-02 0.48731729E+03</pdfrwt>
<totfact> 0.24721815E+03</totfact>
</mgrwt>
</event>
<event>
 4    1  0.5312547E-005  0.5492437E+03  0.7818608E-02  0.1001669E+00
         -2   -1    0    0    0  501 -0.00000000000E+00  0.00000000000E+00  0.65421360336E+02  0.65421360386E+02  0.25500000000E-02 0. -1.
          2   -1    0    0  501    0  0.00000000000E+00 -0.00000000000E+00 -0.11527912197E+04  0.11527912197E+04  0.25500000000E-02 0.  1.
    5000001    1    1    2    0    0  0.69594221399E+02  0.17296085374E+03 -0.80075425111E+03  0.83856495470E+03  0.16500000000E+03 0.  0.
   -5000001    1    1    2    0    0 -0.69594221399E+02 -0.17296085374E+03 -0.28661560829E+03  0.37964762543E+03  0.16500000000E+03 0.  0.
<mgrwt>
<rscale>  0 0.54924373E+03</rscale>
<asrwt>0</asrwt>
<pdfrwt beam="1">  1        2 0.16468445E+00 0.54924373E+03</pdfrwt>
<pdfrwt beam="2">  1       -2 0.93459093E-02 0.54924373E+03</pdfrwt>
<totfact> 0.17545396E+03</totfact>
</mgrwt>
</event>
<event>
 4    1  0.5312547E-005  0.4417030E+03  0.7818608E-02  0.1030226E+00
         -2   -1    0    0    0  501 -0.00000000000E+00  0.00000000000E+00  0.15294299157E+02  0.15294299370E+02  0.25500000000E-02 0. -1.
          2   -1    0    0  501    0  0.00000000000E+00 -0.00000000000E+00 -0.31891217932E+04  0.31891217932E+04  0.25500000000E-02 0.  1.
    5000001    1    1    2    0    0 -0.11998824383E+03  0.80118324877E+02 -0.13903320669E+04  0.14075028884E+04  0.16500000000E+03 0.  0.
   -5000001    1    1    2    0    0  0.11998824383E+03 -0.80118324877E+02 -0.17834954272E+04  0.17969132042E+04  0.16500000000E+03 0.  0.
<mgrwt>
<rscale>  0 0.44170299E+03</rscale>
<asrwt>0</asrwt>
<pdfrwt beam="1">  1        2 0.45558840E+00 0.44170299E+03</pdfrwt>
<pdfrwt beam="2">  1       -2 0.21849019E-02 0.44170299E+03</pdfrwt>
<totfact> 0.14590317E+03</totfact>
</mgrwt>
</event>
<event>
 4    1  0.5312547E-005  0.7958409E+03  0.7818608E-02  0.9566057E-01
          2   -1    0    0  501    0  0.00000000000E+00  0.00000000000E+00  0.13427681968E+04  0.13427681968E+04  0.25500000000E-02 0.  1.
         -2   -1    0    0    0  501 -0.00000000000E+00 -0.00000000000E+00 -0.11792107658E+03  0.11792107660E+03  0.25500000000E-02 0. -1.
    5000001    1    1    2    0    0 -0.74075222845E+01 -0.32150778146E+03  0.30698709069E+03  0.47422378555E+03  0.16500000000E+03 0.  0.
   -5000001    1    1    2    0    0  0.74075222845E+01  0.32150778146E+03  0.91786002951E+03  0.98646548784E+03  0.16500000000E+03 0.  0.
<mgrwt>
<rscale>  0 0.79584087E+03</rscale>
<asrwt>0</asrwt>
<pdfrwt beam="1">  1        2 0.19182403E+00 0.79584087E+03</pdfrwt>
<pdfrwt beam="2">  1       -2 0.16845868E-01 0.79584087E+03</pdfrwt>
<totfact> 0.51380088E+02</totfact>
</mgrwt>
</event>
<event>
 4    1  0.5312547E-005  0.3888079E+03  0.7818608E-02  0.1047726E+00
         -2   -1    0    0    0  501 -0.00000000000E+00  0.00000000000E+00  0.71578535856E+02  0.71578535901E+02  0.25500000000E-02 0. -1.
          2   -1    0    0  501    0  0.00000000000E+00 -0.00000000000E+00 -0.52799192548E+03  0.52799192548E+03  0.25500000000E-02 0.  1.
    5000001    1    1    2    0    0 -0.22416712528E+02 -0.58503350956E+02 -0.10252305601E+03  0.20411057809E+03  0.16500000000E+03 0.  0.
   -5000001    1    1    2    0    0  0.22416712528E+02  0.58503350956E+02 -0.35389033361E+03  0.39545988330E+03  0.16500000000E+03 0.  0.
<mgrwt>
<rscale>  0 0.38880787E+03</rscale>
<asrwt>0</asrwt>
<pdfrwt beam="1">  1        2 0.75427416E-01 0.38880787E+03</pdfrwt>
<pdfrwt beam="2">  1       -2 0.10225505E-01 0.38880787E+03</pdfrwt>
<totfact> 0.41020055E+03</totfact>
</mgrwt>
</event>
<event>
 4    1  0.5312547E-005  0.4273497E+03  0.7818608E-02  0.1034700E+00
         -2   -1    0    0    0  501 -0.00000000000E+00  0.00000000000E+00  0.51491677953E+02  0.51491678016E+02  0.25500000000E-02 0. -1.
          2   -1    0    0  501    0  0.00000000000E+00 -0.00000000000E+00 -0.88668597407E+03  0.88668597407E+03  0.25500000000E-02 0.  1.
    5000001    1    1    2    0    0 -0.12442734578E+01  0.10322124486E+03 -0.61118294480E+03  0.64142479343E+03  0.16500000000E+03 0.  0.
   -5000001    1    1    2    0    0  0.12442734578E+01 -0.10322124486E+03 -0.22401135131E+03  0.29675285866E+03  0.16500000000E+03 0.  0.
<mgrwt>
<rscale>  0 0.42734973E+03</rscale>
<asrwt>0</asrwt>
<pdfrwt beam="1">  1        2 0.12666942E+00 0.42734973E+03</pdfrwt>
<pdfrwt beam="2">  1       -2 0.73559545E-02 0.42734973E+03</pdfrwt>
<totfact> 0.37097050E+03</totfact>
</mgrwt>
</event>
<event>
 4    1  0.5312547E-005  0.4992364E+03  0.7818608E-02  0.1013978E+00
          2   -1    0    0  501    0  0.00000000000E+00  0.00000000000E+00  0.34035008295E+03  0.34035008296E+03  0.25500000000E-02 0.  1.
         -2   -1    0    0    0  501 -0.00000000000E+00 -0.00000000000E+00 -0.18307399357E+03  0.18307399359E+03  0.25500000000E-02 0. -1.
    5000001    1    1    2    0    0  0.92350853526E+02 -0.16257506960E+03  0.66919987455E+02  0.25819104966E+03  0.16500000000E+03 0.  0.
   -5000001    1    1    2    0    0 -0.92350853526E+02  0.16257506960E+03  0.90356101923E+02  0.26523302690E+03  0.16500000000E+03 0.  0.
<mgrwt>
<rscale>  0 0.49923641E+03</rscale>
<asrwt>0</asrwt>
<pdfrwt beam="1">  1        2 0.48621441E-01 0.49923641E+03</pdfrwt>
<pdfrwt beam="2">  1       -2 0.26153428E-01 0.49923641E+03</pdfrwt>
<totfact> 0.13650610E+03</totfact>
</mgrwt>
</event>
<event>
 4    1  0.5312547E-005  0.3779801E+03  0.7818608E-02  0.1051683E+00
         -2   -1    0    0    0  501 -0.00000000000E+00  0.00000000000E+00  0.54260210060E+02  0.54260210120E+02  0.25500000000E-02 0. -1.
          2   -1    0    0  501    0  0.00000000000E+00 -0.00000000000E+00 -0.65825855549E+03  0.65825855549E+03  0.25500000000E-02 0.  1.
    5000001    1    1    2    0    0  0.68384591574E+02  0.55586926807E+02 -0.25121102855E+03  0.31320654473E+03  0.16500000000E+03 0.  0.
   -5000001    1    1    2    0    0 -0.68384591574E+02 -0.55586926807E+02 -0.35278731688E+03  0.39931222088E+03  0.16500000000E+03 0.  0.
<mgrwt>
<rscale>  0 0.37798015E+03</rscale>
<asrwt>0</asrwt>
<pdfrwt beam="1">  1        2 0.94036932E-01 0.37798015E+03</pdfrwt>
<pdfrwt beam="2">  1       -2 0.77514590E-02 0.37798015E+03</pdfrwt>
<totfact> 0.49358160E+03</totfact>
</mgrwt>
</event>
<event>
 4    1  0.5312547E-005  0.3892502E+03  0.7818608E-02  0.1047567E+00
         -2   -1    0    0    0  501 -0.00000000000E+00  0.00000000000E+00  0.21994473246E+02  0.21994473393E+02  0.25500000000E-02 0. -1.
          2   -1    0    0  501    0  0.00000000000E+00 -0.00000000000E+00 -0.17222021084E+04  0.17222021084E+04  0.25500000000E-02 0.  1.
    5000001    1    1    2    0    0 -0.33084879776E+02  0.64986654802E+02 -0.11774269448E+04  0.11911662709E+04  0.16500000000E+03 0.  0.
   -5000001    1    1    2    0    0  0.33084879776E+02 -0.64986654802E+02 -0.52278069040E+03  0.55303031095E+03  0.16500000000E+03 0.  0.
<mgrwt>
<rscale>  0 0.38925019E+03</rscale>
<asrwt>0</asrwt>
<pdfrwt beam="1">  1        2 0.24602879E+00 0.38925019E+03</pdfrwt>
<pdfrwt beam="2">  1       -2 0.31420687E-02 0.38925019E+03</pdfrwt>
<totfact> 0.47837449E+03</totfact>
</mgrwt>
</event>
<event>
 4    1  0.5312547E-005  0.1379384E+04  0.7818608E-02  0.8968878E-01
          2   -1    0    0  501    0  0.00000000000E+00  0.00000000000E+00  0.59929040690E+03  0.59929040690E+03  0.25500000000E-02 0.  1.
         -2   -1    0    0    0  501 -0.00000000000E+00 -0.00000000000E+00 -0.79373092143E+03  0.79373092144E+03  0.25500000000E-02 0. -1.
    5000001    1    1    2    0    0  0.43057578795E+03 -0.27714752799E+03  0.33860628846E+03  0.63567718224E+03  0.16500000000E+03 0.  0.
   -5000001    1    1    2    0    0 -0.43057578795E+03  0.27714752799E+03 -0.53304680300E+03  0.75734414610E+03  0.16500000000E+03 0.  0.
<mgrwt>
<rscale>  0 0.13793844E+04</rscale>
<asrwt>0</asrwt>
<pdfrwt beam="1">  1        2 0.85612915E-01 0.13793844E+04</pdfrwt>
<pdfrwt beam="2">  1       -2 0.11339013E+00 0.13793844E+04</pdfrwt>
<totfact> 0.32375551E+01</totfact>
</mgrwt>
</event>
<event>
 4    1  0.5312547E-005  0.3728262E+03  0.7818608E-02  0.1053618E+00
         -2   -1    0    0    0  501 -0.00000000000E+00  0.00000000000E+00  0.36795694133E+02  0.36795694221E+02  0.25500000000E-02 0. -1.
          2   -1    0    0  501    0  0.00000000000E+00 -0.00000000000E+00 -0.94439956950E+03  0.94439956950E+03  0.25500000000E-02 0.  1.
    5000001    1    1    2    0    0  0.35226504940E+02 -0.78868962999E+02 -0.47479318630E+03  0.51001449953E+03  0.16500000000E+03 0.  0.
   -5000001    1    1    2    0    0 -0.35226504940E+02  0.78868962999E+02 -0.43281068907E+03  0.47118076419E+03  0.16500000000E+03 0.  0.
<mgrwt>
<rscale>  0 0.37282617E+03</rscale>
<asrwt>0</asrwt>
<pdfrwt beam="1">  1        2 0.13491421E+00 0.37282617E+03</pdfrwt>
<pdfrwt beam="2">  1       -2 0.52565283E-02 0.37282617E+03</pdfrwt>
<totfact> 0.57400041E+03</totfact>
</mgrwt>
</event>
<event>
 4    1  0.5312547E-005  0.4682974E+03  0.7818608E-02  0.1022402E+00
          2   -1    0    0  501    0  0.00000000000E+00  0.00000000000E+00  0.12983608289E+03  0.12983608291E+03  0.25500000000E-02 0.  1.
         -2   -1    0    0    0  501 -0.00000000000E+00 -0.00000000000E+00 -0.42226794107E+03  0.42226794108E+03  0.25500000000E-02 0. -1.
    5000001    1    1    2    0    0  0.29775507598E+02 -0.95478167235E+02  0.10181730560E+02  0.19321316960E+03  0.16500000000E+03 0.  0.
   -5000001    1    1    2    0    0 -0.29775507598E+02  0.95478167235E+02 -0.30261358874E+03  0.35889085439E+03  0.16500000000E+03 0.  0.
<mgrwt>
<rscale>  0 0.46829741E+03</rscale>
<asrwt>0</asrwt>
<pdfrwt beam="1">  1        2 0.18548012E-01 0.46829741E+03</pdfrwt>
<pdfrwt beam="2">  1       -2 0.60323991E-01 0.46829741E+03</pdfrwt>
<totfact> 0.79877863E+02</totfact>
</mgrwt>
</event>
<event>
 4    1  0.5312547E-005  0.9958921E+03  0.7818608E-02  0.9313062E-01
         -2   -1    0    0    0  501 -0.00000000000E+00  0.00000000000E+00  0.10551381471E+03  0.10551381474E+03  0.25500000000E-02 0. -1.
          2   -1    0    0  501    0  0.00000000000E+00 -0.00000000000E+00 -0.23499319430E+04  0.23499319430E+04  0.25500000000E-02 0.  1.
    5000001    1    1    2    0    0  0.26137119593E+03  0.26881974047E+03 -0.18202161975E+04  0.18657413971E+04  0.16500000000E+03 0.  0.
   -5000001    1    1    2    0    0 -0.26137119593E+03 -0.26881974047E+03 -0.42420193071E+03  0.58970436063E+03  0.16500000000E+03 0.  0.
<mgrwt>
<rscale>  0 0.99589213E+03</rscale>
<asrwt>0</asrwt>
<pdfrwt beam="1">  1        2 0.33570453E+00 0.99589213E+03</pdfrwt>
<pdfrwt beam="2">  1       -2 0.15073404E-01 0.99589213E+03</pdfrwt>
<totfact> 0.18510483E+02</totfact>
</mgrwt>
</event>
<event>
 4    1  0.5312547E-005  0.4996112E+03  0.7818608E-02  0.1013880E+00
          2   -1    0    0  501    0  0.00000000000E+00  0.00000000000E+00  0.41637723688E+03  0.41637723689E+03  0.25500000000E-02 0.  1.
         -2   -1    0    0    0  501 -0.00000000000E+00 -0.00000000000E+00 -0.14987089601E+03  0.14987089603E+03  0.25500000000E-02 0. -1.
    5000001    1    1    2    0    0  0.14794077484E+03  0.10131485648E+03  0.19560600753E+03  0.31247061171E+03  0.16500000000E+03 0.  0.
   -5000001    1    1    2    0    0 -0.14794077484E+03 -0.10131485648E+03  0.70900333342E+02  0.25377752121E+03  0.16500000000E+03 0.  0.
<mgrwt>
<rscale>  0 0.49961117E+03</rscale>
<asrwt>0</asrwt>
<pdfrwt beam="1">  1        2 0.59482463E-01 0.49961117E+03</pdfrwt>
<pdfrwt beam="2">  1       -2 0.21410128E-01 0.49961117E+03</pdfrwt>
<totfact> 0.15590516E+03</totfact>
</mgrwt>
</event>
<event>
 4    1  0.5312547E-005  0.1016225E+04  0.7818608E-02  0.9290926E-01
          2   -1    0    0  501    0  0.00000000000E+00  0.00000000000E+00  0.45809331920E+03  0.45809331921E+03  0.25500000000E-02 0.  1.
         -2   -1    0    0    0  501 -0.00000000000E+00 -0.00000000000E+00 -0.56359381730E+03  0.56359381731E+03  0.25500000000E-02 0. -1.
    5000001    1    1    2    0    0 -0.14112913686E+03  0.38501748615E+03  0.19919117913E+03  0.48482782898E+03  0.16500000000E+03 0.  0.
   -5000001    1    1    2    0    0  0.14112913686E+03 -0.38501748615E+03 -0.30469167723E+03  0.53685930754E+03  0.16500000000E+03 0.  0.
<mgrwt>
<rscale>  0 0.10162255E+04</rscale>
<asrwt>0</asrwt>
<pdfrwt beam="1">  1        2 0.65441903E-01 0.10162255E+04</pdfrwt>
<pdfrwt beam="2">  1       -2 0.80513402E-01 0.10162255E+04</pdfrwt>
<totfact> 0.10096154E+02</totfact>
</mgrwt>
</event>
<event>
 4    1  0.5312547E-005  0.4059765E+03  0.7818608E-02  0.1041730E+00
         -2   -1    0    0    0  501 -0.00000000000E+00  0.00000000000E+00  0.35201701382E+02  0.35201701474E+02  0.25500000000E-02 0. -1.
          2   -1    0    0  501    0  0.00000000000E+00 -0.00000000000E+00 -0.11705183160E+04  0.11705183160E+04  0.25500000000E-02 0.  1.
    5000001    1    1    2    0    0 -0.89895161199E+02  0.68517835231E+02 -0.67068529475E+03  0.69987112981E+03  0.16500000000E+03 0.  0.
   -5000001    1    1    2    0    0  0.89895161199E+02 -0.68517835231E+02 -0.46463131991E+03  0.50584888771E+03  0.16500000000E+03 0.  0.
<mgrwt>
<rscale>  0 0.40597653E+03</rscale>
<asrwt>0</asrwt>
<pdfrwt beam="1">  1        2 0.16721688E+00 0.40597653E+03</pdfrwt>
<pdfrwt beam="2">  1       -2 0.50288152E-02 0.40597653E+03</pdfrwt>
<totfact> 0.45384071E+03</totfact>
</mgrwt>
</event>
<event>
 4    1  0.5312547E-005  0.8916389E+03  0.7818608E-02  0.9436094E-01
         -2   -1    0    0    0  501 -0.00000000000E+00  0.00000000000E+00  0.26929098693E+03  0.26929098694E+03  0.25500000000E-02 0. -1.
          2   -1    0    0  501    0  0.00000000000E+00 -0.00000000000E+00 -0.73806774619E+03  0.73806774620E+03  0.25500000000E-02 0.  1.
    5000001    1    1    2    0    0  0.26274695443E+03  0.24929721932E+03 -0.74595881405E+01  0.39807751893E+03  0.16500000000E+03 0.  0.
   -5000001    1    1    2    0    0 -0.26274695443E+03 -0.24929721932E+03 -0.46131717112E+03  0.60928121421E+03  0.16500000000E+03 0.  0.
<mgrwt>
<rscale>  0 0.89163892E+03</rscale>
<asrwt>0</asrwt>
<pdfrwt beam="1">  1        2 0.10543825E+00 0.89163892E+03</pdfrwt>
<pdfrwt beam="2">  1       -2 0.38470141E-01 0.89163892E+03</pdfrwt>
<totfact> 0.26926327E+02</totfact>
</mgrwt>
</event>
<event>
 4    1  0.5312547E-005  0.4381419E+03  0.7818608E-02  0.1031318E+00
         -2   -1    0    0    0  501 -0.00000000000E+00  0.00000000000E+00  0.35880400328E+03  0.35880400329E+03  0.25500000000E-02 0. -1.
          2   -1    0    0  501    0  0.00000000000E+00 -0.00000000000E+00 -0.13375567197E+03  0.13375567199E+03  0.25500000000E-02 0.  1.
    5000001    1    1    2    0    0  0.86846703961E+02  0.94229717661E+02  0.38416516436E+02  0.21242038135E+03  0.16500000000E+03 0.  0.
   -5000001    1    1    2    0    0 -0.86846703961E+02 -0.94229717661E+02  0.18663181487E+03  0.28013929393E+03  0.16500000000E+03 0.  0.
<mgrwt>
<rscale>  0 0.43814185E+03</rscale>
<asrwt>0</asrwt>
<pdfrwt beam="1">  1        2 0.19107953E-01 0.43814185E+03</pdfrwt>
<pdfrwt beam="2">  1       -2 0.51257715E-01 0.43814185E+03</pdfrwt>
<totfact> 0.10786253E+03</totfact>
</mgrwt>
</event>
<event>
 4    1  0.5312547E-005  0.7045413E+03  0.7818608E-02  0.9709497E-01
          2   -1    0    0  501    0  0.00000000000E+00  0.00000000000E+00  0.98761149577E+03  0.98761149577E+03  0.25500000000E-02 0.  1.
         -2   -1    0    0    0  501 -0.00000000000E+00 -0.00000000000E+00 -0.12565124583E+03  0.12565124586E+03  0.25500000000E-02 0. -1.
    5000001    1    1    2    0    0 -0.30609051757E+03 -0.56366953611E+02  0.43254153321E+03  0.55784031438E+03  0.16500000000E+03 0.  0.
   -5000001    1    1    2    0    0  0.30609051757E+03  0.56366953611E+02  0.42941871673E+03  0.55542242724E+03  0.16500000000E+03 0.  0.
<mgrwt>
<rscale>  0 0.70454131E+03</rscale>
<asrwt>0</asrwt>
<pdfrwt beam="1">  1        2 0.14108735E+00 0.70454131E+03</pdfrwt>
<pdfrwt beam="2">  1       -2 0.17950178E-01 0.70454131E+03</pdfrwt>
<totfact> 0.73961157E+02</totfact>
</mgrwt>
</event>
<event>
 4    1  0.5312547E-005  0.6765284E+03  0.7818608E-02  0.9758236E-01
         -2   -1    0    0    0  501 -0.00000000000E+00  0.00000000000E+00  0.43222973577E+02  0.43222973652E+02  0.25500000000E-02 0. -1.
          2   -1    0    0  501    0  0.00000000000E+00 -0.00000000000E+00 -0.26472653141E+04  0.26472653141E+04  0.25500000000E-02 0.  1.
    5000001    1    1    2    0    0  0.10096334192E+03 -0.27668743978E+03 -0.12178325478E+04  0.12637605193E+04  0.16500000000E+03 0.  0.
   -5000001    1    1    2    0    0 -0.10096334192E+03  0.27668743978E+03 -0.13862097928E+04  0.14267277685E+04  0.16500000000E+03 0.  0.
<mgrwt>
<rscale>  0 0.67652843E+03</rscale>
<asrwt>0</asrwt>
<pdfrwt beam="1">  1        2 0.37818066E+00 0.67652843E+03</pdfrwt>
<pdfrwt beam="2">  1       -2 0.61747122E-02 0.67652843E+03</pdfrwt>
<totfact> 0.56973527E+02</totfact>
</mgrwt>
</event>
<event>
 4    1  0.5312547E-005  0.9193450E+03  0.7818608E-02  0.9401717E-01
         -2   -1    0    0    0  501 -0.00000000000E+00  0.00000000000E+00  0.13034877818E+03  0.13034877820E+03  0.25500000000E-02 0. -1.
          2   -1    0    0  501    0  0.00000000000E+00 -0.00000000000E+00 -0.16210265091E+04  0.16210265091E+04  0.25500000000E-02 0.  1.
    5000001    1    1    2    0    0  0.25666210405E+03  0.30189662396E+03 -0.43198212699E+03  0.60897501201E+03  0.16500000000E+03 0.  0.
   -5000001    1    1    2    0    0 -0.25666210405E+03 -0.30189662396E+03 -0.10586956040E+04  0.11424002753E+04  0.16500000000E+03 0.  0.
<mgrwt>
<rscale>  0 0.91934504E+03</rscale>
<asrwt>0</asrwt>
<pdfrwt beam="1">  1        2 0.23157520E+00 0.91934504E+03</pdfrwt>
<pdfrwt beam="2">  1       -2 0.18621255E-01 0.91934504E+03</pdfrwt>
<totfact> 0.30577245E+02</totfact>
</mgrwt>
</event>
<event>
 4    1  0.5312547E-005  0.6422395E+03  0.7818608E-02  0.9821451E-01
         -2   -1    0    0    0  501 -0.00000000000E+00  0.00000000000E+00  0.78637694045E+02  0.78637694086E+02  0.25500000000E-02 0. -1.
          2   -1    0    0  501    0  0.00000000000E+00 -0.00000000000E+00 -0.13113036098E+04  0.13113036098E+04  0.25500000000E-02 0.  1.
    5000001    1    1    2    0    0  0.38031767888E+02 -0.14631922372E+03 -0.11147462181E+04  0.11369871861E+04  0.16500000000E+03 0.  0.
   -5000001    1    1    2    0    0 -0.38031767888E+02  0.14631922372E+03 -0.11791969762E+03  0.25295411775E+03  0.16500000000E+03 0.  0.
<mgrwt>
<rscale>  0 0.64223949E+03</rscale>
<asrwt>0</asrwt>
<pdfrwt beam="1">  1        2 0.18732907E+00 0.64223949E+03</pdfrwt>
<pdfrwt beam="2">  1       -2 0.11233957E-01 0.64223949E+03</pdfrwt>
<totfact> 0.10601564E+03</totfact>
</mgrwt>
</event>
<event>
 4    1  0.5312547E-005  0.1020645E+04  0.7818608E-02  0.9286187E-01
          2   -1    0    0  501    0  0.00000000000E+00  0.00000000000E+00  0.44568844117E+03  0.44568844117E+03  0.25500000000E-02 0.  1.
         -2   -1    0    0    0  501 -0.00000000000E+00 -0.00000000000E+00 -0.58433011129E+03  0.58433011130E+03  0.25500000000E-02 0. -1.
    5000001    1    1    2    0    0  0.32818962831E+03  0.18686700845E+03 -0.37304400044E+03  0.55589076017E+03  0.16500000000E+03 0.  0.
   -5000001    1    1    2    0    0 -0.32818962831E+03 -0.18686700845E+03  0.23440233032E+03  0.47412779230E+03  0.16500000000E+03 0.  0.
<mgrwt>
<rscale>  0 0.10206452E+04</rscale>
<asrwt>0</asrwt>
<pdfrwt beam="1">  1        2 0.63669777E-01 0.10206452E+04</pdfrwt>
<pdfrwt beam="2">  1       -2 0.83475730E-01 0.10206452E+04</pdfrwt>
<totfact> 0.95954564E+01</totfact>
</mgrwt>
</event>
<event>
 4    1  0.5312547E-005  0.3829674E+03  0.7818608E-02  0.1049842E+00
         -2   -1    0    0    0  501 -0.00000000000E+00  0.00000000000E+00  0.64145148475E+03  0.64145148476E+03  0.25500000000E-02 0. -1.
          2   -1    0    0  501    0  0.00000000000E+00 -0.00000000000E+00 -0.57160995129E+02  0.57160995186E+02  0.25500000000E-02 0.  1.
    5000001    1    1    2    0    0 -0.49557862013E+02 -0.44166510946E+02  0.16271196988E+03  0.24105361959E+03  0.16500000000E+03 0.  0.
   -5000001    1    1    2    0    0  0.49557862013E+02  0.44166510946E+02  0.42157851974E+03  0.45755886035E+03  0.16500000000E+03 0.  0.
<mgrwt>
<rscale>  0 0.38296739E+03</rscale>
<asrwt>0</asrwt>
<pdfrwt beam="1">  1        2 0.81658570E-02 0.38296739E+03</pdfrwt>
<pdfrwt beam="2">  1       -2 0.91635921E-01 0.38296739E+03</pdfrwt>
<totfact> 0.87539749E+02</totfact>
</mgrwt>
</event>
<event>
 4    1  0.5312547E-005  0.9307551E+03  0.7818608E-02  0.9387932E-01
         -2   -1    0    0    0  501 -0.00000000000E+00  0.00000000000E+00  0.31323296047E+03  0.31323296048E+03  0.25500000000E-02 0. -1.
          2   -1    0    0  501    0  0.00000000000E+00 -0.00000000000E+00 -0.69142226305E+03  0.69142226306E+03  0.25500000000E-02 0.  1.
    5000001    1    1    2    0    0 -0.55850583886E+02  0.42456192967E+03 -0.27255887750E+03  0.53374662673E+03  0.16500000000E+03 0.  0.
   -5000001    1    1    2    0    0  0.55850583886E+02 -0.42456192967E+03 -0.10563042508E+03  0.47090859681E+03  0.16500000000E+03 0.  0.
<mgrwt>
<rscale>  0 0.93075505E+03</rscale>
<asrwt>0</asrwt>
<pdfrwt beam="1">  1        2 0.98774609E-01 0.93075505E+03</pdfrwt>
<pdfrwt beam="2">  1       -2 0.44747566E-01 0.93075505E+03</pdfrwt>
<totfact> 0.21661590E+02</totfact>
</mgrwt>
</event>
<event>
 4    1  0.5312547E-005  0.5991242E+03  0.7818608E-02  0.9907225E-01
          2   -1    0    0  501    0  0.00000000000E+00  0.00000000000E+00  0.83644929792E+03  0.83644929793E+03  0.25500000000E-02 0.  1.
         -2   -1    0    0    0  501 -0.00000000000E+00 -0.00000000000E+00 -0.10728379828E+03  0.10728379831E+03  0.25500000000E-02 0. -1.
    5000001    1    1    2    0    0 -0.46877387386E+02 -0.24036948004E+03  0.44393033999E+03  0.53317363321E+03  0.16500000000E+03 0.  0.
   -5000001    1    1    2    0    0  0.46877387386E+02  0.24036948004E+03  0.28523515965E+03  0.41055946304E+03  0.16500000000E+03 0.  0.
<mgrwt>
<rscale>  0 0.59912422E+03</rscale>
<asrwt>0</asrwt>
<pdfrwt beam="1">  1        2 0.11949276E+00 0.59912422E+03</pdfrwt>
<pdfrwt beam="2">  1       -2 0.15326257E-01 0.59912422E+03</pdfrwt>
<totfact> 0.12146317E+03</totfact>
</mgrwt>
</event>
<event>
 4    1  0.5312547E-005  0.7389504E+03  0.7818608E-02  0.9652847E-01
          2   -1    0    0  501    0  0.00000000000E+00  0.00000000000E+00  0.12605443032E+04  0.12605443032E+04  0.25500000000E-02 0.  1.
         -2   -1    0    0    0  501 -0.00000000000E+00 -0.00000000000E+00 -0.10829600845E+03  0.10829600848E+03  0.25500000000E-02 0. -1.
    5000001    1    1    2    0    0  0.94642127305E+02  0.27567716483E+02  0.11606467882E+04  0.11764536023E+04  0.16500000000E+03 0.  0.
   -5000001    1    1    2    0    0 -0.94642127305E+02 -0.27567716483E+02 -0.83984935240E+01  0.19238670938E+03  0.16500000000E+03 0.  0.
<mgrwt>
<rscale>  0 0.73895038E+03</rscale>
<asrwt>0</asrwt>
<pdfrwt beam="1">  1        2 0.18007777E+00 0.73895038E+03</pdfrwt>
<pdfrwt beam="2">  1       -2 0.15470857E-01 0.73895038E+03</pdfrwt>
<totfact> 0.66072573E+02</totfact>
</mgrwt>
</event>
<event>
 4    1  0.5312547E-005  0.4528564E+03  0.7818608E-02  0.1026874E+00
          2   -1    0    0  501    0  0.00000000000E+00  0.00000000000E+00  0.74623703621E+03  0.74623703621E+03  0.25500000000E-02 0.  1.
         -2   -1    0    0    0  501 -0.00000000000E+00 -0.00000000000E+00 -0.68704351272E+02  0.68704351320E+02  0.25500000000E-02 0. -1.
    5000001    1    1    2    0    0 -0.10181031220E+03 -0.91672982013E+02  0.46947244582E+03  0.51613821084E+03  0.16500000000E+03 0.  0.
   -5000001    1    1    2    0    0  0.10181031220E+03  0.91672982013E+02  0.20806023911E+03  0.29880317669E+03  0.16500000000E+03 0.  0.
<mgrwt>
<rscale>  0 0.45285641E+03</rscale>
<asrwt>0</asrwt>
<pdfrwt beam="1">  1        2 0.10660530E+00 0.45285641E+03</pdfrwt>
<pdfrwt beam="2">  1       -2 0.98149069E-02 0.45285641E+03</pdfrwt>
<totfact> 0.29224896E+03</totfact>
</mgrwt>
</event>
<event>
 4    1  0.5312547E-005  0.4972743E+03  0.7818608E-02  0.1014493E+00
          2   -1    0    0  501    0  0.00000000000E+00  0.00000000000E+00  0.41526531200E+03  0.41526531201E+03  0.25500000000E-02 0.  1.
         -2   -1    0    0    0  501 -0.00000000000E+00 -0.00000000000E+00 -0.14886973327E+03  0.14886973330E+03  0.25500000000E-02 0. -1.
    5000001    1    1    2    0    0  0.16340859410E+03 -0.80932947958E+02  0.17477094781E+03  0.30169917946E+03  0.16500000000E+03 0.  0.
   -5000001    1    1    2    0    0 -0.16340859410E+03  0.80932947958E+02  0.91624630914E+02  0.26243586584E+03  0.16500000000E+03 0.  0.
<mgrwt>
<rscale>  0 0.49727432E+03</rscale>
<asrwt>0</asrwt>
<pdfrwt beam="1">  1        2 0.59323617E-01 0.49727432E+03</pdfrwt>
<pdfrwt beam="2">  1       -2 0.21267104E-01 0.49727432E+03</pdfrwt>
<totfact> 0.15820975E+03</totfact>
</mgrwt>
</event>
<event>
 4    1  0.5312547E-005  0.5779117E+03  0.7818608E-02  0.9952322E-01
         -2   -1    0    0    0  501 -0.00000000000E+00  0.00000000000E+00  0.12527190496E+03  0.12527190499E+03  0.25500000000E-02 0. -1.
          2   -1    0    0  501    0  0.00000000000E+00 -0.00000000000E+00 -0.66651399436E+03  0.66651399437E+03  0.25500000000E-02 0.  1.
    5000001    1    1    2    0    0  0.19509850633E+03 -0.10548473787E+03 -0.15533850024E+03  0.31708911484E+03  0.16500000000E+03 0.  0.
   -5000001    1    1    2    0    0 -0.19509850633E+03  0.10548473787E+03 -0.38590358916E+03  0.47469678451E+03  0.16500000000E+03 0.  0.
<mgrwt>
<rscale>  0 0.57791168E+03</rscale>
<asrwt>0</asrwt>
<pdfrwt beam="1">  1        2 0.95216283E-01 0.57791168E+03</pdfrwt>
<pdfrwt beam="2">  1       -2 0.17895987E-01 0.57791168E+03</pdfrwt>
<totfact> 0.12394331E+03</totfact>
</mgrwt>
</event>
<event>
 4    1  0.5312547E-005  0.3567513E+03  0.7818608E-02  0.1059878E+00
         -2   -1    0    0    0  501 -0.00000000000E+00  0.00000000000E+00  0.97089596782E+03  0.97089596783E+03  0.25500000000E-02 0.  1.
          2   -1    0    0  501    0  0.00000000000E+00 -0.00000000000E+00 -0.32771665706E+02  0.32771665805E+02  0.25500000000E-02 0. -1.
    5000001    1    1    2    0    0 -0.32107898106E+02 -0.58301065778E+02  0.50497477775E+03  0.53540121176E+03  0.16500000000E+03 0.  0.
   -5000001    1    1    2    0    0  0.32107898106E+02  0.58301065778E+02  0.43314952437E+03  0.46826642187E+03  0.16500000000E+03 0.  0.
<mgrwt>
<rscale>  0 0.35675133E+03</rscale>
<asrwt>0</asrwt>
<pdfrwt beam="1">  1        2 0.46816674E-02 0.35675133E+03</pdfrwt>
<pdfrwt beam="2">  1       -2 0.13869940E+00 0.35675133E+03</pdfrwt>
<totfact> 0.66916506E+02</totfact>
</mgrwt>
</event>
<event>
 4    1  0.5312547E-005  0.5065298E+03  0.7818608E-02  0.1012088E+00
         -2   -1    0    0    0  501 -0.00000000000E+00  0.00000000000E+00  0.50641070770E+02  0.50641070834E+02  0.25500000000E-02 0. -1.
          2   -1    0    0  501    0  0.00000000000E+00 -0.00000000000E+00 -0.12666221912E+04  0.12666221912E+04  0.25500000000E-02 0.  1.
    5000001    1    1    2    0    0 -0.25837194536E+02 -0.88907563705E+02 -0.17015261058E+03  0.25445829991E+03  0.16500000000E+03 0.  0.
   -5000001    1    1    2    0    0  0.25837194536E+02  0.88907563705E+02 -0.10458285098E+04  0.10628049621E+04  0.16500000000E+03 0.  0.
<mgrwt>
<rscale>  0 0.50652978E+03</rscale>
<asrwt>0</asrwt>
<pdfrwt beam="1">  1        2 0.18094601E+00 0.50652978E+03</pdfrwt>
<pdfrwt beam="2">  1       -2 0.72344395E-02 0.50652978E+03</pdfrwt>
<totfact> 0.22816765E+03</totfact>
</mgrwt>
</event>
<event>
 4    1  0.5312547E-005  0.6380177E+03  0.7818608E-02  0.9829527E-01
         -2   -1    0    0    0  501 -0.00000000000E+00  0.00000000000E+00  0.72052037784E+02  0.72052037829E+02  0.25500000000E-02 0. -1.
          2   -1    0    0  501    0  0.00000000000E+00 -0.00000000000E+00 -0.14124048625E+04  0.14124048625E+04  0.25500000000E-02 0.  1.
    5000001    1    1    2    0    0  0.12624087534E+03 -0.18013173448E+03 -0.29387785975E+03  0.40245918653E+03  0.16500000000E+03 0.  0.
   -5000001    1    1    2    0    0 -0.12624087534E+03  0.18013173448E+03 -0.10464749649E+04  0.10819977138E+04  0.16500000000E+03 0.  0.
<mgrwt>
<rscale>  0 0.63801771E+03</rscale>
<asrwt>0</asrwt>
<pdfrwt beam="1">  1        2 0.20177211E+00 0.63801771E+03</pdfrwt>
<pdfrwt beam="2">  1       -2 0.10293149E-01 0.63801771E+03</pdfrwt>
<totfact> 0.10793698E+03</totfact>
</mgrwt>
</event>
<event>
 4    1  0.5312547E-005  0.6291273E+03  0.7818608E-02  0.9846753E-01
          2   -1    0    0  501    0  0.00000000000E+00  0.00000000000E+00  0.14829790789E+04  0.14829790789E+04  0.25500000000E-02 0.  1.
         -2   -1    0    0    0  501 -0.00000000000E+00 -0.00000000000E+00 -0.66724005810E+02  0.66724005859E+02  0.25500000000E-02 0. -1.
    5000001    1    1    2    0    0  0.96280293468E+02 -0.87963955010E+02  0.13192646853E+03  0.24826829316E+03  0.16500000000E+03 0.  0.
   -5000001    1    1    2    0    0 -0.96280293468E+02  0.87963955010E+02  0.12843286046E+04  0.13014347916E+04  0.16500000000E+03 0.  0.
<mgrwt>
<rscale>  0 0.62912735E+03</rscale>
<asrwt>0</asrwt>
<pdfrwt beam="1">  1        2 0.21185414E+00 0.62912735E+03</pdfrwt>
<pdfrwt beam="2">  1       -2 0.95320015E-02 0.62912735E+03</pdfrwt>
<totfact> 0.11225761E+03</totfact>
</mgrwt>
</event>
<event>
 4    1  0.5312547E-005  0.4465179E+03  0.7818608E-02  0.1028766E+00
         -2   -1    0    0    0  501 -0.00000000000E+00  0.00000000000E+00  0.14571461816E+02  0.14571462039E+02  0.25500000000E-02 0. -1.
          2   -1    0    0  501    0  0.00000000000E+00 -0.00000000000E+00 -0.34206976282E+04  0.34206976282E+04  0.25500000000E-02 0.  1.
    5000001    1    1    2    0    0  0.10609513751E+03  0.69170843177E+02 -0.23270774540E+04  0.23363551230E+04  0.16500000000E+03 0.  0.
   -5000001    1    1    2    0    0 -0.10609513751E+03 -0.69170843177E+02 -0.10790487124E+04  0.10989139673E+04  0.16500000000E+03 0.  0.
<mgrwt>
<rscale>  0 0.44651793E+03</rscale>
<asrwt>0</asrwt>
<pdfrwt beam="1">  1        2 0.48867058E+00 0.44651793E+03</pdfrwt>
<pdfrwt beam="2">  1       -2 0.20816396E-02 0.44651793E+03</pdfrwt>
<totfact> 0.11587157E+03</totfact>
</mgrwt>
</event>
<event>
 4    1  0.5312547E-005  0.3715485E+03  0.7818608E-02  0.1054102E+00
          2   -1    0    0  501    0  0.00000000000E+00  0.00000000000E+00  0.20943750156E+04  0.20943750156E+04  0.25500000000E-02 0.  1.
         -2   -1    0    0    0  501 -0.00000000000E+00 -0.00000000000E+00 -0.16478462213E+02  0.16478462410E+02  0.25500000000E-02 0. -1.
    5000001    1    1    2    0    0  0.29853903383E+02  0.55032569819E+02  0.70927815111E+03  0.73090377953E+03  0.16500000000E+03 0.  0.
   -5000001    1    1    2    0    0 -0.29853903383E+02 -0.55032569819E+02  0.13686184023E+04  0.13799496985E+04  0.16500000000E+03 0.  0.
<mgrwt>
<rscale>  0 0.37154854E+03</rscale>
<asrwt>0</asrwt>
<pdfrwt beam="1">  1        2 0.29919624E+00 0.37154854E+03</pdfrwt>
<pdfrwt beam="2">  1       -2 0.23540676E-02 0.37154854E+03</pdfrwt>
<totfact> 0.48241443E+03</totfact>
</mgrwt>
</event>
<event>
 4    1  0.5312547E-005  0.6092057E+03  0.7818608E-02  0.9886489E-01
          2   -1    0    0  501    0  0.00000000000E+00  0.00000000000E+00  0.47580509691E+03  0.47580509692E+03  0.25500000000E-02 0.  1.
         -2   -1    0    0    0  501 -0.00000000000E+00 -0.00000000000E+00 -0.19500190723E+03  0.19500190725E+03  0.25500000000E-02 0. -1.
    5000001    1    1    2    0    0  0.87050782680E+02 -0.17592432729E+03  0.32143645627E+03  0.41118560665E+03  0.16500000000E+03 0.  0.
   -5000001    1    1    2    0    0 -0.87050782680E+02  0.17592432729E+03 -0.40633266590E+02  0.25962139752E+03  0.16500000000E+03 0.  0.
<mgrwt>
<rscale>  0 0.60920572E+03</rscale>
<asrwt>0</asrwt>
<pdfrwt beam="1">  1        2 0.67972156E-01 0.60920572E+03</pdfrwt>
<pdfrwt beam="2">  1       -2 0.27857416E-01 0.60920572E+03</pdfrwt>
<totfact> 0.83859191E+02</totfact>
</mgrwt>
</event>
<event>
 4    1  0.5312547E-005  0.4586915E+03  0.7818608E-02  0.1025161E+00
          2   -1    0    0  501    0  0.00000000000E+00  0.00000000000E+00  0.10543212867E+04  0.10543212867E+04  0.25500000000E-02 0. -1.
         -2   -1    0    0    0  501 -0.00000000000E+00 -0.00000000000E+00 -0.49889408215E+02  0.49889408280E+02  0.25500000000E-02 0.  1.
    5000001    1    1    2    0    0  0.55090876836E+02  0.14345070309E+03  0.40118488557E+03  0.46020367376E+03  0.16500000000E+03 0.  0.
   -5000001    1    1    2    0    0 -0.55090876836E+02 -0.14345070309E+03  0.60324699286E+03  0.64400702118E+03  0.16500000000E+03 0.  0.
<mgrwt>
<rscale>  0 0.45869147E+03</rscale>
<asrwt>0</asrwt>
<pdfrwt beam="1">  1        2 0.15061733E+00 0.45869147E+03</pdfrwt>
<pdfrwt beam="2">  1       -2 0.71270580E-02 0.45869147E+03</pdfrwt>
<totfact> 0.30787791E+03</totfact>
</mgrwt>
</event>
<event>
 4    1  0.5312547E-005  0.4771375E+03  0.7818608E-02  0.1019925E+00
         -2   -1    0    0    0  501 -0.00000000000E+00  0.00000000000E+00  0.30296761353E+04  0.30296761353E+04  0.25500000000E-02 0. -1.
          2   -1    0    0  501    0  0.00000000000E+00 -0.00000000000E+00 -0.18785853374E+02  0.18785853547E+02  0.25500000000E-02 0.  1.
    5000001    1    1    2    0    0 -0.16893587506E+03  0.33909564038E+02  0.15113821607E+04  0.15300948415E+04  0.16500000000E+03 0.  0.
   -5000001    1    1    2    0    0  0.16893587506E+03 -0.33909564038E+02  0.14995081213E+04  0.15183671474E+04  0.16500000000E+03 0.  0.
<mgrwt>
<rscale>  0 0.47713751E+03</rscale>
<asrwt>0</asrwt>
<pdfrwt beam="1">  1        2 0.26836982E-02 0.47713751E+03</pdfrwt>
<pdfrwt beam="2">  1       -2 0.43281010E+00 0.47713751E+03</pdfrwt>
<totfact> 0.19486688E+01</totfact>
</mgrwt>
</event>
<event>
 4    1  0.5312547E-005  0.5180294E+03  0.7818608E-02  0.1009177E+00
          2   -1    0    0  501    0  0.00000000000E+00  0.00000000000E+00  0.20530360124E+03  0.20530360125E+03  0.25500000000E-02 0.  1.
         -2   -1    0    0    0  501 -0.00000000000E+00 -0.00000000000E+00 -0.32677759581E+03  0.32677759582E+03  0.25500000000E-02 0. -1.
    5000001    1    1    2    0    0  0.72852579833E+02  0.15892082713E+03 -0.15979093179E+03  0.28865458521E+03  0.16500000000E+03 0.  0.
   -5000001    1    1    2    0    0 -0.72852579833E+02 -0.15892082713E+03  0.38316937214E+02  0.24342661186E+03  0.16500000000E+03 0.  0.
<mgrwt>
<rscale>  0 0.51802941E+03</rscale>
<asrwt>0</asrwt>
<pdfrwt beam="1">  1        2 0.29329086E-01 0.51802941E+03</pdfrwt>
<pdfrwt beam="2">  1       -2 0.46682513E-01 0.51802941E+03</pdfrwt>
<totfact> 0.79771406E+02</totfact>
</mgrwt>
</event>
<event>
 4    1  0.5312547E-005  0.5599242E+03  0.7818608E-02  0.9992226E-01
         -2   -1    0    0    0  501 -0.00000000000E+00  0.00000000000E+00  0.24602650829E+03  0.24602650830E+03  0.25500000000E-02 0. -1.
          2   -1    0    0  501    0  0.00000000000E+00 -0.00000000000E+00 -0.31857854119E+03  0.31857854120E+03  0.25500000000E-02 0.  1.
    5000001    1    1    2    0    0 -0.85533048307E+02 -0.20731932741E+03 -0.65787735473E+02  0.28609479549E+03  0.16500000000E+03 0.  0.
   -5000001    1    1    2    0    0  0.85533048307E+02  0.20731932741E+03 -0.67642974314E+01  0.27851025401E+03  0.16500000000E+03 0.  0.
<mgrwt>
<rscale>  0 0.55992416E+03</rscale>
<asrwt>0</asrwt>
<pdfrwt beam="1">  1        2 0.45511220E-01 0.55992416E+03</pdfrwt>
<pdfrwt beam="2">  1       -2 0.35146644E-01 0.55992416E+03</pdfrwt>
<totfact> 0.85056618E+02</totfact>
</mgrwt>
</event>
<event>
 4    1  0.5312547E-005  0.7122345E+03  0.7818608E-02  0.9696535E-01
          2   -1    0    0  501    0  0.00000000000E+00  0.00000000000E+00  0.75071790625E+03  0.75071790626E+03  0.25500000000E-02 0.  1.
         -2   -1    0    0    0  501 -0.00000000000E+00 -0.00000000000E+00 -0.16893093927E+03  0.16893093929E+03  0.25500000000E-02 0. -1.
    5000001    1    1    2    0    0  0.94098936939E+02 -0.22039145171E+03  0.25745781304E+02  0.29208705410E+03  0.16500000000E+03 0.  0.
   -5000001    1    1    2    0    0 -0.94098936939E+02  0.22039145171E+03  0.55604118568E+03  0.62756179145E+03  0.16500000000E+03 0.  0.
<mgrwt>
<rscale>  0 0.71223446E+03</rscale>
<asrwt>0</asrwt>
<pdfrwt beam="1">  1        2 0.10724541E+00 0.71223446E+03</pdfrwt>
<pdfrwt beam="2">  1       -2 0.24132992E-01 0.71223446E+03</pdfrwt>
<totfact> 0.63212488E+02</totfact>
</mgrwt>
</event>
<event>
 4    1  0.5312547E-005  0.3716912E+03  0.7818608E-02  0.1054048E+00
         -2   -1    0    0    0  501 -0.00000000000E+00  0.00000000000E+00  0.32586650823E+02  0.32586650923E+02  0.25500000000E-02 0. -1.
          2   -1    0    0  501    0  0.00000000000E+00 -0.00000000000E+00 -0.10598996628E+04  0.10598996628E+04  0.25500000000E-02 0.  1.
    5000001    1    1    2    0    0 -0.82960051749E+02  0.17991467074E+02 -0.48317946895E+03  0.51758425622E+03  0.16500000000E+03 0.  0.
   -5000001    1    1    2    0    0  0.82960051749E+02 -0.17991467074E+02 -0.54413354298E+03  0.57490205746E+03  0.16500000000E+03 0.  0.
<mgrwt>
<rscale>  0 0.37169116E+03</rscale>
<asrwt>0</asrwt>
<pdfrwt beam="1">  1        2 0.15141422E+00 0.37169116E+03</pdfrwt>
<pdfrwt beam="2">  1       -2 0.46552365E-02 0.37169116E+03</pdfrwt>
<totfact> 0.58974544E+03</totfact>
</mgrwt>
</event>
<event>
 4    1  0.5312547E-005  0.5536069E+03  0.7818608E-02  0.1000663E+00
          2   -1    0    0  501    0  0.00000000000E+00  0.00000000000E+00  0.77531230706E+03  0.77531230707E+03  0.25500000000E-02 0.  1.
         -2   -1    0    0    0  501 -0.00000000000E+00 -0.00000000000E+00 -0.98824867746E+02  0.98824867779E+02  0.25500000000E-02 0. -1.
    5000001    1    1    2    0    0 -0.55364152102E+02  0.88612481708E+02  0.28513835760E+02  0.19737122405E+03  0.16500000000E+03 0.  0.
   -5000001    1    1    2    0    0  0.55364152102E+02 -0.88612481708E+02  0.64797360356E+03  0.67676595080E+03  0.16500000000E+03 0.  0.
<mgrwt>
<rscale>  0 0.55360685E+03</rscale>
<asrwt>0</asrwt>
<pdfrwt beam="1">  1        2 0.11075891E+00 0.55360685E+03</pdfrwt>
<pdfrwt beam="2">  1       -2 0.14117838E-01 0.55360685E+03</pdfrwt>
<totfact> 0.15371224E+03</totfact>
</mgrwt>
</event>
<event>
 4    1  0.5312547E-005  0.8863254E+03  0.7818608E-02  0.9442839E-01
          2   -1    0    0  501    0  0.00000000000E+00  0.00000000000E+00  0.12927410842E+04  0.12927410842E+04  0.25500000000E-02 0.  1.
         -2   -1    0    0    0  501 -0.00000000000E+00 -0.00000000000E+00 -0.15191995224E+03  0.15191995226E+03  0.25500000000E-02 0. -1.
    5000001    1    1    2    0    0  0.40029410690E+03  0.93833252424E+02  0.55196174767E+03  0.70776184000E+03  0.16500000000E+03 0.  0.
   -5000001    1    1    2    0    0 -0.40029410690E+03 -0.93833252424E+02  0.58885938430E+03  0.73689919647E+03  0.16500000000E+03 0.  0.
<mgrwt>
<rscale>  0 0.88632537E+03</rscale>
<asrwt>0</asrwt>
<pdfrwt beam="1">  1        2 0.18467730E+00 0.88632537E+03</pdfrwt>
<pdfrwt beam="2">  1       -2 0.21702850E-01 0.88632537E+03</pdfrwt>
<totfact> 0.35042025E+02</totfact>
</mgrwt>
</event>
<event>
 4    1  0.5312547E-005  0.5758578E+03  0.7818608E-02  0.9956799E-01
          2   -1    0    0  501    0  0.00000000000E+00  0.00000000000E+00  0.20186960797E+04  0.20186960797E+04  0.25500000000E-02 0.  1.
         -2   -1    0    0    0  501 -0.00000000000E+00 -0.00000000000E+00 -0.41067627810E+02  0.41067627889E+02  0.25500000000E-02 0. -1.
    5000001    1    1    2    0    0 -0.15571305388E+03  0.17614364118E+03  0.10607902318E+04  0.10989877403E+04  0.16500000000E+03 0.  0.
   -5000001    1    1    2    0    0  0.15571305388E+03 -0.17614364118E+03  0.91683822011E+03  0.96077596730E+03  0.16500000000E+03 0.  0.
<mgrwt>
<rscale>  0 0.57585783E+03</rscale>
<asrwt>0</asrwt>
<pdfrwt beam="1">  1        2 0.28838520E+00 0.57585783E+03</pdfrwt>
<pdfrwt beam="2">  1       -2 0.58668030E-02 0.57585783E+03</pdfrwt>
<totfact> 0.12986285E+03</totfact>
</mgrwt>
</event>
<event>
 4    1  0.5312547E-005  0.3791566E+03  0.7818608E-02  0.1051246E+00
          2   -1    0    0  501    0  0.00000000000E+00  0.00000000000E+00  0.54219668024E+03  0.54219668024E+03  0.25500000000E-02 0.  1.
         -2   -1    0    0    0  501 -0.00000000000E+00 -0.00000000000E+00 -0.66285775364E+02  0.66285775413E+02  0.25500000000E-02 0. -1.
    5000001    1    1    2    0    0 -0.72674791732E+02  0.49566220609E+02  0.18780628065E+03  0.26501817792E+03  0.16500000000E+03 0.  0.
   -5000001    1    1    2    0    0  0.72674791732E+02 -0.49566220609E+02  0.28810462422E+03  0.34346427773E+03  0.16500000000E+03 0.  0.
<mgrwt>
<rscale>  0 0.37915658E+03</rscale>
<asrwt>0</asrwt>
<pdfrwt beam="1">  1        2 0.77456671E-01 0.37915658E+03</pdfrwt>
<pdfrwt beam="2">  1       -2 0.94693962E-02 0.37915658E+03</pdfrwt>
<totfact> 0.44992334E+03</totfact>
</mgrwt>
</event>
<event>
 4    1  0.5312547E-005  0.5227607E+03  0.7818608E-02  0.1008003E+00
         -2   -1    0    0    0  501 -0.00000000000E+00  0.00000000000E+00  0.93469065448E+02  0.93469065482E+02  0.25500000000E-02 0. -1.
          2   -1    0    0  501    0  0.00000000000E+00 -0.00000000000E+00 -0.73093372270E+03  0.73093372271E+03  0.25500000000E-02 0.  1.
    5000001    1    1    2    0    0 -0.12036987030E+02  0.15695231734E+03 -0.11729482360E+03  0.25644101587E+03  0.16500000000E+03 0.  0.
   -5000001    1    1    2    0    0  0.12036987030E+02 -0.15695231734E+03 -0.52016983365E+03  0.56796177232E+03  0.16500000000E+03 0.  0.
<mgrwt>
<rscale>  0 0.52276072E+03</rscale>
<asrwt>0</asrwt>
<pdfrwt beam="1">  1        2 0.10441910E+00 0.52276072E+03</pdfrwt>
<pdfrwt beam="2">  1       -2 0.13352724E-01 0.52276072E+03</pdfrwt>
<totfact> 0.18153143E+03</totfact>
</mgrwt>
</event>
<event>
 4    1  0.5312547E-005  0.4512827E+03  0.7818608E-02  0.1027340E+00
          2   -1    0    0  501    0  0.00000000000E+00  0.00000000000E+00  0.80860126159E+03  0.80860126159E+03  0.25500000000E-02 0.  1.
         -2   -1    0    0    0  501 -0.00000000000E+00 -0.00000000000E+00 -0.62965536233E+02  0.62965536285E+02  0.25500000000E-02 0. -1.
    5000001    1    1    2    0    0  0.12280058247E+03  0.88490063576E+02  0.31892989162E+03  0.38968160102E+03  0.16500000000E+03 0.  0.
   -5000001    1    1    2    0    0 -0.12280058247E+03 -0.88490063576E+02  0.42670583373E+03  0.48188519686E+03  0.16500000000E+03 0.  0.
<mgrwt>
<rscale>  0 0.45128267E+03</rscale>
<asrwt>0</asrwt>
<pdfrwt beam="1">  1        2 0.11551447E+00 0.45128267E+03</pdfrwt>
<pdfrwt beam="2">  1       -2 0.89950766E-02 0.45128267E+03</pdfrwt>
<totfact> 0.30395852E+03</totfact>
</mgrwt>
</event>
<event>
 4    1  0.5312547E-005  0.4450480E+03  0.7818608E-02  0.1029209E+00
         -2   -1    0    0    0  501 -0.00000000000E+00  0.00000000000E+00  0.33456035905E+02  0.33456036002E+02  0.25500000000E-02 0. -1.
          2   -1    0    0  501    0  0.00000000000E+00 -0.00000000000E+00 -0.14800594253E+04  0.14800594253E+04  0.25500000000E-02 0.  1.
    5000001    1    1    2    0    0  0.14661748257E+03  0.23396644500E+02 -0.66976409498E+03  0.70558701242E+03  0.16500000000E+03 0.  0.
   -5000001    1    1    2    0    0 -0.14661748257E+03 -0.23396644500E+02 -0.77683929443E+03  0.80792844890E+03  0.16500000000E+03 0.  0.
<mgrwt>
<rscale>  0 0.44504796E+03</rscale>
<asrwt>0</asrwt>
<pdfrwt beam="1">  1        2 0.21143702E+00 0.44504796E+03</pdfrwt>
<pdfrwt beam="2">  1       -2 0.47794346E-02 0.44504796E+03</pdfrwt>
<totfact> 0.33536848E+03</totfact>
</mgrwt>
</event>
<event>
 4    1  0.5312547E-005  0.3620613E+03  0.7818608E-02  0.1057771E+00
         -2   -1    0    0    0  501 -0.00000000000E+00  0.00000000000E+00  0.17657327681E+03  0.17657327683E+03  0.25500000000E-02 0. -1.
          2   -1    0    0  501    0  0.00000000000E+00 -0.00000000000E+00 -0.18560050265E+03  0.18560050267E+03  0.25500000000E-02 0.  1.
    5000001    1    1    2    0    0  0.87402668732E+01 -0.73947146566E+02 -0.61003555501E+01  0.18112643951E+03  0.16500000000E+03 0.  0.
   -5000001    1    1    2    0    0 -0.87402668732E+01  0.73947146566E+02 -0.29268702906E+01  0.18104734000E+03  0.16500000000E+03 0.  0.
<mgrwt>
<rscale>  0 0.36206126E+03</rscale>
<asrwt>0</asrwt>
<pdfrwt beam="1">  1        2 0.26514357E-01 0.36206126E+03</pdfrwt>
<pdfrwt beam="2">  1       -2 0.25224754E-01 0.36206126E+03</pdfrwt>
<totfact> 0.28313134E+03</totfact>
</mgrwt>
</event>
<event>
 4    1  0.5312547E-005  0.3933420E+03  0.7818608E-02  0.1046110E+00
          2   -1    0    0  501    0  0.00000000000E+00  0.00000000000E+00  0.20983574692E+04  0.20983574692E+04  0.25500000000E-02 0.  1.
         -2   -1    0    0    0  501 -0.00000000000E+00 -0.00000000000E+00 -0.18433217550E+02  0.18433217726E+02  0.25500000000E-02 0. -1.
    5000001    1    1    2    0    0 -0.10174172881E+03 -0.22961768008E+01  0.12182717482E+04  0.12335994910E+04  0.16500000000E+03 0.  0.
   -5000001    1    1    2    0    0  0.10174172881E+03  0.22961768008E+01  0.86165250343E+03  0.88319119587E+03  0.16500000000E+03 0.  0.
<mgrwt>
<rscale>  0 0.39334199E+03</rscale>
<asrwt>0</asrwt>
<pdfrwt beam="1">  1        2 0.29976512E+00 0.39334199E+03</pdfrwt>
<pdfrwt beam="2">  1       -2 0.26333189E-02 0.39334199E+03</pdfrwt>
<totfact> 0.40601325E+03</totfact>
</mgrwt>
</event>
<event>
 4    1  0.5312547E-005  0.5812345E+03  0.7818608E-02  0.9945122E-01
         -2   -1    0    0    0  501 -0.00000000000E+00  0.00000000000E+00  0.51354814116E+02  0.51354814180E+02  0.25500000000E-02 0. -1.
          2   -1    0    0  501    0  0.00000000000E+00 -0.00000000000E+00 -0.16446047777E+04  0.16446047777E+04  0.25500000000E-02 0.  1.
    5000001    1    1    2    0    0 -0.23209587478E+03 -0.50008705492E+02 -0.71085747633E+03  0.76740648770E+03  0.16500000000E+03 0.  0.
   -5000001    1    1    2    0    0  0.23209587478E+03  0.50008705492E+02 -0.88239248726E+03  0.92855310419E+03  0.16500000000E+03 0.  0.
<mgrwt>
<rscale>  0 0.58123445E+03</rscale>
<asrwt>0</asrwt>
<pdfrwt beam="1">  1        2 0.23494351E+00 0.58123445E+03</pdfrwt>
<pdfrwt beam="2">  1       -2 0.73364031E-02 0.58123445E+03</pdfrwt>
<totfact> 0.14104815E+03</totfact>
</mgrwt>
</event>
<event>
 4    1  0.5312547E-005  0.4664854E+03  0.7818608E-02  0.1022917E+00
          2   -1    0    0  501    0  0.00000000000E+00  0.00000000000E+00  0.17122479026E+04  0.17122479026E+04  0.25500000000E-02 0.  1.
         -2   -1    0    0    0  501 -0.00000000000E+00 -0.00000000000E+00 -0.31772359881E+02  0.31772359984E+02  0.25500000000E-02 0. -1.
    5000001    1    1    2    0    0 -0.11043156476E+03 -0.12084422043E+03  0.91299253619E+03  0.94211402030E+03  0.16500000000E+03 0.  0.
   -5000001    1    1    2    0    0  0.11043156476E+03  0.12084422043E+03  0.76748300652E+03  0.80190624228E+03  0.16500000000E+03 0.  0.
<mgrwt>
<rscale>  0 0.46648540E+03</rscale>
<asrwt>0</asrwt>
<pdfrwt beam="1">  1        2 0.24460681E+00 0.46648540E+03</pdfrwt>
<pdfrwt beam="2">  1       -2 0.45389092E-02 0.46648540E+03</pdfrwt>
<totfact> 0.27643119E+03</totfact>
</mgrwt>
</event>
<event>
 4    1  0.5312547E-005  0.6718279E+03  0.7818608E-02  0.9766661E-01
          2   -1    0    0  501    0  0.00000000000E+00  0.00000000000E+00  0.10775375470E+04  0.10775375470E+04  0.25500000000E-02 0.  1.
         -2   -1    0    0    0  501 -0.00000000000E+00 -0.00000000000E+00 -0.10471856608E+03  0.10471856611E+03  0.25500000000E-02 0. -1.
    5000001    1    1    2    0    0 -0.20748567120E+02  0.17984995620E+03  0.89091204766E+03  0.92397282776E+03  0.16500000000E+03 0.  0.
   -5000001    1    1    2    0    0  0.20748567120E+02 -0.17984995620E+03  0.81906933275E+02  0.25828328537E+03  0.16500000000E+03 0.  0.
<mgrwt>
<rscale>  0 0.67182791E+03</rscale>
<asrwt>0</asrwt>
<pdfrwt beam="1">  1        2 0.15393394E+00 0.67182791E+03</pdfrwt>
<pdfrwt beam="2">  1       -2 0.14959794E-01 0.67182791E+03</pdfrwt>
<totfact> 0.89155491E+02</totfact>
</mgrwt>
</event>
<event>
 4    1  0.5312547E-005  0.3493533E+03  0.7818608E-02  0.1062881E+00
          2   -1    0    0  501    0  0.00000000000E+00  0.00000000000E+00  0.12928455708E+03  0.12928455711E+03  0.25500000000E-02 0.  1.
         -2   -1    0    0    0  501 -0.00000000000E+00 -0.00000000000E+00 -0.23600594200E+03  0.23600594201E+03  0.25500000000E-02 0. -1.
    5000001    1    1    2    0    0 -0.16214135518E+02 -0.44821753931E+02 -0.20047651299E+02  0.17291268357E+03  0.16500000000E+03 0.  0.
   -5000001    1    1    2    0    0  0.16214135518E+02  0.44821753931E+02 -0.86673733615E+02  0.19237781555E+03  0.16500000000E+03 0.  0.
<mgrwt>
<rscale>  0 0.34935325E+03</rscale>
<asrwt>0</asrwt>
<pdfrwt beam="1">  1        2 0.18469223E-01 0.34935325E+03</pdfrwt>
<pdfrwt beam="2">  1       -2 0.33715134E-01 0.34935325E+03</pdfrwt>
<totfact> 0.25220989E+03</totfact>
</mgrwt>
</event>
<event>
 4    1  0.5312547E-005  0.5145647E+03  0.7818608E-02  0.1010046E+00
          2   -1    0    0  501    0  0.00000000000E+00  0.00000000000E+00  0.19040141748E+03  0.19040141750E+03  0.25500000000E-02 0.  1.
         -2   -1    0    0    0  501 -0.00000000000E+00 -0.00000000000E+00 -0.34765603168E+03  0.34765603169E+03  0.25500000000E-02 0. -1.
    5000001    1    1    2    0    0  0.15474961181E+03 -0.12255809812E+03 -0.79806380031E+02  0.26937332471E+03  0.16500000000E+03 0.  0.
   -5000001    1    1    2    0    0 -0.15474961181E+03  0.12255809812E+03 -0.77448234174E+02  0.26868412448E+03  0.16500000000E+03 0.  0.
<mgrwt>
<rscale>  0 0.51456468E+03</rscale>
<asrwt>0</asrwt>
<pdfrwt beam="1">  1        2 0.27200202E-01 0.51456468E+03</pdfrwt>
<pdfrwt beam="2">  1       -2 0.49665147E-01 0.51456468E+03</pdfrwt>
<totfact> 0.76687900E+02</totfact>
</mgrwt>
</event>
<event>
 4    1  0.5312547E-005  0.1850926E+04  0.7818608E-02  0.8679677E-01
          2   -1    0    0  501    0  0.00000000000E+00  0.00000000000E+00  0.13761153701E+04  0.13761153701E+04  0.25500000000E-02 0.  1.
         -2   -1    0    0    0  501 -0.00000000000E+00 -0.00000000000E+00 -0.62239091828E+03  0.62239091829E+03  0.25500000000E-02 0. -1.
    5000001    1    1    2    0    0  0.53815896556E+03  0.58274521108E+03  0.85979355619E+03  0.11813877486E+04  0.16500000000E+03 0.  0.
   -5000001    1    1    2    0    0 -0.53815896556E+03 -0.58274521108E+03 -0.10606910433E+03  0.81711853984E+03  0.16500000000E+03 0.  0.
<mgrwt>
<rscale>  0 0.18509259E+04</rscale>
<asrwt>0</asrwt>
<pdfrwt beam="1">  1        2 0.19658791E+00 0.18509259E+04</pdfrwt>
<pdfrwt beam="2">  1       -2 0.88912988E-01 0.18509259E+04</pdfrwt>
<totfact> 0.17481466E+01</totfact>
</mgrwt>
</event>
<event>
 4    1  0.5312547E-005  0.5824858E+03  0.7818608E-02  0.9942424E-01
          2   -1    0    0  501    0  0.00000000000E+00  0.00000000000E+00  0.11732050994E+04  0.11732050994E+04  0.25500000000E-02 0.  1.
         -2   -1    0    0    0  501 -0.00000000000E+00 -0.00000000000E+00 -0.72299754280E+02  0.72299754325E+02  0.25500000000E-02 0. -1.
    5000001    1    1    2    0    0  0.92604341454E+02 -0.21574390309E+03  0.44404465291E+03  0.52869807032E+03  0.16500000000E+03 0.  0.
   -5000001    1    1    2    0    0 -0.92604341454E+02  0.21574390309E+03  0.65686069220E+03  0.71680678341E+03  0.16500000000E+03 0.  0.
<mgrwt>
<rscale>  0 0.58248585E+03</rscale>
<asrwt>0</asrwt>
<pdfrwt beam="1">  1        2 0.16760073E+00 0.58248585E+03</pdfrwt>
<pdfrwt beam="2">  1       -2 0.10328536E-01 0.58248585E+03</pdfrwt>
<totfact> 0.14525300E+03</totfact>
</mgrwt>
</event>
<event>
 4    1  0.5312547E-005  0.7054941E+03  0.7818608E-02  0.9707882E-01
         -2   -1    0    0    0  501 -0.00000000000E+00  0.00000000000E+00  0.19589323594E+03  0.19589323596E+03  0.25500000000E-02 0. -1.
          2   -1    0    0  501    0  0.00000000000E+00 -0.00000000000E+00 -0.63519536707E+03  0.63519536708E+03  0.25500000000E-02 0.  1.
    5000001    1    1    2    0    0 -0.29722598541E+03  0.46240884777E+01 -0.10888673865E+03  0.35699578492E+03  0.16500000000E+03 0.  0.
   -5000001    1    1    2    0    0  0.29722598541E+03 -0.46240884777E+01 -0.33041539248E+03  0.47409281811E+03  0.16500000000E+03 0.  0.
<mgrwt>
<rscale>  0 0.70549408E+03</rscale>
<asrwt>0</asrwt>
<pdfrwt beam="1">  1        2 0.90742194E-01 0.70549408E+03</pdfrwt>
<pdfrwt beam="2">  1       -2 0.27984748E-01 0.70549408E+03</pdfrwt>
<totfact> 0.59343962E+02</totfact>
</mgrwt>
</event>
<event>
 4    1  0.5312547E-005  0.4568303E+03  0.7818608E-02  0.1025705E+00
          2   -1    0    0  501    0  0.00000000000E+00  0.00000000000E+00  0.21804165887E+03  0.21804165889E+03  0.25500000000E-02 0.  1.
         -2   -1    0    0    0  501 -0.00000000000E+00 -0.00000000000E+00 -0.23928218021E+03  0.23928218022E+03  0.25500000000E-02 0. -1.
    5000001    1    1    2    0    0 -0.74905949963E+02 -0.98173524753E+02  0.87972385741E+02  0.22408275917E+03  0.16500000000E+03 0.  0.
   -5000001    1    1    2    0    0  0.74905949963E+02  0.98173524753E+02 -0.10921290708E+03  0.23324107995E+03  0.16500000000E+03 0.  0.
<mgrwt>
<rscale>  0 0.45683031E+03</rscale>
<asrwt>0</asrwt>
<pdfrwt beam="1">  1        2 0.31148808E-01 0.45683031E+03</pdfrwt>
<pdfrwt beam="2">  1       -2 0.34183169E-01 0.45683031E+03</pdfrwt>
<totfact> 0.13621285E+03</totfact>
</mgrwt>
</event>
<event>
 4    1  0.5312547E-005  0.4281611E+03  0.7818608E-02  0.1034442E+00
          2   -1    0    0  501    0  0.00000000000E+00  0.00000000000E+00  0.31704651409E+03  0.31704651410E+03  0.25500000000E-02 0.  1.
         -2   -1    0    0    0  501 -0.00000000000E+00 -0.00000000000E+00 -0.14455444635E+03  0.14455444638E+03  0.25500000000E-02 0. -1.
    5000001    1    1    2    0    0 -0.30362391369E+02 -0.13112501689E+03  0.11010688486E+03  0.23971685581E+03  0.16500000000E+03 0.  0.
   -5000001    1    1    2    0    0  0.30362391369E+02  0.13112501689E+03  0.62385182870E+02  0.22188410467E+03  0.16500000000E+03 0.  0.
<mgrwt>
<rscale>  0 0.42816111E+03</rscale>
<asrwt>0</asrwt>
<pdfrwt beam="1">  1        2 0.45292360E-01 0.42816111E+03</pdfrwt>
<pdfrwt beam="2">  1       -2 0.20650635E-01 0.42816111E+03</pdfrwt>
<totfact> 0.22370825E+03</totfact>
</mgrwt>
</event>
<event>
 4    1  0.5312547E-005  0.5426827E+03  0.7818608E-02  0.1003202E+00
          2   -1    0    0  501    0  0.00000000000E+00  0.00000000000E+00  0.32868999634E+03  0.32868999635E+03  0.25500000000E-02 0.  1.
         -2   -1    0    0    0  501 -0.00000000000E+00 -0.00000000000E+00 -0.22399866797E+03  0.22399866799E+03  0.25500000000E-02 0. -1.
    5000001    1    1    2    0    0  0.19161642871E+03  0.85150662093E+02  0.10258708440E+03  0.28586115667E+03  0.16500000000E+03 0.  0.
   -5000001    1    1    2    0    0 -0.19161642871E+03 -0.85150662093E+02  0.21042439692E+01  0.26682750767E+03  0.16500000000E+03 0.  0.
<mgrwt>
<rscale>  0 0.54268267E+03</rscale>
<asrwt>0</asrwt>
<pdfrwt beam="1">  1        2 0.46955714E-01 0.54268267E+03</pdfrwt>
<pdfrwt beam="2">  1       -2 0.31999809E-01 0.54268267E+03</pdfrwt>
<totfact> 0.98024014E+02</totfact>
</mgrwt>
</event>
<event>
 4    1  0.5312547E-005  0.7502976E+03  0.7818608E-02  0.9634884E-01
         -2   -1    0    0    0  501 -0.00000000000E+00  0.00000000000E+00  0.96261794068E+02  0.96261794102E+02  0.25500000000E-02 0. -1.
          2   -1    0    0  501    0  0.00000000000E+00 -0.00000000000E+00 -0.14620193403E+04  0.14620193403E+04  0.25500000000E-02 0.  1.
    5000001    1    1    2    0    0 -0.20295733518E+03 -0.24009064462E+03 -0.93448544798E+03  0.99966156774E+03  0.16500000000E+03 0.  0.
   -5000001    1    1    2    0    0  0.20295733518E+03  0.24009064462E+03 -0.43127209829E+03  0.55861956670E+03  0.16500000000E+03 0.  0.
<mgrwt>
<rscale>  0 0.75029755E+03</rscale>
<asrwt>0</asrwt>
<pdfrwt beam="1">  1        2 0.20885989E+00 0.75029755E+03</pdfrwt>
<pdfrwt beam="2">  1       -2 0.13751686E-01 0.75029755E+03</pdfrwt>
<totfact> 0.62688858E+02</totfact>
</mgrwt>
</event>
<event>
 4    1  0.5312547E-005  0.5682266E+03  0.7818608E-02  0.9973611E-01
         -2   -1    0    0    0  501 -0.00000000000E+00  0.00000000000E+00  0.18132451871E+03  0.18132451873E+03  0.25500000000E-02 0. -1.
          2   -1    0    0  501    0  0.00000000000E+00 -0.00000000000E+00 -0.44517071041E+03  0.44517071041E+03  0.25500000000E-02 0.  1.
    5000001    1    1    2    0    0 -0.10330358818E+03  0.18860865007E+03 -0.38041489822E+02  0.27370971697E+03  0.16500000000E+03 0.  0.
   -5000001    1    1    2    0    0  0.10330358818E+03 -0.18860865007E+03 -0.22580470187E+03  0.35278551218E+03  0.16500000000E+03 0.  0.
<mgrwt>
<rscale>  0 0.56822659E+03</rscale>
<asrwt>0</asrwt>
<pdfrwt beam="1">  1        2 0.63595815E-01 0.56822659E+03</pdfrwt>
<pdfrwt beam="2">  1       -2 0.25903503E-01 0.56822659E+03</pdfrwt>
<totfact> 0.10316941E+03</totfact>
</mgrwt>
</event>
<event>
 4    1  0.5312547E-005  0.5313267E+03  0.7818608E-02  0.1005911E+00
          2   -1    0    0  501    0  0.00000000000E+00  0.00000000000E+00  0.13873111292E+03  0.13873111295E+03  0.25500000000E-02 0. -1.
         -2   -1    0    0    0  501 -0.00000000000E+00 -0.00000000000E+00 -0.50873244602E+03  0.50873244602E+03  0.25500000000E-02 0.  1.
    5000001    1    1    2    0    0 -0.19264397586E+03 -0.30724182751E+01 -0.88811031235E+02  0.26876298193E+03  0.16500000000E+03 0.  0.
   -5000001    1    1    2    0    0  0.19264397586E+03  0.30724182751E+01 -0.28119030186E+03  0.37870057704E+03  0.16500000000E+03 0.  0.
<mgrwt>
<rscale>  0 0.53132671E+03</rscale>
<asrwt>0</asrwt>
<pdfrwt beam="1">  1        2 0.19818731E-01 0.53132671E+03</pdfrwt>
<pdfrwt beam="2">  1       -2 0.72676063E-01 0.53132671E+03</pdfrwt>
<totfact> 0.49594771E+02</totfact>
</mgrwt>
</event>
<event>
 4    1  0.5312547E-005  0.4606639E+03  0.7818608E-02  0.1024589E+00
         -2   -1    0    0    0  501 -0.00000000000E+00  0.00000000000E+00  0.20956060312E+02  0.20956060468E+02  0.25500000000E-02 0. -1.
          2   -1    0    0  501    0  0.00000000000E+00 -0.00000000000E+00 -0.25316216371E+04  0.25316216371E+04  0.25500000000E-02 0.  1.
    5000001    1    1    2    0    0 -0.98902447525E+02  0.45190777496E+02 -0.59961118198E+03  0.63133388160E+03  0.16500000000E+03 0.  0.
   -5000001    1    1    2    0    0  0.98902447525E+02 -0.45190777496E+02 -0.19110543948E+04  0.19212438160E+04  0.16500000000E+03 0.  0.
<mgrwt>
<rscale>  0 0.46066394E+03</rscale>
<asrwt>0</asrwt>
<pdfrwt beam="1">  1        2 0.36166004E+00 0.46066394E+03</pdfrwt>
<pdfrwt beam="2">  1       -2 0.29937245E-02 0.46066394E+03</pdfrwt>
<totfact> 0.20247738E+03</totfact>
</mgrwt>
</event>
<event>
 4    1  0.5312547E-005  0.7164670E+03  0.7818608E-02  0.9689479E-01
         -2   -1    0    0    0  501 -0.00000000000E+00  0.00000000000E+00  0.57061866674E+02  0.57061866731E+02  0.25500000000E-02 0. -1.
          2   -1    0    0  501    0  0.00000000000E+00 -0.00000000000E+00 -0.22489839678E+04  0.22489839678E+04  0.25500000000E-02 0.  1.
    5000001    1    1    2    0    0 -0.12080463805E+03 -0.28728080085E+03 -0.12990720949E+04  0.13460822140E+04  0.16500000000E+03 0.  0.
   -5000001    1    1    2    0    0  0.12080463805E+03  0.28728080085E+03 -0.89285000615E+03  0.95996362045E+03  0.16500000000E+03 0.  0.
<mgrwt>
<rscale>  0 0.71646695E+03</rscale>
<asrwt>0</asrwt>
<pdfrwt beam="1">  1        2 0.32128337E+00 0.71646695E+03</pdfrwt>
<pdfrwt beam="2">  1       -2 0.81516967E-02 0.71646695E+03</pdfrwt>
<totfact> 0.58565074E+02</totfact>
</mgrwt>
</event>
<event>
 4    1  0.5312547E-005  0.5068409E+03  0.7818608E-02  0.1012009E+00
          2   -1    0    0  501    0  0.00000000000E+00  0.00000000000E+00  0.22979761726E+03  0.22979761728E+03  0.25500000000E-02 0.  1.
         -2   -1    0    0    0  501 -0.00000000000E+00 -0.00000000000E+00 -0.27947164589E+03  0.27947164590E+03  0.25500000000E-02 0. -1.
    5000001    1    1    2    0    0 -0.16322561640E+03  0.71645929545E+02 -0.97440931261E+02  0.26171640406E+03  0.16500000000E+03 0.  0.
   -5000001    1    1    2    0    0  0.16322561640E+03 -0.71645929545E+02  0.47766902638E+02  0.24755285912E+03  0.16500000000E+03 0.  0.
<mgrwt>
<rscale>  0 0.50684088E+03</rscale>
<asrwt>0</asrwt>
<pdfrwt beam="1">  1        2 0.32828231E-01 0.50684088E+03</pdfrwt>
<pdfrwt beam="2">  1       -2 0.39924521E-01 0.50684088E+03</pdfrwt>
<totfact> 0.95621715E+02</totfact>
</mgrwt>
</event>
<event>
 4    1  0.5312547E-005  0.4446014E+03  0.7818608E-02  0.1029344E+00
         -2   -1    0    0    0  501 -0.00000000000E+00  0.00000000000E+00  0.11827950486E+03  0.11827950488E+03  0.25500000000E-02 0. -1.
          2   -1    0    0  501    0  0.00000000000E+00 -0.00000000000E+00 -0.41780359377E+03  0.41780359378E+03  0.25500000000E-02 0.  1.
    5000001    1    1    2    0    0  0.88483688727E+02 -0.11601857832E+03 -0.11353040629E+03  0.24779795568E+03  0.16500000000E+03 0.  0.
   -5000001    1    1    2    0    0 -0.88483688727E+02  0.11601857832E+03 -0.18599368262E+03  0.28828514298E+03  0.16500000000E+03 0.  0.
<mgrwt>
<rscale>  0 0.44460140E+03</rscale>
<asrwt>0</asrwt>
<pdfrwt beam="1">  1        2 0.59686227E-01 0.44460140E+03</pdfrwt>
<pdfrwt beam="2">  1       -2 0.16897072E-01 0.44460140E+03</pdfrwt>
<totfact> 0.23324828E+03</totfact>
</mgrwt>
</event>
<event>
 4    1  0.5312547E-005  0.4358101E+03  0.7818608E-02  0.1032040E+00
          2   -1    0    0  501    0  0.00000000000E+00  0.00000000000E+00  0.10444784688E+04  0.10444784688E+04  0.25500000000E-02 0.  1.
         -2   -1    0    0    0  501 -0.00000000000E+00 -0.00000000000E+00 -0.45460596885E+02  0.45460596956E+02  0.25500000000E-02 0. -1.
    5000001    1    1    2    0    0 -0.11621588661E+03  0.19726481764E+02  0.30002238117E+03  0.36212386774E+03  0.16500000000E+03 0.  0.
   -5000001    1    1    2    0    0  0.11621588661E+03 -0.19726481764E+02  0.69899549072E+03  0.72781519800E+03  0.16500000000E+03 0.  0.
<mgrwt>
<rscale>  0 0.43581012E+03</rscale>
<asrwt>0</asrwt>
<pdfrwt beam="1">  1        2 0.14921118E+00 0.43581012E+03</pdfrwt>
<pdfrwt beam="2">  1       -2 0.64943721E-02 0.43581012E+03</pdfrwt>
<totfact> 0.36082591E+03</totfact>
</mgrwt>
</event>
<event>
 4    1  0.5312547E-005  0.6162592E+03  0.7818608E-02  0.9872236E-01
         -2   -1    0    0    0  501 -0.00000000000E+00  0.00000000000E+00  0.68881769483E+03  0.68881769483E+03  0.25500000000E-02 0. -1.
          2   -1    0    0  501    0  0.00000000000E+00 -0.00000000000E+00 -0.13783597419E+03  0.13783597421E+03  0.25500000000E-02 0.  1.
    5000001    1    1    2    0    0  0.17085497294E+03 -0.17270931098E+03  0.15038055444E+03  0.32993823517E+03  0.16500000000E+03 0.  0.
   -5000001    1    1    2    0    0 -0.17085497294E+03  0.17270931098E+03  0.40060116620E+03  0.49671543386E+03  0.16500000000E+03 0.  0.
<mgrwt>
<rscale>  0 0.61625922E+03</rscale>
<asrwt>0</asrwt>
<pdfrwt beam="1">  1        2 0.19690853E-01 0.61625922E+03</pdfrwt>
<pdfrwt beam="2">  1       -2 0.98402528E-01 0.61625922E+03</pdfrwt>
<totfact> 0.25116233E+02</totfact>
</mgrwt>
</event>
<event>
 4    1  0.5312547E-005  0.4957827E+03  0.7818608E-02  0.1014886E+00
         -2   -1    0    0    0  501 -0.00000000000E+00  0.00000000000E+00  0.82759112665E+02  0.82759112705E+02  0.25500000000E-02 0. -1.
          2   -1    0    0  501    0  0.00000000000E+00 -0.00000000000E+00 -0.74251788195E+03  0.74251788195E+03  0.25500000000E-02 0.  1.
    5000001    1    1    2    0    0 -0.18281833912E+03 -0.22312685219E+02 -0.35893692633E+03  0.43586823482E+03  0.16500000000E+03 0.  0.
   -5000001    1    1    2    0    0  0.18281833912E+03  0.22312685219E+02 -0.30082184296E+03  0.38940875984E+03  0.16500000000E+03 0.  0.
<mgrwt>
<rscale>  0 0.49578270E+03</rscale>
<asrwt>0</asrwt>
<pdfrwt beam="1">  1        2 0.10607398E+00 0.49578270E+03</pdfrwt>
<pdfrwt beam="2">  1       -2 0.11822731E-01 0.49578270E+03</pdfrwt>
<totfact> 0.21755150E+03</totfact>
</mgrwt>
</event>
<event>
 4    1  0.5312547E-005  0.6012134E+03  0.7818608E-02  0.9902892E-01
         -2   -1    0    0    0  501 -0.00000000000E+00  0.00000000000E+00  0.50815529576E+02  0.50815529640E+02  0.25500000000E-02 0.  1.
          2   -1    0    0  501    0  0.00000000000E+00 -0.00000000000E+00 -0.17782826426E+04  0.17782826426E+04  0.25500000000E-02 0. -1.
    5000001    1    1    2    0    0 -0.24932142512E+03 -0.94837928901E+01 -0.77306051404E+03  0.82891415341E+03  0.16500000000E+03 0.  0.
   -5000001    1    1    2    0    0  0.24932142512E+03  0.94837928901E+01 -0.95440659902E+03  0.10001840189E+04  0.16500000000E+03 0.  0.
<mgrwt>
<rscale>  0 0.60121335E+03</rscale>
<asrwt>0</asrwt>
<pdfrwt beam="1">  1        2 0.25404034E+00 0.60121335E+03</pdfrwt>
<pdfrwt beam="2">  1       -2 0.72593625E-02 0.60121335E+03</pdfrwt>
<totfact> 0.12256035E+03</totfact>
</mgrwt>
</event>
<event>
 4    1  0.5312547E-005  0.5336620E+03  0.7818608E-02  0.1005348E+00
          2   -1    0    0  501    0  0.00000000000E+00  0.00000000000E+00  0.18618240474E+03  0.18618240476E+03  0.25500000000E-02 0.  1.
         -2   -1    0    0    0  501 -0.00000000000E+00 -0.00000000000E+00 -0.38241415476E+03  0.38241415477E+03  0.25500000000E-02 0. -1.
    5000001    1    1    2    0    0 -0.45949866811E+02  0.20236191388E+03 -0.65938704430E+02  0.27319342450E+03  0.16500000000E+03 0.  0.
   -5000001    1    1    2    0    0  0.45949866811E+02 -0.20236191388E+03 -0.13029304559E+03  0.29540313502E+03  0.16500000000E+03 0.  0.
<mgrwt>
<rscale>  0 0.53366202E+03</rscale>
<asrwt>0</asrwt>
<pdfrwt beam="1">  1        2 0.26597486E-01 0.53366202E+03</pdfrwt>
<pdfrwt beam="2">  1       -2 0.54630594E-01 0.53366202E+03</pdfrwt>
<totfact> 0.64765417E+02</totfact>
</mgrwt>
</event>
<event>
 4    1  0.5312547E-005  0.4903798E+03  0.7818608E-02  0.1016321E+00
         -2   -1    0    0    0  501 -0.00000000000E+00  0.00000000000E+00  0.51559353084E+02  0.51559353147E+02  0.25500000000E-02 0.  1.
          2   -1    0    0  501    0  0.00000000000E+00 -0.00000000000E+00 -0.11659975111E+04  0.11659975111E+04  0.25500000000E-02 0. -1.
    5000001    1    1    2    0    0 -0.15171317033E+03  0.57079415589E+02 -0.35523161437E+03  0.42389791882E+03  0.16500000000E+03 0.  0.
   -5000001    1    1    2    0    0  0.15171317033E+03 -0.57079415589E+02 -0.75920654365E+03  0.79365894543E+03  0.16500000000E+03 0.  0.
<mgrwt>
<rscale>  0 0.49037976E+03</rscale>
<asrwt>0</asrwt>
<pdfrwt beam="1">  1        2 0.16657106E+00 0.49037976E+03</pdfrwt>
<pdfrwt beam="2">  1       -2 0.73656226E-02 0.49037976E+03</pdfrwt>
<totfact> 0.25218833E+03</totfact>
</mgrwt>
</event>
<event>
 4    1  0.5312547E-005  0.6254811E+03  0.7818608E-02  0.9853907E-01
          2   -1    0    0  501    0  0.00000000000E+00  0.00000000000E+00  0.24834728719E+04  0.24834728719E+04  0.25500000000E-02 0.  1.
         -2   -1    0    0    0  501 -0.00000000000E+00 -0.00000000000E+00 -0.39383012947E+02  0.39383013030E+02  0.25500000000E-02 0. -1.
    5000001    1    1    2    0    0  0.23343840103E+03  0.11245096465E+03  0.14587147378E+04  0.14907086881E+04  0.16500000000E+03 0.  0.
   -5000001    1    1    2    0    0 -0.23343840103E+03 -0.11245096465E+03  0.98537512120E+03  0.10321471969E+04  0.16500000000E+03 0.  0.
<mgrwt>
<rscale>  0 0.62548108E+03</rscale>
<asrwt>0</asrwt>
<pdfrwt beam="1">  1        2 0.35478191E+00 0.62548108E+03</pdfrwt>
<pdfrwt beam="2">  1       -2 0.56261436E-02 0.62548108E+03</pdfrwt>
<totfact> 0.80445976E+02</totfact>
</mgrwt>
</event>
<event>
 4    1  0.5312547E-005  0.5874634E+03  0.7818608E-02  0.9931762E-01
         -2   -1    0    0    0  501 -0.00000000000E+00  0.00000000000E+00  0.45445744135E+02  0.45445744206E+02  0.25500000000E-02 0. -1.
          2   -1    0    0  501    0  0.00000000000E+00 -0.00000000000E+00 -0.18984907717E+04  0.18984907717E+04  0.25500000000E-02 0.  1.
    5000001    1    1    2    0    0  0.68844788542E+02 -0.22787799167E+03 -0.10881356091E+04  0.11260249055E+04  0.16500000000E+03 0.  0.
   -5000001    1    1    2    0    0 -0.68844788542E+02  0.22787799167E+03 -0.76490941851E+03  0.81791161046E+03  0.16500000000E+03 0.  0.
<mgrwt>
<rscale>  0 0.58746345E+03</rscale>
<asrwt>0</asrwt>
<pdfrwt beam="1">  1        2 0.27121292E+00 0.58746345E+03</pdfrwt>
<pdfrwt beam="2">  1       -2 0.64922504E-02 0.58746345E+03</pdfrwt>
<totfact> 0.12723134E+03</totfact>
</mgrwt>
</event>
<event>
 4    1  0.5312547E-005  0.9194281E+03  0.7818608E-02  0.9401616E-01
         -2   -1    0    0    0  501 -0.00000000000E+00  0.00000000000E+00  0.14932308612E+04  0.14932308612E+04  0.25500000000E-02 0. -1.
          2   -1    0    0  501    0  0.00000000000E+00 -0.00000000000E+00 -0.14153003252E+03  0.14153003254E+03  0.25500000000E-02 0.  1.
    5000001    1    1    2    0    0 -0.31891961974E+03 -0.20765021783E+03  0.32344504212E+03  0.52599432705E+03  0.16500000000E+03 0.  0.
   -5000001    1    1    2    0    0  0.31891961974E+03  0.20765021783E+03  0.10282557865E+04  0.11087665667E+04  0.16500000000E+03 0.  0.
<mgrwt>
<rscale>  0 0.91942811E+03</rscale>
<asrwt>0</asrwt>
<pdfrwt beam="1">  1        2 0.20218576E-01 0.91942811E+03</pdfrwt>
<pdfrwt beam="2">  1       -2 0.21331869E+00 0.91942811E+03</pdfrwt>
<totfact> 0.30838052E+01</totfact>
</mgrwt>
</event>
<event>
 4    1  0.5312547E-005  0.6163697E+03  0.7818608E-02  0.9872014E-01
          2   -1    0    0  501    0  0.00000000000E+00  0.00000000000E+00  0.69162609623E+03  0.69162609624E+03  0.25500000000E-02 0.  1.
         -2   -1    0    0    0  501 -0.00000000000E+00 -0.00000000000E+00 -0.13732552315E+03  0.13732552317E+03  0.25500000000E-02 0. -1.
    5000001    1    1    2    0    0  0.16147847671E+02  0.14985903489E+03  0.56255439287E+03  0.60531886495E+03  0.16500000000E+03 0.  0.
   -5000001    1    1    2    0    0 -0.16147847671E+02 -0.14985903489E+03 -0.82538197882E+01  0.22363275445E+03  0.16500000000E+03 0.  0.
<mgrwt>
<rscale>  0 0.61636974E+03</rscale>
<asrwt>0</asrwt>
<pdfrwt beam="1">  1        2 0.98803730E-01 0.61636974E+03</pdfrwt>
<pdfrwt beam="2">  1       -2 0.19617932E-01 0.61636974E+03</pdfrwt>
<totfact> 0.10106760E+03</totfact>
</mgrwt>
</event>
<event>
 4    1  0.5312547E-005  0.3686893E+03  0.7818608E-02  0.1055195E+00
         -2   -1    0    0    0  501 -0.00000000000E+00  0.00000000000E+00  0.42874535360E+02  0.42874535436E+02  0.25500000000E-02 0. -1.
          2   -1    0    0  501    0  0.00000000000E+00 -0.00000000000E+00 -0.79261387952E+03  0.79261387953E+03  0.25500000000E-02 0.  1.
    5000001    1    1    2    0    0 -0.39754778089E+02 -0.49782240720E+02 -0.49260328554E+03  0.52339441227E+03  0.16500000000E+03 0.  0.
   -5000001    1    1    2    0    0  0.39754778089E+02  0.49782240720E+02 -0.25713605863E+03  0.31209400270E+03  0.16500000000E+03 0.  0.
<mgrwt>
<rscale>  0 0.36868931E+03</rscale>
<asrwt>0</asrwt>
<pdfrwt beam="1">  1        2 0.11323055E+00 0.36868931E+03</pdfrwt>
<pdfrwt beam="2">  1       -2 0.61249341E-02 0.36868931E+03</pdfrwt>
<totfact> 0.56857131E+03</totfact>
</mgrwt>
</event>
<event>
 4    1  0.5312547E-005  0.4220078E+03  0.7818608E-02  0.1036415E+00
          2   -1    0    0  501    0  0.00000000000E+00  0.00000000000E+00  0.53610046172E+03  0.53610046172E+03  0.25500000000E-02 0.  1.
         -2   -1    0    0    0  501 -0.00000000000E+00 -0.00000000000E+00 -0.83049068633E+02  0.83049068673E+02  0.25500000000E-02 0. -1.
    5000001    1    1    2    0    0  0.44049007471E+02  0.12306602434E+03  0.20515947893E+03  0.29394042458E+03  0.16500000000E+03 0.  0.
   -5000001    1    1    2    0    0 -0.44049007471E+02 -0.12306602434E+03  0.24789191415E+03  0.32520910582E+03  0.16500000000E+03 0.  0.
<mgrwt>
<rscale>  0 0.42200779E+03</rscale>
<asrwt>0</asrwt>
<pdfrwt beam="1">  1        2 0.76585782E-01 0.42200779E+03</pdfrwt>
<pdfrwt beam="2">  1       -2 0.11864152E-01 0.42200779E+03</pdfrwt>
<totfact> 0.31740449E+03</totfact>
</mgrwt>
</event>
<event>
 4    1  0.5312547E-005  0.8696151E+03  0.7818608E-02  0.9464382E-01
          2   -1    0    0  501    0  0.00000000000E+00  0.00000000000E+00  0.57525598583E+03  0.57525598583E+03  0.25500000000E-02 0.  1.
         -2   -1    0    0    0  501 -0.00000000000E+00 -0.00000000000E+00 -0.32864951485E+03  0.32864951486E+03  0.25500000000E-02 0. -1.
    5000001    1    1    2    0    0  0.11875891766E+03  0.37108005718E+03  0.19211991973E+02  0.42355423501E+03  0.16500000000E+03 0.  0.
   -5000001    1    1    2    0    0 -0.11875891766E+03 -0.37108005718E+03  0.22739447901E+03  0.48035126568E+03  0.16500000000E+03 0.  0.
<mgrwt>
<rscale>  0 0.86961509E+03</rscale>
<asrwt>0</asrwt>
<pdfrwt beam="1">  1        2 0.82179426E-01 0.86961509E+03</pdfrwt>
<pdfrwt beam="2">  1       -2 0.46949931E-01 0.86961509E+03</pdfrwt>
<totfact> 0.24615859E+02</totfact>
</mgrwt>
</event>
<event>
 4    1  0.5312547E-005  0.6919197E+03  0.7818608E-02  0.9731151E-01
         -2   -1    0    0    0  501 -0.00000000000E+00  0.00000000000E+00  0.29500890727E+03  0.29500890728E+03  0.25500000000E-02 0. -1.
          2   -1    0    0  501    0  0.00000000000E+00 -0.00000000000E+00 -0.40571048817E+03  0.40571048818E+03  0.25500000000E-02 0.  1.
    5000001    1    1    2    0    0  0.29699074881E+03 -0.37628373995E+02 -0.13452115226E+01  0.34182774756E+03  0.16500000000E+03 0.  0.
   -5000001    1    1    2    0    0 -0.29699074881E+03  0.37628373995E+02 -0.10935636938E+03  0.35889164790E+03  0.16500000000E+03 0.  0.
<mgrwt>
<rscale>  0 0.69191967E+03</rscale>
<asrwt>0</asrwt>
<pdfrwt beam="1">  1        2 0.57958641E-01 0.69191967E+03</pdfrwt>
<pdfrwt beam="2">  1       -2 0.42144130E-01 0.69191967E+03</pdfrwt>
<totfact> 0.45738238E+02</totfact>
</mgrwt>
</event>
<event>
 4    1  0.5312547E-005  0.4101528E+03  0.7818608E-02  0.1040320E+00
          2   -1    0    0  501    0  0.00000000000E+00  0.00000000000E+00  0.80544356442E+03  0.80544356442E+03  0.25500000000E-02 0.  1.
         -2   -1    0    0    0  501 -0.00000000000E+00 -0.00000000000E+00 -0.52215121163E+02  0.52215121225E+02  0.25500000000E-02 0. -1.
    5000001    1    1    2    0    0 -0.93900165423E+02  0.77548245188E+02  0.37787223418E+03  0.42993417724E+03  0.16500000000E+03 0.  0.
   -5000001    1    1    2    0    0  0.93900165423E+02 -0.77548245188E+02  0.37535620908E+03  0.42772450841E+03  0.16500000000E+03 0.  0.
<mgrwt>
<rscale>  0 0.41015282E+03</rscale>
<asrwt>0</asrwt>
<pdfrwt beam="1">  1        2 0.11506336E+00 0.41015282E+03</pdfrwt>
<pdfrwt beam="2">  1       -2 0.74593038E-02 0.41015282E+03</pdfrwt>
<totfact> 0.41049294E+03</totfact>
</mgrwt>
</event>
<event>
 4    1  0.5312547E-005  0.4346316E+03  0.7818608E-02  0.1032407E+00
          2   -1    0    0  501    0  0.00000000000E+00  0.00000000000E+00  0.25851593033E+04  0.25851593033E+04  0.25500000000E-02 0.  1.
         -2   -1    0    0    0  501 -0.00000000000E+00 -0.00000000000E+00 -0.18268183338E+02  0.18268183516E+02  0.25500000000E-02 0. -1.
    5000001    1    1    2    0    0  0.86306350536E+02  0.10800813163E+03  0.14618038632E+04  0.14775689754E+04  0.16500000000E+03 0.  0.
   -5000001    1    1    2    0    0 -0.86306350536E+02 -0.10800813163E+03  0.11050872568E+04  0.11258585114E+04  0.16500000000E+03 0.  0.
<mgrwt>
<rscale>  0 0.43463163E+03</rscale>
<asrwt>0</asrwt>
<pdfrwt beam="1">  1        2 0.36930863E+00 0.43463163E+03</pdfrwt>
<pdfrwt beam="2">  1       -2 0.26097393E-02 0.43463163E+03</pdfrwt>
<totfact> 0.23415405E+03</totfact>
</mgrwt>
</event>
<event>
 4    1  0.5312547E-005  0.2030134E+04  0.7818608E-02  0.8592660E-01
          2   -1    0    0  501    0  0.00000000000E+00  0.00000000000E+00  0.12286682996E+04  0.12286682996E+04  0.25500000000E-02 0.  1.
         -2   -1    0    0    0  501 -0.00000000000E+00 -0.00000000000E+00 -0.83859995157E+03  0.83859995158E+03  0.25500000000E-02 0. -1.
    5000001    1    1    2    0    0  0.61463192320E+03 -0.36869430282E+03 -0.51735388125E+03  0.89921517358E+03  0.16500000000E+03 0.  0.
   -5000001    1    1    2    0    0 -0.61463192320E+03  0.36869430282E+03  0.90742222931E+03  0.11680530776E+04  0.16500000000E+03 0.  0.
<mgrwt>
<rscale>  0 0.20301342E+04</rscale>
<asrwt>0</asrwt>
<pdfrwt beam="1">  1        2 0.17552404E+00 0.20301342E+04</pdfrwt>
<pdfrwt beam="2">  1       -2 0.11979999E+00 0.20301342E+04</pdfrwt>
<totfact> 0.10215355E+01</totfact>
</mgrwt>
</event>
<event>
 4    1  0.5312547E-005  0.4030988E+03  0.7818608E-02  0.1042712E+00
         -2   -1    0    0    0  501 -0.00000000000E+00  0.00000000000E+00  0.37969327115E+02  0.37969327200E+02  0.25500000000E-02 0. -1.
          2   -1    0    0  501    0  0.00000000000E+00 -0.00000000000E+00 -0.10698678571E+04  0.10698678571E+04  0.25500000000E-02 0.  1.
    5000001    1    1    2    0    0 -0.74551665252E+02  0.13246076551E+02 -0.27535504965E+03  0.32981633178E+03  0.16500000000E+03 0.  0.
   -5000001    1    1    2    0    0  0.74551665252E+02 -0.13246076551E+02 -0.75654348032E+03  0.77802085252E+03  0.16500000000E+03 0.  0.
<mgrwt>
<rscale>  0 0.40309881E+03</rscale>
<asrwt>0</asrwt>
<pdfrwt beam="1">  1        2 0.15283825E+00 0.40309881E+03</pdfrwt>
<pdfrwt beam="2">  1       -2 0.54241903E-02 0.40309881E+03</pdfrwt>
<totfact> 0.46076458E+03</totfact>
</mgrwt>
</event>
<event>
 4    1  0.5312547E-005  0.4370120E+03  0.7818608E-02  0.1031668E+00
         -2   -1    0    0    0  501 -0.00000000000E+00  0.00000000000E+00  0.33926665998E+02  0.33926666094E+02  0.25500000000E-02 0. -1.
          2   -1    0    0  501    0  0.00000000000E+00 -0.00000000000E+00 -0.14072963682E+04  0.14072963682E+04  0.25500000000E-02 0.  1.
    5000001    1    1    2    0    0  0.10789873907E+03 -0.75919990174E+02 -0.50265446607E+03  0.54524535309E+03  0.16500000000E+03 0.  0.
   -5000001    1    1    2    0    0 -0.10789873907E+03  0.75919990174E+02 -0.87071523618E+03  0.89597768126E+03  0.16500000000E+03 0.  0.
<mgrwt>
<rscale>  0 0.43701201E+03</rscale>
<asrwt>0</asrwt>
<pdfrwt beam="1">  1        2 0.20104230E+00 0.43701201E+03</pdfrwt>
<pdfrwt beam="2">  1       -2 0.48466675E-02 0.43701201E+03</pdfrwt>
<totfact> 0.35815151E+03</totfact>
</mgrwt>
</event>
<event>
 4    1  0.5312547E-005  0.1537082E+04  0.7818608E-02  0.8860162E-01
         -2   -1    0    0    0  501 -0.00000000000E+00  0.00000000000E+00  0.48511436889E+03  0.48511436889E+03  0.25500000000E-02 0. -1.
          2   -1    0    0  501    0  0.00000000000E+00 -0.00000000000E+00 -0.12175587096E+04  0.12175587096E+04  0.25500000000E-02 0.  1.
    5000001    1    1    2    0    0  0.73915957327E+03 -0.94448120287E+02 -0.46624298368E+03  0.89436281341E+03  0.16500000000E+03 0.  0.
   -5000001    1    1    2    0    0 -0.73915957327E+03  0.94448120287E+02 -0.26620135707E+03  0.80831026512E+03  0.16500000000E+03 0.  0.
<mgrwt>
<rscale>  0 0.15370819E+04</rscale>
<asrwt>0</asrwt>
<pdfrwt beam="1">  1        2 0.17393696E+00 0.15370819E+04</pdfrwt>
<pdfrwt beam="2">  1       -2 0.69302053E-01 0.15370819E+04</pdfrwt>
<totfact> 0.38308529E+01</totfact>
</mgrwt>
</event>
<event>
 4    1  0.5312547E-005  0.1141724E+04  0.7818608E-02  0.9165453E-01
         -2   -1    0    0    0  501 -0.00000000000E+00  0.00000000000E+00  0.25881711925E+03  0.25881711926E+03  0.25500000000E-02 0. -1.
          2   -1    0    0  501    0  0.00000000000E+00 -0.00000000000E+00 -0.12591261686E+04  0.12591261686E+04  0.25500000000E-02 0.  1.
    5000001    1    1    2    0    0 -0.49112742230E+03 -0.23800503119E+03 -0.53789665105E+03  0.78384331791E+03  0.16500000000E+03 0.  0.
   -5000001    1    1    2    0    0  0.49112742230E+03  0.23800503119E+03 -0.46241239832E+03  0.73409996998E+03  0.16500000000E+03 0.  0.
<mgrwt>
<rscale>  0 0.11417240E+04</rscale>
<asrwt>0</asrwt>
<pdfrwt beam="1">  1        2 0.17987516E+00 0.11417240E+04</pdfrwt>
<pdfrwt beam="2">  1       -2 0.36973875E-01 0.11417240E+04</pdfrwt>
<totfact> 0.13490137E+02</totfact>
</mgrwt>
</event>
<event>
 4    1  0.5312547E-005  0.6157890E+03  0.7818608E-02  0.9873180E-01
          2   -1    0    0  501    0  0.00000000000E+00  0.00000000000E+00  0.73420476275E+03  0.73420476275E+03  0.25500000000E-02 0.  1.
         -2   -1    0    0    0  501 -0.00000000000E+00 -0.00000000000E+00 -0.12911798137E+03  0.12911798140E+03  0.25500000000E-02 0. -1.
    5000001    1    1    2    0    0 -0.21817272577E+03  0.19019439617E+02  0.10620158059E+03  0.29404906576E+03  0.16500000000E+03 0.  0.
   -5000001    1    1    2    0    0  0.21817272577E+03 -0.19019439617E+02  0.49888520079E+03  0.56927367840E+03  0.16500000000E+03 0.  0.
<mgrwt>
<rscale>  0 0.61578904E+03</rscale>
<asrwt>0</asrwt>
<pdfrwt beam="1">  1        2 0.10488640E+00 0.61578904E+03</pdfrwt>
<pdfrwt beam="2">  1       -2 0.18445426E-01 0.61578904E+03</pdfrwt>
<totfact> 0.10447336E+03</totfact>
</mgrwt>
</event>
<event>
 4    1  0.5312547E-005  0.5133542E+03  0.7818608E-02  0.1010351E+00
          2   -1    0    0  501    0  0.00000000000E+00  0.00000000000E+00  0.19493172856E+03  0.19493172858E+03  0.25500000000E-02 0. -1.
         -2   -1    0    0    0  501 -0.00000000000E+00 -0.00000000000E+00 -0.33798058155E+03  0.33798058156E+03  0.25500000000E-02 0.  1.
    5000001    1    1    2    0    0 -0.14821552724E+03 -0.12837618952E+03 -0.86562546855E+02  0.27049281519E+03  0.16500000000E+03 0.  0.
   -5000001    1    1    2    0    0  0.14821552724E+03  0.12837618952E+03 -0.56486306136E+02  0.26241949495E+03  0.16500000000E+03 0.  0.
<mgrwt>
<rscale>  0 0.51335422E+03</rscale>
<asrwt>0</asrwt>
<pdfrwt beam="1">  1        2 0.27847390E-01 0.51335422E+03</pdfrwt>
<pdfrwt beam="2">  1       -2 0.48282940E-01 0.51335422E+03</pdfrwt>
<totfact> 0.79045929E+02</totfact>
</mgrwt>
</event>
<event>
 4    1  0.5312547E-005  0.4819952E+03  0.7818608E-02  0.1018588E+00
         -2   -1    0    0    0  501 -0.00000000000E+00  0.00000000000E+00  0.12748793212E+04  0.12748793212E+04  0.25500000000E-02 0. -1.
          2   -1    0    0  501    0  0.00000000000E+00 -0.00000000000E+00 -0.45557125753E+02  0.45557125824E+02  0.25500000000E-02 0.  1.
    5000001    1    1    2    0    0  0.17272509008E+03 -0.31042508779E+02  0.63538816876E+03  0.67951506172E+03  0.16500000000E+03 0.  0.
   -5000001    1    1    2    0    0 -0.17272509008E+03  0.31042508779E+02  0.59393402669E+03  0.64092138531E+03  0.16500000000E+03 0.  0.
<mgrwt>
<rscale>  0 0.48199518E+03</rscale>
<asrwt>0</asrwt>
<pdfrwt beam="1">  1        2 0.65081597E-02 0.48199518E+03</pdfrwt>
<pdfrwt beam="2">  1       -2 0.18212565E+00 0.48199518E+03</pdfrwt>
<totfact> 0.20853904E+02</totfact>
</mgrwt>
</event>
<event>
 4    1  0.5312547E-005  0.8048311E+03  0.7818608E-02  0.9553051E-01
         -2   -1    0    0    0  501 -0.00000000000E+00  0.00000000000E+00  0.15423281476E+03  0.15423281478E+03  0.25500000000E-02 0. -1.
          2   -1    0    0  501    0  0.00000000000E+00 -0.00000000000E+00 -0.10499598498E+04  0.10499598498E+04  0.25500000000E-02 0.  1.
    5000001    1    1    2    0    0 -0.20990243143E+03 -0.27894612552E+03 -0.61742586126E+03  0.72822363723E+03  0.16500000000E+03 0.  0.
   -5000001    1    1    2    0    0  0.20990243143E+03  0.27894612552E+03 -0.27830117377E+03  0.47596902734E+03  0.16500000000E+03 0.  0.
<mgrwt>
<rscale>  0 0.80483107E+03</rscale>
<asrwt>0</asrwt>
<pdfrwt beam="1">  1        2 0.14999426E+00 0.80483107E+03</pdfrwt>
<pdfrwt beam="2">  1       -2 0.22033260E-01 0.80483107E+03</pdfrwt>
<totfact> 0.47192724E+02</totfact>
</mgrwt>
</event>
<event>
 4    1  0.5312547E-005  0.1007448E+04  0.7818608E-02  0.9300413E-01
         -2   -1    0    0    0  501 -0.00000000000E+00  0.00000000000E+00  0.74136092122E+03  0.74136092122E+03  0.25500000000E-02 0. -1.
          2   -1    0    0  501    0  0.00000000000E+00 -0.00000000000E+00 -0.34225988349E+03  0.34225988350E+03  0.25500000000E-02 0.  1.
    5000001    1    1    2    0    0  0.13444941140E+03 -0.14072974461E+03  0.66670628754E+03  0.71386537883E+03  0.16500000000E+03 0.  0.
   -5000001    1    1    2    0    0 -0.13444941140E+03  0.14072974461E+03 -0.26760524981E+03  0.36975542589E+03  0.16500000000E+03 0.  0.
<mgrwt>
<rscale>  0 0.10074485E+04</rscale>
<asrwt>0</asrwt>
<pdfrwt beam="1">  1        2 0.48894270E-01 0.10074485E+04</pdfrwt>
<pdfrwt beam="2">  1       -2 0.10590870E+00 0.10074485E+04</pdfrwt>
<totfact> 0.74025927E+01</totfact>
</mgrwt>
</event>
<event>
 4    1  0.5312547E-005  0.6397788E+03  0.7818608E-02  0.9826150E-01
         -2   -1    0    0    0  501 -0.00000000000E+00  0.00000000000E+00  0.52946653827E+03  0.52946653828E+03  0.25500000000E-02 0. -1.
          2   -1    0    0  501    0  0.00000000000E+00 -0.00000000000E+00 -0.19326856100E+03  0.19326856102E+03  0.25500000000E-02 0.  1.
    5000001    1    1    2    0    0 -0.77838723928E+02  0.24325558846E+03  0.55857404518E+02  0.30915562084E+03  0.16500000000E+03 0.  0.
   -5000001    1    1    2    0    0  0.77838723928E+02 -0.24325558846E+03  0.28034057275E+03  0.41357947845E+03  0.16500000000E+03 0.  0.
<mgrwt>
<rscale>  0 0.63977882E+03</rscale>
<asrwt>0</asrwt>
<pdfrwt beam="1">  1        2 0.27609794E-01 0.63977882E+03</pdfrwt>
<pdfrwt beam="2">  1       -2 0.75638077E-01 0.63977882E+03</pdfrwt>
<totfact> 0.30952360E+02</totfact>
</mgrwt>
</event>
<event>
 4    1  0.5312547E-005  0.1344443E+04  0.7818608E-02  0.8995045E-01
         -2   -1    0    0    0  501 -0.00000000000E+00  0.00000000000E+00  0.74575890458E+03  0.74575890458E+03  0.25500000000E-02 0. -1.
          2   -1    0    0  501    0  0.00000000000E+00 -0.00000000000E+00 -0.60593531897E+03  0.60593531898E+03  0.25500000000E-02 0.  1.
    5000001    1    1    2    0    0 -0.83511462781E+02  0.64537354557E+03  0.35441569595E+02  0.67228140134E+03  0.16500000000E+03 0.  0.
   -5000001    1    1    2    0    0  0.83511462781E+02 -0.64537354557E+03  0.10438201601E+03  0.67941282222E+03  0.16500000000E+03 0.  0.
<mgrwt>
<rscale>  0 0.13444429E+04</rscale>
<asrwt>0</asrwt>
<pdfrwt beam="1">  1        2 0.86562189E-01 0.13444429E+04</pdfrwt>
<pdfrwt beam="2">  1       -2 0.10653699E+00 0.13444429E+04</pdfrwt>
<totfact> 0.37257094E+01</totfact>
</mgrwt>
</event>
<event>
 4    1  0.5312547E-005  0.4123573E+03  0.7818608E-02  0.1039583E+00
          2   -1    0    0  501    0  0.00000000000E+00  0.00000000000E+00  0.20871252109E+04  0.20871252109E+04  0.25500000000E-02 0.  1.
         -2   -1    0    0    0  501 -0.00000000000E+00 -0.00000000000E+00 -0.20367553872E+02  0.20367554031E+02  0.25500000000E-02 0. -1.
    5000001    1    1    2    0    0  0.12211532176E+03  0.90928249486E+01  0.94637374189E+03  0.96842299158E+03  0.16500000000E+03 0.  0.
   -5000001    1    1    2    0    0 -0.12211532176E+03 -0.90928249486E+01  0.11203839151E+04  0.11390697733E+04  0.16500000000E+03 0.  0.
<mgrwt>
<rscale>  0 0.41235730E+03</rscale>
<asrwt>0</asrwt>
<pdfrwt beam="1">  1        2 0.29816048E+00 0.41235730E+03</pdfrwt>
<pdfrwt beam="2">  1       -2 0.29096532E-02 0.41235730E+03</pdfrwt>
<totfact> 0.35387155E+03</totfact>
</mgrwt>
</event>
<event>
 4    1  0.5312547E-005  0.4546043E+03  0.7818608E-02  0.1026358E+00
          2   -1    0    0  501    0  0.00000000000E+00  0.00000000000E+00  0.10479397741E+04  0.10479397741E+04  0.25500000000E-02 0.  1.
         -2   -1    0    0    0  501 -0.00000000000E+00 -0.00000000000E+00 -0.49302715452E+02  0.49302715518E+02  0.25500000000E-02 0. -1.
    5000001    1    1    2    0    0  0.65979895964E+01 -0.56659128679E+02  0.85064328708E+03  0.86837364779E+03  0.16500000000E+03 0.  0.
   -5000001    1    1    2    0    0 -0.65979895964E+01  0.56659128679E+02  0.14799377153E+03  0.22886884179E+03  0.16500000000E+03 0.  0.
<mgrwt>
<rscale>  0 0.45460434E+03</rscale>
<asrwt>0</asrwt>
<pdfrwt beam="1">  1        2 0.14970569E+00 0.45460434E+03</pdfrwt>
<pdfrwt beam="2">  1       -2 0.70432449E-02 0.45460434E+03</pdfrwt>
<totfact> 0.31636529E+03</totfact>
</mgrwt>
</event>
<event>
 4    1  0.5312547E-005  0.3923674E+03  0.7818608E-02  0.1046455E+00
          2   -1    0    0  501    0  0.00000000000E+00  0.00000000000E+00  0.63150621752E+03  0.63150621752E+03  0.25500000000E-02 0.  1.
         -2   -1    0    0    0  501 -0.00000000000E+00 -0.00000000000E+00 -0.60946426811E+02  0.60946426864E+02  0.25500000000E-02 0. -1.
    5000001    1    1    2    0    0  0.96894522194E+02 -0.41554785602E+02  0.30672784087E+03  0.36389877302E+03  0.16500000000E+03 0.  0.
   -5000001    1    1    2    0    0 -0.96894522194E+02  0.41554785602E+02  0.26383194983E+03  0.32855387137E+03  0.16500000000E+03 0.  0.
<mgrwt>
<rscale>  0 0.39236742E+03</rscale>
<asrwt>0</asrwt>
<pdfrwt beam="1">  1        2 0.90215167E-01 0.39236742E+03</pdfrwt>
<pdfrwt beam="2">  1       -2 0.87066331E-02 0.39236742E+03</pdfrwt>
<totfact> 0.43170031E+03</totfact>
</mgrwt>
</event>
<event>
 4    1  0.5312547E-005  0.4427271E+03  0.7818608E-02  0.1029913E+00
         -2   -1    0    0    0  501 -0.00000000000E+00  0.00000000000E+00  0.13023599683E+03  0.13023599686E+03  0.25500000000E-02 0. -1.
          2   -1    0    0  501    0  0.00000000000E+00 -0.00000000000E+00 -0.37625403318E+03  0.37625403319E+03  0.25500000000E-02 0.  1.
    5000001    1    1    2    0    0 -0.10599977961E+03  0.40720686206E+02 -0.23083094635E+03  0.30561749517E+03  0.16500000000E+03 0.  0.
   -5000001    1    1    2    0    0  0.10599977961E+03 -0.40720686206E+02 -0.15187089996E+02  0.20087253487E+03  0.16500000000E+03 0.  0.
<mgrwt>
<rscale>  0 0.44272709E+03</rscale>
<asrwt>0</asrwt>
<pdfrwt beam="1">  1        2 0.53750576E-01 0.44272709E+03</pdfrwt>
<pdfrwt beam="2">  1       -2 0.18605143E-01 0.44272709E+03</pdfrwt>
<totfact> 0.22213742E+03</totfact>
</mgrwt>
</event>
<event>
 4    1  0.5312547E-005  0.4413490E+03  0.7818608E-02  0.1030334E+00
          2   -1    0    0  501    0  0.00000000000E+00  0.00000000000E+00  0.90799742652E+03  0.90799742653E+03  0.25500000000E-02 0.  1.
         -2   -1    0    0    0  501 -0.00000000000E+00 -0.00000000000E+00 -0.53631476453E+02  0.53631476514E+02  0.25500000000E-02 0. -1.
    5000001    1    1    2    0    0 -0.11152900403E+03 -0.82461490722E+02  0.53015768984E+03  0.57230305983E+03  0.16500000000E+03 0.  0.
   -5000001    1    1    2    0    0  0.11152900403E+03  0.82461490722E+02  0.32420826023E+03  0.38932584321E+03  0.16500000000E+03 0.  0.
<mgrwt>
<rscale>  0 0.44134903E+03</rscale>
<asrwt>0</asrwt>
<pdfrwt beam="1">  1        2 0.12971391E+00 0.44134903E+03</pdfrwt>
<pdfrwt beam="2">  1       -2 0.76616398E-02 0.44134903E+03</pdfrwt>
<totfact> 0.33729007E+03</totfact>
</mgrwt>
</event>
<event>
 4    1  0.5312547E-005  0.3861982E+03  0.7818608E-02  0.1048666E+00
         -2   -1    0    0    0  501 -0.00000000000E+00  0.00000000000E+00  0.49526192334E+03  0.49526192335E+03  0.25500000000E-02 0. -1.
          2   -1    0    0  501    0  0.00000000000E+00 -0.00000000000E+00 -0.75287977328E+02  0.75287977371E+02  0.25500000000E-02 0.  1.
    5000001    1    1    2    0    0  0.48888672576E+02  0.80905053780E+02  0.25957266298E+03  0.32177429574E+03  0.16500000000E+03 0.  0.
   -5000001    1    1    2    0    0 -0.48888672576E+02 -0.80905053780E+02  0.16040128304E+03  0.24877560498E+03  0.16500000000E+03 0.  0.
<mgrwt>
<rscale>  0 0.38619823E+03</rscale>
<asrwt>0</asrwt>
<pdfrwt beam="1">  1        2 0.10755425E-01 0.38619823E+03</pdfrwt>
<pdfrwt beam="2">  1       -2 0.70751702E-01 0.38619823E+03</pdfrwt>
<totfact> 0.10986641E+03</totfact>
</mgrwt>
</event>
<event>
 4    1  0.5312547E-005  0.4697090E+03  0.7818608E-02  0.1022002E+00
          2   -1    0    0  501    0  0.00000000000E+00  0.00000000000E+00  0.26367256013E+04  0.26367256013E+04  0.25500000000E-02 0.  1.
         -2   -1    0    0    0  501 -0.00000000000E+00 -0.00000000000E+00 -0.20918612782E+02  0.20918612938E+02  0.25500000000E-02 0. -1.
    5000001    1    1    2    0    0  0.51479906277E+02  0.15807791512E+03  0.14047265403E+04  0.14241209432E+04  0.16500000000E+03 0.  0.
   -5000001    1    1    2    0    0 -0.51479906277E+02 -0.15807791512E+03  0.12110804483E+04  0.12335232710E+04  0.16500000000E+03 0.  0.
<mgrwt>
<rscale>  0 0.46970903E+03</rscale>
<asrwt>0</asrwt>
<pdfrwt beam="1">  1        2 0.37667522E+00 0.46970903E+03</pdfrwt>
<pdfrwt beam="2">  1       -2 0.29883722E-02 0.46970903E+03</pdfrwt>
<totfact> 0.17922447E+03</totfact>
</mgrwt>
</event>
<event>
 4    1  0.5312547E-005  0.4494569E+03  0.7818608E-02  0.1027884E+00
         -2   -1    0    0    0  501 -0.00000000000E+00  0.00000000000E+00  0.32299831037E+02  0.32299831137E+02  0.25500000000E-02 0. -1.
          2   -1    0    0  501    0  0.00000000000E+00 -0.00000000000E+00 -0.15635649389E+04  0.15635649389E+04  0.25500000000E-02 0.  1.
    5000001    1    1    2    0    0 -0.98649249331E+02 -0.99859322209E+02 -0.97791056588E+03  0.10016175086E+04  0.16500000000E+03 0.  0.
   -5000001    1    1    2    0    0  0.98649249331E+02  0.99859322209E+02 -0.55335454201E+03  0.59424726149E+03  0.16500000000E+03 0.  0.
<mgrwt>
<rscale>  0 0.44945693E+03</rscale>
<asrwt>0</asrwt>
<pdfrwt beam="1">  1        2 0.22336637E+00 0.44945693E+03</pdfrwt>
<pdfrwt beam="2">  1       -2 0.46142626E-02 0.44945693E+03</pdfrwt>
<totfact> 0.32067668E+03</totfact>
</mgrwt>
</event>
<event>
 4    1  0.5312547E-005  0.6433540E+03  0.7818608E-02  0.9819330E-01
         -2   -1    0    0    0  501 -0.00000000000E+00  0.00000000000E+00  0.10470972947E+03  0.10470972950E+03  0.25500000000E-02 0. -1.
          2   -1    0    0  501    0  0.00000000000E+00 -0.00000000000E+00 -0.98821863902E+03  0.98821863902E+03  0.25500000000E-02 0.  1.
    5000001    1    1    2    0    0 -0.17257844751E+03  0.20886586332E+03 -0.53233139399E+03  0.61968538988E+03  0.16500000000E+03 0.  0.
   -5000001    1    1    2    0    0  0.17257844751E+03 -0.20886586332E+03 -0.35117751556E+03  0.47324297865E+03  0.16500000000E+03 0.  0.
<mgrwt>
<rscale>  0 0.64335404E+03</rscale>
<asrwt>0</asrwt>
<pdfrwt beam="1">  1        2 0.14117409E+00 0.64335404E+03</pdfrwt>
<pdfrwt beam="2">  1       -2 0.14958533E-01 0.64335404E+03</pdfrwt>
<totfact> 0.10099716E+03</totfact>
</mgrwt>
</event>
<event>
 4    1  0.5312547E-005  0.7393651E+03  0.7818608E-02  0.9652184E-01
         -2   -1    0    0    0  501 -0.00000000000E+00  0.00000000000E+00  0.15110509091E+03  0.15110509093E+03  0.25500000000E-02 0. -1.
          2   -1    0    0  501    0  0.00000000000E+00 -0.00000000000E+00 -0.90443798564E+03  0.90443798564E+03  0.25500000000E-02 0.  1.
    5000001    1    1    2    0    0 -0.29978395290E+03  0.21330838257E+02 -0.57404568010E+03  0.66863956353E+03  0.16500000000E+03 0.  0.
   -5000001    1    1    2    0    0  0.29978395290E+03 -0.21330838257E+02 -0.17928721463E+03  0.38690351305E+03  0.16500000000E+03 0.  0.
<mgrwt>
<rscale>  0 0.73936509E+03</rscale>
<asrwt>0</asrwt>
<pdfrwt beam="1">  1        2 0.12920542E+00 0.73936509E+03</pdfrwt>
<pdfrwt beam="2">  1       -2 0.21586442E-01 0.73936509E+03</pdfrwt>
<totfact> 0.60440081E+02</totfact>
</mgrwt>
</event>
<event>
 4    1  0.5312547E-005  0.4547495E+03  0.7818608E-02  0.1026315E+00
         -2   -1    0    0    0  501 -0.00000000000E+00  0.00000000000E+00  0.73650495577E+02  0.73650495621E+02  0.25500000000E-02 0. -1.
          2   -1    0    0  501    0  0.00000000000E+00 -0.00000000000E+00 -0.70195412291E+03  0.70195412291E+03  0.25500000000E-02 0.  1.
    5000001    1    1    2    0    0  0.97983061430E+02 -0.10612534416E+03 -0.41664191824E+03  0.47082773605E+03  0.16500000000E+03 0.  0.
   -5000001    1    1    2    0    0 -0.97983061430E+02  0.10612534416E+03 -0.21166170909E+03  0.30477688248E+03  0.16500000000E+03 0.  0.
<mgrwt>
<rscale>  0 0.45474947E+03</rscale>
<asrwt>0</asrwt>
<pdfrwt beam="1">  1        2 0.10027916E+00 0.45474947E+03</pdfrwt>
<pdfrwt beam="2">  1       -2 0.10521500E-01 0.45474947E+03</pdfrwt>
<totfact> 0.28157577E+03</totfact>
</mgrwt>
</event>
<event>
 4    1  0.5312547E-005  0.5671291E+03  0.7818608E-02  0.9976052E-01
         -2   -1    0    0    0  501 -0.00000000000E+00  0.00000000000E+00  0.20217001919E+03  0.20217001920E+03  0.25500000000E-02 0. -1.
          2   -1    0    0  501    0  0.00000000000E+00 -0.00000000000E+00 -0.39772894117E+03  0.39772894117E+03  0.25500000000E-02 0.  1.
    5000001    1    1    2    0    0  0.44481604134E+02  0.22131874176E+03 -0.14765552317E+03  0.31620839977E+03  0.16500000000E+03 0.  0.
   -5000001    1    1    2    0    0 -0.44481604134E+02 -0.22131874176E+03 -0.47903398805E+02  0.28369056061E+03  0.16500000000E+03 0.  0.
<mgrwt>
<rscale>  0 0.56712915E+03</rscale>
<asrwt>0</asrwt>
<pdfrwt beam="1">  1        2 0.56818420E-01 0.56712915E+03</pdfrwt>
<pdfrwt beam="2">  1       -2 0.28881432E-01 0.56712915E+03</pdfrwt>
<totfact> 0.95968162E+02</totfact>
</mgrwt>
</event>
<event>
 4    1  0.5312547E-005  0.5586012E+03  0.7818608E-02  0.9995225E-01
         -2   -1    0    0    0  501 -0.00000000000E+00  0.00000000000E+00  0.81456030867E+02  0.81456030907E+02  0.25500000000E-02 0. -1.
          2   -1    0    0  501    0  0.00000000000E+00 -0.00000000000E+00 -0.95768027305E+03  0.95768027305E+03  0.25500000000E-02 0.  1.
    5000001    1    1    2    0    0 -0.21432423101E+03  0.17985958358E+02 -0.31297039283E+03  0.41404569493E+03  0.16500000000E+03 0.  0.
   -5000001    1    1    2    0    0  0.21432423101E+03 -0.17985958358E+02 -0.56325384935E+03  0.62509060903E+03  0.16500000000E+03 0.  0.
<mgrwt>
<rscale>  0 0.55860123E+03</rscale>
<asrwt>0</asrwt>
<pdfrwt beam="1">  1        2 0.13681146E+00 0.55860123E+03</pdfrwt>
<pdfrwt beam="2">  1       -2 0.11636576E-01 0.55860123E+03</pdfrwt>
<totfact> 0.16037917E+03</totfact>
</mgrwt>
</event>
<event>
 4    1  0.5312547E-005  0.8068647E+03  0.7818608E-02  0.9550134E-01
         -2   -1    0    0    0  501 -0.00000000000E+00  0.00000000000E+00  0.45381899697E+02  0.45381899768E+02  0.25500000000E-02 0. -1.
          2   -1    0    0  501    0  0.00000000000E+00 -0.00000000000E+00 -0.35864000683E+04  0.35864000683E+04  0.25500000000E-02 0.  1.
    5000001    1    1    2    0    0  0.35868977979E+03 -0.31517159688E+02 -0.21156871085E+04  0.21524424802E+04  0.16500000000E+03 0.  0.
   -5000001    1    1    2    0    0 -0.35868977979E+03  0.31517159688E+02 -0.14253310601E+04  0.14793394879E+04  0.16500000000E+03 0.  0.
<mgrwt>
<rscale>  0 0.80686467E+03</rscale>
<asrwt>0</asrwt>
<pdfrwt beam="1">  1        2 0.51234268E+00 0.80686467E+03</pdfrwt>
<pdfrwt beam="2">  1       -2 0.64831308E-02 0.80686467E+03</pdfrwt>
<totfact> 0.15509355E+02</totfact>
</mgrwt>
</event>
<event>
 4    1  0.5312547E-005  0.6088453E+03  0.7818608E-02  0.9887223E-01
          2   -1    0    0  501    0  0.00000000000E+00  0.00000000000E+00  0.11655208796E+04  0.11655208796E+04  0.25500000000E-02 0.  1.
         -2   -1    0    0    0  501 -0.00000000000E+00 -0.00000000000E+00 -0.79512216014E+02  0.79512216055E+02  0.25500000000E-02 0. -1.
    5000001    1    1    2    0    0  0.24974154934E+03 -0.53695873072E+02  0.57149099910E+03  0.64736469652E+03  0.16500000000E+03 0.  0.
   -5000001    1    1    2    0    0 -0.24974154934E+03  0.53695873072E+02  0.51451766446E+03  0.59766839911E+03  0.16500000000E+03 0.  0.
<mgrwt>
<rscale>  0 0.60884529E+03</rscale>
<asrwt>0</asrwt>
<pdfrwt beam="1">  1        2 0.16650298E+00 0.60884529E+03</pdfrwt>
<pdfrwt beam="2">  1       -2 0.11358889E-01 0.60884529E+03</pdfrwt>
<totfact> 0.12555235E+03</totfact>
</mgrwt>
</event>
<event>
 4    1  0.5312547E-005  0.6899012E+03  0.7818608E-02  0.9734660E-01
         -2   -1    0    0    0  501 -0.00000000000E+00  0.00000000000E+00  0.49336970413E+02  0.49336970479E+02  0.25500000000E-02 0. -1.
          2   -1    0    0  501    0  0.00000000000E+00 -0.00000000000E+00 -0.24118003532E+04  0.24118003532E+04  0.25500000000E-02 0.  1.
    5000001    1    1    2    0    0  0.16772379864E+03  0.25225814160E+03 -0.11787598352E+04  0.12281959093E+04  0.16500000000E+03 0.  0.
   -5000001    1    1    2    0    0 -0.16772379864E+03 -0.25225814160E+03 -0.11837035476E+04  0.12329414143E+04  0.16500000000E+03 0.  0.
<mgrwt>
<rscale>  0 0.68990122E+03</rscale>
<asrwt>0</asrwt>
<pdfrwt beam="1">  1        2 0.34454283E+00 0.68990122E+03</pdfrwt>
<pdfrwt beam="2">  1       -2 0.70481401E-02 0.68990122E+03</pdfrwt>
<totfact> 0.61117425E+02</totfact>
</mgrwt>
</event>
<event>
 4    1  0.5312547E-005  0.4204738E+03  0.7818608E-02  0.1036912E+00
          2   -1    0    0  501    0  0.00000000000E+00  0.00000000000E+00  0.23287664187E+03  0.23287664188E+03  0.25500000000E-02 0.  1.
         -2   -1    0    0    0  501 -0.00000000000E+00 -0.00000000000E+00 -0.18979815083E+03  0.18979815084E+03  0.25500000000E-02 0. -1.
    5000001    1    1    2    0    0  0.24002672844E+02  0.10812203684E+03 -0.47435175559E+02  0.20430760885E+03  0.16500000000E+03 0.  0.
   -5000001    1    1    2    0    0 -0.24002672844E+02 -0.10812203684E+03  0.90513666601E+02  0.21836718388E+03  0.16500000000E+03 0.  0.
<mgrwt>
<rscale>  0 0.42047381E+03</rscale>
<asrwt>0</asrwt>
<pdfrwt beam="1">  1        2 0.33268092E-01 0.42047381E+03</pdfrwt>
<pdfrwt beam="2">  1       -2 0.27114021E-01 0.42047381E+03</pdfrwt>
<totfact> 0.19380179E+03</totfact>
</mgrwt>
</event>
<event>
 4    1  0.5312547E-005  0.4147337E+03  0.7818608E-02  0.1038794E+00
         -2   -1    0    0    0  501 -0.00000000000E+00  0.00000000000E+00  0.27827295740E+02  0.27827295857E+02  0.25500000000E-02 0. -1.
          2   -1    0    0  501    0  0.00000000000E+00 -0.00000000000E+00 -0.15452817726E+04  0.15452817727E+04  0.25500000000E-02 0.  1.
    5000001    1    1    2    0    0 -0.11158857026E+03  0.41498165457E+02 -0.91053991652E+03  0.93299627348E+03  0.16500000000E+03 0.  0.
   -5000001    1    1    2    0    0  0.11158857026E+03 -0.41498165457E+02 -0.60691456039E+03  0.64011279503E+03  0.16500000000E+03 0.  0.
<mgrwt>
<rscale>  0 0.41473371E+03</rscale>
<asrwt>0</asrwt>
<pdfrwt beam="1">  1        2 0.22075449E+00 0.41473371E+03</pdfrwt>
<pdfrwt beam="2">  1       -2 0.39753289E-02 0.41473371E+03</pdfrwt>
<totfact> 0.41152441E+03</totfact>
</mgrwt>
</event>
<event>
 4    1  0.5312547E-005  0.4108819E+03  0.7818608E-02  0.1040075E+00
         -2   -1    0    0    0  501 -0.00000000000E+00  0.00000000000E+00  0.18596937099E+03  0.18596937101E+03  0.25500000000E-02 0. -1.
          2   -1    0    0  501    0  0.00000000000E+00 -0.00000000000E+00 -0.22695129923E+03  0.22695129924E+03  0.25500000000E-02 0.  1.
    5000001    1    1    2    0    0 -0.36675382309E+02  0.86909501571E+02 -0.98869261309E+02  0.21423929603E+03  0.16500000000E+03 0.  0.
   -5000001    1    1    2    0    0  0.36675382309E+02 -0.86909501571E+02  0.57887333071E+02  0.19868137422E+03  0.16500000000E+03 0.  0.
<mgrwt>
<rscale>  0 0.41088193E+03</rscale>
<asrwt>0</asrwt>
<pdfrwt beam="1">  1        2 0.32421614E-01 0.41088193E+03</pdfrwt>
<pdfrwt beam="2">  1       -2 0.26567053E-01 0.41088193E+03</pdfrwt>
<totfact> 0.20679589E+03</totfact>
</mgrwt>
</event>
<event>
 4    1  0.5312547E-005  0.5853990E+03  0.7818608E-02  0.9936170E-01
          2   -1    0    0  501    0  0.00000000000E+00  0.00000000000E+00  0.37318264038E+03  0.37318264039E+03  0.25500000000E-02 0.  1.
         -2   -1    0    0    0  501 -0.00000000000E+00 -0.00000000000E+00 -0.22957389357E+03  0.22957389358E+03  0.25500000000E-02 0. -1.
    5000001    1    1    2    0    0  0.22221594028E+03  0.89314159589E+02  0.37793952750E+02  0.29327517127E+03  0.16500000000E+03 0.  0.
   -5000001    1    1    2    0    0 -0.22221594028E+03 -0.89314159589E+02  0.10581479407E+03  0.30948136271E+03  0.16500000000E+03 0.  0.
<mgrwt>
<rscale>  0 0.58539898E+03</rscale>
<asrwt>0</asrwt>
<pdfrwt beam="1">  1        2 0.53311806E-01 0.58539898E+03</pdfrwt>
<pdfrwt beam="2">  1       -2 0.32796270E-01 0.58539898E+03</pdfrwt>
<totfact> 0.81359664E+02</totfact>
</mgrwt>
</event>
<event>
 4    1  0.5312547E-005  0.1222720E+04  0.7818608E-02  0.9093199E-01
         -2   -1    0    0    0  501 -0.00000000000E+00  0.00000000000E+00  0.26984409746E+03  0.26984409747E+03  0.25500000000E-02 0. -1.
          2   -1    0    0  501    0  0.00000000000E+00 -0.00000000000E+00 -0.13851008182E+04  0.13851008182E+04  0.25500000000E-02 0.  1.
    5000001    1    1    2    0    0  0.40761543728E+03  0.85838402357E+02 -0.11206196367E+04  0.12068686533E+04  0.16500000000E+03 0.  0.
   -5000001    1    1    2    0    0 -0.40761543728E+03 -0.85838402357E+02  0.53629160258E+01  0.44807626237E+03  0.16500000000E+03 0.  0.
<mgrwt>
<rscale>  0 0.12227204E+04</rscale>
<asrwt>0</asrwt>
<pdfrwt beam="1">  1        2 0.19787154E+00 0.12227204E+04</pdfrwt>
<pdfrwt beam="2">  1       -2 0.38549157E-01 0.12227204E+04</pdfrwt>
<totfact> 0.10551226E+02</totfact>
</mgrwt>
</event>
<event>
 4    1  0.5312547E-005  0.4057682E+03  0.7818608E-02  0.1041800E+00
         -2   -1    0    0    0  501 -0.00000000000E+00  0.00000000000E+00  0.17761666319E+02  0.17761666502E+02  0.25500000000E-02 0. -1.
          2   -1    0    0  501    0  0.00000000000E+00 -0.00000000000E+00 -0.23174599629E+04  0.23174599629E+04  0.25500000000E-02 0.  1.
    5000001    1    1    2    0    0 -0.10215124096E+03  0.12007841978E+02 -0.81635889962E+03  0.83919361132E+03  0.16500000000E+03 0.  0.
   -5000001    1    1    2    0    0  0.10215124096E+03 -0.12007841978E+02 -0.14833393970E+04  0.14960280181E+04  0.16500000000E+03 0.  0.
<mgrwt>
<rscale>  0 0.40576816E+03</rscale>
<asrwt>0</asrwt>
<pdfrwt beam="1">  1        2 0.33106552E+00 0.40576816E+03</pdfrwt>
<pdfrwt beam="2">  1       -2 0.25373824E-02 0.40576816E+03</pdfrwt>
<totfact> 0.33392845E+03</totfact>
</mgrwt>
</event>
<event>
 4    1  0.5312547E-005  0.4847434E+03  0.7818608E-02  0.1017840E+00
         -2   -1    0    0    0  501 -0.00000000000E+00  0.00000000000E+00  0.51096608694E+03  0.51096608695E+03  0.25500000000E-02 0. -1.
          2   -1    0    0  501    0  0.00000000000E+00 -0.00000000000E+00 -0.11496662278E+03  0.11496662280E+03  0.25500000000E-02 0.  1.
    5000001    1    1    2    0    0 -0.86743535543E+02  0.29693015481E+01 -0.19831019992E+01  0.18644621317E+03  0.16500000000E+03 0.  0.
   -5000001    1    1    2    0    0  0.86743535543E+02 -0.29693015481E+01  0.39798256617E+03  0.43948649659E+03  0.16500000000E+03 0.  0.
<mgrwt>
<rscale>  0 0.48474342E+03</rscale>
<asrwt>0</asrwt>
<pdfrwt beam="1">  1        2 0.16423803E-01 0.48474342E+03</pdfrwt>
<pdfrwt beam="2">  1       -2 0.72995155E-01 0.48474342E+03</pdfrwt>
<totfact> 0.61344281E+02</totfact>
</mgrwt>
</event>
<event>
 4    1  0.5312547E-005  0.5099508E+03  0.7818608E-02  0.1011214E+00
         -2   -1    0    0    0  501 -0.00000000000E+00  0.00000000000E+00  0.70478771739E+02  0.70478771785E+02  0.25500000000E-02 0. -1.
          2   -1    0    0  501    0  0.00000000000E+00 -0.00000000000E+00 -0.92244014531E+03  0.92244014532E+03  0.25500000000E-02 0.  1.
    5000001    1    1    2    0    0  0.51893684535E+02 -0.18725024618E+03 -0.43696738396E+03  0.50588645350E+03  0.16500000000E+03 0.  0.
   -5000001    1    1    2    0    0 -0.51893684535E+02  0.18725024618E+03 -0.41499398962E+03  0.48703246361E+03  0.16500000000E+03 0.  0.
<mgrwt>
<rscale>  0 0.50995078E+03</rscale>
<asrwt>0</asrwt>
<pdfrwt beam="1">  1        2 0.13177716E+00 0.50995078E+03</pdfrwt>
<pdfrwt beam="2">  1       -2 0.10068396E-01 0.50995078E+03</pdfrwt>
<totfact> 0.21365644E+03</totfact>
</mgrwt>
</event>
<event>
 4    1  0.5312547E-005  0.5329556E+03  0.7818608E-02  0.1005518E+00
         -2   -1    0    0    0  501 -0.00000000000E+00  0.00000000000E+00  0.42114728285E+02  0.42114728362E+02  0.25500000000E-02 0.  1.
          2   -1    0    0  501    0  0.00000000000E+00 -0.00000000000E+00 -0.16861181086E+04  0.16861181086E+04  0.25500000000E-02 0. -1.
    5000001    1    1    2    0    0 -0.72210737003E+02  0.19639490905E+03 -0.82123960792E+03  0.86339147810E+03  0.16500000000E+03 0.  0.
   -5000001    1    1    2    0    0  0.72210737003E+02 -0.19639490905E+03 -0.82276377239E+03  0.86484135886E+03  0.16500000000E+03 0.  0.
<mgrwt>
<rscale>  0 0.53295556E+03</rscale>
<asrwt>0</asrwt>
<pdfrwt beam="1">  1        2 0.24087397E+00 0.53295556E+03</pdfrwt>
<pdfrwt beam="2">  1       -2 0.60163908E-02 0.53295556E+03</pdfrwt>
<totfact> 0.18386467E+03</totfact>
</mgrwt>
</event>
<event>
 4    1  0.5312547E-005  0.4846080E+03  0.7818608E-02  0.1017876E+00
         -2   -1    0    0    0  501 -0.00000000000E+00  0.00000000000E+00  0.96699498717E+02  0.96699498750E+02  0.25500000000E-02 0. -1.
          2   -1    0    0  501    0  0.00000000000E+00 -0.00000000000E+00 -0.60715121986E+03  0.60715121987E+03  0.25500000000E-02 0.  1.
    5000001    1    1    2    0    0 -0.26283146784E+02 -0.17288213447E+03 -0.21147996393E+03  0.32019964298E+03  0.16500000000E+03 0.  0.
   -5000001    1    1    2    0    0  0.26283146784E+02  0.17288213447E+03 -0.29897175722E+03  0.38365107564E+03  0.16500000000E+03 0.  0.
<mgrwt>
<rscale>  0 0.48460796E+03</rscale>
<asrwt>0</asrwt>
<pdfrwt beam="1">  1        2 0.86735887E-01 0.48460796E+03</pdfrwt>
<pdfrwt beam="2">  1       -2 0.13814214E-01 0.48460796E+03</pdfrwt>
<totfact> 0.21434381E+03</totfact>
</mgrwt>
</event>
<event>
 4    1  0.5312547E-005  0.8922099E+03  0.7818608E-02  0.9435372E-01
          2   -1    0    0  501    0  0.00000000000E+00  0.00000000000E+00  0.27937458910E+04  0.27937458910E+04  0.25500000000E-02 0.  1.
         -2   -1    0    0    0  501 -0.00000000000E+00 -0.00000000000E+00 -0.71233975560E+02  0.71233975605E+02  0.25500000000E-02 0. -1.
    5000001    1    1    2    0    0  0.23076311920E+03 -0.25124560201E+03  0.60539250375E+03  0.71421359081E+03  0.16500000000E+03 0.  0.
   -5000001    1    1    2    0    0 -0.23076311920E+03  0.25124560201E+03  0.21171194117E+04  0.21507662758E+04  0.16500000000E+03 0.  0.
<mgrwt>
<rscale>  0 0.89220990E+03</rscale>
<asrwt>0</asrwt>
<pdfrwt beam="1">  1        2 0.39910663E+00 0.89220990E+03</pdfrwt>
<pdfrwt beam="2">  1       -2 0.10176280E-01 0.89220990E+03</pdfrwt>
<totfact> 0.21017714E+02</totfact>
</mgrwt>
</event>
<event>
 4    1  0.5312547E-005  0.4291388E+03  0.7818608E-02  0.1034132E+00
          2   -1    0    0  501    0  0.00000000000E+00  0.00000000000E+00  0.97293748316E+03  0.97293748316E+03  0.25500000000E-02 0.  1.
         -2   -1    0    0    0  501 -0.00000000000E+00 -0.00000000000E+00 -0.47320649893E+02  0.47320649962E+02  0.25500000000E-02 0. -1.
    5000001    1    1    2    0    0  0.10999432120E+03  0.71468115651E+02  0.36745523772E+03  0.42362104997E+03  0.16500000000E+03 0.  0.
   -5000001    1    1    2    0    0 -0.10999432120E+03 -0.71468115651E+02  0.55816159555E+03  0.59663708315E+03  0.16500000000E+03 0.  0.
<mgrwt>
<rscale>  0 0.42913883E+03</rscale>
<asrwt>0</asrwt>
<pdfrwt beam="1">  1        2 0.13899106E+00 0.42913883E+03</pdfrwt>
<pdfrwt beam="2">  1       -2 0.67600933E-02 0.42913883E+03</pdfrwt>
<totfact> 0.37402725E+03</totfact>
</mgrwt>
</event>
<event>
 4    1  0.5312547E-005  0.2013220E+04  0.7818608E-02  0.8600465E-01
         -2   -1    0    0    0  501 -0.00000000000E+00  0.00000000000E+00  0.63944762138E+03  0.63944762138E+03  0.25500000000E-02 0. -1.
          2   -1    0    0  501    0  0.00000000000E+00 -0.00000000000E+00 -0.15845914933E+04  0.15845914933E+04  0.25500000000E-02 0.  1.
    5000001    1    1    2    0    0 -0.83738309287E+03 -0.53132412476E+03 -0.41708814468E+03  0.10884407610E+04  0.16500000000E+03 0.  0.
   -5000001    1    1    2    0    0  0.83738309287E+03  0.53132412476E+03 -0.52805572720E+03  0.11355983536E+04  0.16500000000E+03 0.  0.
<mgrwt>
<rscale>  0 0.20132196E+04</rscale>
<asrwt>0</asrwt>
<pdfrwt beam="1">  1        2 0.22637021E+00 0.20132196E+04</pdfrwt>
<pdfrwt beam="2">  1       -2 0.91349661E-01 0.20132196E+04</pdfrwt>
<totfact> 0.12544943E+01</totfact>
</mgrwt>
</event>
<event>
 4    1  0.5312547E-005  0.4945158E+03  0.7818608E-02  0.1015220E+00
         -2   -1    0    0    0  501 -0.00000000000E+00  0.00000000000E+00  0.10691082201E+04  0.10691082201E+04  0.25500000000E-02 0.  1.
          2   -1    0    0  501    0  0.00000000000E+00 -0.00000000000E+00 -0.57184540231E+02  0.57184540288E+02  0.25500000000E-02 0. -1.
    5000001    1    1    2    0    0 -0.10960092418E+03 -0.95246613563E+02  0.76391257828E+03  0.79490358361E+03  0.16500000000E+03 0.  0.
   -5000001    1    1    2    0    0  0.10960092418E+03  0.95246613563E+02  0.24801110156E+03  0.33138917676E+03  0.16500000000E+03 0.  0.
<mgrwt>
<rscale>  0 0.49451577E+03</rscale>
<asrwt>0</asrwt>
<pdfrwt beam="1">  1        2 0.81692192E-02 0.49451577E+03</pdfrwt>
<pdfrwt beam="2">  1       -2 0.15272976E+00 0.49451577E+03</pdfrwt>
<totfact> 0.25048976E+02</totfact>
</mgrwt>
</event>
<event>
 4    1  0.5312547E-005  0.3837566E+03  0.7818608E-02  0.1049554E+00
          2   -1    0    0  501    0  0.00000000000E+00  0.00000000000E+00  0.32766817525E+04  0.32766817525E+04  0.25500000000E-02 0.  1.
         -2   -1    0    0    0  501 -0.00000000000E+00 -0.00000000000E+00 -0.11236145348E+02  0.11236145637E+02  0.25500000000E-02 0. -1.
    5000001    1    1    2    0    0 -0.12624303691E+02  0.96357032392E+02  0.17370317952E+04  0.17475550086E+04  0.16500000000E+03 0.  0.
   -5000001    1    1    2    0    0  0.12624303691E+02 -0.96357032392E+02  0.15284138120E+04  0.15403628896E+04  0.16500000000E+03 0.  0.
<mgrwt>
<rscale>  0 0.38375655E+03</rscale>
<asrwt>0</asrwt>
<pdfrwt beam="1">  1        2 0.46809701E+00 0.38375655E+03</pdfrwt>
<pdfrwt beam="2">  1       -2 0.16051649E-02 0.38375655E+03</pdfrwt>
<totfact> 0.20737290E+03</totfact>
</mgrwt>
</event>
<event>
 4    1  0.5312547E-005  0.5029926E+03  0.7818608E-02  0.1013001E+00
          2   -1    0    0  501    0  0.00000000000E+00  0.00000000000E+00  0.10973963874E+04  0.10973963874E+04  0.25500000000E-02 0.  1.
         -2   -1    0    0    0  501 -0.00000000000E+00 -0.00000000000E+00 -0.57636772359E+02  0.57636772416E+02  0.25500000000E-02 0. -1.
    5000001    1    1    2    0    0  0.31770922260E+02  0.13542665404E+03  0.81641333653E+03  0.84445574555E+03  0.16500000000E+03 0.  0.
   -5000001    1    1    2    0    0 -0.31770922260E+02 -0.13542665404E+03  0.22334627849E+03  0.31057741425E+03  0.16500000000E+03 0.  0.
<mgrwt>
<rscale>  0 0.50299259E+03</rscale>
<asrwt>0</asrwt>
<pdfrwt beam="1">  1        2 0.15677092E+00 0.50299259E+03</pdfrwt>
<pdfrwt beam="2">  1       -2 0.82338243E-02 0.50299259E+03</pdfrwt>
<totfact> 0.23129491E+03</totfact>
</mgrwt>
</event>
<event>
 4    1  0.5312547E-005  0.7323734E+03  0.7818608E-02  0.9663417E-01
         -2   -1    0    0    0  501 -0.00000000000E+00  0.00000000000E+00  0.97626925638E+02  0.97626925671E+02  0.25500000000E-02 0. -1.
          2   -1    0    0  501    0  0.00000000000E+00 -0.00000000000E+00 -0.13735218146E+04  0.13735218146E+04  0.25500000000E-02 0.  1.
    5000001    1    1    2    0    0 -0.21676408286E+03 -0.22451775576E+03 -0.83345506286E+03  0.90513381998E+03  0.16500000000E+03 0.  0.
   -5000001    1    1    2    0    0  0.21676408286E+03  0.22451775576E+03 -0.44243982609E+03  0.56601492028E+03  0.16500000000E+03 0.  0.
<mgrwt>
<rscale>  0 0.73237344E+03</rscale>
<asrwt>0</asrwt>
<pdfrwt beam="1">  1        2 0.19621739E+00 0.73237344E+03</pdfrwt>
<pdfrwt beam="2">  1       -2 0.13946704E-01 0.73237344E+03</pdfrwt>
<totfact> 0.68308491E+02</totfact>
</mgrwt>
</event>
<event>
 4    1  0.5312547E-005  0.6564915E+03  0.7818608E-02  0.9794674E-01
          2   -1    0    0  501    0  0.00000000000E+00  0.00000000000E+00  0.60061206192E+03  0.60061206192E+03  0.25500000000E-02 0.  1.
         -2   -1    0    0    0  501 -0.00000000000E+00 -0.00000000000E+00 -0.17939244375E+03  0.17939244377E+03  0.25500000000E-02 0. -1.
    5000001    1    1    2    0    0 -0.11559535835E+03 -0.24545940186E+03  0.30935899334E+03  0.44332898799E+03  0.16500000000E+03 0.  0.
   -5000001    1    1    2    0    0  0.11559535835E+03  0.24545940186E+03  0.11186062483E+03  0.33667551770E+03  0.16500000000E+03 0.  0.
<mgrwt>
<rscale>  0 0.65649148E+03</rscale>
<asrwt>0</asrwt>
<pdfrwt beam="1">  1        2 0.85801722E-01 0.65649148E+03</pdfrwt>
<pdfrwt beam="2">  1       -2 0.25627492E-01 0.65649148E+03</pdfrwt>
<totfact> 0.74521627E+02</totfact>
</mgrwt>
</event>
<event>
 4    1  0.5312547E-005  0.4393986E+03  0.7818608E-02  0.1030931E+00
          2   -1    0    0  501    0  0.00000000000E+00  0.00000000000E+00  0.30393331752E+04  0.30393331752E+04  0.25500000000E-02 0.  1.
         -2   -1    0    0    0  501 -0.00000000000E+00 -0.00000000000E+00 -0.15881041527E+02  0.15881041731E+02  0.25500000000E-02 0. -1.
    5000001    1    1    2    0    0  0.13309236019E+02 -0.10559006483E+03  0.82634003472E+03  0.84934636665E+03  0.16500000000E+03 0.  0.
   -5000001    1    1    2    0    0 -0.13309236019E+02  0.10559006483E+03  0.21971120989E+04  0.22058678503E+04  0.16500000000E+03 0.  0.
<mgrwt>
<rscale>  0 0.43939857E+03</rscale>
<asrwt>0</asrwt>
<pdfrwt beam="1">  1        2 0.43419036E+00 0.43939857E+03</pdfrwt>
<pdfrwt beam="2">  1       -2 0.22687207E-02 0.43939857E+03</pdfrwt>
<totfact> 0.16666699E+03</totfact>
</mgrwt>
</event>
<event>
 4    1  0.5312547E-005  0.4306375E+03  0.7818608E-02  0.1033659E+00
          2   -1    0    0  501    0  0.00000000000E+00  0.00000000000E+00  0.17034664992E+03  0.17034664994E+03  0.25500000000E-02 0.  1.
         -2   -1    0    0    0  501 -0.00000000000E+00 -0.00000000000E+00 -0.27216359670E+03  0.27216359671E+03  0.25500000000E-02 0. -1.
    5000001    1    1    2    0    0 -0.11484805314E+03 -0.13823496326E+01  0.28322261685E+02  0.20302496572E+03  0.16500000000E+03 0.  0.
   -5000001    1    1    2    0    0  0.11484805314E+03  0.13823496326E+01 -0.13013920847E+03  0.23948528093E+03  0.16500000000E+03 0.  0.
<mgrwt>
<rscale>  0 0.43063747E+03</rscale>
<asrwt>0</asrwt>
<pdfrwt beam="1">  1        2 0.24335236E-01 0.43063747E+03</pdfrwt>
<pdfrwt beam="2">  1       -2 0.38880514E-01 0.43063747E+03</pdfrwt>
<totfact> 0.14072104E+03</totfact>
</mgrwt>
</event>
<event>
 4    1  0.5312547E-005  0.4046094E+03  0.7818608E-02  0.1042195E+00
          2   -1    0    0  501    0  0.00000000000E+00  0.00000000000E+00  0.28628510459E+03  0.28628510460E+03  0.25500000000E-02 0.  1.
         -2   -1    0    0    0  501 -0.00000000000E+00 -0.00000000000E+00 -0.14295958480E+03  0.14295958482E+03  0.25500000000E-02 0. -1.
    5000001    1    1    2    0    0 -0.20546754046E+02  0.97185159553E+02  0.13736132293E+03  0.23655920480E+03  0.16500000000E+03 0.  0.
   -5000001    1    1    2    0    0  0.20546754046E+02 -0.97185159553E+02  0.59641968588E+01  0.19268548462E+03  0.16500000000E+03 0.  0.
<mgrwt>
<rscale>  0 0.40460944E+03</rscale>
<asrwt>0</asrwt>
<pdfrwt beam="1">  1        2 0.40897871E-01 0.40460944E+03</pdfrwt>
<pdfrwt beam="2">  1       -2 0.20422798E-01 0.40460944E+03</pdfrwt>
<totfact> 0.25472694E+03</totfact>
</mgrwt>
</event>
<event>
 4    1  0.5312547E-005  0.4028186E+03  0.7818608E-02  0.1042808E+00
         -2   -1    0    0    0  501 -0.00000000000E+00  0.00000000000E+00  0.51945598815E+02  0.51945598877E+02  0.25500000000E-02 0. -1.
          2   -1    0    0  501    0  0.00000000000E+00 -0.00000000000E+00 -0.78092657765E+03  0.78092657766E+03  0.25500000000E-02 0.  1.
    5000001    1    1    2    0    0 -0.44307543068E+02  0.67849870462E+02 -0.19431797949E+03  0.26749063619E+03  0.16500000000E+03 0.  0.
   -5000001    1    1    2    0    0  0.44307543068E+02 -0.67849870462E+02 -0.53466299934E+03  0.56538154034E+03  0.16500000000E+03 0.  0.
<mgrwt>
<rscale>  0 0.40281856E+03</rscale>
<asrwt>0</asrwt>
<pdfrwt beam="1">  1        2 0.11156093E+00 0.40281856E+03</pdfrwt>
<pdfrwt beam="2">  1       -2 0.74208003E-02 0.40281856E+03</pdfrwt>
<totfact> 0.43009537E+03</totfact>
</mgrwt>
</event>
<event>
 4    1  0.5312547E-005  0.6015072E+03  0.7818608E-02  0.9902284E-01
         -2   -1    0    0    0  501 -0.00000000000E+00  0.00000000000E+00  0.71458845111E+03  0.71458845112E+03  0.25500000000E-02 0. -1.
          2   -1    0    0  501    0  0.00000000000E+00 -0.00000000000E+00 -0.12658018871E+03  0.12658018873E+03  0.25500000000E-02 0.  1.
    5000001    1    1    2    0    0 -0.95994731879E+01 -0.23712871114E+03  0.17779457702E+03  0.33934950589E+03  0.16500000000E+03 0.  0.
   -5000001    1    1    2    0    0  0.95994731879E+01  0.23712871114E+03  0.41021368538E+03  0.50181913396E+03  0.16500000000E+03 0.  0.
<mgrwt>
<rscale>  0 0.60150724E+03</rscale>
<asrwt>0</asrwt>
<pdfrwt beam="1">  1        2 0.18082885E-01 0.60150724E+03</pdfrwt>
<pdfrwt beam="2">  1       -2 0.10208406E+00 0.60150724E+03</pdfrwt>
<totfact> 0.25473794E+02</totfact>
</mgrwt>
</event>
<event>
 4    1  0.5312547E-005  0.4344407E+03  0.7818608E-02  0.1032466E+00
         -2   -1    0    0    0  501 -0.00000000000E+00  0.00000000000E+00  0.90792455771E+03  0.90792455771E+03  0.25500000000E-02 0. -1.
          2   -1    0    0  501    0  0.00000000000E+00 -0.00000000000E+00 -0.51969814180E+02  0.51969814242E+02  0.25500000000E-02 0.  1.
    5000001    1    1    2    0    0 -0.58810454251E+02 -0.81866659910E+02  0.64669337648E+03  0.67498010542E+03  0.16500000000E+03 0.  0.
   -5000001    1    1    2    0    0  0.58810454251E+02  0.81866659910E+02  0.20926136705E+03  0.28491426653E+03  0.16500000000E+03 0.  0.
<mgrwt>
<rscale>  0 0.43444065E+03</rscale>
<asrwt>0</asrwt>
<pdfrwt beam="1">  1        2 0.74242597E-02 0.43444065E+03</pdfrwt>
<pdfrwt beam="2">  1       -2 0.12970350E+00 0.43444065E+03</pdfrwt>
<totfact> 0.43149075E+02</totfact>
</mgrwt>
</event>
<event>
 4    1  0.5312547E-005  0.6358097E+03  0.7818608E-02  0.9833777E-01
          2   -1    0    0  501    0  0.00000000000E+00  0.00000000000E+00  0.32479188772E+03  0.32479188773E+03  0.25500000000E-02 0. -1.
         -2   -1    0    0    0  501 -0.00000000000E+00 -0.00000000000E+00 -0.31116388939E+03  0.31116388940E+03  0.25500000000E-02 0.  1.
    5000001    1    1    2    0    0  0.16842253399E+02  0.24952778855E+03 -0.99468245153E+02  0.31570034931E+03  0.16500000000E+03 0.  0.
   -5000001    1    1    2    0    0 -0.16842253399E+02 -0.24952778855E+03  0.11309624349E+03  0.32025542782E+03  0.16500000000E+03 0.  0.
<mgrwt>
<rscale>  0 0.63580974E+03</rscale>
<asrwt>0</asrwt>
<pdfrwt beam="1">  1        2 0.46398841E-01 0.63580974E+03</pdfrwt>
<pdfrwt beam="2">  1       -2 0.44451984E-01 0.63580974E+03</pdfrwt>
<totfact> 0.52771957E+02</totfact>
</mgrwt>
</event>
<event>
 4    1  0.5312547E-005  0.7062018E+03  0.7818608E-02  0.9706685E-01
         -2   -1    0    0    0  501 -0.00000000000E+00  0.00000000000E+00  0.52935406277E+02  0.52935406338E+02  0.25500000000E-02 0. -1.
          2   -1    0    0  501    0  0.00000000000E+00 -0.00000000000E+00 -0.23553279504E+04  0.23553279504E+04  0.25500000000E-02 0.  1.
    5000001    1    1    2    0    0 -0.60890118522E+02 -0.16227565412E+03 -0.20366197010E+04  0.20506305861E+04  0.16500000000E+03 0.  0.
   -5000001    1    1    2    0    0  0.60890118522E+02  0.16227565412E+03 -0.26577284320E+03  0.35763277064E+03  0.16500000000E+03 0.  0.
<mgrwt>
<rscale>  0 0.70620179E+03</rscale>
<asrwt>0</asrwt>
<pdfrwt beam="1">  1        2 0.33647536E+00 0.70620179E+03</pdfrwt>
<pdfrwt beam="2">  1       -2 0.75622024E-02 0.70620179E+03</pdfrwt>
<totfact> 0.58332334E+02</totfact>
</mgrwt>
</event>
<event>
 4    1  0.5312547E-005  0.5900455E+03  0.7818608E-02  0.9926277E-01
         -2   -1    0    0    0  501 -0.00000000000E+00  0.00000000000E+00  0.21150126509E+03  0.21150126510E+03  0.25500000000E-02 0. -1.
          2   -1    0    0  501    0  0.00000000000E+00 -0.00000000000E+00 -0.41152666022E+03  0.41152666023E+03  0.25500000000E-02 0.  1.
    5000001    1    1    2    0    0 -0.10379403043E+03 -0.21007857390E+03 -0.17397986394E+03  0.33526139208E+03  0.16500000000E+03 0.  0.
   -5000001    1    1    2    0    0  0.10379403043E+03  0.21007857390E+03 -0.26045531203E+02  0.28776653325E+03  0.16500000000E+03 0.  0.
<mgrwt>
<rscale>  0 0.59004545E+03</rscale>
<asrwt>0</asrwt>
<pdfrwt beam="1">  1        2 0.58789523E-01 0.59004545E+03</pdfrwt>
<pdfrwt beam="2">  1       -2 0.30214467E-01 0.59004545E+03</pdfrwt>
<totfact> 0.85016544E+02</totfact>
</mgrwt>
</event>
<event>
 4    1  0.5312547E-005  0.7503294E+03  0.7818608E-02  0.9634834E-01
         -2   -1    0    0    0  501 -0.00000000000E+00  0.00000000000E+00  0.10930347848E+03  0.10930347851E+03  0.25500000000E-02 0. -1.
          2   -1    0    0  501    0  0.00000000000E+00 -0.00000000000E+00 -0.12876858888E+04  0.12876858888E+04  0.25500000000E-02 0.  1.
    5000001    1    1    2    0    0  0.27235259925E+03  0.50062950236E+02 -0.94655345585E+03  0.99993533895E+03  0.16500000000E+03 0.  0.
   -5000001    1    1    2    0    0 -0.27235259925E+03 -0.50062950236E+02 -0.23182895448E+03  0.39705402836E+03  0.16500000000E+03 0.  0.
<mgrwt>
<rscale>  0 0.75032939E+03</rscale>
<asrwt>0</asrwt>
<pdfrwt beam="1">  1        2 0.18395512E+00 0.75032939E+03</pdfrwt>
<pdfrwt beam="2">  1       -2 0.15614783E-01 0.75032939E+03</pdfrwt>
<totfact> 0.62807056E+02</totfact>
</mgrwt>
</event>
<event>
 4    1  0.5312547E-005  0.1195536E+04  0.7818608E-02  0.9116773E-01
          2   -1    0    0  501    0  0.00000000000E+00  0.00000000000E+00  0.53098921652E+03  0.53098921652E+03  0.25500000000E-02 0.  1.
         -2   -1    0    0    0  501 -0.00000000000E+00 -0.00000000000E+00 -0.67294493487E+03  0.67294493488E+03  0.25500000000E-02 0. -1.
    5000001    1    1    2    0    0 -0.48367176961E+03  0.79618719525E+02 -0.37278970164E+03  0.63755367058E+03  0.16500000000E+03 0.  0.
   -5000001    1    1    2    0    0  0.48367176961E+03 -0.79618719525E+02  0.23083398328E+03  0.56638048082E+03  0.16500000000E+03 0.  0.
<mgrwt>
<rscale>  0 0.11955359E+04</rscale>
<asrwt>0</asrwt>
<pdfrwt beam="1">  1        2 0.75855603E-01 0.11955359E+04</pdfrwt>
<pdfrwt beam="2">  1       -2 0.96134990E-01 0.11955359E+04</pdfrwt>
<totfact> 0.56111552E+01</totfact>
</mgrwt>
</event>
<event>
 4    1  0.5312547E-005  0.5634288E+03  0.7818608E-02  0.9984326E-01
          2   -1    0    0  501    0  0.00000000000E+00  0.00000000000E+00  0.34167106349E+04  0.34167106349E+04  0.25500000000E-02 0.  1.
         -2   -1    0    0    0  501 -0.00000000000E+00 -0.00000000000E+00 -0.23227894372E+02  0.23227894512E+02  0.25500000000E-02 0. -1.
    5000001    1    1    2    0    0 -0.13720057444E+03  0.57804388733E+02  0.63974321710E+03  0.67724569309E+03  0.16500000000E+03 0.  0.
   -5000001    1    1    2    0    0  0.13720057444E+03 -0.57804388733E+02  0.27537395235E+04  0.27626928364E+04  0.16500000000E+03 0.  0.
<mgrwt>
<rscale>  0 0.56342877E+03</rscale>
<asrwt>0</asrwt>
<pdfrwt beam="1">  1        2 0.48810137E+00 0.56342877E+03</pdfrwt>
<pdfrwt beam="2">  1       -2 0.33182716E-02 0.56342877E+03</pdfrwt>
<totfact> 0.56894617E+02</totfact>
</mgrwt>
</event>
<event>
 4    1  0.5312547E-005  0.7153400E+03  0.7818608E-02  0.9691352E-01
         -2   -1    0    0    0  501 -0.00000000000E+00  0.00000000000E+00  0.81062334973E+02  0.81062335013E+02  0.25500000000E-02 0. -1.
          2   -1    0    0  501    0  0.00000000000E+00 -0.00000000000E+00 -0.15781415221E+04  0.15781415221E+04  0.25500000000E-02 0.  1.
    5000001    1    1    2    0    0 -0.22775433600E+03  0.21445974654E+03 -0.87210000995E+03  0.94108896912E+03  0.16500000000E+03 0.  0.
   -5000001    1    1    2    0    0  0.22775433600E+03 -0.21445974654E+03 -0.62497917720E+03  0.71811488802E+03  0.16500000000E+03 0.  0.
<mgrwt>
<rscale>  0 0.71534002E+03</rscale>
<asrwt>0</asrwt>
<pdfrwt beam="1">  1        2 0.22544877E+00 0.71534002E+03</pdfrwt>
<pdfrwt beam="2">  1       -2 0.11580335E-01 0.71534002E+03</pdfrwt>
<totfact> 0.72626303E+02</totfact>
</mgrwt>
</event>
<event>
 4    1  0.5312547E-005  0.5098861E+03  0.7818608E-02  0.1011230E+00
          2   -1    0    0  501    0  0.00000000000E+00  0.00000000000E+00  0.21751204043E+03  0.21751204044E+03  0.25500000000E-02 0.  1.
         -2   -1    0    0    0  501 -0.00000000000E+00 -0.00000000000E+00 -0.29881542532E+03  0.29881542533E+03  0.25500000000E-02 0. -1.
    5000001    1    1    2    0    0  0.10434952160E+03 -0.14177809643E+03 -0.12403943173E+03  0.27129436395E+03  0.16500000000E+03 0.  0.
   -5000001    1    1    2    0    0 -0.10434952160E+03  0.14177809643E+03  0.42736046839E+02  0.24503310182E+03  0.16500000000E+03 0.  0.
<mgrwt>
<rscale>  0 0.50988608E+03</rscale>
<asrwt>0</asrwt>
<pdfrwt beam="1">  1        2 0.31073149E-01 0.50988608E+03</pdfrwt>
<pdfrwt beam="2">  1       -2 0.42687917E-01 0.50988608E+03</pdfrwt>
<totfact> 0.89239749E+02</totfact>
</mgrwt>
</event>
<event>
 4    1  0.5312547E-005  0.1130344E+04  0.7818608E-02  0.9176111E-01
         -2   -1    0    0    0  501 -0.00000000000E+00  0.00000000000E+00  0.13366674656E+03  0.13366674659E+03  0.25500000000E-02 0. -1.
          2   -1    0    0  501    0  0.00000000000E+00 -0.00000000000E+00 -0.23896687007E+04  0.23896687007E+04  0.25500000000E-02 0.  1.
    5000001    1    1    2    0    0  0.45888840198E+03  0.21358046810E+03 -0.70444576572E+03  0.88298585418E+03  0.16500000000E+03 0.  0.
   -5000001    1    1    2    0    0 -0.45888840198E+03 -0.21358046810E+03 -0.15515561884E+04  0.16403495931E+04  0.16500000000E+03 0.  0.
<mgrwt>
<rscale>  0 0.11303437E+04</rscale>
<asrwt>0</asrwt>
<pdfrwt beam="1">  1        2 0.34138122E+00 0.11303437E+04</pdfrwt>
<pdfrwt beam="2">  1       -2 0.19095251E-01 0.11303437E+04</pdfrwt>
<totfact> 0.11628051E+02</totfact>
</mgrwt>
</event>
<event>
 4    1  0.5312547E-005  0.5332112E+03  0.7818608E-02  0.1005456E+00
          2   -1    0    0  501    0  0.00000000000E+00  0.00000000000E+00  0.15124462977E+03  0.15124462979E+03  0.25500000000E-02 0.  1.
         -2   -1    0    0    0  501 -0.00000000000E+00 -0.00000000000E+00 -0.46995748390E+03  0.46995748390E+03  0.25500000000E-02 0. -1.
    5000001    1    1    2    0    0  0.85850480598E+02 -0.11497232090E+03  0.18341153293E+02  0.21943185160E+03  0.16500000000E+03 0.  0.
   -5000001    1    1    2    0    0 -0.85850480598E+02  0.11497232090E+03 -0.33705400742E+03  0.40177026210E+03  0.16500000000E+03 0.  0.
<mgrwt>
<rscale>  0 0.53321120E+03</rscale>
<asrwt>0</asrwt>
<pdfrwt beam="1">  1        2 0.21606376E-01 0.53321120E+03</pdfrwt>
<pdfrwt beam="2">  1       -2 0.67136783E-01 0.53321120E+03</pdfrwt>
<totfact> 0.53265491E+02</totfact>
</mgrwt>
</event>
<event>
 4    1  0.5312547E-005  0.4687009E+03  0.7818608E-02  0.1022288E+00
         -2   -1    0    0    0  501 -0.00000000000E+00  0.00000000000E+00  0.11280496165E+03  0.11280496168E+03  0.25500000000E-02 0. -1.
          2   -1    0    0  501    0  0.00000000000E+00 -0.00000000000E+00 -0.48685914169E+03  0.48685914170E+03  0.25500000000E-02 0.  1.
    5000001    1    1    2    0    0  0.94701918240E+02 -0.55133583214E+02 -0.26783116233E+02  0.19987621327E+03  0.16500000000E+03 0.  0.
   -5000001    1    1    2    0    0 -0.94701918240E+02  0.55133583214E+02 -0.34727106381E+03  0.39978789010E+03  0.16500000000E+03 0.  0.
<mgrwt>
<rscale>  0 0.46870087E+03</rscale>
<asrwt>0</asrwt>
<pdfrwt beam="1">  1        2 0.69551305E-01 0.46870087E+03</pdfrwt>
<pdfrwt beam="2">  1       -2 0.16114995E-01 0.46870087E+03</pdfrwt>
<totfact> 0.21324590E+03</totfact>
</mgrwt>
</event>
<event>
 4    1  0.5312547E-005  0.3786437E+03  0.7818608E-02  0.1051436E+00
         -2   -1    0    0    0  501 -0.00000000000E+00  0.00000000000E+00  0.63193598425E+02  0.63193598476E+02  0.25500000000E-02 0. -1.
          2   -1    0    0  501    0  0.00000000000E+00 -0.00000000000E+00 -0.56718978003E+03  0.56718978004E+03  0.25500000000E-02 0.  1.
    5000001    1    1    2    0    0  0.46577411032E+02 -0.78162500932E+02 -0.22134812861E+03  0.29068681740E+03  0.16500000000E+03 0.  0.
   -5000001    1    1    2    0    0 -0.46577411032E+02  0.78162500932E+02 -0.28264805299E+03  0.33969656111E+03  0.16500000000E+03 0.  0.
<mgrwt>
<rscale>  0 0.37864370E+03</rscale>
<asrwt>0</asrwt>
<pdfrwt beam="1">  1        2 0.81027108E-01 0.37864370E+03</pdfrwt>
<pdfrwt beam="2">  1       -2 0.90276573E-02 0.37864370E+03</pdfrwt>
<totfact> 0.46119158E+03</totfact>
</mgrwt>
</event>
<event>
 4    1  0.5312547E-005  0.7119735E+03  0.7818608E-02  0.9696972E-01
          2   -1    0    0  501    0  0.00000000000E+00  0.00000000000E+00  0.39583562286E+03  0.39583562287E+03  0.25500000000E-02 0.  1.
         -2   -1    0    0    0  501 -0.00000000000E+00 -0.00000000000E+00 -0.32014942962E+03  0.32014942963E+03  0.25500000000E-02 0. -1.
    5000001    1    1    2    0    0  0.20802465741E+03 -0.88737773576E+02 -0.18328881065E+03  0.33461685352E+03  0.16500000000E+03 0.  0.
   -5000001    1    1    2    0    0 -0.20802465741E+03  0.88737773576E+02  0.25897500389E+03  0.38136819898E+03  0.16500000000E+03 0.  0.
<mgrwt>
<rscale>  0 0.71197345E+03</rscale>
<asrwt>0</asrwt>
<pdfrwt beam="1">  1        2 0.56547946E-01 0.71197345E+03</pdfrwt>
<pdfrwt beam="2">  1       -2 0.45735633E-01 0.71197345E+03</pdfrwt>
<totfact> 0.39963718E+02</totfact>
</mgrwt>
</event>
<event>
 4    1  0.5312547E-005  0.4933968E+03  0.7818608E-02  0.1015517E+00
          2   -1    0    0  501    0  0.00000000000E+00  0.00000000000E+00  0.90075720091E+03  0.90075720091E+03  0.25500000000E-02 0.  1.
         -2   -1    0    0    0  501 -0.00000000000E+00 -0.00000000000E+00 -0.67565499961E+02  0.67565500009E+02  0.25500000000E-02 0. -1.
    5000001    1    1    2    0    0 -0.62833347582E+02  0.12740194584E+03  0.64425175488E+03  0.68004750499E+03  0.16500000000E+03 0.  0.
   -5000001    1    1    2    0    0  0.62833347582E+02 -0.12740194584E+03  0.18893994606E+03  0.28827519593E+03  0.16500000000E+03 0.  0.
<mgrwt>
<rscale>  0 0.49339684E+03</rscale>
<asrwt>0</asrwt>
<pdfrwt beam="1">  1        2 0.12867958E+00 0.49339684E+03</pdfrwt>
<pdfrwt beam="2">  1       -2 0.96522156E-02 0.49339684E+03</pdfrwt>
<totfact> 0.23609448E+03</totfact>
</mgrwt>
</event>
<event>
 4    1  0.5312547E-005  0.6727418E+03  0.7818608E-02  0.9765017E-01
         -2   -1    0    0    0  501 -0.00000000000E+00  0.00000000000E+00  0.10064046947E+03  0.10064046950E+03  0.25500000000E-02 0. -1.
          2   -1    0    0  501    0  0.00000000000E+00 -0.00000000000E+00 -0.11242532945E+04  0.11242532945E+04  0.25500000000E-02 0.  1.
    5000001    1    1    2    0    0 -0.26031447090E+03 -0.29541488564E+02 -0.27243468738E+03  0.41240996859E+03  0.16500000000E+03 0.  0.
   -5000001    1    1    2    0    0  0.26031447090E+03  0.29541488564E+02 -0.75117813767E+03  0.81248379542E+03  0.16500000000E+03 0.  0.
<mgrwt>
<rscale>  0 0.67274179E+03</rscale>
<asrwt>0</asrwt>
<pdfrwt beam="1">  1        2 0.16060761E+00 0.67274179E+03</pdfrwt>
<pdfrwt beam="2">  1       -2 0.14377211E-01 0.67274179E+03</pdfrwt>
<totfact> 0.89514678E+02</totfact>
</mgrwt>
</event>
<event>
 4    1  0.5312547E-005  0.6834071E+03  0.7818608E-02  0.9746037E-01
         -2   -1    0    0    0  501 -0.00000000000E+00  0.00000000000E+00  0.46647644162E+02  0.46647644231E+02  0.25500000000E-02 0. -1.
          2   -1    0    0  501    0  0.00000000000E+00 -0.00000000000E+00 -0.25030485255E+04  0.25030485255E+04  0.25500000000E-02 0.  1.
    5000001    1    1    2    0    0 -0.18333449155E+03  0.65993180944E+02 -0.38096099554E+03  0.45860976423E+03  0.16500000000E+03 0.  0.
   -5000001    1    1    2    0    0  0.18333449155E+03 -0.65993180944E+02 -0.20754398858E+04  0.20910864055E+04  0.16500000000E+03 0.  0.
<mgrwt>
<rscale>  0 0.68340710E+03</rscale>
<asrwt>0</asrwt>
<pdfrwt beam="1">  1        2 0.35757828E+00 0.68340710E+03</pdfrwt>
<pdfrwt beam="2">  1       -2 0.66639507E-02 0.68340710E+03</pdfrwt>
<totfact> 0.59984892E+02</totfact>
</mgrwt>
</event>
<event>
 4    1  0.5312547E-005  0.7218548E+03  0.7818608E-02  0.9680571E-01
         -2   -1    0    0    0  501 -0.00000000000E+00  0.00000000000E+00  0.29516222090E+03  0.29516222091E+03  0.25500000000E-02 0.  1.
          2   -1    0    0  501    0  0.00000000000E+00 -0.00000000000E+00 -0.44134569535E+03  0.44134569536E+03  0.25500000000E-02 0. -1.
    5000001    1    1    2    0    0 -0.11974822364E+03  0.29774707501E+03 -0.65832690059E+02  0.36681316882E+03  0.16500000000E+03 0.  0.
   -5000001    1    1    2    0    0  0.11974822364E+03 -0.29774707501E+03 -0.80350784396E+02  0.36969474745E+03  0.16500000000E+03 0.  0.
<mgrwt>
<rscale>  0 0.72185477E+03</rscale>
<asrwt>0</asrwt>
<pdfrwt beam="1">  1        2 0.63049385E-01 0.72185477E+03</pdfrwt>
<pdfrwt beam="2">  1       -2 0.42166032E-01 0.72185477E+03</pdfrwt>
<totfact> 0.41544151E+02</totfact>
</mgrwt>
</event>
<event>
 4    1  0.5312547E-005  0.5406952E+03  0.7818608E-02  0.1003671E+00
          2   -1    0    0  501    0  0.00000000000E+00  0.00000000000E+00  0.12152291784E+04  0.12152291784E+04  0.25500000000E-02 0.  1.
         -2   -1    0    0    0  501 -0.00000000000E+00 -0.00000000000E+00 -0.60143252952E+02  0.60143253006E+02  0.25500000000E-02 0. -1.
    5000001    1    1    2    0    0 -0.52790056214E+02 -0.16245564015E+03  0.27286761685E+03  0.36174626657E+03  0.16500000000E+03 0.  0.
   -5000001    1    1    2    0    0  0.52790056214E+02  0.16245564015E+03  0.88221830856E+03  0.91362616480E+03  0.16500000000E+03 0.  0.
<mgrwt>
<rscale>  0 0.54069524E+03</rscale>
<asrwt>0</asrwt>
<pdfrwt beam="1">  1        2 0.17360416E+00 0.54069524E+03</pdfrwt>
<pdfrwt beam="2">  1       -2 0.85918935E-02 0.54069524E+03</pdfrwt>
<totfact> 0.18524605E+03</totfact>
</mgrwt>
</event>
<event>
 4    1  0.5312547E-005  0.4350826E+03  0.7818608E-02  0.1032266E+00
         -2   -1    0    0    0  501 -0.00000000000E+00  0.00000000000E+00  0.50070801283E+02  0.50070801348E+02  0.25500000000E-02 0. -1.
          2   -1    0    0  501    0  0.00000000000E+00 -0.00000000000E+00 -0.94514581506E+03  0.94514581507E+03  0.25500000000E-02 0.  1.
    5000001    1    1    2    0    0  0.94275239278E+02 -0.81562080421E+02 -0.60198520380E+03  0.63651502676E+03  0.16500000000E+03 0.  0.
   -5000001    1    1    2    0    0 -0.94275239278E+02  0.81562080421E+02 -0.29308980999E+03  0.35870158965E+03  0.16500000000E+03 0.  0.
<mgrwt>
<rscale>  0 0.43508256E+03</rscale>
<asrwt>0</asrwt>
<pdfrwt beam="1">  1        2 0.13502082E+00 0.43508256E+03</pdfrwt>
<pdfrwt beam="2">  1       -2 0.71529722E-02 0.43508256E+03</pdfrwt>
<totfact> 0.35612559E+03</totfact>
</mgrwt>
</event>
<event>
 4    1  0.5312547E-005  0.8171769E+03  0.7818608E-02  0.9535482E-01
         -2   -1    0    0    0  501 -0.00000000000E+00  0.00000000000E+00  0.98236751560E+02  0.98236751593E+02  0.25500000000E-02 0. -1.
          2   -1    0    0  501    0  0.00000000000E+00 -0.00000000000E+00 -0.16994100397E+04  0.16994100397E+04  0.25500000000E-02 0.  1.
    5000001    1    1    2    0    0  0.20999769282E+03 -0.29868424831E+03 -0.97668555654E+03  0.10556756072E+04  0.16500000000E+03 0.  0.
   -5000001    1    1    2    0    0 -0.20999769282E+03  0.29868424831E+03 -0.62448773156E+03  0.74197118411E+03  0.16500000000E+03 0.  0.
<mgrwt>
<rscale>  0 0.81717690E+03</rscale>
<asrwt>0</asrwt>
<pdfrwt beam="1">  1        2 0.24277284E+00 0.81717690E+03</pdfrwt>
<pdfrwt beam="2">  1       -2 0.14033823E-01 0.81717690E+03</pdfrwt>
<totfact> 0.45428722E+02</totfact>
</mgrwt>
</event>
<event>
 4    1  0.5312547E-005  0.3554880E+03  0.7818608E-02  0.1060385E+00
          2   -1    0    0  501    0  0.00000000000E+00  0.00000000000E+00  0.68987423316E+03  0.68987423317E+03  0.25500000000E-02 0.  1.
         -2   -1    0    0    0  501 -0.00000000000E+00 -0.00000000000E+00 -0.45795214051E+02  0.45795214122E+02  0.25500000000E-02 0. -1.
    5000001    1    1    2    0    0 -0.17447994425E+02 -0.59055870746E+02  0.37170273925E+03  0.41131490946E+03  0.16500000000E+03 0.  0.
   -5000001    1    1    2    0    0  0.17447994425E+02  0.59055870746E+02  0.27237627987E+03  0.32435453783E+03  0.16500000000E+03 0.  0.
<mgrwt>
<rscale>  0 0.35548805E+03</rscale>
<asrwt>0</asrwt>
<pdfrwt beam="1">  1        2 0.98553459E-01 0.35548805E+03</pdfrwt>
<pdfrwt beam="2">  1       -2 0.65421737E-02 0.35548805E+03</pdfrwt>
<totfact> 0.60765529E+03</totfact>
</mgrwt>
</event>
<event>
 4    1  0.5312547E-005  0.8392242E+03  0.7818608E-02  0.9504915E-01
         -2   -1    0    0    0  501 -0.00000000000E+00  0.00000000000E+00  0.60667884857E+03  0.60667884858E+03  0.25500000000E-02 0. -1.
          2   -1    0    0  501    0  0.00000000000E+00 -0.00000000000E+00 -0.29022653669E+03  0.29022653670E+03  0.25500000000E-02 0.  1.
    5000001    1    1    2    0    0 -0.37977575131E+03  0.31455045232E+02  0.22261898592E+03  0.47117221272E+03  0.16500000000E+03 0.  0.
   -5000001    1    1    2    0    0  0.37977575131E+03 -0.31455045232E+02  0.93833325968E+02  0.42573317255E+03  0.16500000000E+03 0.  0.
<mgrwt>
<rscale>  0 0.83922417E+03</rscale>
<asrwt>0</asrwt>
<pdfrwt beam="1">  1        2 0.41460934E-01 0.83922417E+03</pdfrwt>
<pdfrwt beam="2">  1       -2 0.86668407E-01 0.83922417E+03</pdfrwt>
<totfact> 0.14348914E+02</totfact>
</mgrwt>
</event>
<event>
 4    1  0.5312547E-005  0.5006447E+03  0.7818608E-02  0.1013611E+00
          2   -1    0    0  501    0  0.00000000000E+00  0.00000000000E+00  0.15598691445E+04  0.15598691445E+04  0.25500000000E-02 0.  1.
         -2   -1    0    0    0  501 -0.00000000000E+00 -0.00000000000E+00 -0.40170857124E+02  0.40170857205E+02  0.25500000000E-02 0. -1.
    5000001    1    1    2    0    0 -0.98469363735E+02  0.15915682769E+03  0.69520150230E+03  0.73861846727E+03  0.16500000000E+03 0.  0.
   -5000001    1    1    2    0    0  0.98469363735E+02 -0.15915682769E+03  0.82449678511E+03  0.86142153447E+03  0.16500000000E+03 0.  0.
<mgrwt>
<rscale>  0 0.50064471E+03</rscale>
<asrwt>0</asrwt>
<pdfrwt beam="1">  1        2 0.22283834E+00 0.50064471E+03</pdfrwt>
<pdfrwt beam="2">  1       -2 0.57386967E-02 0.50064471E+03</pdfrwt>
<totfact> 0.22974903E+03</totfact>
</mgrwt>
</event>
<event>
 4    1  0.5312547E-005  0.4651053E+03  0.7818608E-02  0.1023311E+00
          2   -1    0    0  501    0  0.00000000000E+00  0.00000000000E+00  0.99971490466E+02  0.99971490499E+02  0.25500000000E-02 0.  1.
         -2   -1    0    0    0  501 -0.00000000000E+00 -0.00000000000E+00 -0.54096163225E+03  0.54096163226E+03  0.25500000000E-02 0. -1.
    5000001    1    1    2    0    0  0.32398507846E+02  0.16042701329E+03 -0.23196270181E+03  0.32835679517E+03  0.16500000000E+03 0.  0.
   -5000001    1    1    2    0    0 -0.32398507846E+02 -0.16042701329E+03 -0.20902743998E+03  0.31257632759E+03  0.16500000000E+03 0.  0.
<mgrwt>
<rscale>  0 0.46510532E+03</rscale>
<asrwt>0</asrwt>
<pdfrwt beam="1">  1        2 0.14281642E-01 0.46510532E+03</pdfrwt>
<pdfrwt beam="2">  1       -2 0.77280232E-01 0.46510532E+03</pdfrwt>
<totfact> 0.64010417E+02</totfact>
</mgrwt>
</event>
<event>
 4    1  0.5312547E-005  0.8037306E+03  0.7818608E-02  0.9554633E-01
         -2   -1    0    0    0  501 -0.00000000000E+00  0.00000000000E+00  0.69805548195E+02  0.69805548241E+02  0.25500000000E-02 0. -1.
          2   -1    0    0  501    0  0.00000000000E+00 -0.00000000000E+00 -0.23135083392E+04  0.23135083392E+04  0.25500000000E-02 0.  1.
    5000001    1    1    2    0    0  0.21741954819E+03  0.26984990024E+03 -0.14749665456E+04  0.15240871167E+04  0.16500000000E+03 0.  0.
   -5000001    1    1    2    0    0 -0.21741954819E+03 -0.26984990024E+03 -0.76873624538E+03  0.85922677074E+03  0.16500000000E+03 0.  0.
<mgrwt>
<rscale>  0 0.80373060E+03</rscale>
<asrwt>0</asrwt>
<pdfrwt beam="1">  1        2 0.33050115E+00 0.80373060E+03</pdfrwt>
<pdfrwt beam="2">  1       -2 0.99722226E-02 0.80373060E+03</pdfrwt>
<totfact> 0.38962403E+02</totfact>
</mgrwt>
</event>
<event>
 4    1  0.5312547E-005  0.4290716E+03  0.7818608E-02  0.1034154E+00
         -2   -1    0    0    0  501 -0.00000000000E+00  0.00000000000E+00  0.15857622198E+04  0.15857622198E+04  0.25500000000E-02 0.  1.
          2   -1    0    0  501    0  0.00000000000E+00 -0.00000000000E+00 -0.29024284389E+02  0.29024284501E+02  0.25500000000E-02 0. -1.
    5000001    1    1    2    0    0  0.24435070321E+01 -0.10372016812E+03  0.44098372399E+03  0.48213637990E+03  0.16500000000E+03 0.  0.
   -5000001    1    1    2    0    0 -0.24435070321E+01  0.10372016812E+03  0.11157542114E+04  0.11326501244E+04  0.16500000000E+03 0.  0.
<mgrwt>
<rscale>  0 0.42907162E+03</rscale>
<asrwt>0</asrwt>
<pdfrwt beam="1">  1        2 0.41463273E-02 0.42907162E+03</pdfrwt>
<pdfrwt beam="2">  1       -2 0.22653741E+00 0.42907162E+03</pdfrwt>
<totfact> 0.19893970E+02</totfact>
</mgrwt>
</event>
<event>
 4    1  0.5312547E-005  0.6625149E+03  0.7818608E-02  0.9783575E-01
          2   -1    0    0  501    0  0.00000000000E+00  0.00000000000E+00  0.97332797260E+03  0.97332797260E+03  0.25500000000E-02 0.  1.
         -2   -1    0    0    0  501 -0.00000000000E+00 -0.00000000000E+00 -0.11273844978E+03  0.11273844981E+03  0.25500000000E-02 0. -1.
    5000001    1    1    2    0    0 -0.63892958678E+02 -0.27932428212E+03  0.39742173474E+03  0.51698491273E+03  0.16500000000E+03 0.  0.
   -5000001    1    1    2    0    0  0.63892958678E+02  0.27932428212E+03  0.46316778807E+03  0.56908150968E+03  0.16500000000E+03 0.  0.
<mgrwt>
<rscale>  0 0.66251487E+03</rscale>
<asrwt>0</asrwt>
<pdfrwt beam="1">  1        2 0.13904685E+00 0.66251487E+03</pdfrwt>
<pdfrwt beam="2">  1       -2 0.16105493E-01 0.66251487E+03</pdfrwt>
<totfact> 0.90986106E+02</totfact>
</mgrwt>
</event>
<event>
 4    1  0.5312547E-005  0.4342087E+03  0.7818608E-02  0.1032539E+00
         -2   -1    0    0    0  501 -0.00000000000E+00  0.00000000000E+00  0.24205523099E+03  0.24205523100E+03  0.25500000000E-02 0. -1.
          2   -1    0    0  501    0  0.00000000000E+00 -0.00000000000E+00 -0.19472535794E+03  0.19472535796E+03  0.25500000000E-02 0.  1.
    5000001    1    1    2    0    0 -0.46985016154E+02 -0.11715347803E+03  0.87100041259E+02  0.22526417013E+03  0.16500000000E+03 0.  0.
   -5000001    1    1    2    0    0  0.46985016154E+02  0.11715347803E+03 -0.39770168213E+02  0.21151641883E+03  0.16500000000E+03 0.  0.
<mgrwt>
<rscale>  0 0.43420867E+03</rscale>
<asrwt>0</asrwt>
<pdfrwt beam="1">  1        2 0.27817908E-01 0.43420867E+03</pdfrwt>
<pdfrwt beam="2">  1       -2 0.34579318E-01 0.43420867E+03</pdfrwt>
<totfact> 0.15117560E+03</totfact>
</mgrwt>
</event>
<event>
 4    1  0.5312547E-005  0.6086060E+03  0.7818608E-02  0.9887711E-01
         -2   -1    0    0    0  501 -0.00000000000E+00  0.00000000000E+00  0.19728943065E+03  0.19728943067E+03  0.25500000000E-02 0. -1.
          2   -1    0    0  501    0  0.00000000000E+00 -0.00000000000E+00 -0.46936270755E+03  0.46936270756E+03  0.25500000000E-02 0.  1.
    5000001    1    1    2    0    0  0.50633195928E+02  0.20802677142E+03  0.17067112291E+02  0.27084154866E+03  0.16500000000E+03 0.  0.
   -5000001    1    1    2    0    0 -0.50633195928E+02 -0.20802677142E+03 -0.28914038919E+03  0.39581058957E+03  0.16500000000E+03 0.  0.
<mgrwt>
<rscale>  0 0.60860595E+03</rscale>
<asrwt>0</asrwt>
<pdfrwt beam="1">  1        2 0.67051815E-01 0.60860595E+03</pdfrwt>
<pdfrwt beam="2">  1       -2 0.28184205E-01 0.60860595E+03</pdfrwt>
<totfact> 0.83365213E+02</totfact>
</mgrwt>
</event>
<event>
 4    1  0.5312547E-005  0.4786400E+03  0.7818608E-02  0.1019510E+00
          2   -1    0    0  501    0  0.00000000000E+00  0.00000000000E+00  0.14209129745E+03  0.14209129747E+03  0.25500000000E-02 0.  1.
         -2   -1    0    0    0  501 -0.00000000000E+00 -0.00000000000E+00 -0.40307927863E+03  0.40307927864E+03  0.25500000000E-02 0. -1.
    5000001    1    1    2    0    0 -0.24769471833E+02 -0.11292800299E+03  0.16621318965E+02  0.20215718844E+03  0.16500000000E+03 0.  0.
   -5000001    1    1    2    0    0  0.24769471833E+02  0.11292800299E+03 -0.27760930015E+03  0.34301338767E+03  0.16500000000E+03 0.  0.
<mgrwt>
<rscale>  0 0.47863998E+03</rscale>
<asrwt>0</asrwt>
<pdfrwt beam="1">  1        2 0.20298757E-01 0.47863998E+03</pdfrwt>
<pdfrwt beam="2">  1       -2 0.57582754E-01 0.47863998E+03</pdfrwt>
<totfact> 0.79216391E+02</totfact>
</mgrwt>
</event>
<event>
 4    1  0.5312547E-005  0.5600681E+03  0.7818608E-02  0.9991901E-01
          2   -1    0    0  501    0  0.00000000000E+00  0.00000000000E+00  0.45753750193E+03  0.45753750194E+03  0.25500000000E-02 0.  1.
         -2   -1    0    0    0  501 -0.00000000000E+00 -0.00000000000E+00 -0.17139373823E+03  0.17139373824E+03  0.25500000000E-02 0. -1.
    5000001    1    1    2    0    0  0.21704089101E+03  0.34949950506E+02  0.20318738086E+03  0.34181626519E+03  0.16500000000E+03 0.  0.
   -5000001    1    1    2    0    0 -0.21704089101E+03 -0.34949950506E+02  0.82956382847E+02  0.28711497499E+03  0.16500000000E+03 0.  0.
<mgrwt>
<rscale>  0 0.56006808E+03</rscale>
<asrwt>0</asrwt>
<pdfrwt beam="1">  1        2 0.65362500E-01 0.56006808E+03</pdfrwt>
<pdfrwt beam="2">  1       -2 0.24484820E-01 0.56006808E+03</pdfrwt>
<totfact> 0.11069951E+03</totfact>
</mgrwt>
</event>
<event>
 4    1  0.5312547E-005  0.4387540E+03  0.7818608E-02  0.1031130E+00
          2   -1    0    0  501    0  0.00000000000E+00  0.00000000000E+00  0.21937242477E+03  0.21937242478E+03  0.25500000000E-02 0.  1.
         -2   -1    0    0    0  501 -0.00000000000E+00 -0.00000000000E+00 -0.21938153492E+03  0.21938153494E+03  0.25500000000E-02 0. -1.
    5000001    1    1    2    0    0 -0.55993978975E+02 -0.10269355485E+03 -0.84974946312E+02  0.21937874416E+03  0.16500000000E+03 0.  0.
   -5000001    1    1    2    0    0  0.55993978975E+02  0.10269355485E+03  0.84965836153E+02  0.21937521556E+03  0.16500000000E+03 0.  0.
<mgrwt>
<rscale>  0 0.43875396E+03</rscale>
<asrwt>0</asrwt>
<pdfrwt beam="1">  1        2 0.31338918E-01 0.43875396E+03</pdfrwt>
<pdfrwt beam="2">  1       -2 0.31340219E-01 0.43875396E+03</pdfrwt>
<totfact> 0.15899820E+03</totfact>
</mgrwt>
</event>
<event>
 4    1  0.5312547E-005  0.8097792E+03  0.7818608E-02  0.9545969E-01
          2   -1    0    0  501    0  0.00000000000E+00  0.00000000000E+00  0.11027215057E+04  0.11027215057E+04  0.25500000000E-02 0.  1.
         -2   -1    0    0    0  501 -0.00000000000E+00 -0.00000000000E+00 -0.14866455292E+03  0.14866455294E+03  0.25500000000E-02 0. -1.
    5000001    1    1    2    0    0  0.37364460161E+02  0.36033498566E+03  0.59135450984E+03  0.71285521748E+03  0.16500000000E+03 0.  0.
   -5000001    1    1    2    0    0 -0.37364460161E+02 -0.36033498566E+03  0.36270244291E+03  0.53853084114E+03  0.16500000000E+03 0.  0.
<mgrwt>
<rscale>  0 0.80977923E+03</rscale>
<asrwt>0</asrwt>
<pdfrwt beam="1">  1        2 0.15753165E+00 0.80977923E+03</pdfrwt>
<pdfrwt beam="2">  1       -2 0.21237792E-01 0.80977923E+03</pdfrwt>
<totfact> 0.46850514E+02</totfact>
</mgrwt>
</event>
<event>
 4    1  0.5312547E-005  0.4243918E+03  0.7818608E-02  0.1035646E+00
         -2   -1    0    0    0  501 -0.00000000000E+00  0.00000000000E+00  0.25101088198E+02  0.25101088327E+02  0.25500000000E-02 0. -1.
          2   -1    0    0  501    0  0.00000000000E+00 -0.00000000000E+00 -0.17938308355E+04  0.17938308355E+04  0.25500000000E-02 0.  1.
    5000001    1    1    2    0    0  0.97848251184E+02  0.64009084583E+02 -0.60890438600E+03  0.64160813154E+03  0.16500000000E+03 0.  0.
   -5000001    1    1    2    0    0 -0.97848251184E+02 -0.64009084583E+02 -0.11598253613E+04  0.11773237923E+04  0.16500000000E+03 0.  0.
<mgrwt>
<rscale>  0 0.42439183E+03</rscale>
<asrwt>0</asrwt>
<pdfrwt beam="1">  1        2 0.25626147E+00 0.42439183E+03</pdfrwt>
<pdfrwt beam="2">  1       -2 0.35858709E-02 0.42439183E+03</pdfrwt>
<totfact> 0.36075626E+03</totfact>
</mgrwt>
</event>
<event>
 4    1  0.5312547E-005  0.4750776E+03  0.7818608E-02  0.1020497E+00
         -2   -1    0    0    0  501 -0.00000000000E+00  0.00000000000E+00  0.19594509506E+02  0.19594509672E+02  0.25500000000E-02 0. -1.
          2   -1    0    0  501    0  0.00000000000E+00 -0.00000000000E+00 -0.28796173668E+04  0.28796173668E+04  0.25500000000E-02 0.  1.
    5000001    1    1    2    0    0  0.45710985878E+02  0.82779968818E+02 -0.56143079369E+03  0.59276601924E+03  0.16500000000E+03 0.  0.
   -5000001    1    1    2    0    0 -0.45710985878E+02 -0.82779968818E+02 -0.22985920636E+04  0.23064458572E+04  0.16500000000E+03 0.  0.
<mgrwt>
<rscale>  0 0.47507764E+03</rscale>
<asrwt>0</asrwt>
<pdfrwt beam="1">  1        2 0.41137364E+00 0.47507764E+03</pdfrwt>
<pdfrwt beam="2">  1       -2 0.27992175E-02 0.47507764E+03</pdfrwt>
<totfact> 0.14759616E+03</totfact>
</mgrwt>
</event>
<event>
 4    1  0.5312547E-005  0.5487004E+03  0.7818608E-02  0.1001795E+00
          2   -1    0    0  501    0  0.00000000000E+00  0.00000000000E+00  0.30470663456E+04  0.30470663456E+04  0.25500000000E-02 0.  1.
         -2   -1    0    0    0  501 -0.00000000000E+00 -0.00000000000E+00 -0.24701805786E+02  0.24701805918E+02  0.25500000000E-02 0. -1.
    5000001    1    1    2    0    0  0.20840530250E+03 -0.88270610838E+01  0.18880726479E+04  0.19067128811E+04  0.16500000000E+03 0.  0.
   -5000001    1    1    2    0    0 -0.20840530250E+03  0.88270610838E+01  0.11342918919E+04  0.11650552704E+04  0.16500000000E+03 0.  0.
<mgrwt>
<rscale>  0 0.54870043E+03</rscale>
<asrwt>0</asrwt>
<pdfrwt beam="1">  1        2 0.43529473E+00 0.54870043E+03</pdfrwt>
<pdfrwt beam="2">  1       -2 0.35288331E-02 0.54870043E+03</pdfrwt>
<totfact> 0.83834195E+02</totfact>
</mgrwt>
</event>
<event>
 4    1  0.5312547E-005  0.5268590E+03  0.7818608E-02  0.1006997E+00
          2   -1    0    0  501    0  0.00000000000E+00  0.00000000000E+00  0.37885043947E+03  0.37885043948E+03  0.25500000000E-02 0.  1.
         -2   -1    0    0    0  501 -0.00000000000E+00 -0.00000000000E+00 -0.18317280510E+03  0.18317280511E+03  0.25500000000E-02 0. -1.
    5000001    1    1    2    0    0  0.15565448336E+03 -0.78109928253E+02 -0.18238425453E+02  0.24059742153E+03  0.16500000000E+03 0.  0.
   -5000001    1    1    2    0    0 -0.15565448336E+03  0.78109928253E+02  0.21391605983E+03  0.32142582307E+03  0.16500000000E+03 0.  0.
<mgrwt>
<rscale>  0 0.52685899E+03</rscale>
<asrwt>0</asrwt>
<pdfrwt beam="1">  1        2 0.54121490E-01 0.52685899E+03</pdfrwt>
<pdfrwt beam="2">  1       -2 0.26167544E-01 0.52685899E+03</pdfrwt>
<totfact> 0.12120037E+03</totfact>
</mgrwt>
</event>
<event>
 4    1  0.5312547E-005  0.9986858E+03  0.7818608E-02  0.9309987E-01
         -2   -1    0    0    0  501 -0.00000000000E+00  0.00000000000E+00  0.78475398801E+02  0.78475398843E+02  0.25500000000E-02 0. -1.
          2   -1    0    0  501    0  0.00000000000E+00 -0.00000000000E+00 -0.31773436326E+04  0.31773436326E+04  0.25500000000E-02 0.  1.
    5000001    1    1    2    0    0 -0.46265401970E+03  0.30229806031E+02 -0.18252112441E+04  0.18903924642E+04  0.16500000000E+03 0.  0.
   -5000001    1    1    2    0    0  0.46265401970E+03 -0.30229806031E+02 -0.12736569897E+04  0.13654265672E+04  0.16500000000E+03 0.  0.
<mgrwt>
<rscale>  0 0.99868575E+03</rscale>
<asrwt>0</asrwt>
<pdfrwt beam="1">  1        2 0.45390615E+00 0.99868575E+03</pdfrwt>
<pdfrwt beam="2">  1       -2 0.11210773E-01 0.99868575E+03</pdfrwt>
<totfact> 0.10917359E+02</totfact>
</mgrwt>
</event>
<event>
 4    1  0.5312547E-005  0.5862214E+03  0.7818608E-02  0.9934412E-01
          2   -1    0    0  501    0  0.00000000000E+00  0.00000000000E+00  0.53134813705E+03  0.53134813705E+03  0.25500000000E-02 0.  1.
         -2   -1    0    0    0  501 -0.00000000000E+00 -0.00000000000E+00 -0.16169039247E+03  0.16169039249E+03  0.25500000000E-02 0. -1.
    5000001    1    1    2    0    0  0.22020403765E+03  0.55836138363E+02  0.28431330890E+03  0.39958297031E+03  0.16500000000E+03 0.  0.
   -5000001    1    1    2    0    0 -0.22020403765E+03 -0.55836138363E+02  0.85344435674E+02  0.29345555923E+03  0.16500000000E+03 0.  0.
<mgrwt>
<rscale>  0 0.58622142E+03</rscale>
<asrwt>0</asrwt>
<pdfrwt beam="1">  1        2 0.75906877E-01 0.58622142E+03</pdfrwt>
<pdfrwt beam="2">  1       -2 0.23098627E-01 0.58622142E+03</pdfrwt>
<totfact> 0.10362199E+03</totfact>
</mgrwt>
</event>
<event>
 4    1  0.5312547E-005  0.5060744E+03  0.7818608E-02  0.1012205E+00
         -2   -1    0    0    0  501 -0.00000000000E+00  0.00000000000E+00  0.33699011165E+02  0.33699011261E+02  0.25500000000E-02 0. -1.
          2   -1    0    0  501    0  0.00000000000E+00 -0.00000000000E+00 -0.18999909093E+04  0.18999909093E+04  0.25500000000E-02 0.  1.
    5000001    1    1    2    0    0 -0.15519102211E+03  0.48245086443E+02 -0.13226398044E+04  0.13427631563E+04  0.16500000000E+03 0.  0.
   -5000001    1    1    2    0    0  0.15519102211E+03 -0.48245086443E+02 -0.54365209369E+03  0.59092676423E+03  0.16500000000E+03 0.  0.
<mgrwt>
<rscale>  0 0.50607436E+03</rscale>
<asrwt>0</asrwt>
<pdfrwt beam="1">  1        2 0.27142720E+00 0.50607436E+03</pdfrwt>
<pdfrwt beam="2">  1       -2 0.48141457E-02 0.50607436E+03</pdfrwt>
<totfact> 0.20305526E+03</totfact>
</mgrwt>
</event>
<event>
 4    1  0.5312547E-005  0.6624303E+03  0.7818608E-02  0.9783730E-01
          2   -1    0    0  501    0  0.00000000000E+00  0.00000000000E+00  0.32205593851E+03  0.32205593852E+03  0.25500000000E-02 0.  1.
         -2   -1    0    0    0  501 -0.00000000000E+00 -0.00000000000E+00 -0.34063482425E+03  0.34063482425E+03  0.25500000000E-02 0. -1.
    5000001    1    1    2    0    0 -0.25017063531E+03 -0.95591024768E+02 -0.11303884087E+03  0.33425405059E+03  0.16500000000E+03 0.  0.
   -5000001    1    1    2    0    0  0.25017063531E+03  0.95591024768E+02  0.94459955137E+02  0.32843671219E+03  0.16500000000E+03 0.  0.
<mgrwt>
<rscale>  0 0.66243028E+03</rscale>
<asrwt>0</asrwt>
<pdfrwt beam="1">  1        2 0.46007992E-01 0.66243028E+03</pdfrwt>
<pdfrwt beam="2">  1       -2 0.48662117E-01 0.66243028E+03</pdfrwt>
<totfact> 0.44423981E+02</totfact>
</mgrwt>
</event>
<event>
 4    1  0.5312547E-005  0.6882979E+03  0.7818608E-02  0.9737456E-01
         -2   -1    0    0    0  501 -0.00000000000E+00  0.00000000000E+00  0.16758539486E+03  0.16758539488E+03  0.25500000000E-02 0. -1.
          2   -1    0    0  501    0  0.00000000000E+00 -0.00000000000E+00 -0.70673512002E+03  0.70673512002E+03  0.25500000000E-02 0.  1.
    5000001    1    1    2    0    0 -0.88327104195E+02 -0.27593616370E+03 -0.16125888309E+03  0.37036721122E+03  0.16500000000E+03 0.  0.
   -5000001    1    1    2    0    0  0.88327104195E+02  0.27593616370E+03 -0.37789084207E+03  0.50395330368E+03  0.16500000000E+03 0.  0.
<mgrwt>
<rscale>  0 0.68829785E+03</rscale>
<asrwt>0</asrwt>
<pdfrwt beam="1">  1        2 0.10096216E+00 0.68829785E+03</pdfrwt>
<pdfrwt beam="2">  1       -2 0.23940771E-01 0.68829785E+03</pdfrwt>
<totfact> 0.69173626E+02</totfact>
</mgrwt>
</event>
<event>
 4    1  0.5312547E-005  0.4697873E+03  0.7818608E-02  0.1021980E+00
         -2   -1    0    0    0  501 -0.00000000000E+00  0.00000000000E+00  0.51775303045E+03  0.51775303046E+03  0.25500000000E-02 0.  1.
          2   -1    0    0  501    0  0.00000000000E+00 -0.00000000000E+00 -0.10656632234E+03  0.10656632237E+03  0.25500000000E-02 0. -1.
    5000001    1    1    2    0    0  0.62614655206E+02 -0.14601126748E+03  0.13640990044E+03  0.26659434768E+03  0.16500000000E+03 0.  0.
   -5000001    1    1    2    0    0 -0.62614655206E+02  0.14601126748E+03  0.27477680767E+03  0.35772500515E+03  0.16500000000E+03 0.  0.
<mgrwt>
<rscale>  0 0.46978734E+03</rscale>
<asrwt>0</asrwt>
<pdfrwt beam="1">  1        2 0.15223760E-01 0.46978734E+03</pdfrwt>
<pdfrwt beam="2">  1       -2 0.73964718E-01 0.46978734E+03</pdfrwt>
<totfact> 0.65266714E+02</totfact>
</mgrwt>
</event>
<event>
 4    1  0.5312547E-005  0.5756137E+03  0.7818608E-02  0.9957333E-01
         -2   -1    0    0    0  501 -0.00000000000E+00  0.00000000000E+00  0.39078923801E+02  0.39078923884E+02  0.25500000000E-02 0. -1.
          2   -1    0    0  501    0  0.00000000000E+00 -0.00000000000E+00 -0.21196278976E+04  0.21196278976E+04  0.25500000000E-02 0.  1.
    5000001    1    1    2    0    0  0.22390225895E+02 -0.17217302521E+03 -0.44184011976E+03  0.50258587750E+03  0.16500000000E+03 0.  0.
   -5000001    1    1    2    0    0 -0.22390225895E+02  0.17217302521E+03 -0.16387088541E+04  0.16561209440E+04  0.16500000000E+03 0.  0.
<mgrwt>
<rscale>  0 0.57561368E+03</rscale>
<asrwt>0</asrwt>
<pdfrwt beam="1">  1        2 0.30280391E+00 0.57561368E+03</pdfrwt>
<pdfrwt beam="2">  1       -2 0.55827047E-02 0.57561368E+03</pdfrwt>
<totfact> 0.12488326E+03</totfact>
</mgrwt>
</event>
<event>
 4    1  0.5312547E-005  0.4810649E+03  0.7818608E-02  0.1018843E+00
          2   -1    0    0  501    0  0.00000000000E+00  0.00000000000E+00  0.66174140545E+03  0.66174140545E+03  0.25500000000E-02 0.  1.
         -2   -1    0    0    0  501 -0.00000000000E+00 -0.00000000000E+00 -0.87429694691E+02  0.87429694728E+02  0.25500000000E-02 0. -1.
    5000001    1    1    2    0    0  0.82082091638E+02  0.15230030861E+03  0.32829958239E+03  0.40612617444E+03  0.16500000000E+03 0.  0.
   -5000001    1    1    2    0    0 -0.82082091638E+02 -0.15230030861E+03  0.24601212837E+03  0.34304492574E+03  0.16500000000E+03 0.  0.
<mgrwt>
<rscale>  0 0.48106486E+03</rscale>
<asrwt>0</asrwt>
<pdfrwt beam="1">  1        2 0.94534485E-01 0.48106486E+03</pdfrwt>
<pdfrwt beam="2">  1       -2 0.12489957E-01 0.48106486E+03</pdfrwt>
<totfact> 0.22866164E+03</totfact>
</mgrwt>
</event>
<event>
 4    1  0.5312547E-005  0.8885714E+03  0.7818608E-02  0.9439982E-01
          2   -1    0    0  501    0  0.00000000000E+00  0.00000000000E+00  0.25879051218E+04  0.25879051218E+04  0.25500000000E-02 0.  1.
         -2   -1    0    0    0  501 -0.00000000000E+00 -0.00000000000E+00 -0.76273959527E+02  0.76273959570E+02  0.25500000000E-02 0. -1.
    5000001    1    1    2    0    0 -0.88204902255E+02  0.40241119726E+03  0.13194110622E+04  0.13920436155E+04  0.16500000000E+03 0.  0.
   -5000001    1    1    2    0    0  0.88204902255E+02 -0.40241119726E+03  0.11922201001E+04  0.12721354659E+04  0.16500000000E+03 0.  0.
<mgrwt>
<rscale>  0 0.88857137E+03</rscale>
<asrwt>0</asrwt>
<pdfrwt beam="1">  1        2 0.36970071E+00 0.88857137E+03</pdfrwt>
<pdfrwt beam="2">  1       -2 0.10896281E-01 0.88857137E+03</pdfrwt>
<totfact> 0.24152165E+02</totfact>
</mgrwt>
</event>
<event>
 4    1  0.5312547E-005  0.5841988E+03  0.7818608E-02  0.9938742E-01
         -2   -1    0    0    0  501 -0.00000000000E+00  0.00000000000E+00  0.29358110388E+02  0.29358110499E+02  0.25500000000E-02 0. -1.
          2   -1    0    0  501    0  0.00000000000E+00 -0.00000000000E+00 -0.29062517113E+04  0.29062517113E+04  0.25500000000E-02 0.  1.
    5000001    1    1    2    0    0 -0.23047636813E+03 -0.78407078147E+01 -0.10861135891E+04  0.11225188468E+04  0.16500000000E+03 0.  0.
   -5000001    1    1    2    0    0  0.23047636813E+03  0.78407078147E+01 -0.17907800119E+04  0.18130909751E+04  0.16500000000E+03 0.  0.
<mgrwt>
<rscale>  0 0.58419880E+03</rscale>
<asrwt>0</asrwt>
<pdfrwt beam="1">  1        2 0.41517863E+00 0.58419880E+03</pdfrwt>
<pdfrwt beam="2">  1       -2 0.41940176E-02 0.58419880E+03</pdfrwt>
<totfact> 0.76435715E+02</totfact>
</mgrwt>
</event>
<event>
 4    1  0.5312547E-005  0.4259939E+03  0.7818608E-02  0.1035133E+00
         -2   -1    0    0    0  501 -0.00000000000E+00  0.00000000000E+00  0.24241144072E+02  0.24241144206E+02  0.25500000000E-02 0. -1.
          2   -1    0    0  501    0  0.00000000000E+00 -0.00000000000E+00 -0.18715167422E+04  0.18715167422E+04  0.25500000000E-02 0.  1.
    5000001    1    1    2    0    0  0.10001468341E+03  0.89194293557E+02 -0.86324805213E+03  0.88903360927E+03  0.16500000000E+03 0.  0.
   -5000001    1    1    2    0    0 -0.10001468341E+03 -0.89194293557E+02 -0.98402754601E+03  0.10067242771E+04  0.16500000000E+03 0.  0.
<mgrwt>
<rscale>  0 0.42599393E+03</rscale>
<asrwt>0</asrwt>
<pdfrwt beam="1">  1        2 0.26735944E+00 0.42599393E+03</pdfrwt>
<pdfrwt beam="2">  1       -2 0.34630218E-02 0.42599393E+03</pdfrwt>
<totfact> 0.34791660E+03</totfact>
</mgrwt>
</event>
<event>
 4    1  0.5312547E-005  0.5478395E+03  0.7818608E-02  0.1001995E+00
          2   -1    0    0  501    0  0.00000000000E+00  0.00000000000E+00  0.57419174439E+03  0.57419174439E+03  0.25500000000E-02 0.  1.
         -2   -1    0    0    0  501 -0.00000000000E+00 -0.00000000000E+00 -0.13067414586E+03  0.13067414588E+03  0.25500000000E-02 0. -1.
    5000001    1    1    2    0    0  0.36500050581E+02 -0.21554382927E+03  0.21667380980E+03  0.34923335448E+03  0.16500000000E+03 0.  0.
   -5000001    1    1    2    0    0 -0.36500050581E+02  0.21554382927E+03  0.22684378873E+03  0.35563253579E+03  0.16500000000E+03 0.  0.
<mgrwt>
<rscale>  0 0.54783945E+03</rscale>
<asrwt>0</asrwt>
<pdfrwt beam="1">  1        2 0.82027395E-01 0.54783945E+03</pdfrwt>
<pdfrwt beam="2">  1       -2 0.18667735E-01 0.54783945E+03</pdfrwt>
<totfact> 0.13752235E+03</totfact>
</mgrwt>
</event>
