<event>
 4    1  0.9064384E-005  0.3785456E+03  0.7818608E-02  0.1051473E+00
         -2   -1    0    0    0  501 -0.00000000000E+00  0.00000000000E+00  0.22459631418E+02  0.22459631563E+02  0.25500000000E-02 0. -1.
          2   -1    0    0  501    0  0.00000000000E+00 -0.00000000000E+00 -0.15950478226E+04  0.15950478227E+04  0.25500000000E-02 0.  1.
    5000001    1    1    2    0    0  0.70006179398E+02 -0.57697390716E+02 -0.70417640073E+03  0.72891649548E+03  0.16500000000E+03 0.  0.
   -5000001    1    1    2    0    0 -0.70006179398E+02  0.57697390716E+02 -0.86841179050E+03  0.88859095873E+03  0.16500000000E+03 0.  0.
<mgrwt>
<rscale>  0 0.37854557E+03</rscale>
<asrwt>0</asrwt>
<pdfrwt beam="1">  1        2 0.24539188E+00 0.37854557E+03</pdfrwt>
<pdfrwt beam="2">  1       -2 0.34553292E-02 0.37854557E+03</pdfrwt>
<totfact> 0.41649068E+03</totfact>
</mgrwt>
</event>
<event>
 4    1  0.9064384E-005  0.4257442E+03  0.7818608E-02  0.1035213E+00
         -2   -1    0    0    0  501 -0.00000000000E+00  0.00000000000E+00  0.72537012027E+02  0.72537012072E+02  0.25500000000E-02 0.  1.
          2   -1    0    0  501    0  0.00000000000E+00 -0.00000000000E+00 -0.62470909166E+03  0.62470909166E+03  0.25500000000E-02 0. -1.
    5000001    1    1    2    0    0  0.13280996992E+03 -0.92295821639E+01 -0.30741120762E+03  0.37343048064E+03  0.16500000000E+03 0.  0.
   -5000001    1    1    2    0    0 -0.13280996992E+03  0.92295821639E+01 -0.24476087201E+03  0.32381562310E+03  0.16500000000E+03 0.  0.
<mgrwt>
<rscale>  0 0.42574420E+03</rscale>
<asrwt>0</asrwt>
<pdfrwt beam="1">  1        2 0.96109087E-01 0.42574420E+03</pdfrwt>
<pdfrwt beam="2">  1       -2 0.11159541E-01 0.42574420E+03</pdfrwt>
<totfact> 0.26911027E+03</totfact>
</mgrwt>
</event>
<event>
 4    1  0.9064384E-005  0.3623443E+03  0.7818608E-02  0.1057659E+00
          2   -1    0    0  501    0  0.00000000000E+00  0.00000000000E+00  0.45401048034E+03  0.45401048035E+03  0.25500000000E-02 0.  1.
         -2   -1    0    0    0  501 -0.00000000000E+00 -0.00000000000E+00 -0.72296454764E+02  0.72296454809E+02  0.25500000000E-02 0. -1.
    5000001    1    1    2    0    0 -0.54737165235E+02  0.49249947293E+02  0.21016132443E+03  0.27715428348E+03  0.16500000000E+03 0.  0.
   -5000001    1    1    2    0    0  0.54737165235E+02 -0.49249947293E+02  0.17155270115E+03  0.24915265168E+03  0.16500000000E+03 0.  0.
<mgrwt>
<rscale>  0 0.36234430E+03</rscale>
<asrwt>0</asrwt>
<pdfrwt beam="1">  1        2 0.69847765E-01 0.36234430E+03</pdfrwt>
<pdfrwt beam="2">  1       -2 0.11122532E-01 0.36234430E+03</pdfrwt>
<totfact> 0.38968463E+03</totfact>
</mgrwt>
</event>
<event>
 4    1  0.9064384E-005  0.9800274E+03  0.7818608E-02  0.9330726E-01
          2   -1    0    0  501    0  0.00000000000E+00  0.00000000000E+00  0.42880328228E+04  0.42880328228E+04  0.25500000000E-02 0.  1.
         -2   -1    0    0    0  501 -0.00000000000E+00 -0.00000000000E+00 -0.55996175361E+02  0.55996175419E+02  0.25500000000E-02 0. -1.
    5000001    1    1    2    0    0  0.30947458509E+03 -0.58461938468E+02  0.62141029500E+03  0.71593859499E+03  0.16500000000E+03 0.  0.
   -5000001    1    1    2    0    0 -0.30947458509E+03  0.58461938468E+02  0.36106263525E+04  0.36280904033E+04  0.16500000000E+03 0.  0.
<mgrwt>
<rscale>  0 0.98002742E+03</rscale>
<asrwt>0</asrwt>
<pdfrwt beam="1">  1        2 0.65969773E+00 0.98002742E+03</pdfrwt>
<pdfrwt beam="2">  1       -2 0.86147914E-02 0.98002742E+03</pdfrwt>
<totfact> 0.18277509E+01</totfact>
</mgrwt>
</event>
<event>
 4    1  0.9064384E-005  0.4059282E+03  0.7818608E-02  0.1041746E+00
         -2   -1    0    0    0  501 -0.00000000000E+00  0.00000000000E+00  0.19828463880E+02  0.19828464044E+02  0.25500000000E-02 0. -1.
          2   -1    0    0  501    0  0.00000000000E+00 -0.00000000000E+00 -0.20775396019E+04  0.20775396019E+04  0.25500000000E-02 0.  1.
    5000001    1    1    2    0    0 -0.11349906411E+03 -0.16548815355E+02 -0.88148555537E+03  0.90410048400E+03  0.16500000000E+03 0.  0.
   -5000001    1    1    2    0    0  0.11349906411E+03  0.16548815355E+02 -0.11762255826E+04  0.11932675819E+04  0.16500000000E+03 0.  0.
<mgrwt>
<rscale>  0 0.40592817E+03</rscale>
<asrwt>0</asrwt>
<pdfrwt beam="1">  1        2 0.31962131E+00 0.40592817E+03</pdfrwt>
<pdfrwt beam="2">  1       -2 0.30505346E-02 0.40592817E+03</pdfrwt>
<totfact> 0.27756750E+03</totfact>
</mgrwt>
</event>
<event>
 4    1  0.9064384E-005  0.1208362E+04  0.7818608E-02  0.9105569E-01
          2   -1    0    0  501    0  0.00000000000E+00  0.00000000000E+00  0.21130864971E+03  0.21130864972E+03  0.25500000000E-02 0.  1.
         -2   -1    0    0    0  501 -0.00000000000E+00 -0.00000000000E+00 -0.17274947678E+04  0.17274947678E+04  0.25500000000E-02 0. -1.
    5000001    1    1    2    0    0  0.29403370395E+03  0.49603756951E+03 -0.64127900830E+03  0.87805059986E+03  0.16500000000E+03 0.  0.
   -5000001    1    1    2    0    0 -0.29403370395E+03 -0.49603756951E+03 -0.87490710976E+03  0.10607528176E+04  0.16500000000E+03 0.  0.
<mgrwt>
<rscale>  0 0.12083618E+04</rscale>
<asrwt>0</asrwt>
<pdfrwt beam="1">  1        2 0.32509024E-01 0.12083618E+04</pdfrwt>
<pdfrwt beam="2">  1       -2 0.26576842E+00 0.12083618E+04</pdfrwt>
<totfact> 0.82845994E+00</totfact>
</mgrwt>
</event>
<event>
 4    1  0.9064384E-005  0.9487508E+03  0.7818608E-02  0.9366612E-01
          2   -1    0    0  501    0  0.00000000000E+00  0.00000000000E+00  0.31657005171E+03  0.31657005172E+03  0.25500000000E-02 0.  1.
         -2   -1    0    0    0  501 -0.00000000000E+00 -0.00000000000E+00 -0.71084433328E+03  0.71084433329E+03  0.25500000000E-02 0. -1.
    5000001    1    1    2    0    0  0.39688391676E+03 -0.18953348693E+03 -0.12557273425E+03  0.48624407209E+03  0.16500000000E+03 0.  0.
   -5000001    1    1    2    0    0 -0.39688391676E+03  0.18953348693E+03 -0.26870154732E+03  0.54117031292E+03  0.16500000000E+03 0.  0.
<mgrwt>
<rscale>  0 0.94875082E+03</rscale>
<asrwt>0</asrwt>
<pdfrwt beam="1">  1        2 0.48703085E-01 0.94875082E+03</pdfrwt>
<pdfrwt beam="2">  1       -2 0.10936067E+00 0.94875082E+03</pdfrwt>
<totfact> 0.68959132E+01</totfact>
</mgrwt>
</event>
<event>
 4    1  0.9064384E-005  0.3809944E+03  0.7818608E-02  0.1050567E+00
         -2   -1    0    0    0  501 -0.00000000000E+00  0.00000000000E+00  0.71064717978E+01  0.71064722553E+01  0.25500000000E-02 0. -1.
          2   -1    0    0  501    0  0.00000000000E+00 -0.00000000000E+00 -0.51064977516E+04  0.51064977516E+04  0.25500000000E-02 0.  1.
    5000001    1    1    2    0    0  0.13044418601E+02 -0.82496209597E+02 -0.31630558033E+04  0.31684574790E+04  0.16500000000E+03 0.  0.
   -5000001    1    1    2    0    0 -0.13044418601E+02  0.82496209597E+02 -0.19363354765E+04  0.19451467449E+04  0.16500000000E+03 0.  0.
<mgrwt>
<rscale>  0 0.38099440E+03</rscale>
<asrwt>0</asrwt>
<pdfrwt beam="1">  1        2 0.78561210E+00 0.38099440E+03</pdfrwt>
<pdfrwt beam="2">  1       -2 0.10933075E-02 0.38099440E+03</pdfrwt>
<totfact> 0.66851023E+01</totfact>
</mgrwt>
</event>
<event>
 4    1  0.9064384E-005  0.5726830E+03  0.7818608E-02  0.9963759E-01
          2   -1    0    0  501    0  0.00000000000E+00  0.00000000000E+00  0.26633576665E+04  0.26633576665E+04  0.25500000000E-02 0.  1.
         -2   -1    0    0    0  501 -0.00000000000E+00 -0.00000000000E+00 -0.30784992777E+02  0.30784992882E+02  0.25500000000E-02 0. -1.
    5000001    1    1    2    0    0  0.87663904063E+02  0.20875260219E+03  0.15947562679E+04  0.16191773106E+04  0.16500000000E+03 0.  0.
   -5000001    1    1    2    0    0 -0.87663904063E+02 -0.20875260219E+03  0.10378164058E+04  0.10749653489E+04  0.16500000000E+03 0.  0.
<mgrwt>
<rscale>  0 0.57268297E+03</rscale>
<asrwt>0</asrwt>
<pdfrwt beam="1">  1        2 0.40974745E+00 0.57268297E+03</pdfrwt>
<pdfrwt beam="2">  1       -2 0.47361514E-02 0.57268297E+03</pdfrwt>
<totfact> 0.66482599E+02</totfact>
</mgrwt>
</event>
<event>
 4    1  0.9064384E-005  0.4898343E+03  0.7818608E-02  0.1016467E+00
          2   -1    0    0  501    0  0.00000000000E+00  0.00000000000E+00  0.13905559532E+04  0.13905559532E+04  0.25500000000E-02 0.  1.
         -2   -1    0    0    0  501 -0.00000000000E+00 -0.00000000000E+00 -0.43137001472E+02  0.43137001547E+02  0.25500000000E-02 0. -1.
    5000001    1    1    2    0    0  0.10384065783E+03 -0.11368153414E+03  0.95219599951E+03  0.97857477737E+03  0.16500000000E+03 0.  0.
   -5000001    1    1    2    0    0 -0.10384065783E+03  0.11368153414E+03  0.39522295224E+03  0.45511817740E+03  0.16500000000E+03 0.  0.
<mgrwt>
<rscale>  0 0.48983432E+03</rscale>
<asrwt>0</asrwt>
<pdfrwt beam="1">  1        2 0.21393168E+00 0.48983432E+03</pdfrwt>
<pdfrwt beam="2">  1       -2 0.66364619E-02 0.48983432E+03</pdfrwt>
<totfact> 0.19716391E+03</totfact>
</mgrwt>
</event>
<event>
 4    1  0.9064384E-005  0.7236320E+03  0.7818608E-02  0.9677651E-01
         -2   -1    0    0    0  501 -0.00000000000E+00  0.00000000000E+00  0.13985743296E+03  0.13985743299E+03  0.25500000000E-02 0. -1.
          2   -1    0    0  501    0  0.00000000000E+00 -0.00000000000E+00 -0.93603045912E+03  0.93603045912E+03  0.25500000000E-02 0.  1.
    5000001    1    1    2    0    0 -0.12936247009E+03  0.28778374506E+03 -0.30251843791E+03  0.46722215044E+03  0.16500000000E+03 0.  0.
   -5000001    1    1    2    0    0  0.12936247009E+03 -0.28778374506E+03 -0.49365458825E+03  0.60866574167E+03  0.16500000000E+03 0.  0.
<mgrwt>
<rscale>  0 0.72363200E+03</rscale>
<asrwt>0</asrwt>
<pdfrwt beam="1">  1        2 0.14400468E+00 0.72363200E+03</pdfrwt>
<pdfrwt beam="2">  1       -2 0.21516529E-01 0.72363200E+03</pdfrwt>
<totfact> 0.52342269E+02</totfact>
</mgrwt>
</event>
<event>
 4    1  0.9064384E-005  0.4273389E+03  0.7818608E-02  0.1034704E+00
         -2   -1    0    0    0  501 -0.00000000000E+00  0.00000000000E+00  0.21122988556E+02  0.21122988710E+02  0.25500000000E-02 0. -1.
          2   -1    0    0  501    0  0.00000000000E+00 -0.00000000000E+00 -0.21613714741E+04  0.21613714741E+04  0.25500000000E-02 0.  1.
    5000001    1    1    2    0    0 -0.14818100702E+02 -0.36809789799E+02 -0.17331742455E+04  0.17414627479E+04  0.16500000000E+03 0.  0.
   -5000001    1    1    2    0    0  0.14818100702E+02  0.36809789799E+02 -0.40707424005E+03  0.44103171501E+03  0.16500000000E+03 0.  0.
<mgrwt>
<rscale>  0 0.42733886E+03</rscale>
<asrwt>0</asrwt>
<pdfrwt beam="1">  1        2 0.33251851E+00 0.42733886E+03</pdfrwt>
<pdfrwt beam="2">  1       -2 0.32496923E-02 0.42733886E+03</pdfrwt>
<totfact> 0.22718882E+03</totfact>
</mgrwt>
</event>
<event>
 4    1  0.9064384E-005  0.4585452E+03  0.7818608E-02  0.1025204E+00
         -2   -1    0    0    0  501 -0.00000000000E+00  0.00000000000E+00  0.12572638089E+03  0.12572638092E+03  0.25500000000E-02 0. -1.
          2   -1    0    0  501    0  0.00000000000E+00 -0.00000000000E+00 -0.41809773702E+03  0.41809773702E+03  0.25500000000E-02 0.  1.
    5000001    1    1    2    0    0 -0.47562915547E+02 -0.15191449438E+03 -0.14521433191E+03  0.27138984272E+03  0.16500000000E+03 0.  0.
   -5000001    1    1    2    0    0  0.47562915547E+02  0.15191449438E+03 -0.14715702421E+03  0.27243427522E+03  0.16500000000E+03 0.  0.
<mgrwt>
<rscale>  0 0.45854516E+03</rscale>
<asrwt>0</asrwt>
<pdfrwt beam="1">  1        2 0.64322728E-01 0.45854516E+03</pdfrwt>
<pdfrwt beam="2">  1       -2 0.19342520E-01 0.45854516E+03</pdfrwt>
<totfact> 0.17036746E+03</totfact>
</mgrwt>
</event>
<event>
 4    1  0.9064384E-005  0.6807805E+03  0.7818608E-02  0.9750677E-01
          2   -1    0    0  501    0  0.00000000000E+00  0.00000000000E+00  0.86344600760E+03  0.86344600760E+03  0.25500000000E-02 0.  1.
         -2   -1    0    0    0  501 -0.00000000000E+00 -0.00000000000E+00 -0.13418965802E+03  0.13418965804E+03  0.25500000000E-02 0. -1.
    5000001    1    1    2    0    0  0.17319465127E+03  0.22942587343E+03  0.25104175403E+03  0.41578790374E+03  0.16500000000E+03 0.  0.
   -5000001    1    1    2    0    0 -0.17319465127E+03 -0.22942587343E+03  0.47821459556E+03  0.58184776191E+03  0.16500000000E+03 0.  0.
<mgrwt>
<rscale>  0 0.68078051E+03</rscale>
<asrwt>0</asrwt>
<pdfrwt beam="1">  1        2 0.13283785E+00 0.68078051E+03</pdfrwt>
<pdfrwt beam="2">  1       -2 0.20644563E-01 0.68078051E+03</pdfrwt>
<totfact> 0.63077286E+02</totfact>
</mgrwt>
</event>
<event>
 4    1  0.9064384E-005  0.7663207E+03  0.7818608E-02  0.9610088E-01
          2   -1    0    0  501    0  0.00000000000E+00  0.00000000000E+00  0.24044303475E+03  0.24044303476E+03  0.25500000000E-02 0.  1.
         -2   -1    0    0    0  501 -0.00000000000E+00 -0.00000000000E+00 -0.61058897624E+03  0.61058897625E+03  0.25500000000E-02 0. -1.
    5000001    1    1    2    0    0  0.49320617676E+02  0.33681331467E+03 -0.25272621822E+03  0.45494095622E+03  0.16500000000E+03 0.  0.
   -5000001    1    1    2    0    0 -0.49320617676E+02 -0.33681331467E+03 -0.11741972327E+03  0.39609105479E+03  0.16500000000E+03 0.  0.
<mgrwt>
<rscale>  0 0.76632073E+03</rscale>
<asrwt>0</asrwt>
<pdfrwt beam="1">  1        2 0.36991236E-01 0.76632073E+03</pdfrwt>
<pdfrwt beam="2">  1       -2 0.93936765E-01 0.76632073E+03</pdfrwt>
<totfact> 0.13563730E+02</totfact>
</mgrwt>
</event>
<event>
 4    1  0.9064384E-005  0.6465633E+03  0.7818608E-02  0.9813249E-01
          2   -1    0    0  501    0  0.00000000000E+00  0.00000000000E+00  0.52274082878E+03  0.52274082879E+03  0.25500000000E-02 0.  1.
         -2   -1    0    0    0  501 -0.00000000000E+00 -0.00000000000E+00 -0.19992896481E+03  0.19992896482E+03  0.25500000000E-02 0. -1.
    5000001    1    1    2    0    0  0.16962243178E+03 -0.47028639576E+02  0.40191496246E+03  0.46876870560E+03  0.16500000000E+03 0.  0.
   -5000001    1    1    2    0    0 -0.16962243178E+03  0.47028639576E+02 -0.79103098485E+02  0.25390108801E+03  0.16500000000E+03 0.  0.
<mgrwt>
<rscale>  0 0.64656332E+03</rscale>
<asrwt>0</asrwt>
<pdfrwt beam="1">  1        2 0.80421666E-01 0.64656332E+03</pdfrwt>
<pdfrwt beam="2">  1       -2 0.30758302E-01 0.64656332E+03</pdfrwt>
<totfact> 0.57560476E+02</totfact>
</mgrwt>
</event>
<event>
 4    1  0.9064384E-005  0.6756352E+03  0.7818608E-02  0.9759831E-01
          2   -1    0    0  501    0  0.00000000000E+00  0.00000000000E+00  0.23568189889E+04  0.23568189889E+04  0.25500000000E-02 0.  1.
         -2   -1    0    0    0  501 -0.00000000000E+00 -0.00000000000E+00 -0.48421515267E+02  0.48421515334E+02  0.25500000000E-02 0. -1.
    5000001    1    1    2    0    0  0.45228772450E+00  0.29405593653E+03  0.12277315621E+04  0.12731923998E+04  0.16500000000E+03 0.  0.
   -5000001    1    1    2    0    0 -0.45228772450E+00 -0.29405593653E+03  0.10806659115E+04  0.11320481044E+04  0.16500000000E+03 0.  0.
<mgrwt>
<rscale>  0 0.67563525E+03</rscale>
<asrwt>0</asrwt>
<pdfrwt beam="1">  1        2 0.36258749E+00 0.67563525E+03</pdfrwt>
<pdfrwt beam="2">  1       -2 0.74494649E-02 0.67563525E+03</pdfrwt>
<totfact> 0.48251084E+02</totfact>
</mgrwt>
</event>
<event>
 4    1  0.9064384E-005  0.4951793E+03  0.7818608E-02  0.1015045E+00
         -2   -1    0    0    0  501 -0.00000000000E+00  0.00000000000E+00  0.35774310095E+02  0.35774310185E+02  0.25500000000E-02 0. -1.
          2   -1    0    0  501    0  0.00000000000E+00 -0.00000000000E+00 -0.17135379774E+04  0.17135379774E+04  0.25500000000E-02 0.  1.
    5000001    1    1    2    0    0  0.17782892732E+03  0.48868204547E+02 -0.81052992533E+03  0.84746385684E+03  0.16500000000E+03 0.  0.
   -5000001    1    1    2    0    0 -0.17782892732E+03 -0.48868204547E+02 -0.86723374194E+03  0.90184843070E+03  0.16500000000E+03 0.  0.
<mgrwt>
<rscale>  0 0.49517932E+03</rscale>
<asrwt>0</asrwt>
<pdfrwt beam="1">  1        2 0.26362116E+00 0.49517932E+03</pdfrwt>
<pdfrwt beam="2">  1       -2 0.55037413E-02 0.49517932E+03</pdfrwt>
<totfact> 0.17584190E+03</totfact>
</mgrwt>
</event>
<event>
 4    1  0.9064384E-005  0.4331291E+03  0.7818608E-02  0.1032876E+00
          2   -1    0    0  501    0  0.00000000000E+00  0.00000000000E+00  0.65588976050E+03  0.65588976050E+03  0.25500000000E-02 0.  1.
         -2   -1    0    0    0  501 -0.00000000000E+00 -0.00000000000E+00 -0.71506231660E+02  0.71506231705E+02  0.25500000000E-02 0. -1.
    5000001    1    1    2    0    0  0.10124675458E+03 -0.47600324030E+02  0.43428219325E+03  0.47785219423E+03  0.16500000000E+03 0.  0.
   -5000001    1    1    2    0    0 -0.10124675458E+03  0.47600324030E+02  0.15010133559E+03  0.24954379797E+03  0.16500000000E+03 0.  0.
<mgrwt>
<rscale>  0 0.43312910E+03</rscale>
<asrwt>0</asrwt>
<pdfrwt beam="1">  1        2 0.10090612E+00 0.43312910E+03</pdfrwt>
<pdfrwt beam="2">  1       -2 0.11000959E-01 0.43312910E+03</pdfrwt>
<totfact> 0.25978046E+03</totfact>
</mgrwt>
</event>
<event>
 4    1  0.9064384E-005  0.6670651E+03  0.7818608E-02  0.9775274E-01
          2   -1    0    0  501    0  0.00000000000E+00  0.00000000000E+00  0.24381326274E+03  0.24381326275E+03  0.25500000000E-02 0.  1.
         -2   -1    0    0    0  501 -0.00000000000E+00 -0.00000000000E+00 -0.45626712004E+03  0.45626712005E+03  0.25500000000E-02 0. -1.
    5000001    1    1    2    0    0  0.84355952344E+02 -0.23115346824E+03 -0.26701232267E+03  0.39883384138E+03  0.16500000000E+03 0.  0.
   -5000001    1    1    2    0    0 -0.84355952344E+02  0.23115346824E+03  0.54558465362E+02  0.30124654142E+03  0.16500000000E+03 0.  0.
<mgrwt>
<rscale>  0 0.66706514E+03</rscale>
<asrwt>0</asrwt>
<pdfrwt beam="1">  1        2 0.37509733E-01 0.66706514E+03</pdfrwt>
<pdfrwt beam="2">  1       -2 0.70194941E-01 0.66706514E+03</pdfrwt>
<totfact> 0.25833386E+02</totfact>
</mgrwt>
</event>
<event>
 4    1  0.9064384E-005  0.4934124E+03  0.7818608E-02  0.1015513E+00
          2   -1    0    0  501    0  0.00000000000E+00  0.00000000000E+00  0.35572385310E+03  0.35572385310E+03  0.25500000000E-02 0.  1.
         -2   -1    0    0    0  501 -0.00000000000E+00 -0.00000000000E+00 -0.17109886794E+03  0.17109886796E+03  0.25500000000E-02 0. -1.
    5000001    1    1    2    0    0  0.14793193130E+03  0.10810561082E+03  0.10113448718E+03  0.26650302791E+03  0.16500000000E+03 0.  0.
   -5000001    1    1    2    0    0 -0.14793193130E+03 -0.10810561082E+03  0.83490497981E+02  0.26031969315E+03  0.16500000000E+03 0.  0.
<mgrwt>
<rscale>  0 0.49341240E+03</rscale>
<asrwt>0</asrwt>
<pdfrwt beam="1">  1        2 0.54726747E-01 0.49341240E+03</pdfrwt>
<pdfrwt beam="2">  1       -2 0.26322903E-01 0.49341240E+03</pdfrwt>
<totfact> 0.11840333E+03</totfact>
</mgrwt>
</event>
<event>
 4    1  0.9064384E-005  0.5216811E+03  0.7818608E-02  0.1008270E+00
          2   -1    0    0  501    0  0.00000000000E+00  0.00000000000E+00  0.48159603730E+03  0.48159603731E+03  0.25500000000E-02 0.  1.
         -2   -1    0    0    0  501 -0.00000000000E+00 -0.00000000000E+00 -0.14127565416E+03  0.14127565419E+03  0.25500000000E-02 0. -1.
    5000001    1    1    2    0    0 -0.14321846574E+03  0.14195580385E+03  0.18477431082E+03  0.31942060847E+03  0.16500000000E+03 0.  0.
   -5000001    1    1    2    0    0  0.14321846574E+03 -0.14195580385E+03  0.15554607231E+03  0.30345108302E+03  0.16500000000E+03 0.  0.
<mgrwt>
<rscale>  0 0.52168111E+03</rscale>
<asrwt>0</asrwt>
<pdfrwt beam="1">  1        2 0.74091699E-01 0.52168111E+03</pdfrwt>
<pdfrwt beam="2">  1       -2 0.21734716E-01 0.52168111E+03</pdfrwt>
<totfact> 0.11863546E+03</totfact>
</mgrwt>
</event>
<event>
 4    1  0.9064384E-005  0.3999770E+03  0.7818608E-02  0.1043788E+00
          2   -1    0    0  501    0  0.00000000000E+00  0.00000000000E+00  0.27185312528E+03  0.27185312530E+03  0.25500000000E-02 0.  1.
         -2   -1    0    0    0  501 -0.00000000000E+00 -0.00000000000E+00 -0.14712132366E+03  0.14712132368E+03  0.25500000000E-02 0. -1.
    5000001    1    1    2    0    0 -0.57496689294E+02  0.53660935968E+02  0.14736832727E+03  0.23479307743E+03  0.16500000000E+03 0.  0.
   -5000001    1    1    2    0    0  0.57496689294E+02 -0.53660935968E+02 -0.22636525641E+02  0.18418137154E+03  0.16500000000E+03 0.  0.
<mgrwt>
<rscale>  0 0.39997696E+03</rscale>
<asrwt>0</asrwt>
<pdfrwt beam="1">  1        2 0.41823557E-01 0.39997696E+03</pdfrwt>
<pdfrwt beam="2">  1       -2 0.22634050E-01 0.39997696E+03</pdfrwt>
<totfact> 0.20762781E+03</totfact>
</mgrwt>
</event>
<event>
 4    1  0.9064384E-005  0.4537868E+03  0.7818608E-02  0.1026599E+00
          2   -1    0    0  501    0  0.00000000000E+00  0.00000000000E+00  0.52597822759E+03  0.52597822760E+03  0.25500000000E-02 0.  1.
         -2   -1    0    0    0  501 -0.00000000000E+00 -0.00000000000E+00 -0.97875947392E+02  0.97875947425E+02  0.25500000000E-02 0. -1.
    5000001    1    1    2    0    0 -0.99981308825E+02 -0.76252825810E+02  0.34038724709E+03  0.39862166717E+03  0.16500000000E+03 0.  0.
   -5000001    1    1    2    0    0  0.99981308825E+02  0.76252825810E+02  0.87715033109E+02  0.22523250785E+03  0.16500000000E+03 0.  0.
<mgrwt>
<rscale>  0 0.45378681E+03</rscale>
<asrwt>0</asrwt>
<pdfrwt beam="1">  1        2 0.80919726E-01 0.45378681E+03</pdfrwt>
<pdfrwt beam="2">  1       -2 0.15057838E-01 0.45378681E+03</pdfrwt>
<totfact> 0.20105980E+03</totfact>
</mgrwt>
</event>
<event>
 4    1  0.9064384E-005  0.3872129E+03  0.7818608E-02  0.1048300E+00
          2   -1    0    0  501    0  0.00000000000E+00  0.00000000000E+00  0.59521659721E+03  0.59521659722E+03  0.25500000000E-02 0.  1.
         -2   -1    0    0    0  501 -0.00000000000E+00 -0.00000000000E+00 -0.62974467047E+02  0.62974467099E+02  0.25500000000E-02 0. -1.
    5000001    1    1    2    0    0 -0.28342522505E+02  0.93515174623E+02  0.31141605988E+03  0.36572304934E+03  0.16500000000E+03 0.  0.
   -5000001    1    1    2    0    0  0.28342522505E+02 -0.93515174623E+02  0.22082607028E+03  0.29246801497E+03  0.16500000000E+03 0.  0.
<mgrwt>
<rscale>  0 0.38721285E+03</rscale>
<asrwt>0</asrwt>
<pdfrwt beam="1">  1        2 0.91571784E-01 0.38721285E+03</pdfrwt>
<pdfrwt beam="2">  1       -2 0.96883796E-02 0.38721285E+03</pdfrwt>
<totfact> 0.35749135E+03</totfact>
</mgrwt>
</event>
<event>
 4    1  0.9064384E-005  0.6376829E+03  0.7818608E-02  0.9830170E-01
         -2   -1    0    0    0  501 -0.00000000000E+00  0.00000000000E+00  0.77214255401E+02  0.77214255443E+02  0.25500000000E-02 0. -1.
          2   -1    0    0  501    0  0.00000000000E+00 -0.00000000000E+00 -0.13165944850E+04  0.13165944850E+04  0.25500000000E-02 0.  1.
    5000001    1    1    2    0    0 -0.37992734180E+02  0.26973774835E+03 -0.58632895935E+03  0.66723949922E+03  0.16500000000E+03 0.  0.
   -5000001    1    1    2    0    0  0.37992734180E+02 -0.26973774835E+03 -0.65305127027E+03  0.72656924125E+03  0.16500000000E+03 0.  0.
<mgrwt>
<rscale>  0 0.63768288E+03</rscale>
<asrwt>0</asrwt>
<pdfrwt beam="1">  1        2 0.20255298E+00 0.63768288E+03</pdfrwt>
<pdfrwt beam="2">  1       -2 0.11879117E-01 0.63768288E+03</pdfrwt>
<totfact> 0.84793147E+02</totfact>
</mgrwt>
</event>
<event>
 4    1  0.9064384E-005  0.5886697E+03  0.7818608E-02  0.9929196E-01
          2   -1    0    0  501    0  0.00000000000E+00  0.00000000000E+00  0.14703563981E+04  0.14703563981E+04  0.25500000000E-02 0.  1.
         -2   -1    0    0    0  501 -0.00000000000E+00 -0.00000000000E+00 -0.58919736315E+02  0.58919736370E+02  0.25500000000E-02 0. -1.
    5000001    1    1    2    0    0 -0.11542025825E+03 -0.17874836935E+03  0.10145807892E+04  0.10497009066E+04  0.16500000000E+03 0.  0.
   -5000001    1    1    2    0    0  0.11542025825E+03  0.17874836935E+03  0.39685587262E+03  0.47957522788E+03  0.16500000000E+03 0.  0.
<mgrwt>
<rscale>  0 0.58866973E+03</rscale>
<asrwt>0</asrwt>
<pdfrwt beam="1">  1        2 0.22620866E+00 0.58866973E+03</pdfrwt>
<pdfrwt beam="2">  1       -2 0.90645757E-02 0.58866973E+03</pdfrwt>
<totfact> 0.10813384E+03</totfact>
</mgrwt>
</event>
<event>
 4    1  0.9064384E-005  0.3827375E+03  0.7818608E-02  0.1049927E+00
         -2   -1    0    0    0  501 -0.00000000000E+00  0.00000000000E+00  0.35217077691E+02  0.35217077784E+02  0.25500000000E-02 0. -1.
          2   -1    0    0  501    0  0.00000000000E+00 -0.00000000000E+00 -0.10398930995E+04  0.10398930995E+04  0.25500000000E-02 0.  1.
    5000001    1    1    2    0    0  0.93143869054E+02  0.26844471331E+02 -0.50449590864E+03  0.53957161510E+03  0.16500000000E+03 0.  0.
   -5000001    1    1    2    0    0 -0.93143869054E+02 -0.26844471331E+02 -0.50018011317E+03  0.53553856219E+03  0.16500000000E+03 0.  0.
<mgrwt>
<rscale>  0 0.38273749E+03</rscale>
<asrwt>0</asrwt>
<pdfrwt beam="1">  1        2 0.15998353E+00 0.38273749E+03</pdfrwt>
<pdfrwt beam="2">  1       -2 0.54180128E-02 0.38273749E+03</pdfrwt>
<totfact> 0.43162636E+03</totfact>
</mgrwt>
</event>
<event>
 4    1  0.9064384E-005  0.4232875E+03  0.7818608E-02  0.1036002E+00
         -2   -1    0    0    0  501 -0.00000000000E+00  0.00000000000E+00  0.10417263683E+03  0.10417263687E+03  0.25500000000E-02 0. -1.
          2   -1    0    0  501    0  0.00000000000E+00 -0.00000000000E+00 -0.42998893605E+03  0.42998893606E+03  0.25500000000E-02 0.  1.
    5000001    1    1    2    0    0  0.12837880825E+03  0.13969842054E+02 -0.12522280701E+03  0.24409429795E+03  0.16500000000E+03 0.  0.
   -5000001    1    1    2    0    0 -0.12837880825E+03 -0.13969842054E+02 -0.20059349220E+03  0.29006727497E+03  0.16500000000E+03 0.  0.
<mgrwt>
<rscale>  0 0.42328752E+03</rscale>
<asrwt>0</asrwt>
<pdfrwt beam="1">  1        2 0.66152143E-01 0.42328752E+03</pdfrwt>
<pdfrwt beam="2">  1       -2 0.16026560E-01 0.42328752E+03</pdfrwt>
<totfact> 0.22732007E+03</totfact>
</mgrwt>
</event>
<event>
 4    1  0.9064384E-005  0.3906560E+03  0.7818608E-02  0.1047064E+00
          2   -1    0    0  501    0  0.00000000000E+00  0.00000000000E+00  0.12789924742E+04  0.12789924742E+04  0.25500000000E-02 0.  1.
         -2   -1    0    0    0  501 -0.00000000000E+00 -0.00000000000E+00 -0.29830539868E+02  0.29830539977E+02  0.25500000000E-02 0. -1.
    5000001    1    1    2    0    0 -0.47424292129E+02 -0.92843806689E+02  0.59884663496E+03  0.62985024262E+03  0.16500000000E+03 0.  0.
   -5000001    1    1    2    0    0  0.47424292129E+02  0.92843806689E+02  0.65031529941E+03  0.67897277160E+03  0.16500000000E+03 0.  0.
<mgrwt>
<rscale>  0 0.39065604E+03</rscale>
<asrwt>0</asrwt>
<pdfrwt beam="1">  1        2 0.19676806E+00 0.39065604E+03</pdfrwt>
<pdfrwt beam="2">  1       -2 0.45893141E-02 0.39065604E+03</pdfrwt>
<totfact> 0.40349821E+03</totfact>
</mgrwt>
</event>
<event>
 4    1  0.9064384E-005  0.9502699E+03  0.7818608E-02  0.9364835E-01
         -2   -1    0    0    0  501 -0.00000000000E+00  0.00000000000E+00  0.29930870486E+03  0.29930870487E+03  0.25500000000E-02 0. -1.
          2   -1    0    0  501    0  0.00000000000E+00 -0.00000000000E+00 -0.75424870496E+03  0.75424870496E+03  0.25500000000E-02 0.  1.
    5000001    1    1    2    0    0 -0.39643602543E+03  0.27083543670E+02 -0.45095663787E+03  0.62328318591E+03  0.16500000000E+03 0.  0.
   -5000001    1    1    2    0    0  0.39643602543E+03 -0.27083543670E+02 -0.39833622263E+01  0.43027422392E+03  0.16500000000E+03 0.  0.
<mgrwt>
<rscale>  0 0.95026986E+03</rscale>
<asrwt>0</asrwt>
<pdfrwt beam="1">  1        2 0.11603826E+00 0.95026986E+03</pdfrwt>
<pdfrwt beam="2">  1       -2 0.46047493E-01 0.95026986E+03</pdfrwt>
<totfact> 0.16656838E+02</totfact>
</mgrwt>
</event>
<event>
 4    1  0.9064384E-005  0.4107722E+03  0.7818608E-02  0.1040112E+00
         -2   -1    0    0    0  501 -0.00000000000E+00  0.00000000000E+00  0.22516967053E+02  0.22516967198E+02  0.25500000000E-02 0. -1.
          2   -1    0    0  501    0  0.00000000000E+00 -0.00000000000E+00 -0.18734073536E+04  0.18734073536E+04  0.25500000000E-02 0.  1.
    5000001    1    1    2    0    0  0.99366376333E+02  0.43339030538E+02 -0.66408719039E+03  0.69281220020E+03  0.16500000000E+03 0.  0.
   -5000001    1    1    2    0    0 -0.99366376333E+02 -0.43339030538E+02 -0.11868031962E+04  0.12031121206E+04  0.16500000000E+03 0.  0.
<mgrwt>
<rscale>  0 0.41077221E+03</rscale>
<asrwt>0</asrwt>
<pdfrwt beam="1">  1        2 0.28821639E+00 0.41077221E+03</pdfrwt>
<pdfrwt beam="2">  1       -2 0.34641503E-02 0.41077221E+03</pdfrwt>
<totfact> 0.29439308E+03</totfact>
</mgrwt>
</event>
<event>
 4    1  0.9064384E-005  0.7583866E+03  0.7818608E-02  0.9622284E-01
         -2   -1    0    0    0  501 -0.00000000000E+00  0.00000000000E+00  0.70999023778E+02  0.70999023824E+02  0.25500000000E-02 0. -1.
          2   -1    0    0  501    0  0.00000000000E+00 -0.00000000000E+00 -0.20252049386E+04  0.20252049386E+04  0.25500000000E-02 0.  1.
    5000001    1    1    2    0    0  0.33697718774E+03 -0.53719398180E+00 -0.11287135067E+04  0.11894423457E+04  0.16500000000E+03 0.  0.
   -5000001    1    1    2    0    0 -0.33697718774E+03  0.53719398180E+00 -0.82549240816E+03  0.90676161673E+03  0.16500000000E+03 0.  0.
<mgrwt>
<rscale>  0 0.75838664E+03</rscale>
<asrwt>0</asrwt>
<pdfrwt beam="1">  1        2 0.31156995E+00 0.75838664E+03</pdfrwt>
<pdfrwt beam="2">  1       -2 0.10922928E-01 0.75838664E+03</pdfrwt>
<totfact> 0.39343541E+02</totfact>
</mgrwt>
</event>
<event>
 4    1  0.9064384E-005  0.4426241E+03  0.7818608E-02  0.1029945E+00
         -2   -1    0    0    0  501 -0.00000000000E+00  0.00000000000E+00  0.66451330630E+02  0.66451330679E+02  0.25500000000E-02 0. -1.
          2   -1    0    0  501    0  0.00000000000E+00 -0.00000000000E+00 -0.73706610155E+03  0.73706610155E+03  0.25500000000E-02 0.  1.
    5000001    1    1    2    0    0 -0.12670784034E+03  0.50864163515E+02 -0.23403783635E+03  0.31723926109E+03  0.16500000000E+03 0.  0.
   -5000001    1    1    2    0    0  0.12670784034E+03 -0.50864163515E+02 -0.43657693456E+03  0.48627817114E+03  0.16500000000E+03 0.  0.
<mgrwt>
<rscale>  0 0.44262410E+03</rscale>
<asrwt>0</asrwt>
<pdfrwt beam="1">  1        2 0.11339478E+00 0.44262410E+03</pdfrwt>
<pdfrwt beam="2">  1       -2 0.10223282E-01 0.44262410E+03</pdfrwt>
<totfact> 0.25324848E+03</totfact>
</mgrwt>
</event>
<event>
 4    1  0.9064384E-005  0.5647903E+03  0.7818608E-02  0.9981274E-01
         -2   -1    0    0    0  501 -0.00000000000E+00  0.00000000000E+00  0.13767387202E+03  0.13767387204E+03  0.25500000000E-02 0. -1.
          2   -1    0    0  501    0  0.00000000000E+00 -0.00000000000E+00 -0.57924580845E+03  0.57924580846E+03  0.25500000000E-02 0.  1.
    5000001    1    1    2    0    0 -0.91684347421E+02  0.20071753675E+03 -0.14224511987E+03  0.31008421960E+03  0.16500000000E+03 0.  0.
   -5000001    1    1    2    0    0  0.91684347421E+02 -0.20071753675E+03 -0.29932681657E+03  0.40683546089E+03  0.16500000000E+03 0.  0.
<mgrwt>
<rscale>  0 0.56479027E+03</rscale>
<asrwt>0</asrwt>
<pdfrwt beam="1">  1        2 0.89114739E-01 0.56479027E+03</pdfrwt>
<pdfrwt beam="2">  1       -2 0.21180596E-01 0.56479027E+03</pdfrwt>
<totfact> 0.10014564E+03</totfact>
</mgrwt>
</event>
<event>
 4    1  0.9064384E-005  0.6036252E+03  0.7818608E-02  0.9897913E-01
         -2   -1    0    0    0  501 -0.00000000000E+00  0.00000000000E+00  0.68299560564E+02  0.68299560611E+02  0.25500000000E-02 0. -1.
          2   -1    0    0  501    0  0.00000000000E+00 -0.00000000000E+00 -0.13336961243E+04  0.13336961243E+04  0.25500000000E-02 0.  1.
    5000001    1    1    2    0    0 -0.61086169985E+02  0.13348289416E+03 -0.11104859681E+04  0.11322337606E+04  0.16500000000E+03 0.  0.
   -5000001    1    1    2    0    0  0.61086169985E+02 -0.13348289416E+03 -0.15491059565E+03  0.26976192437E+03  0.16500000000E+03 0.  0.
<mgrwt>
<rscale>  0 0.60362525E+03</rscale>
<asrwt>0</asrwt>
<pdfrwt beam="1">  1        2 0.20518400E+00 0.60362525E+03</pdfrwt>
<pdfrwt beam="2">  1       -2 0.10507626E-01 0.60362525E+03</pdfrwt>
<totfact> 0.10150614E+03</totfact>
</mgrwt>
</event>
<event>
 4    1  0.9064384E-005  0.6924506E+03  0.7818608E-02  0.9730231E-01
          2   -1    0    0  501    0  0.00000000000E+00  0.00000000000E+00  0.91654102128E+03  0.91654102128E+03  0.25500000000E-02 0.  1.
         -2   -1    0    0    0  501 -0.00000000000E+00 -0.00000000000E+00 -0.13078731757E+03  0.13078731759E+03  0.25500000000E-02 0. -1.
    5000001    1    1    2    0    0 -0.22730358440E+03 -0.12946534758E+02  0.87321280730E+02  0.29442238079E+03  0.16500000000E+03 0.  0.
   -5000001    1    1    2    0    0  0.22730358440E+03  0.12946534758E+02  0.69843242298E+03  0.75290595808E+03  0.16500000000E+03 0.  0.
<mgrwt>
<rscale>  0 0.69245055E+03</rscale>
<asrwt>0</asrwt>
<pdfrwt beam="1">  1        2 0.14100631E+00 0.69245055E+03</pdfrwt>
<pdfrwt beam="2">  1       -2 0.20121126E-01 0.69245055E+03</pdfrwt>
<totfact> 0.60730155E+02</totfact>
</mgrwt>
</event>
<event>
 4    1  0.9064384E-005  0.4879551E+03  0.7818608E-02  0.1016972E+00
         -2   -1    0    0    0  501 -0.00000000000E+00  0.00000000000E+00  0.42708825946E+03  0.42708825947E+03  0.25500000000E-02 0. -1.
          2   -1    0    0  501    0  0.00000000000E+00 -0.00000000000E+00 -0.13937411071E+03  0.13937411073E+03  0.25500000000E-02 0.  1.
    5000001    1    1    2    0    0 -0.10978311639E+02 -0.59635968267E+02  0.34026062624E+03  0.38298729197E+03  0.16500000000E+03 0.  0.
   -5000001    1    1    2    0    0  0.10978311639E+02  0.59635968267E+02 -0.52546477484E+02  0.18347507824E+03  0.16500000000E+03 0.  0.
<mgrwt>
<rscale>  0 0.48795511E+03</rscale>
<asrwt>0</asrwt>
<pdfrwt beam="1">  1        2 0.21442171E-01 0.48795511E+03</pdfrwt>
<pdfrwt beam="2">  1       -2 0.65705886E-01 0.48795511E+03</pdfrwt>
<totfact> 0.56274454E+02</totfact>
</mgrwt>
</event>
<event>
 4    1  0.9064384E-005  0.3915408E+03  0.7818608E-02  0.1046749E+00
          2   -1    0    0  501    0  0.00000000000E+00  0.00000000000E+00  0.26525887983E+02  0.26525888106E+02  0.25500000000E-02 0.  1.
         -2   -1    0    0    0  501 -0.00000000000E+00 -0.00000000000E+00 -0.14448547580E+04  0.14448547580E+04  0.25500000000E-02 0. -1.
    5000001    1    1    2    0    0  0.10151113362E+03 -0.24049531881E+02 -0.65365831891E+03  0.68218552324E+03  0.16500000000E+03 0.  0.
   -5000001    1    1    2    0    0 -0.10151113362E+03  0.24049531881E+02 -0.76467055107E+03  0.78919512283E+03  0.16500000000E+03 0.  0.
<mgrwt>
<rscale>  0 0.39154083E+03</rscale>
<asrwt>0</asrwt>
<pdfrwt beam="1">  1        2 0.40809070E-02 0.39154083E+03</pdfrwt>
<pdfrwt beam="2">  1       -2 0.22228529E+00 0.39154083E+03</pdfrwt>
<totfact> 0.21597169E+02</totfact>
</mgrwt>
</event>
<event>
 4    1  0.9064384E-005  0.7865358E+03  0.7818608E-02  0.9579713E-01
          2   -1    0    0  501    0  0.00000000000E+00  0.00000000000E+00  0.11257114252E+04  0.11257114252E+04  0.25500000000E-02 0.  1.
         -2   -1    0    0    0  501 -0.00000000000E+00 -0.00000000000E+00 -0.13738834807E+03  0.13738834810E+03  0.25500000000E-02 0. -1.
    5000001    1    1    2    0    0  0.29826931362E+03  0.18789499756E+03  0.40380872614E+03  0.56085256606E+03  0.16500000000E+03 0.  0.
   -5000001    1    1    2    0    0 -0.29826931362E+03 -0.18789499756E+03  0.58451435095E+03  0.70224720720E+03  0.16500000000E+03 0.  0.
<mgrwt>
<rscale>  0 0.78653578E+03</rscale>
<asrwt>0</asrwt>
<pdfrwt beam="1">  1        2 0.17318638E+00 0.78653578E+03</pdfrwt>
<pdfrwt beam="2">  1       -2 0.21136668E-01 0.78653578E+03</pdfrwt>
<totfact> 0.40904237E+02</totfact>
</mgrwt>
</event>
<event>
 4    1  0.9064384E-005  0.5006163E+03  0.7818608E-02  0.1013618E+00
         -2   -1    0    0    0  501 -0.00000000000E+00  0.00000000000E+00  0.16617186053E+04  0.16617186053E+04  0.25500000000E-02 0. -1.
          2   -1    0    0  501    0  0.00000000000E+00 -0.00000000000E+00 -0.37704435701E+02  0.37704435787E+02  0.25500000000E-02 0.  1.
    5000001    1    1    2    0    0  0.12759095438E+02  0.17569563075E+03  0.58689688148E+03  0.63459018168E+03  0.16500000000E+03 0.  0.
   -5000001    1    1    2    0    0 -0.12759095438E+02 -0.17569563075E+03  0.10371172881E+04  0.10648328594E+04  0.16500000000E+03 0.  0.
<mgrwt>
<rscale>  0 0.50061627E+03</rscale>
<asrwt>0</asrwt>
<pdfrwt beam="1">  1        2 0.58006833E-02 0.50061627E+03</pdfrwt>
<pdfrwt beam="2">  1       -2 0.25564898E+00 0.50061627E+03</pdfrwt>
<totfact> 0.84183057E+01</totfact>
</mgrwt>
</event>
<event>
 4    1  0.9064384E-005  0.8068318E+03  0.7818608E-02  0.9550181E-01
          2   -1    0    0  501    0  0.00000000000E+00  0.00000000000E+00  0.19361558387E+04  0.19361558387E+04  0.25500000000E-02 0.  1.
         -2   -1    0    0    0  501 -0.00000000000E+00 -0.00000000000E+00 -0.84055416166E+02  0.84055416204E+02  0.25500000000E-02 0. -1.
    5000001    1    1    2    0    0 -0.13284498211E+03 -0.67565985103E+02  0.17688823125E+04  0.17828018923E+04  0.16500000000E+03 0.  0.
   -5000001    1    1    2    0    0  0.13284498211E+03  0.67565985103E+02  0.83218109987E+02  0.23740936259E+03  0.16500000000E+03 0.  0.
<mgrwt>
<rscale>  0 0.80683179E+03</rscale>
<asrwt>0</asrwt>
<pdfrwt beam="1">  1        2 0.29787012E+00 0.80683179E+03</pdfrwt>
<pdfrwt beam="2">  1       -2 0.12931603E-01 0.80683179E+03</pdfrwt>
<totfact> 0.33170490E+02</totfact>
</mgrwt>
</event>
<event>
 4    1  0.9064384E-005  0.6699762E+03  0.7818608E-02  0.9770001E-01
          2   -1    0    0  501    0  0.00000000000E+00  0.00000000000E+00  0.26997245117E+03  0.26997245118E+03  0.25500000000E-02 0.  1.
         -2   -1    0    0    0  501 -0.00000000000E+00 -0.00000000000E+00 -0.41566105134E+03  0.41566105135E+03  0.25500000000E-02 0. -1.
    5000001    1    1    2    0    0 -0.27399423429E+03  0.31560205739E+02 -0.16951428277E+03  0.36335792144E+03  0.16500000000E+03 0.  0.
   -5000001    1    1    2    0    0  0.27399423429E+03 -0.31560205739E+02  0.23825682599E+02  0.32227558109E+03  0.16500000000E+03 0.  0.
<mgrwt>
<rscale>  0 0.66997622E+03</rscale>
<asrwt>0</asrwt>
<pdfrwt beam="1">  1        2 0.41534223E-01 0.66997622E+03</pdfrwt>
<pdfrwt beam="2">  1       -2 0.63947854E-01 0.66997622E+03</pdfrwt>
<totfact> 0.28204798E+02</totfact>
</mgrwt>
</event>
<event>
 4    1  0.9064384E-005  0.7419674E+03  0.7818608E-02  0.9648037E-01
         -2   -1    0    0    0  501 -0.00000000000E+00  0.00000000000E+00  0.76077749109E+02  0.76077749152E+02  0.25500000000E-02 0. -1.
          2   -1    0    0  501    0  0.00000000000E+00 -0.00000000000E+00 -0.18090560075E+04  0.18090560075E+04  0.25500000000E-02 0.  1.
    5000001    1    1    2    0    0  0.28953765679E+03 -0.92118414689E+02 -0.52480152047E+03  0.62845802796E+03  0.16500000000E+03 0.  0.
   -5000001    1    1    2    0    0 -0.28953765679E+03  0.92118414689E+02 -0.12081767380E+04  0.12566757287E+04  0.16500000000E+03 0.  0.
<mgrwt>
<rscale>  0 0.74196741E+03</rscale>
<asrwt>0</asrwt>
<pdfrwt beam="1">  1        2 0.27831628E+00 0.74196741E+03</pdfrwt>
<pdfrwt beam="2">  1       -2 0.11704270E-01 0.74196741E+03</pdfrwt>
<totfact> 0.46115604E+02</totfact>
</mgrwt>
</event>
<event>
 4    1  0.9064384E-005  0.7281379E+03  0.7818608E-02  0.9670287E-01
          2   -1    0    0  501    0  0.00000000000E+00  0.00000000000E+00  0.20154704817E+04  0.20154704817E+04  0.25500000000E-02 0.  1.
         -2   -1    0    0    0  501 -0.00000000000E+00 -0.00000000000E+00 -0.65764400869E+02  0.65764400918E+02  0.25500000000E-02 0. -1.
    5000001    1    1    2    0    0 -0.49351157554E+02  0.31249780945E+03  0.11815771514E+04  0.12342771092E+04  0.16500000000E+03 0.  0.
   -5000001    1    1    2    0    0  0.49351157554E+02 -0.31249780945E+03  0.76812892942E+03  0.84695777337E+03  0.16500000000E+03 0.  0.
<mgrwt>
<rscale>  0 0.72813792E+03</rscale>
<asrwt>0</asrwt>
<pdfrwt beam="1">  1        2 0.31007238E+00 0.72813792E+03</pdfrwt>
<pdfrwt beam="2">  1       -2 0.10117600E-01 0.72813792E+03</pdfrwt>
<totfact> 0.45239637E+02</totfact>
</mgrwt>
</event>
<event>
 4    1  0.9064384E-005  0.6117733E+03  0.7818608E-02  0.9881277E-01
         -2   -1    0    0    0  501 -0.00000000000E+00  0.00000000000E+00  0.14011160094E+03  0.14011160097E+03  0.25500000000E-02 0. -1.
          2   -1    0    0  501    0  0.00000000000E+00 -0.00000000000E+00 -0.66780083135E+03  0.66780083135E+03  0.25500000000E-02 0.  1.
    5000001    1    1    2    0    0  0.82503110166E+01  0.16370008920E+03 -0.14592837280E+01  0.23257883899E+03  0.16500000000E+03 0.  0.
   -5000001    1    1    2    0    0 -0.82503110166E+01 -0.16370008920E+03 -0.52622994667E+03  0.57533359333E+03  0.16500000000E+03 0.  0.
<mgrwt>
<rscale>  0 0.61177330E+03</rscale>
<asrwt>0</asrwt>
<pdfrwt beam="1">  1        2 0.10273859E+00 0.61177330E+03</pdfrwt>
<pdfrwt beam="2">  1       -2 0.21555631E-01 0.61177330E+03</pdfrwt>
<totfact> 0.81692262E+02</totfact>
</mgrwt>
</event>
<event>
 4    1  0.9064384E-005  0.3973870E+03  0.7818608E-02  0.1044688E+00
          2   -1    0    0  501    0  0.00000000000E+00  0.00000000000E+00  0.26206333131E+03  0.26206333133E+03  0.25500000000E-02 0.  1.
         -2   -1    0    0    0  501 -0.00000000000E+00 -0.00000000000E+00 -0.15064716593E+03  0.15064716595E+03  0.25500000000E-02 0. -1.
    5000001    1    1    2    0    0  0.10981746554E+03  0.13886852740E+02  0.54489046255E+02  0.20602615508E+03  0.16500000000E+03 0.  0.
   -5000001    1    1    2    0    0 -0.10981746554E+03 -0.13886852740E+02  0.56927119126E+02  0.20668434220E+03  0.16500000000E+03 0.  0.
<mgrwt>
<rscale>  0 0.39738696E+03</rscale>
<asrwt>0</asrwt>
<pdfrwt beam="1">  1        2 0.40317435E-01 0.39738696E+03</pdfrwt>
<pdfrwt beam="2">  1       -2 0.23176487E-01 0.39738696E+03</pdfrwt>
<totfact> 0.20727388E+03</totfact>
</mgrwt>
</event>
<event>
 4    1  0.9064384E-005  0.7075288E+03  0.7818608E-02  0.9704443E-01
          2   -1    0    0  501    0  0.00000000000E+00  0.00000000000E+00  0.27475723744E+03  0.27475723746E+03  0.25500000000E-02 0.  1.
         -2   -1    0    0    0  501 -0.00000000000E+00 -0.00000000000E+00 -0.45549034157E+03  0.45549034158E+03  0.25500000000E-02 0. -1.
    5000001    1    1    2    0    0 -0.26648783554E+03  0.16157219056E+03 -0.11961241632E+03  0.37236201390E+03  0.16500000000E+03 0.  0.
   -5000001    1    1    2    0    0  0.26648783554E+03 -0.16157219056E+03 -0.61120687807E+02  0.35788556514E+03  0.16500000000E+03 0.  0.
<mgrwt>
<rscale>  0 0.70752885E+03</rscale>
<asrwt>0</asrwt>
<pdfrwt beam="1">  1        2 0.42270344E-01 0.70752885E+03</pdfrwt>
<pdfrwt beam="2">  1       -2 0.70075437E-01 0.70752885E+03</pdfrwt>
<totfact> 0.22678821E+02</totfact>
</mgrwt>
</event>
<event>
 4    1  0.9064384E-005  0.4501547E+03  0.7818608E-02  0.1027676E+00
          2   -1    0    0  501    0  0.00000000000E+00  0.00000000000E+00  0.79935013644E+03  0.79935013644E+03  0.25500000000E-02 0.  1.
         -2   -1    0    0    0  501 -0.00000000000E+00 -0.00000000000E+00 -0.63376252266E+02  0.63376252318E+02  0.25500000000E-02 0. -1.
    5000001    1    1    2    0    0  0.10425598162E+03 -0.44387225680E+02  0.17071400504E+03  0.26307376727E+03  0.16500000000E+03 0.  0.
   -5000001    1    1    2    0    0 -0.10425598162E+03  0.44387225680E+02  0.56525987913E+03  0.59965262149E+03  0.16500000000E+03 0.  0.
<mgrwt>
<rscale>  0 0.45015471E+03</rscale>
<asrwt>0</asrwt>
<pdfrwt beam="1">  1        2 0.12297694E+00 0.45015471E+03</pdfrwt>
<pdfrwt beam="2">  1       -2 0.97501929E-02 0.45015471E+03</pdfrwt>
<totfact> 0.24639670E+03</totfact>
</mgrwt>
</event>
<event>
 4    1  0.9064384E-005  0.4137389E+03  0.7818608E-02  0.1039124E+00
          2   -1    0    0  501    0  0.00000000000E+00  0.00000000000E+00  0.24803886930E+04  0.24803886930E+04  0.25500000000E-02 0.  1.
         -2   -1    0    0    0  501 -0.00000000000E+00 -0.00000000000E+00 -0.17253330300E+02  0.17253330489E+02  0.25500000000E-02 0. -1.
    5000001    1    1    2    0    0  0.54288477042E+02 -0.23514270559E+02  0.56835319988E+03  0.59476929937E+03  0.16500000000E+03 0.  0.
   -5000001    1    1    2    0    0 -0.54288477042E+02  0.23514270559E+02  0.18947821629E+04  0.19028727242E+04  0.16500000000E+03 0.  0.
<mgrwt>
<rscale>  0 0.41373888E+03</rscale>
<asrwt>0</asrwt>
<pdfrwt beam="1">  1        2 0.38159793E+00 0.41373888E+03</pdfrwt>
<pdfrwt beam="2">  1       -2 0.26543608E-02 0.41373888E+03</pdfrwt>
<totfact> 0.20646384E+03</totfact>
</mgrwt>
</event>
<event>
 4    1  0.9064384E-005  0.4465039E+03  0.7818608E-02  0.1028770E+00
          2   -1    0    0  501    0  0.00000000000E+00  0.00000000000E+00  0.42408430770E+03  0.42408430771E+03  0.25500000000E-02 0.  1.
         -2   -1    0    0    0  501 -0.00000000000E+00 -0.00000000000E+00 -0.11752720028E+03  0.11752720030E+03  0.25500000000E-02 0. -1.
    5000001    1    1    2    0    0  0.20614271691E+01  0.14491508535E+03  0.20197749334E+03  0.29836980286E+03  0.16500000000E+03 0.  0.
   -5000001    1    1    2    0    0 -0.20614271691E+01 -0.14491508535E+03  0.10457961408E+03  0.24324170515E+03  0.16500000000E+03 0.  0.
<mgrwt>
<rscale>  0 0.44650394E+03</rscale>
<asrwt>0</asrwt>
<pdfrwt beam="1">  1        2 0.65243739E-01 0.44650394E+03</pdfrwt>
<pdfrwt beam="2">  1       -2 0.18081108E-01 0.44650394E+03</pdfrwt>
<totfact> 0.18823922E+03</totfact>
</mgrwt>
</event>
<event>
 4    1  0.9064384E-005  0.4446461E+03  0.7818608E-02  0.1029331E+00
          2   -1    0    0  501    0  0.00000000000E+00  0.00000000000E+00  0.53603526439E+03  0.53603526440E+03  0.25500000000E-02 0.  1.
         -2   -1    0    0    0  501 -0.00000000000E+00 -0.00000000000E+00 -0.92209497073E+02  0.92209497108E+02  0.25500000000E-02 0. -1.
    5000001    1    1    2    0    0 -0.13715831539E+03  0.58212263158E+02  0.22019918465E+03  0.31291173193E+03  0.16500000000E+03 0.  0.
   -5000001    1    1    2    0    0  0.13715831539E+03 -0.58212263158E+02  0.22362658267E+03  0.31533302957E+03  0.16500000000E+03 0.  0.
<mgrwt>
<rscale>  0 0.44464612E+03</rscale>
<asrwt>0</asrwt>
<pdfrwt beam="1">  1        2 0.82466966E-01 0.44464612E+03</pdfrwt>
<pdfrwt beam="2">  1       -2 0.14186076E-01 0.44464612E+03</pdfrwt>
<totfact> 0.21726529E+03</totfact>
</mgrwt>
</event>
<event>
 4    1  0.9064384E-005  0.6284321E+03  0.7818608E-02  0.9848113E-01
         -2   -1    0    0    0  501 -0.00000000000E+00  0.00000000000E+00  0.92850387490E+02  0.92850387525E+02  0.25500000000E-02 0. -1.
          2   -1    0    0  501    0  0.00000000000E+00 -0.00000000000E+00 -0.10633420278E+04  0.10633420278E+04  0.25500000000E-02 0.  1.
    5000001    1    1    2    0    0  0.24915903675E+02 -0.26039977054E+03 -0.38317599483E+03  0.49242023290E+03  0.16500000000E+03 0.  0.
   -5000001    1    1    2    0    0 -0.24915903675E+02  0.26039977054E+03 -0.58731564550E+03  0.66377218246E+03  0.16500000000E+03 0.  0.
<mgrwt>
<rscale>  0 0.62843208E+03</rscale>
<asrwt>0</asrwt>
<pdfrwt beam="1">  1        2 0.16359107E+00 0.62843208E+03</pdfrwt>
<pdfrwt beam="2">  1       -2 0.14284676E-01 0.62843208E+03</pdfrwt>
<totfact> 0.88138401E+02</totfact>
</mgrwt>
</event>
<event>
 4    1  0.9064384E-005  0.7336274E+03  0.7818608E-02  0.9661392E-01
          2   -1    0    0  501    0  0.00000000000E+00  0.00000000000E+00  0.43954917418E+03  0.43954917419E+03  0.25500000000E-02 0.  1.
         -2   -1    0    0    0  501 -0.00000000000E+00 -0.00000000000E+00 -0.30611434158E+03  0.30611434159E+03  0.25500000000E-02 0. -1.
    5000001    1    1    2    0    0 -0.27448742463E+03  0.58204065550E+02 -0.10516119735E+03  0.34207446113E+03  0.16500000000E+03 0.  0.
   -5000001    1    1    2    0    0  0.27448742463E+03 -0.58204065550E+02  0.23859602995E+03  0.40358905466E+03  0.16500000000E+03 0.  0.
<mgrwt>
<rscale>  0 0.73362744E+03</rscale>
<asrwt>0</asrwt>
<pdfrwt beam="1">  1        2 0.67622950E-01 0.73362744E+03</pdfrwt>
<pdfrwt beam="2">  1       -2 0.47094514E-01 0.73362744E+03</pdfrwt>
<totfact> 0.30790156E+02</totfact>
</mgrwt>
</event>
<event>
 4    1  0.9064384E-005  0.3805875E+03  0.7818608E-02  0.1050717E+00
         -2   -1    0    0    0  501 -0.00000000000E+00  0.00000000000E+00  0.21683844392E+02  0.21683844542E+02  0.25500000000E-02 0. -1.
          2   -1    0    0  501    0  0.00000000000E+00 -0.00000000000E+00 -0.16699861171E+04  0.16699861171E+04  0.25500000000E-02 0.  1.
    5000001    1    1    2    0    0 -0.81266037016E+02 -0.35847536526E+02 -0.97140416658E+03  0.98931302908E+03  0.16500000000E+03 0.  0.
   -5000001    1    1    2    0    0  0.81266037016E+02  0.35847536526E+02 -0.67689810611E+03  0.70235693255E+03  0.16500000000E+03 0.  0.
<mgrwt>
<rscale>  0 0.38058754E+03</rscale>
<asrwt>0</asrwt>
<pdfrwt beam="1">  1        2 0.25692084E+00 0.38058754E+03</pdfrwt>
<pdfrwt beam="2">  1       -2 0.33359774E-02 0.38058754E+03</pdfrwt>
<totfact> 0.40038862E+03</totfact>
</mgrwt>
</event>
<event>
 4    1  0.9064384E-005  0.6132009E+03  0.7818608E-02  0.9878391E-01
          2   -1    0    0  501    0  0.00000000000E+00  0.00000000000E+00  0.11633124909E+04  0.11633124909E+04  0.25500000000E-02 0.  1.
         -2   -1    0    0    0  501 -0.00000000000E+00 -0.00000000000E+00 -0.80807037486E+02  0.80807037526E+02  0.25500000000E-02 0. -1.
    5000001    1    1    2    0    0  0.23245311761E+03 -0.10735502687E+03  0.47040735620E+03  0.56041737522E+03  0.16500000000E+03 0.  0.
   -5000001    1    1    2    0    0 -0.23245311761E+03  0.10735502687E+03  0.61209809717E+03  0.68370215317E+03  0.16500000000E+03 0.  0.
<mgrwt>
<rscale>  0 0.61320090E+03</rscale>
<asrwt>0</asrwt>
<pdfrwt beam="1">  1        2 0.17897115E+00 0.61320090E+03</pdfrwt>
<pdfrwt beam="2">  1       -2 0.12431852E-01 0.61320090E+03</pdfrwt>
<totfact> 0.96689152E+02</totfact>
</mgrwt>
</event>
<event>
 4    1  0.9064384E-005  0.4154245E+03  0.7818608E-02  0.1038566E+00
          2   -1    0    0  501    0  0.00000000000E+00  0.00000000000E+00  0.17975659113E+04  0.17975659113E+04  0.25500000000E-02 0.  1.
         -2   -1    0    0    0  501 -0.00000000000E+00 -0.00000000000E+00 -0.24001553483E+02  0.24001553619E+02  0.25500000000E-02 0. -1.
    5000001    1    1    2    0    0  0.54488055073E+02 -0.11366504479E+03  0.91107112538E+03  0.93443260113E+03  0.16500000000E+03 0.  0.
   -5000001    1    1    2    0    0 -0.54488055073E+02  0.11366504479E+03  0.86249323241E+03  0.88713486376E+03  0.16500000000E+03 0.  0.
<mgrwt>
<rscale>  0 0.41542448E+03</rscale>
<asrwt>0</asrwt>
<pdfrwt beam="1">  1        2 0.27654864E+00 0.41542448E+03</pdfrwt>
<pdfrwt beam="2">  1       -2 0.36925462E-02 0.41542448E+03</pdfrwt>
<totfact> 0.29328970E+03</totfact>
</mgrwt>
</event>
<event>
 4    1  0.9064384E-005  0.5574299E+03  0.7818608E-02  0.9997887E-01
          2   -1    0    0  501    0  0.00000000000E+00  0.00000000000E+00  0.85030599514E+03  0.85030599514E+03  0.25500000000E-02 0.  1.
         -2   -1    0    0    0  501 -0.00000000000E+00 -0.00000000000E+00 -0.91357731903E+02  0.91357731938E+02  0.25500000000E-02 0. -1.
    5000001    1    1    2    0    0  0.21198288951E+03 -0.67301195757E+02  0.43264886384E+03  0.51368885113E+03  0.16500000000E+03 0.  0.
   -5000001    1    1    2    0    0 -0.21198288951E+03  0.67301195757E+02  0.32629939940E+03  0.42797487595E+03  0.16500000000E+03 0.  0.
<mgrwt>
<rscale>  0 0.55742991E+03</rscale>
<asrwt>0</asrwt>
<pdfrwt beam="1">  1        2 0.13081631E+00 0.55742991E+03</pdfrwt>
<pdfrwt beam="2">  1       -2 0.14055036E-01 0.55742991E+03</pdfrwt>
<totfact> 0.12469007E+03</totfact>
</mgrwt>
</event>
<event>
 4    1  0.9064384E-005  0.6004916E+03  0.7818608E-02  0.9904387E-01
          2   -1    0    0  501    0  0.00000000000E+00  0.00000000000E+00  0.44339809200E+03  0.44339809201E+03  0.25500000000E-02 0.  1.
         -2   -1    0    0    0  501 -0.00000000000E+00 -0.00000000000E+00 -0.20331063870E+03  0.20331063872E+03  0.25500000000E-02 0. -1.
    5000001    1    1    2    0    0 -0.17310084610E+03 -0.11279862908E+03 -0.33154808062E+02  0.26648015863E+03  0.16500000000E+03 0.  0.
   -5000001    1    1    2    0    0  0.17310084610E+03  0.11279862908E+03  0.27324226136E+03  0.38022857210E+03  0.16500000000E+03 0.  0.
<mgrwt>
<rscale>  0 0.60049163E+03</rscale>
<asrwt>0</asrwt>
<pdfrwt beam="1">  1        2 0.68215090E-01 0.60049163E+03</pdfrwt>
<pdfrwt beam="2">  1       -2 0.31278560E-01 0.60049163E+03</pdfrwt>
<totfact> 0.67456490E+02</totfact>
</mgrwt>
</event>
<event>
 4    1  0.9064384E-005  0.4461427E+03  0.7818608E-02  0.1028879E+00
         -2   -1    0    0    0  501 -0.00000000000E+00  0.00000000000E+00  0.88105820805E+02  0.88105820842E+02  0.25500000000E-02 0. -1.
          2   -1    0    0  501    0  0.00000000000E+00 -0.00000000000E+00 -0.56478487124E+03  0.56478487125E+03  0.25500000000E-02 0.  1.
    5000001    1    1    2    0    0  0.41286581590E+02  0.14430562385E+03 -0.23442923454E+03  0.32359042153E+03  0.16500000000E+03 0.  0.
   -5000001    1    1    2    0    0 -0.41286581590E+02 -0.14430562385E+03 -0.24224981589E+03  0.32930027056E+03  0.16500000000E+03 0.  0.
<mgrwt>
<rscale>  0 0.44614273E+03</rscale>
<asrwt>0</asrwt>
<pdfrwt beam="1">  1        2 0.86889978E-01 0.44614273E+03</pdfrwt>
<pdfrwt beam="2">  1       -2 0.13554742E-01 0.44614273E+03</pdfrwt>
<totfact> 0.22052043E+03</totfact>
</mgrwt>
</event>
<event>
 4    1  0.9064384E-005  0.6477221E+03  0.7818608E-02  0.9811063E-01
          2   -1    0    0  501    0  0.00000000000E+00  0.00000000000E+00  0.14922863763E+04  0.14922863763E+04  0.25500000000E-02 0.  1.
         -2   -1    0    0    0  501 -0.00000000000E+00 -0.00000000000E+00 -0.70285423057E+02  0.70285423104E+02  0.25500000000E-02 0. -1.
    5000001    1    1    2    0    0 -0.26517943207E+03 -0.65099961641E+02  0.84537940604E+03  0.90357593834E+03  0.16500000000E+03 0.  0.
   -5000001    1    1    2    0    0  0.26517943207E+03  0.65099961641E+02  0.57662154723E+03  0.65899586109E+03  0.16500000000E+03 0.  0.
<mgrwt>
<rscale>  0 0.64772210E+03</rscale>
<asrwt>0</asrwt>
<pdfrwt beam="1">  1        2 0.22958252E+00 0.64772210E+03</pdfrwt>
<pdfrwt beam="2">  1       -2 0.10813142E-01 0.64772210E+03</pdfrwt>
<totfact> 0.78775927E+02</totfact>
</mgrwt>
</event>
<event>
 4    1  0.9064384E-005  0.4005710E+03  0.7818608E-02  0.1043582E+00
          2   -1    0    0  501    0  0.00000000000E+00  0.00000000000E+00  0.13713124525E+04  0.13713124525E+04  0.25500000000E-02 0.  1.
         -2   -1    0    0    0  501 -0.00000000000E+00 -0.00000000000E+00 -0.29252469278E+02  0.29252469389E+02  0.25500000000E-02 0. -1.
    5000001    1    1    2    0    0  0.63903325759E+02  0.88863904985E+02  0.77643691016E+03  0.80128628099E+03  0.16500000000E+03 0.  0.
   -5000001    1    1    2    0    0 -0.63903325759E+02 -0.88863904985E+02  0.56562307304E+03  0.59927864088E+03  0.16500000000E+03 0.  0.
<mgrwt>
<rscale>  0 0.40057097E+03</rscale>
<asrwt>0</asrwt>
<pdfrwt beam="1">  1        2 0.21097117E+00 0.40057097E+03</pdfrwt>
<pdfrwt beam="2">  1       -2 0.45003794E-02 0.40057097E+03</pdfrwt>
<totfact> 0.36913046E+03</totfact>
</mgrwt>
</event>
<event>
 4    1  0.9064384E-005  0.3979792E+03  0.7818608E-02  0.1044482E+00
         -2   -1    0    0    0  501 -0.00000000000E+00  0.00000000000E+00  0.29573956057E+02  0.29573956167E+02  0.25500000000E-02 0. -1.
          2   -1    0    0  501    0  0.00000000000E+00 -0.00000000000E+00 -0.13389095359E+04  0.13389095359E+04  0.25500000000E-02 0.  1.
    5000001    1    1    2    0    0 -0.57391387096E+02  0.45281404114E+02 -0.94292824768E+03  0.96004315379E+03  0.16500000000E+03 0.  0.
   -5000001    1    1    2    0    0  0.57391387096E+02 -0.45281404114E+02 -0.36640733219E+03  0.40844033830E+03  0.16500000000E+03 0.  0.
<mgrwt>
<rscale>  0 0.39797915E+03</rscale>
<asrwt>0</asrwt>
<pdfrwt beam="1">  1        2 0.20598604E+00 0.39797915E+03</pdfrwt>
<pdfrwt beam="2">  1       -2 0.45498404E-02 0.39797915E+03</pdfrwt>
<totfact> 0.37839984E+03</totfact>
</mgrwt>
</event>
<event>
 4    1  0.9064384E-005  0.4799389E+03  0.7818608E-02  0.1019152E+00
          2   -1    0    0  501    0  0.00000000000E+00  0.00000000000E+00  0.50218109223E+03  0.50218109224E+03  0.25500000000E-02 0.  1.
         -2   -1    0    0    0  501 -0.00000000000E+00 -0.00000000000E+00 -0.11467045698E+03  0.11467045701E+03  0.25500000000E-02 0. -1.
    5000001    1    1    2    0    0  0.12815154821E+03 -0.10327701799E+03  0.12024305569E+03  0.26224483635E+03  0.16500000000E+03 0.  0.
   -5000001    1    1    2    0    0 -0.12815154821E+03  0.10327701799E+03  0.26726757956E+03  0.35460671290E+03  0.16500000000E+03 0.  0.
<mgrwt>
<rscale>  0 0.47993889E+03</rscale>
<asrwt>0</asrwt>
<pdfrwt beam="1">  1        2 0.77258630E-01 0.47993889E+03</pdfrwt>
<pdfrwt beam="2">  1       -2 0.17641609E-01 0.47993889E+03</pdfrwt>
<totfact> 0.16229347E+03</totfact>
</mgrwt>
</event>
<event>
 4    1  0.9064384E-005  0.5293356E+03  0.7818608E-02  0.1006393E+00
         -2   -1    0    0    0  501 -0.00000000000E+00  0.00000000000E+00  0.55756066905E+02  0.55756066963E+02  0.25500000000E-02 0. -1.
          2   -1    0    0  501    0  0.00000000000E+00 -0.00000000000E+00 -0.12563484077E+04  0.12563484077E+04  0.25500000000E-02 0.  1.
    5000001    1    1    2    0    0  0.48859696229E+02  0.78168790143E+02 -0.10595486829E+04  0.10762741477E+04  0.16500000000E+03 0.  0.
   -5000001    1    1    2    0    0 -0.48859696229E+02 -0.78168790143E+02 -0.14104365792E+03  0.23583032694E+03  0.16500000000E+03 0.  0.
<mgrwt>
<rscale>  0 0.52933561E+03</rscale>
<asrwt>0</asrwt>
<pdfrwt beam="1">  1        2 0.19328435E+00 0.52933561E+03</pdfrwt>
<pdfrwt beam="2">  1       -2 0.85778574E-02 0.52933561E+03</pdfrwt>
<totfact> 0.15629280E+03</totfact>
</mgrwt>
</event>
<event>
 4    1  0.9064384E-005  0.7012239E+03  0.7818608E-02  0.9715141E-01
         -2   -1    0    0    0  501 -0.00000000000E+00  0.00000000000E+00  0.23690820169E+03  0.23690820170E+03  0.25500000000E-02 0. -1.
          2   -1    0    0  501    0  0.00000000000E+00 -0.00000000000E+00 -0.51888760746E+03  0.51888760746E+03  0.25500000000E-02 0.  1.
    5000001    1    1    2    0    0  0.20812217958E+03  0.15207488266E+03 -0.32536412327E+03  0.44668604666E+03  0.16500000000E+03 0.  0.
   -5000001    1    1    2    0    0 -0.20812217958E+03 -0.15207488266E+03  0.43384717499E+02  0.30910976251E+03  0.16500000000E+03 0.  0.
<mgrwt>
<rscale>  0 0.70122387E+03</rscale>
<asrwt>0</asrwt>
<pdfrwt beam="1">  1        2 0.79828862E-01 0.70122387E+03</pdfrwt>
<pdfrwt beam="2">  1       -2 0.36447416E-01 0.70122387E+03</pdfrwt>
<totfact> 0.42094551E+02</totfact>
</mgrwt>
</event>
<event>
 4    1  0.9064384E-005  0.5408008E+03  0.7818608E-02  0.1003646E+00
         -2   -1    0    0    0  501 -0.00000000000E+00  0.00000000000E+00  0.32976147693E+02  0.32976147792E+02  0.25500000000E-02 0. -1.
          2   -1    0    0  501    0  0.00000000000E+00 -0.00000000000E+00 -0.22172507003E+04  0.22172507003E+04  0.25500000000E-02 0.  1.
    5000001    1    1    2    0    0 -0.18610549843E+03  0.95950051677E+02 -0.12805177883E+04  0.13079726584E+04  0.16500000000E+03 0.  0.
   -5000001    1    1    2    0    0  0.18610549843E+03 -0.95950051677E+02 -0.90375676427E+03  0.94225418966E+03  0.16500000000E+03 0.  0.
<mgrwt>
<rscale>  0 0.54080084E+03</rscale>
<asrwt>0</asrwt>
<pdfrwt beam="1">  1        2 0.34111538E+00 0.54080084E+03</pdfrwt>
<pdfrwt beam="2">  1       -2 0.50732552E-02 0.54080084E+03</pdfrwt>
<totfact> 0.10639022E+03</totfact>
</mgrwt>
</event>
<event>
 4    1  0.9064384E-005  0.6855211E+03  0.7818608E-02  0.9742318E-01
         -2   -1    0    0    0  501 -0.00000000000E+00  0.00000000000E+00  0.74456754424E+02  0.74456754468E+02  0.25500000000E-02 0. -1.
          2   -1    0    0  501    0  0.00000000000E+00 -0.00000000000E+00 -0.15778932440E+04  0.15778932441E+04  0.25500000000E-02 0.  1.
    5000001    1    1    2    0    0 -0.16224775085E+03  0.19414624058E+03 -0.36125013789E+03  0.47089675887E+03  0.16500000000E+03 0.  0.
   -5000001    1    1    2    0    0  0.16224775085E+03 -0.19414624058E+03 -0.11421863517E+04  0.11814532397E+04  0.16500000000E+03 0.  0.
<mgrwt>
<rscale>  0 0.68552114E+03</rscale>
<asrwt>0</asrwt>
<pdfrwt beam="1">  1        2 0.24275278E+00 0.68552114E+03</pdfrwt>
<pdfrwt beam="2">  1       -2 0.11454886E-01 0.68552114E+03</pdfrwt>
<totfact> 0.64148571E+02</totfact>
</mgrwt>
</event>
<event>
 4    1  0.9064384E-005  0.8257170E+03  0.7818608E-02  0.9523521E-01
          2   -1    0    0  501    0  0.00000000000E+00  0.00000000000E+00  0.10079525292E+04  0.10079525292E+04  0.25500000000E-02 0.  1.
         -2   -1    0    0    0  501 -0.00000000000E+00 -0.00000000000E+00 -0.16910729275E+03  0.16910729277E+03  0.25500000000E-02 0. -1.
    5000001    1    1    2    0    0  0.22490634348E+03 -0.24799509133E+03  0.16786039351E+03  0.40925119471E+03  0.16500000000E+03 0.  0.
   -5000001    1    1    2    0    0 -0.22490634348E+03  0.24799509133E+03  0.67098484292E+03  0.76780862725E+03  0.16500000000E+03 0.  0.
<mgrwt>
<rscale>  0 0.82571696E+03</rscale>
<asrwt>0</asrwt>
<pdfrwt beam="1">  1        2 0.15506962E+00 0.82571696E+03</pdfrwt>
<pdfrwt beam="2">  1       -2 0.26016506E-01 0.82571696E+03</pdfrwt>
<totfact> 0.33319682E+02</totfact>
</mgrwt>
</event>
<event>
 4    1  0.9064384E-005  0.3807001E+03  0.7818608E-02  0.1050675E+00
         -2   -1    0    0    0  501 -0.00000000000E+00  0.00000000000E+00  0.56024110732E+03  0.56024110732E+03  0.25500000000E-02 0. -1.
          2   -1    0    0  501    0  0.00000000000E+00 -0.00000000000E+00 -0.64674179379E+02  0.64674179429E+02  0.25500000000E-02 0.  1.
    5000001    1    1    2    0    0 -0.69482004607E+01 -0.69186951309E+02  0.35382195754E+03  0.39654771385E+03  0.16500000000E+03 0.  0.
   -5000001    1    1    2    0    0  0.69482004607E+01  0.69186951309E+02  0.14174497040E+03  0.22836757291E+03  0.16500000000E+03 0.  0.
<mgrwt>
<rscale>  0 0.38070006E+03</rscale>
<asrwt>0</asrwt>
<pdfrwt beam="1">  1        2 0.99498731E-02 0.38070006E+03</pdfrwt>
<pdfrwt beam="2">  1       -2 0.86190945E-01 0.38070006E+03</pdfrwt>
<totfact> 0.78234840E+02</totfact>
</mgrwt>
</event>
<event>
 4    1  0.9064384E-005  0.4464638E+03  0.7818608E-02  0.1028782E+00
          2   -1    0    0  501    0  0.00000000000E+00  0.00000000000E+00  0.67771484754E+03  0.67771484755E+03  0.25500000000E-02 0.  1.
         -2   -1    0    0    0  501 -0.00000000000E+00 -0.00000000000E+00 -0.73530172606E+02  0.73530172650E+02  0.25500000000E-02 0. -1.
    5000001    1    1    2    0    0  0.99222486887E+02 -0.99349847860E+02  0.39258099155E+03  0.44839751237E+03  0.16500000000E+03 0.  0.
   -5000001    1    1    2    0    0 -0.99222486887E+02  0.99349847860E+02  0.21160368338E+03  0.30284750782E+03  0.16500000000E+03 0.  0.
<mgrwt>
<rscale>  0 0.44646384E+03</rscale>
<asrwt>0</asrwt>
<pdfrwt beam="1">  1        2 0.10426382E+00 0.44646384E+03</pdfrwt>
<pdfrwt beam="2">  1       -2 0.11312335E-01 0.44646384E+03</pdfrwt>
<totfact> 0.23859803E+03</totfact>
</mgrwt>
</event>
<event>
 4    1  0.9064384E-005  0.5019836E+03  0.7818608E-02  0.1013262E+00
          2   -1    0    0  501    0  0.00000000000E+00  0.00000000000E+00  0.21798859712E+04  0.21798859712E+04  0.25500000000E-02 0.  1.
         -2   -1    0    0    0  501 -0.00000000000E+00 -0.00000000000E+00 -0.28899165164E+02  0.28899165276E+02  0.25500000000E-02 0. -1.
    5000001    1    1    2    0    0  0.11552629265E+03  0.14664628425E+03  0.12089865030E+04  0.12343924908E+04  0.16500000000E+03 0.  0.
   -5000001    1    1    2    0    0 -0.11552629265E+03 -0.14664628425E+03  0.94200030309E+03  0.97439264570E+03  0.16500000000E+03 0.  0.
<mgrwt>
<rscale>  0 0.50198360E+03</rscale>
<asrwt>0</asrwt>
<pdfrwt beam="1">  1        2 0.33536706E+00 0.50198360E+03</pdfrwt>
<pdfrwt beam="2">  1       -2 0.44460256E-02 0.50198360E+03</pdfrwt>
<totfact> 0.13704713E+03</totfact>
</mgrwt>
</event>
<event>
 4    1  0.9064384E-005  0.4904872E+03  0.7818608E-02  0.1016292E+00
          2   -1    0    0  501    0  0.00000000000E+00  0.00000000000E+00  0.12516562593E+04  0.12516562593E+04  0.25500000000E-02 0. -1.
         -2   -1    0    0    0  501 -0.00000000000E+00 -0.00000000000E+00 -0.48051871217E+02  0.48051871285E+02  0.25500000000E-02 0.  1.
    5000001    1    1    2    0    0 -0.40161189425E+02 -0.10223089383E+03  0.98447436227E+03  0.10042304749E+04  0.16500000000E+03 0.  0.
   -5000001    1    1    2    0    0  0.40161189425E+02  0.10223089383E+03  0.21913002584E+03  0.29547765569E+03  0.16500000000E+03 0.  0.
<mgrwt>
<rscale>  0 0.49048721E+03</rscale>
<asrwt>0</asrwt>
<pdfrwt beam="1">  1        2 0.19256252E+00 0.49048721E+03</pdfrwt>
<pdfrwt beam="2">  1       -2 0.73925949E-02 0.49048721E+03</pdfrwt>
<totfact> 0.19934549E+03</totfact>
</mgrwt>
</event>
<event>
 4    1  0.9064384E-005  0.9030777E+03  0.7818608E-02  0.9421742E-01
         -2   -1    0    0    0  501 -0.00000000000E+00  0.00000000000E+00  0.74057507791E+02  0.74057507835E+02  0.25500000000E-02 0. -1.
          2   -1    0    0  501    0  0.00000000000E+00 -0.00000000000E+00 -0.27530946241E+04  0.27530946241E+04  0.25500000000E-02 0.  1.
    5000001    1    1    2    0    0  0.84366437645E+02 -0.37133093521E+03 -0.78250523743E+03  0.88574477467E+03  0.16500000000E+03 0.  0.
   -5000001    1    1    2    0    0 -0.84366437645E+02  0.37133093521E+03 -0.18965318789E+04  0.19414073573E+04  0.16500000000E+03 0.  0.
<mgrwt>
<rscale>  0 0.90307769E+03</rscale>
<asrwt>0</asrwt>
<pdfrwt beam="1">  1        2 0.42355294E+00 0.90307769E+03</pdfrwt>
<pdfrwt beam="2">  1       -2 0.11393465E-01 0.90307769E+03</pdfrwt>
<totfact> 0.14088012E+02</totfact>
</mgrwt>
</event>
<event>
 4    1  0.9064384E-005  0.3825741E+03  0.7818608E-02  0.1049986E+00
          2   -1    0    0  501    0  0.00000000000E+00  0.00000000000E+00  0.26102548086E+02  0.26102548211E+02  0.25500000000E-02 0.  1.
         -2   -1    0    0    0  501 -0.00000000000E+00 -0.00000000000E+00 -0.14018072199E+04  0.14018072199E+04  0.25500000000E-02 0. -1.
    5000001    1    1    2    0    0  0.65842166478E+02 -0.51332737478E+02 -0.87052906395E+03  0.88995285943E+03  0.16500000000E+03 0.  0.
   -5000001    1    1    2    0    0 -0.65842166478E+02  0.51332737478E+02 -0.50517560791E+03  0.53795690873E+03  0.16500000000E+03 0.  0.
<mgrwt>
<rscale>  0 0.38257413E+03</rscale>
<asrwt>0</asrwt>
<pdfrwt beam="1">  1        2 0.40157777E-02 0.38257413E+03</pdfrwt>
<pdfrwt beam="2">  1       -2 0.21566259E+00 0.38257413E+03</pdfrwt>
<totfact> 0.24253217E+02</totfact>
</mgrwt>
</event>
<event>
 4    1  0.9064384E-005  0.3656213E+03  0.7818608E-02  0.1056380E+00
         -2   -1    0    0    0  501 -0.00000000000E+00  0.00000000000E+00  0.51271620746E+02  0.51271620810E+02  0.25500000000E-02 0. -1.
          2   -1    0    0  501    0  0.00000000000E+00 -0.00000000000E+00 -0.65181730508E+03  0.65181730509E+03  0.25500000000E-02 0.  1.
    5000001    1    1    2    0    0  0.64657446475E+02  0.31214851771E+02 -0.36228101976E+03  0.40450894877E+03  0.16500000000E+03 0.  0.
   -5000001    1    1    2    0    0 -0.64657446475E+02 -0.31214851771E+02 -0.23826466457E+03  0.29857997712E+03  0.16500000000E+03 0.  0.
<mgrwt>
<rscale>  0 0.36562128E+03</rscale>
<asrwt>0</asrwt>
<pdfrwt beam="1">  1        2 0.10027958E+00 0.36562128E+03</pdfrwt>
<pdfrwt beam="2">  1       -2 0.78879421E-02 0.36562128E+03</pdfrwt>
<totfact> 0.44421639E+03</totfact>
</mgrwt>
</event>
<event>
 4    1  0.9064384E-005  0.5359435E+03  0.7818608E-02  0.1004801E+00
         -2   -1    0    0    0  501 -0.00000000000E+00  0.00000000000E+00  0.83556497008E+02  0.83556497046E+02  0.25500000000E-02 0. -1.
          2   -1    0    0  501    0  0.00000000000E+00 -0.00000000000E+00 -0.85940481656E+03  0.85940481656E+03  0.25500000000E-02 0.  1.
    5000001    1    1    2    0    0  0.20525357807E+03  0.22315603188E+02 -0.46575511724E+03  0.53551829725E+03  0.16500000000E+03 0.  0.
   -5000001    1    1    2    0    0 -0.20525357807E+03 -0.22315603188E+02 -0.31009320231E+03  0.40744301635E+03  0.16500000000E+03 0.  0.
<mgrwt>
<rscale>  0 0.53594349E+03</rscale>
<asrwt>0</asrwt>
<pdfrwt beam="1">  1        2 0.13221612E+00 0.53594349E+03</pdfrwt>
<pdfrwt beam="2">  1       -2 0.12854846E-01 0.53594349E+03</pdfrwt>
<totfact> 0.14262151E+03</totfact>
</mgrwt>
</event>
<event>
 4    1  0.9064384E-005  0.4063762E+03  0.7818608E-02  0.1041594E+00
         -2   -1    0    0    0  501 -0.00000000000E+00  0.00000000000E+00  0.14921280605E+03  0.14921280608E+03  0.25500000000E-02 0. -1.
          2   -1    0    0  501    0  0.00000000000E+00 -0.00000000000E+00 -0.27668813747E+03  0.27668813748E+03  0.25500000000E-02 0.  1.
    5000001    1    1    2    0    0  0.40511809677E+02  0.53940429328E+02  0.38465006718E+02  0.18236044906E+03  0.16500000000E+03 0.  0.
   -5000001    1    1    2    0    0 -0.40511809677E+02 -0.53940429328E+02 -0.16594033813E+03  0.24354049449E+03  0.16500000000E+03 0.  0.
<mgrwt>
<rscale>  0 0.40637625E+03</rscale>
<asrwt>0</asrwt>
<pdfrwt beam="1">  1        2 0.42567406E-01 0.40637625E+03</pdfrwt>
<pdfrwt beam="2">  1       -2 0.22955816E-01 0.40637625E+03</pdfrwt>
<totfact> 0.19872386E+03</totfact>
</mgrwt>
</event>
<event>
 4    1  0.9064384E-005  0.3357818E+03  0.7818608E-02  0.1068607E+00
          2   -1    0    0  501    0  0.00000000000E+00  0.00000000000E+00  0.48337565473E+03  0.48337565473E+03  0.25500000000E-02 0.  1.
         -2   -1    0    0    0  501 -0.00000000000E+00 -0.00000000000E+00 -0.58313569138E+02  0.58313569194E+02  0.25500000000E-02 0. -1.
    5000001    1    1    2    0    0 -0.25647890314E+02  0.16617150019E+02  0.20393155901E+03  0.26409662003E+03  0.16500000000E+03 0.  0.
   -5000001    1    1    2    0    0  0.25647890314E+02 -0.16617150019E+02  0.22113052658E+03  0.27759260390E+03  0.16500000000E+03 0.  0.
<mgrwt>
<rscale>  0 0.33578183E+03</rscale>
<asrwt>0</asrwt>
<pdfrwt beam="1">  1        2 0.74365481E-01 0.33578183E+03</pdfrwt>
<pdfrwt beam="2">  1       -2 0.89713189E-02 0.33578183E+03</pdfrwt>
<totfact> 0.51156026E+03</totfact>
</mgrwt>
</event>
<event>
 4    1  0.9064384E-005  0.6921103E+03  0.7818608E-02  0.9730820E-01
          2   -1    0    0  501    0  0.00000000000E+00  0.00000000000E+00  0.19038980270E+04  0.19038980270E+04  0.25500000000E-02 0.  1.
         -2   -1    0    0    0  501 -0.00000000000E+00 -0.00000000000E+00 -0.62899472705E+02  0.62899472757E+02  0.25500000000E-02 0. -1.
    5000001    1    1    2    0    0 -0.23277381884E+03 -0.13295739438E+03  0.13290369306E+04  0.13658057997E+04  0.16500000000E+03 0.  0.
   -5000001    1    1    2    0    0  0.23277381884E+03  0.13295739438E+03  0.51196162368E+03  0.60099170009E+03  0.16500000000E+03 0.  0.
<mgrwt>
<rscale>  0 0.69211034E+03</rscale>
<asrwt>0</asrwt>
<pdfrwt beam="1">  1        2 0.29290733E+00 0.69211034E+03</pdfrwt>
<pdfrwt beam="2">  1       -2 0.96768439E-02 0.69211034E+03</pdfrwt>
<totfact> 0.56079504E+02</totfact>
</mgrwt>
</event>
<event>
 4    1  0.9064384E-005  0.7075928E+03  0.7818608E-02  0.9704335E-01
         -2   -1    0    0    0  501 -0.00000000000E+00  0.00000000000E+00  0.49736363939E+03  0.49736363940E+03  0.25500000000E-02 0. -1.
          2   -1    0    0  501    0  0.00000000000E+00 -0.00000000000E+00 -0.25167074568E+03  0.25167074570E+03  0.25500000000E-02 0.  1.
    5000001    1    1    2    0    0  0.15347616869E+03 -0.24215044918E+03  0.25571708075E+03  0.41810046613E+03  0.16500000000E+03 0.  0.
   -5000001    1    1    2    0    0 -0.15347616869E+03  0.24215044918E+03 -0.10024187045E+02  0.33093391896E+03  0.16500000000E+03 0.  0.
<mgrwt>
<rscale>  0 0.70759276E+03</rscale>
<asrwt>0</asrwt>
<pdfrwt beam="1">  1        2 0.38718577E-01 0.70759276E+03</pdfrwt>
<pdfrwt beam="2">  1       -2 0.76517482E-01 0.70759276E+03</pdfrwt>
<totfact> 0.20599923E+02</totfact>
</mgrwt>
</event>
<event>
 4    1  0.9064384E-005  0.4395261E+03  0.7818608E-02  0.1030892E+00
          2   -1    0    0  501    0  0.00000000000E+00  0.00000000000E+00  0.13452601340E+04  0.13452601340E+04  0.25500000000E-02 0.  1.
         -2   -1    0    0    0  501 -0.00000000000E+00 -0.00000000000E+00 -0.35900714324E+02  0.35900714415E+02  0.25500000000E-02 0. -1.
    5000001    1    1    2    0    0 -0.12897256005E+03 -0.62057988772E+02  0.73072835609E+03  0.76267558346E+03  0.16500000000E+03 0.  0.
   -5000001    1    1    2    0    0  0.12897256005E+03  0.62057988772E+02  0.57863106357E+03  0.61848526493E+03  0.16500000000E+03 0.  0.
<mgrwt>
<rscale>  0 0.43952611E+03</rscale>
<asrwt>0</asrwt>
<pdfrwt beam="1">  1        2 0.20696308E+00 0.43952611E+03</pdfrwt>
<pdfrwt beam="2">  1       -2 0.55231874E-02 0.43952611E+03</pdfrwt>
<totfact> 0.27847169E+03</totfact>
</mgrwt>
</event>
<event>
 4    1  0.9064384E-005  0.6106976E+03  0.7818608E-02  0.9883457E-01
         -2   -1    0    0    0  501 -0.00000000000E+00  0.00000000000E+00  0.84387864530E+02  0.84387864568E+02  0.25500000000E-02 0. -1.
          2   -1    0    0  501    0  0.00000000000E+00 -0.00000000000E+00 -0.11048730844E+04  0.11048730844E+04  0.25500000000E-02 0.  1.
    5000001    1    1    2    0    0 -0.15289543778E+03 -0.18503868822E+03 -0.68868637775E+03  0.74775013068E+03  0.16500000000E+03 0.  0.
   -5000001    1    1    2    0    0  0.15289543778E+03  0.18503868822E+03 -0.33179884212E+03  0.44151081829E+03  0.16500000000E+03 0.  0.
<mgrwt>
<rscale>  0 0.61069757E+03</rscale>
<asrwt>0</asrwt>
<pdfrwt beam="1">  1        2 0.16998046E+00 0.61069757E+03</pdfrwt>
<pdfrwt beam="2">  1       -2 0.12982749E-01 0.61069757E+03</pdfrwt>
<totfact> 0.97564510E+02</totfact>
</mgrwt>
</event>
<event>
 4    1  0.9064384E-005  0.4848298E+03  0.7818608E-02  0.1017816E+00
          2   -1    0    0  501    0  0.00000000000E+00  0.00000000000E+00  0.24728830676E+03  0.24728830678E+03  0.25500000000E-02 0.  1.
         -2   -1    0    0    0  501 -0.00000000000E+00 -0.00000000000E+00 -0.23763757440E+03  0.23763757441E+03  0.25500000000E-02 0. -1.
    5000001    1    1    2    0    0  0.17538763204E+03  0.27897941853E+02  0.57619125868E+01  0.24248157923E+03  0.16500000000E+03 0.  0.
   -5000001    1    1    2    0    0 -0.17538763204E+03 -0.27897941853E+02  0.38888197799E+01  0.24244430195E+03  0.16500000000E+03 0.  0.
<mgrwt>
<rscale>  0 0.48482984E+03</rscale>
<asrwt>0</asrwt>
<pdfrwt beam="1">  1        2 0.38044355E-01 0.48482984E+03</pdfrwt>
<pdfrwt beam="2">  1       -2 0.36559627E-01 0.48482984E+03</pdfrwt>
<totfact> 0.96121974E+02</totfact>
</mgrwt>
</event>
<event>
 4    1  0.9064384E-005  0.3654568E+03  0.7818608E-02  0.1056444E+00
          2   -1    0    0  501    0  0.00000000000E+00  0.00000000000E+00  0.94067365736E+02  0.94067365770E+02  0.25500000000E-02 0.  1.
         -2   -1    0    0    0  501 -0.00000000000E+00 -0.00000000000E+00 -0.35495478117E+03  0.35495478118E+03  0.25500000000E-02 0. -1.
    5000001    1    1    2    0    0 -0.69259660295E+02  0.36103654944E+02 -0.14029498662E+03  0.23023478824E+03  0.16500000000E+03 0.  0.
   -5000001    1    1    2    0    0  0.69259660295E+02 -0.36103654944E+02 -0.12059242881E+03  0.21878735871E+03  0.16500000000E+03 0.  0.
<mgrwt>
<rscale>  0 0.36545676E+03</rscale>
<asrwt>0</asrwt>
<pdfrwt beam="1">  1        2 0.14471903E-01 0.36545676E+03</pdfrwt>
<pdfrwt beam="2">  1       -2 0.54608427E-01 0.36545676E+03</pdfrwt>
<totfact> 0.13147886E+03</totfact>
</mgrwt>
</event>
<event>
 4    1  0.9064384E-005  0.4069925E+03  0.7818608E-02  0.1041385E+00
          2   -1    0    0  501    0  0.00000000000E+00  0.00000000000E+00  0.15448773478E+04  0.15448773478E+04  0.25500000000E-02 0.  1.
         -2   -1    0    0    0  501 -0.00000000000E+00 -0.00000000000E+00 -0.26805188397E+02  0.26805188518E+02  0.25500000000E-02 0. -1.
    5000001    1    1    2    0    0  0.49167659524E+02 -0.10515271850E+03  0.65605278284E+03  0.68637075027E+03  0.16500000000E+03 0.  0.
   -5000001    1    1    2    0    0 -0.49167659524E+02  0.10515271850E+03  0.86201937652E+03  0.88531178601E+03  0.16500000000E+03 0.  0.
<mgrwt>
<rscale>  0 0.40699252E+03</rscale>
<asrwt>0</asrwt>
<pdfrwt beam="1">  1        2 0.23767347E+00 0.40699252E+03</pdfrwt>
<pdfrwt beam="2">  1       -2 0.41238745E-02 0.40699252E+03</pdfrwt>
<totfact> 0.33888104E+03</totfact>
</mgrwt>
</event>
<event>
 4    1  0.9064384E-005  0.3872369E+03  0.7818608E-02  0.1048291E+00
          2   -1    0    0  501    0  0.00000000000E+00  0.00000000000E+00  0.65109824145E+03  0.65109824146E+03  0.25500000000E-02 0.  1.
         -2   -1    0    0    0  501 -0.00000000000E+00 -0.00000000000E+00 -0.57576738637E+02  0.57576738694E+02  0.25500000000E-02 0. -1.
    5000001    1    1    2    0    0  0.82458548963E+02 -0.58578378544E+02  0.28636393136E+03  0.34563006223E+03  0.16500000000E+03 0.  0.
   -5000001    1    1    2    0    0 -0.82458548963E+02  0.58578378544E+02  0.30715757145E+03  0.36304491792E+03  0.16500000000E+03 0.  0.
<mgrwt>
<rscale>  0 0.38723695E+03</rscale>
<asrwt>0</asrwt>
<pdfrwt beam="1">  1        2 0.10016896E+00 0.38723695E+03</pdfrwt>
<pdfrwt beam="2">  1       -2 0.88579600E-02 0.38723695E+03</pdfrwt>
<totfact> 0.37063886E+03</totfact>
</mgrwt>
</event>
<event>
 4    1  0.9064384E-005  0.6056541E+03  0.7818608E-02  0.9893745E-01
          2   -1    0    0  501    0  0.00000000000E+00  0.00000000000E+00  0.99773798369E+03  0.99773798369E+03  0.25500000000E-02 0.  1.
         -2   -1    0    0    0  501 -0.00000000000E+00 -0.00000000000E+00 -0.91912132265E+02  0.91912132300E+02  0.25500000000E-02 0. -1.
    5000001    1    1    2    0    0  0.54437118690E+02  0.23821250526E+03  0.32864753893E+03  0.44152327504E+03  0.16500000000E+03 0.  0.
   -5000001    1    1    2    0    0 -0.54437118690E+02 -0.23821250526E+03  0.57717831249E+03  0.64812684095E+03  0.16500000000E+03 0.  0.
<mgrwt>
<rscale>  0 0.60565411E+03</rscale>
<asrwt>0</asrwt>
<pdfrwt beam="1">  1        2 0.15349815E+00 0.60565411E+03</pdfrwt>
<pdfrwt beam="2">  1       -2 0.14140328E-01 0.60565411E+03</pdfrwt>
<totfact> 0.98599361E+02</totfact>
</mgrwt>
</event>
<event>
 4    1  0.9064384E-005  0.5287415E+03  0.7818608E-02  0.1006538E+00
          2   -1    0    0  501    0  0.00000000000E+00  0.00000000000E+00  0.60069123431E+03  0.60069123432E+03  0.25500000000E-02 0.  1.
         -2   -1    0    0    0  501 -0.00000000000E+00 -0.00000000000E+00 -0.11635242368E+03  0.11635242370E+03  0.25500000000E-02 0. -1.
    5000001    1    1    2    0    0 -0.20842997488E+02 -0.13423232235E+03  0.31143044026E+02  0.21598063825E+03  0.16500000000E+03 0.  0.
   -5000001    1    1    2    0    0  0.20842997488E+02  0.13423232235E+03  0.45319576661E+03  0.50106301977E+03  0.16500000000E+03 0.  0.
<mgrwt>
<rscale>  0 0.52874145E+03</rscale>
<asrwt>0</asrwt>
<pdfrwt beam="1">  1        2 0.92414034E-01 0.52874145E+03</pdfrwt>
<pdfrwt beam="2">  1       -2 0.17900373E-01 0.52874145E+03</pdfrwt>
<totfact> 0.12842874E+03</totfact>
</mgrwt>
</event>
<event>
 4    1  0.9064384E-005  0.6640015E+03  0.7818608E-02  0.9780855E-01
          2   -1    0    0  501    0  0.00000000000E+00  0.00000000000E+00  0.11554183346E+04  0.11554183346E+04  0.25500000000E-02 0.  1.
         -2   -1    0    0    0  501 -0.00000000000E+00 -0.00000000000E+00 -0.95397903074E+02  0.95397903108E+02  0.25500000000E-02 0. -1.
    5000001    1    1    2    0    0  0.27031038887E+03  0.46438284509E+02  0.69611498143E+03  0.76617575527E+03  0.16500000000E+03 0.  0.
   -5000001    1    1    2    0    0 -0.27031038887E+03 -0.46438284509E+02  0.36390545007E+03  0.48464048241E+03  0.16500000000E+03 0.  0.
<mgrwt>
<rscale>  0 0.66400146E+03</rscale>
<asrwt>0</asrwt>
<pdfrwt beam="1">  1        2 0.17775666E+00 0.66400146E+03</pdfrwt>
<pdfrwt beam="2">  1       -2 0.14676601E-01 0.66400146E+03</pdfrwt>
<totfact> 0.73957295E+02</totfact>
</mgrwt>
</event>
<event>
 4    1  0.9064384E-005  0.5625617E+03  0.7818608E-02  0.9986275E-01
         -2   -1    0    0    0  501 -0.00000000000E+00  0.00000000000E+00  0.94974748169E+02  0.94974748203E+02  0.25500000000E-02 0. -1.
          2   -1    0    0  501    0  0.00000000000E+00 -0.00000000000E+00 -0.83305225225E+03  0.83305225226E+03  0.25500000000E-02 0.  1.
    5000001    1    1    2    0    0  0.20110244777E+03  0.78098041687E+02 -0.24835025246E+03  0.36802764367E+03  0.16500000000E+03 0.  0.
   -5000001    1    1    2    0    0 -0.20110244777E+03 -0.78098041687E+02 -0.48972725163E+03  0.55999935679E+03  0.16500000000E+03 0.  0.
<mgrwt>
<rscale>  0 0.56256174E+03</rscale>
<asrwt>0</asrwt>
<pdfrwt beam="1">  1        2 0.12816188E+00 0.56256174E+03</pdfrwt>
<pdfrwt beam="2">  1       -2 0.14611500E-01 0.56256174E+03</pdfrwt>
<totfact> 0.12008545E+03</totfact>
</mgrwt>
</event>
<event>
 4    1  0.9064384E-005  0.3805975E+03  0.7818608E-02  0.1050713E+00
         -2   -1    0    0    0  501 -0.00000000000E+00  0.00000000000E+00  0.26148568650E+02  0.26148568774E+02  0.25500000000E-02 0. -1.
          2   -1    0    0  501    0  0.00000000000E+00 -0.00000000000E+00 -0.13849177770E+04  0.13849177770E+04  0.25500000000E-02 0.  1.
    5000001    1    1    2    0    0 -0.51095082116E+02 -0.77779113528E+02 -0.61220615432E+03  0.64084450010E+03  0.16500000000E+03 0.  0.
   -5000001    1    1    2    0    0  0.51095082116E+02  0.77779113528E+02 -0.74656305402E+03  0.77022184567E+03  0.16500000000E+03 0.  0.
<mgrwt>
<rscale>  0 0.38059752E+03</rscale>
<asrwt>0</asrwt>
<pdfrwt beam="1">  1        2 0.21306422E+00 0.38059752E+03</pdfrwt>
<pdfrwt beam="2">  1       -2 0.40228578E-02 0.38059752E+03</pdfrwt>
<totfact> 0.43038896E+03</totfact>
</mgrwt>
</event>
<event>
 4    1  0.9064384E-005  0.3861934E+03  0.7818608E-02  0.1048668E+00
          2   -1    0    0  501    0  0.00000000000E+00  0.00000000000E+00  0.95136182255E+03  0.95136182255E+03  0.25500000000E-02 0.  1.
         -2   -1    0    0    0  501 -0.00000000000E+00 -0.00000000000E+00 -0.39192593539E+02  0.39192593622E+02  0.25500000000E-02 0. -1.
    5000001    1    1    2    0    0  0.83761041374E+02 -0.47743893238E+02  0.38509864469E+03  0.42990854555E+03  0.16500000000E+03 0.  0.
   -5000001    1    1    2    0    0 -0.83761041374E+02  0.47743893238E+02  0.52707058432E+03  0.56064587062E+03  0.16500000000E+03 0.  0.
<mgrwt>
<rscale>  0 0.38619341E+03</rscale>
<asrwt>0</asrwt>
<pdfrwt beam="1">  1        2 0.14636335E+00 0.38619341E+03</pdfrwt>
<pdfrwt beam="2">  1       -2 0.60296299E-02 0.38619341E+03</pdfrwt>
<totfact> 0.41549876E+03</totfact>
</mgrwt>
</event>
<event>
 4    1  0.9064384E-005  0.6990022E+03  0.7818608E-02  0.9718940E-01
          2   -1    0    0  501    0  0.00000000000E+00  0.00000000000E+00  0.23801203050E+04  0.23801203050E+04  0.25500000000E-02 0.  1.
         -2   -1    0    0    0  501 -0.00000000000E+00 -0.00000000000E+00 -0.51321360013E+02  0.51321360076E+02  0.25500000000E-02 0. -1.
    5000001    1    1    2    0    0 -0.16519259602E+03 -0.21875909342E+03  0.67516272802E+03  0.74713709856E+03  0.16500000000E+03 0.  0.
   -5000001    1    1    2    0    0  0.16519259602E+03  0.21875909342E+03  0.16536362170E+04  0.16843045665E+04  0.16500000000E+03 0.  0.
<mgrwt>
<rscale>  0 0.69900218E+03</rscale>
<asrwt>0</asrwt>
<pdfrwt beam="1">  1        2 0.36617230E+00 0.69900218E+03</pdfrwt>
<pdfrwt beam="2">  1       -2 0.78955951E-02 0.69900218E+03</pdfrwt>
<totfact> 0.42596426E+02</totfact>
</mgrwt>
</event>
<event>
 4    1  0.9064384E-005  0.7429474E+03  0.7818608E-02  0.9646480E-01
          2   -1    0    0  501    0  0.00000000000E+00  0.00000000000E+00  0.19727539636E+04  0.19727539636E+04  0.25500000000E-02 0.  1.
         -2   -1    0    0    0  501 -0.00000000000E+00 -0.00000000000E+00 -0.69949283260E+02  0.69949283306E+02  0.25500000000E-02 0. -1.
    5000001    1    1    2    0    0 -0.87433968733E+02  0.30119322173E+03  0.12576390862E+04  0.13066151410E+04  0.16500000000E+03 0.  0.
   -5000001    1    1    2    0    0  0.87433968733E+02 -0.30119322173E+03  0.64516559412E+03  0.73608810583E+03  0.16500000000E+03 0.  0.
<mgrwt>
<rscale>  0 0.74294744E+03</rscale>
<asrwt>0</asrwt>
<pdfrwt beam="1">  1        2 0.30350055E+00 0.74294744E+03</pdfrwt>
<pdfrwt beam="2">  1       -2 0.10761430E-01 0.74294744E+03</pdfrwt>
<totfact> 0.43111126E+02</totfact>
</mgrwt>
</event>
<event>
 4    1  0.9064384E-005  0.3936283E+03  0.7818608E-02  0.1046009E+00
          2   -1    0    0  501    0  0.00000000000E+00  0.00000000000E+00  0.25404896448E+04  0.25404896448E+04  0.25500000000E-02 0.  1.
         -2   -1    0    0    0  501 -0.00000000000E+00 -0.00000000000E+00 -0.15247375815E+02  0.15247376028E+02  0.25500000000E-02 0. -1.
    5000001    1    1    2    0    0 -0.86724520402E+02  0.59456186306E+02  0.11241834830E+04  0.11410826806E+04  0.16500000000E+03 0.  0.
   -5000001    1    1    2    0    0  0.86724520402E+02 -0.59456186306E+02  0.14010587860E+04  0.14146543402E+04  0.16500000000E+03 0.  0.
<mgrwt>
<rscale>  0 0.39362825E+03</rscale>
<asrwt>0</asrwt>
<pdfrwt beam="1">  1        2 0.39084443E+00 0.39362825E+03</pdfrwt>
<pdfrwt beam="2">  1       -2 0.23457509E-02 0.39362825E+03</pdfrwt>
<totfact> 0.23036603E+03</totfact>
</mgrwt>
</event>
<event>
 4    1  0.9064384E-005  0.4421729E+03  0.7818608E-02  0.1030082E+00
         -2   -1    0    0    0  501 -0.00000000000E+00  0.00000000000E+00  0.47553290013E+03  0.47553290014E+03  0.25500000000E-02 0. -1.
          2   -1    0    0  501    0  0.00000000000E+00 -0.00000000000E+00 -0.10278830045E+03  0.10278830048E+03  0.25500000000E-02 0.  1.
    5000001    1    1    2    0    0  0.11600340235E+03  0.83523414320E+02  0.14066531501E+03  0.25970113774E+03  0.16500000000E+03 0.  0.
   -5000001    1    1    2    0    0 -0.11600340235E+03 -0.83523414320E+02  0.23207928467E+03  0.31862006288E+03  0.16500000000E+03 0.  0.
<mgrwt>
<rscale>  0 0.44217290E+03</rscale>
<asrwt>0</asrwt>
<pdfrwt beam="1">  1        2 0.15813585E-01 0.44217290E+03</pdfrwt>
<pdfrwt beam="2">  1       -2 0.73158907E-01 0.44217290E+03</pdfrwt>
<totfact> 0.63831870E+02</totfact>
</mgrwt>
</event>
<event>
 4    1  0.9064384E-005  0.4843314E+03  0.7818608E-02  0.1017952E+00
          2   -1    0    0  501    0  0.00000000000E+00  0.00000000000E+00  0.30116269243E+03  0.30116269244E+03  0.25500000000E-02 0.  1.
         -2   -1    0    0    0  501 -0.00000000000E+00 -0.00000000000E+00 -0.19472606583E+03  0.19472606584E+03  0.25500000000E-02 0. -1.
    5000001    1    1    2    0    0 -0.16775311066E+03 -0.54779979197E+02  0.70267207913E+02  0.25160372169E+03  0.16500000000E+03 0.  0.
   -5000001    1    1    2    0    0  0.16775311066E+03  0.54779979197E+02  0.36169418690E+02  0.24428503660E+03  0.16500000000E+03 0.  0.
<mgrwt>
<rscale>  0 0.48433140E+03</rscale>
<asrwt>0</asrwt>
<pdfrwt beam="1">  1        2 0.46332722E-01 0.48433140E+03</pdfrwt>
<pdfrwt beam="2">  1       -2 0.29957856E-01 0.48433140E+03</pdfrwt>
<totfact> 0.11234937E+03</totfact>
</mgrwt>
</event>
<event>
 4    1  0.9064384E-005  0.4401503E+03  0.7818608E-02  0.1030701E+00
          2   -1    0    0  501    0  0.00000000000E+00  0.00000000000E+00  0.64076907849E+03  0.64076907849E+03  0.25500000000E-02 0.  1.
         -2   -1    0    0    0  501 -0.00000000000E+00 -0.00000000000E+00 -0.75585828476E+02  0.75585828519E+02  0.25500000000E-02 0. -1.
    5000001    1    1    2    0    0 -0.28590580032E+02 -0.11376284509E+03  0.14212723853E+03  0.24735512552E+03  0.16500000000E+03 0.  0.
   -5000001    1    1    2    0    0  0.28590580032E+02  0.11376284509E+03  0.42305601148E+03  0.46899978149E+03  0.16500000000E+03 0.  0.
<mgrwt>
<rscale>  0 0.44015025E+03</rscale>
<asrwt>0</asrwt>
<pdfrwt beam="1">  1        2 0.98579856E-01 0.44015025E+03</pdfrwt>
<pdfrwt beam="2">  1       -2 0.11628589E-01 0.44015025E+03</pdfrwt>
<totfact> 0.24418706E+03</totfact>
</mgrwt>
</event>
<event>
 4    1  0.9064384E-005  0.1653467E+04  0.7818608E-02  0.8788358E-01
         -2   -1    0    0    0  501 -0.00000000000E+00  0.00000000000E+00  0.40769763774E+03  0.40769763774E+03  0.25500000000E-02 0. -1.
          2   -1    0    0  501    0  0.00000000000E+00 -0.00000000000E+00 -0.16764579280E+04  0.16764579280E+04  0.25500000000E-02 0.  1.
    5000001    1    1    2    0    0 -0.60937851310E+03 -0.43340387945E+03 -0.24164143093E+03  0.80299232629E+03  0.16500000000E+03 0.  0.
   -5000001    1    1    2    0    0  0.60937851310E+03  0.43340387945E+03 -0.10271188594E+04  0.12811632395E+04  0.16500000000E+03 0.  0.
<mgrwt>
<rscale>  0 0.16534666E+04</rscale>
<asrwt>0</asrwt>
<pdfrwt beam="1">  1        2 0.25791660E+00 0.16534666E+04</pdfrwt>
<pdfrwt beam="2">  1       -2 0.62722715E-01 0.16534666E+04</pdfrwt>
<totfact> 0.22745572E+01</totfact>
</mgrwt>
</event>
<event>
 4    1  0.9064384E-005  0.1075406E+04  0.7818608E-02  0.9229500E-01
          2   -1    0    0  501    0  0.00000000000E+00  0.00000000000E+00  0.48440973039E+03  0.48440973040E+03  0.25500000000E-02 0.  1.
         -2   -1    0    0    0  501 -0.00000000000E+00 -0.00000000000E+00 -0.59685914871E+03  0.59685914871E+03  0.25500000000E-02 0. -1.
    5000001    1    1    2    0    0  0.27460548633E+03 -0.43044802093E+03 -0.91137319957E+02  0.54426526890E+03  0.16500000000E+03 0.  0.
   -5000001    1    1    2    0    0 -0.27460548633E+03  0.43044802093E+03 -0.21312098354E+02  0.53700361021E+03  0.16500000000E+03 0.  0.
<mgrwt>
<rscale>  0 0.10754057E+04</rscale>
<asrwt>0</asrwt>
<pdfrwt beam="1">  1        2 0.74524574E-01 0.10754057E+04</pdfrwt>
<pdfrwt beam="2">  1       -2 0.91824484E-01 0.10754057E+04</pdfrwt>
<totfact> 0.64114092E+01</totfact>
</mgrwt>
</event>
<event>
 4    1  0.9064384E-005  0.4621583E+03  0.7818608E-02  0.1024157E+00
          2   -1    0    0  501    0  0.00000000000E+00  0.00000000000E+00  0.28940450474E+04  0.28940450474E+04  0.25500000000E-02 0.  1.
         -2   -1    0    0    0  501 -0.00000000000E+00 -0.00000000000E+00 -0.18450842430E+02  0.18450842607E+02  0.25500000000E-02 0. -1.
    5000001    1    1    2    0    0 -0.48061382983E+02  0.15095670946E+03  0.16443956421E+04  0.16602288554E+04  0.16500000000E+03 0.  0.
   -5000001    1    1    2    0    0  0.48061382983E+02 -0.15095670946E+03  0.12311985629E+04  0.12522670346E+04  0.16500000000E+03 0.  0.
<mgrwt>
<rscale>  0 0.46215828E+03</rscale>
<asrwt>0</asrwt>
<pdfrwt beam="1">  1        2 0.44523747E+00 0.46215828E+03</pdfrwt>
<pdfrwt beam="2">  1       -2 0.28385926E-02 0.46215828E+03</pdfrwt>
<totfact> 0.10777258E+03</totfact>
</mgrwt>
</event>
<event>
 4    1  0.9064384E-005  0.3958811E+03  0.7818608E-02  0.1045215E+00
         -2   -1    0    0    0  501 -0.00000000000E+00  0.00000000000E+00  0.11665537475E+02  0.11665537754E+02  0.25500000000E-02 0. -1.
          2   -1    0    0  501    0  0.00000000000E+00 -0.00000000000E+00 -0.33586508220E+04  0.33586508220E+04  0.25500000000E-02 0.  1.
    5000001    1    1    2    0    0 -0.10368650619E+03  0.18877507985E+02 -0.14255455608E+04  0.14389275165E+04  0.16500000000E+03 0.  0.
   -5000001    1    1    2    0    0  0.10368650619E+03 -0.18877507985E+02 -0.19214397238E+04  0.19313888433E+04  0.16500000000E+03 0.  0.
<mgrwt>
<rscale>  0 0.39588113E+03</rscale>
<asrwt>0</asrwt>
<pdfrwt beam="1">  1        2 0.51671474E+00 0.39588113E+03</pdfrwt>
<pdfrwt beam="2">  1       -2 0.17947008E-02 0.39588113E+03</pdfrwt>
<totfact> 0.11138364E+03</totfact>
</mgrwt>
</event>
<event>
 4    1  0.9064384E-005  0.4948973E+03  0.7818608E-02  0.1015119E+00
          2   -1    0    0  501    0  0.00000000000E+00  0.00000000000E+00  0.15504270720E+04  0.15504270720E+04  0.25500000000E-02 0.  1.
         -2   -1    0    0    0  501 -0.00000000000E+00 -0.00000000000E+00 -0.39492877666E+02  0.39492877749E+02  0.25500000000E-02 0. -1.
    5000001    1    1    2    0    0  0.16446389566E+03  0.66028226231E+02  0.91920791891E+03  0.95056630375E+03  0.16500000000E+03 0.  0.
   -5000001    1    1    2    0    0 -0.16446389566E+03 -0.66028226231E+02  0.59172627545E+03  0.63935364603E+03  0.16500000000E+03 0.  0.
<mgrwt>
<rscale>  0 0.49489727E+03</rscale>
<asrwt>0</asrwt>
<pdfrwt beam="1">  1        2 0.23852727E+00 0.49489727E+03</pdfrwt>
<pdfrwt beam="2">  1       -2 0.60758267E-02 0.49489727E+03</pdfrwt>
<totfact> 0.18478269E+03</totfact>
</mgrwt>
</event>
<event>
 4    1  0.9064384E-005  0.7707459E+03  0.7818608E-02  0.9603354E-01
          2   -1    0    0  501    0  0.00000000000E+00  0.00000000000E+00  0.13488175027E+04  0.13488175027E+04  0.25500000000E-02 0.  1.
         -2   -1    0    0    0  501 -0.00000000000E+00 -0.00000000000E+00 -0.11010557536E+03  0.11010557539E+03  0.25500000000E-02 0. -1.
    5000001    1    1    2    0    0  0.17326873022E+03  0.12132528810E+03  0.95658062136E+02  0.28481106590E+03  0.16500000000E+03 0.  0.
   -5000001    1    1    2    0    0 -0.17326873022E+03 -0.12132528810E+03  0.11430538652E+04  0.11741120122E+04  0.16500000000E+03 0.  0.
<mgrwt>
<rscale>  0 0.77074594E+03</rscale>
<asrwt>0</asrwt>
<pdfrwt beam="1">  1        2 0.20751037E+00 0.77074594E+03</pdfrwt>
<pdfrwt beam="2">  1       -2 0.16939321E-01 0.77074594E+03</pdfrwt>
<totfact> 0.44489456E+02</totfact>
</mgrwt>
</event>
<event>
 4    1  0.9064384E-005  0.8130547E+03  0.7818608E-02  0.9541311E-01
          2   -1    0    0  501    0  0.00000000000E+00  0.00000000000E+00  0.33101753020E+03  0.33101753020E+03  0.25500000000E-02 0.  1.
         -2   -1    0    0    0  501 -0.00000000000E+00 -0.00000000000E+00 -0.49926204654E+03  0.49926204655E+03  0.25500000000E-02 0. -1.
    5000001    1    1    2    0    0 -0.14520046707E+03  0.33891741036E+03 -0.37422669479E+02  0.40567677142E+03  0.16500000000E+03 0.  0.
   -5000001    1    1    2    0    0  0.14520046707E+03 -0.33891741036E+03 -0.13082184687E+03  0.42460280533E+03  0.16500000000E+03 0.  0.
<mgrwt>
<rscale>  0 0.81305471E+03</rscale>
<asrwt>0</asrwt>
<pdfrwt beam="1">  1        2 0.50925774E-01 0.81305471E+03</pdfrwt>
<pdfrwt beam="2">  1       -2 0.76809546E-01 0.81305471E+03</pdfrwt>
<totfact> 0.15003385E+02</totfact>
</mgrwt>
</event>
<event>
 4    1  0.9064384E-005  0.6395537E+03  0.7818608E-02  0.9826581E-01
          2   -1    0    0  501    0  0.00000000000E+00  0.00000000000E+00  0.10522998803E+04  0.10522998803E+04  0.25500000000E-02 0.  1.
         -2   -1    0    0    0  501 -0.00000000000E+00 -0.00000000000E+00 -0.97174982108E+02  0.97174982142E+02  0.25500000000E-02 0. -1.
    5000001    1    1    2    0    0  0.23836309465E+03  0.40847020404E+02  0.24636703851E+03  0.38263188789E+03  0.16500000000E+03 0.  0.
   -5000001    1    1    2    0    0 -0.23836309465E+03 -0.40847020404E+02  0.70875785972E+03  0.76684297460E+03  0.16500000000E+03 0.  0.
<mgrwt>
<rscale>  0 0.63955366E+03</rscale>
<asrwt>0</asrwt>
<pdfrwt beam="1">  1        2 0.16189228E+00 0.63955366E+03</pdfrwt>
<pdfrwt beam="2">  1       -2 0.14949998E-01 0.63955366E+03</pdfrwt>
<totfact> 0.82905339E+02</totfact>
</mgrwt>
</event>
<event>
 4    1  0.9064384E-005  0.5575975E+03  0.7818608E-02  0.9997506E-01
         -2   -1    0    0    0  501 -0.00000000000E+00  0.00000000000E+00  0.42498725092E+03  0.42498725093E+03  0.25500000000E-02 0. -1.
          2   -1    0    0  501    0  0.00000000000E+00 -0.00000000000E+00 -0.18289662083E+03  0.18289662085E+03  0.25500000000E-02 0.  1.
    5000001    1    1    2    0    0 -0.21262134388E+03 -0.17102542504E+02  0.43931460205E+02  0.27323123180E+03  0.16500000000E+03 0.  0.
   -5000001    1    1    2    0    0  0.21262134388E+03  0.17102542504E+02  0.19815916989E+03  0.33465263998E+03  0.16500000000E+03 0.  0.
<mgrwt>
<rscale>  0 0.55759746E+03</rscale>
<asrwt>0</asrwt>
<pdfrwt beam="1">  1        2 0.28137942E-01 0.55759746E+03</pdfrwt>
<pdfrwt beam="2">  1       -2 0.65382654E-01 0.55759746E+03</pdfrwt>
<totfact> 0.41656598E+02</totfact>
</mgrwt>
</event>
<event>
 4    1  0.9064384E-005  0.7675099E+03  0.7818608E-02  0.9608274E-01
          2   -1    0    0  501    0  0.00000000000E+00  0.00000000000E+00  0.94961558943E+02  0.94961558977E+02  0.25500000000E-02 0.  1.
         -2   -1    0    0    0  501 -0.00000000000E+00 -0.00000000000E+00 -0.15508154269E+04  0.15508154269E+04  0.25500000000E-02 0. -1.
    5000001    1    1    2    0    0  0.72367952488E+02  0.33756106351E+03 -0.66510720451E+03  0.76731817757E+03  0.16500000000E+03 0.  0.
   -5000001    1    1    2    0    0 -0.72367952488E+02 -0.33756106351E+03 -0.79074666347E+03  0.87845880833E+03  0.16500000000E+03 0.  0.
<mgrwt>
<rscale>  0 0.76750987E+03</rscale>
<asrwt>0</asrwt>
<pdfrwt beam="1">  1        2 0.14609472E-01 0.76750987E+03</pdfrwt>
<pdfrwt beam="2">  1       -2 0.23858697E+00 0.76750987E+03</pdfrwt>
<totfact> 0.32040483E+01</totfact>
</mgrwt>
</event>
<event>
 4    1  0.9064384E-005  0.4874825E+03  0.7818608E-02  0.1017099E+00
          2   -1    0    0  501    0  0.00000000000E+00  0.00000000000E+00  0.26503843402E+03  0.26503843403E+03  0.25500000000E-02 0. -1.
         -2   -1    0    0    0  501 -0.00000000000E+00 -0.00000000000E+00 -0.22415537204E+03  0.22415537205E+03  0.25500000000E-02 0.  1.
    5000001    1    1    2    0    0  0.28650142488E+02 -0.14773372132E+03 -0.77567630733E+02  0.23640604988E+03  0.16500000000E+03 0.  0.
   -5000001    1    1    2    0    0 -0.28650142488E+02  0.14773372132E+03  0.11845069271E+03  0.25278775620E+03  0.16500000000E+03 0.  0.
<mgrwt>
<rscale>  0 0.48748247E+03</rscale>
<asrwt>0</asrwt>
<pdfrwt beam="1">  1        2 0.40775144E-01 0.48748247E+03</pdfrwt>
<pdfrwt beam="2">  1       -2 0.34485442E-01 0.48748247E+03</pdfrwt>
<totfact> 0.99474821E+02</totfact>
</mgrwt>
</event>
<event>
 4    1  0.9064384E-005  0.5050108E+03  0.7818608E-02  0.1012479E+00
         -2   -1    0    0    0  501 -0.00000000000E+00  0.00000000000E+00  0.52009389803E+02  0.52009389865E+02  0.25500000000E-02 0. -1.
          2   -1    0    0  501    0  0.00000000000E+00 -0.00000000000E+00 -0.12259128490E+04  0.12259128490E+04  0.25500000000E-02 0.  1.
    5000001    1    1    2    0    0 -0.51781157408E+02 -0.15839652881E+03 -0.82383581046E+03  0.85656359437E+03  0.16500000000E+03 0.  0.
   -5000001    1    1    2    0    0  0.51781157408E+02  0.15839652881E+03 -0.35006764873E+03  0.42135864449E+03  0.16500000000E+03 0.  0.
<mgrwt>
<rscale>  0 0.50501081E+03</rscale>
<asrwt>0</asrwt>
<pdfrwt beam="1">  1        2 0.18860196E+00 0.50501081E+03</pdfrwt>
<pdfrwt beam="2">  1       -2 0.80014455E-02 0.50501081E+03</pdfrwt>
<totfact> 0.18192463E+03</totfact>
</mgrwt>
</event>
<event>
 4    1  0.9064384E-005  0.6858318E+03  0.7818608E-02  0.9741773E-01
          2   -1    0    0  501    0  0.00000000000E+00  0.00000000000E+00  0.96795563983E+03  0.96795563983E+03  0.25500000000E-02 0.  1.
         -2   -1    0    0    0  501 -0.00000000000E+00 -0.00000000000E+00 -0.12148419777E+03  0.12148419780E+03  0.25500000000E-02 0. -1.
    5000001    1    1    2    0    0  0.17405229306E+03 -0.17515680698E+03  0.15090180550E+03  0.33312229384E+03  0.16500000000E+03 0.  0.
   -5000001    1    1    2    0    0 -0.17405229306E+03  0.17515680698E+03  0.69556963655E+03  0.75631754379E+03  0.16500000000E+03 0.  0.
<mgrwt>
<rscale>  0 0.68583180E+03</rscale>
<asrwt>0</asrwt>
<pdfrwt beam="1">  1        2 0.14891625E+00 0.68583180E+03</pdfrwt>
<pdfrwt beam="2">  1       -2 0.18689877E-01 0.68583180E+03</pdfrwt>
<totfact> 0.63915188E+02</totfact>
</mgrwt>
</event>
<event>
 4    1  0.9064384E-005  0.7728244E+03  0.7818608E-02  0.9600208E-01
         -2   -1    0    0    0  501 -0.00000000000E+00  0.00000000000E+00  0.82991656956E+03  0.82991656957E+03  0.25500000000E-02 0. -1.
          2   -1    0    0  501    0  0.00000000000E+00 -0.00000000000E+00 -0.17991493038E+03  0.17991493040E+03  0.25500000000E-02 0.  1.
    5000001    1    1    2    0    0  0.22398711441E+03 -0.26218043598E+03  0.25130874045E+03  0.45748212146E+03  0.16500000000E+03 0.  0.
   -5000001    1    1    2    0    0 -0.22398711441E+03  0.26218043598E+03  0.39869289873E+03  0.55234937850E+03  0.16500000000E+03 0.  0.
<mgrwt>
<rscale>  0 0.77282438E+03</rscale>
<asrwt>0</asrwt>
<pdfrwt beam="1">  1        2 0.27679221E-01 0.77282438E+03</pdfrwt>
<pdfrwt beam="2">  1       -2 0.12767947E+00 0.77282438E+03</pdfrwt>
<totfact> 0.89407411E+01</totfact>
</mgrwt>
</event>
<event>
 4    1  0.9064384E-005  0.5174884E+03  0.7818608E-02  0.1009312E+00
         -2   -1    0    0    0  501 -0.00000000000E+00  0.00000000000E+00  0.47941098668E+02  0.47941098736E+02  0.25500000000E-02 0. -1.
          2   -1    0    0  501    0  0.00000000000E+00 -0.00000000000E+00 -0.13964755423E+04  0.13964755423E+04  0.25500000000E-02 0.  1.
    5000001    1    1    2    0    0  0.38058333326E+02  0.19533430833E+03 -0.64373660424E+03  0.69370436383E+03  0.16500000000E+03 0.  0.
   -5000001    1    1    2    0    0 -0.38058333326E+02 -0.19533430833E+03 -0.70479783936E+03  0.75071227718E+03  0.16500000000E+03 0.  0.
<mgrwt>
<rscale>  0 0.51748844E+03</rscale>
<asrwt>0</asrwt>
<pdfrwt beam="1">  1        2 0.21484236E+00 0.51748844E+03</pdfrwt>
<pdfrwt beam="2">  1       -2 0.73755547E-02 0.51748844E+03</pdfrwt>
<totfact> 0.16556829E+03</totfact>
</mgrwt>
</event>
<event>
 4    1  0.9064384E-005  0.7045084E+03  0.7818608E-02  0.9709553E-01
          2   -1    0    0  501    0  0.00000000000E+00  0.00000000000E+00  0.12904258901E+04  0.12904258901E+04  0.25500000000E-02 0.  1.
         -2   -1    0    0    0  501 -0.00000000000E+00 -0.00000000000E+00 -0.96156650292E+02  0.96156650326E+02  0.25500000000E-02 0. -1.
    5000001    1    1    2    0    0 -0.67859201925E+02 -0.24859359680E+03  0.94060116405E+03  0.98912041606E+03  0.16500000000E+03 0.  0.
   -5000001    1    1    2    0    0  0.67859201925E+02  0.24859359680E+03  0.25366807578E+03  0.39746212439E+03  0.16500000000E+03 0.  0.
<mgrwt>
<rscale>  0 0.70450843E+03</rscale>
<asrwt>0</asrwt>
<pdfrwt beam="1">  1        2 0.19852705E+00 0.70450843E+03</pdfrwt>
<pdfrwt beam="2">  1       -2 0.14793332E-01 0.70450843E+03</pdfrwt>
<totfact> 0.60708845E+02</totfact>
</mgrwt>
</event>
<event>
 4    1  0.9064384E-005  0.5144136E+03  0.7818608E-02  0.1010084E+00
         -2   -1    0    0    0  501 -0.00000000000E+00  0.00000000000E+00  0.45186836132E+03  0.45186836133E+03  0.25500000000E-02 0. -1.
          2   -1    0    0  501    0  0.00000000000E+00 -0.00000000000E+00 -0.14640397780E+03  0.14640397782E+03  0.25500000000E-02 0.  1.
    5000001    1    1    2    0    0  0.17626115716E+03 -0.82775323574E+02  0.18970402420E+03  0.31801315463E+03  0.16500000000E+03 0.  0.
   -5000001    1    1    2    0    0 -0.17626115716E+03  0.82775323574E+02  0.11576035932E+03  0.28025918452E+03  0.16500000000E+03 0.  0.
<mgrwt>
<rscale>  0 0.51441355E+03</rscale>
<asrwt>0</asrwt>
<pdfrwt beam="1">  1        2 0.22523689E-01 0.51441355E+03</pdfrwt>
<pdfrwt beam="2">  1       -2 0.69518209E-01 0.51441355E+03</pdfrwt>
<totfact> 0.47081241E+02</totfact>
</mgrwt>
</event>
<event>
 4    1  0.9064384E-005  0.9405621E+03  0.7818608E-02  0.9376251E-01
          2   -1    0    0  501    0  0.00000000000E+00  0.00000000000E+00  0.29448402098E+04  0.29448402098E+04  0.25500000000E-02 0.  1.
         -2   -1    0    0    0  501 -0.00000000000E+00 -0.00000000000E+00 -0.75102303933E+02  0.75102303976E+02  0.25500000000E-02 0. -1.
    5000001    1    1    2    0    0  0.35679803897E+03  0.23540943347E+03  0.17749218622E+04  0.18331107602E+04  0.16500000000E+03 0.  0.
   -5000001    1    1    2    0    0 -0.35679803897E+03 -0.23540943347E+03  0.10948160436E+04  0.11868317536E+04  0.16500000000E+03 0.  0.
<mgrwt>
<rscale>  0 0.94056214E+03</rscale>
<asrwt>0</asrwt>
<pdfrwt beam="1">  1        2 0.45305230E+00 0.94056214E+03</pdfrwt>
<pdfrwt beam="2">  1       -2 0.11554202E-01 0.94056214E+03</pdfrwt>
<totfact> 0.10526075E+02</totfact>
</mgrwt>
</event>
<event>
 4    1  0.9064384E-005  0.5383219E+03  0.7818608E-02  0.1004234E+00
         -2   -1    0    0    0  501 -0.00000000000E+00  0.00000000000E+00  0.12295221412E+03  0.12295221415E+03  0.25500000000E-02 0. -1.
          2   -1    0    0  501    0  0.00000000000E+00 -0.00000000000E+00 -0.58923399420E+03  0.58923399420E+03  0.25500000000E-02 0.  1.
    5000001    1    1    2    0    0  0.92342383946E+02 -0.17477696754E+03 -0.12940314973E+03  0.28817404362E+03  0.16500000000E+03 0.  0.
   -5000001    1    1    2    0    0 -0.92342383946E+02  0.17477696754E+03 -0.33687863034E+03  0.42401216473E+03  0.16500000000E+03 0.  0.
<mgrwt>
<rscale>  0 0.53832193E+03</rscale>
<asrwt>0</asrwt>
<pdfrwt beam="1">  1        2 0.90651382E-01 0.53832193E+03</pdfrwt>
<pdfrwt beam="2">  1       -2 0.18915726E-01 0.53832193E+03</pdfrwt>
<totfact> 0.11950569E+03</totfact>
</mgrwt>
</event>
<event>
 4    1  0.9064384E-005  0.5735932E+03  0.7818608E-02  0.9961759E-01
          2   -1    0    0  501    0  0.00000000000E+00  0.00000000000E+00  0.57932383184E+02  0.57932383240E+02  0.25500000000E-02 0.  1.
         -2   -1    0    0    0  501 -0.00000000000E+00 -0.00000000000E+00 -0.14197980139E+04  0.14197980139E+04  0.25500000000E-02 0. -1.
    5000001    1    1    2    0    0  0.65482335018E+02 -0.22127668625E+03 -0.57236287457E+03  0.63880792752E+03  0.16500000000E+03 0.  0.
   -5000001    1    1    2    0    0 -0.65482335018E+02  0.22127668625E+03 -0.78950275617E+03  0.83892246964E+03  0.16500000000E+03 0.  0.
<mgrwt>
<rscale>  0 0.57359318E+03</rscale>
<asrwt>0</asrwt>
<pdfrwt beam="1">  1        2 0.89126754E-02 0.57359318E+03</pdfrwt>
<pdfrwt beam="2">  1       -2 0.21843044E+00 0.57359318E+03</pdfrwt>
<totfact> 0.80361492E+01</totfact>
</mgrwt>
</event>
<event>
 4    1  0.9064384E-005  0.4433250E+03  0.7818608E-02  0.1029731E+00
          2   -1    0    0  501    0  0.00000000000E+00  0.00000000000E+00  0.43788308196E+03  0.43788308197E+03  0.25500000000E-02 0.  1.
         -2   -1    0    0    0  501 -0.00000000000E+00 -0.00000000000E+00 -0.11220864082E+03  0.11220864085E+03  0.25500000000E-02 0. -1.
    5000001    1    1    2    0    0  0.62092375580E+02 -0.13101538762E+03  0.19982921224E+03  0.29694647491E+03  0.16500000000E+03 0.  0.
   -5000001    1    1    2    0    0 -0.62092375580E+02  0.13101538762E+03  0.12584522890E+03  0.25314524790E+03  0.16500000000E+03 0.  0.
<mgrwt>
<rscale>  0 0.44332501E+03</rscale>
<asrwt>0</asrwt>
<pdfrwt beam="1">  1        2 0.67366629E-01 0.44332501E+03</pdfrwt>
<pdfrwt beam="2">  1       -2 0.17262868E-01 0.44332501E+03</pdfrwt>
<totfact> 0.19653167E+03</totfact>
</mgrwt>
</event>
<event>
 4    1  0.9064384E-005  0.1016699E+04  0.7818608E-02  0.9290417E-01
          2   -1    0    0  501    0  0.00000000000E+00  0.00000000000E+00  0.20710682136E+04  0.20710682136E+04  0.25500000000E-02 0.  1.
         -2   -1    0    0    0  501 -0.00000000000E+00 -0.00000000000E+00 -0.12477590443E+03  0.12477590445E+03  0.25500000000E-02 0. -1.
    5000001    1    1    2    0    0  0.33845721790E+03 -0.25653186293E+03  0.48620129551E+03  0.66631718033E+03  0.16500000000E+03 0.  0.
   -5000001    1    1    2    0    0 -0.33845721790E+03  0.25653186293E+03  0.14600910137E+04  0.15295269377E+04  0.16500000000E+03 0.  0.
<mgrwt>
<rscale>  0 0.10166994E+04</rscale>
<asrwt>0</asrwt>
<pdfrwt beam="1">  1        2 0.31862589E+00 0.10166994E+04</pdfrwt>
<pdfrwt beam="2">  1       -2 0.19196292E-01 0.10166994E+04</pdfrwt>
<totfact> 0.14034045E+02</totfact>
</mgrwt>
</event>
<event>
 4    1  0.9064384E-005  0.7673519E+03  0.7818608E-02  0.9608514E-01
         -2   -1    0    0    0  501 -0.00000000000E+00  0.00000000000E+00  0.46842540869E+03  0.46842540870E+03  0.25500000000E-02 0. -1.
          2   -1    0    0  501    0  0.00000000000E+00 -0.00000000000E+00 -0.31425974090E+03  0.31425974092E+03  0.25500000000E-02 0.  1.
    5000001    1    1    2    0    0  0.31950488329E+03 -0.64146836324E+02 -0.42668700667E+02  0.36775508844E+03  0.16500000000E+03 0.  0.
   -5000001    1    1    2    0    0 -0.31950488329E+03  0.64146836324E+02  0.19683436846E+03  0.41493006117E+03  0.16500000000E+03 0.  0.
<mgrwt>
<rscale>  0 0.76735193E+03</rscale>
<asrwt>0</asrwt>
<pdfrwt beam="1">  1        2 0.48347653E-01 0.76735193E+03</pdfrwt>
<pdfrwt beam="2">  1       -2 0.72065447E-01 0.76735193E+03</pdfrwt>
<totfact> 0.18337227E+02</totfact>
</mgrwt>
</event>
<event>
 4    1  0.9064384E-005  0.4156690E+03  0.7818608E-02  0.1038485E+00
         -2   -1    0    0    0  501 -0.00000000000E+00  0.00000000000E+00  0.90330989452E+01  0.90330993052E+01  0.25500000000E-02 0. -1.
          2   -1    0    0  501    0  0.00000000000E+00 -0.00000000000E+00 -0.47818772435E+04  0.47818772435E+04  0.25500000000E-02 0.  1.
    5000001    1    1    2    0    0  0.43648515966E+02 -0.70280880282E+02 -0.12853884198E+04  0.12985734422E+04  0.16500000000E+03 0.  0.
   -5000001    1    1    2    0    0 -0.43648515966E+02  0.70280880282E+02 -0.34874557248E+04  0.34923369006E+04  0.16500000000E+03 0.  0.
<mgrwt>
<rscale>  0 0.41566896E+03</rscale>
<asrwt>0</asrwt>
<pdfrwt beam="1">  1        2 0.73567140E+00 0.41566896E+03</pdfrwt>
<pdfrwt beam="2">  1       -2 0.13897114E-02 0.41566896E+03</pdfrwt>
<totfact> 0.11184337E+02</totfact>
</mgrwt>
</event>
<event>
 4    1  0.9064384E-005  0.7860305E+03  0.7818608E-02  0.9580460E-01
          2   -1    0    0  501    0  0.00000000000E+00  0.00000000000E+00  0.27795055072E+03  0.27795055074E+03  0.25500000000E-02 0.  1.
         -2   -1    0    0    0  501 -0.00000000000E+00 -0.00000000000E+00 -0.55571392354E+03  0.55571392355E+03  0.25500000000E-02 0. -1.
    5000001    1    1    2    0    0 -0.23139703838E+03 -0.26313601560E+03 -0.68124128723E+02  0.39325697577E+03  0.16500000000E+03 0.  0.
   -5000001    1    1    2    0    0  0.23139703838E+03  0.26313601560E+03 -0.20963924409E+03  0.44040749851E+03  0.16500000000E+03 0.  0.
<mgrwt>
<rscale>  0 0.78603051E+03</rscale>
<asrwt>0</asrwt>
<pdfrwt beam="1">  1        2 0.42761623E-01 0.78603051E+03</pdfrwt>
<pdfrwt beam="2">  1       -2 0.85494449E-01 0.78603051E+03</pdfrwt>
<totfact> 0.14327832E+02</totfact>
</mgrwt>
</event>
<event>
 4    1  0.9064384E-005  0.5287577E+03  0.7818608E-02  0.1006534E+00
          2   -1    0    0  501    0  0.00000000000E+00  0.00000000000E+00  0.39262497280E+04  0.39262497280E+04  0.25500000000E-02 0.  1.
         -2   -1    0    0    0  501 -0.00000000000E+00 -0.00000000000E+00 -0.17802277692E+02  0.17802277875E+02  0.25500000000E-02 0. -1.
    5000001    1    1    2    0    0  0.15676753774E+03 -0.13435104022E+03  0.20042193411E+04  0.20215702882E+04  0.16500000000E+03 0.  0.
   -5000001    1    1    2    0    0 -0.15676753774E+03  0.13435104022E+03  0.19042281092E+04  0.19224817177E+04  0.16500000000E+03 0.  0.
<mgrwt>
<rscale>  0 0.52875775E+03</rscale>
<asrwt>0</asrwt>
<pdfrwt beam="1">  1        2 0.60403806E+00 0.52875775E+03</pdfrwt>
<pdfrwt beam="2">  1       -2 0.27388136E-02 0.52875775E+03</pdfrwt>
<totfact> 0.23172549E+02</totfact>
</mgrwt>
</event>
<event>
 4    1  0.9064384E-005  0.1263345E+04  0.7818608E-02  0.9059149E-01
         -2   -1    0    0    0  501 -0.00000000000E+00  0.00000000000E+00  0.85883394151E+03  0.85883394152E+03  0.25500000000E-02 0. -1.
          2   -1    0    0  501    0  0.00000000000E+00 -0.00000000000E+00 -0.46459525761E+03  0.46459525762E+03  0.25500000000E-02 0.  1.
    5000001    1    1    2    0    0  0.70098339737E+02 -0.55602715185E+03  0.44876313726E+03  0.73667721845E+03  0.16500000000E+03 0.  0.
   -5000001    1    1    2    0    0 -0.70098339737E+02  0.55602715185E+03 -0.54524453359E+02  0.58675198068E+03  0.16500000000E+03 0.  0.
<mgrwt>
<rscale>  0 0.12633450E+04</rscale>
<asrwt>0</asrwt>
<pdfrwt beam="1">  1        2 0.71476194E-01 0.12633450E+04</pdfrwt>
<pdfrwt beam="2">  1       -2 0.13212830E+00 0.12633450E+04</pdfrwt>
<totfact> 0.27438715E+01</totfact>
</mgrwt>
</event>
<event>
 4    1  0.9064384E-005  0.3840030E+03  0.7818608E-02  0.1049464E+00
         -2   -1    0    0    0  501 -0.00000000000E+00  0.00000000000E+00  0.10913370419E+03  0.10913370422E+03  0.25500000000E-02 0. -1.
          2   -1    0    0  501    0  0.00000000000E+00 -0.00000000000E+00 -0.33779283862E+03  0.33779283863E+03  0.25500000000E-02 0.  1.
    5000001    1    1    2    0    0  0.89714785240E+02  0.32474061460E+02 -0.14128186644E+03  0.23725276214E+03  0.16500000000E+03 0.  0.
   -5000001    1    1    2    0    0 -0.89714785240E+02 -0.32474061460E+02 -0.87377267984E+02  0.20967378071E+03  0.16500000000E+03 0.  0.
<mgrwt>
<rscale>  0 0.38400304E+03</rscale>
<asrwt>0</asrwt>
<pdfrwt beam="1">  1        2 0.51968129E-01 0.38400304E+03</pdfrwt>
<pdfrwt beam="2">  1       -2 0.16789801E-01 0.38400304E+03</pdfrwt>
<totfact> 0.27375814E+03</totfact>
</mgrwt>
</event>
<event>
 4    1  0.9064384E-005  0.6928602E+03  0.7818608E-02  0.9729521E-01
          2   -1    0    0  501    0  0.00000000000E+00  0.00000000000E+00  0.13889339505E+04  0.13889339505E+04  0.25500000000E-02 0.  1.
         -2   -1    0    0    0  501 -0.00000000000E+00 -0.00000000000E+00 -0.86407151490E+02  0.86407151528E+02  0.25500000000E-02 0. -1.
    5000001    1    1    2    0    0  0.21086486072E+03  0.21658521940E+03  0.73138124934E+03  0.80840378440E+03  0.16500000000E+03 0.  0.
   -5000001    1    1    2    0    0 -0.21086486072E+03 -0.21658521940E+03  0.57114554971E+03  0.66693731767E+03  0.16500000000E+03 0.  0.
<mgrwt>
<rscale>  0 0.69286023E+03</rscale>
<asrwt>0</asrwt>
<pdfrwt beam="1">  1        2 0.21368214E+00 0.69286023E+03</pdfrwt>
<pdfrwt beam="2">  1       -2 0.13293408E-01 0.69286023E+03</pdfrwt>
<totfact> 0.63854974E+02</totfact>
</mgrwt>
</event>
<event>
 4    1  0.9064384E-005  0.3929255E+03  0.7818608E-02  0.1046257E+00
          2   -1    0    0  501    0  0.00000000000E+00  0.00000000000E+00  0.24200870410E+04  0.24200870410E+04  0.25500000000E-02 0.  1.
         -2   -1    0    0    0  501 -0.00000000000E+00 -0.00000000000E+00 -0.15948851920E+02  0.15948852124E+02  0.25500000000E-02 0. -1.
    5000001    1    1    2    0    0 -0.97996525576E+02 -0.37635278135E+02  0.13185313253E+04  0.13329552089E+04  0.16500000000E+03 0.  0.
   -5000001    1    1    2    0    0  0.97996525576E+02  0.37635278135E+02  0.10856068639E+04  0.11030806843E+04  0.16500000000E+03 0.  0.
<mgrwt>
<rscale>  0 0.39292549E+03</rscale>
<asrwt>0</asrwt>
<pdfrwt beam="1">  1        2 0.37232124E+00 0.39292549E+03</pdfrwt>
<pdfrwt beam="2">  1       -2 0.24536685E-02 0.39292549E+03</pdfrwt>
<totfact> 0.25115405E+03</totfact>
</mgrwt>
</event>
<event>
 4    1  0.9064384E-005  0.5159376E+03  0.7818608E-02  0.1009701E+00
          2   -1    0    0  501    0  0.00000000000E+00  0.00000000000E+00  0.65298069792E+03  0.65298069793E+03  0.25500000000E-02 0.  1.
         -2   -1    0    0    0  501 -0.00000000000E+00 -0.00000000000E+00 -0.10191402713E+03  0.10191402716E+03  0.25500000000E-02 0. -1.
    5000001    1    1    2    0    0  0.17508907272E+03 -0.43649627796E+02  0.15522154982E+03  0.28962079159E+03  0.16500000000E+03 0.  0.
   -5000001    1    1    2    0    0 -0.17508907272E+03  0.43649627796E+02  0.39584512097E+03  0.46527393350E+03  0.16500000000E+03 0.  0.
<mgrwt>
<rscale>  0 0.51593756E+03</rscale>
<asrwt>0</asrwt>
<pdfrwt beam="1">  1        2 0.10045857E+00 0.51593756E+03</pdfrwt>
<pdfrwt beam="2">  1       -2 0.15679081E-01 0.51593756E+03</pdfrwt>
<totfact> 0.14547416E+03</totfact>
</mgrwt>
</event>
<event>
 4    1  0.9064384E-005  0.4003109E+03  0.7818608E-02  0.1043672E+00
         -2   -1    0    0    0  501 -0.00000000000E+00  0.00000000000E+00  0.68270545266E+02  0.68270545313E+02  0.25500000000E-02 0. -1.
          2   -1    0    0  501    0  0.00000000000E+00 -0.00000000000E+00 -0.58681532147E+03  0.58681532147E+03  0.25500000000E-02 0.  1.
    5000001    1    1    2    0    0 -0.17619358929E+02  0.10968033044E+03 -0.22279089599E+03  0.29866536463E+03  0.16500000000E+03 0.  0.
   -5000001    1    1    2    0    0  0.17619358929E+02 -0.10968033044E+03 -0.29575388021E+03  0.35642050215E+03  0.16500000000E+03 0.  0.
<mgrwt>
<rscale>  0 0.40031089E+03</rscale>
<asrwt>0</asrwt>
<pdfrwt beam="1">  1        2 0.90279277E-01 0.40031089E+03</pdfrwt>
<pdfrwt beam="2">  1       -2 0.10503161E-01 0.40031089E+03</pdfrwt>
<totfact> 0.31945230E+03</totfact>
</mgrwt>
</event>
<event>
 4    1  0.9064384E-005  0.3720795E+03  0.7818608E-02  0.1053901E+00
         -2   -1    0    0    0  501 -0.00000000000E+00  0.00000000000E+00  0.37468450280E+02  0.37468450367E+02  0.25500000000E-02 0.  1.
          2   -1    0    0  501    0  0.00000000000E+00 -0.00000000000E+00 -0.92373150750E+03  0.92373150750E+03  0.25500000000E-02 0. -1.
    5000001    1    1    2    0    0  0.66193504355E+02 -0.34198670684E+02 -0.55378261495E+03  0.58262450491E+03  0.16500000000E+03 0.  0.
   -5000001    1    1    2    0    0 -0.66193504355E+02  0.34198670684E+02 -0.33248044226E+03  0.37857545296E+03  0.16500000000E+03 0.  0.
<mgrwt>
<rscale>  0 0.37207950E+03</rscale>
<asrwt>0</asrwt>
<pdfrwt beam="1">  1        2 0.14211252E+00 0.37207950E+03</pdfrwt>
<pdfrwt beam="2">  1       -2 0.57643777E-02 0.37207950E+03</pdfrwt>
<totfact> 0.46379109E+03</totfact>
</mgrwt>
</event>
<event>
 4    1  0.9064384E-005  0.6794684E+03  0.7818608E-02  0.9753003E-01
          2   -1    0    0  501    0  0.00000000000E+00  0.00000000000E+00  0.76800697737E+03  0.76800697737E+03  0.25500000000E-02 0.  1.
         -2   -1    0    0    0  501 -0.00000000000E+00 -0.00000000000E+00 -0.15028423404E+03  0.15028423407E+03  0.25500000000E-02 0. -1.
    5000001    1    1    2    0    0  0.98561784907E+02  0.27974800087E+03  0.32895131416E+03  0.47265985287E+03  0.16500000000E+03 0.  0.
   -5000001    1    1    2    0    0 -0.98561784907E+02 -0.27974800087E+03  0.28877142917E+03  0.44563135857E+03  0.16500000000E+03 0.  0.
<mgrwt>
<rscale>  0 0.67946844E+03</rscale>
<asrwt>0</asrwt>
<pdfrwt beam="1">  1        2 0.11815492E+00 0.67946844E+03</pdfrwt>
<pdfrwt beam="2">  1       -2 0.23120652E-01 0.67946844E+03</pdfrwt>
<totfact> 0.60344536E+02</totfact>
</mgrwt>
</event>
<event>
 4    1  0.9064384E-005  0.6816244E+03  0.7818608E-02  0.9749183E-01
          2   -1    0    0  501    0  0.00000000000E+00  0.00000000000E+00  0.29722928684E+04  0.29722928684E+04  0.25500000000E-02 0.  1.
         -2   -1    0    0    0  501 -0.00000000000E+00 -0.00000000000E+00 -0.39078575251E+02  0.39078575335E+02  0.25500000000E-02 0. -1.
    5000001    1    1    2    0    0 -0.15179201927E+03 -0.22426154372E+03  0.20182992050E+04  0.20430591617E+04  0.16500000000E+03 0.  0.
   -5000001    1    1    2    0    0  0.15179201927E+03  0.22426154372E+03  0.91491508807E+03  0.96831228201E+03  0.16500000000E+03 0.  0.
<mgrwt>
<rscale>  0 0.68162444E+03</rscale>
<asrwt>0</asrwt>
<pdfrwt beam="1">  1        2 0.45727589E+00 0.68162444E+03</pdfrwt>
<pdfrwt beam="2">  1       -2 0.60120876E-02 0.68162444E+03</pdfrwt>
<totfact> 0.29791407E+02</totfact>
</mgrwt>
</event>
<event>
 4    1  0.9064384E-005  0.4859427E+03  0.7818608E-02  0.1017515E+00
         -2   -1    0    0    0  501 -0.00000000000E+00  0.00000000000E+00  0.70440892653E+02  0.70440892699E+02  0.25500000000E-02 0. -1.
          2   -1    0    0  501    0  0.00000000000E+00 -0.00000000000E+00 -0.83807954781E+03  0.83807954781E+03  0.25500000000E-02 0.  1.
    5000001    1    1    2    0    0 -0.16560073965E+03  0.47661962902E+02 -0.29784184952E+03  0.38161503508E+03  0.16500000000E+03 0.  0.
   -5000001    1    1    2    0    0  0.16560073965E+03 -0.47661962902E+02 -0.46979680564E+03  0.52690540542E+03  0.16500000000E+03 0.  0.
<mgrwt>
<rscale>  0 0.48594268E+03</rscale>
<asrwt>0</asrwt>
<pdfrwt beam="1">  1        2 0.12893531E+00 0.48594268E+03</pdfrwt>
<pdfrwt beam="2">  1       -2 0.10837061E-01 0.48594268E+03</pdfrwt>
<totfact> 0.19521336E+03</totfact>
</mgrwt>
</event>
<event>
 4    1  0.9064384E-005  0.4004911E+03  0.7818608E-02  0.1043610E+00
          2   -1    0    0  501    0  0.00000000000E+00  0.00000000000E+00  0.44260822865E+03  0.44260822866E+03  0.25500000000E-02 0.  1.
         -2   -1    0    0    0  501 -0.00000000000E+00 -0.00000000000E+00 -0.90595417533E+02  0.90595417569E+02  0.25500000000E-02 0. -1.
    5000001    1    1    2    0    0 -0.23145742276E+02 -0.10950569646E+03  0.20077334901E+03  0.28295257662E+03  0.16500000000E+03 0.  0.
   -5000001    1    1    2    0    0  0.23145742276E+02  0.10950569646E+03  0.15123946211E+03  0.25025106961E+03  0.16500000000E+03 0.  0.
<mgrwt>
<rscale>  0 0.40049108E+03</rscale>
<asrwt>0</asrwt>
<pdfrwt beam="1">  1        2 0.68093573E-01 0.40049108E+03</pdfrwt>
<pdfrwt beam="2">  1       -2 0.13937757E-01 0.40049108E+03</pdfrwt>
<totfact> 0.27769196E+03</totfact>
</mgrwt>
</event>
<event>
 4    1  0.9064384E-005  0.1192718E+04  0.7818608E-02  0.9119255E-01
         -2   -1    0    0    0  501 -0.00000000000E+00  0.00000000000E+00  0.85262996051E+02  0.85262996089E+02  0.25500000000E-02 0. -1.
          2   -1    0    0  501    0  0.00000000000E+00 -0.00000000000E+00 -0.41711405359E+04  0.41711405359E+04  0.25500000000E-02 0.  1.
    5000001    1    1    2    0    0 -0.25691655633E+02  0.56890556578E+03 -0.22715930859E+04  0.23476954129E+04  0.16500000000E+03 0.  0.
   -5000001    1    1    2    0    0  0.25691655633E+02 -0.56890556578E+03 -0.18142844540E+04  0.19087081191E+04  0.16500000000E+03 0.  0.
<mgrwt>
<rscale>  0 0.11927178E+04</rscale>
<asrwt>0</asrwt>
<pdfrwt beam="1">  1        2 0.64171377E+00 0.11927178E+04</pdfrwt>
<pdfrwt beam="2">  1       -2 0.13117387E-01 0.11927178E+04</pdfrwt>
<totfact> 0.11205343E+01</totfact>
</mgrwt>
</event>
<event>
 4    1  0.9064384E-005  0.4685136E+03  0.7818608E-02  0.1022341E+00
         -2   -1    0    0    0  501 -0.00000000000E+00  0.00000000000E+00  0.10022938768E+03  0.10022938771E+03  0.25500000000E-02 0. -1.
          2   -1    0    0  501    0  0.00000000000E+00 -0.00000000000E+00 -0.54750646558E+03  0.54750646559E+03  0.25500000000E-02 0.  1.
    5000001    1    1    2    0    0 -0.13769715980E+03  0.90921956412E+02 -0.19517284722E+03  0.30421168661E+03  0.16500000000E+03 0.  0.
   -5000001    1    1    2    0    0  0.13769715980E+03 -0.90921956412E+02 -0.25210423067E+03  0.34352416669E+03  0.16500000000E+03 0.  0.
<mgrwt>
<rscale>  0 0.46851356E+03</rscale>
<asrwt>0</asrwt>
<pdfrwt beam="1">  1        2 0.84231762E-01 0.46851356E+03</pdfrwt>
<pdfrwt beam="2">  1       -2 0.15419906E-01 0.46851356E+03</pdfrwt>
<totfact> 0.18447336E+03</totfact>
</mgrwt>
</event>
<event>
 4    1  0.9064384E-005  0.3996024E+03  0.7818608E-02  0.1043917E+00
          2   -1    0    0  501    0  0.00000000000E+00  0.00000000000E+00  0.77658622202E+03  0.77658622203E+03  0.25500000000E-02 0.  1.
         -2   -1    0    0    0  501 -0.00000000000E+00 -0.00000000000E+00 -0.51405132303E+02  0.51405132367E+02  0.25500000000E-02 0. -1.
    5000001    1    1    2    0    0 -0.33966982052E+01 -0.96891060280E+02  0.48154975515E+03  0.51818392661E+03  0.16500000000E+03 0.  0.
   -5000001    1    1    2    0    0  0.33966982052E+01  0.96891060280E+02  0.24363133457E+03  0.30980742778E+03  0.16500000000E+03 0.  0.
<mgrwt>
<rscale>  0 0.39960239E+03</rscale>
<asrwt>0</asrwt>
<pdfrwt beam="1">  1        2 0.11947480E+00 0.39960239E+03</pdfrwt>
<pdfrwt beam="2">  1       -2 0.79084819E-02 0.39960239E+03</pdfrwt>
<totfact> 0.35660198E+03</totfact>
</mgrwt>
</event>
<event>
 4    1  0.9064384E-005  0.5020066E+03  0.7818608E-02  0.1013256E+00
          2   -1    0    0  501    0  0.00000000000E+00  0.00000000000E+00  0.63075331821E+03  0.63075331821E+03  0.25500000000E-02 0.  1.
         -2   -1    0    0    0  501 -0.00000000000E+00 -0.00000000000E+00 -0.99884773158E+02  0.99884773190E+02  0.25500000000E-02 0. -1.
    5000001    1    1    2    0    0 -0.12901314513E+03 -0.45301292355E+02  0.75216880010E+02  0.22711049677E+03  0.16500000000E+03 0.  0.
   -5000001    1    1    2    0    0  0.12901314513E+03  0.45301292355E+02  0.45565166504E+03  0.50352759463E+03  0.16500000000E+03 0.  0.
<mgrwt>
<rscale>  0 0.50200658E+03</rscale>
<asrwt>0</asrwt>
<pdfrwt beam="1">  1        2 0.97038973E-01 0.50200658E+03</pdfrwt>
<pdfrwt beam="2">  1       -2 0.15366888E-01 0.50200658E+03</pdfrwt>
<totfact> 0.15695135E+03</totfact>
</mgrwt>
</event>
<event>
 4    1  0.9064384E-005  0.5316300E+03  0.7818608E-02  0.1005838E+00
         -2   -1    0    0    0  501 -0.00000000000E+00  0.00000000000E+00  0.40360744706E+02  0.40360744787E+02  0.25500000000E-02 0. -1.
          2   -1    0    0  501    0  0.00000000000E+00 -0.00000000000E+00 -0.17506521523E+04  0.17506521523E+04  0.25500000000E-02 0.  1.
    5000001    1    1    2    0    0  0.20834990565E+03  0.19468359976E+01 -0.84040261788E+03  0.88142783794E+03  0.16500000000E+03 0.  0.
   -5000001    1    1    2    0    0 -0.20834990565E+03 -0.19468359976E+01 -0.86988878968E+03  0.90958505912E+03  0.16500000000E+03 0.  0.
<mgrwt>
<rscale>  0 0.53163004E+03</rscale>
<asrwt>0</asrwt>
<pdfrwt beam="1">  1        2 0.26933104E+00 0.53163004E+03</pdfrwt>
<pdfrwt beam="2">  1       -2 0.62093467E-02 0.53163004E+03</pdfrwt>
<totfact> 0.13890946E+03</totfact>
</mgrwt>
</event>
<event>
 4    1  0.9064384E-005  0.6716388E+03  0.7818608E-02  0.9767002E-01
          2   -1    0    0  501    0  0.00000000000E+00  0.00000000000E+00  0.11054654506E+03  0.11054654509E+03  0.25500000000E-02 0.  1.
         -2   -1    0    0    0  501 -0.00000000000E+00 -0.00000000000E+00 -0.10201556777E+04  0.10201556777E+04  0.25500000000E-02 0. -1.
    5000001    1    1    2    0    0  0.22686995650E+03 -0.18294923243E+03 -0.41324956309E+03  0.53192161095E+03  0.16500000000E+03 0.  0.
   -5000001    1    1    2    0    0 -0.22686995650E+03  0.18294923243E+03 -0.49635956952E+03  0.59878061179E+03  0.16500000000E+03 0.  0.
<mgrwt>
<rscale>  0 0.67163885E+03</rscale>
<asrwt>0</asrwt>
<pdfrwt beam="1">  1        2 0.17007162E-01 0.67163885E+03</pdfrwt>
<pdfrwt beam="2">  1       -2 0.15694702E+00 0.67163885E+03</pdfrwt>
<totfact> 0.92826783E+01</totfact>
</mgrwt>
</event>
<event>
 4    1  0.9064384E-005  0.4551241E+03  0.7818608E-02  0.1026205E+00
         -2   -1    0    0    0  501 -0.00000000000E+00  0.00000000000E+00  0.27099111926E+03  0.27099111927E+03  0.25500000000E-02 0. -1.
          2   -1    0    0  501    0  0.00000000000E+00 -0.00000000000E+00 -0.19109292455E+03  0.19109292456E+03  0.25500000000E-02 0.  1.
    5000001    1    1    2    0    0  0.13491847936E+03 -0.77041495346E+02  0.60783566569E+02  0.23464447584E+03  0.16500000000E+03 0.  0.
   -5000001    1    1    2    0    0 -0.13491847936E+03  0.77041495346E+02  0.19114628143E+02  0.22743956799E+03  0.16500000000E+03 0.  0.
<mgrwt>
<rscale>  0 0.45512410E+03</rscale>
<asrwt>0</asrwt>
<pdfrwt beam="1">  1        2 0.29398911E-01 0.45512410E+03</pdfrwt>
<pdfrwt beam="2">  1       -2 0.41690941E-01 0.45512410E+03</pdfrwt>
<totfact> 0.99352369E+02</totfact>
</mgrwt>
</event>
<event>
 4    1  0.9064384E-005  0.3685122E+03  0.7818608E-02  0.1055263E+00
          2   -1    0    0  501    0  0.00000000000E+00  0.00000000000E+00  0.10822797079E+04  0.10822797079E+04  0.25500000000E-02 0.  1.
         -2   -1    0    0    0  501 -0.00000000000E+00 -0.00000000000E+00 -0.31369263867E+02  0.31369263970E+02  0.25500000000E-02 0. -1.
    5000001    1    1    2    0    0  0.10879527482E+02  0.80800700892E+02  0.55217918842E+03  0.58204293098E+03  0.16500000000E+03 0.  0.
   -5000001    1    1    2    0    0 -0.10879527482E+02 -0.80800700892E+02  0.49873125557E+03  0.53160604085E+03  0.16500000000E+03 0.  0.
<mgrwt>
<rscale>  0 0.36851224E+03</rscale>
<asrwt>0</asrwt>
<pdfrwt beam="1">  1        2 0.16650456E+00 0.36851224E+03</pdfrwt>
<pdfrwt beam="2">  1       -2 0.48260409E-02 0.36851224E+03</pdfrwt>
<totfact> 0.48579200E+03</totfact>
</mgrwt>
</event>
<event>
 4    1  0.9064384E-005  0.4633356E+03  0.7818608E-02  0.1023818E+00
          2   -1    0    0  501    0  0.00000000000E+00  0.00000000000E+00  0.25019942093E+03  0.25019942094E+03  0.25500000000E-02 0.  1.
         -2   -1    0    0    0  501 -0.00000000000E+00 -0.00000000000E+00 -0.21450881246E+03  0.21450881248E+03  0.25500000000E-02 0. -1.
    5000001    1    1    2    0    0  0.10560839472E+03  0.87101105834E+02 -0.70194258741E+02  0.22559248576E+03  0.16500000000E+03 0.  0.
   -5000001    1    1    2    0    0 -0.10560839472E+03 -0.87101105834E+02  0.10588486721E+03  0.23911574766E+03  0.16500000000E+03 0.  0.
<mgrwt>
<rscale>  0 0.46333565E+03</rscale>
<asrwt>0</asrwt>
<pdfrwt beam="1">  1        2 0.38492219E-01 0.46333565E+03</pdfrwt>
<pdfrwt beam="2">  1       -2 0.33001356E-01 0.46333565E+03</pdfrwt>
<totfact> 0.11507815E+03</totfact>
</mgrwt>
</event>
<event>
 4    1  0.9064384E-005  0.3494237E+03  0.7818608E-02  0.1062852E+00
          2   -1    0    0  501    0  0.00000000000E+00  0.00000000000E+00  0.22259595488E+04  0.22259595488E+04  0.25500000000E-02 0.  1.
         -2   -1    0    0    0  501 -0.00000000000E+00 -0.00000000000E+00 -0.13712839619E+02  0.13712839856E+02  0.25500000000E-02 0. -1.
    5000001    1    1    2    0    0 -0.25044110055E+02  0.37427198112E+02  0.13346533440E+04  0.13455677431E+04  0.16500000000E+03 0.  0.
   -5000001    1    1    2    0    0  0.25044110055E+02 -0.37427198112E+02  0.87759336513E+03  0.89410464551E+03  0.16500000000E+03 0.  0.
<mgrwt>
<rscale>  0 0.34942368E+03</rscale>
<asrwt>0</asrwt>
<pdfrwt beam="1">  1        2 0.34245522E+00 0.34942368E+03</pdfrwt>
<pdfrwt beam="2">  1       -2 0.21096682E-02 0.34942368E+03</pdfrwt>
<totfact> 0.40196776E+03</totfact>
</mgrwt>
</event>
<event>
 4    1  0.9064384E-005  0.4123680E+03  0.7818608E-02  0.1039579E+00
         -2   -1    0    0    0  501 -0.00000000000E+00  0.00000000000E+00  0.12893496093E+02  0.12893496345E+02  0.25500000000E-02 0. -1.
          2   -1    0    0  501    0  0.00000000000E+00 -0.00000000000E+00 -0.32971535372E+04  0.32971535372E+04  0.25500000000E-02 0.  1.
    5000001    1    1    2    0    0 -0.64137728771E+02  0.10457953502E+03 -0.15187372788E+04  0.15325920688E+04  0.16500000000E+03 0.  0.
   -5000001    1    1    2    0    0  0.64137728771E+02 -0.10457953502E+03 -0.17655227623E+04  0.17774549647E+04  0.16500000000E+03 0.  0.
<mgrwt>
<rscale>  0 0.41236797E+03</rscale>
<asrwt>0</asrwt>
<pdfrwt beam="1">  1        2 0.50725372E+00 0.41236797E+03</pdfrwt>
<pdfrwt beam="2">  1       -2 0.19836174E-02 0.41236797E+03</pdfrwt>
<totfact> 0.10489918E+03</totfact>
</mgrwt>
</event>
<event>
 4    1  0.9064384E-005  0.6612367E+03  0.7818608E-02  0.9785920E-01
          2   -1    0    0  501    0  0.00000000000E+00  0.00000000000E+00  0.42560026118E+03  0.42560026119E+03  0.25500000000E-02 0.  1.
         -2   -1    0    0    0  501 -0.00000000000E+00 -0.00000000000E+00 -0.25683372585E+03  0.25683372587E+03  0.25500000000E-02 0. -1.
    5000001    1    1    2    0    0  0.17314247994E+03 -0.21802900622E+03  0.15414096824E+03  0.35846813527E+03  0.16500000000E+03 0.  0.
   -5000001    1    1    2    0    0 -0.17314247994E+03  0.21802900622E+03  0.14625567087E+02  0.32396585179E+03  0.16500000000E+03 0.  0.
<mgrwt>
<rscale>  0 0.66123672E+03</rscale>
<asrwt>0</asrwt>
<pdfrwt beam="1">  1        2 0.65476963E-01 0.66123672E+03</pdfrwt>
<pdfrwt beam="2">  1       -2 0.39512881E-01 0.66123672E+03</pdfrwt>
<totfact> 0.45262058E+02</totfact>
</mgrwt>
</event>
<event>
 4    1  0.9064384E-005  0.5494046E+03  0.7818608E-02  0.1001632E+00
          2   -1    0    0  501    0  0.00000000000E+00  0.00000000000E+00  0.49623392524E+03  0.49623392525E+03  0.25500000000E-02 0.  1.
         -2   -1    0    0    0  501 -0.00000000000E+00 -0.00000000000E+00 -0.15206813150E+03  0.15206813152E+03  0.25500000000E-02 0. -1.
    5000001    1    1    2    0    0 -0.11551781284E+03 -0.16141560027E+03  0.28300998593E+03  0.38303917976E+03  0.16500000000E+03 0.  0.
   -5000001    1    1    2    0    0  0.11551781284E+03  0.16141560027E+03  0.61155807814E+02  0.26526287702E+03  0.16500000000E+03 0.  0.
<mgrwt>
<rscale>  0 0.54940464E+03</rscale>
<asrwt>0</asrwt>
<pdfrwt beam="1">  1        2 0.76343680E-01 0.54940464E+03</pdfrwt>
<pdfrwt beam="2">  1       -2 0.23395097E-01 0.54940464E+03</pdfrwt>
<totfact> 0.10064408E+03</totfact>
</mgrwt>
</event>
<event>
 4    1  0.9064384E-005  0.5519093E+03  0.7818608E-02  0.1001053E+00
          2   -1    0    0  501    0  0.00000000000E+00  0.00000000000E+00  0.86437301319E+03  0.86437301320E+03  0.25500000000E-02 0.  1.
         -2   -1    0    0    0  501 -0.00000000000E+00 -0.00000000000E+00 -0.88099675194E+02  0.88099675231E+02  0.25500000000E-02 0. -1.
    5000001    1    1    2    0    0 -0.16030230531E+03  0.72537524195E+02  0.15680870872E+03  0.28770209008E+03  0.16500000000E+03 0.  0.
   -5000001    1    1    2    0    0  0.16030230531E+03 -0.72537524195E+02  0.61946462928E+03  0.66477059835E+03  0.16500000000E+03 0.  0.
<mgrwt>
<rscale>  0 0.55190935E+03</rscale>
<asrwt>0</asrwt>
<pdfrwt beam="1">  1        2 0.13298047E+00 0.55190935E+03</pdfrwt>
<pdfrwt beam="2">  1       -2 0.13553796E-01 0.55190935E+03</pdfrwt>
<totfact> 0.12958325E+03</totfact>
</mgrwt>
</event>
<event>
 4    1  0.9064384E-005  0.1064662E+04  0.7818608E-02  0.9240336E-01
         -2   -1    0    0    0  501 -0.00000000000E+00  0.00000000000E+00  0.74460540619E+03  0.74460540619E+03  0.25500000000E-02 0. -1.
          2   -1    0    0  501    0  0.00000000000E+00 -0.00000000000E+00 -0.38057254774E+03  0.38057254775E+03  0.25500000000E-02 0.  1.
    5000001    1    1    2    0    0 -0.22717254007E+02  0.41792629991E+03 -0.11871531472E+03  0.46529215739E+03  0.16500000000E+03 0.  0.
   -5000001    1    1    2    0    0  0.22717254007E+02 -0.41792629991E+03  0.48274817317E+03  0.65988579655E+03  0.16500000000E+03 0.  0.
<mgrwt>
<rscale>  0 0.10646622E+04</rscale>
<asrwt>0</asrwt>
<pdfrwt beam="1">  1        2 0.58549623E-01 0.10646622E+04</pdfrwt>
<pdfrwt beam="2">  1       -2 0.11455468E+00 0.10646622E+04</pdfrwt>
<totfact> 0.49802267E+01</totfact>
</mgrwt>
</event>
<event>
 4    1  0.9064384E-005  0.3952365E+03  0.7818608E-02  0.1045442E+00
          2   -1    0    0  501    0  0.00000000000E+00  0.00000000000E+00  0.78801875413E+03  0.78801875414E+03  0.25500000000E-02 0.  1.
         -2   -1    0    0    0  501 -0.00000000000E+00 -0.00000000000E+00 -0.49558421648E+02  0.49558421713E+02  0.25500000000E-02 0. -1.
    5000001    1    1    2    0    0 -0.68282446282E+02 -0.83577343532E+02  0.39768570187E+03  0.44387676476E+03  0.16500000000E+03 0.  0.
   -5000001    1    1    2    0    0  0.68282446282E+02  0.83577343532E+02  0.34077463062E+03  0.39370041109E+03  0.16500000000E+03 0.  0.
<mgrwt>
<rscale>  0 0.39523646E+03</rscale>
<asrwt>0</asrwt>
<pdfrwt beam="1">  1        2 0.12123364E+00 0.39523646E+03</pdfrwt>
<pdfrwt beam="2">  1       -2 0.76243732E-02 0.39523646E+03</pdfrwt>
<totfact> 0.37069459E+03</totfact>
</mgrwt>
</event>
<event>
 4    1  0.9064384E-005  0.5958498E+03  0.7818608E-02  0.9914054E-01
         -2   -1    0    0    0  501 -0.00000000000E+00  0.00000000000E+00  0.56063623075E+03  0.56063623076E+03  0.25500000000E-02 0. -1.
          2   -1    0    0  501    0  0.00000000000E+00 -0.00000000000E+00 -0.15831878530E+03  0.15831878533E+03  0.25500000000E-02 0.  1.
    5000001    1    1    2    0    0  0.14350839926E+03  0.12714819695E+02 -0.42497468525E+02  0.22313081842E+03  0.16500000000E+03 0.  0.
   -5000001    1    1    2    0    0 -0.14350839926E+03 -0.12714819695E+02  0.44481491397E+03  0.49582419766E+03  0.16500000000E+03 0.  0.
<mgrwt>
<rscale>  0 0.59584980E+03</rscale>
<asrwt>0</asrwt>
<pdfrwt beam="1">  1        2 0.24356736E-01 0.59584980E+03</pdfrwt>
<pdfrwt beam="2">  1       -2 0.86251728E-01 0.59584980E+03</pdfrwt>
<totfact> 0.26616669E+02</totfact>
</mgrwt>
</event>
<event>
 4    1  0.9064384E-005  0.4818591E+03  0.7818608E-02  0.1018625E+00
          2   -1    0    0  501    0  0.00000000000E+00  0.00000000000E+00  0.10712500908E+04  0.10712500908E+04  0.25500000000E-02 0.  1.
         -2   -1    0    0    0  501 -0.00000000000E+00 -0.00000000000E+00 -0.54186274611E+02  0.54186274671E+02  0.25500000000E-02 0. -1.
    5000001    1    1    2    0    0  0.15074091708E+03 -0.34963669083E+02  0.70221561837E+03  0.73775135169E+03  0.16500000000E+03 0.  0.
   -5000001    1    1    2    0    0 -0.15074091708E+03  0.34963669083E+02  0.31484819779E+03  0.38768501376E+03  0.16500000000E+03 0.  0.
<mgrwt>
<rscale>  0 0.48185911E+03</rscale>
<asrwt>0</asrwt>
<pdfrwt beam="1">  1        2 0.16480769E+00 0.48185911E+03</pdfrwt>
<pdfrwt beam="2">  1       -2 0.83363510E-02 0.48185911E+03</pdfrwt>
<totfact> 0.21057959E+03</totfact>
</mgrwt>
</event>
<event>
 4    1  0.9064384E-005  0.4269823E+03  0.7818608E-02  0.1034818E+00
         -2   -1    0    0    0  501 -0.00000000000E+00  0.00000000000E+00  0.67879015505E+03  0.67879015505E+03  0.25500000000E-02 0. -1.
          2   -1    0    0  501    0  0.00000000000E+00 -0.00000000000E+00 -0.67146616122E+02  0.67146616171E+02  0.25500000000E-02 0.  1.
    5000001    1    1    2    0    0 -0.69736977170E+02 -0.11613989459E+03  0.30351673436E+03  0.37107833288E+03  0.16500000000E+03 0.  0.
   -5000001    1    1    2    0    0  0.69736977170E+02  0.11613989459E+03  0.30812680457E+03  0.37485843834E+03  0.16500000000E+03 0.  0.
<mgrwt>
<rscale>  0 0.42698226E+03</rscale>
<asrwt>0</asrwt>
<pdfrwt beam="1">  1        2 0.10330249E-01 0.42698226E+03</pdfrwt>
<pdfrwt beam="2">  1       -2 0.10442925E+00 0.42698226E+03</pdfrwt>
<totfact> 0.47908621E+02</totfact>
</mgrwt>
</event>
<event>
 4    1  0.9064384E-005  0.4866236E+03  0.7818608E-02  0.1017331E+00
          2   -1    0    0  501    0  0.00000000000E+00  0.00000000000E+00  0.13893139626E+04  0.13893139626E+04  0.25500000000E-02 0.  1.
         -2   -1    0    0    0  501 -0.00000000000E+00 -0.00000000000E+00 -0.42611411196E+02  0.42611411272E+02  0.25500000000E-02 0. -1.
    5000001    1    1    2    0    0 -0.35696449175E+02  0.16875145309E+03  0.53457100271E+03  0.58544209478E+03  0.16500000000E+03 0.  0.
   -5000001    1    1    2    0    0  0.35696449175E+02 -0.16875145309E+03  0.81213154874E+03  0.84648327914E+03  0.16500000000E+03 0.  0.
<mgrwt>
<rscale>  0 0.48662359E+03</rscale>
<asrwt>0</asrwt>
<pdfrwt beam="1">  1        2 0.21374058E+00 0.48662359E+03</pdfrwt>
<pdfrwt beam="2">  1       -2 0.65556028E-02 0.48662359E+03</pdfrwt>
<totfact> 0.20132682E+03</totfact>
</mgrwt>
</event>
<event>
 4    1  0.9064384E-005  0.5619857E+03  0.7818608E-02  0.9987572E-01
          2   -1    0    0  501    0  0.00000000000E+00  0.00000000000E+00  0.35869230269E+04  0.35869230269E+04  0.25500000000E-02 0.  1.
         -2   -1    0    0    0  501 -0.00000000000E+00 -0.00000000000E+00 -0.22012455748E+02  0.22012455895E+02  0.25500000000E-02 0. -1.
    5000001    1    1    2    0    0  0.11076166235E+03  0.14526091521E+03  0.91223959828E+03  0.94486769656E+03  0.16500000000E+03 0.  0.
   -5000001    1    1    2    0    0 -0.11076166235E+03 -0.14526091521E+03  0.26526709729E+04  0.26640677863E+04  0.16500000000E+03 0.  0.
<mgrwt>
<rscale>  0 0.56198571E+03</rscale>
<asrwt>0</asrwt>
<pdfrwt beam="1">  1        2 0.55183370E+00 0.56198571E+03</pdfrwt>
<pdfrwt beam="2">  1       -2 0.33865354E-02 0.56198571E+03</pdfrwt>
<totfact> 0.29446381E+02</totfact>
</mgrwt>
</event>
<event>
 4    1  0.9064384E-005  0.3735457E+03  0.7818608E-02  0.1053345E+00
          2   -1    0    0  501    0  0.00000000000E+00  0.00000000000E+00  0.95442957015E+03  0.95442957015E+03  0.25500000000E-02 0.  1.
         -2   -1    0    0    0  501 -0.00000000000E+00 -0.00000000000E+00 -0.36549672871E+02  0.36549672960E+02  0.25500000000E-02 0. -1.
    5000001    1    1    2    0    0  0.77608085562E+02  0.29213805646E+02  0.38472381112E+03  0.42674801959E+03  0.16500000000E+03 0.  0.
   -5000001    1    1    2    0    0 -0.77608085562E+02 -0.29213805646E+02  0.53315608616E+03  0.56423122352E+03  0.16500000000E+03 0.  0.
<mgrwt>
<rscale>  0 0.37354565E+03</rscale>
<asrwt>0</asrwt>
<pdfrwt beam="1">  1        2 0.14683532E+00 0.37354565E+03</pdfrwt>
<pdfrwt beam="2">  1       -2 0.56230267E-02 0.37354565E+03</pdfrwt>
<totfact> 0.46059890E+03</totfact>
</mgrwt>
</event>
<event>
 4    1  0.9064384E-005  0.4823656E+03  0.7818608E-02  0.1018487E+00
          2   -1    0    0  501    0  0.00000000000E+00  0.00000000000E+00  0.19851990834E+03  0.19851990836E+03  0.25500000000E-02 0.  1.
         -2   -1    0    0    0  501 -0.00000000000E+00 -0.00000000000E+00 -0.29301412938E+03  0.29301412939E+03  0.25500000000E-02 0. -1.
    5000001    1    1    2    0    0  0.10587143718E+03  0.43098629134E+02  0.89002527650E+02  0.21957391232E+03  0.16500000000E+03 0.  0.
   -5000001    1    1    2    0    0 -0.10587143718E+03 -0.43098629134E+02 -0.18349674869E+03  0.27196012543E+03  0.16500000000E+03 0.  0.
<mgrwt>
<rscale>  0 0.48236558E+03</rscale>
<asrwt>0</asrwt>
<pdfrwt beam="1">  1        2 0.30541524E-01 0.48236558E+03</pdfrwt>
<pdfrwt beam="2">  1       -2 0.45079097E-01 0.48236558E+03</pdfrwt>
<totfact> 0.81685072E+02</totfact>
</mgrwt>
</event>
<event>
 4    1  0.9064384E-005  0.4285960E+03  0.7818608E-02  0.1034304E+00
         -2   -1    0    0    0  501 -0.00000000000E+00  0.00000000000E+00  0.11519157368E+03  0.11519157371E+03  0.25500000000E-02 0. -1.
          2   -1    0    0  501    0  0.00000000000E+00 -0.00000000000E+00 -0.39867174095E+03  0.39867174096E+03  0.25500000000E-02 0.  1.
    5000001    1    1    2    0    0  0.12742720321E+03 -0.27035820958E+02 -0.19160812074E+03  0.28444208491E+03  0.16500000000E+03 0.  0.
   -5000001    1    1    2    0    0 -0.12742720321E+03  0.27035820958E+02 -0.91872046532E+02  0.22942122976E+03  0.16500000000E+03 0.  0.
<mgrwt>
<rscale>  0 0.42859596E+03</rscale>
<asrwt>0</asrwt>
<pdfrwt beam="1">  1        2 0.61334113E-01 0.42859596E+03</pdfrwt>
<pdfrwt beam="2">  1       -2 0.17721781E-01 0.42859596E+03</pdfrwt>
<totfact> 0.20855119E+03</totfact>
</mgrwt>
</event>
<event>
 4    1  0.9064384E-005  0.5135481E+03  0.7818608E-02  0.1010302E+00
          2   -1    0    0  501    0  0.00000000000E+00  0.00000000000E+00  0.13596356374E+04  0.13596356374E+04  0.25500000000E-02 0.  1.
         -2   -1    0    0    0  501 -0.00000000000E+00 -0.00000000000E+00 -0.48493079488E+02  0.48493079555E+02  0.25500000000E-02 0. -1.
    5000001    1    1    2    0    0  0.18063264664E+03 -0.49512734069E+02  0.82073327471E+03  0.85785067003E+03  0.16500000000E+03 0.  0.
   -5000001    1    1    2    0    0 -0.18063264664E+03  0.49512734069E+02  0.49040928316E+03  0.55027804688E+03  0.16500000000E+03 0.  0.
<mgrwt>
<rscale>  0 0.51354812E+03</rscale>
<asrwt>0</asrwt>
<pdfrwt beam="1">  1        2 0.20917473E+00 0.51354812E+03</pdfrwt>
<pdfrwt beam="2">  1       -2 0.74604733E-02 0.51354812E+03</pdfrwt>
<totfact> 0.17052593E+03</totfact>
</mgrwt>
</event>
<event>
 4    1  0.9064384E-005  0.3580823E+03  0.7818608E-02  0.1059346E+00
         -2   -1    0    0    0  501 -0.00000000000E+00  0.00000000000E+00  0.17073881599E+02  0.17073881790E+02  0.25500000000E-02 0. -1.
          2   -1    0    0  501    0  0.00000000000E+00 -0.00000000000E+00 -0.18774723581E+04  0.18774723581E+04  0.25500000000E-02 0.  1.
    5000001    1    1    2    0    0 -0.66123716501E+02 -0.19160099754E+02 -0.98074951041E+03  0.99691226168E+03  0.16500000000E+03 0.  0.
   -5000001    1    1    2    0    0  0.66123716501E+02  0.19160099754E+02 -0.87964896609E+03  0.89763397822E+03  0.16500000000E+03 0.  0.
<mgrwt>
<rscale>  0 0.35808234E+03</rscale>
<asrwt>0</asrwt>
<pdfrwt beam="1">  1        2 0.28884174E+00 0.35808234E+03</pdfrwt>
<pdfrwt beam="2">  1       -2 0.26267525E-02 0.35808234E+03</pdfrwt>
<totfact> 0.44469236E+03</totfact>
</mgrwt>
</event>
<event>
 4    1  0.9064384E-005  0.8188018E+03  0.7818608E-02  0.9533194E-01
          2   -1    0    0  501    0  0.00000000000E+00  0.00000000000E+00  0.42897219529E+03  0.42897219530E+03  0.25500000000E-02 0.  1.
         -2   -1    0    0    0  501 -0.00000000000E+00 -0.00000000000E+00 -0.39072247681E+03  0.39072247682E+03  0.25500000000E-02 0. -1.
    5000001    1    1    2    0    0  0.13043835026E+03 -0.34366600703E+03 -0.53504868512E+02  0.40645818796E+03  0.16500000000E+03 0.  0.
   -5000001    1    1    2    0    0 -0.13043835026E+03  0.34366600703E+03  0.91754586989E+02  0.41323648416E+03  0.16500000000E+03 0.  0.
<mgrwt>
<rscale>  0 0.81880176E+03</rscale>
<asrwt>0</asrwt>
<pdfrwt beam="1">  1        2 0.65995722E-01 0.81880176E+03</pdfrwt>
<pdfrwt beam="2">  1       -2 0.60111150E-01 0.81880176E+03</pdfrwt>
<totfact> 0.19083511E+02</totfact>
</mgrwt>
</event>
<event>
 4    1  0.9064384E-005  0.3758100E+03  0.7818608E-02  0.1052493E+00
          2   -1    0    0  501    0  0.00000000000E+00  0.00000000000E+00  0.12093118188E+03  0.12093118191E+03  0.25500000000E-02 0.  1.
         -2   -1    0    0    0  501 -0.00000000000E+00 -0.00000000000E+00 -0.29197003452E+03  0.29197003453E+03  0.25500000000E-02 0. -1.
    5000001    1    1    2    0    0 -0.31457888634E+02 -0.81387594802E+02 -0.61706784545E+02  0.19658653719E+03  0.16500000000E+03 0.  0.
   -5000001    1    1    2    0    0  0.31457888634E+02  0.81387594802E+02 -0.10933206810E+03  0.21631467925E+03  0.16500000000E+03 0.  0.
<mgrwt>
<rscale>  0 0.37580996E+03</rscale>
<asrwt>0</asrwt>
<pdfrwt beam="1">  1        2 0.18604797E-01 0.37580996E+03</pdfrwt>
<pdfrwt beam="2">  1       -2 0.44918467E-01 0.37580996E+03</pdfrwt>
<totfact> 0.14450394E+03</totfact>
</mgrwt>
</event>
<event>
 4    1  0.9064384E-005  0.5700120E+03  0.7818608E-02  0.9969652E-01
         -2   -1    0    0    0  501 -0.00000000000E+00  0.00000000000E+00  0.23833891641E+03  0.23833891643E+03  0.25500000000E-02 0. -1.
          2   -1    0    0  501    0  0.00000000000E+00 -0.00000000000E+00 -0.34081054898E+03  0.34081054898E+03  0.25500000000E-02 0.  1.
    5000001    1    1    2    0    0 -0.15070026323E+02 -0.13787932756E+03  0.13820848612E+03  0.25605546332E+03  0.16500000000E+03 0.  0.
   -5000001    1    1    2    0    0  0.15070026323E+02  0.13787932756E+03 -0.24068011868E+03  0.32309400209E+03  0.16500000000E+03 0.  0.
<mgrwt>
<rscale>  0 0.57001199E+03</rscale>
<asrwt>0</asrwt>
<pdfrwt beam="1">  1        2 0.52432392E-01 0.57001199E+03</pdfrwt>
<pdfrwt beam="2">  1       -2 0.36667525E-01 0.57001199E+03</pdfrwt>
<totfact> 0.67095969E+02</totfact>
</mgrwt>
</event>
<event>
 4    1  0.9064384E-005  0.4281553E+03  0.7818608E-02  0.1034444E+00
         -2   -1    0    0    0  501 -0.00000000000E+00  0.00000000000E+00  0.17706385201E+02  0.17706385385E+02  0.25500000000E-02 0. -1.
          2   -1    0    0  501    0  0.00000000000E+00 -0.00000000000E+00 -0.25882883163E+04  0.25882883163E+04  0.25500000000E-02 0.  1.
    5000001    1    1    2    0    0  0.67833525025E+02  0.11767768773E+03 -0.13610203743E+04  0.13776976753E+04  0.16500000000E+03 0.  0.
   -5000001    1    1    2    0    0 -0.67833525025E+02 -0.11767768773E+03 -0.12095615568E+04  0.12282970264E+04  0.16500000000E+03 0.  0.
<mgrwt>
<rscale>  0 0.42815525E+03</rscale>
<asrwt>0</asrwt>
<pdfrwt beam="1">  1        2 0.39819790E+00 0.42815525E+03</pdfrwt>
<pdfrwt beam="2">  1       -2 0.27240613E-02 0.42815525E+03</pdfrwt>
<totfact> 0.17264556E+03</totfact>
</mgrwt>
</event>
<event>
 4    1  0.9064384E-005  0.5385161E+03  0.7818608E-02  0.1004188E+00
         -2   -1    0    0    0  501 -0.00000000000E+00  0.00000000000E+00  0.18048719831E+03  0.18048719833E+03  0.25500000000E-02 0.  1.
          2   -1    0    0  501    0  0.00000000000E+00 -0.00000000000E+00 -0.40168991693E+03  0.40168991694E+03  0.25500000000E-02 0. -1.
    5000001    1    1    2    0    0  0.54392155442E+02  0.17078409434E+02 -0.33222129521E+03  0.37529477433E+03  0.16500000000E+03 0.  0.
   -5000001    1    1    2    0    0 -0.54392155442E+02 -0.17078409434E+02  0.11101857659E+03  0.20688234094E+03  0.16500000000E+03 0.  0.
<mgrwt>
<rscale>  0 0.53851606E+03</rscale>
<asrwt>0</asrwt>
<pdfrwt beam="1">  1        2 0.61798449E-01 0.53851606E+03</pdfrwt>
<pdfrwt beam="2">  1       -2 0.27767261E-01 0.53851606E+03</pdfrwt>
<totfact> 0.93916213E+02</totfact>
</mgrwt>
</event>
<event>
 4    1  0.9064384E-005  0.6427970E+03  0.7818608E-02  0.9820390E-01
         -2   -1    0    0    0  501 -0.00000000000E+00  0.00000000000E+00  0.37602124061E+03  0.37602124062E+03  0.25500000000E-02 0. -1.
          2   -1    0    0  501    0  0.00000000000E+00 -0.00000000000E+00 -0.27471051300E+03  0.27471051301E+03  0.25500000000E-02 0.  1.
    5000001    1    1    2    0    0 -0.18666820111E+03 -0.20053605157E+03  0.82864181075E+02  0.33038038348E+03  0.16500000000E+03 0.  0.
   -5000001    1    1    2    0    0  0.18666820111E+03  0.20053605157E+03  0.18446546535E+02  0.32035137016E+03  0.16500000000E+03 0.  0.
<mgrwt>
<rscale>  0 0.64279698E+03</rscale>
<asrwt>0</asrwt>
<pdfrwt beam="1">  1        2 0.42263156E-01 0.64279698E+03</pdfrwt>
<pdfrwt beam="2">  1       -2 0.57849422E-01 0.64279698E+03</pdfrwt>
<totfact> 0.34215400E+02</totfact>
</mgrwt>
</event>
<event>
 4    1  0.9064384E-005  0.3774360E+03  0.7818608E-02  0.1051886E+00
         -2   -1    0    0    0  501 -0.00000000000E+00  0.00000000000E+00  0.23076671326E+02  0.23076671467E+02  0.25500000000E-02 0. -1.
          2   -1    0    0  501    0  0.00000000000E+00 -0.00000000000E+00 -0.15433112501E+04  0.15433112501E+04  0.25500000000E-02 0.  1.
    5000001    1    1    2    0    0 -0.49370316590E+02  0.58701441042E+02 -0.96787817274E+03  0.98483320649E+03  0.16500000000E+03 0.  0.
   -5000001    1    1    2    0    0  0.49370316590E+02 -0.58701441042E+02 -0.55235640601E+03  0.58155471505E+03  0.16500000000E+03 0.  0.
<mgrwt>
<rscale>  0 0.37743602E+03</rscale>
<asrwt>0</asrwt>
<pdfrwt beam="1">  1        2 0.23743242E+00 0.37743602E+03</pdfrwt>
<pdfrwt beam="2">  1       -2 0.35502584E-02 0.37743602E+03</pdfrwt>
<totfact> 0.42627446E+03</totfact>
</mgrwt>
</event>
<event>
 4    1  0.9064384E-005  0.8528532E+03  0.7818608E-02  0.9486515E-01
          2   -1    0    0  501    0  0.00000000000E+00  0.00000000000E+00  0.21822874635E+04  0.21822874635E+04  0.25500000000E-02 0.  1.
         -2   -1    0    0    0  501 -0.00000000000E+00 -0.00000000000E+00 -0.83325255683E+02  0.83325255722E+02  0.25500000000E-02 0. -1.
    5000001    1    1    2    0    0  0.76923417664E+02  0.35538733526E+03  0.65191521479E+03  0.76448402045E+03  0.16500000000E+03 0.  0.
   -5000001    1    1    2    0    0 -0.76923417664E+02 -0.35538733526E+03  0.14470469930E+04  0.15011286988E+04  0.16500000000E+03 0.  0.
<mgrwt>
<rscale>  0 0.85285324E+03</rscale>
<asrwt>0</asrwt>
<pdfrwt beam="1">  1        2 0.33573651E+00 0.85285324E+03</pdfrwt>
<pdfrwt beam="2">  1       -2 0.12819271E-01 0.85285324E+03</pdfrwt>
<totfact> 0.24572062E+02</totfact>
</mgrwt>
</event>
<event>
 4    1  0.9064384E-005  0.4953860E+03  0.7818608E-02  0.1014990E+00
          2   -1    0    0  501    0  0.00000000000E+00  0.00000000000E+00  0.25338797523E+04  0.25338797523E+04  0.25500000000E-02 0.  1.
         -2   -1    0    0    0  501 -0.00000000000E+00 -0.00000000000E+00 -0.24212602583E+02  0.24212602717E+02  0.25500000000E-02 0. -1.
    5000001    1    1    2    0    0 -0.57309027946E+02  0.96339916275E+02  0.20130761022E+04  0.20229350206E+04  0.16500000000E+03 0.  0.
   -5000001    1    1    2    0    0  0.57309027946E+02 -0.96339916275E+02  0.49659104752E+03  0.53515733446E+03  0.16500000000E+03 0.  0.
<mgrwt>
<rscale>  0 0.49538601E+03</rscale>
<asrwt>0</asrwt>
<pdfrwt beam="1">  1        2 0.38982745E+00 0.49538601E+03</pdfrwt>
<pdfrwt beam="2">  1       -2 0.37250177E-02 0.49538601E+03</pdfrwt>
<totfact> 0.11467836E+03</totfact>
</mgrwt>
</event>
<event>
 4    1  0.9064384E-005  0.4185736E+03  0.7818608E-02  0.1037532E+00
         -2   -1    0    0    0  501 -0.00000000000E+00  0.00000000000E+00  0.65833094789E+02  0.65833094839E+02  0.25500000000E-02 0. -1.
          2   -1    0    0  501    0  0.00000000000E+00 -0.00000000000E+00 -0.66533352218E+03  0.66533352218E+03  0.25500000000E-02 0.  1.
    5000001    1    1    2    0    0  0.96632395257E+02  0.79201936928E+02 -0.24548109391E+03  0.32108680149E+03  0.16500000000E+03 0.  0.
   -5000001    1    1    2    0    0 -0.96632395257E+02 -0.79201936928E+02 -0.35401933348E+03  0.41007981553E+03  0.16500000000E+03 0.  0.
<mgrwt>
<rscale>  0 0.41857360E+03</rscale>
<asrwt>0</asrwt>
<pdfrwt beam="1">  1        2 0.10235900E+00 0.41857360E+03</pdfrwt>
<pdfrwt beam="2">  1       -2 0.10128169E-01 0.41857360E+03</pdfrwt>
<totfact> 0.29170005E+03</totfact>
</mgrwt>
</event>
<event>
 4    1  0.9064384E-005  0.7926559E+03  0.7818608E-02  0.9570709E-01
         -2   -1    0    0    0  501 -0.00000000000E+00  0.00000000000E+00  0.21424854825E+03  0.21424854826E+03  0.25500000000E-02 0. -1.
          2   -1    0    0  501    0  0.00000000000E+00 -0.00000000000E+00 -0.73314768923E+03  0.73314768923E+03  0.25500000000E-02 0.  1.
    5000001    1    1    2    0    0  0.17182197209E+03  0.15890028096E+03  0.68046026115E+02  0.29432524705E+03  0.16500000000E+03 0.  0.
   -5000001    1    1    2    0    0 -0.17182197209E+03 -0.15890028096E+03 -0.58694516710E+03  0.65307099044E+03  0.16500000000E+03 0.  0.
<mgrwt>
<rscale>  0 0.79265586E+03</rscale>
<asrwt>0</asrwt>
<pdfrwt beam="1">  1        2 0.11279195E+00 0.79265586E+03</pdfrwt>
<pdfrwt beam="2">  1       -2 0.32961315E-01 0.79265586E+03</pdfrwt>
<totfact> 0.33336308E+02</totfact>
</mgrwt>
</event>
<event>
 4    1  0.9064384E-005  0.3522210E+03  0.7818608E-02  0.1061707E+00
         -2   -1    0    0    0  501 -0.00000000000E+00  0.00000000000E+00  0.10400692848E+04  0.10400692848E+04  0.25500000000E-02 0. -1.
          2   -1    0    0  501    0  0.00000000000E+00 -0.00000000000E+00 -0.29820035928E+02  0.29820036037E+02  0.25500000000E-02 0.  1.
    5000001    1    1    2    0    0 -0.10257228681E+02 -0.45033066913E+02  0.38148786129E+03  0.41819992368E+03  0.16500000000E+03 0.  0.
   -5000001    1    1    2    0    0  0.10257228681E+02  0.45033066913E+02  0.62876138763E+03  0.65168939721E+03  0.16500000000E+03 0.  0.
<mgrwt>
<rscale>  0 0.35222097E+03</rscale>
<asrwt>0</asrwt>
<pdfrwt beam="1">  1        2 0.45876977E-02 0.35222097E+03</pdfrwt>
<pdfrwt beam="2">  1       -2 0.16001066E+00 0.35222097E+03</pdfrwt>
<totfact> 0.47381616E+02</totfact>
</mgrwt>
</event>
<event>
 4    1  0.9064384E-005  0.5528148E+03  0.7818608E-02  0.1000845E+00
         -2   -1    0    0    0  501 -0.00000000000E+00  0.00000000000E+00  0.33152158657E+03  0.33152158658E+03  0.25500000000E-02 0. -1.
          2   -1    0    0  501    0  0.00000000000E+00 -0.00000000000E+00 -0.23045572151E+03  0.23045572152E+03  0.25500000000E-02 0.  1.
    5000001    1    1    2    0    0  0.18499099255E+03  0.71245370082E+02 -0.50504921336E+02  0.26281803051E+03  0.16500000000E+03 0.  0.
   -5000001    1    1    2    0    0 -0.18499099255E+03 -0.71245370082E+02  0.15157078640E+03  0.29915927759E+03  0.16500000000E+03 0.  0.
<mgrwt>
<rscale>  0 0.55281478E+03</rscale>
<asrwt>0</asrwt>
<pdfrwt beam="1">  1        2 0.35454726E-01 0.55281478E+03</pdfrwt>
<pdfrwt beam="2">  1       -2 0.51003321E-01 0.55281478E+03</pdfrwt>
<totfact> 0.53986733E+02</totfact>
</mgrwt>
</event>
<event>
 4    1  0.9064384E-005  0.4487312E+03  0.7818608E-02  0.1028101E+00
          2   -1    0    0  501    0  0.00000000000E+00  0.00000000000E+00  0.11595120220E+04  0.11595120220E+04  0.25500000000E-02 0.  1.
         -2   -1    0    0    0  501 -0.00000000000E+00 -0.00000000000E+00 -0.43414755689E+02  0.43414755764E+02  0.25500000000E-02 0. -1.
    5000001    1    1    2    0    0  0.14924433973E+03  0.11894230742E+02  0.48714421485E+03  0.53567698450E+03  0.16500000000E+03 0.  0.
   -5000001    1    1    2    0    0 -0.14924433973E+03 -0.11894230742E+02  0.62895305148E+03  0.66724979328E+03  0.16500000000E+03 0.  0.
<mgrwt>
<rscale>  0 0.44873124E+03</rscale>
<asrwt>0</asrwt>
<pdfrwt beam="1">  1        2 0.17838644E+00 0.44873124E+03</pdfrwt>
<pdfrwt beam="2">  1       -2 0.66791943E-02 0.44873124E+03</pdfrwt>
<totfact> 0.26463072E+03</totfact>
</mgrwt>
</event>
<event>
 4    1  0.9064384E-005  0.6411680E+03  0.7818608E-02  0.9823494E-01
         -2   -1    0    0    0  501 -0.00000000000E+00  0.00000000000E+00  0.27333643570E+02  0.27333643689E+02  0.25500000000E-02 0. -1.
          2   -1    0    0  501    0  0.00000000000E+00 -0.00000000000E+00 -0.37599855319E+04  0.37599855319E+04  0.25500000000E-02 0.  1.
    5000001    1    1    2    0    0  0.14491074504E+03 -0.18241342343E+03 -0.27279109783E+04  0.27428082482E+04  0.16500000000E+03 0.  0.
   -5000001    1    1    2    0    0 -0.14491074504E+03  0.18241342343E+03 -0.10047409101E+04  0.10445109274E+04  0.16500000000E+03 0.  0.
<mgrwt>
<rscale>  0 0.64116801E+03</rscale>
<asrwt>0</asrwt>
<pdfrwt beam="1">  1        2 0.57845890E+00 0.64116801E+03</pdfrwt>
<pdfrwt beam="2">  1       -2 0.42051789E-02 0.64116801E+03</pdfrwt>
<totfact> 0.15733149E+02</totfact>
</mgrwt>
</event>
<event>
 4    1  0.9064384E-005  0.7833102E+03  0.7818608E-02  0.9584494E-01
         -2   -1    0    0    0  501 -0.00000000000E+00  0.00000000000E+00  0.14542292844E+04  0.14542292844E+04  0.25500000000E-02 0. -1.
          2   -1    0    0  501    0  0.00000000000E+00 -0.00000000000E+00 -0.10548111531E+03  0.10548111534E+03  0.25500000000E-02 0.  1.
    5000001    1    1    2    0    0  0.16159323002E+03  0.36905170516E+02  0.12999159017E+04  0.13207879145E+04  0.16500000000E+03 0.  0.
   -5000001    1    1    2    0    0 -0.16159323002E+03 -0.36905170516E+02  0.48832267339E+02  0.23892248519E+03  0.16500000000E+03 0.  0.
<mgrwt>
<rscale>  0 0.78331022E+03</rscale>
<asrwt>0</asrwt>
<pdfrwt beam="1">  1        2 0.16227865E-01 0.78331022E+03</pdfrwt>
<pdfrwt beam="2">  1       -2 0.22372756E+00 0.78331022E+03</pdfrwt>
<totfact> 0.34783860E+01</totfact>
</mgrwt>
</event>
<event>
 4    1  0.9064384E-005  0.3768166E+03  0.7818608E-02  0.1052117E+00
          2   -1    0    0  501    0  0.00000000000E+00  0.00000000000E+00  0.26503313098E+04  0.26503313098E+04  0.25500000000E-02 0.  1.
         -2   -1    0    0    0  501 -0.00000000000E+00 -0.00000000000E+00 -0.13393676276E+02  0.13393676518E+02  0.25500000000E-02 0. -1.
    5000001    1    1    2    0    0  0.89752662060E+02  0.13950040797E+02  0.13520268973E+04  0.13650831019E+04  0.16500000000E+03 0.  0.
   -5000001    1    1    2    0    0 -0.89752662060E+02 -0.13950040797E+02  0.12849107362E+04  0.12986418844E+04  0.16500000000E+03 0.  0.
<mgrwt>
<rscale>  0 0.37681656E+03</rscale>
<asrwt>0</asrwt>
<pdfrwt beam="1">  1        2 0.40774322E+00 0.37681656E+03</pdfrwt>
<pdfrwt beam="2">  1       -2 0.20605659E-02 0.37681656E+03</pdfrwt>
<totfact> 0.24276212E+03</totfact>
</mgrwt>
</event>
<event>
 4    1  0.9064384E-005  0.5576763E+03  0.7818608E-02  0.9997326E-01
          2   -1    0    0  501    0  0.00000000000E+00  0.00000000000E+00  0.47567385130E+03  0.47567385131E+03  0.25500000000E-02 0.  1.
         -2   -1    0    0    0  501 -0.00000000000E+00 -0.00000000000E+00 -0.16345383519E+03  0.16345383521E+03  0.25500000000E-02 0. -1.
    5000001    1    1    2    0    0  0.48592028987E+02  0.17091452995E+03 -0.16662296632E+01  0.24248863509E+03  0.16500000000E+03 0.  0.
   -5000001    1    1    2    0    0 -0.48592028987E+02 -0.17091452995E+03  0.31388624577E+03  0.39663905142E+03  0.16500000000E+03 0.  0.
<mgrwt>
<rscale>  0 0.55767631E+03</rscale>
<asrwt>0</asrwt>
<pdfrwt beam="1">  1        2 0.73180591E-01 0.55767631E+03</pdfrwt>
<pdfrwt beam="2">  1       -2 0.25146745E-01 0.55767631E+03</pdfrwt>
<totfact> 0.92850598E+02</totfact>
</mgrwt>
</event>
<event>
 4    1  0.9064384E-005  0.3680987E+03  0.7818608E-02  0.1055422E+00
         -2   -1    0    0    0  501 -0.00000000000E+00  0.00000000000E+00  0.12882867067E+03  0.12882867070E+03  0.25500000000E-02 0. -1.
          2   -1    0    0  501    0  0.00000000000E+00 -0.00000000000E+00 -0.26293969783E+03  0.26293969784E+03  0.25500000000E-02 0.  1.
    5000001    1    1    2    0    0 -0.63502708074E+02  0.30555587924E+02 -0.23394023425E+02  0.18093788497E+03  0.16500000000E+03 0.  0.
   -5000001    1    1    2    0    0  0.63502708074E+02 -0.30555587924E+02 -0.11071700373E+03  0.21083048357E+03  0.16500000000E+03 0.  0.
<mgrwt>
<rscale>  0 0.36809875E+03</rscale>
<asrwt>0</asrwt>
<pdfrwt beam="1">  1        2 0.40452261E-01 0.36809875E+03</pdfrwt>
<pdfrwt beam="2">  1       -2 0.19819796E-01 0.36809875E+03</pdfrwt>
<totfact> 0.27084351E+03</totfact>
</mgrwt>
</event>
<event>
 4    1  0.9064384E-005  0.4702080E+03  0.7818608E-02  0.1021862E+00
         -2   -1    0    0    0  501 -0.00000000000E+00  0.00000000000E+00  0.79705401222E+02  0.79705401263E+02  0.25500000000E-02 0. -1.
          2   -1    0    0  501    0  0.00000000000E+00 -0.00000000000E+00 -0.69347739347E+03  0.69347739348E+03  0.25500000000E-02 0.  1.
    5000001    1    1    2    0    0 -0.11417001498E+03 -0.97185265516E+02 -0.18417438237E+03  0.28917982515E+03  0.16500000000E+03 0.  0.
   -5000001    1    1    2    0    0  0.11417001498E+03  0.97185265516E+02 -0.42959760988E+03  0.48400296959E+03  0.16500000000E+03 0.  0.
<mgrwt>
<rscale>  0 0.47020801E+03</rscale>
<asrwt>0</asrwt>
<pdfrwt beam="1">  1        2 0.10668883E+00 0.47020801E+03</pdfrwt>
<pdfrwt beam="2">  1       -2 0.12262370E-01 0.47020801E+03</pdfrwt>
<totfact> 0.20334838E+03</totfact>
</mgrwt>
</event>
<event>
 4    1  0.9064384E-005  0.3753981E+03  0.7818608E-02  0.1052648E+00
         -2   -1    0    0    0  501 -0.00000000000E+00  0.00000000000E+00  0.27624269465E+02  0.27624269582E+02  0.25500000000E-02 0. -1.
          2   -1    0    0  501    0  0.00000000000E+00 -0.00000000000E+00 -0.12753613492E+04  0.12753613492E+04  0.25500000000E-02 0.  1.
    5000001    1    1    2    0    0  0.59168883199E+02  0.54316671516E+02 -0.48701171979E+03  0.52043892318E+03  0.16500000000E+03 0.  0.
   -5000001    1    1    2    0    0 -0.59168883199E+02 -0.54316671516E+02 -0.76072535992E+03  0.78254669559E+03  0.16500000000E+03 0.  0.
<mgrwt>
<rscale>  0 0.37539806E+03</rscale>
<asrwt>0</asrwt>
<pdfrwt beam="1">  1        2 0.19620939E+00 0.37539806E+03</pdfrwt>
<pdfrwt beam="2">  1       -2 0.42498886E-02 0.37539806E+03</pdfrwt>
<totfact> 0.45574941E+03</totfact>
</mgrwt>
</event>
<event>
 4    1  0.9064384E-005  0.9204905E+03  0.7818608E-02  0.9400324E-01
         -2   -1    0    0    0  501 -0.00000000000E+00  0.00000000000E+00  0.72558170309E+02  0.72558170354E+02  0.25500000000E-02 0. -1.
          2   -1    0    0  501    0  0.00000000000E+00 -0.00000000000E+00 -0.29193911531E+04  0.29193911531E+04  0.25500000000E-02 0.  1.
    5000001    1    1    2    0    0 -0.15260213540E+03 -0.31139370177E+03 -0.22479339672E+04  0.22805011665E+04  0.16500000000E+03 0.  0.
   -5000001    1    1    2    0    0  0.15260213540E+03  0.31139370177E+03 -0.59889901554E+03  0.71144815696E+03  0.16500000000E+03 0.  0.
<mgrwt>
<rscale>  0 0.92049048E+03</rscale>
<asrwt>0</asrwt>
<pdfrwt beam="1">  1        2 0.44913701E+00 0.92049048E+03</pdfrwt>
<pdfrwt beam="2">  1       -2 0.11162798E-01 0.92049048E+03</pdfrwt>
<totfact> 0.11570000E+02</totfact>
</mgrwt>
</event>
<event>
 4    1  0.9064384E-005  0.5058454E+03  0.7818608E-02  0.1012264E+00
          2   -1    0    0  501    0  0.00000000000E+00  0.00000000000E+00  0.16458544474E+04  0.16458544474E+04  0.25500000000E-02 0.  1.
         -2   -1    0    0    0  501 -0.00000000000E+00 -0.00000000000E+00 -0.38867279476E+02  0.38867279560E+02  0.25500000000E-02 0. -1.
    5000001    1    1    2    0    0  0.16621110539E+01  0.18165224853E+03  0.10072973094E+04  0.10367609038E+04  0.16500000000E+03 0.  0.
   -5000001    1    1    2    0    0 -0.16621110539E+01 -0.18165224853E+03  0.59968985851E+03  0.64796082321E+03  0.16500000000E+03 0.  0.
<mgrwt>
<rscale>  0 0.50584537E+03</rscale>
<asrwt>0</asrwt>
<pdfrwt beam="1">  1        2 0.25320838E+00 0.50584537E+03</pdfrwt>
<pdfrwt beam="2">  1       -2 0.59795814E-02 0.50584537E+03</pdfrwt>
<totfact> 0.16805622E+03</totfact>
</mgrwt>
</event>
<event>
 4    1  0.9064384E-005  0.4239788E+03  0.7818608E-02  0.1035779E+00
          2   -1    0    0  501    0  0.00000000000E+00  0.00000000000E+00  0.86590847333E+03  0.86590847334E+03  0.25500000000E-02 0.  1.
         -2   -1    0    0    0  501 -0.00000000000E+00 -0.00000000000E+00 -0.51898676610E+02  0.51898676673E+02  0.25500000000E-02 0. -1.
    5000001    1    1    2    0    0 -0.98366581609E+02 -0.88883527223E+02  0.38155294377E+03  0.43633005247E+03  0.16500000000E+03 0.  0.
   -5000001    1    1    2    0    0  0.98366581609E+02  0.88883527223E+02  0.43245685296E+03  0.48147709754E+03  0.16500000000E+03 0.  0.
<mgrwt>
<rscale>  0 0.42397879E+03</rscale>
<asrwt>0</asrwt>
<pdfrwt beam="1">  1        2 0.13321669E+00 0.42397879E+03</pdfrwt>
<pdfrwt beam="2">  1       -2 0.79844119E-02 0.42397879E+03</pdfrwt>
<totfact> 0.30476152E+03</totfact>
</mgrwt>
</event>
<event>
 4    1  0.9064384E-005  0.4476187E+03  0.7818608E-02  0.1028435E+00
          2   -1    0    0  501    0  0.00000000000E+00  0.00000000000E+00  0.26104602301E+03  0.26104602302E+03  0.25500000000E-02 0.  1.
         -2   -1    0    0    0  501 -0.00000000000E+00 -0.00000000000E+00 -0.19188426610E+03  0.19188426611E+03  0.25500000000E-02 0. -1.
    5000001    1    1    2    0    0  0.62097931904E+02 -0.65607411873E+02 -0.88122836406E+02  0.20772847647E+03  0.16500000000E+03 0.  0.
   -5000001    1    1    2    0    0 -0.62097931904E+02  0.65607411873E+02  0.15728459332E+03  0.24520181267E+03  0.16500000000E+03 0.  0.
<mgrwt>
<rscale>  0 0.44761870E+03</rscale>
<asrwt>0</asrwt>
<pdfrwt beam="1">  1        2 0.40160926E-01 0.44761870E+03</pdfrwt>
<pdfrwt beam="2">  1       -2 0.29520657E-01 0.44761870E+03</pdfrwt>
<totfact> 0.13496117E+03</totfact>
</mgrwt>
</event>
<event>
 4    1  0.9064384E-005  0.4786235E+03  0.7818608E-02  0.1019514E+00
          2   -1    0    0  501    0  0.00000000000E+00  0.00000000000E+00  0.37544137913E+03  0.37544137914E+03  0.25500000000E-02 0.  1.
         -2   -1    0    0    0  501 -0.00000000000E+00 -0.00000000000E+00 -0.15254075687E+03  0.15254075690E+03  0.25500000000E-02 0. -1.
    5000001    1    1    2    0    0  0.17197224822E+03  0.17482751014E+01  0.13530441869E+03  0.27406166521E+03  0.16500000000E+03 0.  0.
   -5000001    1    1    2    0    0 -0.17197224822E+03 -0.17482751014E+01  0.87596203560E+02  0.25392047082E+03  0.16500000000E+03 0.  0.
<mgrwt>
<rscale>  0 0.47862349E+03</rscale>
<asrwt>0</asrwt>
<pdfrwt beam="1">  1        2 0.57760211E-01 0.47862349E+03</pdfrwt>
<pdfrwt beam="2">  1       -2 0.23467809E-01 0.47862349E+03</pdfrwt>
<totfact> 0.13694491E+03</totfact>
</mgrwt>
</event>
<event>
 4    1  0.9064384E-005  0.6112706E+03  0.7818608E-02  0.9882295E-01
          2   -1    0    0  501    0  0.00000000000E+00  0.00000000000E+00  0.35111061499E+04  0.35111061499E+04  0.25500000000E-02 0.  1.
         -2   -1    0    0    0  501 -0.00000000000E+00 -0.00000000000E+00 -0.26604988352E+02  0.26604988475E+02  0.25500000000E-02 0. -1.
    5000001    1    1    2    0    0  0.16364042759E+03 -0.16916594699E+03  0.11410041290E+04  0.11766523401E+04  0.16500000000E+03 0.  0.
   -5000001    1    1    2    0    0 -0.16364042759E+03  0.16916594699E+03  0.23434970326E+04  0.23610587982E+04  0.16500000000E+03 0.  0.
<mgrwt>
<rscale>  0 0.61127061E+03</rscale>
<asrwt>0</asrwt>
<pdfrwt beam="1">  1        2 0.54017028E+00 0.61127061E+03</pdfrwt>
<pdfrwt beam="2">  1       -2 0.40930744E-02 0.61127061E+03</pdfrwt>
<totfact> 0.24657207E+02</totfact>
</mgrwt>
</event>
<event>
 4    1  0.9064384E-005  0.4087199E+03  0.7818608E-02  0.1040801E+00
          2   -1    0    0  501    0  0.00000000000E+00  0.00000000000E+00  0.48085529905E+03  0.48085529905E+03  0.25500000000E-02 0.  1.
         -2   -1    0    0    0  501 -0.00000000000E+00 -0.00000000000E+00 -0.86851475800E+02  0.86851475837E+02  0.25500000000E-02 0. -1.
    5000001    1    1    2    0    0 -0.37838990204E+02  0.10911475092E+03  0.14888248497E+03  0.25045720669E+03  0.16500000000E+03 0.  0.
   -5000001    1    1    2    0    0  0.37838990204E+02 -0.10911475092E+03  0.24512133827E+03  0.31724956821E+03  0.16500000000E+03 0.  0.
<mgrwt>
<rscale>  0 0.40871992E+03</rscale>
<asrwt>0</asrwt>
<pdfrwt beam="1">  1        2 0.73977738E-01 0.40871992E+03</pdfrwt>
<pdfrwt beam="2">  1       -2 0.13361765E-01 0.40871992E+03</pdfrwt>
<totfact> 0.27138337E+03</totfact>
</mgrwt>
</event>
<event>
 4    1  0.9064384E-005  0.1655019E+04  0.7818608E-02  0.8787443E-01
          2   -1    0    0  501    0  0.00000000000E+00  0.00000000000E+00  0.13522150488E+04  0.13522150488E+04  0.25500000000E-02 0.  1.
         -2   -1    0    0    0  501 -0.00000000000E+00 -0.00000000000E+00 -0.50640756423E+03  0.50640756424E+03  0.25500000000E-02 0. -1.
    5000001    1    1    2    0    0  0.44519650156E+03 -0.40308437570E+03  0.10347909808E+04  0.12077641793E+04  0.16500000000E+03 0.  0.
   -5000001    1    1    2    0    0 -0.44519650156E+03  0.40308437570E+03 -0.18898349621E+03  0.65085843374E+03  0.16500000000E+03 0.  0.
<mgrwt>
<rscale>  0 0.16550189E+04</rscale>
<asrwt>0</asrwt>
<pdfrwt beam="1">  1        2 0.20803308E+00 0.16550189E+04</pdfrwt>
<pdfrwt beam="2">  1       -2 0.77908857E-01 0.16550189E+04</pdfrwt>
<totfact> 0.21595997E+01</totfact>
</mgrwt>
</event>
<event>
 4    1  0.9064384E-005  0.3621621E+03  0.7818608E-02  0.1057731E+00
          2   -1    0    0  501    0  0.00000000000E+00  0.00000000000E+00  0.17529014686E+04  0.17529014686E+04  0.25500000000E-02 0.  1.
         -2   -1    0    0    0  501 -0.00000000000E+00 -0.00000000000E+00 -0.18706327222E+02  0.18706327396E+02  0.25500000000E-02 0. -1.
    5000001    1    1    2    0    0  0.62075062413E+02  0.39768707204E+02  0.92297612313E+03  0.94050241218E+03  0.16500000000E+03 0.  0.
   -5000001    1    1    2    0    0 -0.62075062413E+02 -0.39768707204E+02  0.81121901826E+03  0.83110538383E+03  0.16500000000E+03 0.  0.
<mgrwt>
<rscale>  0 0.36216211E+03</rscale>
<asrwt>0</asrwt>
<pdfrwt beam="1">  1        2 0.26967732E+00 0.36216211E+03</pdfrwt>
<pdfrwt beam="2">  1       -2 0.28778947E-02 0.36216211E+03</pdfrwt>
<totfact> 0.45166940E+03</totfact>
</mgrwt>
</event>
<event>
 4    1  0.9064384E-005  0.4529332E+03  0.7818608E-02  0.1026851E+00
         -2   -1    0    0    0  501 -0.00000000000E+00  0.00000000000E+00  0.19549753424E+02  0.19549753591E+02  0.25500000000E-02 0. -1.
          2   -1    0    0  501    0  0.00000000000E+00 -0.00000000000E+00 -0.26234146937E+04  0.26234146937E+04  0.25500000000E-02 0.  1.
    5000001    1    1    2    0    0  0.34624837577E+02  0.13075725388E+03 -0.85884860680E+03  0.88495325765E+03  0.16500000000E+03 0.  0.
   -5000001    1    1    2    0    0 -0.34624837577E+02 -0.13075725388E+03 -0.17450163335E+04  0.17580111897E+04  0.16500000000E+03 0.  0.
<mgrwt>
<rscale>  0 0.45293315E+03</rscale>
<asrwt>0</asrwt>
<pdfrwt beam="1">  1        2 0.40360198E+00 0.45293315E+03</pdfrwt>
<pdfrwt beam="2">  1       -2 0.30076565E-02 0.45293315E+03</pdfrwt>
<totfact> 0.14177136E+03</totfact>
</mgrwt>
</event>
<event>
 4    1  0.9064384E-005  0.3733773E+03  0.7818608E-02  0.1053409E+00
          2   -1    0    0  501    0  0.00000000000E+00  0.00000000000E+00  0.25622661755E+04  0.25622661755E+04  0.25500000000E-02 0. -1.
         -2   -1    0    0    0  501 -0.00000000000E+00 -0.00000000000E+00 -0.13602276397E+02  0.13602276636E+02  0.25500000000E-02 0.  1.
    5000001    1    1    2    0    0 -0.34626013123E+02 -0.65876990273E+02  0.95902315448E+03  0.97595550588E+03  0.16500000000E+03 0.  0.
   -5000001    1    1    2    0    0  0.34626013123E+02  0.65876990273E+02  0.15896407446E+04  0.15999129462E+04  0.16500000000E+03 0.  0.
<mgrwt>
<rscale>  0 0.37337731E+03</rscale>
<asrwt>0</asrwt>
<pdfrwt beam="1">  1        2 0.39419483E+00 0.37337731E+03</pdfrwt>
<pdfrwt beam="2">  1       -2 0.20926577E-02 0.37337731E+03</pdfrwt>
<totfact> 0.26594727E+03</totfact>
</mgrwt>
</event>
<event>
 4    1  0.9064384E-005  0.5743262E+03  0.7818608E-02  0.9960151E-01
          2   -1    0    0  501    0  0.00000000000E+00  0.00000000000E+00  0.17724370240E+03  0.17724370242E+03  0.25500000000E-02 0.  1.
         -2   -1    0    0    0  501 -0.00000000000E+00 -0.00000000000E+00 -0.46525004918E+03  0.46525004918E+03  0.25500000000E-02 0. -1.
    5000001    1    1    2    0    0 -0.14043502869E+03 -0.11060428246E+03  0.26692917257E+02  0.24473008890E+03  0.16500000000E+03 0.  0.
   -5000001    1    1    2    0    0  0.14043502869E+03  0.11060428246E+03 -0.31469926404E+03  0.39776366270E+03  0.16500000000E+03 0.  0.
<mgrwt>
<rscale>  0 0.57432618E+03</rscale>
<asrwt>0</asrwt>
<pdfrwt beam="1">  1        2 0.27268262E-01 0.57432618E+03</pdfrwt>
<pdfrwt beam="2">  1       -2 0.71576930E-01 0.57432618E+03</pdfrwt>
<totfact> 0.35481971E+02</totfact>
</mgrwt>
</event>
<event>
 4    1  0.9064384E-005  0.7916556E+03  0.7818608E-02  0.9572174E-01
          2   -1    0    0  501    0  0.00000000000E+00  0.00000000000E+00  0.15635756034E+04  0.15635756034E+04  0.25500000000E-02 0.  1.
         -2   -1    0    0    0  501 -0.00000000000E+00 -0.00000000000E+00 -0.10020599954E+03  0.10020599957E+03  0.25500000000E-02 0. -1.
    5000001    1    1    2    0    0 -0.80722646793E+02 -0.30292663618E+03  0.36061464382E+03  0.50551816382E+03  0.16500000000E+03 0.  0.
   -5000001    1    1    2    0    0  0.80722646793E+02  0.30292663618E+03  0.11027549601E+04  0.11582634392E+04  0.16500000000E+03 0.  0.
<mgrwt>
<rscale>  0 0.79165562E+03</rscale>
<asrwt>0</asrwt>
<pdfrwt beam="1">  1        2 0.24055009E+00 0.79165562E+03</pdfrwt>
<pdfrwt beam="2">  1       -2 0.15416308E-01 0.79165562E+03</pdfrwt>
<totfact> 0.39535195E+02</totfact>
</mgrwt>
</event>
<event>
 4    1  0.9064384E-005  0.4717931E+03  0.7818608E-02  0.1021415E+00
         -2   -1    0    0    0  501 -0.00000000000E+00  0.00000000000E+00  0.99686892163E+02  0.99686892196E+02  0.25500000000E-02 0.  1.
          2   -1    0    0  501    0  0.00000000000E+00 -0.00000000000E+00 -0.55821969408E+03  0.55821969408E+03  0.25500000000E-02 0. -1.
    5000001    1    1    2    0    0  0.13584120005E+03 -0.12390380249E+02 -0.36742445900E+03  0.42524356106E+03  0.16500000000E+03 0.  0.
   -5000001    1    1    2    0    0 -0.13584120005E+03  0.12390380249E+02 -0.91108342913E+02  0.23266302522E+03  0.16500000000E+03 0.  0.
<mgrwt>
<rscale>  0 0.47179312E+03</rscale>
<asrwt>0</asrwt>
<pdfrwt beam="1">  1        2 0.85879951E-01 0.47179312E+03</pdfrwt>
<pdfrwt beam="2">  1       -2 0.15336445E-01 0.47179312E+03</pdfrwt>
<totfact> 0.18201208E+03</totfact>
</mgrwt>
</event>
<event>
 4    1  0.9064384E-005  0.9239400E+03  0.7818608E-02  0.9396140E-01
          2   -1    0    0  501    0  0.00000000000E+00  0.00000000000E+00  0.29841306851E+04  0.29841306851E+04  0.25500000000E-02 0.  1.
         -2   -1    0    0    0  501 -0.00000000000E+00 -0.00000000000E+00 -0.71517070056E+02  0.71517070102E+02  0.25500000000E-02 0. -1.
    5000001    1    1    2    0    0 -0.12744307752E+03 -0.40321682185E+03  0.17401429569E+04  0.17983737247E+04  0.16500000000E+03 0.  0.
   -5000001    1    1    2    0    0  0.12744307752E+03  0.40321682185E+03  0.11724706581E+04  0.12572740304E+04  0.16500000000E+03 0.  0.
<mgrwt>
<rscale>  0 0.92394001E+03</rscale>
<asrwt>0</asrwt>
<pdfrwt beam="1">  1        2 0.45909707E+00 0.92394001E+03</pdfrwt>
<pdfrwt beam="2">  1       -2 0.11002625E-01 0.92394001E+03</pdfrwt>
<totfact> 0.10815270E+02</totfact>
</mgrwt>
</event>
<event>
 4    1  0.9064384E-005  0.4156622E+03  0.7818608E-02  0.1038487E+00
          2   -1    0    0  501    0  0.00000000000E+00  0.00000000000E+00  0.16180179227E+03  0.16180179229E+03  0.25500000000E-02 0.  1.
         -2   -1    0    0    0  501 -0.00000000000E+00 -0.00000000000E+00 -0.26695483109E+03  0.26695483111E+03  0.25500000000E-02 0. -1.
    5000001    1    1    2    0    0 -0.11393486135E+03 -0.54273062103E+02 -0.59265575157E+02  0.21601881006E+03  0.16500000000E+03 0.  0.
   -5000001    1    1    2    0    0  0.11393486135E+03  0.54273062103E+02 -0.45887463667E+02  0.21273781334E+03  0.16500000000E+03 0.  0.
<mgrwt>
<rscale>  0 0.41566222E+03</rscale>
<asrwt>0</asrwt>
<pdfrwt beam="1">  1        2 0.24892583E-01 0.41566222E+03</pdfrwt>
<pdfrwt beam="2">  1       -2 0.41069974E-01 0.41566222E+03</pdfrwt>
<totfact> 0.12329530E+03</totfact>
</mgrwt>
</event>
<event>
 4    1  0.9064384E-005  0.4682123E+03  0.7818608E-02  0.1022426E+00
          2   -1    0    0  501    0  0.00000000000E+00  0.00000000000E+00  0.23793715599E+04  0.23793715599E+04  0.25500000000E-02 0.  1.
         -2   -1    0    0    0  501 -0.00000000000E+00 -0.00000000000E+00 -0.23033683244E+02  0.23033683385E+02  0.25500000000E-02 0. -1.
    5000001    1    1    2    0    0  0.12688613084E+03 -0.65878602259E+02  0.16117508108E+04  0.16264703368E+04  0.16500000000E+03 0.  0.
   -5000001    1    1    2    0    0 -0.12688613084E+03  0.65878602259E+02  0.74458706583E+03  0.77593490645E+03  0.16500000000E+03 0.  0.
<mgrwt>
<rscale>  0 0.46821231E+03</rscale>
<asrwt>0</asrwt>
<pdfrwt beam="1">  1        2 0.36605711E+00 0.46821231E+03</pdfrwt>
<pdfrwt beam="2">  1       -2 0.35436441E-02 0.46821231E+03</pdfrwt>
<totfact> 0.15115492E+03</totfact>
</mgrwt>
</event>
<event>
 4    1  0.9064384E-005  0.1223058E+04  0.7818608E-02  0.9092910E-01
          2   -1    0    0  501    0  0.00000000000E+00  0.00000000000E+00  0.10668902265E+04  0.10668902265E+04  0.25500000000E-02 0.  1.
         -2   -1    0    0    0  501 -0.00000000000E+00 -0.00000000000E+00 -0.35052143043E+03  0.35052143044E+03  0.25500000000E-02 0. -1.
    5000001    1    1    2    0    0 -0.50920752586E+03  0.25749896170E+03  0.52670435684E+03  0.79387687911E+03  0.16500000000E+03 0.  0.
   -5000001    1    1    2    0    0  0.50920752586E+03 -0.25749896170E+03  0.18966443925E+03  0.62353477785E+03  0.16500000000E+03 0.  0.
<mgrwt>
<rscale>  0 0.12230583E+04</rscale>
<asrwt>0</asrwt>
<pdfrwt beam="1">  1        2 0.16413696E+00 0.12230583E+04</pdfrwt>
<pdfrwt beam="2">  1       -2 0.53926374E-01 0.12230583E+04</pdfrwt>
<totfact> 0.72893417E+01</totfact>
</mgrwt>
</event>
<event>
 4    1  0.9064384E-005  0.4006960E+03  0.7818608E-02  0.1043539E+00
         -2   -1    0    0    0  501 -0.00000000000E+00  0.00000000000E+00  0.35930913414E+02  0.35930913504E+02  0.25500000000E-02 0. -1.
          2   -1    0    0  501    0  0.00000000000E+00 -0.00000000000E+00 -0.11171250398E+04  0.11171250398E+04  0.25500000000E-02 0.  1.
    5000001    1    1    2    0    0 -0.57479900361E+02  0.79548343376E+02 -0.37572992099E+03  0.42193583802E+03  0.16500000000E+03 0.  0.
   -5000001    1    1    2    0    0  0.57479900361E+02 -0.79548343376E+02 -0.70546420538E+03  0.73112011527E+03  0.16500000000E+03 0.  0.
<mgrwt>
<rscale>  0 0.40069601E+03</rscale>
<asrwt>0</asrwt>
<pdfrwt beam="1">  1        2 0.17186536E+00 0.40069601E+03</pdfrwt>
<pdfrwt beam="2">  1       -2 0.55278337E-02 0.40069601E+03</pdfrwt>
<totfact> 0.37613568E+03</totfact>
</mgrwt>
</event>
<event>
 4    1  0.9064384E-005  0.3607018E+03  0.7818608E-02  0.1058306E+00
          2   -1    0    0  501    0  0.00000000000E+00  0.00000000000E+00  0.29185545811E+02  0.29185545923E+02  0.25500000000E-02 0.  1.
         -2   -1    0    0    0  501 -0.00000000000E+00 -0.00000000000E+00 -0.11144710781E+04  0.11144710781E+04  0.25500000000E-02 0. -1.
    5000001    1    1    2    0    0 -0.31762916296E+02 -0.22736477518E+01 -0.75025075581E+03  0.76884019725E+03  0.16500000000E+03 0.  0.
   -5000001    1    1    2    0    0  0.31762916296E+02  0.22736477518E+01 -0.33503477649E+03  0.37481642678E+03  0.16500000000E+03 0.  0.
<mgrwt>
<rscale>  0 0.36070180E+03</rscale>
<asrwt>0</asrwt>
<pdfrwt beam="1">  1        2 0.44900848E-02 0.36070180E+03</pdfrwt>
<pdfrwt beam="2">  1       -2 0.17145706E+00 0.36070180E+03</pdfrwt>
<totfact> 0.40481070E+02</totfact>
</mgrwt>
</event>
<event>
 4    1  0.9064384E-005  0.5959868E+03  0.7818608E-02  0.9913767E-01
          2   -1    0    0  501    0  0.00000000000E+00  0.00000000000E+00  0.12777722935E+04  0.12777722936E+04  0.25500000000E-02 0.  1.
         -2   -1    0    0    0  501 -0.00000000000E+00 -0.00000000000E+00 -0.69495996464E+02  0.69495996511E+02  0.25500000000E-02 0. -1.
    5000001    1    1    2    0    0  0.16226966310E+03 -0.13094835698E+03  0.90823398661E+03  0.94635769675E+03  0.16500000000E+03 0.  0.
   -5000001    1    1    2    0    0 -0.16226966310E+03  0.13094835698E+03  0.30004231048E+03  0.40091059332E+03  0.16500000000E+03 0.  0.
<mgrwt>
<rscale>  0 0.59598677E+03</rscale>
<asrwt>0</asrwt>
<pdfrwt beam="1">  1        2 0.19658036E+00 0.59598677E+03</pdfrwt>
<pdfrwt beam="2">  1       -2 0.10691692E-01 0.59598677E+03</pdfrwt>
<totfact> 0.10624000E+03</totfact>
</mgrwt>
</event>
<event>
 4    1  0.9064384E-005  0.4249269E+03  0.7818608E-02  0.1035475E+00
          2   -1    0    0  501    0  0.00000000000E+00  0.00000000000E+00  0.78796849470E+03  0.78796849470E+03  0.25500000000E-02 0.  1.
         -2   -1    0    0    0  501 -0.00000000000E+00 -0.00000000000E+00 -0.57287459909E+02  0.57287459966E+02  0.25500000000E-02 0. -1.
    5000001    1    1    2    0    0  0.64902001818E+02  0.93752997337E+02  0.22590172244E+03  0.30209018943E+03  0.16500000000E+03 0.  0.
   -5000001    1    1    2    0    0 -0.64902001818E+02 -0.93752997337E+02  0.50477931235E+03  0.54316576524E+03  0.16500000000E+03 0.  0.
<mgrwt>
<rscale>  0 0.42492688E+03</rscale>
<asrwt>0</asrwt>
<pdfrwt beam="1">  1        2 0.12122592E+00 0.42492688E+03</pdfrwt>
<pdfrwt beam="2">  1       -2 0.88134558E-02 0.42492688E+03</pdfrwt>
<totfact> 0.29494993E+03</totfact>
</mgrwt>
</event>
<event>
 4    1  0.9064384E-005  0.6793793E+03  0.7818608E-02  0.9753161E-01
         -2   -1    0    0    0  501 -0.00000000000E+00  0.00000000000E+00  0.15800463158E+03  0.15800463160E+03  0.25500000000E-02 0. -1.
          2   -1    0    0  501    0  0.00000000000E+00 -0.00000000000E+00 -0.73028898503E+03  0.73028898504E+03  0.25500000000E-02 0.  1.
    5000001    1    1    2    0    0  0.32754918821E+02 -0.17057931332E+03 -0.60101505319E+03  0.64700408113E+03  0.16500000000E+03 0.  0.
   -5000001    1    1    2    0    0 -0.32754918821E+02  0.17057931332E+03  0.28730699729E+02  0.24128953551E+03  0.16500000000E+03 0.  0.
<mgrwt>
<rscale>  0 0.67937925E+03</rscale>
<asrwt>0</asrwt>
<pdfrwt beam="1">  1        2 0.11235215E+00 0.67937925E+03</pdfrwt>
<pdfrwt beam="2">  1       -2 0.24308405E-01 0.67937925E+03</pdfrwt>
<totfact> 0.58873324E+02</totfact>
</mgrwt>
</event>
<event>
 4    1  0.9064384E-005  0.5802898E+03  0.7818608E-02  0.9947164E-01
         -2   -1    0    0    0  501 -0.00000000000E+00  0.00000000000E+00  0.10087099720E+03  0.10087099723E+03  0.25500000000E-02 0. -1.
          2   -1    0    0  501    0  0.00000000000E+00 -0.00000000000E+00 -0.83457140081E+03  0.83457140081E+03  0.25500000000E-02 0.  1.
    5000001    1    1    2    0    0 -0.19976948487E+03  0.16759591570E+02 -0.57560804579E+03  0.63145732506E+03  0.16500000000E+03 0.  0.
   -5000001    1    1    2    0    0  0.19976948487E+03 -0.16759591570E+02 -0.15809235782E+03  0.30398507298E+03  0.16500000000E+03 0.  0.
<mgrwt>
<rscale>  0 0.58028975E+03</rscale>
<asrwt>0</asrwt>
<pdfrwt beam="1">  1        2 0.12839560E+00 0.58028975E+03</pdfrwt>
<pdfrwt beam="2">  1       -2 0.15518616E-01 0.58028975E+03</pdfrwt>
<totfact> 0.10820794E+03</totfact>
</mgrwt>
</event>
<event>
 4    1  0.9064384E-005  0.4862059E+03  0.7818608E-02  0.1017443E+00
          2   -1    0    0  501    0  0.00000000000E+00  0.00000000000E+00  0.37857787949E+03  0.37857787950E+03  0.25500000000E-02 0.  1.
         -2   -1    0    0    0  501 -0.00000000000E+00 -0.00000000000E+00 -0.15610804247E+03  0.15610804249E+03  0.25500000000E-02 0. -1.
    5000001    1    1    2    0    0  0.14625238529E+03  0.96460119003E+02  0.73462822379E+02  0.25162690840E+03  0.16500000000E+03 0.  0.
   -5000001    1    1    2    0    0 -0.14625238529E+03 -0.96460119003E+02  0.14900701465E+03  0.28305901359E+03  0.16500000000E+03 0.  0.
<mgrwt>
<rscale>  0 0.48620593E+03</rscale>
<asrwt>0</asrwt>
<pdfrwt beam="1">  1        2 0.58242750E-01 0.48620593E+03</pdfrwt>
<pdfrwt beam="2">  1       -2 0.24016622E-01 0.48620593E+03</pdfrwt>
<totfact> 0.13024373E+03</totfact>
</mgrwt>
</event>
<event>
 4    1  0.9064384E-005  0.4892696E+03  0.7818608E-02  0.1016618E+00
          2   -1    0    0  501    0  0.00000000000E+00  0.00000000000E+00  0.21020914768E+03  0.21020914770E+03  0.25500000000E-02 0.  1.
         -2   -1    0    0    0  501 -0.00000000000E+00 -0.00000000000E+00 -0.28469824927E+03  0.28469824928E+03  0.25500000000E-02 0. -1.
    5000001    1    1    2    0    0  0.12924707982E+03 -0.12429856216E+03 -0.15403239441E+02  0.24416633671E+03  0.16500000000E+03 0.  0.
   -5000001    1    1    2    0    0 -0.12924707982E+03  0.12429856216E+03 -0.59085862150E+02  0.25074106027E+03  0.16500000000E+03 0.  0.
<mgrwt>
<rscale>  0 0.48926956E+03</rscale>
<asrwt>0</asrwt>
<pdfrwt beam="1">  1        2 0.32339869E-01 0.48926956E+03</pdfrwt>
<pdfrwt beam="2">  1       -2 0.43799731E-01 0.48926956E+03</pdfrwt>
<totfact> 0.81119132E+02</totfact>
</mgrwt>
</event>
<event>
 4    1  0.9064384E-005  0.9912274E+03  0.7818608E-02  0.9318219E-01
          2   -1    0    0  501    0  0.00000000000E+00  0.00000000000E+00  0.20793648781E+04  0.20793648781E+04  0.25500000000E-02 0. -1.
         -2   -1    0    0    0  501 -0.00000000000E+00 -0.00000000000E+00 -0.11812883310E+03  0.11812883313E+03  0.25500000000E-02 0.  1.
    5000001    1    1    2    0    0  0.18601365125E+03  0.42460645502E+03  0.84915828440E+03  0.98142066010E+03  0.16500000000E+03 0.  0.
   -5000001    1    1    2    0    0 -0.18601365125E+03 -0.42460645502E+03  0.11120777606E+04  0.12160730511E+04  0.16500000000E+03 0.  0.
<mgrwt>
<rscale>  0 0.99122741E+03</rscale>
<asrwt>0</asrwt>
<pdfrwt beam="1">  1        2 0.31990228E+00 0.99122741E+03</pdfrwt>
<pdfrwt beam="2">  1       -2 0.18173667E-01 0.99122741E+03</pdfrwt>
<totfact> 0.15305920E+02</totfact>
</mgrwt>
</event>
<event>
 4    1  0.9064384E-005  0.4507340E+03  0.7818608E-02  0.1027503E+00
         -2   -1    0    0    0  501 -0.00000000000E+00  0.00000000000E+00  0.21358523205E+03  0.21358523207E+03  0.25500000000E-02 0. -1.
          2   -1    0    0  501    0  0.00000000000E+00 -0.00000000000E+00 -0.23779865639E+03  0.23779865640E+03  0.25500000000E-02 0.  1.
    5000001    1    1    2    0    0  0.69602344532E+00  0.68609017435E+02  0.12541426606E+03  0.21831495563E+03  0.16500000000E+03 0.  0.
   -5000001    1    1    2    0    0 -0.69602344532E+00 -0.68609017435E+02 -0.14962769039E+03  0.23306893284E+03  0.16500000000E+03 0.  0.
<mgrwt>
<rscale>  0 0.45073398E+03</rscale>
<asrwt>0</asrwt>
<pdfrwt beam="1">  1        2 0.36584409E-01 0.45073398E+03</pdfrwt>
<pdfrwt beam="2">  1       -2 0.32859266E-01 0.45073398E+03</pdfrwt>
<totfact> 0.12267248E+03</totfact>
</mgrwt>
</event>
<event>
 4    1  0.9064384E-005  0.4225655E+03  0.7818608E-02  0.1036235E+00
         -2   -1    0    0    0  501 -0.00000000000E+00  0.00000000000E+00  0.42469841103E+02  0.42469841180E+02  0.25500000000E-02 0. -1.
          2   -1    0    0  501    0  0.00000000000E+00 -0.00000000000E+00 -0.10511082727E+04  0.10511082727E+04  0.25500000000E-02 0.  1.
    5000001    1    1    2    0    0  0.32076555813E+02  0.10931978493E+03 -0.67667898352E+03  0.70576140979E+03  0.16500000000E+03 0.  0.
   -5000001    1    1    2    0    0 -0.32076555813E+02 -0.10931978493E+03 -0.33195944810E+03  0.38781670411E+03  0.16500000000E+03 0.  0.
<mgrwt>
<rscale>  0 0.42256550E+03</rscale>
<asrwt>0</asrwt>
<pdfrwt beam="1">  1        2 0.16170895E+00 0.42256550E+03</pdfrwt>
<pdfrwt beam="2">  1       -2 0.65338225E-02 0.42256550E+03</pdfrwt>
<totfact> 0.31801476E+03</totfact>
</mgrwt>
</event>
<event>
 4    1  0.9064384E-005  0.1042104E+04  0.7818608E-02  0.9263534E-01
          2   -1    0    0  501    0  0.00000000000E+00  0.00000000000E+00  0.23176378117E+04  0.23176378117E+04  0.25500000000E-02 0.  1.
         -2   -1    0    0    0  501 -0.00000000000E+00 -0.00000000000E+00 -0.11714309072E+03  0.11714309074E+03  0.25500000000E-02 0. -1.
    5000001    1    1    2    0    0 -0.46039714399E+03 -0.14154667676E+03  0.13590436431E+04  0.14512841265E+04  0.16500000000E+03 0.  0.
   -5000001    1    1    2    0    0  0.46039714399E+03  0.14154667676E+03  0.84145107793E+03  0.98349677603E+03  0.16500000000E+03 0.  0.
<mgrwt>
<rscale>  0 0.10421041E+04</rscale>
<asrwt>0</asrwt>
<pdfrwt beam="1">  1        2 0.35655966E+00 0.10421041E+04</pdfrwt>
<pdfrwt beam="2">  1       -2 0.18022014E-01 0.10421041E+04</pdfrwt>
<totfact> 0.11398530E+02</totfact>
</mgrwt>
</event>
<event>
 4    1  0.9064384E-005  0.3511817E+03  0.7818608E-02  0.1062131E+00
         -2   -1    0    0    0  501 -0.00000000000E+00  0.00000000000E+00  0.25318416833E+02  0.25318416962E+02  0.25500000000E-02 0. -1.
          2   -1    0    0  501    0  0.00000000000E+00 -0.00000000000E+00 -0.12177755076E+04  0.12177755076E+04  0.25500000000E-02 0.  1.
    5000001    1    1    2    0    0 -0.24572857290E+02 -0.46385536443E+02 -0.69953241150E+03  0.72064279504E+03  0.16500000000E+03 0.  0.
   -5000001    1    1    2    0    0  0.24572857290E+02  0.46385536443E+02 -0.49292467922E+03  0.52245112948E+03  0.16500000000E+03 0.  0.
<mgrwt>
<rscale>  0 0.35118171E+03</rscale>
<asrwt>0</asrwt>
<pdfrwt beam="1">  1        2 0.18735003E+00 0.35118171E+03</pdfrwt>
<pdfrwt beam="2">  1       -2 0.38951420E-02 0.35118171E+03</pdfrwt>
<totfact> 0.56059461E+03</totfact>
</mgrwt>
</event>
<event>
 4    1  0.9064384E-005  0.4452838E+03  0.7818608E-02  0.1029138E+00
         -2   -1    0    0    0  501 -0.00000000000E+00  0.00000000000E+00  0.68865608134E+02  0.68865608181E+02  0.25500000000E-02 0. -1.
          2   -1    0    0  501    0  0.00000000000E+00 -0.00000000000E+00 -0.71979939524E+03  0.71979939525E+03  0.25500000000E-02 0.  1.
    5000001    1    1    2    0    0 -0.13328569368E+03 -0.30650342245E+02 -0.21861048438E+03  0.30613732784E+03  0.16500000000E+03 0.  0.
   -5000001    1    1    2    0    0  0.13328569368E+03  0.30650342245E+02 -0.43232330273E+03  0.48252767558E+03  0.16500000000E+03 0.  0.
<mgrwt>
<rscale>  0 0.44528383E+03</rscale>
<asrwt>0</asrwt>
<pdfrwt beam="1">  1        2 0.11073836E+00 0.44528383E+03</pdfrwt>
<pdfrwt beam="2">  1       -2 0.10594709E-01 0.44528383E+03</pdfrwt>
<totfact> 0.24628995E+03</totfact>
</mgrwt>
</event>
<event>
 4    1  0.9064384E-005  0.4093417E+03  0.7818608E-02  0.1040592E+00
          2   -1    0    0  501    0  0.00000000000E+00  0.00000000000E+00  0.76366985579E+03  0.76366985580E+03  0.25500000000E-02 0.  1.
         -2   -1    0    0    0  501 -0.00000000000E+00 -0.00000000000E+00 -0.54853754771E+02  0.54853754830E+02  0.25500000000E-02 0. -1.
    5000001    1    1    2    0    0  0.52028098907E+02 -0.97315714571E+02  0.25467006489E+03  0.32289179817E+03  0.16500000000E+03 0.  0.
   -5000001    1    1    2    0    0 -0.52028098907E+02  0.97315714571E+02  0.45414603614E+03  0.49563181246E+03  0.16500000000E+03 0.  0.
<mgrwt>
<rscale>  0 0.40934171E+03</rscale>
<asrwt>0</asrwt>
<pdfrwt beam="1">  1        2 0.11748767E+00 0.40934171E+03</pdfrwt>
<pdfrwt beam="2">  1       -2 0.84390391E-02 0.40934171E+03</pdfrwt>
<totfact> 0.32884905E+03</totfact>
</mgrwt>
</event>
<event>
 4    1  0.9064384E-005  0.9730592E+03  0.7818608E-02  0.9338597E-01
          2   -1    0    0  501    0  0.00000000000E+00  0.00000000000E+00  0.88733451207E+03  0.88733451208E+03  0.25500000000E-02 0.  1.
         -2   -1    0    0    0  501 -0.00000000000E+00 -0.00000000000E+00 -0.26676641479E+03  0.26676641480E+03  0.25500000000E-02 0. -1.
    5000001    1    1    2    0    0  0.44479353452E+03  0.71000651132E+02  0.40666630099E+03  0.62887587104E+03  0.16500000000E+03 0.  0.
   -5000001    1    1    2    0    0 -0.44479353452E+03 -0.71000651132E+02  0.21390179630E+03  0.52522505583E+03  0.16500000000E+03 0.  0.
<mgrwt>
<rscale>  0 0.97305919E+03</rscale>
<asrwt>0</asrwt>
<pdfrwt beam="1">  1        2 0.13651300E+00 0.97305919E+03</pdfrwt>
<pdfrwt beam="2">  1       -2 0.41040987E-01 0.97305919E+03</pdfrwt>
<totfact> 0.16801223E+02</totfact>
</mgrwt>
</event>
<event>
 4    1  0.9064384E-005  0.4870576E+03  0.7818608E-02  0.1017213E+00
         -2   -1    0    0    0  501 -0.00000000000E+00  0.00000000000E+00  0.35158784869E+02  0.35158784962E+02  0.25500000000E-02 0. -1.
          2   -1    0    0  501    0  0.00000000000E+00 -0.00000000000E+00 -0.16868125617E+04  0.16868125617E+04  0.25500000000E-02 0.  1.
    5000001    1    1    2    0    0 -0.38494203101E+02 -0.17417358954E+03 -0.88316641149E+03  0.91598370801E+03  0.16500000000E+03 0.  0.
   -5000001    1    1    2    0    0  0.38494203101E+02  0.17417358954E+03 -0.76848736538E+03  0.80598763868E+03  0.16500000000E+03 0.  0.
<mgrwt>
<rscale>  0 0.48705761E+03</rscale>
<asrwt>0</asrwt>
<pdfrwt beam="1">  1        2 0.25950956E+00 0.48705761E+03</pdfrwt>
<pdfrwt beam="2">  1       -2 0.54090451E-02 0.48705761E+03</pdfrwt>
<totfact> 0.18679735E+03</totfact>
</mgrwt>
</event>
<event>
 4    1  0.9064384E-005  0.4420640E+03  0.7818608E-02  0.1030115E+00
          2   -1    0    0  501    0  0.00000000000E+00  0.00000000000E+00  0.16575984477E+04  0.16575984477E+04  0.25500000000E-02 0.  1.
         -2   -1    0    0    0  501 -0.00000000000E+00 -0.00000000000E+00 -0.29473456614E+02  0.29473456725E+02  0.25500000000E-02 0. -1.
    5000001    1    1    2    0    0 -0.27141724139E+02 -0.13882174007E+03  0.96776282566E+03  0.99186593622E+03  0.16500000000E+03 0.  0.
   -5000001    1    1    2    0    0  0.27141724139E+02  0.13882174007E+03  0.66036216547E+03  0.69520596825E+03  0.16500000000E+03 0.  0.
<mgrwt>
<rscale>  0 0.44206405E+03</rscale>
<asrwt>0</asrwt>
<pdfrwt beam="1">  1        2 0.25501514E+00 0.44206405E+03</pdfrwt>
<pdfrwt beam="2">  1       -2 0.45343780E-02 0.44206405E+03</pdfrwt>
<totfact> 0.25462121E+03</totfact>
</mgrwt>
</event>
<event>
 4    1  0.9064384E-005  0.1162338E+04  0.7818608E-02  0.9146476E-01
         -2   -1    0    0    0  501 -0.00000000000E+00  0.00000000000E+00  0.97459676487E+03  0.97459676487E+03  0.25500000000E-02 0. -1.
          2   -1    0    0  501    0  0.00000000000E+00 -0.00000000000E+00 -0.34656119601E+03  0.34656119602E+03  0.25500000000E-02 0.  1.
    5000001    1    1    2    0    0  0.35824076133E+03  0.13970540979E+03 -0.14442718838E+03  0.44264913571E+03  0.16500000000E+03 0.  0.
   -5000001    1    1    2    0    0 -0.35824076133E+03 -0.13970540979E+03  0.77246275723E+03  0.87850882518E+03  0.16500000000E+03 0.  0.
<mgrwt>
<rscale>  0 0.11623380E+04</rscale>
<asrwt>0</asrwt>
<pdfrwt beam="1">  1        2 0.53317107E-01 0.11623380E+04</pdfrwt>
<pdfrwt beam="2">  1       -2 0.14993796E+00 0.11623380E+04</pdfrwt>
<totfact> 0.27691166E+01</totfact>
</mgrwt>
</event>
<event>
 4    1  0.9064384E-005  0.6817512E+03  0.7818608E-02  0.9748959E-01
          2   -1    0    0  501    0  0.00000000000E+00  0.00000000000E+00  0.31804778593E+03  0.31804778594E+03  0.25500000000E-02 0. -1.
         -2   -1    0    0    0  501 -0.00000000000E+00 -0.00000000000E+00 -0.36534183840E+03  0.36534183841E+03  0.25500000000E-02 0.  1.
    5000001    1    1    2    0    0  0.12201137551E+03 -0.21825501042E+03 -0.18666978903E+03  0.35297682001E+03  0.16500000000E+03 0.  0.
   -5000001    1    1    2    0    0 -0.12201137551E+03  0.21825501042E+03  0.13937573656E+03  0.33041280434E+03  0.16500000000E+03 0.  0.
<mgrwt>
<rscale>  0 0.68175117E+03</rscale>
<asrwt>0</asrwt>
<pdfrwt beam="1">  1        2 0.48930428E-01 0.68175117E+03</pdfrwt>
<pdfrwt beam="2">  1       -2 0.56206437E-01 0.68175117E+03</pdfrwt>
<totfact> 0.30860208E+02</totfact>
</mgrwt>
</event>
<event>
 4    1  0.9064384E-005  0.4959445E+03  0.7818608E-02  0.1014843E+00
          2   -1    0    0  501    0  0.00000000000E+00  0.00000000000E+00  0.39999690745E+03  0.39999690746E+03  0.25500000000E-02 0.  1.
         -2   -1    0    0    0  501 -0.00000000000E+00 -0.00000000000E+00 -0.15372675598E+03  0.15372675600E+03  0.25500000000E-02 0. -1.
    5000001    1    1    2    0    0 -0.14536988275E+03 -0.76692168199E+02  0.21820935692E+03  0.31914638479E+03  0.16500000000E+03 0.  0.
   -5000001    1    1    2    0    0  0.14536988275E+03  0.76692168199E+02  0.28060794549E+02  0.23457727867E+03  0.16500000000E+03 0.  0.
<mgrwt>
<rscale>  0 0.49594446E+03</rscale>
<asrwt>0</asrwt>
<pdfrwt beam="1">  1        2 0.61537986E-01 0.49594446E+03</pdfrwt>
<pdfrwt beam="2">  1       -2 0.23650270E-01 0.49594446E+03</pdfrwt>
<totfact> 0.12593259E+03</totfact>
</mgrwt>
</event>
<event>
 4    1  0.9064384E-005  0.5576116E+03  0.7818608E-02  0.9997474E-01
         -2   -1    0    0    0  501 -0.00000000000E+00  0.00000000000E+00  0.61111853118E+03  0.61111853118E+03  0.25500000000E-02 0. -1.
          2   -1    0    0  501    0  0.00000000000E+00 -0.00000000000E+00 -0.12719735418E+03  0.12719735420E+03  0.25500000000E-02 0.  1.
    5000001    1    1    2    0    0  0.15003984791E+02 -0.49390194250E+02  0.53157510862E+03  0.55898265353E+03  0.16500000000E+03 0.  0.
   -5000001    1    1    2    0    0 -0.15003984791E+02  0.49390194250E+02 -0.47653931617E+02  0.17933323185E+03  0.16500000000E+03 0.  0.
<mgrwt>
<rscale>  0 0.55761155E+03</rscale>
<asrwt>0</asrwt>
<pdfrwt beam="1">  1        2 0.19568824E-01 0.55761155E+03</pdfrwt>
<pdfrwt beam="2">  1       -2 0.94018235E-01 0.55761155E+03</pdfrwt>
<totfact> 0.28168642E+02</totfact>
</mgrwt>
</event>
<event>
 4    1  0.9064384E-005  0.5571439E+03  0.7818608E-02  0.9998538E-01
         -2   -1    0    0    0  501 -0.00000000000E+00  0.00000000000E+00  0.12039426167E+03  0.12039426170E+03  0.25500000000E-02 0. -1.
          2   -1    0    0  501    0  0.00000000000E+00 -0.00000000000E+00 -0.64456842379E+03  0.64456842380E+03  0.25500000000E-02 0.  1.
    5000001    1    1    2    0    0 -0.18014058707E+03  0.12434200717E+03 -0.33026589637E+03  0.42919940373E+03  0.16500000000E+03 0.  0.
   -5000001    1    1    2    0    0  0.18014058707E+03 -0.12434200717E+03 -0.19390826575E+03  0.33576328177E+03  0.16500000000E+03 0.  0.
<mgrwt>
<rscale>  0 0.55714393E+03</rscale>
<asrwt>0</asrwt>
<pdfrwt beam="1">  1        2 0.99164371E-01 0.55714393E+03</pdfrwt>
<pdfrwt beam="2">  1       -2 0.18522194E-01 0.55714393E+03</pdfrwt>
<totfact> 0.11121338E+03</totfact>
</mgrwt>
</event>
<event>
 4    1  0.9064384E-005  0.5797060E+03  0.7818608E-02  0.9948428E-01
         -2   -1    0    0    0  501 -0.00000000000E+00  0.00000000000E+00  0.10348497701E+03  0.10348497704E+03  0.25500000000E-02 0. -1.
          2   -1    0    0  501    0  0.00000000000E+00 -0.00000000000E+00 -0.81185467463E+03  0.81185467463E+03  0.25500000000E-02 0.  1.
    5000001    1    1    2    0    0  0.18704147401E+03  0.51630918112E+02 -0.13574103711E+03  0.28861894231E+03  0.16500000000E+03 0.  0.
   -5000001    1    1    2    0    0 -0.18704147401E+03 -0.51630918112E+02 -0.57262866051E+03  0.62672070936E+03  0.16500000000E+03 0.  0.
<mgrwt>
<rscale>  0 0.57970600E+03</rscale>
<asrwt>0</asrwt>
<pdfrwt beam="1">  1        2 0.12490072E+00 0.57970600E+03</pdfrwt>
<pdfrwt beam="2">  1       -2 0.15920766E-01 0.57970600E+03</pdfrwt>
<totfact> 0.10749584E+03</totfact>
</mgrwt>
</event>
<event>
 4    1  0.9064384E-005  0.4655452E+03  0.7818608E-02  0.1023185E+00
         -2   -1    0    0    0  501 -0.00000000000E+00  0.00000000000E+00  0.20035160105E+03  0.20035160107E+03  0.25500000000E-02 0. -1.
          2   -1    0    0  501    0  0.00000000000E+00 -0.00000000000E+00 -0.27043995033E+03  0.27043995035E+03  0.25500000000E-02 0.  1.
    5000001    1    1    2    0    0  0.16333209696E+03  0.13618310029E+02 -0.25174850265E+02  0.23392649561E+03  0.16500000000E+03 0.  0.
   -5000001    1    1    2    0    0 -0.16333209696E+03 -0.13618310029E+02 -0.44913499019E+02  0.23686505580E+03  0.16500000000E+03 0.  0.
<mgrwt>
<rscale>  0 0.46554517E+03</rscale>
<asrwt>0</asrwt>
<pdfrwt beam="1">  1        2 0.41606146E-01 0.46554517E+03</pdfrwt>
<pdfrwt beam="2">  1       -2 0.30823323E-01 0.46554517E+03</pdfrwt>
<totfact> 0.11994046E+03</totfact>
</mgrwt>
</event>
<event>
 4    1  0.9064384E-005  0.4549237E+03  0.7818608E-02  0.1026264E+00
          2   -1    0    0  501    0  0.00000000000E+00  0.00000000000E+00  0.78137601643E+03  0.78137601644E+03  0.25500000000E-02 0.  1.
         -2   -1    0    0    0  501 -0.00000000000E+00 -0.00000000000E+00 -0.66215088521E+02  0.66215088570E+02  0.25500000000E-02 0. -1.
    5000001    1    1    2    0    0  0.12662862383E+03 -0.91082110269E+02  0.38279315734E+03  0.44506893903E+03  0.16500000000E+03 0.  0.
   -5000001    1    1    2    0    0 -0.12662862383E+03  0.91082110269E+02  0.33236777057E+03  0.40252216597E+03  0.16500000000E+03 0.  0.
<mgrwt>
<rscale>  0 0.45492365E+03</rscale>
<asrwt>0</asrwt>
<pdfrwt beam="1">  1        2 0.12021170E+00 0.45492365E+03</pdfrwt>
<pdfrwt beam="2">  1       -2 0.10186936E-01 0.45492365E+03</pdfrwt>
<totfact> 0.23647753E+03</totfact>
</mgrwt>
</event>
<event>
 4    1  0.9064384E-005  0.3623839E+03  0.7818608E-02  0.1057644E+00
          2   -1    0    0  501    0  0.00000000000E+00  0.00000000000E+00  0.49353512564E+03  0.49353512565E+03  0.25500000000E-02 0.  1.
         -2   -1    0    0    0  501 -0.00000000000E+00 -0.00000000000E+00 -0.66521143627E+02  0.66521143676E+02  0.25500000000E-02 0. -1.
    5000001    1    1    2    0    0 -0.17647228149E+02  0.58603501836E+02  0.14685897123E+03  0.22921246152E+03  0.16500000000E+03 0.  0.
   -5000001    1    1    2    0    0  0.17647228149E+02 -0.58603501836E+02  0.28015501079E+03  0.33084380780E+03  0.16500000000E+03 0.  0.
<mgrwt>
<rscale>  0 0.36238389E+03</rscale>
<asrwt>0</asrwt>
<pdfrwt beam="1">  1        2 0.75928481E-01 0.36238389E+03</pdfrwt>
<pdfrwt beam="2">  1       -2 0.10234022E-01 0.36238389E+03</pdfrwt>
<totfact> 0.40575780E+03</totfact>
</mgrwt>
</event>
<event>
 4    1  0.9064384E-005  0.4108056E+03  0.7818608E-02  0.1040101E+00
          2   -1    0    0  501    0  0.00000000000E+00  0.00000000000E+00  0.11787958768E+04  0.11787958768E+04  0.25500000000E-02 0.  1.
         -2   -1    0    0    0  501 -0.00000000000E+00 -0.00000000000E+00 -0.35791018037E+02  0.35791018128E+02  0.25500000000E-02 0. -1.
    5000001    1    1    2    0    0  0.17083054077E+02  0.11928416854E+03  0.50914968306E+03  0.54861547860E+03  0.16500000000E+03 0.  0.
   -5000001    1    1    2    0    0 -0.17083054077E+02 -0.11928416854E+03  0.63385517571E+03  0.66597141634E+03  0.16500000000E+03 0.  0.
<mgrwt>
<rscale>  0 0.41080557E+03</rscale>
<asrwt>0</asrwt>
<pdfrwt beam="1">  1        2 0.18135323E+00 0.41080557E+03</pdfrwt>
<pdfrwt beam="2">  1       -2 0.55063100E-02 0.41080557E+03</pdfrwt>
<totfact> 0.34814972E+03</totfact>
</mgrwt>
</event>
<event>
 4    1  0.9064384E-005  0.9577582E+03  0.7818608E-02  0.9356128E-01
         -2   -1    0    0    0  501 -0.00000000000E+00  0.00000000000E+00  0.20638495463E+03  0.20638495465E+03  0.25500000000E-02 0. -1.
          2   -1    0    0  501    0  0.00000000000E+00 -0.00000000000E+00 -0.11111525710E+04  0.11111525710E+04  0.25500000000E-02 0.  1.
    5000001    1    1    2    0    0 -0.38011300785E+03 -0.37049464417E+02 -0.77862290849E+03  0.88280076754E+03  0.16500000000E+03 0.  0.
   -5000001    1    1    2    0    0  0.38011300785E+03  0.37049464417E+02 -0.12614470791E+03  0.43473675814E+03  0.16500000000E+03 0.  0.
<mgrwt>
<rscale>  0 0.95775816E+03</rscale>
<asrwt>0</asrwt>
<pdfrwt beam="1">  1        2 0.17094655E+00 0.95775816E+03</pdfrwt>
<pdfrwt beam="2">  1       -2 0.31751532E-01 0.95775816E+03</pdfrwt>
<totfact> 0.19746011E+02</totfact>
</mgrwt>
</event>
<event>
 4    1  0.9064384E-005  0.5233265E+03  0.7818608E-02  0.1007864E+00
         -2   -1    0    0    0  501 -0.00000000000E+00  0.00000000000E+00  0.87790735764E+02  0.87790735801E+02  0.25500000000E-02 0. -1.
          2   -1    0    0  501    0  0.00000000000E+00 -0.00000000000E+00 -0.77989601380E+03  0.77989601381E+03  0.25500000000E-02 0.  1.
    5000001    1    1    2    0    0  0.11606210492E+03  0.11554446504E+03 -0.14694008484E+03  0.27502240660E+03  0.16500000000E+03 0.  0.
   -5000001    1    1    2    0    0 -0.11606210492E+03 -0.11554446504E+03 -0.54516519320E+03  0.59266434301E+03  0.16500000000E+03 0.  0.
<mgrwt>
<rscale>  0 0.52332646E+03</rscale>
<asrwt>0</asrwt>
<pdfrwt beam="1">  1        2 0.11998400E+00 0.52332646E+03</pdfrwt>
<pdfrwt beam="2">  1       -2 0.13506268E-01 0.52332646E+03</pdfrwt>
<totfact> 0.14940815E+03</totfact>
</mgrwt>
</event>
<event>
 4    1  0.9064384E-005  0.4671680E+03  0.7818608E-02  0.1022723E+00
         -2   -1    0    0    0  501 -0.00000000000E+00  0.00000000000E+00  0.73901880988E+02  0.73901881032E+02  0.25500000000E-02 0.  1.
          2   -1    0    0  501    0  0.00000000000E+00 -0.00000000000E+00 -0.73829634549E+03  0.73829634549E+03  0.25500000000E-02 0. -1.
    5000001    1    1    2    0    0  0.10430077212E+02 -0.15936166472E+03 -0.40660182534E+03  0.46696356503E+03  0.16500000000E+03 0.  0.
   -5000001    1    1    2    0    0 -0.10430077212E+02  0.15936166472E+03 -0.25779263916E+03  0.34523466150E+03  0.16500000000E+03 0.  0.
<mgrwt>
<rscale>  0 0.46716802E+03</rscale>
<asrwt>0</asrwt>
<pdfrwt beam="1">  1        2 0.11358405E+00 0.46716802E+03</pdfrwt>
<pdfrwt beam="2">  1       -2 0.11369521E-01 0.46716802E+03</pdfrwt>
<totfact> 0.21277126E+03</totfact>
</mgrwt>
</event>
<event>
 4    1  0.9064384E-005  0.6328613E+03  0.7818608E-02  0.9839481E-01
         -2   -1    0    0    0  501 -0.00000000000E+00  0.00000000000E+00  0.10516078742E+03  0.10516078745E+03  0.25500000000E-02 0. -1.
          2   -1    0    0  501    0  0.00000000000E+00 -0.00000000000E+00 -0.95214542875E+03  0.95214542875E+03  0.25500000000E-02 0.  1.
    5000001    1    1    2    0    0  0.10072585606E+03  0.80420868090E+02 -0.27115334954E+02  0.21112426553E+03  0.16500000000E+03 0.  0.
   -5000001    1    1    2    0    0 -0.10072585606E+03 -0.80420868090E+02 -0.81986930638E+03  0.84618195067E+03  0.16500000000E+03 0.  0.
<mgrwt>
<rscale>  0 0.63286132E+03</rscale>
<asrwt>0</asrwt>
<pdfrwt beam="1">  1        2 0.14648391E+00 0.63286132E+03</pdfrwt>
<pdfrwt beam="2">  1       -2 0.16178583E-01 0.63286132E+03</pdfrwt>
<totfact> 0.83968217E+02</totfact>
</mgrwt>
</event>
<event>
 4    1  0.9064384E-005  0.1032841E+04  0.7818608E-02  0.9273241E-01
          2   -1    0    0  501    0  0.00000000000E+00  0.00000000000E+00  0.30107088698E+03  0.30107088699E+03  0.25500000000E-02 0.  1.
         -2   -1    0    0    0  501 -0.00000000000E+00 -0.00000000000E+00 -0.88580488588E+03  0.88580488589E+03  0.25500000000E-02 0. -1.
    5000001    1    1    2    0    0  0.12099193514E+03  0.47138567112E+03 -0.23352979449E+03  0.56445076333E+03  0.16500000000E+03 0.  0.
   -5000001    1    1    2    0    0 -0.12099193514E+03 -0.47138567112E+03 -0.35120420441E+03  0.62242500954E+03  0.16500000000E+03 0.  0.
<mgrwt>
<rscale>  0 0.10328409E+04</rscale>
<asrwt>0</asrwt>
<pdfrwt beam="1">  1        2 0.46318598E-01 0.10328409E+04</pdfrwt>
<pdfrwt beam="2">  1       -2 0.13627767E+00 0.10328409E+04</pdfrwt>
<totfact> 0.41937360E+01</totfact>
</mgrwt>
</event>
<event>
 4    1  0.9064384E-005  0.3662918E+03  0.7818608E-02  0.1056120E+00
         -2   -1    0    0    0  501 -0.00000000000E+00  0.00000000000E+00  0.13052145540E+02  0.13052145789E+02  0.25500000000E-02 0. -1.
          2   -1    0    0  501    0  0.00000000000E+00 -0.00000000000E+00 -0.25698783836E+04  0.25698783836E+04  0.25500000000E-02 0.  1.
    5000001    1    1    2    0    0  0.71929033345E+02 -0.14261092612E+02 -0.10621860686E+04  0.10774235049E+04  0.16500000000E+03 0.  0.
   -5000001    1    1    2    0    0 -0.71929033345E+02  0.14261092612E+02 -0.14946401695E+04  0.15055070246E+04  0.16500000000E+03 0.  0.
<mgrwt>
<rscale>  0 0.36629183E+03</rscale>
<asrwt>0</asrwt>
<pdfrwt beam="1">  1        2 0.39536550E+00 0.36629183E+03</pdfrwt>
<pdfrwt beam="2">  1       -2 0.20080245E-02 0.36629183E+03</pdfrwt>
<totfact> 0.28015526E+03</totfact>
</mgrwt>
</event>
<event>
 4    1  0.9064384E-005  0.5396355E+03  0.7818608E-02  0.1003922E+00
         -2   -1    0    0    0  501 -0.00000000000E+00  0.00000000000E+00  0.56044866140E+02  0.56044866198E+02  0.25500000000E-02 0.  1.
          2   -1    0    0  501    0  0.00000000000E+00 -0.00000000000E+00 -0.12989881844E+04  0.12989881844E+04  0.25500000000E-02 0. -1.
    5000001    1    1    2    0    0 -0.16325669668E+03 -0.13641833942E+03 -0.57698297022E+03  0.63670798665E+03  0.16500000000E+03 0.  0.
   -5000001    1    1    2    0    0  0.16325669668E+03  0.13641833942E+03 -0.66596034807E+03  0.71832506398E+03  0.16500000000E+03 0.  0.
<mgrwt>
<rscale>  0 0.53963550E+03</rscale>
<asrwt>0</asrwt>
<pdfrwt beam="1">  1        2 0.19984431E+00 0.53963550E+03</pdfrwt>
<pdfrwt beam="2">  1       -2 0.86222881E-02 0.53963550E+03</pdfrwt>
<totfact> 0.14648991E+03</totfact>
</mgrwt>
</event>
<event>
 4    1  0.9064384E-005  0.3843104E+03  0.7818608E-02  0.1049352E+00
          2   -1    0    0  501    0  0.00000000000E+00  0.00000000000E+00  0.17313078745E+04  0.17313078745E+04  0.25500000000E-02 0.  1.
         -2   -1    0    0    0  501 -0.00000000000E+00 -0.00000000000E+00 -0.21327008454E+02  0.21327008606E+02  0.25500000000E-02 0. -1.
    5000001    1    1    2    0    0  0.77643406374E+02  0.17402893261E+02  0.11196256053E+04  0.11345121663E+04  0.16500000000E+03 0.  0.
   -5000001    1    1    2    0    0 -0.77643406374E+02 -0.17402893261E+02  0.59035526071E+03  0.61812271686E+03  0.16500000000E+03 0.  0.
<mgrwt>
<rscale>  0 0.38431038E+03</rscale>
<asrwt>0</asrwt>
<pdfrwt beam="1">  1        2 0.26635512E+00 0.38431038E+03</pdfrwt>
<pdfrwt beam="2">  1       -2 0.32810774E-02 0.38431038E+03</pdfrwt>
<totfact> 0.38070639E+03</totfact>
</mgrwt>
</event>
<event>
 4    1  0.9064384E-005  0.6534536E+03  0.7818608E-02  0.9800320E-01
         -2   -1    0    0    0  501 -0.00000000000E+00  0.00000000000E+00  0.16760611055E+04  0.16760611055E+04  0.25500000000E-02 0. -1.
          2   -1    0    0  501    0  0.00000000000E+00 -0.00000000000E+00 -0.63691244614E+02  0.63691244665E+02  0.25500000000E-02 0.  1.
    5000001    1    1    2    0    0  0.15976602232E+03  0.12885807294E+02  0.18845059158E+03  0.29737157125E+03  0.16500000000E+03 0.  0.
   -5000001    1    1    2    0    0 -0.15976602232E+03 -0.12885807294E+02  0.14239192693E+04  0.14423807789E+04  0.16500000000E+03 0.  0.
<mgrwt>
<rscale>  0 0.65345365E+03</rscale>
<asrwt>0</asrwt>
<pdfrwt beam="1">  1        2 0.97986542E-02 0.65345365E+03</pdfrwt>
<pdfrwt beam="2">  1       -2 0.25785552E+00 0.65345365E+03</pdfrwt>
<totfact> 0.40706362E+01</totfact>
</mgrwt>
</event>
<event>
 4    1  0.9064384E-005  0.3840787E+03  0.7818608E-02  0.1049436E+00
         -2   -1    0    0    0  501 -0.00000000000E+00  0.00000000000E+00  0.64098404840E+02  0.64098404890E+02  0.25500000000E-02 0. -1.
          2   -1    0    0  501    0  0.00000000000E+00 -0.00000000000E+00 -0.57535133802E+03  0.57535133803E+03  0.25500000000E-02 0.  1.
    5000001    1    1    2    0    0  0.43333267375E+02 -0.88165057052E+02 -0.25862958467E+03  0.32212592477E+03  0.16500000000E+03 0.  0.
   -5000001    1    1    2    0    0 -0.43333267375E+02  0.88165057052E+02 -0.25262334851E+03  0.31732381814E+03  0.16500000000E+03 0.  0.
<mgrwt>
<rscale>  0 0.38407865E+03</rscale>
<asrwt>0</asrwt>
<pdfrwt beam="1">  1        2 0.88515587E-01 0.38407865E+03</pdfrwt>
<pdfrwt beam="2">  1       -2 0.98612935E-02 0.38407865E+03</pdfrwt>
<totfact> 0.36155316E+03</totfact>
</mgrwt>
</event>
<event>
 4    1  0.9064384E-005  0.5508044E+03  0.7818608E-02  0.1001308E+00
          2   -1    0    0  501    0  0.00000000000E+00  0.00000000000E+00  0.10906846543E+04  0.10906846543E+04  0.25500000000E-02 0.  1.
         -2   -1    0    0    0  501 -0.00000000000E+00 -0.00000000000E+00 -0.69540158117E+02  0.69540158164E+02  0.25500000000E-02 0. -1.
    5000001    1    1    2    0    0  0.12696060613E+03 -0.48790541292E+02  0.14498950556E+03  0.25835338038E+03  0.16500000000E+03 0.  0.
   -5000001    1    1    2    0    0 -0.12696060613E+03  0.48790541292E+02  0.87615499066E+03  0.90187143213E+03  0.16500000000E+03 0.  0.
<mgrwt>
<rscale>  0 0.55080444E+03</rscale>
<asrwt>0</asrwt>
<pdfrwt beam="1">  1        2 0.16779762E+00 0.55080444E+03</pdfrwt>
<pdfrwt beam="2">  1       -2 0.10698487E-01 0.55080444E+03</pdfrwt>
<totfact> 0.13700989E+03</totfact>
</mgrwt>
</event>
<event>
 4    1  0.9064384E-005  0.5072581E+03  0.7818608E-02  0.1011902E+00
          2   -1    0    0  501    0  0.00000000000E+00  0.00000000000E+00  0.18509380566E+04  0.18509380566E+04  0.25500000000E-02 0.  1.
         -2   -1    0    0    0  501 -0.00000000000E+00 -0.00000000000E+00 -0.34754110444E+02  0.34754110538E+02  0.25500000000E-02 0. -1.
    5000001    1    1    2    0    0 -0.18619845605E+03  0.42542078228E+02  0.10008796012E+04  0.10322134806E+04  0.16500000000E+03 0.  0.
   -5000001    1    1    2    0    0  0.18619845605E+03 -0.42542078228E+02  0.81530434490E+03  0.85347868648E+03  0.16500000000E+03 0.  0.
<mgrwt>
<rscale>  0 0.50725814E+03</rscale>
<asrwt>0</asrwt>
<pdfrwt beam="1">  1        2 0.28475973E+00 0.50725814E+03</pdfrwt>
<pdfrwt beam="2">  1       -2 0.53467857E-02 0.50725814E+03</pdfrwt>
<totfact> 0.15504093E+03</totfact>
</mgrwt>
</event>
<event>
 4    1  0.9064384E-005  0.3979928E+03  0.7818608E-02  0.1044477E+00
          2   -1    0    0  501    0  0.00000000000E+00  0.00000000000E+00  0.17902102874E+04  0.17902102874E+04  0.25500000000E-02 0.  1.
         -2   -1    0    0    0  501 -0.00000000000E+00 -0.00000000000E+00 -0.22120059035E+02  0.22120059182E+02  0.25500000000E-02 0. -1.
    5000001    1    1    2    0    0  0.47461163926E+02 -0.32617965761E+02  0.45065411843E+03  0.48335352304E+03  0.16500000000E+03 0.  0.
   -5000001    1    1    2    0    0 -0.47461163926E+02  0.32617965761E+02  0.13174361099E+04  0.13289768235E+04  0.16500000000E+03 0.  0.
<mgrwt>
<rscale>  0 0.39799275E+03</rscale>
<asrwt>0</asrwt>
<pdfrwt beam="1">  1        2 0.27541701E+00 0.39799275E+03</pdfrwt>
<pdfrwt beam="2">  1       -2 0.34030855E-02 0.39799275E+03</pdfrwt>
<totfact> 0.33506374E+03</totfact>
</mgrwt>
</event>
<event>
 4    1  0.9064384E-005  0.3714557E+03  0.7818608E-02  0.1054138E+00
         -2   -1    0    0    0  501 -0.00000000000E+00  0.00000000000E+00  0.67073628906E+02  0.67073628954E+02  0.25500000000E-02 0. -1.
          2   -1    0    0  501    0  0.00000000000E+00 -0.00000000000E+00 -0.51428324247E+03  0.51428324247E+03  0.25500000000E-02 0.  1.
    5000001    1    1    2    0    0  0.64704352102E+02 -0.32335739175E+02 -0.15295773860E+03  0.23633307641E+03  0.16500000000E+03 0.  0.
   -5000001    1    1    2    0    0 -0.64704352102E+02  0.32335739175E+02 -0.29425187496E+03  0.34502379502E+03  0.16500000000E+03 0.  0.
<mgrwt>
<rscale>  0 0.37145575E+03</rscale>
<asrwt>0</asrwt>
<pdfrwt beam="1">  1        2 0.79120496E-01 0.37145575E+03</pdfrwt>
<pdfrwt beam="2">  1       -2 0.10319020E-01 0.37145575E+03</pdfrwt>
<totfact> 0.38232131E+03</totfact>
</mgrwt>
</event>
<event>
 4    1  0.9064384E-005  0.6278775E+03  0.7818608E-02  0.9849200E-01
         -2   -1    0    0    0  501 -0.00000000000E+00  0.00000000000E+00  0.36539489744E+03  0.36539489745E+03  0.25500000000E-02 0. -1.
          2   -1    0    0  501    0  0.00000000000E+00 -0.00000000000E+00 -0.26972881788E+03  0.26972881789E+03  0.25500000000E-02 0.  1.
    5000001    1    1    2    0    0  0.17408111982E+03 -0.21839260325E+02  0.25153070326E+03  0.34824400102E+03  0.16500000000E+03 0.  0.
   -5000001    1    1    2    0    0 -0.17408111982E+03  0.21839260325E+02 -0.15586462369E+03  0.28687971432E+03  0.16500000000E+03 0.  0.
<mgrwt>
<rscale>  0 0.62787748E+03</rscale>
<asrwt>0</asrwt>
<pdfrwt beam="1">  1        2 0.41496741E-01 0.62787748E+03</pdfrwt>
<pdfrwt beam="2">  1       -2 0.56214600E-01 0.62787748E+03</pdfrwt>
<totfact> 0.37078301E+02</totfact>
</mgrwt>
</event>
<event>
 4    1  0.9064384E-005  0.5171041E+03  0.7818608E-02  0.1009408E+00
          2   -1    0    0  501    0  0.00000000000E+00  0.00000000000E+00  0.38877375843E+03  0.38877375844E+03  0.25500000000E-02 0.  1.
         -2   -1    0    0    0  501 -0.00000000000E+00 -0.00000000000E+00 -0.17194874886E+03  0.17194874888E+03  0.25500000000E-02 0. -1.
    5000001    1    1    2    0    0 -0.19191178801E+03  0.52277529840E+02  0.11688758678E+03  0.28363847138E+03  0.16500000000E+03 0.  0.
   -5000001    1    1    2    0    0  0.19191178801E+03 -0.52277529840E+02  0.99937422792E+02  0.27708403595E+03  0.16500000000E+03 0.  0.
<mgrwt>
<rscale>  0 0.51710410E+03</rscale>
<asrwt>0</asrwt>
<pdfrwt beam="1">  1        2 0.59811347E-01 0.51710410E+03</pdfrwt>
<pdfrwt beam="2">  1       -2 0.26453654E-01 0.51710410E+03</pdfrwt>
<totfact> 0.10635552E+03</totfact>
</mgrwt>
</event>
<event>
 4    1  0.9064384E-005  0.6801511E+03  0.7818608E-02  0.9751792E-01
          2   -1    0    0  501    0  0.00000000000E+00  0.00000000000E+00  0.22595247044E+03  0.22595247045E+03  0.25500000000E-02 0.  1.
         -2   -1    0    0    0  501 -0.00000000000E+00 -0.00000000000E+00 -0.51183939731E+03  0.51183939731E+03  0.25500000000E-02 0. -1.
    5000001    1    1    2    0    0 -0.21462668816E+03 -0.18979318177E+03 -0.22931759297E+03  0.40236504019E+03  0.16500000000E+03 0.  0.
   -5000001    1    1    2    0    0  0.21462668816E+03  0.18979318177E+03 -0.56569333905E+02  0.33542682758E+03  0.16500000000E+03 0.  0.
<mgrwt>
<rscale>  0 0.68015109E+03</rscale>
<asrwt>0</asrwt>
<pdfrwt beam="1">  1        2 0.34761919E-01 0.68015109E+03</pdfrwt>
<pdfrwt beam="2">  1       -2 0.78744522E-01 0.68015109E+03</pdfrwt>
<totfact> 0.21810789E+02</totfact>
</mgrwt>
</event>
<event>
 4    1  0.9064384E-005  0.9115848E+03  0.7818608E-02  0.9411215E-01
          2   -1    0    0  501    0  0.00000000000E+00  0.00000000000E+00  0.13876832809E+04  0.13876832809E+04  0.25500000000E-02 0.  1.
         -2   -1    0    0    0  501 -0.00000000000E+00 -0.00000000000E+00 -0.14970758048E+03  0.14970758050E+03  0.25500000000E-02 0. -1.
    5000001    1    1    2    0    0  0.22246293291E+03  0.27036899134E+03  0.21306025106E+03  0.44182442054E+03  0.16500000000E+03 0.  0.
   -5000001    1    1    2    0    0 -0.22246293291E+03 -0.27036899134E+03  0.10249154493E+04  0.10955664408E+04  0.16500000000E+03 0.  0.
<mgrwt>
<rscale>  0 0.91158479E+03</rscale>
<asrwt>0</asrwt>
<pdfrwt beam="1">  1        2 0.21348973E+00 0.91158479E+03</pdfrwt>
<pdfrwt beam="2">  1       -2 0.23031936E-01 0.91158479E+03</pdfrwt>
<totfact> 0.24497261E+02</totfact>
</mgrwt>
</event>
<event>
 4    1  0.9064384E-005  0.3893075E+03  0.7818608E-02  0.1047546E+00
          2   -1    0    0  501    0  0.00000000000E+00  0.00000000000E+00  0.54970334675E+03  0.54970334675E+03  0.25500000000E-02 0.  1.
         -2   -1    0    0    0  501 -0.00000000000E+00 -0.00000000000E+00 -0.68928241190E+02  0.68928241237E+02  0.25500000000E-02 0. -1.
    5000001    1    1    2    0    0  0.71782539838E+02  0.56614472877E+02  0.31671443714E+03  0.36863391903E+03  0.16500000000E+03 0.  0.
   -5000001    1    1    2    0    0 -0.71782539838E+02 -0.56614472877E+02  0.16406066842E+03  0.24999766896E+03  0.16500000000E+03 0.  0.
<mgrwt>
<rscale>  0 0.38930751E+03</rscale>
<asrwt>0</asrwt>
<pdfrwt beam="1">  1        2 0.84569744E-01 0.38930751E+03</pdfrwt>
<pdfrwt beam="2">  1       -2 0.10604345E-01 0.38930751E+03</pdfrwt>
<totfact> 0.33926839E+03</totfact>
</mgrwt>
</event>
<event>
 4    1  0.9064384E-005  0.5748043E+03  0.7818608E-02  0.9959103E-01
         -2   -1    0    0    0  501 -0.00000000000E+00  0.00000000000E+00  0.13180163939E+03  0.13180163941E+03  0.25500000000E-02 0. -1.
          2   -1    0    0  501    0  0.00000000000E+00 -0.00000000000E+00 -0.62669928580E+03  0.62669928580E+03  0.25500000000E-02 0.  1.
    5000001    1    1    2    0    0  0.20799880572E+03 -0.45426318091E+02 -0.37972286490E+03  0.46555505333E+03  0.16500000000E+03 0.  0.
   -5000001    1    1    2    0    0 -0.20799880572E+03  0.45426318091E+02 -0.11517478151E+03  0.29294587188E+03  0.16500000000E+03 0.  0.
<mgrwt>
<rscale>  0 0.57480429E+03</rscale>
<asrwt>0</asrwt>
<pdfrwt beam="1">  1        2 0.96415273E-01 0.57480429E+03</pdfrwt>
<pdfrwt beam="2">  1       -2 0.20277176E-01 0.57480429E+03</pdfrwt>
<totfact> 0.98339657E+02</totfact>
</mgrwt>
</event>
<event>
 4    1  0.9064384E-005  0.1644493E+04  0.7818608E-02  0.8793671E-01
          2   -1    0    0  501    0  0.00000000000E+00  0.00000000000E+00  0.25771252727E+04  0.25771252727E+04  0.25500000000E-02 0. -1.
         -2   -1    0    0    0  501 -0.00000000000E+00 -0.00000000000E+00 -0.26234257394E+03  0.26234257395E+03  0.25500000000E-02 0.  1.
    5000001    1    1    2    0    0  0.32465494064E+03 -0.41579359631E+03  0.10628775466E+03  0.56285631559E+03  0.16500000000E+03 0.  0.
   -5000001    1    1    2    0    0 -0.32465494064E+03  0.41579359631E+03  0.22084949441E+04  0.22766115311E+04  0.16500000000E+03 0.  0.
<mgrwt>
<rscale>  0 0.16444935E+04</rscale>
<asrwt>0</asrwt>
<pdfrwt beam="1">  1        2 0.39648082E+00 0.16444935E+04</pdfrwt>
<pdfrwt beam="2">  1       -2 0.40360395E-01 0.16444935E+04</pdfrwt>
<totfact> 0.17471691E+01</totfact>
</mgrwt>
</event>
<event>
 4    1  0.9064384E-005  0.6715609E+03  0.7818608E-02  0.9767142E-01
          2   -1    0    0  501    0  0.00000000000E+00  0.00000000000E+00  0.95995959713E+03  0.95995959713E+03  0.25500000000E-02 0.  1.
         -2   -1    0    0    0  501 -0.00000000000E+00 -0.00000000000E+00 -0.11745130971E+03  0.11745130974E+03  0.25500000000E-02 0. -1.
    5000001    1    1    2    0    0  0.26065622911E+03  0.62631765459E+02  0.60875664730E+03  0.68532770515E+03  0.16500000000E+03 0.  0.
   -5000001    1    1    2    0    0 -0.26065622911E+03 -0.62631765459E+02  0.23375164011E+03  0.39208320172E+03  0.16500000000E+03 0.  0.
<mgrwt>
<rscale>  0 0.67156090E+03</rscale>
<asrwt>0</asrwt>
<pdfrwt beam="1">  1        2 0.14768609E+00 0.67156090E+03</pdfrwt>
<pdfrwt beam="2">  1       -2 0.18069432E-01 0.67156090E+03</pdfrwt>
<totfact> 0.68600379E+02</totfact>
</mgrwt>
</event>
<event>
 4    1  0.9064384E-005  0.4793483E+03  0.7818608E-02  0.1019314E+00
         -2   -1    0    0    0  501 -0.00000000000E+00  0.00000000000E+00  0.18553137134E+02  0.18553137309E+02  0.25500000000E-02 0. -1.
          2   -1    0    0  501    0  0.00000000000E+00 -0.00000000000E+00 -0.30961712312E+04  0.30961712312E+04  0.25500000000E-02 0.  1.
    5000001    1    1    2    0    0  0.32450887876E+02 -0.15129945289E+03 -0.10241206739E+04  0.10488053868E+04  0.16500000000E+03 0.  0.
   -5000001    1    1    2    0    0 -0.32450887876E+02  0.15129945289E+03 -0.20534974201E+04  0.20659189817E+04  0.16500000000E+03 0.  0.
<mgrwt>
<rscale>  0 0.47934826E+03</rscale>
<asrwt>0</asrwt>
<pdfrwt beam="1">  1        2 0.47633363E+00 0.47934826E+03</pdfrwt>
<pdfrwt beam="2">  1       -2 0.28543313E-02 0.47934826E+03</pdfrwt>
<totfact> 0.80562742E+02</totfact>
</mgrwt>
</event>
<event>
 4    1  0.9064384E-005  0.4213946E+03  0.7818608E-02  0.1036613E+00
         -2   -1    0    0    0  501 -0.00000000000E+00  0.00000000000E+00  0.19379840174E+02  0.19379840342E+02  0.25500000000E-02 0. -1.
          2   -1    0    0  501    0  0.00000000000E+00 -0.00000000000E+00 -0.22906977546E+04  0.22906977546E+04  0.25500000000E-02 0.  1.
    5000001    1    1    2    0    0 -0.29371791673E+02 -0.18798312196E+02 -0.18280460030E+04  0.18358086142E+04  0.16500000000E+03 0.  0.
   -5000001    1    1    2    0    0  0.29371791673E+02  0.18798312196E+02 -0.44327191141E+03  0.47426898079E+03  0.16500000000E+03 0.  0.
<mgrwt>
<rscale>  0 0.42139462E+03</rscale>
<asrwt>0</asrwt>
<pdfrwt beam="1">  1        2 0.35241483E+00 0.42139462E+03</pdfrwt>
<pdfrwt beam="2">  1       -2 0.29815157E-02 0.42139462E+03</pdfrwt>
<totfact> 0.22025828E+03</totfact>
</mgrwt>
</event>
<event>
 4    1  0.9064384E-005  0.5475308E+03  0.7818608E-02  0.1002067E+00
         -2   -1    0    0    0  501 -0.00000000000E+00  0.00000000000E+00  0.40045577240E+03  0.40045577241E+03  0.25500000000E-02 0. -1.
          2   -1    0    0  501    0  0.00000000000E+00 -0.00000000000E+00 -0.18715551338E+03  0.18715551340E+03  0.25500000000E-02 0.  1.
    5000001    1    1    2    0    0  0.44792928204E+02 -0.19439579654E+03  0.11102743811E+02  0.25912237080E+03  0.16500000000E+03 0.  0.
   -5000001    1    1    2    0    0 -0.44792928204E+02  0.19439579654E+03  0.20219751521E+03  0.32848891501E+03  0.16500000000E+03 0.  0.
<mgrwt>
<rscale>  0 0.54753084E+03</rscale>
<asrwt>0</asrwt>
<pdfrwt beam="1">  1        2 0.28793156E-01 0.54753084E+03</pdfrwt>
<pdfrwt beam="2">  1       -2 0.61608579E-01 0.54753084E+03</pdfrwt>
<totfact> 0.46064670E+02</totfact>
</mgrwt>
</event>
<event>
 4    1  0.9064384E-005  0.6911624E+03  0.7818608E-02  0.9732466E-01
          2   -1    0    0  501    0  0.00000000000E+00  0.00000000000E+00  0.19370896581E+04  0.19370896581E+04  0.25500000000E-02 0.  1.
         -2   -1    0    0    0  501 -0.00000000000E+00 -0.00000000000E+00 -0.61652471863E+02  0.61652471915E+02  0.25500000000E-02 0. -1.
    5000001    1    1    2    0    0 -0.12357427883E+03 -0.24339135490E+03  0.55307552772E+03  0.63845711946E+03  0.16500000000E+03 0.  0.
   -5000001    1    1    2    0    0  0.12357427883E+03  0.24339135490E+03  0.13223616585E+04  0.13602850106E+04  0.16500000000E+03 0.  0.
<mgrwt>
<rscale>  0 0.69116240E+03</rscale>
<asrwt>0</asrwt>
<pdfrwt beam="1">  1        2 0.29801386E+00 0.69116240E+03</pdfrwt>
<pdfrwt beam="2">  1       -2 0.94849934E-02 0.69116240E+03</pdfrwt>
<totfact> 0.55575735E+02</totfact>
</mgrwt>
</event>
<event>
 4    1  0.9064384E-005  0.8413207E+03  0.7818608E-02  0.9502061E-01
         -2   -1    0    0    0  501 -0.00000000000E+00  0.00000000000E+00  0.79592517827E+02  0.79592517868E+02  0.25500000000E-02 0. -1.
          2   -1    0    0  501    0  0.00000000000E+00 -0.00000000000E+00 -0.22232631990E+04  0.22232631990E+04  0.25500000000E-02 0.  1.
    5000001    1    1    2    0    0 -0.36818860408E+02  0.33566033707E+03 -0.55461026034E+03  0.66995599202E+03  0.16500000000E+03 0.  0.
   -5000001    1    1    2    0    0  0.36818860408E+02 -0.33566033707E+03 -0.15890604209E+04  0.16328997249E+04  0.16500000000E+03 0.  0.
<mgrwt>
<rscale>  0 0.84132067E+03</rscale>
<asrwt>0</asrwt>
<pdfrwt beam="1">  1        2 0.34204045E+00 0.84132067E+03</pdfrwt>
<pdfrwt beam="2">  1       -2 0.12245004E-01 0.84132067E+03</pdfrwt>
<totfact> 0.25193513E+02</totfact>
</mgrwt>
</event>
<event>
 4    1  0.9064384E-005  0.4788035E+03  0.7818608E-02  0.1019465E+00
          2   -1    0    0  501    0  0.00000000000E+00  0.00000000000E+00  0.41807024252E+03  0.41807024253E+03  0.25500000000E-02 0.  1.
         -2   -1    0    0    0  501 -0.00000000000E+00 -0.00000000000E+00 -0.13708987496E+03  0.13708987498E+03  0.25500000000E-02 0. -1.
    5000001    1    1    2    0    0 -0.16076278007E+03  0.40346035092E+02  0.81189890183E+02  0.24756670267E+03  0.16500000000E+03 0.  0.
   -5000001    1    1    2    0    0  0.16076278007E+03 -0.40346035092E+02  0.19979047738E+03  0.30759341484E+03  0.16500000000E+03 0.  0.
<mgrwt>
<rscale>  0 0.47880350E+03</rscale>
<asrwt>0</asrwt>
<pdfrwt beam="1">  1        2 0.64318498E-01 0.47880350E+03</pdfrwt>
<pdfrwt beam="2">  1       -2 0.21090750E-01 0.47880350E+03</pdfrwt>
<totfact> 0.14665480E+03</totfact>
</mgrwt>
</event>
<event>
 4    1  0.9064384E-005  0.4242521E+03  0.7818608E-02  0.1035691E+00
          2   -1    0    0  501    0  0.00000000000E+00  0.00000000000E+00  0.18881701240E+03  0.18881701242E+03  0.25500000000E-02 0.  1.
         -2   -1    0    0    0  501 -0.00000000000E+00 -0.00000000000E+00 -0.23831252559E+03  0.23831252560E+03  0.25500000000E-02 0. -1.
    5000001    1    1    2    0    0 -0.10028893081E+03  0.26354626055E+02  0.59606089110E+02  0.20378989626E+03  0.16500000000E+03 0.  0.
   -5000001    1    1    2    0    0  0.10028893081E+03 -0.26354626055E+02 -0.10910160230E+03  0.22333964176E+03  0.16500000000E+03 0.  0.
<mgrwt>
<rscale>  0 0.42425209E+03</rscale>
<asrwt>0</asrwt>
<pdfrwt beam="1">  1        2 0.29048771E-01 0.42425209E+03</pdfrwt>
<pdfrwt beam="2">  1       -2 0.36663465E-01 0.42425209E+03</pdfrwt>
<totfact> 0.12885687E+03</totfact>
</mgrwt>
</event>
<event>
 4    1  0.9064384E-005  0.4023914E+03  0.7818608E-02  0.1042955E+00
          2   -1    0    0  501    0  0.00000000000E+00  0.00000000000E+00  0.35114627356E+03  0.35114627357E+03  0.25500000000E-02 0.  1.
         -2   -1    0    0    0  501 -0.00000000000E+00 -0.00000000000E+00 -0.11527876810E+03  0.11527876812E+03  0.25500000000E-02 0. -1.
    5000001    1    1    2    0    0  0.56602067157E+02 -0.53491350775E+02  0.21621830587E+03  0.28291425275E+03  0.16500000000E+03 0.  0.
   -5000001    1    1    2    0    0 -0.56602067157E+02  0.53491350775E+02  0.19649199592E+02  0.18351078894E+03  0.16500000000E+03 0.  0.
<mgrwt>
<rscale>  0 0.40239140E+03</rscale>
<asrwt>0</asrwt>
<pdfrwt beam="1">  1        2 0.54022503E-01 0.40239140E+03</pdfrwt>
<pdfrwt beam="2">  1       -2 0.17735195E-01 0.40239140E+03</pdfrwt>
<totfact> 0.23931626E+03</totfact>
</mgrwt>
</event>
<event>
 4    1  0.9064384E-005  0.4995460E+03  0.7818608E-02  0.1013897E+00
         -2   -1    0    0    0  501 -0.00000000000E+00  0.00000000000E+00  0.57515851340E+02  0.57515851397E+02  0.25500000000E-02 0. -1.
          2   -1    0    0  501    0  0.00000000000E+00 -0.00000000000E+00 -0.10846846254E+04  0.10846846254E+04  0.25500000000E-02 0.  1.
    5000001    1    1    2    0    0  0.15940589432E+03  0.12579110245E+02 -0.73753177636E+03  0.77249375033E+03  0.16500000000E+03 0.  0.
   -5000001    1    1    2    0    0 -0.15940589432E+03 -0.12579110245E+02 -0.28963699770E+03  0.36970672647E+03  0.16500000000E+03 0.  0.
<mgrwt>
<rscale>  0 0.49954603E+03</rscale>
<asrwt>0</asrwt>
<pdfrwt beam="1">  1        2 0.16687454E+00 0.49954603E+03</pdfrwt>
<pdfrwt beam="2">  1       -2 0.88485933E-02 0.49954603E+03</pdfrwt>
<totfact> 0.18786861E+03</totfact>
</mgrwt>
</event>
<event>
 4    1  0.9064384E-005  0.4025312E+03  0.7818608E-02  0.1042907E+00
          2   -1    0    0  501    0  0.00000000000E+00  0.00000000000E+00  0.11129571359E+03  0.11129571362E+03  0.25500000000E-02 0.  1.
         -2   -1    0    0    0  501 -0.00000000000E+00 -0.00000000000E+00 -0.36396589408E+03  0.36396589409E+03  0.25500000000E-02 0. -1.
    5000001    1    1    2    0    0  0.38363026831E+02  0.92999139992E+02 -0.19272979964E+03  0.27292918044E+03  0.16500000000E+03 0.  0.
   -5000001    1    1    2    0    0 -0.38363026831E+02 -0.92999139992E+02 -0.59940380859E+02  0.20233242727E+03  0.16500000000E+03 0.  0.
<mgrwt>
<rscale>  0 0.40253121E+03</rscale>
<asrwt>0</asrwt>
<pdfrwt beam="1">  1        2 0.17122418E-01 0.40253121E+03</pdfrwt>
<pdfrwt beam="2">  1       -2 0.55994753E-01 0.40253121E+03</pdfrwt>
<totfact> 0.10231634E+03</totfact>
</mgrwt>
</event>
<event>
 4    1  0.9064384E-005  0.5117768E+03  0.7818608E-02  0.1010750E+00
         -2   -1    0    0    0  501 -0.00000000000E+00  0.00000000000E+00  0.58324844057E+02  0.58324844113E+02  0.25500000000E-02 0. -1.
          2   -1    0    0  501    0  0.00000000000E+00 -0.00000000000E+00 -0.11226583329E+04  0.11226583329E+04  0.25500000000E-02 0.  1.
    5000001    1    1    2    0    0 -0.10361140531E+03 -0.16211455750E+03 -0.61334160274E+03  0.66364853252E+03  0.16500000000E+03 0.  0.
   -5000001    1    1    2    0    0  0.10361140531E+03  0.16211455750E+03 -0.45099188609E+03  0.51733464448E+03  0.16500000000E+03 0.  0.
<mgrwt>
<rscale>  0 0.51177680E+03</rscale>
<asrwt>0</asrwt>
<pdfrwt beam="1">  1        2 0.17271665E+00 0.51177680E+03</pdfrwt>
<pdfrwt beam="2">  1       -2 0.89730538E-02 0.51177680E+03</pdfrwt>
<totfact> 0.17425423E+03</totfact>
</mgrwt>
</event>
<event>
 4    1  0.9064384E-005  0.7010881E+03  0.7818608E-02  0.9715373E-01
         -2   -1    0    0    0  501 -0.00000000000E+00  0.00000000000E+00  0.13731401740E+03  0.13731401742E+03  0.25500000000E-02 0. -1.
          2   -1    0    0  501    0  0.00000000000E+00 -0.00000000000E+00 -0.89489140748E+03  0.89489140749E+03  0.25500000000E-02 0.  1.
    5000001    1    1    2    0    0 -0.27716209217E+03  0.13117018520E+03 -0.43826069726E+03  0.55975162490E+03  0.16500000000E+03 0.  0.
   -5000001    1    1    2    0    0  0.27716209217E+03 -0.13117018520E+03 -0.31931669283E+03  0.47245380001E+03  0.16500000000E+03 0.  0.
<mgrwt>
<rscale>  0 0.70108811E+03</rscale>
<asrwt>0</asrwt>
<pdfrwt beam="1">  1        2 0.13767560E+00 0.70108811E+03</pdfrwt>
<pdfrwt beam="2">  1       -2 0.21125234E-01 0.70108811E+03</pdfrwt>
<totfact> 0.57629439E+02</totfact>
</mgrwt>
</event>
<event>
 4    1  0.9064384E-005  0.3732426E+03  0.7818608E-02  0.1053460E+00
          2   -1    0    0  501    0  0.00000000000E+00  0.00000000000E+00  0.13515603547E+04  0.13515603547E+04  0.25500000000E-02 0.  1.
         -2   -1    0    0    0  501 -0.00000000000E+00 -0.00000000000E+00 -0.25768372316E+02  0.25768372442E+02  0.25500000000E-02 0. -1.
    5000001    1    1    2    0    0  0.59710515109E+02 -0.60131712088E+02  0.58714927269E+03  0.61575192800E+03  0.16500000000E+03 0.  0.
   -5000001    1    1    2    0    0 -0.59710515109E+02  0.60131712088E+02  0.73864270967E+03  0.76157679912E+03  0.16500000000E+03 0.  0.
<mgrwt>
<rscale>  0 0.37324260E+03</rscale>
<asrwt>0</asrwt>
<pdfrwt beam="1">  1        2 0.20793233E+00 0.37324260E+03</pdfrwt>
<pdfrwt beam="2">  1       -2 0.39643657E-02 0.37324260E+03</pdfrwt>
<totfact> 0.45915388E+03</totfact>
</mgrwt>
</event>
<event>
 4    1  0.9064384E-005  0.5172810E+03  0.7818608E-02  0.1009364E+00
          2   -1    0    0  501    0  0.00000000000E+00  0.00000000000E+00  0.14693082783E+04  0.14693082783E+04  0.25500000000E-02 0.  1.
         -2   -1    0    0    0  501 -0.00000000000E+00 -0.00000000000E+00 -0.45528165799E+02  0.45528165871E+02  0.25500000000E-02 0. -1.
    5000001    1    1    2    0    0 -0.11762324843E+03  0.15777969053E+03  0.62209317354E+03  0.67301900113E+03  0.16500000000E+03 0.  0.
   -5000001    1    1    2    0    0  0.11762324843E+03 -0.15777969053E+03  0.80168693900E+03  0.84181744308E+03  0.16500000000E+03 0.  0.
<mgrwt>
<rscale>  0 0.51728101E+03</rscale>
<asrwt>0</asrwt>
<pdfrwt beam="1">  1        2 0.22604747E+00 0.51728101E+03</pdfrwt>
<pdfrwt beam="2">  1       -2 0.70043320E-02 0.51728101E+03</pdfrwt>
<totfact> 0.16367009E+03</totfact>
</mgrwt>
</event>
<event>
 4    1  0.9064384E-005  0.9837911E+03  0.7818608E-02  0.9326503E-01
         -2   -1    0    0    0  501 -0.00000000000E+00  0.00000000000E+00  0.27963682531E+03  0.27963682532E+03  0.25500000000E-02 0.  1.
          2   -1    0    0  501    0  0.00000000000E+00 -0.00000000000E+00 -0.86526957328E+03  0.86526957328E+03  0.25500000000E-02 0. -1.
    5000001    1    1    2    0    0 -0.13272087443E+03 -0.41545361772E+03 -0.11058437316E+03  0.47923944179E+03  0.16500000000E+03 0.  0.
   -5000001    1    1    2    0    0  0.13272087443E+03  0.41545361772E+03 -0.47504837481E+03  0.66566695681E+03  0.16500000000E+03 0.  0.
<mgrwt>
<rscale>  0 0.98379111E+03</rscale>
<asrwt>0</asrwt>
<pdfrwt beam="1">  1        2 0.13311839E+00 0.98379111E+03</pdfrwt>
<pdfrwt beam="2">  1       -2 0.43021050E-01 0.98379111E+03</pdfrwt>
<totfact> 0.15844683E+02</totfact>
</mgrwt>
</event>
<event>
 4    1  0.9064384E-005  0.4387658E+03  0.7818608E-02  0.1031126E+00
         -2   -1    0    0    0  501 -0.00000000000E+00  0.00000000000E+00  0.46172735625E+03  0.46172735626E+03  0.25500000000E-02 0. -1.
          2   -1    0    0  501    0  0.00000000000E+00 -0.00000000000E+00 -0.10423653700E+03  0.10423653703E+03  0.25500000000E-02 0.  1.
    5000001    1    1    2    0    0  0.12587665990E+02  0.12202836340E+03  0.80049201332E+02  0.22064053445E+03  0.16500000000E+03 0.  0.
   -5000001    1    1    2    0    0 -0.12587665990E+02 -0.12202836340E+03  0.27744161792E+03  0.34532335884E+03  0.16500000000E+03 0.  0.
<mgrwt>
<rscale>  0 0.43876582E+03</rscale>
<asrwt>0</asrwt>
<pdfrwt beam="1">  1        2 0.16036390E-01 0.43876582E+03</pdfrwt>
<pdfrwt beam="2">  1       -2 0.71034977E-01 0.43876582E+03</pdfrwt>
<totfact> 0.66930112E+02</totfact>
</mgrwt>
</event>
<event>
 4    1  0.9064384E-005  0.3411189E+03  0.7818608E-02  0.1066320E+00
          2   -1    0    0  501    0  0.00000000000E+00  0.00000000000E+00  0.45562693060E+03  0.45562693061E+03  0.25500000000E-02 0.  1.
         -2   -1    0    0    0  501 -0.00000000000E+00 -0.00000000000E+00 -0.63847249113E+02  0.63847249164E+02  0.25500000000E-02 0. -1.
    5000001    1    1    2    0    0 -0.14774355895E+01  0.40448196527E+02  0.21884843165E+03  0.27705211686E+03  0.16500000000E+03 0.  0.
   -5000001    1    1    2    0    0  0.14774355895E+01 -0.40448196527E+02  0.17293124983E+03  0.24242206291E+03  0.16500000000E+03 0.  0.
<mgrwt>
<rscale>  0 0.34111890E+03</rscale>
<asrwt>0</asrwt>
<pdfrwt beam="1">  1        2 0.70096451E-01 0.34111890E+03</pdfrwt>
<pdfrwt beam="2">  1       -2 0.98226537E-02 0.34111890E+03</pdfrwt>
<totfact> 0.47328675E+03</totfact>
</mgrwt>
</event>
<event>
 4    1  0.9064384E-005  0.9847062E+03  0.7818608E-02  0.9325480E-01
          2   -1    0    0  501    0  0.00000000000E+00  0.00000000000E+00  0.26760420619E+04  0.26760420619E+04  0.25500000000E-02 0.  1.
         -2   -1    0    0    0  501 -0.00000000000E+00 -0.00000000000E+00 -0.90585852960E+02  0.90585852996E+02  0.25500000000E-02 0. -1.
    5000001    1    1    2    0    0  0.16572211931E+03  0.37881406828E+03  0.70189284677E+03  0.83116934948E+03  0.16500000000E+03 0.  0.
   -5000001    1    1    2    0    0 -0.16572211931E+03 -0.37881406828E+03  0.18835633622E+04  0.19354585654E+04  0.16500000000E+03 0.  0.
<mgrwt>
<rscale>  0 0.98470615E+03</rscale>
<asrwt>0</asrwt>
<pdfrwt beam="1">  1        2 0.41169870E+00 0.98470615E+03</pdfrwt>
<pdfrwt beam="2">  1       -2 0.13936288E-01 0.98470615E+03</pdfrwt>
<totfact> 0.11087562E+02</totfact>
</mgrwt>
</event>
<event>
 4    1  0.9064384E-005  0.4749143E+03  0.7818608E-02  0.1020542E+00
         -2   -1    0    0    0  501 -0.00000000000E+00  0.00000000000E+00  0.16468283474E+03  0.16468283476E+03  0.25500000000E-02 0. -1.
          2   -1    0    0  501    0  0.00000000000E+00 -0.00000000000E+00 -0.34239088764E+03  0.34239088765E+03  0.25500000000E-02 0.  1.
    5000001    1    1    2    0    0 -0.96311867961E+02  0.12584331129E+03 -0.15678953923E+03  0.27734540652E+03  0.16500000000E+03 0.  0.
   -5000001    1    1    2    0    0  0.96311867961E+02 -0.12584331129E+03 -0.20918513671E+02  0.22972831589E+03  0.16500000000E+03 0.  0.
<mgrwt>
<rscale>  0 0.47491432E+03</rscale>
<asrwt>0</asrwt>
<pdfrwt beam="1">  1        2 0.52675521E-01 0.47491432E+03</pdfrwt>
<pdfrwt beam="2">  1       -2 0.25335821E-01 0.47491432E+03</pdfrwt>
<totfact> 0.13225806E+03</totfact>
</mgrwt>
</event>
<event>
 4    1  0.9064384E-005  0.7848271E+03  0.7818608E-02  0.9582243E-01
          2   -1    0    0  501    0  0.00000000000E+00  0.00000000000E+00  0.15850819836E+04  0.15850819836E+04  0.25500000000E-02 0.  1.
         -2   -1    0    0    0  501 -0.00000000000E+00 -0.00000000000E+00 -0.97148546620E+02  0.97148546653E+02  0.25500000000E-02 0. -1.
    5000001    1    1    2    0    0 -0.94034755967E+02  0.33318429189E+03  0.92213169691E+03  0.99870224499E+03  0.16500000000E+03 0.  0.
   -5000001    1    1    2    0    0  0.94034755967E+02 -0.33318429189E+03  0.56580174005E+03  0.68352828525E+03  0.16500000000E+03 0.  0.
<mgrwt>
<rscale>  0 0.78482714E+03</rscale>
<asrwt>0</asrwt>
<pdfrwt beam="1">  1        2 0.24385877E+00 0.78482714E+03</pdfrwt>
<pdfrwt beam="2">  1       -2 0.14945930E-01 0.78482714E+03</pdfrwt>
<totfact> 0.40557576E+02</totfact>
</mgrwt>
</event>
<event>
 4    1  0.9064384E-005  0.3811183E+03  0.7818608E-02  0.1050521E+00
         -2   -1    0    0    0  501 -0.00000000000E+00  0.00000000000E+00  0.14609944209E+03  0.14609944211E+03  0.25500000000E-02 0. -1.
          2   -1    0    0  501    0  0.00000000000E+00 -0.00000000000E+00 -0.24854848147E+03  0.24854848149E+03  0.25500000000E-02 0.  1.
    5000001    1    1    2    0    0 -0.43031490408E+02 -0.63595315957E+02  0.72763682829E+01  0.18213736276E+03  0.16500000000E+03 0.  0.
   -5000001    1    1    2    0    0  0.43031490408E+02  0.63595315957E+02 -0.10972540767E+03  0.21251056084E+03  0.16500000000E+03 0.  0.
<mgrwt>
<rscale>  0 0.38111833E+03</rscale>
<asrwt>0</asrwt>
<pdfrwt beam="1">  1        2 0.38238228E-01 0.38111833E+03</pdfrwt>
<pdfrwt beam="2">  1       -2 0.22476837E-01 0.38111833E+03</pdfrwt>
<totfact> 0.23162515E+03</totfact>
</mgrwt>
</event>
<event>
 4    1  0.9064384E-005  0.9140275E+03  0.7818608E-02  0.9408214E-01
          2   -1    0    0  501    0  0.00000000000E+00  0.00000000000E+00  0.14714144536E+04  0.14714144536E+04  0.25500000000E-02 0.  1.
         -2   -1    0    0    0  501 -0.00000000000E+00 -0.00000000000E+00 -0.14194610522E+03  0.14194610524E+03  0.25500000000E-02 0. -1.
    5000001    1    1    2    0    0  0.12730307702E+03 -0.39443710807E+03  0.48955321733E+03  0.66232473776E+03  0.16500000000E+03 0.  0.
   -5000001    1    1    2    0    0 -0.12730307702E+03  0.39443710807E+03  0.83991513109E+03  0.95103582113E+03  0.16500000000E+03 0.  0.
<mgrwt>
<rscale>  0 0.91402746E+03</rscale>
<asrwt>0</asrwt>
<pdfrwt beam="1">  1        2 0.22637146E+00 0.91402746E+03</pdfrwt>
<pdfrwt beam="2">  1       -2 0.21837861E-01 0.91402746E+03</pdfrwt>
<totfact> 0.24146374E+02</totfact>
</mgrwt>
</event>
<event>
 4    1  0.9064384E-005  0.6715981E+03  0.7818608E-02  0.9767075E-01
         -2   -1    0    0    0  501 -0.00000000000E+00  0.00000000000E+00  0.62143246641E+02  0.62143246694E+02  0.25500000000E-02 0. -1.
          2   -1    0    0  501    0  0.00000000000E+00 -0.00000000000E+00 -0.18145334555E+04  0.18145334555E+04  0.25500000000E-02 0.  1.
    5000001    1    1    2    0    0  0.24293469567E+03 -0.12749961925E+03 -0.59311568058E+03  0.67400640191E+03  0.16500000000E+03 0.  0.
   -5000001    1    1    2    0    0 -0.24293469567E+03  0.12749961925E+03 -0.11592745283E+04  0.12026703003E+04  0.16500000000E+03 0.  0.
<mgrwt>
<rscale>  0 0.67159809E+03</rscale>
<asrwt>0</asrwt>
<pdfrwt beam="1">  1        2 0.27915895E+00 0.67159809E+03</pdfrwt>
<pdfrwt beam="2">  1       -2 0.95605009E-02 0.67159809E+03</pdfrwt>
<totfact> 0.64039557E+02</totfact>
</mgrwt>
</event>
<event>
 4    1  0.9064384E-005  0.3683340E+03  0.7818608E-02  0.1055332E+00
         -2   -1    0    0    0  501 -0.00000000000E+00  0.00000000000E+00  0.70300649864E+03  0.70300649864E+03  0.25500000000E-02 0. -1.
          2   -1    0    0  501    0  0.00000000000E+00 -0.00000000000E+00 -0.48246327001E+02  0.48246327069E+02  0.25500000000E-02 0.  1.
    5000001    1    1    2    0    0 -0.17390059128E+02  0.70897052130E+02  0.25206190706E+03  0.30998227554E+03  0.16500000000E+03 0.  0.
   -5000001    1    1    2    0    0  0.17390059128E+02 -0.70897052130E+02  0.40269826458E+03  0.44127055017E+03  0.16500000000E+03 0.  0.
<mgrwt>
<rscale>  0 0.36833399E+03</rscale>
<asrwt>0</asrwt>
<pdfrwt beam="1">  1        2 0.74225117E-02 0.36833399E+03</pdfrwt>
<pdfrwt beam="2">  1       -2 0.10815485E+00 0.36833399E+03</pdfrwt>
<totfact> 0.67127979E+02</totfact>
</mgrwt>
</event>
<event>
 4    1  0.9064384E-005  0.3453788E+03  0.7818608E-02  0.1064528E+00
         -2   -1    0    0    0  501 -0.00000000000E+00  0.00000000000E+00  0.21622267345E+02  0.21622267495E+02  0.25500000000E-02 0. -1.
          2   -1    0    0  501    0  0.00000000000E+00 -0.00000000000E+00 -0.13792087452E+04  0.13792087452E+04  0.25500000000E-02 0.  1.
    5000001    1    1    2    0    0  0.34058589515E+02 -0.36554147065E+02 -0.71943903771E+03  0.73980654374E+03  0.16500000000E+03 0.  0.
   -5000001    1    1    2    0    0 -0.34058589515E+02  0.36554147065E+02 -0.63814744010E+03  0.66102446891E+03  0.16500000000E+03 0.  0.
<mgrwt>
<rscale>  0 0.34537875E+03</rscale>
<asrwt>0</asrwt>
<pdfrwt beam="1">  1        2 0.21218589E+00 0.34537875E+03</pdfrwt>
<pdfrwt beam="2">  1       -2 0.33265038E-02 0.34537875E+03</pdfrwt>
<totfact> 0.57748556E+03</totfact>
</mgrwt>
</event>
<event>
 4    1  0.9064384E-005  0.6736124E+03  0.7818608E-02  0.9763454E-01
         -2   -1    0    0    0  501 -0.00000000000E+00  0.00000000000E+00  0.19693384043E+03  0.19693384045E+03  0.25500000000E-02 0. -1.
          2   -1    0    0  501    0  0.00000000000E+00 -0.00000000000E+00 -0.57602292580E+03  0.57602292581E+03  0.25500000000E-02 0.  1.
    5000001    1    1    2    0    0  0.27213523653E+03 -0.10801086473E+03 -0.21493143628E+03  0.39892913677E+03  0.16500000000E+03 0.  0.
   -5000001    1    1    2    0    0 -0.27213523653E+03  0.10801086473E+03 -0.16415764910E+03  0.37402762949E+03  0.16500000000E+03 0.  0.
<mgrwt>
<rscale>  0 0.67361237E+03</rscale>
<asrwt>0</asrwt>
<pdfrwt beam="1">  1        2 0.88618911E-01 0.67361237E+03</pdfrwt>
<pdfrwt beam="2">  1       -2 0.30297514E-01 0.67361237E+03</pdfrwt>
<totfact> 0.52767437E+02</totfact>
</mgrwt>
</event>
<event>
 4    1  0.9064384E-005  0.6226315E+03  0.7818608E-02  0.9859534E-01
         -2   -1    0    0    0  501 -0.00000000000E+00  0.00000000000E+00  0.15080176886E+03  0.15080176888E+03  0.25500000000E-02 0. -1.
          2   -1    0    0  501    0  0.00000000000E+00 -0.00000000000E+00 -0.64268138135E+03  0.64268138135E+03  0.25500000000E-02 0.  1.
    5000001    1    1    2    0    0 -0.65563722115E+02 -0.24215195921E+03 -0.35069163581E+03  0.46167715607E+03  0.16500000000E+03 0.  0.
   -5000001    1    1    2    0    0  0.65563722115E+02  0.24215195921E+03 -0.14118797668E+03  0.33180599417E+03  0.16500000000E+03 0.  0.
<mgrwt>
<rscale>  0 0.62263148E+03</rscale>
<asrwt>0</asrwt>
<pdfrwt beam="1">  1        2 0.98874057E-01 0.62263148E+03</pdfrwt>
<pdfrwt beam="2">  1       -2 0.23200273E-01 0.62263148E+03</pdfrwt>
<totfact> 0.75167487E+02</totfact>
</mgrwt>
</event>
<event>
 4    1  0.9064384E-005  0.4742699E+03  0.7818608E-02  0.1020722E+00
          2   -1    0    0  501    0  0.00000000000E+00  0.00000000000E+00  0.10690566558E+04  0.10690566558E+04  0.25500000000E-02 0.  1.
         -2   -1    0    0    0  501 -0.00000000000E+00 -0.00000000000E+00 -0.52600569443E+02  0.52600569505E+02  0.25500000000E-02 0. -1.
    5000001    1    1    2    0    0 -0.13608770974E+03 -0.82402046523E+02  0.65204815130E+03  0.69115971644E+03  0.16500000000E+03 0.  0.
   -5000001    1    1    2    0    0  0.13608770974E+03  0.82402046523E+02  0.36440793507E+03  0.43049750888E+03  0.16500000000E+03 0.  0.
<mgrwt>
<rscale>  0 0.47426992E+03</rscale>
<asrwt>0</asrwt>
<pdfrwt beam="1">  1        2 0.16447026E+00 0.47426992E+03</pdfrwt>
<pdfrwt beam="2">  1       -2 0.80923950E-02 0.47426992E+03</pdfrwt>
<totfact> 0.22145005E+03</totfact>
</mgrwt>
</event>
<event>
 4    1  0.9064384E-005  0.6317914E+03  0.7818608E-02  0.9841559E-01
          2   -1    0    0  501    0  0.00000000000E+00  0.00000000000E+00  0.52372150563E+03  0.52372150564E+03  0.25500000000E-02 0.  1.
         -2   -1    0    0    0  501 -0.00000000000E+00 -0.00000000000E+00 -0.19054038269E+03  0.19054038271E+03  0.25500000000E-02 0. -1.
    5000001    1    1    2    0    0  0.44361071834E+02 -0.24611867310E+03  0.53408374663E+02  0.30433494776E+03  0.16500000000E+03 0.  0.
   -5000001    1    1    2    0    0 -0.44361071834E+02  0.24611867310E+03  0.27977274828E+03  0.40992694059E+03  0.16500000000E+03 0.  0.
<mgrwt>
<rscale>  0 0.63179141E+03</rscale>
<asrwt>0</asrwt>
<pdfrwt beam="1">  1        2 0.80572539E-01 0.63179141E+03</pdfrwt>
<pdfrwt beam="2">  1       -2 0.29313905E-01 0.63179141E+03</pdfrwt>
<totfact> 0.62803327E+02</totfact>
</mgrwt>
</event>
<event>
 4    1  0.9064384E-005  0.5439019E+03  0.7818608E-02  0.1002915E+00
         -2   -1    0    0    0  501 -0.00000000000E+00  0.00000000000E+00  0.82172858595E+02  0.82172858635E+02  0.25500000000E-02 0. -1.
          2   -1    0    0  501    0  0.00000000000E+00 -0.00000000000E+00 -0.90002136945E+03  0.90002136945E+03  0.25500000000E-02 0.  1.
    5000001    1    1    2    0    0 -0.21138636727E+03  0.12721542939E+02 -0.48735413721E+03  0.55640371043E+03  0.16500000000E+03 0.  0.
   -5000001    1    1    2    0    0  0.21138636727E+03 -0.12721542939E+02 -0.33049437364E+03  0.42579051766E+03  0.16500000000E+03 0.  0.
<mgrwt>
<rscale>  0 0.54390194E+03</rscale>
<asrwt>0</asrwt>
<pdfrwt beam="1">  1        2 0.13846482E+00 0.54390194E+03</pdfrwt>
<pdfrwt beam="2">  1       -2 0.12641979E-01 0.54390194E+03</pdfrwt>
<totfact> 0.13764858E+03</totfact>
</mgrwt>
</event>
<event>
 4    1  0.9064384E-005  0.6247333E+03  0.7818608E-02  0.9855381E-01
         -2   -1    0    0    0  501 -0.00000000000E+00  0.00000000000E+00  0.13226677372E+03  0.13226677375E+03  0.25500000000E-02 0. -1.
          2   -1    0    0  501    0  0.00000000000E+00 -0.00000000000E+00 -0.73769796730E+03  0.73769796730E+03  0.25500000000E-02 0.  1.
    5000001    1    1    2    0    0  0.20837088404E+03  0.10982678989E+03 -0.47251147335E+03  0.55314775742E+03  0.16500000000E+03 0.  0.
   -5000001    1    1    2    0    0 -0.20837088404E+03 -0.10982678989E+03 -0.13291972022E+03  0.31681698363E+03  0.16500000000E+03 0.  0.
<mgrwt>
<rscale>  0 0.62473332E+03</rscale>
<asrwt>0</asrwt>
<pdfrwt beam="1">  1        2 0.11349199E+00 0.62473332E+03</pdfrwt>
<pdfrwt beam="2">  1       -2 0.20348735E-01 0.62473332E+03</pdfrwt>
<totfact> 0.79738302E+02</totfact>
</mgrwt>
</event>
<event>
 4    1  0.9064384E-005  0.5341669E+03  0.7818608E-02  0.1005227E+00
          2   -1    0    0  501    0  0.00000000000E+00  0.00000000000E+00  0.64331819686E+03  0.64331819687E+03  0.25500000000E-02 0.  1.
         -2   -1    0    0    0  501 -0.00000000000E+00 -0.00000000000E+00 -0.11088380886E+03  0.11088380889E+03  0.25500000000E-02 0. -1.
    5000001    1    1    2    0    0  0.14661396439E+03  0.14929051966E+03  0.24075330039E+03  0.35912458209E+03  0.16500000000E+03 0.  0.
   -5000001    1    1    2    0    0 -0.14661396439E+03 -0.14929051966E+03  0.29168108762E+03  0.39507742367E+03  0.16500000000E+03 0.  0.
<mgrwt>
<rscale>  0 0.53416691E+03</rscale>
<asrwt>0</asrwt>
<pdfrwt beam="1">  1        2 0.98972028E-01 0.53416691E+03</pdfrwt>
<pdfrwt beam="2">  1       -2 0.17059048E-01 0.53416691E+03</pdfrwt>
<totfact> 0.12838354E+03</totfact>
</mgrwt>
</event>
<event>
 4    1  0.9064384E-005  0.4062941E+03  0.7818608E-02  0.1041622E+00
         -2   -1    0    0    0  501 -0.00000000000E+00  0.00000000000E+00  0.90152166951E+02  0.90152166987E+02  0.25500000000E-02 0. -1.
          2   -1    0    0  501    0  0.00000000000E+00 -0.00000000000E+00 -0.45776733304E+03  0.45776733305E+03  0.25500000000E-02 0.  1.
    5000001    1    1    2    0    0  0.10449500339E+03  0.26501988291E+02 -0.11743674119E+03  0.22942961731E+03  0.16500000000E+03 0.  0.
   -5000001    1    1    2    0    0 -0.10449500339E+03 -0.26501988291E+02 -0.25017842489E+03  0.31848988273E+03  0.16500000000E+03 0.  0.
<mgrwt>
<rscale>  0 0.40629407E+03</rscale>
<asrwt>0</asrwt>
<pdfrwt beam="1">  1        2 0.70425743E-01 0.40629407E+03</pdfrwt>
<pdfrwt beam="2">  1       -2 0.13869564E-01 0.40629407E+03</pdfrwt>
<totfact> 0.26966577E+03</totfact>
</mgrwt>
</event>
<event>
 4    1  0.9064384E-005  0.6505789E+03  0.7818608E-02  0.9805694E-01
         -2   -1    0    0    0  501 -0.00000000000E+00  0.00000000000E+00  0.92332685651E+02  0.92332685686E+02  0.25500000000E-02 0. -1.
          2   -1    0    0  501    0  0.00000000000E+00 -0.00000000000E+00 -0.11459995298E+04  0.11459995298E+04  0.25500000000E-02 0.  1.
    5000001    1    1    2    0    0 -0.13815174493E+03  0.15627388113E+03 -0.88334354515E+03  0.92251192367E+03  0.16500000000E+03 0.  0.
   -5000001    1    1    2    0    0  0.13815174493E+03 -0.15627388113E+03 -0.17032329903E+03  0.31582029185E+03  0.16500000000E+03 0.  0.
<mgrwt>
<rscale>  0 0.65057886E+03</rscale>
<asrwt>0</asrwt>
<pdfrwt beam="1">  1        2 0.17630761E+00 0.65057886E+03</pdfrwt>
<pdfrwt beam="2">  1       -2 0.14205029E-01 0.65057886E+03</pdfrwt>
<totfact> 0.79191711E+02</totfact>
</mgrwt>
</event>
<event>
 4    1  0.9064384E-005  0.4736383E+03  0.7818608E-02  0.1020898E+00
         -2   -1    0    0    0  501 -0.00000000000E+00  0.00000000000E+00  0.14620507732E+03  0.14620507734E+03  0.25500000000E-02 0. -1.
          2   -1    0    0  501    0  0.00000000000E+00 -0.00000000000E+00 -0.38359339775E+03  0.38359339775E+03  0.25500000000E-02 0.  1.
    5000001    1    1    2    0    0 -0.82579484868E+02 -0.64493094752E+02 -0.26826346525E+03  0.33191718452E+03  0.16500000000E+03 0.  0.
   -5000001    1    1    2    0    0  0.82579484868E+02  0.64493094752E+02  0.30875144823E+02  0.19788129057E+03  0.16500000000E+03 0.  0.
<mgrwt>
<rscale>  0 0.47363827E+03</rscale>
<asrwt>0</asrwt>
<pdfrwt beam="1">  1        2 0.59014369E-01 0.47363827E+03</pdfrwt>
<pdfrwt beam="2">  1       -2 0.22493089E-01 0.47363827E+03</pdfrwt>
<totfact> 0.14413099E+03</totfact>
</mgrwt>
</event>
<event>
 4    1  0.9064384E-005  0.5305946E+03  0.7818608E-02  0.1006088E+00
          2   -1    0    0  501    0  0.00000000000E+00  0.00000000000E+00  0.18530572694E+03  0.18530572695E+03  0.25500000000E-02 0.  1.
         -2   -1    0    0    0  501 -0.00000000000E+00 -0.00000000000E+00 -0.37981917144E+03  0.37981917145E+03  0.25500000000E-02 0. -1.
    5000001    1    1    2    0    0 -0.44593953669E+02 -0.19977064506E+03 -0.59439143407E+02  0.26954580891E+03  0.16500000000E+03 0.  0.
   -5000001    1    1    2    0    0  0.44593953669E+02  0.19977064506E+03 -0.13507430110E+03  0.29557908950E+03  0.16500000000E+03 0.  0.
<mgrwt>
<rscale>  0 0.53059464E+03</rscale>
<asrwt>0</asrwt>
<pdfrwt beam="1">  1        2 0.28508573E-01 0.53059464E+03</pdfrwt>
<pdfrwt beam="2">  1       -2 0.58433719E-01 0.53059464E+03</pdfrwt>
<totfact> 0.52067037E+02</totfact>
</mgrwt>
</event>
<event>
 4    1  0.9064384E-005  0.6108388E+03  0.7818608E-02  0.9883171E-01
          2   -1    0    0  501    0  0.00000000000E+00  0.00000000000E+00  0.18542250093E+03  0.18542250095E+03  0.25500000000E-02 0.  1.
         -2   -1    0    0    0  501 -0.00000000000E+00 -0.00000000000E+00 -0.50307269183E+03  0.50307269184E+03  0.25500000000E-02 0. -1.
    5000001    1    1    2    0    0  0.68587924490E+02 -0.63909219779E+02  0.11090394058E+03  0.21980303864E+03  0.16500000000E+03 0.  0.
   -5000001    1    1    2    0    0 -0.68587924490E+02  0.63909219779E+02 -0.42855413148E+03  0.46869215415E+03  0.16500000000E+03 0.  0.
<mgrwt>
<rscale>  0 0.61083876E+03</rscale>
<asrwt>0</asrwt>
<pdfrwt beam="1">  1        2 0.28526539E-01 0.61083876E+03</pdfrwt>
<pdfrwt beam="2">  1       -2 0.77395798E-01 0.61083876E+03</pdfrwt>
<totfact> 0.28358909E+02</totfact>
</mgrwt>
</event>
<event>
 4    1  0.9064384E-005  0.5162027E+03  0.7818608E-02  0.1009634E+00
          2   -1    0    0  501    0  0.00000000000E+00  0.00000000000E+00  0.44586309905E+03  0.44586309905E+03  0.25500000000E-02 0.  1.
         -2   -1    0    0    0  501 -0.00000000000E+00 -0.00000000000E+00 -0.14940980597E+03  0.14940980599E+03  0.25500000000E-02 0. -1.
    5000001    1    1    2    0    0 -0.18326411127E+03  0.51154790892E+02  0.83107674167E+02  0.26520639626E+03  0.16500000000E+03 0.  0.
   -5000001    1    1    2    0    0  0.18326411127E+03 -0.51154790892E+02  0.21334561891E+03  0.33006650878E+03  0.16500000000E+03 0.  0.
<mgrwt>
<rscale>  0 0.51620275E+03</rscale>
<asrwt>0</asrwt>
<pdfrwt beam="1">  1        2 0.68594322E-01 0.51620275E+03</pdfrwt>
<pdfrwt beam="2">  1       -2 0.22986124E-01 0.51620275E+03</pdfrwt>
<totfact> 0.11730170E+03</totfact>
</mgrwt>
</event>
<event>
 4    1  0.9064384E-005  0.4104653E+03  0.7818608E-02  0.1040215E+00
         -2   -1    0    0    0  501 -0.00000000000E+00  0.00000000000E+00  0.19617454014E+02  0.19617454179E+02  0.25500000000E-02 0. -1.
          2   -1    0    0  501    0  0.00000000000E+00 -0.00000000000E+00 -0.21470904977E+04  0.21470904977E+04  0.25500000000E-02 0.  1.
    5000001    1    1    2    0    0 -0.79905246027E+02 -0.81510218181E+02 -0.12918019384E+04  0.13072895670E+04  0.16500000000E+03 0.  0.
   -5000001    1    1    2    0    0  0.79905246027E+02  0.81510218181E+02 -0.83567110532E+03  0.85941838488E+03  0.16500000000E+03 0.  0.
<mgrwt>
<rscale>  0 0.41046534E+03</rscale>
<asrwt>0</asrwt>
<pdfrwt beam="1">  1        2 0.33032143E+00 0.41046534E+03</pdfrwt>
<pdfrwt beam="2">  1       -2 0.30180716E-02 0.41046534E+03</pdfrwt>
<totfact> 0.25877883E+03</totfact>
</mgrwt>
</event>
<event>
 4    1  0.9064384E-005  0.4121773E+03  0.7818608E-02  0.1039643E+00
          2   -1    0    0  501    0  0.00000000000E+00  0.00000000000E+00  0.82577887870E+03  0.82577887870E+03  0.25500000000E-02 0.  1.
         -2   -1    0    0    0  501 -0.00000000000E+00 -0.00000000000E+00 -0.51433307897E+02  0.51433307960E+02  0.25500000000E-02 0. -1.
    5000001    1    1    2    0    0  0.41538152472E+02 -0.56709635665E+02  0.17111568984E+03  0.24788501407E+03  0.16500000000E+03 0.  0.
   -5000001    1    1    2    0    0 -0.41538152472E+02  0.56709635665E+02  0.60322988096E+03  0.62932717260E+03  0.16500000000E+03 0.  0.
<mgrwt>
<rscale>  0 0.41217734E+03</rscale>
<asrwt>0</asrwt>
<pdfrwt beam="1">  1        2 0.12704290E+00 0.41217734E+03</pdfrwt>
<pdfrwt beam="2">  1       -2 0.79128169E-02 0.41217734E+03</pdfrwt>
<totfact> 0.32914741E+03</totfact>
</mgrwt>
</event>
<event>
 4    1  0.9064384E-005  0.6584070E+03  0.7818608E-02  0.9791131E-01
          2   -1    0    0  501    0  0.00000000000E+00  0.00000000000E+00  0.44759732585E+03  0.44759732585E+03  0.25500000000E-02 0.  1.
         -2   -1    0    0    0  501 -0.00000000000E+00 -0.00000000000E+00 -0.24212599855E+03  0.24212599856E+03  0.25500000000E-02 0. -1.
    5000001    1    1    2    0    0 -0.21053745433E+03 -0.19163572135E+03  0.11319453203E+03  0.34797740078E+03  0.16500000000E+03 0.  0.
   -5000001    1    1    2    0    0  0.21053745433E+03  0.19163572135E+03  0.92276795268E+02  0.34174592363E+03  0.16500000000E+03 0.  0.
<mgrwt>
<rscale>  0 0.65840702E+03</rscale>
<asrwt>0</asrwt>
<pdfrwt beam="1">  1        2 0.68861127E-01 0.65840702E+03</pdfrwt>
<pdfrwt beam="2">  1       -2 0.37250153E-01 0.65840702E+03</pdfrwt>
<totfact> 0.47909163E+02</totfact>
</mgrwt>
</event>
<event>
 4    1  0.9064384E-005  0.7862569E+03  0.7818608E-02  0.9580126E-01
         -2   -1    0    0    0  501 -0.00000000000E+00  0.00000000000E+00  0.13265020673E+03  0.13265020676E+03  0.25500000000E-02 0. -1.
          2   -1    0    0  501    0  0.00000000000E+00 -0.00000000000E+00 -0.11650939970E+04  0.11650939970E+04  0.25500000000E-02 0.  1.
    5000001    1    1    2    0    0 -0.31171917063E+03  0.14156233122E+03 -0.35021203404E+03  0.51679996493E+03  0.16500000000E+03 0.  0.
   -5000001    1    1    2    0    0  0.31171917063E+03 -0.14156233122E+03 -0.68223175620E+03  0.78094423881E+03  0.16500000000E+03 0.  0.
<mgrwt>
<rscale>  0 0.78625685E+03</rscale>
<asrwt>0</asrwt>
<pdfrwt beam="1">  1        2 0.17924522E+00 0.78625685E+03</pdfrwt>
<pdfrwt beam="2">  1       -2 0.20407725E-01 0.78625685E+03</pdfrwt>
<totfact> 0.41195700E+02</totfact>
</mgrwt>
</event>
<event>
 4    1  0.9064384E-005  0.7076645E+03  0.7818608E-02  0.9704214E-01
          2   -1    0    0  501    0  0.00000000000E+00  0.00000000000E+00  0.11000703983E+04  0.11000703983E+04  0.25500000000E-02 0.  1.
         -2   -1    0    0    0  501 -0.00000000000E+00 -0.00000000000E+00 -0.11380841314E+03  0.11380841317E+03  0.25500000000E-02 0. -1.
    5000001    1    1    2    0    0  0.26643267705E+03  0.87267493431E+02  0.25439612306E+03  0.41297018565E+03  0.16500000000E+03 0.  0.
   -5000001    1    1    2    0    0 -0.26643267705E+03 -0.87267493431E+02  0.73186586207E+03  0.80090862579E+03  0.16500000000E+03 0.  0.
<mgrwt>
<rscale>  0 0.70766451E+03</rscale>
<asrwt>0</asrwt>
<pdfrwt beam="1">  1        2 0.16924160E+00 0.70766451E+03</pdfrwt>
<pdfrwt beam="2">  1       -2 0.17508987E-01 0.70766451E+03</pdfrwt>
<totfact> 0.59057501E+02</totfact>
</mgrwt>
</event>
<event>
 4    1  0.9064384E-005  0.4391250E+03  0.7818608E-02  0.1031016E+00
          2   -1    0    0  501    0  0.00000000000E+00  0.00000000000E+00  0.14208870869E+03  0.14208870872E+03  0.25500000000E-02 0.  1.
         -2   -1    0    0    0  501 -0.00000000000E+00 -0.00000000000E+00 -0.33927890978E+03  0.33927890979E+03  0.25500000000E-02 0. -1.
    5000001    1    1    2    0    0 -0.73700029947E+02  0.80547444020E+02  0.57633097338E+01  0.19793382958E+03  0.16500000000E+03 0.  0.
   -5000001    1    1    2    0    0  0.73700029947E+02 -0.80547444020E+02 -0.20295351082E+03  0.28343378893E+03  0.16500000000E+03 0.  0.
<mgrwt>
<rscale>  0 0.43912505E+03</rscale>
<asrwt>0</asrwt>
<pdfrwt beam="1">  1        2 0.21859801E-01 0.43912505E+03</pdfrwt>
<pdfrwt beam="2">  1       -2 0.52196755E-01 0.43912505E+03</pdfrwt>
<totfact> 0.88901521E+02</totfact>
</mgrwt>
</event>
<event>
 4    1  0.9064384E-005  0.3813310E+03  0.7818608E-02  0.1050443E+00
         -2   -1    0    0    0  501 -0.00000000000E+00  0.00000000000E+00  0.43483917314E+02  0.43483917389E+02  0.25500000000E-02 0. -1.
          2   -1    0    0  501    0  0.00000000000E+00 -0.00000000000E+00 -0.83601802573E+03  0.83601802574E+03  0.25500000000E-02 0.  1.
    5000001    1    1    2    0    0 -0.69524684938E+02  0.65611542722E+01 -0.24587971589E+03  0.30423439196E+03  0.16500000000E+03 0.  0.
   -5000001    1    1    2    0    0  0.69524684938E+02 -0.65611542722E+01 -0.54665439253E+03  0.57526755117E+03  0.16500000000E+03 0.  0.
<mgrwt>
<rscale>  0 0.38133103E+03</rscale>
<asrwt>0</asrwt>
<pdfrwt beam="1">  1        2 0.12861815E+00 0.38133103E+03</pdfrwt>
<pdfrwt beam="2">  1       -2 0.66898341E-02 0.38133103E+03</pdfrwt>
<totfact> 0.42107167E+03</totfact>
</mgrwt>
</event>
<event>
 4    1  0.9064384E-005  0.9588440E+03  0.7818608E-02  0.9354873E-01
          2   -1    0    0  501    0  0.00000000000E+00  0.00000000000E+00  0.36468299249E+04  0.36468299249E+04  0.25500000000E-02 0.  1.
         -2   -1    0    0    0  501 -0.00000000000E+00 -0.00000000000E+00 -0.63026100430E+02  0.63026100481E+02  0.25500000000E-02 0. -1.
    5000001    1    1    2    0    0  0.82507485869E+02  0.30618809819E+03  0.30279653693E+04  0.30489929345E+04  0.16500000000E+03 0.  0.
   -5000001    1    1    2    0    0 -0.82507485869E+02 -0.30618809819E+03  0.55583845517E+03  0.66086309092E+03  0.16500000000E+03 0.  0.
<mgrwt>
<rscale>  0 0.95884403E+03</rscale>
<asrwt>0</asrwt>
<pdfrwt beam="1">  1        2 0.56105067E+00 0.95884403E+03</pdfrwt>
<pdfrwt beam="2">  1       -2 0.96963247E-02 0.95884403E+03</pdfrwt>
<totfact> 0.48477977E+01</totfact>
</mgrwt>
</event>
<event>
 4    1  0.9064384E-005  0.4670186E+03  0.7818608E-02  0.1022765E+00
          2   -1    0    0  501    0  0.00000000000E+00  0.00000000000E+00  0.27820322303E+04  0.27820322303E+04  0.25500000000E-02 0.  1.
         -2   -1    0    0    0  501 -0.00000000000E+00 -0.00000000000E+00 -0.19599556674E+02  0.19599556840E+02  0.25500000000E-02 0. -1.
    5000001    1    1    2    0    0  0.13507400232E+03  0.90843493633E+02  0.15513241928E+04  0.15685436805E+04  0.16500000000E+03 0.  0.
   -5000001    1    1    2    0    0 -0.13507400232E+03 -0.90843493633E+02  0.12111084808E+04  0.12330881067E+04  0.16500000000E+03 0.  0.
<mgrwt>
<rscale>  0 0.46701862E+03</rscale>
<asrwt>0</asrwt>
<pdfrwt beam="1">  1        2 0.42800513E+00 0.46701862E+03</pdfrwt>
<pdfrwt beam="2">  1       -2 0.30153152E-02 0.46701862E+03</pdfrwt>
<totfact> 0.11437776E+03</totfact>
</mgrwt>
</event>
<event>
 4    1  0.9064384E-005  0.3817431E+03  0.7818608E-02  0.1050291E+00
          2   -1    0    0  501    0  0.00000000000E+00  0.00000000000E+00  0.18160943043E+04  0.18160943043E+04  0.25500000000E-02 0.  1.
         -2   -1    0    0    0  501 -0.00000000000E+00 -0.00000000000E+00 -0.20060599002E+02  0.20060599164E+02  0.25500000000E-02 0. -1.
    5000001    1    1    2    0    0  0.44855633651E+01  0.92319286961E+02  0.77407671273E+03  0.79684548578E+03  0.16500000000E+03 0.  0.
   -5000001    1    1    2    0    0 -0.44855633651E+01 -0.92319286961E+02  0.10219569926E+04  0.10393094177E+04  0.16500000000E+03 0.  0.
<mgrwt>
<rscale>  0 0.38174305E+03</rscale>
<asrwt>0</asrwt>
<pdfrwt beam="1">  1        2 0.27939908E+00 0.38174305E+03</pdfrwt>
<pdfrwt beam="2">  1       -2 0.30862465E-02 0.38174305E+03</pdfrwt>
<totfact> 0.37627982E+03</totfact>
</mgrwt>
</event>
<event>
 4    1  0.9064384E-005  0.4769540E+03  0.7818608E-02  0.1019976E+00
          2   -1    0    0  501    0  0.00000000000E+00  0.00000000000E+00  0.21462654770E+04  0.21462654770E+04  0.25500000000E-02 0.  1.
         -2   -1    0    0    0  501 -0.00000000000E+00 -0.00000000000E+00 -0.26497785518E+02  0.26497785641E+02  0.25500000000E-02 0. -1.
    5000001    1    1    2    0    0 -0.13594406272E+03  0.97997918277E+02  0.12399212847E+04  0.12620278018E+04  0.16500000000E+03 0.  0.
   -5000001    1    1    2    0    0  0.13594406272E+03 -0.97997918277E+02  0.87984640680E+03  0.91073546090E+03  0.16500000000E+03 0.  0.
<mgrwt>
<rscale>  0 0.47695401E+03</rscale>
<asrwt>0</asrwt>
<pdfrwt beam="1">  1        2 0.33019485E+00 0.47695401E+03</pdfrwt>
<pdfrwt beam="2">  1       -2 0.40765804E-02 0.47695401E+03</pdfrwt>
<totfact> 0.16352123E+03</totfact>
</mgrwt>
</event>
<event>
 4    1  0.9064384E-005  0.4830593E+03  0.7818608E-02  0.1018298E+00
         -2   -1    0    0    0  501 -0.00000000000E+00  0.00000000000E+00  0.31186195461E+02  0.31186195566E+02  0.25500000000E-02 0. -1.
          2   -1    0    0  501    0  0.00000000000E+00 -0.00000000000E+00 -0.18705897121E+04  0.18705897121E+04  0.25500000000E-02 0.  1.
    5000001    1    1    2    0    0  0.14601950978E+03 -0.96040981895E+02 -0.10133652975E+04  0.10414796175E+04  0.16500000000E+03 0.  0.
   -5000001    1    1    2    0    0 -0.14601950978E+03  0.96040981895E+02 -0.82603821911E+03  0.86029629016E+03  0.16500000000E+03 0.  0.
<mgrwt>
<rscale>  0 0.48305932E+03</rscale>
<asrwt>0</asrwt>
<pdfrwt beam="1">  1        2 0.28778295E+00 0.48305932E+03</pdfrwt>
<pdfrwt beam="2">  1       -2 0.47978777E-02 0.48305932E+03</pdfrwt>
<totfact> 0.17911866E+03</totfact>
</mgrwt>
</event>
<event>
 4    1  0.9064384E-005  0.3664769E+03  0.7818608E-02  0.1056048E+00
         -2   -1    0    0    0  501 -0.00000000000E+00  0.00000000000E+00  0.72426075554E+02  0.72426075599E+02  0.25500000000E-02 0. -1.
          2   -1    0    0  501    0  0.00000000000E+00 -0.00000000000E+00 -0.46359441697E+03  0.46359441697E+03  0.25500000000E-02 0.  1.
    5000001    1    1    2    0    0 -0.26878447514E+02  0.67343792619E+02 -0.24395475520E+03  0.30330934692E+03  0.16500000000E+03 0.  0.
   -5000001    1    1    2    0    0  0.26878447514E+02 -0.67343792619E+02 -0.14721358622E+03  0.23271114565E+03  0.16500000000E+03 0.  0.
<mgrwt>
<rscale>  0 0.36647687E+03</rscale>
<asrwt>0</asrwt>
<pdfrwt beam="1">  1        2 0.71322216E-01 0.36647687E+03</pdfrwt>
<pdfrwt beam="2">  1       -2 0.11142473E-01 0.36647687E+03</pdfrwt>
<totfact> 0.37968259E+03</totfact>
</mgrwt>
</event>
<event>
 4    1  0.9064384E-005  0.6692559E+03  0.7818608E-02  0.9771303E-01
         -2   -1    0    0    0  501 -0.00000000000E+00  0.00000000000E+00  0.55060293410E+02  0.55060293469E+02  0.25500000000E-02 0. -1.
          2   -1    0    0  501    0  0.00000000000E+00 -0.00000000000E+00 -0.20336952413E+04  0.20336952413E+04  0.25500000000E-02 0.  1.
    5000001    1    1    2    0    0  0.53608461991E+01 -0.28724389983E+03 -0.84249517343E+03  0.90529603662E+03  0.16500000000E+03 0.  0.
   -5000001    1    1    2    0    0 -0.53608461991E+01  0.28724389983E+03 -0.11361397745E+04  0.11834594982E+04  0.16500000000E+03 0.  0.
<mgrwt>
<rscale>  0 0.66925588E+03</rscale>
<asrwt>0</asrwt>
<pdfrwt beam="1">  1        2 0.31287613E+00 0.66925588E+03</pdfrwt>
<pdfrwt beam="2">  1       -2 0.84708160E-02 0.66925588E+03</pdfrwt>
<totfact> 0.59179123E+02</totfact>
</mgrwt>
</event>
<event>
 4    1  0.9064384E-005  0.5358867E+03  0.7818608E-02  0.1004814E+00
          2   -1    0    0  501    0  0.00000000000E+00  0.00000000000E+00  0.40844803029E+03  0.40844803030E+03  0.25500000000E-02 0.  1.
         -2   -1    0    0    0  501 -0.00000000000E+00 -0.00000000000E+00 -0.17577178361E+03  0.17577178363E+03  0.25500000000E-02 0. -1.
    5000001    1    1    2    0    0 -0.13353477775E+02  0.18630832129E+03  0.90799237805E+01  0.24939236349E+03  0.16500000000E+03 0.  0.
   -5000001    1    1    2    0    0  0.13353477775E+02 -0.18630832129E+03  0.22359632290E+03  0.33482745044E+03  0.16500000000E+03 0.  0.
<mgrwt>
<rscale>  0 0.53588670E+03</rscale>
<asrwt>0</asrwt>
<pdfrwt beam="1">  1        2 0.62838158E-01 0.53588670E+03</pdfrwt>
<pdfrwt beam="2">  1       -2 0.27041813E-01 0.53588670E+03</pdfrwt>
<totfact> 0.96730234E+02</totfact>
</mgrwt>
</event>
<event>
 4    1  0.9064384E-005  0.9655071E+03  0.7818608E-02  0.9347207E-01
          2   -1    0    0  501    0  0.00000000000E+00  0.00000000000E+00  0.94862039479E+03  0.94862039480E+03  0.25500000000E-02 0. -1.
         -2   -1    0    0    0  501 -0.00000000000E+00 -0.00000000000E+00 -0.24567359249E+03  0.24567359250E+03  0.25500000000E-02 0.  1.
    5000001    1    1    2    0    0 -0.36901012707E+03  0.10596920933E+02  0.67767748955E+03  0.78914672175E+03  0.16500000000E+03 0.  0.
   -5000001    1    1    2    0    0  0.36901012707E+03 -0.10596920933E+02  0.25269312758E+02  0.40514726555E+03  0.16500000000E+03 0.  0.
<mgrwt>
<rscale>  0 0.96550708E+03</rscale>
<asrwt>0</asrwt>
<pdfrwt beam="1">  1        2 0.14594160E+00 0.96550708E+03</pdfrwt>
<pdfrwt beam="2">  1       -2 0.37795937E-01 0.96550708E+03</pdfrwt>
<totfact> 0.17954448E+02</totfact>
</mgrwt>
</event>
<event>
 4    1  0.9064384E-005  0.4710964E+03  0.7818608E-02  0.1021611E+00
          2   -1    0    0  501    0  0.00000000000E+00  0.00000000000E+00  0.42884754648E+03  0.42884754648E+03  0.25500000000E-02 0.  1.
         -2   -1    0    0    0  501 -0.00000000000E+00 -0.00000000000E+00 -0.12937686363E+03  0.12937686366E+03  0.25500000000E-02 0. -1.
    5000001    1    1    2    0    0 -0.16706947680E+03  0.12652751876E+02  0.13359009823E+03  0.27045076549E+03  0.16500000000E+03 0.  0.
   -5000001    1    1    2    0    0  0.16706947680E+03 -0.12652751876E+02  0.16588058461E+03  0.28777364466E+03  0.16500000000E+03 0.  0.
<mgrwt>
<rscale>  0 0.47109638E+03</rscale>
<asrwt>0</asrwt>
<pdfrwt beam="1">  1        2 0.65976546E-01 0.47109638E+03</pdfrwt>
<pdfrwt beam="2">  1       -2 0.19904133E-01 0.47109638E+03</pdfrwt>
<totfact> 0.15763874E+03</totfact>
</mgrwt>
</event>
<event>
 4    1  0.9064384E-005  0.6399540E+03  0.7818608E-02  0.9825815E-01
          2   -1    0    0  501    0  0.00000000000E+00  0.00000000000E+00  0.87427341388E+02  0.87427341425E+02  0.25500000000E-02 0.  1.
         -2   -1    0    0    0  501 -0.00000000000E+00 -0.00000000000E+00 -0.11710898411E+04  0.11710898411E+04  0.25500000000E-02 0. -1.
    5000001    1    1    2    0    0  0.79675700852E+02  0.25339076376E+03 -0.67528582735E+03  0.74417138153E+03  0.16500000000E+03 0.  0.
   -5000001    1    1    2    0    0 -0.79675700852E+02 -0.25339076376E+03 -0.40837667232E+03  0.51434580096E+03  0.16500000000E+03 0.  0.
<mgrwt>
<rscale>  0 0.63995397E+03</rscale>
<asrwt>0</asrwt>
<pdfrwt beam="1">  1        2 0.13450361E-01 0.63995397E+03</pdfrwt>
<pdfrwt beam="2">  1       -2 0.18016766E+00 0.63995397E+03</pdfrwt>
<totfact> 0.84532297E+01</totfact>
</mgrwt>
</event>
<event>
 4    1  0.9064384E-005  0.4309956E+03  0.7818608E-02  0.1033546E+00
         -2   -1    0    0    0  501 -0.00000000000E+00  0.00000000000E+00  0.26685121806E+03  0.26685121807E+03  0.25500000000E-02 0. -1.
          2   -1    0    0  501    0  0.00000000000E+00 -0.00000000000E+00 -0.17402697294E+03  0.17402697296E+03  0.25500000000E-02 0.  1.
    5000001    1    1    2    0    0  0.40023139368E+02  0.11438241815E+03  0.11525399553E+03  0.23493333683E+03  0.16500000000E+03 0.  0.
   -5000001    1    1    2    0    0 -0.40023139368E+02 -0.11438241815E+03 -0.22429750412E+02  0.20594485420E+03  0.16500000000E+03 0.  0.
<mgrwt>
<rscale>  0 0.43099564E+03</rscale>
<asrwt>0</asrwt>
<pdfrwt beam="1">  1        2 0.26773381E-01 0.43099564E+03</pdfrwt>
<pdfrwt beam="2">  1       -2 0.41054033E-01 0.43099564E+03</pdfrwt>
<totfact> 0.11366649E+03</totfact>
</mgrwt>
</event>
<event>
 4    1  0.9064384E-005  0.4310409E+03  0.7818608E-02  0.1033532E+00
         -2   -1    0    0    0  501 -0.00000000000E+00  0.00000000000E+00  0.46092434000E+03  0.46092434001E+03  0.25500000000E-02 0. -1.
          2   -1    0    0  501    0  0.00000000000E+00 -0.00000000000E+00 -0.10077375128E+03  0.10077375131E+03  0.25500000000E-02 0.  1.
    5000001    1    1    2    0    0  0.77748229173E+02  0.94774257036E+02  0.95652345275E+02  0.22671858789E+03  0.16500000000E+03 0.  0.
   -5000001    1    1    2    0    0 -0.77748229173E+02 -0.94774257036E+02  0.26449824344E+03  0.33497950343E+03  0.16500000000E+03 0.  0.
<mgrwt>
<rscale>  0 0.43104095E+03</rscale>
<asrwt>0</asrwt>
<pdfrwt beam="1">  1        2 0.15503654E-01 0.43104095E+03</pdfrwt>
<pdfrwt beam="2">  1       -2 0.70911437E-01 0.43104095E+03</pdfrwt>
<totfact> 0.69949961E+02</totfact>
</mgrwt>
</event>
<event>
 4    1  0.9064384E-005  0.5570482E+03  0.7818608E-02  0.9998756E-01
         -2   -1    0    0    0  501 -0.00000000000E+00  0.00000000000E+00  0.23666501004E+03  0.23666501005E+03  0.25500000000E-02 0. -1.
          2   -1    0    0  501    0  0.00000000000E+00 -0.00000000000E+00 -0.32778680092E+03  0.32778680093E+03  0.25500000000E-02 0.  1.
    5000001    1    1    2    0    0 -0.18998771247E+02 -0.99123040759E+02 -0.24863493742E+03  0.31500898817E+03  0.16500000000E+03 0.  0.
   -5000001    1    1    2    0    0  0.18998771247E+02  0.99123040759E+02  0.15751314654E+03  0.24944282281E+03  0.16500000000E+03 0.  0.
<mgrwt>
<rscale>  0 0.55704817E+03</rscale>
<asrwt>0</asrwt>
<pdfrwt beam="1">  1        2 0.50428739E-01 0.55704817E+03</pdfrwt>
<pdfrwt beam="2">  1       -2 0.36410001E-01 0.55704817E+03</pdfrwt>
<totfact> 0.71008084E+02</totfact>
</mgrwt>
</event>
<event>
 4    1  0.9064384E-005  0.7258096E+03  0.7818608E-02  0.9674085E-01
         -2   -1    0    0    0  501 -0.00000000000E+00  0.00000000000E+00  0.55591685375E+03  0.55591685375E+03  0.25500000000E-02 0. -1.
          2   -1    0    0  501    0  0.00000000000E+00 -0.00000000000E+00 -0.23690574675E+03  0.23690574677E+03  0.25500000000E-02 0.  1.
    5000001    1    1    2    0    0 -0.71897834466E+02 -0.29484361620E+03  0.28100883846E+03  0.44530104863E+03  0.16500000000E+03 0.  0.
   -5000001    1    1    2    0    0  0.71897834466E+02  0.29484361620E+03  0.38002268535E+02  0.34752155189E+03  0.16500000000E+03 0.  0.
<mgrwt>
<rscale>  0 0.72580961E+03</rscale>
<asrwt>0</asrwt>
<pdfrwt beam="1">  1        2 0.36447038E-01 0.72580961E+03</pdfrwt>
<pdfrwt beam="2">  1       -2 0.85525670E-01 0.72580961E+03</pdfrwt>
<totfact> 0.17142556E+02</totfact>
</mgrwt>
</event>
<event>
 4    1  0.9064384E-005  0.5505998E+03  0.7818608E-02  0.1001355E+00
         -2   -1    0    0    0  501 -0.00000000000E+00  0.00000000000E+00  0.16767390330E+03  0.16767390332E+03  0.25500000000E-02 0.  1.
          2   -1    0    0  501    0  0.00000000000E+00 -0.00000000000E+00 -0.45200858142E+03  0.45200858142E+03  0.25500000000E-02 0. -1.
    5000001    1    1    2    0    0  0.96370664152E+02  0.19028759179E+03 -0.20451024766E+03  0.33844661898E+03  0.16500000000E+03 0.  0.
   -5000001    1    1    2    0    0 -0.96370664152E+02 -0.19028759179E+03 -0.79824430455E+02  0.28123586577E+03  0.16500000000E+03 0.  0.
<mgrwt>
<rscale>  0 0.55059983E+03</rscale>
<asrwt>0</asrwt>
<pdfrwt beam="1">  1        2 0.69539781E-01 0.55059983E+03</pdfrwt>
<pdfrwt beam="2">  1       -2 0.25795985E-01 0.55059983E+03</pdfrwt>
<totfact> 0.93989280E+02</totfact>
</mgrwt>
</event>
<event>
 4    1  0.9064384E-005  0.1326806E+04  0.7818608E-02  0.9008574E-01
          2   -1    0    0  501    0  0.00000000000E+00  0.00000000000E+00  0.18206516442E+04  0.18206516442E+04  0.25500000000E-02 0.  1.
         -2   -1    0    0    0  501 -0.00000000000E+00 -0.00000000000E+00 -0.24172861175E+03  0.24172861176E+03  0.25500000000E-02 0. -1.
    5000001    1    1    2    0    0  0.49326545628E+03  0.40393226481E+03  0.91387631103E+03  0.11264399659E+04  0.16500000000E+03 0.  0.
   -5000001    1    1    2    0    0 -0.49326545628E+03 -0.40393226481E+03  0.66504672144E+03  0.93594029009E+03  0.16500000000E+03 0.  0.
<mgrwt>
<rscale>  0 0.13268061E+04</rscale>
<asrwt>0</asrwt>
<pdfrwt beam="1">  1        2 0.28010025E+00 0.13268061E+04</pdfrwt>
<pdfrwt beam="2">  1       -2 0.37189018E-01 0.13268061E+04</pdfrwt>
<totfact> 0.56051217E+01</totfact>
</mgrwt>
</event>
<event>
 4    1  0.9064384E-005  0.3932775E+03  0.7818608E-02  0.1046133E+00
         -2   -1    0    0    0  501 -0.00000000000E+00  0.00000000000E+00  0.13847293142E+03  0.13847293144E+03  0.25500000000E-02 0. -1.
          2   -1    0    0  501    0  0.00000000000E+00 -0.00000000000E+00 -0.27923716825E+03  0.27923716826E+03  0.25500000000E-02 0.  1.
    5000001    1    1    2    0    0 -0.58355792898E+02 -0.89416739333E+02 -0.63578092882E+02  0.20656215949E+03  0.16500000000E+03 0.  0.
   -5000001    1    1    2    0    0  0.58355792898E+02  0.89416739333E+02 -0.77186143948E+02  0.21114794021E+03  0.16500000000E+03 0.  0.
<mgrwt>
<rscale>  0 0.39327746E+03</rscale>
<asrwt>0</asrwt>
<pdfrwt beam="1">  1        2 0.42959564E-01 0.39327746E+03</pdfrwt>
<pdfrwt beam="2">  1       -2 0.21303528E-01 0.39327746E+03</pdfrwt>
<totfact> 0.22411838E+03</totfact>
</mgrwt>
</event>
<event>
 4    1  0.9064384E-005  0.3908629E+03  0.7818608E-02  0.1046990E+00
          2   -1    0    0  501    0  0.00000000000E+00  0.00000000000E+00  0.91501167417E+03  0.91501167417E+03  0.25500000000E-02 0.  1.
         -2   -1    0    0    0  501 -0.00000000000E+00 -0.00000000000E+00 -0.41740937091E+02  0.41740937169E+02  0.25500000000E-02 0. -1.
    5000001    1    1    2    0    0 -0.77521498261E-01  0.96945732598E+02  0.33964691170E+03  0.38985061974E+03  0.16500000000E+03 0.  0.
   -5000001    1    1    2    0    0  0.77521498261E-01 -0.96945732598E+02  0.53362382538E+03  0.56690199161E+03  0.16500000000E+03 0.  0.
<mgrwt>
<rscale>  0 0.39086286E+03</rscale>
<asrwt>0</asrwt>
<pdfrwt beam="1">  1        2 0.14077102E+00 0.39086286E+03</pdfrwt>
<pdfrwt beam="2">  1       -2 0.64216831E-02 0.39086286E+03</pdfrwt>
<totfact> 0.39768581E+03</totfact>
</mgrwt>
</event>
<event>
 4    1  0.9064384E-005  0.5321603E+03  0.7818608E-02  0.1005710E+00
         -2   -1    0    0    0  501 -0.00000000000E+00  0.00000000000E+00  0.32827090707E+02  0.32827090806E+02  0.25500000000E-02 0.  1.
          2   -1    0    0  501    0  0.00000000000E+00 -0.00000000000E+00 -0.21567139470E+04  0.21567139470E+04  0.25500000000E-02 0. -1.
    5000001    1    1    2    0    0 -0.69111570008E+02 -0.88079202473E+02 -0.17868240799E+04  0.17979153616E+04  0.16500000000E+03 0.  0.
   -5000001    1    1    2    0    0  0.69111570008E+02  0.88079202473E+02 -0.33706277632E+03  0.39162567612E+03  0.16500000000E+03 0.  0.
<mgrwt>
<rscale>  0 0.53216029E+03</rscale>
<asrwt>0</asrwt>
<pdfrwt beam="1">  1        2 0.33180203E+00 0.53216029E+03</pdfrwt>
<pdfrwt beam="2">  1       -2 0.50503233E-02 0.53216029E+03</pdfrwt>
<totfact> 0.11566199E+03</totfact>
</mgrwt>
</event>
<event>
 4    1  0.9064384E-005  0.6566712E+03  0.7818608E-02  0.9794341E-01
          2   -1    0    0  501    0  0.00000000000E+00  0.00000000000E+00  0.15123092599E+03  0.15123092601E+03  0.25500000000E-02 0. -1.
         -2   -1    0    0    0  501 -0.00000000000E+00 -0.00000000000E+00 -0.71284547234E+03  0.71284547234E+03  0.25500000000E-02 0.  1.
    5000001    1    1    2    0    0  0.16763840319E+03  0.22706792592E+03 -0.24096516440E+03  0.40614244750E+03  0.16500000000E+03 0.  0.
   -5000001    1    1    2    0    0 -0.16763840319E+03 -0.22706792592E+03 -0.32064938195E+03  0.45793395086E+03  0.16500000000E+03 0.  0.
<mgrwt>
<rscale>  0 0.65667124E+03</rscale>
<asrwt>0</asrwt>
<pdfrwt beam="1">  1        2 0.23266297E-01 0.65667124E+03</pdfrwt>
<pdfrwt beam="2">  1       -2 0.10966853E+00 0.65667124E+03</pdfrwt>
<totfact> 0.15945207E+02</totfact>
</mgrwt>
</event>
<event>
 4    1  0.9064384E-005  0.4311979E+03  0.7818608E-02  0.1033482E+00
          2   -1    0    0  501    0  0.00000000000E+00  0.00000000000E+00  0.10408200479E+04  0.10408200479E+04  0.25500000000E-02 0.  1.
         -2   -1    0    0    0  501 -0.00000000000E+00 -0.00000000000E+00 -0.44659895155E+02  0.44659895228E+02  0.25500000000E-02 0. -1.
    5000001    1    1    2    0    0  0.12286217323E+03  0.52945899497E+02  0.59089972285E+03  0.62792186166E+03  0.16500000000E+03 0.  0.
   -5000001    1    1    2    0    0 -0.12286217323E+03 -0.52945899497E+02  0.40526042991E+03  0.45755808149E+03  0.16500000000E+03 0.  0.
<mgrwt>
<rscale>  0 0.43119793E+03</rscale>
<asrwt>0</asrwt>
<pdfrwt beam="1">  1        2 0.16012615E+00 0.43119793E+03</pdfrwt>
<pdfrwt beam="2">  1       -2 0.68707535E-02 0.43119793E+03</pdfrwt>
<totfact> 0.29827475E+03</totfact>
</mgrwt>
</event>
<event>
 4    1  0.9064384E-005  0.6219975E+03  0.7818608E-02  0.9860791E-01
         -2   -1    0    0    0  501 -0.00000000000E+00  0.00000000000E+00  0.28099797332E+02  0.28099797448E+02  0.25500000000E-02 0. -1.
          2   -1    0    0  501    0  0.00000000000E+00 -0.00000000000E+00 -0.34420251778E+04  0.34420251778E+04  0.25500000000E-02 0.  1.
    5000001    1    1    2    0    0  0.13159208959E+01 -0.24465552656E+03 -0.11592776805E+04  0.11962473820E+04  0.16500000000E+03 0.  0.
   -5000001    1    1    2    0    0 -0.13159208959E+01  0.24465552656E+03 -0.22546477000E+04  0.22738775933E+04  0.16500000000E+03 0.  0.
<mgrwt>
<rscale>  0 0.62199746E+03</rscale>
<asrwt>0</asrwt>
<pdfrwt beam="1">  1        2 0.52954200E+00 0.62199746E+03</pdfrwt>
<pdfrwt beam="2">  1       -2 0.43230485E-02 0.62199746E+03</pdfrwt>
<totfact> 0.25197554E+02</totfact>
</mgrwt>
</event>
<event>
 4    1  0.9064384E-005  0.5409827E+03  0.7818608E-02  0.1003603E+00
          2   -1    0    0  501    0  0.00000000000E+00  0.00000000000E+00  0.11951982863E+04  0.11951982863E+04  0.25500000000E-02 0.  1.
         -2   -1    0    0    0  501 -0.00000000000E+00 -0.00000000000E+00 -0.61216255387E+02  0.61216255440E+02  0.25500000000E-02 0. -1.
    5000001    1    1    2    0    0  0.69753826189E+02 -0.55014761877E+02  0.10200111170E+04  0.10370823975E+04  0.16500000000E+03 0.  0.
   -5000001    1    1    2    0    0 -0.69753826189E+02  0.55014761877E+02  0.11397091386E+03  0.21933214425E+03  0.16500000000E+03 0.  0.
<mgrwt>
<rscale>  0 0.54098267E+03</rscale>
<asrwt>0</asrwt>
<pdfrwt beam="1">  1        2 0.18387666E+00 0.54098267E+03</pdfrwt>
<pdfrwt beam="2">  1       -2 0.94178855E-02 0.54098267E+03</pdfrwt>
<totfact> 0.14595251E+03</totfact>
</mgrwt>
</event>
<event>
 4    1  0.9064384E-005  0.5390019E+03  0.7818608E-02  0.1004072E+00
         -2   -1    0    0    0  501 -0.00000000000E+00  0.00000000000E+00  0.52580950490E+02  0.52580950552E+02  0.25500000000E-02 0. -1.
          2   -1    0    0  501    0  0.00000000000E+00 -0.00000000000E+00 -0.13813131292E+04  0.13813131292E+04  0.25500000000E-02 0.  1.
    5000001    1    1    2    0    0  0.68711724512E+02 -0.11256945879E+03 -0.21911674186E+03  0.30435231344E+03  0.16500000000E+03 0.  0.
   -5000001    1    1    2    0    0 -0.68711724512E+02  0.11256945879E+03 -0.11096154369E+04  0.11295417663E+04  0.16500000000E+03 0.  0.
<mgrwt>
<rscale>  0 0.53900188E+03</rscale>
<asrwt>0</asrwt>
<pdfrwt beam="1">  1        2 0.21250968E+00 0.53900188E+03</pdfrwt>
<pdfrwt beam="2">  1       -2 0.80893781E-02 0.53900188E+03</pdfrwt>
<totfact> 0.14571691E+03</totfact>
</mgrwt>
</event>
<event>
 4    1  0.9064384E-005  0.3760321E+03  0.7818608E-02  0.1052410E+00
         -2   -1    0    0    0  501 -0.00000000000E+00  0.00000000000E+00  0.15161771786E+03  0.15161771788E+03  0.25500000000E-02 0.  1.
          2   -1    0    0  501    0  0.00000000000E+00 -0.00000000000E+00 -0.23315234109E+03  0.23315234110E+03  0.25500000000E-02 0. -1.
    5000001    1    1    2    0    0  0.67378039318E+02  0.55714311984E+02 -0.18322671324E+02  0.18762890243E+03  0.16500000000E+03 0.  0.
   -5000001    1    1    2    0    0 -0.67378039318E+02 -0.55714311984E+02 -0.63211951909E+02  0.19714115655E+03  0.16500000000E+03 0.  0.
<mgrwt>
<rscale>  0 0.37603205E+03</rscale>
<asrwt>0</asrwt>
<pdfrwt beam="1">  1        2 0.35869591E-01 0.37603205E+03</pdfrwt>
<pdfrwt beam="2">  1       -2 0.23325803E-01 0.37603205E+03</pdfrwt>
<totfact> 0.23271785E+03</totfact>
</mgrwt>
</event>
<event>
 4    1  0.9064384E-005  0.6667352E+03  0.7818608E-02  0.9775874E-01
         -2   -1    0    0    0  501 -0.00000000000E+00  0.00000000000E+00  0.82534547864E+02  0.82534547903E+02  0.25500000000E-02 0. -1.
          2   -1    0    0  501    0  0.00000000000E+00 -0.00000000000E+00 -0.13465141941E+04  0.13465141942E+04  0.25500000000E-02 0.  1.
    5000001    1    1    2    0    0  0.24308563632E+03 -0.14436806577E+03 -0.76714305900E+03  0.83406608729E+03  0.16500000000E+03 0.  0.
   -5000001    1    1    2    0    0 -0.24308563632E+03  0.14436806577E+03 -0.49683658729E+03  0.59498265476E+03  0.16500000000E+03 0.  0.
<mgrwt>
<rscale>  0 0.66673515E+03</rscale>
<asrwt>0</asrwt>
<pdfrwt beam="1">  1        2 0.20715601E+00 0.66673515E+03</pdfrwt>
<pdfrwt beam="2">  1       -2 0.12697624E-01 0.66673515E+03</pdfrwt>
<totfact> 0.72930073E+02</totfact>
</mgrwt>
</event>
<event>
 4    1  0.9064384E-005  0.5006335E+03  0.7818608E-02  0.1013614E+00
          2   -1    0    0  501    0  0.00000000000E+00  0.00000000000E+00  0.18968786301E+04  0.18968786301E+04  0.25500000000E-02 0.  1.
         -2   -1    0    0    0  501 -0.00000000000E+00 -0.00000000000E+00 -0.33032417698E+02  0.33032417796E+02  0.25500000000E-02 0. -1.
    5000001    1    1    2    0    0  0.15970953273E+03  0.98012055012E+02  0.86296501274E+03  0.89835800825E+03  0.16500000000E+03 0.  0.
   -5000001    1    1    2    0    0 -0.15970953273E+03 -0.98012055012E+02  0.10008811996E+04  0.10315530396E+04  0.16500000000E+03 0.  0.
<mgrwt>
<rscale>  0 0.50063355E+03</rscale>
<asrwt>0</asrwt>
<pdfrwt beam="1">  1        2 0.29182751E+00 0.50063355E+03</pdfrwt>
<pdfrwt beam="2">  1       -2 0.50819100E-02 0.50063355E+03</pdfrwt>
<totfact> 0.15851744E+03</totfact>
</mgrwt>
</event>
<event>
 4    1  0.9064384E-005  0.5588397E+03  0.7818608E-02  0.9994683E-01
          2   -1    0    0  501    0  0.00000000000E+00  0.00000000000E+00  0.40683871640E+03  0.40683871641E+03  0.25500000000E-02 0. -1.
         -2   -1    0    0    0  501 -0.00000000000E+00 -0.00000000000E+00 -0.19190764972E+03  0.19190764973E+03  0.25500000000E-02 0.  1.
    5000001    1    1    2    0    0 -0.40812664248E+02 -0.15048667586E+03 -0.67074155969E+02  0.23671893793E+03  0.16500000000E+03 0.  0.
   -5000001    1    1    2    0    0  0.40812664248E+02  0.15048667586E+03  0.28200522266E+03  0.36202742822E+03  0.16500000000E+03 0.  0.
<mgrwt>
<rscale>  0 0.55883973E+03</rscale>
<asrwt>0</asrwt>
<pdfrwt beam="1">  1        2 0.62590571E-01 0.55883973E+03</pdfrwt>
<pdfrwt beam="2">  1       -2 0.29524254E-01 0.55883973E+03</pdfrwt>
<totfact> 0.82735162E+02</totfact>
</mgrwt>
</event>
<event>
 4    1  0.9064384E-005  0.5484414E+03  0.7818608E-02  0.1001855E+00
          2   -1    0    0  501    0  0.00000000000E+00  0.00000000000E+00  0.22050265872E+03  0.22050265873E+03  0.25500000000E-02 0.  1.
         -2   -1    0    0    0  501 -0.00000000000E+00 -0.00000000000E+00 -0.34102531825E+03  0.34102531826E+03  0.25500000000E-02 0. -1.
    5000001    1    1    2    0    0  0.19912780323E+03 -0.26455446387E+01 -0.15361317345E+03  0.30080041221E+03  0.16500000000E+03 0.  0.
   -5000001    1    1    2    0    0 -0.19912780323E+03  0.26455446387E+01  0.33090513917E+02  0.26072756478E+03  0.16500000000E+03 0.  0.
<mgrwt>
<rscale>  0 0.54844139E+03</rscale>
<asrwt>0</asrwt>
<pdfrwt beam="1">  1        2 0.33923486E-01 0.54844139E+03</pdfrwt>
<pdfrwt beam="2">  1       -2 0.52465434E-01 0.54844139E+03</pdfrwt>
<totfact> 0.53531603E+02</totfact>
</mgrwt>
</event>
<event>
 4    1  0.9064384E-005  0.4236691E+03  0.7818608E-02  0.1035879E+00
         -2   -1    0    0    0  501 -0.00000000000E+00  0.00000000000E+00  0.12212322942E+02  0.12212323208E+02  0.25500000000E-02 0. -1.
          2   -1    0    0  501    0  0.00000000000E+00 -0.00000000000E+00 -0.36744755851E+04  0.36744755851E+04  0.25500000000E-02 0.  1.
    5000001    1    1    2    0    0  0.86625955901E+02  0.63938773992E+02 -0.25083459744E+04  0.25160716902E+04  0.16500000000E+03 0.  0.
   -5000001    1    1    2    0    0 -0.86625955901E+02 -0.63938773992E+02 -0.11539172877E+04  0.11706162180E+04  0.16500000000E+03 0.  0.
<mgrwt>
<rscale>  0 0.42366913E+03</rscale>
<asrwt>0</asrwt>
<pdfrwt beam="1">  1        2 0.56530305E+00 0.42366913E+03</pdfrwt>
<pdfrwt beam="2">  1       -2 0.18788219E-02 0.42366913E+03</pdfrwt>
<totfact> 0.63461413E+02</totfact>
</mgrwt>
</event>
<event>
 4    1  0.9064384E-005  0.4755643E+03  0.7818608E-02  0.1020361E+00
         -2   -1    0    0    0  501 -0.00000000000E+00  0.00000000000E+00  0.80824277759E+03  0.80824277759E+03  0.25500000000E-02 0. -1.
          2   -1    0    0  501    0  0.00000000000E+00 -0.00000000000E+00 -0.69954655266E+02  0.69954655312E+02  0.25500000000E-02 0.  1.
    5000001    1    1    2    0    0  0.93495790500E+02  0.66389147227E+02  0.13434891937E+03  0.24170977193E+03  0.16500000000E+03 0.  0.
   -5000001    1    1    2    0    0 -0.93495790500E+02 -0.66389147227E+02  0.60393920295E+03  0.63648766097E+03  0.16500000000E+03 0.  0.
<mgrwt>
<rscale>  0 0.47556427E+03</rscale>
<asrwt>0</asrwt>
<pdfrwt beam="1">  1        2 0.10762254E-01 0.47556427E+03</pdfrwt>
<pdfrwt beam="2">  1       -2 0.12434505E+00 0.47556427E+03</pdfrwt>
<totfact> 0.29813035E+02</totfact>
</mgrwt>
</event>
<event>
 4    1  0.9064384E-005  0.5597866E+03  0.7818608E-02  0.9992538E-01
          2   -1    0    0  501    0  0.00000000000E+00  0.00000000000E+00  0.37149873376E+03  0.37149873377E+03  0.25500000000E-02 0.  1.
         -2   -1    0    0    0  501 -0.00000000000E+00 -0.00000000000E+00 -0.21087624816E+03  0.21087624818E+03  0.25500000000E-02 0. -1.
    5000001    1    1    2    0    0  0.21489129195E+03 -0.33654294985E+02  0.14447978481E+03  0.30888555671E+03  0.16500000000E+03 0.  0.
   -5000001    1    1    2    0    0 -0.21489129195E+03  0.33654294985E+02  0.16142700786E+02  0.27348942523E+03  0.16500000000E+03 0.  0.
<mgrwt>
<rscale>  0 0.55978660E+03</rscale>
<asrwt>0</asrwt>
<pdfrwt beam="1">  1        2 0.57153651E-01 0.55978660E+03</pdfrwt>
<pdfrwt beam="2">  1       -2 0.32442500E-01 0.55978660E+03</pdfrwt>
<totfact> 0.76858271E+02</totfact>
</mgrwt>
</event>
<event>
 4    1  0.9064384E-005  0.4566427E+03  0.7818608E-02  0.1025759E+00
         -2   -1    0    0    0  501 -0.00000000000E+00  0.00000000000E+00  0.21716085888E+03  0.21716085889E+03  0.25500000000E-02 0. -1.
          2   -1    0    0  501    0  0.00000000000E+00 -0.00000000000E+00 -0.24005543290E+03  0.24005543291E+03  0.25500000000E-02 0.  1.
    5000001    1    1    2    0    0  0.35669700211E+01 -0.14248410173E+03 -0.79290800619E+02  0.23200533094E+03  0.16500000000E+03 0.  0.
   -5000001    1    1    2    0    0 -0.35669700211E+01  0.14248410173E+03  0.56396226598E+02  0.22521096087E+03  0.16500000000E+03 0.  0.
<mgrwt>
<rscale>  0 0.45664272E+03</rscale>
<asrwt>0</asrwt>
<pdfrwt beam="1">  1        2 0.36931605E-01 0.45664272E+03</pdfrwt>
<pdfrwt beam="2">  1       -2 0.33409363E-01 0.45664272E+03</pdfrwt>
<totfact> 0.11770240E+03</totfact>
</mgrwt>
</event>
<event>
 4    1  0.9064384E-005  0.5074183E+03  0.7818608E-02  0.1011861E+00
          2   -1    0    0  501    0  0.00000000000E+00  0.00000000000E+00  0.13158068817E+04  0.13158068817E+04  0.25500000000E-02 0.  1.
         -2   -1    0    0    0  501 -0.00000000000E+00 -0.00000000000E+00 -0.48919284190E+02  0.48919284256E+02  0.25500000000E-02 0. -1.
    5000001    1    1    2    0    0 -0.16496845238E+03 -0.98927905726E+02  0.66549460013E+03  0.71211613071E+03  0.16500000000E+03 0.  0.
   -5000001    1    1    2    0    0  0.16496845238E+03  0.98927905726E+02  0.60139299735E+03  0.65261003522E+03  0.16500000000E+03 0.  0.
<mgrwt>
<rscale>  0 0.50741829E+03</rscale>
<asrwt>0</asrwt>
<pdfrwt beam="1">  1        2 0.20243182E+00 0.50741829E+03</pdfrwt>
<pdfrwt beam="2">  1       -2 0.75260439E-02 0.50741829E+03</pdfrwt>
<totfact> 0.17806260E+03</totfact>
</mgrwt>
</event>
<event>
 4    1  0.9064384E-005  0.7029856E+03  0.7818608E-02  0.9712140E-01
         -2   -1    0    0    0  501 -0.00000000000E+00  0.00000000000E+00  0.80044241850E+03  0.80044241850E+03  0.25500000000E-02 0. -1.
          2   -1    0    0  501    0  0.00000000000E+00 -0.00000000000E+00 -0.15434863624E+03  0.15434863626E+03  0.25500000000E-02 0.  1.
    5000001    1    1    2    0    0 -0.80403154835E+02 -0.28750677607E+03  0.20782123772E+03  0.39942393574E+03  0.16500000000E+03 0.  0.
   -5000001    1    1    2    0    0  0.80403154835E+02  0.28750677607E+03  0.43827254453E+03  0.55536711902E+03  0.16500000000E+03 0.  0.
<mgrwt>
<rscale>  0 0.70298562E+03</rscale>
<asrwt>0</asrwt>
<pdfrwt beam="1">  1        2 0.23745944E-01 0.70298562E+03</pdfrwt>
<pdfrwt beam="2">  1       -2 0.12314499E+00 0.70298562E+03</pdfrwt>
<totfact> 0.11705022E+02</totfact>
</mgrwt>
</event>
<event>
 4    1  0.9064384E-005  0.5018786E+03  0.7818608E-02  0.1013290E+00
         -2   -1    0    0    0  501 -0.00000000000E+00  0.00000000000E+00  0.58689700329E+02  0.58689700384E+02  0.25500000000E-02 0. -1.
          2   -1    0    0  501    0  0.00000000000E+00 -0.00000000000E+00 -0.10729402212E+04  0.10729402212E+04  0.25500000000E-02 0.  1.
    5000001    1    1    2    0    0  0.33037179301E+02  0.18207817436E+03 -0.59450006458E+03  0.64412672944E+03  0.16500000000E+03 0.  0.
   -5000001    1    1    2    0    0 -0.33037179301E+02 -0.18207817436E+03 -0.41975045626E+03  0.48750319212E+03  0.16500000000E+03 0.  0.
<mgrwt>
<rscale>  0 0.50187863E+03</rscale>
<asrwt>0</asrwt>
<pdfrwt beam="1">  1        2 0.16506771E+00 0.50187863E+03</pdfrwt>
<pdfrwt beam="2">  1       -2 0.90291855E-02 0.50187863E+03</pdfrwt>
<totfact> 0.18489660E+03</totfact>
</mgrwt>
</event>
<event>
 4    1  0.9064384E-005  0.1128090E+04  0.7818608E-02  0.9178238E-01
         -2   -1    0    0    0  501 -0.00000000000E+00  0.00000000000E+00  0.76345029959E+03  0.76345029959E+03  0.25500000000E-02 0. -1.
          2   -1    0    0  501    0  0.00000000000E+00 -0.00000000000E+00 -0.41672207355E+03  0.41672207355E+03  0.25500000000E-02 0.  1.
    5000001    1    1    2    0    0  0.52797903424E+03  0.10857277864E+03  0.15319493583E+03  0.58416059199E+03  0.16500000000E+03 0.  0.
   -5000001    1    1    2    0    0 -0.52797903424E+03 -0.10857277864E+03  0.19353329021E+03  0.59601178116E+03  0.16500000000E+03 0.  0.
<mgrwt>
<rscale>  0 0.11280897E+04</rscale>
<asrwt>0</asrwt>
<pdfrwt beam="1">  1        2 0.64111088E-01 0.11280897E+04</pdfrwt>
<pdfrwt beam="2">  1       -2 0.11745389E+00 0.11280897E+04</pdfrwt>
<totfact> 0.42120527E+01</totfact>
</mgrwt>
</event>
<event>
 4    1  0.9064384E-005  0.5884298E+03  0.7818608E-02  0.9929706E-01
         -2   -1    0    0    0  501 -0.00000000000E+00  0.00000000000E+00  0.35771082393E+02  0.35771082484E+02  0.25500000000E-02 0. -1.
          2   -1    0    0  501    0  0.00000000000E+00 -0.00000000000E+00 -0.24198989537E+04  0.24198989537E+04  0.25500000000E-02 0.  1.
    5000001    1    1    2    0    0 -0.16844023014E+03  0.17451568999E+03 -0.12862694536E+04  0.13192960033E+04  0.16500000000E+03 0.  0.
   -5000001    1    1    2    0    0  0.16844023014E+03 -0.17451568999E+03 -0.10978584177E+04  0.11363740329E+04  0.16500000000E+03 0.  0.
<mgrwt>
<rscale>  0 0.58842979E+03</rscale>
<asrwt>0</asrwt>
<pdfrwt beam="1">  1        2 0.37229202E+00 0.58842979E+03</pdfrwt>
<pdfrwt beam="2">  1       -2 0.55032454E-02 0.58842979E+03</pdfrwt>
<totfact> 0.72206898E+02</totfact>
</mgrwt>
</event>
<event>
 4    1  0.9064384E-005  0.6342953E+03  0.7818608E-02  0.9836702E-01
         -2   -1    0    0    0  501 -0.00000000000E+00  0.00000000000E+00  0.44006044197E+02  0.44006044271E+02  0.25500000000E-02 0. -1.
          2   -1    0    0  501    0  0.00000000000E+00 -0.00000000000E+00 -0.22856550861E+04  0.22856550861E+04  0.25500000000E-02 0.  1.
    5000001    1    1    2    0    0 -0.22779810880E+03  0.16435080570E+02 -0.16555410092E+04  0.16793460404E+04  0.16500000000E+03 0.  0.
   -5000001    1    1    2    0    0  0.22779810880E+03 -0.16435080570E+02 -0.58610803265E+03  0.65031508992E+03  0.16500000000E+03 0.  0.
<mgrwt>
<rscale>  0 0.63429532E+03</rscale>
<asrwt>0</asrwt>
<pdfrwt beam="1">  1        2 0.35163915E+00 0.63429532E+03</pdfrwt>
<pdfrwt beam="2">  1       -2 0.67701625E-02 0.63429532E+03</pdfrwt>
<totfact> 0.61695111E+02</totfact>
</mgrwt>
</event>
<event>
 4    1  0.9064384E-005  0.1062084E+04  0.7818608E-02  0.9242956E-01
          2   -1    0    0  501    0  0.00000000000E+00  0.00000000000E+00  0.11055637085E+04  0.11055637085E+04  0.25500000000E-02 0.  1.
         -2   -1    0    0    0  501 -0.00000000000E+00 -0.00000000000E+00 -0.25507868767E+03  0.25507868768E+03  0.25500000000E-02 0. -1.
    5000001    1    1    2    0    0 -0.46360005696E+03  0.15744718512E+03  0.26799433659E+03  0.58203143675E+03  0.16500000000E+03 0.  0.
   -5000001    1    1    2    0    0  0.46360005696E+03 -0.15744718512E+03  0.58249068422E+03  0.77861095942E+03  0.16500000000E+03 0.  0.
<mgrwt>
<rscale>  0 0.10620843E+04</rscale>
<asrwt>0</asrwt>
<pdfrwt beam="1">  1        2 0.17008672E+00 0.10620843E+04</pdfrwt>
<pdfrwt beam="2">  1       -2 0.39242876E-01 0.10620843E+04</pdfrwt>
<totfact> 0.13193052E+02</totfact>
</mgrwt>
</event>
<event>
 4    1  0.9064384E-005  0.8257034E+03  0.7818608E-02  0.9523540E-01
          2   -1    0    0  501    0  0.00000000000E+00  0.00000000000E+00  0.65022115714E+03  0.65022115714E+03  0.25500000000E-02 0.  1.
         -2   -1    0    0    0  501 -0.00000000000E+00 -0.00000000000E+00 -0.26213624549E+03  0.26213624550E+03  0.25500000000E-02 0. -1.
    5000001    1    1    2    0    0  0.32973877537E+03 -0.15514431731E+02  0.39854152585E+03  0.54316544938E+03  0.16500000000E+03 0.  0.
   -5000001    1    1    2    0    0 -0.32973877537E+03  0.15514431731E+02 -0.10456614200E+02  0.36919195326E+03  0.16500000000E+03 0.  0.
<mgrwt>
<rscale>  0 0.82570342E+03</rscale>
<asrwt>0</asrwt>
<pdfrwt beam="1">  1        2 0.10003402E+00 0.82570342E+03</pdfrwt>
<pdfrwt beam="2">  1       -2 0.40328654E-01 0.82570342E+03</pdfrwt>
<totfact> 0.26292531E+02</totfact>
</mgrwt>
</event>
<event>
 4    1  0.9064384E-005  0.5642585E+03  0.7818608E-02  0.9982465E-01
          2   -1    0    0  501    0  0.00000000000E+00  0.00000000000E+00  0.57270539500E+03  0.57270539500E+03  0.25500000000E-02 0.  1.
         -2   -1    0    0    0  501 -0.00000000000E+00 -0.00000000000E+00 -0.13898404252E+03  0.13898404254E+03  0.25500000000E-02 0. -1.
    5000001    1    1    2    0    0 -0.42916341662E+01  0.21440323778E+03  0.11607839639E+03  0.29442547547E+03  0.16500000000E+03 0.  0.
   -5000001    1    1    2    0    0  0.42916341662E+01 -0.21440323778E+03  0.31764295609E+03  0.41726396208E+03  0.16500000000E+03 0.  0.
<mgrwt>
<rscale>  0 0.56425849E+03</rscale>
<asrwt>0</asrwt>
<pdfrwt beam="1">  1        2 0.88108521E-01 0.56425849E+03</pdfrwt>
<pdfrwt beam="2">  1       -2 0.21382161E-01 0.56425849E+03</pdfrwt>
<totfact> 0.99828812E+02</totfact>
</mgrwt>
</event>
<event>
 4    1  0.9064384E-005  0.8085394E+03  0.7818608E-02  0.9547738E-01
          2   -1    0    0  501    0  0.00000000000E+00  0.00000000000E+00  0.11414494538E+04  0.11414494538E+04  0.25500000000E-02 0.  1.
         -2   -1    0    0    0  501 -0.00000000000E+00 -0.00000000000E+00 -0.14318110277E+03  0.14318110279E+03  0.25500000000E-02 0. -1.
    5000001    1    1    2    0    0 -0.24264490606E+03 -0.20134339031E+03  0.19437182594E+03  0.40548873965E+03  0.16500000000E+03 0.  0.
   -5000001    1    1    2    0    0  0.24264490606E+03  0.20134339031E+03  0.80389652504E+03  0.87914181691E+03  0.16500000000E+03 0.  0.
<mgrwt>
<rscale>  0 0.80853940E+03</rscale>
<asrwt>0</asrwt>
<pdfrwt beam="1">  1        2 0.17560761E+00 0.80853940E+03</pdfrwt>
<pdfrwt beam="2">  1       -2 0.22027862E-01 0.80853940E+03</pdfrwt>
<totfact> 0.37158024E+02</totfact>
</mgrwt>
</event>
<event>
 4    1  0.9064384E-005  0.4538924E+03  0.7818608E-02  0.1026568E+00
         -2   -1    0    0    0  501 -0.00000000000E+00  0.00000000000E+00  0.50209061243E+02  0.50209061308E+02  0.25500000000E-02 0. -1.
          2   -1    0    0  501    0  0.00000000000E+00 -0.00000000000E+00 -0.10258022832E+04  0.10258022832E+04  0.25500000000E-02 0.  1.
    5000001    1    1    2    0    0  0.13212730423E+03  0.53388499136E+01 -0.29240365447E+03  0.36084764789E+03  0.16500000000E+03 0.  0.
   -5000001    1    1    2    0    0 -0.13212730423E+03 -0.53388499136E+01 -0.68318956749E+03  0.71516369662E+03  0.16500000000E+03 0.  0.
<mgrwt>
<rscale>  0 0.45389236E+03</rscale>
<asrwt>0</asrwt>
<pdfrwt beam="1">  1        2 0.15781572E+00 0.45389236E+03</pdfrwt>
<pdfrwt beam="2">  1       -2 0.77244717E-02 0.45389236E+03</pdfrwt>
<totfact> 0.25343134E+03</totfact>
</mgrwt>
</event>
<event>
 4    1  0.9064384E-005  0.4212154E+03  0.7818608E-02  0.1036671E+00
          2   -1    0    0  501    0  0.00000000000E+00  0.00000000000E+00  0.33296884974E+04  0.33296884974E+04  0.25500000000E-02 0.  1.
         -2   -1    0    0    0  501 -0.00000000000E+00 -0.00000000000E+00 -0.13321244406E+02  0.13321244651E+02  0.25500000000E-02 0. -1.
    5000001    1    1    2    0    0  0.10992912575E+03 -0.70913634773E+02  0.16250410167E+04  0.16386263950E+04  0.16500000000E+03 0.  0.
   -5000001    1    1    2    0    0 -0.10992912575E+03  0.70913634773E+02  0.16913262362E+04  0.17043833470E+04  0.16500000000E+03 0.  0.
<mgrwt>
<rscale>  0 0.42121536E+03</rscale>
<asrwt>0</asrwt>
<pdfrwt beam="1">  1        2 0.51225980E+00 0.42121536E+03</pdfrwt>
<pdfrwt beam="2">  1       -2 0.20494221E-02 0.42121536E+03</pdfrwt>
<totfact> 0.95120859E+02</totfact>
</mgrwt>
</event>
<event>
 4    1  0.9064384E-005  0.8052486E+03  0.7818608E-02  0.9552451E-01
          2   -1    0    0  501    0  0.00000000000E+00  0.00000000000E+00  0.30158761299E+03  0.30158761300E+03  0.25500000000E-02 0.  1.
         -2   -1    0    0    0  501 -0.00000000000E+00 -0.00000000000E+00 -0.53750992724E+03  0.53750992725E+03  0.25500000000E-02 0. -1.
    5000001    1    1    2    0    0  0.23853748022E+03 -0.27905352191E+03 -0.12890691206E+03  0.42262630011E+03  0.16500000000E+03 0.  0.
   -5000001    1    1    2    0    0 -0.23853748022E+03  0.27905352191E+03 -0.10701540218E+03  0.41647124014E+03  0.16500000000E+03 0.  0.
<mgrwt>
<rscale>  0 0.80524862E+03</rscale>
<asrwt>0</asrwt>
<pdfrwt beam="1">  1        2 0.46398094E-01 0.80524862E+03</pdfrwt>
<pdfrwt beam="2">  1       -2 0.82693835E-01 0.80524862E+03</pdfrwt>
<totfact> 0.14102768E+02</totfact>
</mgrwt>
</event>
<event>
 4    1  0.9064384E-005  0.7437453E+03  0.7818608E-02  0.9645214E-01
         -2   -1    0    0    0  501 -0.00000000000E+00  0.00000000000E+00  0.22483537327E+03  0.22483537329E+03  0.25500000000E-02 0. -1.
          2   -1    0    0  501    0  0.00000000000E+00 -0.00000000000E+00 -0.61506892324E+03  0.61506892325E+03  0.25500000000E-02 0.  1.
    5000001    1    1    2    0    0 -0.17269068030E+02 -0.32410411023E+03 -0.28054484988E+03  0.45964345723E+03  0.16500000000E+03 0.  0.
   -5000001    1    1    2    0    0  0.17269068030E+02  0.32410411023E+03 -0.10968870009E+03  0.38026083930E+03  0.16500000000E+03 0.  0.
<mgrwt>
<rscale>  0 0.74374525E+03</rscale>
<asrwt>0</asrwt>
<pdfrwt beam="1">  1        2 0.94625987E-01 0.74374525E+03</pdfrwt>
<pdfrwt beam="2">  1       -2 0.34590058E-01 0.74374525E+03</pdfrwt>
<totfact> 0.37946820E+02</totfact>
</mgrwt>
</event>
<event>
 4    1  0.9064384E-005  0.8306466E+03  0.7818608E-02  0.9516687E-01
          2   -1    0    0  501    0  0.00000000000E+00  0.00000000000E+00  0.11210812058E+04  0.11210812058E+04  0.25500000000E-02 0.  1.
         -2   -1    0    0    0  501 -0.00000000000E+00 -0.00000000000E+00 -0.15386347105E+03  0.15386347107E+03  0.25500000000E-02 0. -1.
    5000001    1    1    2    0    0  0.33615228681E+03 -0.16429558649E+03  0.37210999233E+03  0.55288538239E+03  0.16500000000E+03 0.  0.
   -5000001    1    1    2    0    0 -0.33615228681E+03  0.16429558649E+03  0.59510774244E+03  0.72205929450E+03  0.16500000000E+03 0.  0.
<mgrwt>
<rscale>  0 0.83064661E+03</rscale>
<asrwt>0</asrwt>
<pdfrwt beam="1">  1        2 0.17247403E+00 0.83064661E+03</pdfrwt>
<pdfrwt beam="2">  1       -2 0.23671303E-01 0.83064661E+03</pdfrwt>
<totfact> 0.33590063E+02</totfact>
</mgrwt>
</event>
<event>
 4    1  0.9064384E-005  0.6309055E+03  0.7818608E-02  0.9843283E-01
          2   -1    0    0  501    0  0.00000000000E+00  0.00000000000E+00  0.41962794332E+03  0.41962794333E+03  0.25500000000E-02 0.  1.
         -2   -1    0    0    0  501 -0.00000000000E+00 -0.00000000000E+00 -0.23713970398E+03  0.23713970400E+03  0.25500000000E-02 0. -1.
    5000001    1    1    2    0    0  0.13962191476E+03  0.22974912039E+03  0.93899948557E+02  0.32912176735E+03  0.16500000000E+03 0.  0.
   -5000001    1    1    2    0    0 -0.13962191476E+03 -0.22974912039E+03  0.88588290777E+02  0.32764587998E+03  0.16500000000E+03 0.  0.
<mgrwt>
<rscale>  0 0.63090553E+03</rscale>
<asrwt>0</asrwt>
<pdfrwt beam="1">  1        2 0.64558144E-01 0.63090553E+03</pdfrwt>
<pdfrwt beam="2">  1       -2 0.36483032E-01 0.63090553E+03</pdfrwt>
<totfact> 0.53666494E+02</totfact>
</mgrwt>
</event>
<event>
 4    1  0.9064384E-005  0.7429354E+03  0.7818608E-02  0.9646499E-01
         -2   -1    0    0    0  501 -0.00000000000E+00  0.00000000000E+00  0.40825563041E+02  0.40825563121E+02  0.25500000000E-02 0. -1.
          2   -1    0    0  501    0  0.00000000000E+00 -0.00000000000E+00 -0.33799477369E+04  0.33799477369E+04  0.25500000000E-02 0.  1.
    5000001    1    1    2    0    0 -0.15614416002E+03  0.19042400578E+03 -0.27003813398E+04  0.27166020468E+04  0.16500000000E+03 0.  0.
   -5000001    1    1    2    0    0  0.15614416002E+03 -0.19042400578E+03 -0.63874083411E+03  0.70417125321E+03  0.16500000000E+03 0.  0.
<mgrwt>
<rscale>  0 0.74293545E+03</rscale>
<asrwt>0</asrwt>
<pdfrwt beam="1">  1        2 0.51999174E+00 0.74293545E+03</pdfrwt>
<pdfrwt beam="2">  1       -2 0.62808585E-02 0.74293545E+03</pdfrwt>
<totfact> 0.15236553E+02</totfact>
</mgrwt>
</event>
<event>
 4    1  0.9064384E-005  0.5903241E+03  0.7818608E-02  0.9925686E-01
          2   -1    0    0  501    0  0.00000000000E+00  0.00000000000E+00  0.13035367153E+03  0.13035367155E+03  0.25500000000E-02 0.  1.
         -2   -1    0    0    0  501 -0.00000000000E+00 -0.00000000000E+00 -0.66834050549E+03  0.66834050550E+03  0.25500000000E-02 0. -1.
    5000001    1    1    2    0    0 -0.22627471264E+03 -0.83101141425E+02 -0.21175769212E+03  0.36079407625E+03  0.16500000000E+03 0.  0.
   -5000001    1    1    2    0    0  0.22627471264E+03  0.83101141425E+02 -0.32622914185E+03  0.43790010080E+03  0.16500000000E+03 0.  0.
<mgrwt>
<rscale>  0 0.59032411E+03</rscale>
<asrwt>0</asrwt>
<pdfrwt beam="1">  1        2 0.20054411E-01 0.59032411E+03</pdfrwt>
<pdfrwt beam="2">  1       -2 0.10282161E+00 0.59032411E+03</pdfrwt>
<totfact> 0.22165848E+02</totfact>
</mgrwt>
</event>
<event>
 4    1  0.9064384E-005  0.1144703E+04  0.7818608E-02  0.9162685E-01
         -2   -1    0    0    0  501 -0.00000000000E+00  0.00000000000E+00  0.34428356631E+03  0.34428356632E+03  0.25500000000E-02 0. -1.
          2   -1    0    0  501    0  0.00000000000E+00 -0.00000000000E+00 -0.95150061778E+03  0.95150061778E+03  0.25500000000E-02 0.  1.
    5000001    1    1    2    0    0 -0.41749842617E+03 -0.35580569060E+02  0.96271843845E+02  0.46050426780E+03  0.16500000000E+03 0.  0.
   -5000001    1    1    2    0    0  0.41749842617E+03  0.35580569060E+02 -0.70348889531E+03  0.83527991630E+03  0.16500000000E+03 0.  0.
<mgrwt>
<rscale>  0 0.11447026E+04</rscale>
<asrwt>0</asrwt>
<pdfrwt beam="1">  1        2 0.14638471E+00 0.11447026E+04</pdfrwt>
<pdfrwt beam="2">  1       -2 0.52966703E-01 0.11447026E+04</pdfrwt>
<totfact> 0.90163495E+01</totfact>
</mgrwt>
</event>
<event>
 4    1  0.9064384E-005  0.1056363E+04  0.7818608E-02  0.9248799E-01
          2   -1    0    0  501    0  0.00000000000E+00  0.00000000000E+00  0.12713413960E+04  0.12713413960E+04  0.25500000000E-02 0.  1.
         -2   -1    0    0    0  501 -0.00000000000E+00 -0.00000000000E+00 -0.21943426946E+03  0.21943426948E+03  0.25500000000E-02 0. -1.
    5000001    1    1    2    0    0 -0.39220296387E+03 -0.27978575811E+03  0.32814088583E+03  0.60580910876E+03  0.16500000000E+03 0.  0.
   -5000001    1    1    2    0    0  0.39220296387E+03  0.27978575811E+03  0.72376624069E+03  0.88496655670E+03  0.16500000000E+03 0.  0.
<mgrwt>
<rscale>  0 0.10563633E+04</rscale>
<asrwt>0</asrwt>
<pdfrwt beam="1">  1        2 0.19559099E+00 0.10563633E+04</pdfrwt>
<pdfrwt beam="2">  1       -2 0.33759118E-01 0.10563633E+04</pdfrwt>
<totfact> 0.14021567E+02</totfact>
</mgrwt>
</event>
<event>
 4    1  0.9064384E-005  0.3728077E+03  0.7818608E-02  0.1053625E+00
         -2   -1    0    0    0  501 -0.00000000000E+00  0.00000000000E+00  0.64953372426E+02  0.64953372476E+02  0.25500000000E-02 0. -1.
          2   -1    0    0  501    0  0.00000000000E+00 -0.00000000000E+00 -0.53494364471E+03  0.53494364471E+03  0.25500000000E-02 0.  1.
    5000001    1    1    2    0    0 -0.69540173894E+02  0.50736176642E+02 -0.21801147560E+03  0.28664263273E+03  0.16500000000E+03 0.  0.
   -5000001    1    1    2    0    0  0.69540173894E+02 -0.50736176642E+02 -0.25197879669E+03  0.31325438446E+03  0.16500000000E+03 0.  0.
<mgrwt>
<rscale>  0 0.37280769E+03</rscale>
<asrwt>0</asrwt>
<pdfrwt beam="1">  1        2 0.82299019E-01 0.37280769E+03</pdfrwt>
<pdfrwt beam="2">  1       -2 0.99928269E-02 0.37280769E+03</pdfrwt>
<totfact> 0.38485316E+03</totfact>
</mgrwt>
</event>
<event>
 4    1  0.9064384E-005  0.4472005E+03  0.7818608E-02  0.1028560E+00
         -2   -1    0    0    0  501 -0.00000000000E+00  0.00000000000E+00  0.12009159018E+03  0.12009159021E+03  0.25500000000E-02 0. -1.
          2   -1    0    0  501    0  0.00000000000E+00 -0.00000000000E+00 -0.41632459756E+03  0.41632459757E+03  0.25500000000E-02 0.  1.
    5000001    1    1    2    0    0  0.24833801847E+02  0.14338417799E+03 -0.10019144885E+03  0.24174173540E+03  0.16500000000E+03 0.  0.
   -5000001    1    1    2    0    0 -0.24833801847E+02 -0.14338417799E+03 -0.19604155853E+03  0.29467445237E+03  0.16500000000E+03 0.  0.
<mgrwt>
<rscale>  0 0.44720055E+03</rscale>
<asrwt>0</asrwt>
<pdfrwt beam="1">  1        2 0.64049937E-01 0.44720055E+03</pdfrwt>
<pdfrwt beam="2">  1       -2 0.18475629E-01 0.44720055E+03</pdfrwt>
<totfact> 0.18518409E+03</totfact>
</mgrwt>
</event>
<event>
 4    1  0.9064384E-005  0.4735126E+03  0.7818608E-02  0.1020933E+00
         -2   -1    0    0    0  501 -0.00000000000E+00  0.00000000000E+00  0.50669362529E+02  0.50669362593E+02  0.25500000000E-02 0. -1.
          2   -1    0    0  501    0  0.00000000000E+00 -0.00000000000E+00 -0.11062610920E+04  0.11062610920E+04  0.25500000000E-02 0.  1.
    5000001    1    1    2    0    0  0.70934443986E+02 -0.11982162432E+03 -0.76518079396E+03  0.79505695673E+03  0.16500000000E+03 0.  0.
   -5000001    1    1    2    0    0 -0.70934443986E+02  0.11982162432E+03 -0.29041093555E+03  0.36187349790E+03  0.16500000000E+03 0.  0.
<mgrwt>
<rscale>  0 0.47351259E+03</rscale>
<asrwt>0</asrwt>
<pdfrwt beam="1">  1        2 0.17019400E+00 0.47351259E+03</pdfrwt>
<pdfrwt beam="2">  1       -2 0.77952874E-02 0.47351259E+03</pdfrwt>
<totfact> 0.22312316E+03</totfact>
</mgrwt>
</event>
<event>
 4    1  0.9064384E-005  0.7612086E+03  0.7818608E-02  0.9617928E-01
         -2   -1    0    0    0  501 -0.00000000000E+00  0.00000000000E+00  0.55636106867E+02  0.55636106926E+02  0.25500000000E-02 0. -1.
          2   -1    0    0  501    0  0.00000000000E+00 -0.00000000000E+00 -0.26036981400E+04  0.26036981400E+04  0.25500000000E-02 0.  1.
    5000001    1    1    2    0    0 -0.50811373063E+02  0.33634392820E+03 -0.14273343693E+04  0.14765559372E+04  0.16500000000E+03 0.  0.
   -5000001    1    1    2    0    0  0.50811373063E+02 -0.33634392820E+03 -0.11207276638E+04  0.11827783098E+04  0.16500000000E+03 0.  0.
<mgrwt>
<rscale>  0 0.76120859E+03</rscale>
<asrwt>0</asrwt>
<pdfrwt beam="1">  1        2 0.40056885E+00 0.76120859E+03</pdfrwt>
<pdfrwt beam="2">  1       -2 0.85594031E-02 0.76120859E+03</pdfrwt>
<totfact> 0.27806619E+02</totfact>
</mgrwt>
</event>
<event>
 4    1  0.9064384E-005  0.7135223E+03  0.7818608E-02  0.9694383E-01
         -2   -1    0    0    0  501 -0.00000000000E+00  0.00000000000E+00  0.88675968883E+03  0.88675968883E+03  0.25500000000E-02 0. -1.
          2   -1    0    0  501    0  0.00000000000E+00 -0.00000000000E+00 -0.14353212716E+03  0.14353212719E+03  0.25500000000E-02 0.  1.
    5000001    1    1    2    0    0  0.28476999887E+03  0.12232171928E+03  0.46290248349E+03  0.58099936703E+03  0.16500000000E+03 0.  0.
   -5000001    1    1    2    0    0 -0.28476999887E+03 -0.12232171928E+03  0.28032507818E+03  0.44929244899E+03  0.16500000000E+03 0.  0.
<mgrwt>
<rscale>  0 0.71352226E+03</rscale>
<asrwt>0</asrwt>
<pdfrwt beam="1">  1        2 0.22081866E-01 0.71352226E+03</pdfrwt>
<pdfrwt beam="2">  1       -2 0.13642457E+00 0.71352226E+03</pdfrwt>
<totfact> 0.98288899E+01</totfact>
</mgrwt>
</event>
<event>
 4    1  0.9064384E-005  0.1070144E+04  0.7818608E-02  0.9234790E-01
         -2   -1    0    0    0  501 -0.00000000000E+00  0.00000000000E+00  0.20621318951E+03  0.20621318952E+03  0.25500000000E-02 0. -1.
          2   -1    0    0  501    0  0.00000000000E+00 -0.00000000000E+00 -0.13883800280E+04  0.13883800280E+04  0.25500000000E-02 0.  1.
    5000001    1    1    2    0    0  0.43453691744E+03  0.25578185710E+03 -0.48751978467E+03  0.72051872389E+03  0.16500000000E+03 0.  0.
   -5000001    1    1    2    0    0 -0.43453691744E+03 -0.25578185710E+03 -0.69464705385E+03  0.87407449366E+03  0.16500000000E+03 0.  0.
<mgrwt>
<rscale>  0 0.10701444E+04</rscale>
<asrwt>0</asrwt>
<pdfrwt beam="1">  1        2 0.21359692E+00 0.10701444E+04</pdfrwt>
<pdfrwt beam="2">  1       -2 0.31725107E-01 0.10701444E+04</pdfrwt>
<totfact> 0.13480037E+02</totfact>
</mgrwt>
</event>
<event>
 4    1  0.9064384E-005  0.5936578E+03  0.7818608E-02  0.9918652E-01
         -2   -1    0    0    0  501 -0.00000000000E+00  0.00000000000E+00  0.13202025539E+03  0.13202025541E+03  0.25500000000E-02 0. -1.
          2   -1    0    0  501    0  0.00000000000E+00 -0.00000000000E+00 -0.66737787769E+03  0.66737787770E+03  0.25500000000E-02 0.  1.
    5000001    1    1    2    0    0  0.23093291276E+03  0.73667909228E+02 -0.20559905183E+03  0.35812419795E+03  0.16500000000E+03 0.  0.
   -5000001    1    1    2    0    0 -0.23093291276E+03 -0.73667909228E+02 -0.32975857047E+03  0.44127393516E+03  0.16500000000E+03 0.  0.
<mgrwt>
<rscale>  0 0.59365781E+03</rscale>
<asrwt>0</asrwt>
<pdfrwt beam="1">  1        2 0.10267352E+00 0.59365781E+03</pdfrwt>
<pdfrwt beam="2">  1       -2 0.20310809E-01 0.59365781E+03</pdfrwt>
<totfact> 0.90775675E+02</totfact>
</mgrwt>
</event>
<event>
 4    1  0.9064384E-005  0.7132238E+03  0.7818608E-02  0.9694881E-01
         -2   -1    0    0    0  501 -0.00000000000E+00  0.00000000000E+00  0.43484644414E+03  0.43484644414E+03  0.25500000000E-02 0. -1.
          2   -1    0    0  501    0  0.00000000000E+00 -0.00000000000E+00 -0.29245277708E+03  0.29245277709E+03  0.25500000000E-02 0.  1.
    5000001    1    1    2    0    0  0.28502293484E+03 -0.10712694956E+03  0.15792103769E+03  0.38062883607E+03  0.16500000000E+03 0.  0.
   -5000001    1    1    2    0    0 -0.28502293484E+03  0.10712694956E+03 -0.15527370630E+02  0.34667038516E+03  0.16500000000E+03 0.  0.
<mgrwt>
<rscale>  0 0.71322381E+03</rscale>
<asrwt>0</asrwt>
<pdfrwt beam="1">  1        2 0.44992735E-01 0.71322381E+03</pdfrwt>
<pdfrwt beam="2">  1       -2 0.66899453E-01 0.71322381E+03</pdfrwt>
<totfact> 0.23397744E+02</totfact>
</mgrwt>
</event>
<event>
 4    1  0.9064384E-005  0.4896979E+03  0.7818608E-02  0.1016503E+00
          2   -1    0    0  501    0  0.00000000000E+00  0.00000000000E+00  0.83861833662E+03  0.83861833663E+03  0.25500000000E-02 0.  1.
         -2   -1    0    0    0  501 -0.00000000000E+00 -0.00000000000E+00 -0.71487827481E+02  0.71487827527E+02  0.25500000000E-02 0. -1.
    5000001    1    1    2    0    0  0.14224674140E+03 -0.12559378053E+01  0.17585874982E+03  0.27997680744E+03  0.16500000000E+03 0.  0.
   -5000001    1    1    2    0    0 -0.14224674140E+03  0.12559378053E+01  0.59127175932E+03  0.63012935671E+03  0.16500000000E+03 0.  0.
<mgrwt>
<rscale>  0 0.48969788E+03</rscale>
<asrwt>0</asrwt>
<pdfrwt beam="1">  1        2 0.12901820E+00 0.48969788E+03</pdfrwt>
<pdfrwt beam="2">  1       -2 0.10998128E-01 0.48969788E+03</pdfrwt>
<totfact> 0.19042290E+03</totfact>
</mgrwt>
</event>
<event>
 4    1  0.9064384E-005  0.9672027E+03  0.7818608E-02  0.9345266E-01
         -2   -1    0    0    0  501 -0.00000000000E+00  0.00000000000E+00  0.27906748365E+03  0.27906748366E+03  0.25500000000E-02 0. -1.
          2   -1    0    0  501    0  0.00000000000E+00 -0.00000000000E+00 -0.83804192395E+03  0.83804192396E+03  0.25500000000E-02 0.  1.
    5000001    1    1    2    0    0  0.24293828500E+03 -0.16989790233E+03 -0.67751651950E+03  0.75771890680E+03  0.16500000000E+03 0.  0.
   -5000001    1    1    2    0    0 -0.24293828500E+03  0.16989790233E+03  0.11854207920E+03  0.35939050081E+03  0.16500000000E+03 0.  0.
<mgrwt>
<rscale>  0 0.96720267E+03</rscale>
<asrwt>0</asrwt>
<pdfrwt beam="1">  1        2 0.12892953E+00 0.96720267E+03</pdfrwt>
<pdfrwt beam="2">  1       -2 0.42933459E-01 0.96720267E+03</pdfrwt>
<totfact> 0.16634610E+02</totfact>
</mgrwt>
</event>
<event>
 4    1  0.9064384E-005  0.7226712E+03  0.7818608E-02  0.9679228E-01
         -2   -1    0    0    0  501 -0.00000000000E+00  0.00000000000E+00  0.12215542435E+03  0.12215542438E+03  0.25500000000E-02 0. -1.
          2   -1    0    0  501    0  0.00000000000E+00 -0.00000000000E+00 -0.10688302518E+04  0.10688302518E+04  0.25500000000E-02 0.  1.
    5000001    1    1    2    0    0  0.11456760032E+03  0.29786556680E+03 -0.40974850706E+03  0.54494813512E+03  0.16500000000E+03 0.  0.
   -5000001    1    1    2    0    0 -0.11456760032E+03 -0.29786556680E+03 -0.53692632038E+03  0.64603754105E+03  0.16500000000E+03 0.  0.
<mgrwt>
<rscale>  0 0.72267119E+03</rscale>
<asrwt>0</asrwt>
<pdfrwt beam="1">  1        2 0.16443542E+00 0.72267119E+03</pdfrwt>
<pdfrwt beam="2">  1       -2 0.18793143E-01 0.72267119E+03</pdfrwt>
<totfact> 0.54591763E+02</totfact>
</mgrwt>
</event>
<event>
 4    1  0.9064384E-005  0.4401159E+03  0.7818608E-02  0.1030711E+00
          2   -1    0    0  501    0  0.00000000000E+00  0.00000000000E+00  0.31574102244E+04  0.31574102244E+04  0.25500000000E-02 0.  1.
         -2   -1    0    0    0  501 -0.00000000000E+00 -0.00000000000E+00 -0.15337096683E+02  0.15337096895E+02  0.25500000000E-02 0. -1.
    5000001    1    1    2    0    0 -0.12708685652E+03 -0.34370465009E+02  0.20193871231E+04  0.20303895564E+04  0.16500000000E+03 0.  0.
   -5000001    1    1    2    0    0  0.12708685652E+03  0.34370465009E+02  0.11226860047E+04  0.11423577649E+04  0.16500000000E+03 0.  0.
<mgrwt>
<rscale>  0 0.44011592E+03</rscale>
<asrwt>0</asrwt>
<pdfrwt beam="1">  1        2 0.48575558E+00 0.44011592E+03</pdfrwt>
<pdfrwt beam="2">  1       -2 0.23595526E-02 0.44011592E+03</pdfrwt>
<totfact> 0.98789196E+02</totfact>
</mgrwt>
</event>
<event>
 4    1  0.9064384E-005  0.4550800E+03  0.7818608E-02  0.1026218E+00
          2   -1    0    0  501    0  0.00000000000E+00  0.00000000000E+00  0.15975786360E+04  0.15975786360E+04  0.25500000000E-02 0.  1.
         -2   -1    0    0    0  501 -0.00000000000E+00 -0.00000000000E+00 -0.32408072146E+02  0.32408072246E+02  0.25500000000E-02 0. -1.
    5000001    1    1    2    0    0 -0.11621407826E+02  0.91410388384E+02  0.32869675305E+03  0.37915362545E+03  0.16500000000E+03 0.  0.
   -5000001    1    1    2    0    0  0.11621407826E+02 -0.91410388384E+02  0.12364738108E+04  0.12508330828E+04  0.16500000000E+03 0.  0.
<mgrwt>
<rscale>  0 0.45507997E+03</rscale>
<asrwt>0</asrwt>
<pdfrwt beam="1">  1        2 0.24578137E+00 0.45507997E+03</pdfrwt>
<pdfrwt beam="2">  1       -2 0.49858564E-02 0.45507997E+03</pdfrwt>
<totfact> 0.23699842E+03</totfact>
</mgrwt>
</event>
<event>
 4    1  0.9064384E-005  0.5328820E+03  0.7818608E-02  0.1005536E+00
         -2   -1    0    0    0  501 -0.00000000000E+00  0.00000000000E+00  0.85585163261E+02  0.85585163299E+02  0.25500000000E-02 0. -1.
          2   -1    0    0  501    0  0.00000000000E+00 -0.00000000000E+00 -0.82947562227E+03  0.82947562228E+03  0.25500000000E-02 0.  1.
    5000001    1    1    2    0    0  0.81686540733E+02 -0.36849942473E+02 -0.69655903499E+03  0.72142227469E+03  0.16500000000E+03 0.  0.
   -5000001    1    1    2    0    0 -0.81686540733E+02  0.36849942473E+02 -0.47331424023E+02  0.19363851088E+03  0.16500000000E+03 0.  0.
<mgrwt>
<rscale>  0 0.53288200E+03</rscale>
<asrwt>0</asrwt>
<pdfrwt beam="1">  1        2 0.12761163E+00 0.53288200E+03</pdfrwt>
<pdfrwt beam="2">  1       -2 0.13166949E-01 0.53288200E+03</pdfrwt>
<totfact> 0.14373382E+03</totfact>
</mgrwt>
</event>
<event>
 4    1  0.9064384E-005  0.5824038E+03  0.7818608E-02  0.9942600E-01
          2   -1    0    0  501    0  0.00000000000E+00  0.00000000000E+00  0.18741818767E+03  0.18741818769E+03  0.25500000000E-02 0.  1.
         -2   -1    0    0    0  501 -0.00000000000E+00 -0.00000000000E+00 -0.45245641281E+03  0.45245641281E+03  0.25500000000E-02 0. -1.
    5000001    1    1    2    0    0  0.10929167749E+03 -0.18046618584E+03 -0.69576726760E+01  0.26792932689E+03  0.16500000000E+03 0.  0.
   -5000001    1    1    2    0    0 -0.10929167749E+03  0.18046618584E+03 -0.25808055246E+03  0.37194527361E+03  0.16500000000E+03 0.  0.
<mgrwt>
<rscale>  0 0.58240385E+03</rscale>
<asrwt>0</asrwt>
<pdfrwt beam="1">  1        2 0.28833567E-01 0.58240385E+03</pdfrwt>
<pdfrwt beam="2">  1       -2 0.69608679E-01 0.58240385E+03</pdfrwt>
<totfact> 0.35392036E+02</totfact>
</mgrwt>
</event>
<event>
 4    1  0.9064384E-005  0.1025445E+04  0.7818608E-02  0.9281069E-01
         -2   -1    0    0    0  501 -0.00000000000E+00  0.00000000000E+00  0.16999260578E+03  0.16999260579E+03  0.25500000000E-02 0. -1.
          2   -1    0    0  501    0  0.00000000000E+00 -0.00000000000E+00 -0.15464472777E+04  0.15464472777E+04  0.25500000000E-02 0.  1.
    5000001    1    1    2    0    0  0.13653130189E+03 -0.17464680780E+03  0.34668270485E+02  0.27851246444E+03  0.16500000000E+03 0.  0.
   -5000001    1    1    2    0    0 -0.13653130189E+03  0.17464680780E+03 -0.14111229424E+04  0.14379274190E+04  0.16500000000E+03 0.  0.
<mgrwt>
<rscale>  0 0.10254455E+04</rscale>
<asrwt>0</asrwt>
<pdfrwt beam="1">  1        2 0.23791496E+00 0.10254455E+04</pdfrwt>
<pdfrwt beam="2">  1       -2 0.26152710E-01 0.10254455E+04</pdfrwt>
<totfact> 0.15736293E+02</totfact>
</mgrwt>
</event>
<event>
 4    1  0.9064384E-005  0.4760481E+03  0.7818608E-02  0.1020227E+00
          2   -1    0    0  501    0  0.00000000000E+00  0.00000000000E+00  0.60579181356E+03  0.60579181356E+03  0.25500000000E-02 0.  1.
         -2   -1    0    0    0  501 -0.00000000000E+00 -0.00000000000E+00 -0.93522976548E+02  0.93522976583E+02  0.25500000000E-02 0. -1.
    5000001    1    1    2    0    0 -0.14285119404E+03  0.41368437372E+02  0.13051435068E+03  0.25763696742E+03  0.16500000000E+03 0.  0.
   -5000001    1    1    2    0    0  0.14285119404E+03 -0.41368437372E+02  0.38175448633E+03  0.44167782272E+03  0.16500000000E+03 0.  0.
<mgrwt>
<rscale>  0 0.47604812E+03</rscale>
<asrwt>0</asrwt>
<pdfrwt beam="1">  1        2 0.93198739E-01 0.47604812E+03</pdfrwt>
<pdfrwt beam="2">  1       -2 0.14388150E-01 0.47604812E+03</pdfrwt>
<totfact> 0.18391958E+03</totfact>
</mgrwt>
</event>
<event>
 4    1  0.9064384E-005  0.7116668E+03  0.7818608E-02  0.9697486E-01
          2   -1    0    0  501    0  0.00000000000E+00  0.00000000000E+00  0.20376677407E+04  0.20376677407E+04  0.25500000000E-02 0.  1.
         -2   -1    0    0    0  501 -0.00000000000E+00 -0.00000000000E+00 -0.62138396288E+02  0.62138396340E+02  0.25500000000E-02 0. -1.
    5000001    1    1    2    0    0  0.18594330812E+03 -0.22029433298E+03  0.13643254037E+04  0.14041770950E+04  0.16500000000E+03 0.  0.
   -5000001    1    1    2    0    0 -0.18594330812E+03  0.22029433298E+03  0.61120394073E+03  0.69562904204E+03  0.16500000000E+03 0.  0.
<mgrwt>
<rscale>  0 0.71166679E+03</rscale>
<asrwt>0</asrwt>
<pdfrwt beam="1">  1        2 0.31348737E+00 0.71166679E+03</pdfrwt>
<pdfrwt beam="2">  1       -2 0.95597525E-02 0.71166679E+03</pdfrwt>
<totfact> 0.48301407E+02</totfact>
</mgrwt>
</event>
<event>
 4    1  0.9064384E-005  0.3723669E+03  0.7818608E-02  0.1053792E+00
          2   -1    0    0  501    0  0.00000000000E+00  0.00000000000E+00  0.28425391494E+04  0.28425391494E+04  0.25500000000E-02 0.  1.
         -2   -1    0    0    0  501 -0.00000000000E+00 -0.00000000000E+00 -0.12194826054E+02  0.12194826321E+02  0.25500000000E-02 0. -1.
    5000001    1    1    2    0    0  0.28703299630E+02  0.81255443837E+02  0.13875896456E+04  0.14000201252E+04  0.16500000000E+03 0.  0.
   -5000001    1    1    2    0    0 -0.28703299630E+02 -0.81255443837E+02  0.14427546778E+04  0.14547138505E+04  0.16500000000E+03 0.  0.
<mgrwt>
<rscale>  0 0.37236687E+03</rscale>
<asrwt>0</asrwt>
<pdfrwt beam="1">  1        2 0.43731355E+00 0.37236687E+03</pdfrwt>
<pdfrwt beam="2">  1       -2 0.18761278E-02 0.37236687E+03</pdfrwt>
<totfact> 0.21655113E+03</totfact>
</mgrwt>
</event>
<event>
 4    1  0.9064384E-005  0.3942353E+03  0.7818608E-02  0.1045794E+00
          2   -1    0    0  501    0  0.00000000000E+00  0.00000000000E+00  0.66723139003E+02  0.66723139051E+02  0.25500000000E-02 0.  1.
         -2   -1    0    0    0  501 -0.00000000000E+00 -0.00000000000E+00 -0.58233721259E+03  0.58233721259E+03  0.25500000000E-02 0. -1.
    5000001    1    1    2    0    0  0.99810551740E+02  0.32016327596E+02 -0.29956066952E+03  0.35769929577E+03  0.16500000000E+03 0.  0.
   -5000001    1    1    2    0    0 -0.99810551740E+02 -0.32016327596E+02 -0.21605340406E+03  0.29136105587E+03  0.16500000000E+03 0.  0.
<mgrwt>
<rscale>  0 0.39423529E+03</rscale>
<asrwt>0</asrwt>
<pdfrwt beam="1">  1        2 0.10265099E-01 0.39423529E+03</pdfrwt>
<pdfrwt beam="2">  1       -2 0.89590337E-01 0.39423529E+03</pdfrwt>
<totfact> 0.68933478E+02</totfact>
</mgrwt>
</event>
<event>
 4    1  0.9064384E-005  0.5956077E+03  0.7818608E-02  0.9914561E-01
         -2   -1    0    0    0  501 -0.00000000000E+00  0.00000000000E+00  0.40789085487E+03  0.40789085488E+03  0.25500000000E-02 0. -1.
          2   -1    0    0  501    0  0.00000000000E+00 -0.00000000000E+00 -0.21742862190E+03  0.21742862192E+03  0.25500000000E-02 0.  1.
    5000001    1    1    2    0    0  0.18478593912E+03 -0.76009559847E+02  0.24931345995E+03  0.35959073653E+03  0.16500000000E+03 0.  0.
   -5000001    1    1    2    0    0 -0.18478593912E+03  0.76009559847E+02 -0.58851226984E+02  0.26572874026E+03  0.16500000000E+03 0.  0.
<mgrwt>
<rscale>  0 0.59560774E+03</rscale>
<asrwt>0</asrwt>
<pdfrwt beam="1">  1        2 0.33450557E-01 0.59560774E+03</pdfrwt>
<pdfrwt beam="2">  1       -2 0.62752439E-01 0.59560774E+03</pdfrwt>
<totfact> 0.37420540E+02</totfact>
</mgrwt>
</event>
<event>
 4    1  0.9064384E-005  0.5858425E+03  0.7818608E-02  0.9935222E-01
          2   -1    0    0  501    0  0.00000000000E+00  0.00000000000E+00  0.15139672154E+04  0.15139672154E+04  0.25500000000E-02 0.  1.
         -2   -1    0    0    0  501 -0.00000000000E+00 -0.00000000000E+00 -0.56674193009E+02  0.56674193067E+02  0.25500000000E-02 0. -1.
    5000001    1    1    2    0    0  0.22243946067E+03 -0.21647134668E+02  0.47958851853E+03  0.55423646507E+03  0.16500000000E+03 0.  0.
   -5000001    1    1    2    0    0 -0.22243946067E+03  0.21647134668E+02  0.97770450381E+03  0.10164049434E+04  0.16500000000E+03 0.  0.
<mgrwt>
<rscale>  0 0.58584254E+03</rscale>
<asrwt>0</asrwt>
<pdfrwt beam="1">  1        2 0.23291804E+00 0.58584254E+03</pdfrwt>
<pdfrwt beam="2">  1       -2 0.87191063E-02 0.58584254E+03</pdfrwt>
<totfact> 0.10889625E+03</totfact>
</mgrwt>
</event>
<event>
 4    1  0.9064384E-005  0.4862182E+03  0.7818608E-02  0.1017440E+00
         -2   -1    0    0    0  501 -0.00000000000E+00  0.00000000000E+00  0.13536856606E+03  0.13536856608E+03  0.25500000000E-02 0. -1.
          2   -1    0    0  501    0  0.00000000000E+00 -0.00000000000E+00 -0.43660090369E+03  0.43660090369E+03  0.25500000000E-02 0.  1.
    5000001    1    1    2    0    0  0.91574877139E+02  0.14386232838E+03 -0.88427673910E+02  0.25323266212E+03  0.16500000000E+03 0.  0.
   -5000001    1    1    2    0    0 -0.91574877139E+02 -0.14386232838E+03 -0.21280466372E+03  0.31873680765E+03  0.16500000000E+03 0.  0.
<mgrwt>
<rscale>  0 0.48621822E+03</rscale>
<asrwt>0</asrwt>
<pdfrwt beam="1">  1        2 0.67169369E-01 0.48621822E+03</pdfrwt>
<pdfrwt beam="2">  1       -2 0.20825933E-01 0.48621822E+03</pdfrwt>
<totfact> 0.14283419E+03</totfact>
</mgrwt>
</event>
<event>
 4    1  0.9064384E-005  0.4937151E+03  0.7818608E-02  0.1015433E+00
         -2   -1    0    0    0  501 -0.00000000000E+00  0.00000000000E+00  0.18209122001E+02  0.18209122180E+02  0.25500000000E-02 0. -1.
          2   -1    0    0  501    0  0.00000000000E+00 -0.00000000000E+00 -0.33465995269E+04  0.33465995269E+04  0.25500000000E-02 0.  1.
    5000001    1    1    2    0    0  0.15710756646E+03 -0.75117576152E+02 -0.20609010725E+04  0.20748165385E+04  0.16500000000E+03 0.  0.
   -5000001    1    1    2    0    0 -0.15710756646E+03  0.75117576152E+02 -0.12674893323E+04  0.12899921106E+04  0.16500000000E+03 0.  0.
<mgrwt>
<rscale>  0 0.49371506E+03</rscale>
<asrwt>0</asrwt>
<pdfrwt beam="1">  1        2 0.51486098E+00 0.49371506E+03</pdfrwt>
<pdfrwt beam="2">  1       -2 0.28014061E-02 0.49371506E+03</pdfrwt>
<totfact> 0.57456480E+02</totfact>
</mgrwt>
</event>
<event>
 4    1  0.9064384E-005  0.5053562E+03  0.7818608E-02  0.1012390E+00
         -2   -1    0    0    0  501 -0.00000000000E+00  0.00000000000E+00  0.32574955722E+02  0.32574955822E+02  0.25500000000E-02 0. -1.
          2   -1    0    0  501    0  0.00000000000E+00 -0.00000000000E+00 -0.19599788360E+04  0.19599788360E+04  0.25500000000E-02 0.  1.
    5000001    1    1    2    0    0  0.17156250412E+03  0.23168061495E+02 -0.64215196470E+03  0.68524054000E+03  0.16500000000E+03 0.  0.
   -5000001    1    1    2    0    0 -0.17156250412E+03 -0.23168061495E+02 -0.12852519156E+04  0.13073132519E+04  0.16500000000E+03 0.  0.
<mgrwt>
<rscale>  0 0.50535621E+03</rscale>
<asrwt>0</asrwt>
<pdfrwt beam="1">  1        2 0.30153511E+00 0.50535621E+03</pdfrwt>
<pdfrwt beam="2">  1       -2 0.50115332E-02 0.50535621E+03</pdfrwt>
<totfact> 0.14976368E+03</totfact>
</mgrwt>
</event>
<event>
 4    1  0.9064384E-005  0.4053130E+03  0.7818608E-02  0.1041955E+00
          2   -1    0    0  501    0  0.00000000000E+00  0.00000000000E+00  0.19297520345E+04  0.19297520345E+04  0.25500000000E-02 0.  1.
         -2   -1    0    0    0  501 -0.00000000000E+00 -0.00000000000E+00 -0.21282349644E+02  0.21282349797E+02  0.25500000000E-02 0. -1.
    5000001    1    1    2    0    0  0.53710931044E+02  0.96490901670E+02  0.11497246614E+04  0.11667421117E+04  0.16500000000E+03 0.  0.
   -5000001    1    1    2    0    0 -0.53710931044E+02 -0.96490901670E+02  0.75874502354E+03  0.78429227267E+03  0.16500000000E+03 0.  0.
<mgrwt>
<rscale>  0 0.40531300E+03</rscale>
<asrwt>0</asrwt>
<pdfrwt beam="1">  1        2 0.29688476E+00 0.40531300E+03</pdfrwt>
<pdfrwt beam="2">  1       -2 0.32742095E-02 0.40531300E+03</pdfrwt>
<totfact> 0.29922223E+03</totfact>
</mgrwt>
</event>
<event>
 4    1  0.9064384E-005  0.4114931E+03  0.7818608E-02  0.1039871E+00
         -2   -1    0    0    0  501 -0.00000000000E+00  0.00000000000E+00  0.55869890140E+03  0.55869890141E+03  0.25500000000E-02 0. -1.
          2   -1    0    0  501    0  0.00000000000E+00 -0.00000000000E+00 -0.75768254729E+02  0.75768254771E+02  0.25500000000E-02 0.  1.
    5000001    1    1    2    0    0  0.10383284138E+03 -0.43459702949E+02  0.31757535875E+03  0.37516544779E+03  0.16500000000E+03 0.  0.
   -5000001    1    1    2    0    0 -0.10383284138E+03  0.43459702949E+02  0.16535528793E+03  0.25930170839E+03  0.16500000000E+03 0.  0.
<mgrwt>
<rscale>  0 0.41149309E+03</rscale>
<asrwt>0</asrwt>
<pdfrwt beam="1">  1        2 0.11656655E-01 0.41149309E+03</pdfrwt>
<pdfrwt beam="2">  1       -2 0.85953673E-01 0.41149309E+03</pdfrwt>
<totfact> 0.64655391E+02</totfact>
</mgrwt>
</event>
<event>
 4    1  0.9064384E-005  0.4614071E+03  0.7818608E-02  0.1024374E+00
          2   -1    0    0  501    0  0.00000000000E+00  0.00000000000E+00  0.43144719552E+03  0.43144719553E+03  0.25500000000E-02 0.  1.
         -2   -1    0    0    0  501 -0.00000000000E+00 -0.00000000000E+00 -0.12336184709E+03  0.12336184711E+03  0.25500000000E-02 0. -1.
    5000001    1    1    2    0    0 -0.15264576230E+03  0.83241092503E+01  0.21569693767E+03  0.31164112127E+03  0.16500000000E+03 0.  0.
   -5000001    1    1    2    0    0  0.15264576230E+03 -0.83241092503E+01  0.92388410768E+02  0.24316792138E+03  0.16500000000E+03 0.  0.
<mgrwt>
<rscale>  0 0.46140708E+03</rscale>
<asrwt>0</asrwt>
<pdfrwt beam="1">  1        2 0.66376492E-01 0.46140708E+03</pdfrwt>
<pdfrwt beam="2">  1       -2 0.18978746E-01 0.46140708E+03</pdfrwt>
<totfact> 0.16997392E+03</totfact>
</mgrwt>
</event>
<event>
 4    1  0.9064384E-005  0.4380761E+03  0.7818608E-02  0.1031339E+00
         -2   -1    0    0    0  501 -0.00000000000E+00  0.00000000000E+00  0.66790111843E+02  0.66790111891E+02  0.25500000000E-02 0. -1.
          2   -1    0    0  501    0  0.00000000000E+00 -0.00000000000E+00 -0.71833504503E+03  0.71833504504E+03  0.25500000000E-02 0.  1.
    5000001    1    1    2    0    0  0.12707609642E+03  0.67302110959E+02 -0.34126961555E+03  0.40542306165E+03  0.16500000000E+03 0.  0.
   -5000001    1    1    2    0    0 -0.12707609642E+03 -0.67302110959E+02 -0.31027531764E+03  0.37970209528E+03  0.16500000000E+03 0.  0.
<mgrwt>
<rscale>  0 0.43807615E+03</rscale>
<asrwt>0</asrwt>
<pdfrwt beam="1">  1        2 0.11051308E+00 0.43807615E+03</pdfrwt>
<pdfrwt beam="2">  1       -2 0.10275402E-01 0.43807615E+03</pdfrwt>
<totfact> 0.25940572E+03</totfact>
</mgrwt>
</event>
<event>
 4    1  0.9064384E-005  0.5500600E+03  0.7818608E-02  0.1001480E+00
         -2   -1    0    0    0  501 -0.00000000000E+00  0.00000000000E+00  0.46714164030E+02  0.46714164100E+02  0.25500000000E-02 0. -1.
          2   -1    0    0  501    0  0.00000000000E+00 -0.00000000000E+00 -0.16192412649E+04  0.16192412649E+04  0.25500000000E-02 0.  1.
    5000001    1    1    2    0    0 -0.47932628114E+02 -0.19672618526E+03 -0.10471130985E+04  0.10791985776E+04  0.16500000000E+03 0.  0.
   -5000001    1    1    2    0    0  0.47932628114E+02  0.19672618526E+03 -0.52541400236E+03  0.58675685141E+03  0.16500000000E+03 0.  0.
<mgrwt>
<rscale>  0 0.55006000E+03</rscale>
<asrwt>0</asrwt>
<pdfrwt beam="1">  1        2 0.24911400E+00 0.55006000E+03</pdfrwt>
<pdfrwt beam="2">  1       -2 0.71867957E-02 0.55006000E+03</pdfrwt>
<totfact> 0.12991952E+03</totfact>
</mgrwt>
</event>
<event>
 4    1  0.9064384E-005  0.7045172E+03  0.7818608E-02  0.9709538E-01
          2   -1    0    0  501    0  0.00000000000E+00  0.00000000000E+00  0.14002587789E+04  0.14002587789E+04  0.25500000000E-02 0. -1.
         -2   -1    0    0    0  501 -0.00000000000E+00 -0.00000000000E+00 -0.88616552052E+02  0.88616552088E+02  0.25500000000E-02 0.  1.
    5000001    1    1    2    0    0  0.10236642335E+03 -0.11164696267E+03  0.81255744831E+02  0.23826754914E+03  0.16500000000E+03 0.  0.
   -5000001    1    1    2    0    0 -0.10236642335E+03  0.11164696267E+03  0.12303864820E+04  0.12506077819E+04  0.16500000000E+03 0.  0.
<mgrwt>
<rscale>  0 0.70451715E+03</rscale>
<asrwt>0</asrwt>
<pdfrwt beam="1">  1        2 0.21542441E+00 0.70451715E+03</pdfrwt>
<pdfrwt beam="2">  1       -2 0.13633317E-01 0.70451715E+03</pdfrwt>
<totfact> 0.60287924E+02</totfact>
</mgrwt>
</event>
<event>
 4    1  0.9064384E-005  0.5890206E+03  0.7818608E-02  0.9928450E-01
          2   -1    0    0  501    0  0.00000000000E+00  0.00000000000E+00  0.55244362580E+03  0.55244362580E+03  0.25500000000E-02 0.  1.
         -2   -1    0    0    0  501 -0.00000000000E+00 -0.00000000000E+00 -0.15700485193E+03  0.15700485195E+03  0.25500000000E-02 0. -1.
    5000001    1    1    2    0    0 -0.47683692488E+00  0.24236818470E+03  0.23111483271E+03  0.37333849283E+03  0.16500000000E+03 0.  0.
   -5000001    1    1    2    0    0  0.47683692488E+00 -0.24236818470E+03  0.16432394116E+03  0.33610998492E+03  0.16500000000E+03 0.  0.
<mgrwt>
<rscale>  0 0.58902064E+03</rscale>
<asrwt>0</asrwt>
<pdfrwt beam="1">  1        2 0.84991327E-01 0.58902064E+03</pdfrwt>
<pdfrwt beam="2">  1       -2 0.24154593E-01 0.58902064E+03</pdfrwt>
<totfact> 0.83900872E+02</totfact>
</mgrwt>
</event>
<event>
 4    1  0.9064384E-005  0.7486207E+03  0.7818608E-02  0.9637517E-01
         -2   -1    0    0    0  501 -0.00000000000E+00  0.00000000000E+00  0.15364962218E+03  0.15364962220E+03  0.25500000000E-02 0. -1.
          2   -1    0    0  501    0  0.00000000000E+00 -0.00000000000E+00 -0.91186840690E+03  0.91186840690E+03  0.25500000000E-02 0.  1.
    5000001    1    1    2    0    0  0.24393458513E+03  0.69346506688E+02 -0.69278734393E+03  0.75597111302E+03  0.16500000000E+03 0.  0.
   -5000001    1    1    2    0    0 -0.24393458513E+03 -0.69346506688E+02 -0.65431440795E+02  0.30954691608E+03  0.16500000000E+03 0.  0.
<mgrwt>
<rscale>  0 0.74862069E+03</rscale>
<asrwt>0</asrwt>
<pdfrwt beam="1">  1        2 0.14028744E+00 0.74862069E+03</pdfrwt>
<pdfrwt beam="2">  1       -2 0.23638404E-01 0.74862069E+03</pdfrwt>
<totfact> 0.45904009E+02</totfact>
</mgrwt>
</event>
<event>
 4    1  0.9064384E-005  0.5820093E+03  0.7818608E-02  0.9943450E-01
         -2   -1    0    0    0  501 -0.00000000000E+00  0.00000000000E+00  0.71221806122E+02  0.71221806167E+02  0.25500000000E-02 0.  1.
          2   -1    0    0  501    0  0.00000000000E+00 -0.00000000000E+00 -0.11890138723E+04  0.11890138723E+04  0.25500000000E-02 0. -1.
    5000001    1    1    2    0    0 -0.15395800557E+03  0.18040916534E+03 -0.48363193848E+03  0.56336079588E+03  0.16500000000E+03 0.  0.
   -5000001    1    1    2    0    0  0.15395800557E+03 -0.18040916534E+03 -0.63416012766E+03  0.69687488255E+03  0.16500000000E+03 0.  0.
<mgrwt>
<rscale>  0 0.58200933E+03</rscale>
<asrwt>0</asrwt>
<pdfrwt beam="1">  1        2 0.18292520E+00 0.58200933E+03</pdfrwt>
<pdfrwt beam="2">  1       -2 0.10957202E-01 0.58200933E+03</pdfrwt>
<totfact> 0.11500578E+03</totfact>
</mgrwt>
</event>
<event>
 4    1  0.9064384E-005  0.6197322E+03  0.7818608E-02  0.9865293E-01
          2   -1    0    0  501    0  0.00000000000E+00  0.00000000000E+00  0.79642094813E+03  0.79642094813E+03  0.25500000000E-02 0.  1.
         -2   -1    0    0    0  501 -0.00000000000E+00 -0.00000000000E+00 -0.12056060881E+03  0.12056060884E+03  0.25500000000E-02 0. -1.
    5000001    1    1    2    0    0 -0.24559006275E+03 -0.21984972402E+02  0.20563517386E+03  0.36098288417E+03  0.16500000000E+03 0.  0.
   -5000001    1    1    2    0    0  0.24559006275E+03  0.21984972402E+02  0.47022516545E+03  0.55599867280E+03  0.16500000000E+03 0.  0.
<mgrwt>
<rscale>  0 0.61973218E+03</rscale>
<asrwt>0</asrwt>
<pdfrwt beam="1">  1        2 0.12252630E+00 0.61973218E+03</pdfrwt>
<pdfrwt beam="2">  1       -2 0.18547786E-01 0.61973218E+03</pdfrwt>
<totfact> 0.84833506E+02</totfact>
</mgrwt>
</event>
<event>
 4    1  0.9064384E-005  0.4574138E+03  0.7818608E-02  0.1025534E+00
         -2   -1    0    0    0  501 -0.00000000000E+00  0.00000000000E+00  0.38957493724E+02  0.38957493808E+02  0.25500000000E-02 0. -1.
          2   -1    0    0  501    0  0.00000000000E+00 -0.00000000000E+00 -0.13426642648E+04  0.13426642648E+04  0.25500000000E-02 0.  1.
    5000001    1    1    2    0    0  0.44264686458E+02  0.14708224675E+03 -0.76841856834E+03  0.80080250121E+03  0.16500000000E+03 0.  0.
   -5000001    1    1    2    0    0 -0.44264686458E+02 -0.14708224675E+03 -0.53528820271E+03  0.58081925738E+03  0.16500000000E+03 0.  0.
<mgrwt>
<rscale>  0 0.45741375E+03</rscale>
<asrwt>0</asrwt>
<pdfrwt beam="1">  1        2 0.20656370E+00 0.45741375E+03</pdfrwt>
<pdfrwt beam="2">  1       -2 0.59934616E-02 0.45741375E+03</pdfrwt>
<totfact> 0.24606545E+03</totfact>
</mgrwt>
</event>
<event>
 4    1  0.9064384E-005  0.8149407E+03  0.7818608E-02  0.9538639E-01
          2   -1    0    0  501    0  0.00000000000E+00  0.00000000000E+00  0.28172876264E+04  0.28172876264E+04  0.25500000000E-02 0.  1.
         -2   -1    0    0    0  501 -0.00000000000E+00 -0.00000000000E+00 -0.58933313180E+02  0.58933313235E+02  0.25500000000E-02 0. -1.
    5000001    1    1    2    0    0  0.61401349193E+02  0.33256461807E+03  0.82744693469E+03  0.90898997828E+03  0.16500000000E+03 0.  0.
   -5000001    1    1    2    0    0 -0.61401349193E+02 -0.33256461807E+03  0.19309073785E+04  0.19672309614E+04  0.16500000000E+03 0.  0.
<mgrwt>
<rscale>  0 0.81494072E+03</rscale>
<asrwt>0</asrwt>
<pdfrwt beam="1">  1        2 0.43342880E+00 0.81494072E+03</pdfrwt>
<pdfrwt beam="2">  1       -2 0.90666649E-02 0.81494072E+03</pdfrwt>
<totfact> 0.18913871E+02</totfact>
</mgrwt>
</event>
<event>
 4    1  0.9064384E-005  0.3575340E+03  0.7818608E-02  0.1059565E+00
         -2   -1    0    0    0  501 -0.00000000000E+00  0.00000000000E+00  0.13023459407E+02  0.13023459657E+02  0.25500000000E-02 0. -1.
          2   -1    0    0  501    0  0.00000000000E+00 -0.00000000000E+00 -0.24538523629E+04  0.24538523629E+04  0.25500000000E-02 0.  1.
    5000001    1    1    2    0    0  0.40967680472E+02  0.50970343982E+02 -0.10730255733E+04  0.10876052628E+04  0.16500000000E+03 0.  0.
   -5000001    1    1    2    0    0 -0.40967680472E+02 -0.50970343982E+02 -0.13678033302E+04  0.13792705597E+04  0.16500000000E+03 0.  0.
<mgrwt>
<rscale>  0 0.35753404E+03</rscale>
<asrwt>0</asrwt>
<pdfrwt beam="1">  1        2 0.37751538E+00 0.35753404E+03</pdfrwt>
<pdfrwt beam="2">  1       -2 0.20036111E-02 0.35753404E+03</pdfrwt>
<totfact> 0.32611882E+03</totfact>
</mgrwt>
</event>
<event>
 4    1  0.9064384E-005  0.6464654E+03  0.7818608E-02  0.9813434E-01
          2   -1    0    0  501    0  0.00000000000E+00  0.00000000000E+00  0.33580680032E+04  0.33580680032E+04  0.25500000000E-02 0.  1.
         -2   -1    0    0    0  501 -0.00000000000E+00 -0.00000000000E+00 -0.31112941088E+02  0.31112941192E+02  0.25500000000E-02 0. -1.
    5000001    1    1    2    0    0  0.80577728415E+02 -0.26243335725E+03  0.18914166419E+04  0.19183445860E+04  0.16500000000E+03 0.  0.
   -5000001    1    1    2    0    0 -0.80577728415E+02  0.26243335725E+03  0.14355384202E+04  0.14708363584E+04  0.16500000000E+03 0.  0.
<mgrwt>
<rscale>  0 0.64646538E+03</rscale>
<asrwt>0</asrwt>
<pdfrwt beam="1">  1        2 0.51662575E+00 0.64646538E+03</pdfrwt>
<pdfrwt beam="2">  1       -2 0.47866072E-02 0.64646538E+03</pdfrwt>
<totfact> 0.24388249E+02</totfact>
</mgrwt>
</event>
<event>
 4    1  0.9064384E-005  0.4305828E+03  0.7818608E-02  0.1033676E+00
          2   -1    0    0  501    0  0.00000000000E+00  0.00000000000E+00  0.19710431626E+03  0.19710431628E+03  0.25500000000E-02 0. -1.
         -2   -1    0    0    0  501 -0.00000000000E+00 -0.00000000000E+00 -0.23515668013E+03  0.23515668015E+03  0.25500000000E-02 0.  1.
    5000001    1    1    2    0    0 -0.13314505272E+03  0.23522205319E+02  0.10147315580E+02  0.21356232632E+03  0.16500000000E+03 0.  0.
   -5000001    1    1    2    0    0  0.13314505272E+03 -0.23522205319E+02 -0.48199679454E+02  0.21869867011E+03  0.16500000000E+03 0.  0.
<mgrwt>
<rscale>  0 0.43058285E+03</rscale>
<asrwt>0</asrwt>
<pdfrwt beam="1">  1        2 0.30323741E-01 0.43058285E+03</pdfrwt>
<pdfrwt beam="2">  1       -2 0.36177951E-01 0.43058285E+03</pdfrwt>
<totfact> 0.12598846E+03</totfact>
</mgrwt>
</event>
<event>
 4    1  0.9064384E-005  0.5734343E+03  0.7818608E-02  0.9962108E-01
          2   -1    0    0  501    0  0.00000000000E+00  0.00000000000E+00  0.17243727425E+03  0.17243727426E+03  0.25500000000E-02 0.  1.
         -2   -1    0    0    0  501 -0.00000000000E+00 -0.00000000000E+00 -0.47673399717E+03  0.47673399717E+03  0.25500000000E-02 0. -1.
    5000001    1    1    2    0    0  0.73505919220E+02 -0.20560090058E+03 -0.55378288326E+02  0.27922500837E+03  0.16500000000E+03 0.  0.
   -5000001    1    1    2    0    0 -0.73505919220E+02  0.20560090058E+03 -0.24891843460E+03  0.36994626307E+03  0.16500000000E+03 0.  0.
<mgrwt>
<rscale>  0 0.57343425E+03</rscale>
<asrwt>0</asrwt>
<pdfrwt beam="1">  1        2 0.26528812E-01 0.57343425E+03</pdfrwt>
<pdfrwt beam="2">  1       -2 0.73343691E-01 0.57343425E+03</pdfrwt>
<totfact> 0.34704454E+02</totfact>
</mgrwt>
</event>
<event>
 4    1  0.9064384E-005  0.4746891E+03  0.7818608E-02  0.1020605E+00
         -2   -1    0    0    0  501 -0.00000000000E+00  0.00000000000E+00  0.50071277262E+02  0.50071277327E+02  0.25500000000E-02 0. -1.
          2   -1    0    0  501    0  0.00000000000E+00 -0.00000000000E+00 -0.11250450615E+04  0.11250450615E+04  0.25500000000E-02 0.  1.
    5000001    1    1    2    0    0 -0.10628320162E+03  0.11633663911E+03 -0.37558690266E+03  0.43945517860E+03  0.16500000000E+03 0.  0.
   -5000001    1    1    2    0    0  0.10628320162E+03 -0.11633663911E+03 -0.69938688154E+03  0.73566116019E+03  0.16500000000E+03 0.  0.
<mgrwt>
<rscale>  0 0.47468913E+03</rscale>
<asrwt>0</asrwt>
<pdfrwt beam="1">  1        2 0.17308384E+00 0.47468913E+03</pdfrwt>
<pdfrwt beam="2">  1       -2 0.77032742E-02 0.47468913E+03</pdfrwt>
<totfact> 0.22154733E+03</totfact>
</mgrwt>
</event>
<event>
 4    1  0.9064384E-005  0.4987309E+03  0.7818608E-02  0.1014111E+00
         -2   -1    0    0    0  501 -0.00000000000E+00  0.00000000000E+00  0.10296952026E+03  0.10296952029E+03  0.25500000000E-02 0. -1.
          2   -1    0    0  501    0  0.00000000000E+00 -0.00000000000E+00 -0.60389838339E+03  0.60389838339E+03  0.25500000000E-02 0.  1.
    5000001    1    1    2    0    0  0.89363934704E+02 -0.16411275715E+03 -0.25934025973E+03  0.35972389440E+03  0.16500000000E+03 0.  0.
   -5000001    1    1    2    0    0 -0.89363934704E+02  0.16411275715E+03 -0.24158860340E+03  0.34714400928E+03  0.16500000000E+03 0.  0.
<mgrwt>
<rscale>  0 0.49873090E+03</rscale>
<asrwt>0</asrwt>
<pdfrwt beam="1">  1        2 0.92907442E-01 0.49873090E+03</pdfrwt>
<pdfrwt beam="2">  1       -2 0.15841465E-01 0.49873090E+03</pdfrwt>
<totfact> 0.15709984E+03</totfact>
</mgrwt>
</event>
<event>
 4    1  0.9064384E-005  0.6834265E+03  0.7818608E-02  0.9746003E-01
         -2   -1    0    0    0  501 -0.00000000000E+00  0.00000000000E+00  0.41105273451E+03  0.41105273452E+03  0.25500000000E-02 0. -1.
          2   -1    0    0  501    0  0.00000000000E+00 -0.00000000000E+00 -0.28407043430E+03  0.28407043431E+03  0.25500000000E-02 0.  1.
    5000001    1    1    2    0    0  0.28845298464E+03  0.79337521270E+02  0.56793451804E+02  0.34633807587E+03  0.16500000000E+03 0.  0.
   -5000001    1    1    2    0    0 -0.28845298464E+03 -0.79337521270E+02  0.70188848406E+02  0.34878509296E+03  0.16500000000E+03 0.  0.
<mgrwt>
<rscale>  0 0.68342645E+03</rscale>
<asrwt>0</asrwt>
<pdfrwt beam="1">  1        2 0.43703143E-01 0.68342645E+03</pdfrwt>
<pdfrwt beam="2">  1       -2 0.63238883E-01 0.68342645E+03</pdfrwt>
<totfact> 0.27289012E+02</totfact>
</mgrwt>
</event>
<event>
 4    1  0.9064384E-005  0.9083950E+03  0.7818608E-02  0.9415148E-01
          2   -1    0    0  501    0  0.00000000000E+00  0.00000000000E+00  0.27849675473E+04  0.27849675473E+04  0.25500000000E-02 0.  1.
         -2   -1    0    0    0  501 -0.00000000000E+00 -0.00000000000E+00 -0.74074610154E+02  0.74074610197E+02  0.25500000000E-02 0. -1.
    5000001    1    1    2    0    0  0.23249150104E+03 -0.22459198920E+03  0.49594449054E+03  0.61455658598E+03  0.16500000000E+03 0.  0.
   -5000001    1    1    2    0    0 -0.23249150104E+03  0.22459198920E+03  0.22149484466E+04  0.22444855716E+04  0.16500000000E+03 0.  0.
<mgrwt>
<rscale>  0 0.90839504E+03</rscale>
<asrwt>0</asrwt>
<pdfrwt beam="1">  1        2 0.42845650E+00 0.90839504E+03</pdfrwt>
<pdfrwt beam="2">  1       -2 0.11396095E-01 0.90839504E+03</pdfrwt>
<totfact> 0.13477647E+02</totfact>
</mgrwt>
</event>
<event>
 4    1  0.9064384E-005  0.5707798E+03  0.7818608E-02  0.9967955E-01
         -2   -1    0    0    0  501 -0.00000000000E+00  0.00000000000E+00  0.22655083877E+03  0.22655083878E+03  0.25500000000E-02 0.  1.
          2   -1    0    0  501    0  0.00000000000E+00 -0.00000000000E+00 -0.35951039668E+03  0.35951039669E+03  0.25500000000E-02 0. -1.
    5000001    1    1    2    0    0  0.16952495080E+03 -0.15888476969E+03 -0.82363361030E+02  0.29663412181E+03  0.16500000000E+03 0.  0.
   -5000001    1    1    2    0    0 -0.16952495080E+03  0.15888476969E+03 -0.50596196882E+02  0.28942711366E+03  0.16500000000E+03 0.  0.
<mgrwt>
<rscale>  0 0.57077975E+03</rscale>
<asrwt>0</asrwt>
<pdfrwt beam="1">  1        2 0.55309292E-01 0.57077975E+03</pdfrwt>
<pdfrwt beam="2">  1       -2 0.34853975E-01 0.57077975E+03</pdfrwt>
<totfact> 0.69642749E+02</totfact>
</mgrwt>
</event>
<event>
 4    1  0.9064384E-005  0.4922780E+03  0.7818608E-02  0.1015814E+00
          2   -1    0    0  501    0  0.00000000000E+00  0.00000000000E+00  0.27674664232E+04  0.27674664232E+04  0.25500000000E-02 0.  1.
         -2   -1    0    0    0  501 -0.00000000000E+00 -0.00000000000E+00 -0.21891654396E+02  0.21891654545E+02  0.25500000000E-02 0. -1.
    5000001    1    1    2    0    0  0.84379880464E+02  0.46520411147E+02  0.49360352304E+03  0.52929533423E+03  0.16500000000E+03 0.  0.
   -5000001    1    1    2    0    0 -0.84379880464E+02 -0.46520411147E+02  0.22519712457E+04  0.22600627435E+04  0.16500000000E+03 0.  0.
<mgrwt>
<rscale>  0 0.49227805E+03</rscale>
<asrwt>0</asrwt>
<pdfrwt beam="1">  1        2 0.42576409E+00 0.49227805E+03</pdfrwt>
<pdfrwt beam="2">  1       -2 0.33679467E-02 0.49227805E+03</pdfrwt>
<totfact> 0.98375374E+02</totfact>
</mgrwt>
</event>
<event>
 4    1  0.9064384E-005  0.5734654E+03  0.7818608E-02  0.9962039E-01
         -2   -1    0    0    0  501 -0.00000000000E+00  0.00000000000E+00  0.29603970672E+03  0.29603970673E+03  0.25500000000E-02 0. -1.
          2   -1    0    0  501    0  0.00000000000E+00 -0.00000000000E+00 -0.27771833408E+03  0.27771833410E+03  0.25500000000E-02 0.  1.
    5000001    1    1    2    0    0  0.22385876547E+03 -0.27032333230E+02  0.73591993147E+02  0.28893645560E+03  0.16500000000E+03 0.  0.
   -5000001    1    1    2    0    0 -0.22385876547E+03  0.27032333230E+02 -0.55270620513E+02  0.28482158523E+03  0.16500000000E+03 0.  0.
<mgrwt>
<rscale>  0 0.57346545E+03</rscale>
<asrwt>0</asrwt>
<pdfrwt beam="1">  1        2 0.42725897E-01 0.57346545E+03</pdfrwt>
<pdfrwt beam="2">  1       -2 0.45544570E-01 0.57346545E+03</pdfrwt>
<totfact> 0.55126705E+02</totfact>
</mgrwt>
</event>
<event>
 4    1  0.9064384E-005  0.6868149E+03  0.7818608E-02  0.9740050E-01
         -2   -1    0    0    0  501 -0.00000000000E+00  0.00000000000E+00  0.10611992088E+03  0.10611992091E+03  0.25500000000E-02 0. -1.
          2   -1    0    0  501    0  0.00000000000E+00 -0.00000000000E+00 -0.11112775775E+04  0.11112775775E+04  0.25500000000E-02 0.  1.
    5000001    1    1    2    0    0 -0.23766264835E+03  0.34320996246E+02 -0.18037751488E+03  0.34266968509E+03  0.16500000000E+03 0.  0.
   -5000001    1    1    2    0    0  0.23766264835E+03 -0.34320996246E+02 -0.82478014174E+03  0.87472781333E+03  0.16500000000E+03 0.  0.
<mgrwt>
<rscale>  0 0.68681493E+03</rscale>
<asrwt>0</asrwt>
<pdfrwt beam="1">  1        2 0.17096577E+00 0.68681493E+03</pdfrwt>
<pdfrwt beam="2">  1       -2 0.16326143E-01 0.68681493E+03</pdfrwt>
<totfact> 0.65586280E+02</totfact>
</mgrwt>
</event>
<event>
 4    1  0.9064384E-005  0.4919624E+03  0.7818608E-02  0.1015898E+00
         -2   -1    0    0    0  501 -0.00000000000E+00  0.00000000000E+00  0.13480708667E+03  0.13480708669E+03  0.25500000000E-02 0. -1.
          2   -1    0    0  501    0  0.00000000000E+00 -0.00000000000E+00 -0.44883956998E+03  0.44883956998E+03  0.25500000000E-02 0.  1.
    5000001    1    1    2    0    0 -0.75524448341E+02 -0.16075811453E+03 -0.20642715667E+03  0.31840898966E+03  0.16500000000E+03 0.  0.
   -5000001    1    1    2    0    0  0.75524448341E+02  0.16075811453E+03 -0.10760532664E+03  0.26523766702E+03  0.16500000000E+03 0.  0.
<mgrwt>
<rscale>  0 0.49196242E+03</rscale>
<asrwt>0</asrwt>
<pdfrwt beam="1">  1        2 0.69052241E-01 0.49196242E+03</pdfrwt>
<pdfrwt beam="2">  1       -2 0.20739552E-01 0.49196242E+03</pdfrwt>
<totfact> 0.13947692E+03</totfact>
</mgrwt>
</event>
<event>
 4    1  0.9064384E-005  0.5376246E+03  0.7818608E-02  0.1004400E+00
          2   -1    0    0  501    0  0.00000000000E+00  0.00000000000E+00  0.12460299051E+04  0.12460299051E+04  0.25500000000E-02 0.  1.
         -2   -1    0    0    0  501 -0.00000000000E+00 -0.00000000000E+00 -0.57992222812E+02  0.57992222868E+02  0.25500000000E-02 0. -1.
    5000001    1    1    2    0    0 -0.96046175881E+01 -0.14363759767E+03  0.21583097912E+03  0.30746059860E+03  0.16500000000E+03 0.  0.
   -5000001    1    1    2    0    0  0.96046175881E+01  0.14363759767E+03  0.97220670320E+03  0.99656152940E+03  0.16500000000E+03 0.  0.
<mgrwt>
<rscale>  0 0.53762457E+03</rscale>
<asrwt>0</asrwt>
<pdfrwt beam="1">  1        2 0.19169688E+00 0.53762457E+03</pdfrwt>
<pdfrwt beam="2">  1       -2 0.89218816E-02 0.53762457E+03</pdfrwt>
<totfact> 0.14874948E+03</totfact>
</mgrwt>
</event>
<event>
 4    1  0.9064384E-005  0.4456081E+03  0.7818608E-02  0.1029040E+00
         -2   -1    0    0    0  501 -0.00000000000E+00  0.00000000000E+00  0.22046552569E+03  0.22046552571E+03  0.25500000000E-02 0. -1.
          2   -1    0    0  501    0  0.00000000000E+00 -0.00000000000E+00 -0.22516739506E+03  0.22516739508E+03  0.25500000000E-02 0.  1.
    5000001    1    1    2    0    0  0.50896425570E+02  0.12386235436E+03  0.64617852292E+02  0.22210987326E+03  0.16500000000E+03 0.  0.
   -5000001    1    1    2    0    0 -0.50896425570E+02 -0.12386235436E+03 -0.69319721664E+02  0.22352304753E+03  0.16500000000E+03 0.  0.
<mgrwt>
<rscale>  0 0.44560812E+03</rscale>
<asrwt>0</asrwt>
<pdfrwt beam="1">  1        2 0.34641138E-01 0.44560812E+03</pdfrwt>
<pdfrwt beam="2">  1       -2 0.33917773E-01 0.44560812E+03</pdfrwt>
<totfact> 0.12277916E+03</totfact>
</mgrwt>
</event>
<event>
 4    1  0.9064384E-005  0.4160526E+03  0.7818608E-02  0.1038359E+00
         -2   -1    0    0    0  501 -0.00000000000E+00  0.00000000000E+00  0.50126810704E+02  0.50126810769E+02  0.25500000000E-02 0. -1.
          2   -1    0    0  501    0  0.00000000000E+00 -0.00000000000E+00 -0.86330932439E+03  0.86330932440E+03  0.25500000000E-02 0.  1.
    5000001    1    1    2    0    0  0.75965726012E+02  0.10037365859E+03 -0.37521196587E+03  0.42878279140E+03  0.16500000000E+03 0.  0.
   -5000001    1    1    2    0    0 -0.75965726012E+02 -0.10037365859E+03 -0.43797054782E+03  0.48465334377E+03  0.16500000000E+03 0.  0.
<mgrwt>
<rscale>  0 0.41605261E+03</rscale>
<asrwt>0</asrwt>
<pdfrwt beam="1">  1        2 0.13281681E+00 0.41605261E+03</pdfrwt>
<pdfrwt beam="2">  1       -2 0.77118177E-02 0.41605261E+03</pdfrwt>
<totfact> 0.32320146E+03</totfact>
</mgrwt>
</event>
<event>
 4    1  0.9064384E-005  0.7177497E+03  0.7818608E-02  0.9687350E-01
          2   -1    0    0  501    0  0.00000000000E+00  0.00000000000E+00  0.38975695507E+03  0.38975695508E+03  0.25500000000E-02 0.  1.
         -2   -1    0    0    0  501 -0.00000000000E+00 -0.00000000000E+00 -0.33043968328E+03  0.33043968329E+03  0.25500000000E-02 0. -1.
    5000001    1    1    2    0    0 -0.21814421485E+03  0.20774893806E+03 -0.74713498693E+02  0.35150195821E+03  0.16500000000E+03 0.  0.
   -5000001    1    1    2    0    0  0.21814421485E+03 -0.20774893806E+03  0.13403077049E+03  0.36869468016E+03  0.16500000000E+03 0.  0.
<mgrwt>
<rscale>  0 0.71774972E+03</rscale>
<asrwt>0</asrwt>
<pdfrwt beam="1">  1        2 0.59962609E-01 0.71774972E+03</pdfrwt>
<pdfrwt beam="2">  1       -2 0.50836874E-01 0.71774972E+03</pdfrwt>
<totfact> 0.30222420E+02</totfact>
</mgrwt>
</event>
<event>
 4    1  0.9064384E-005  0.5963289E+03  0.7818608E-02  0.9913052E-01
          2   -1    0    0  501    0  0.00000000000E+00  0.00000000000E+00  0.90492689939E+03  0.90492689939E+03  0.25500000000E-02 0. -1.
         -2   -1    0    0    0  501 -0.00000000000E+00 -0.00000000000E+00 -0.98242236906E+02  0.98242236939E+02  0.25500000000E-02 0.  1.
    5000001    1    1    2    0    0  0.11041867943E+03 -0.17145071471E+03  0.64177836708E+03  0.69331962672E+03  0.16500000000E+03 0.  0.
   -5000001    1    1    2    0    0 -0.11041867943E+03  0.17145071471E+03  0.16490629540E+03  0.30984950961E+03  0.16500000000E+03 0.  0.
<mgrwt>
<rscale>  0 0.59632891E+03</rscale>
<asrwt>0</asrwt>
<pdfrwt beam="1">  1        2 0.13921952E+00 0.59632891E+03</pdfrwt>
<pdfrwt beam="2">  1       -2 0.15114191E-01 0.59632891E+03</pdfrwt>
<totfact> 0.10130402E+03</totfact>
</mgrwt>
</event>
<event>
 4    1  0.9064384E-005  0.4396254E+03  0.7818608E-02  0.1030862E+00
          2   -1    0    0  501    0  0.00000000000E+00  0.00000000000E+00  0.10025546665E+04  0.10025546665E+04  0.25500000000E-02 0.  1.
         -2   -1    0    0    0  501 -0.00000000000E+00 -0.00000000000E+00 -0.48194510755E+02  0.48194510823E+02  0.25500000000E-02 0. -1.
    5000001    1    1    2    0    0 -0.57914380726E+02  0.90517189435E+02  0.71069177346E+03  0.73746541203E+03  0.16500000000E+03 0.  0.
   -5000001    1    1    2    0    0  0.57914380726E+02 -0.90517189435E+02  0.24366838233E+03  0.31328376534E+03  0.16500000000E+03 0.  0.
<mgrwt>
<rscale>  0 0.43962544E+03</rscale>
<asrwt>0</asrwt>
<pdfrwt beam="1">  1        2 0.15423920E+00 0.43962544E+03</pdfrwt>
<pdfrwt beam="2">  1       -2 0.74145393E-02 0.43962544E+03</pdfrwt>
<totfact> 0.27948530E+03</totfact>
</mgrwt>
</event>
<event>
 4    1  0.9064384E-005  0.5096175E+03  0.7818608E-02  0.1011299E+00
          2   -1    0    0  501    0  0.00000000000E+00  0.00000000000E+00  0.44948378947E+04  0.44948378947E+04  0.25500000000E-02 0.  1.
         -2   -1    0    0    0  501 -0.00000000000E+00 -0.00000000000E+00 -0.14444905494E+02  0.14444905719E+02  0.25500000000E-02 0. -1.
    5000001    1    1    2    0    0  0.18898527485E+03 -0.18597749347E+02  0.25986589629E+04  0.26108072920E+04  0.16500000000E+03 0.  0.
   -5000001    1    1    2    0    0 -0.18898527485E+03  0.18597749347E+02  0.18817340263E+04  0.18984755084E+04  0.16500000000E+03 0.  0.
<mgrwt>
<rscale>  0 0.50961754E+03</rscale>
<asrwt>0</asrwt>
<pdfrwt beam="1">  1        2 0.69151338E+00 0.50961754E+03</pdfrwt>
<pdfrwt beam="2">  1       -2 0.22222936E-02 0.50961754E+03</pdfrwt>
<totfact> 0.10547453E+02</totfact>
</mgrwt>
</event>
<event>
 4    1  0.9064384E-005  0.1034192E+04  0.7818608E-02  0.9271818E-01
          2   -1    0    0  501    0  0.00000000000E+00  0.00000000000E+00  0.72586464514E+03  0.72586464514E+03  0.25500000000E-02 0.  1.
         -2   -1    0    0    0  501 -0.00000000000E+00 -0.00000000000E+00 -0.36837232633E+03  0.36837232634E+03  0.25500000000E-02 0. -1.
    5000001    1    1    2    0    0  0.44732271705E+03 -0.14653206867E+03  0.34468638041E+02  0.49998234704E+03  0.16500000000E+03 0.  0.
   -5000001    1    1    2    0    0 -0.44732271705E+03  0.14653206867E+03  0.32302368076E+03  0.59425462444E+03  0.16500000000E+03 0.  0.
<mgrwt>
<rscale>  0 0.10341923E+04</rscale>
<asrwt>0</asrwt>
<pdfrwt beam="1">  1        2 0.11167148E+00 0.10341923E+04</pdfrwt>
<pdfrwt beam="2">  1       -2 0.56672666E-01 0.10341923E+04</pdfrwt>
<totfact> 0.11389553E+02</totfact>
</mgrwt>
</event>
<event>
 4    1  0.9064384E-005  0.4692577E+03  0.7818608E-02  0.1022130E+00
         -2   -1    0    0    0  501 -0.00000000000E+00  0.00000000000E+00  0.45965752384E+02  0.45965752455E+02  0.25500000000E-02 0. -1.
          2   -1    0    0  501    0  0.00000000000E+00 -0.00000000000E+00 -0.11976457855E+04  0.11976457855E+04  0.25500000000E-02 0.  1.
    5000001    1    1    2    0    0 -0.16657921700E+03 -0.36553114875E+01 -0.55468961462E+03  0.60221886836E+03  0.16500000000E+03 0.  0.
   -5000001    1    1    2    0    0  0.16657921700E+03  0.36553114875E+01 -0.59699041847E+03  0.64139266957E+03  0.16500000000E+03 0.  0.
<mgrwt>
<rscale>  0 0.46925767E+03</rscale>
<asrwt>0</asrwt>
<pdfrwt beam="1">  1        2 0.18425317E+00 0.46925767E+03</pdfrwt>
<pdfrwt beam="2">  1       -2 0.70716551E-02 0.46925767E+03</pdfrwt>
<totfact> 0.22980018E+03</totfact>
</mgrwt>
</event>
<event>
 4    1  0.9064384E-005  0.4155249E+03  0.7818608E-02  0.1038533E+00
         -2   -1    0    0    0  501 -0.00000000000E+00  0.00000000000E+00  0.29517823188E+02  0.29517823298E+02  0.25500000000E-02 0. -1.
          2   -1    0    0  501    0  0.00000000000E+00 -0.00000000000E+00 -0.14623450155E+04  0.14623450155E+04  0.25500000000E-02 0.  1.
    5000001    1    1    2    0    0 -0.76055545000E+02  0.52237677646E+02 -0.10258270062E+04  0.10431007945E+04  0.16500000000E+03 0.  0.
   -5000001    1    1    2    0    0  0.76055545000E+02 -0.52237677646E+02 -0.40700018618E+03  0.44876204435E+03  0.16500000000E+03 0.  0.
<mgrwt>
<rscale>  0 0.41552493E+03</rscale>
<asrwt>0</asrwt>
<pdfrwt beam="1">  1        2 0.22497610E+00 0.41552493E+03</pdfrwt>
<pdfrwt beam="2">  1       -2 0.45412047E-02 0.41552493E+03</pdfrwt>
<totfact> 0.32433094E+03</totfact>
</mgrwt>
</event>
<event>
 4    1  0.9064384E-005  0.5282518E+03  0.7818608E-02  0.1006657E+00
          2   -1    0    0  501    0  0.00000000000E+00  0.00000000000E+00  0.12209956635E+04  0.12209956635E+04  0.25500000000E-02 0. -1.
         -2   -1    0    0    0  501 -0.00000000000E+00 -0.00000000000E+00 -0.57135732304E+02  0.57135732361E+02  0.25500000000E-02 0.  1.
    5000001    1    1    2    0    0 -0.14954237783E+03  0.14133423372E+03  0.54778146717E+03  0.60797024941E+03  0.16500000000E+03 0.  0.
   -5000001    1    1    2    0    0  0.14954237783E+03 -0.14133423372E+03  0.61607846403E+03  0.67016114647E+03  0.16500000000E+03 0.  0.
<mgrwt>
<rscale>  0 0.52825176E+03</rscale>
<asrwt>0</asrwt>
<pdfrwt beam="1">  1        2 0.18784550E+00 0.52825176E+03</pdfrwt>
<pdfrwt beam="2">  1       -2 0.87901120E-02 0.52825176E+03</pdfrwt>
<totfact> 0.15754760E+03</totfact>
</mgrwt>
</event>
<event>
 4    1  0.9064384E-005  0.7104503E+03  0.7818608E-02  0.9699526E-01
          2   -1    0    0  501    0  0.00000000000E+00  0.00000000000E+00  0.10518414133E+04  0.10518414133E+04  0.25500000000E-02 0.  1.
         -2   -1    0    0    0  501 -0.00000000000E+00 -0.00000000000E+00 -0.11996571260E+03  0.11996571262E+03  0.25500000000E-02 0. -1.
    5000001    1    1    2    0    0  0.21636369493E+03 -0.85887941613E+02  0.11694575925E+03  0.30836876885E+03  0.16500000000E+03 0.  0.
   -5000001    1    1    2    0    0 -0.21636369493E+03  0.85887941613E+02  0.81492994145E+03  0.86343835708E+03  0.16500000000E+03 0.  0.
<mgrwt>
<rscale>  0 0.71045029E+03</rscale>
<asrwt>0</asrwt>
<pdfrwt beam="1">  1        2 0.16182176E+00 0.71045029E+03</pdfrwt>
<pdfrwt beam="2">  1       -2 0.18456263E-01 0.71045029E+03</pdfrwt>
<totfact> 0.57741838E+02</totfact>
</mgrwt>
</event>
<event>
 4    1  0.9064384E-005  0.4082005E+03  0.7818608E-02  0.1040977E+00
          2   -1    0    0  501    0  0.00000000000E+00  0.00000000000E+00  0.10710238590E+04  0.10710238590E+04  0.25500000000E-02 0.  1.
         -2   -1    0    0    0  501 -0.00000000000E+00 -0.00000000000E+00 -0.38894482608E+02  0.38894482691E+02  0.25500000000E-02 0. -1.
    5000001    1    1    2    0    0  0.94469315951E+02 -0.73961859099E+02  0.53262874574E+03  0.57036233137E+03  0.16500000000E+03 0.  0.
   -5000001    1    1    2    0    0 -0.94469315951E+02  0.73961859099E+02  0.49950063068E+03  0.53955601036E+03  0.16500000000E+03 0.  0.
<mgrwt>
<rscale>  0 0.40820053E+03</rscale>
<asrwt>0</asrwt>
<pdfrwt beam="1">  1        2 0.16477291E+00 0.40820053E+03</pdfrwt>
<pdfrwt beam="2">  1       -2 0.59837661E-02 0.40820053E+03</pdfrwt>
<totfact> 0.35459285E+03</totfact>
</mgrwt>
</event>
<event>
 4    1  0.9064384E-005  0.4874783E+03  0.7818608E-02  0.1017100E+00
          2   -1    0    0  501    0  0.00000000000E+00  0.00000000000E+00  0.22090057864E+03  0.22090057866E+03  0.25500000000E-02 0.  1.
         -2   -1    0    0    0  501 -0.00000000000E+00 -0.00000000000E+00 -0.26893897002E+03  0.26893897003E+03  0.25500000000E-02 0. -1.
    5000001    1    1    2    0    0 -0.14995565666E+03 -0.22569577495E+02  0.72297528973E+02  0.23547402721E+03  0.16500000000E+03 0.  0.
   -5000001    1    1    2    0    0  0.14995565666E+03  0.22569577495E+02 -0.12033592035E+03  0.25436552148E+03  0.16500000000E+03 0.  0.
<mgrwt>
<rscale>  0 0.48747830E+03</rscale>
<asrwt>0</asrwt>
<pdfrwt beam="1">  1        2 0.33984704E-01 0.48747830E+03</pdfrwt>
<pdfrwt beam="2">  1       -2 0.41375226E-01 0.48747830E+03</pdfrwt>
<totfact> 0.85821197E+02</totfact>
</mgrwt>
</event>
<event>
 4    1  0.9064384E-005  0.7145328E+03  0.7818608E-02  0.9692697E-01
         -2   -1    0    0    0  501 -0.00000000000E+00  0.00000000000E+00  0.21099373444E+03  0.21099373446E+03  0.25500000000E-02 0. -1.
          2   -1    0    0  501    0  0.00000000000E+00 -0.00000000000E+00 -0.60494338355E+03  0.60494338356E+03  0.25500000000E-02 0.  1.
    5000001    1    1    2    0    0  0.19768892889E+02  0.26664529773E+03 -0.39118043481E+03  0.50173464750E+03  0.16500000000E+03 0.  0.
   -5000001    1    1    2    0    0 -0.19768892889E+02 -0.26664529773E+03 -0.27692143065E+01  0.31420247052E+03  0.16500000000E+03 0.  0.
<mgrwt>
<rscale>  0 0.71453275E+03</rscale>
<asrwt>0</asrwt>
<pdfrwt beam="1">  1        2 0.93068212E-01 0.71453275E+03</pdfrwt>
<pdfrwt beam="2">  1       -2 0.32460575E-01 0.71453275E+03</pdfrwt>
<totfact> 0.43696031E+02</totfact>
</mgrwt>
</event>
<event>
 4    1  0.9064384E-005  0.3893588E+03  0.7818608E-02  0.1047528E+00
         -2   -1    0    0    0  501 -0.00000000000E+00  0.00000000000E+00  0.15519637634E+02  0.15519637844E+02  0.25500000000E-02 0. -1.
          2   -1    0    0  501    0  0.00000000000E+00 -0.00000000000E+00 -0.24420714196E+04  0.24420714196E+04  0.25500000000E-02 0.  1.
    5000001    1    1    2    0    0  0.10032330997E+03 -0.24633629012E+02 -0.12250532261E+04  0.12404241166E+04  0.16500000000E+03 0.  0.
   -5000001    1    1    2    0    0 -0.10032330997E+03  0.24633629012E+02 -0.12014985559E+04  0.12171669409E+04  0.16500000000E+03 0.  0.
<mgrwt>
<rscale>  0 0.38935877E+03</rscale>
<asrwt>0</asrwt>
<pdfrwt beam="1">  1        2 0.37570299E+00 0.38935877E+03</pdfrwt>
<pdfrwt beam="2">  1       -2 0.23876385E-02 0.38935877E+03</pdfrwt>
<totfact> 0.25447506E+03</totfact>
</mgrwt>
</event>
<event>
 4    1  0.9064384E-005  0.3938129E+03  0.7818608E-02  0.1045943E+00
          2   -1    0    0  501    0  0.00000000000E+00  0.00000000000E+00  0.26580754346E+04  0.26580754346E+04  0.25500000000E-02 0.  1.
         -2   -1    0    0    0  501 -0.00000000000E+00 -0.00000000000E+00 -0.14586549575E+02  0.14586549798E+02  0.25500000000E-02 0. -1.
    5000001    1    1    2    0    0  0.10250291070E+03 -0.26696497191E+02  0.11989083835E+04  0.12148357345E+04  0.16500000000E+03 0.  0.
   -5000001    1    1    2    0    0 -0.10250291070E+03  0.26696497191E+02  0.14445805015E+04  0.14578262500E+04  0.16500000000E+03 0.  0.
<mgrwt>
<rscale>  0 0.39381290E+03</rscale>
<asrwt>0</asrwt>
<pdfrwt beam="1">  1        2 0.40893447E+00 0.39381290E+03</pdfrwt>
<pdfrwt beam="2">  1       -2 0.22440857E-02 0.39381290E+03</pdfrwt>
<totfact> 0.21135462E+03</totfact>
</mgrwt>
</event>
<event>
 4    1  0.9064384E-005  0.3992633E+03  0.7818608E-02  0.1044035E+00
          2   -1    0    0  501    0  0.00000000000E+00  0.00000000000E+00  0.93236976229E+03  0.93236976229E+03  0.25500000000E-02 0.  1.
         -2   -1    0    0    0  501 -0.00000000000E+00 -0.00000000000E+00 -0.42743550288E+02  0.42743550364E+02  0.25500000000E-02 0. -1.
    5000001    1    1    2    0    0  0.57352252698E+02  0.62365831362E+02  0.26453011813E+03  0.32307887769E+03  0.16500000000E+03 0.  0.
   -5000001    1    1    2    0    0 -0.57352252698E+02 -0.62365831362E+02  0.62509609387E+03  0.65203443497E+03  0.16500000000E+03 0.  0.
<mgrwt>
<rscale>  0 0.39926329E+03</rscale>
<asrwt>0</asrwt>
<pdfrwt beam="1">  1        2 0.14344150E+00 0.39926329E+03</pdfrwt>
<pdfrwt beam="2">  1       -2 0.65759308E-02 0.39926329E+03</pdfrwt>
<totfact> 0.37353927E+03</totfact>
</mgrwt>
</event>
<event>
 4    1  0.9064384E-005  0.4214639E+03  0.7818608E-02  0.1036591E+00
          2   -1    0    0  501    0  0.00000000000E+00  0.00000000000E+00  0.86590312881E+03  0.86590312881E+03  0.25500000000E-02 0.  1.
         -2   -1    0    0    0  501 -0.00000000000E+00 -0.00000000000E+00 -0.51285132129E+02  0.51285132193E+02  0.25500000000E-02 0. -1.
    5000001    1    1    2    0    0  0.10597186917E+03 -0.10521663912E+02  0.24097277901E+03  0.31085949027E+03  0.16500000000E+03 0.  0.
   -5000001    1    1    2    0    0 -0.10597186917E+03  0.10521663912E+02  0.57364521767E+03  0.60632877073E+03  0.16500000000E+03 0.  0.
<mgrwt>
<rscale>  0 0.42146391E+03</rscale>
<asrwt>0</asrwt>
<pdfrwt beam="1">  1        2 0.13321585E+00 0.42146391E+03</pdfrwt>
<pdfrwt beam="2">  1       -2 0.78900211E-02 0.42146391E+03</pdfrwt>
<totfact> 0.31053428E+03</totfact>
</mgrwt>
</event>
<event>
 4    1  0.9064384E-005  0.5984165E+03  0.7818608E-02  0.9908697E-01
         -2   -1    0    0    0  501 -0.00000000000E+00  0.00000000000E+00  0.19633999238E+03  0.19633999240E+03  0.25500000000E-02 0. -1.
          2   -1    0    0  501    0  0.00000000000E+00 -0.00000000000E+00 -0.45597215477E+03  0.45597215478E+03  0.25500000000E-02 0.  1.
    5000001    1    1    2    0    0 -0.17257613664E+03  0.18007452528E+03 -0.14022672191E+03  0.33029969896E+03  0.16500000000E+03 0.  0.
   -5000001    1    1    2    0    0  0.17257613664E+03 -0.18007452528E+03 -0.11940544048E+03  0.32201244822E+03  0.16500000000E+03 0.  0.
<mgrwt>
<rscale>  0 0.59841648E+03</rscale>
<asrwt>0</asrwt>
<pdfrwt beam="1">  1        2 0.70149562E-01 0.59841648E+03</pdfrwt>
<pdfrwt beam="2">  1       -2 0.30206153E-01 0.59841648E+03</pdfrwt>
<totfact> 0.69724307E+02</totfact>
</mgrwt>
</event>
<event>
 4    1  0.9064384E-005  0.4091054E+03  0.7818608E-02  0.1040672E+00
         -2   -1    0    0    0  501 -0.00000000000E+00  0.00000000000E+00  0.23910406952E+02  0.23910407088E+02  0.25500000000E-02 0. -1.
          2   -1    0    0  501    0  0.00000000000E+00 -0.00000000000E+00 -0.17499409327E+04  0.17499409327E+04  0.25500000000E-02 0.  1.
    5000001    1    1    2    0    0 -0.10417686013E+03 -0.31091222733E+02 -0.63368945204E+03  0.66378219616E+03  0.16500000000E+03 0.  0.
   -5000001    1    1    2    0    0  0.10417686013E+03  0.31091222733E+02 -0.10923410737E+04  0.11100691436E+04  0.16500000000E+03 0.  0.
<mgrwt>
<rscale>  0 0.40910537E+03</rscale>
<asrwt>0</asrwt>
<pdfrwt beam="1">  1        2 0.26922158E+00 0.40910537E+03</pdfrwt>
<pdfrwt beam="2">  1       -2 0.36785255E-02 0.40910537E+03</pdfrwt>
<totfact> 0.31283304E+03</totfact>
</mgrwt>
</event>
<event>
 4    1  0.9064384E-005  0.6644737E+03  0.7818608E-02  0.9779993E-01
          2   -1    0    0  501    0  0.00000000000E+00  0.00000000000E+00  0.11217242788E+03  0.11217242791E+03  0.25500000000E-02 0.  1.
         -2   -1    0    0    0  501 -0.00000000000E+00 -0.00000000000E+00 -0.98403273192E+03  0.98403273193E+03  0.25500000000E-02 0. -1.
    5000001    1    1    2    0    0 -0.29279924251E+01  0.23635826142E+03 -0.70842381857E+03  0.76482880934E+03  0.16500000000E+03 0.  0.
   -5000001    1    1    2    0    0  0.29279924251E+01 -0.23635826142E+03 -0.16343648547E+03  0.33137635049E+03  0.16500000000E+03 0.  0.
<mgrwt>
<rscale>  0 0.66447375E+03</rscale>
<asrwt>0</asrwt>
<pdfrwt beam="1">  1        2 0.17257297E-01 0.66447375E+03</pdfrwt>
<pdfrwt beam="2">  1       -2 0.15138964E+00 0.66447375E+03</pdfrwt>
<totfact> 0.10043898E+02</totfact>
</mgrwt>
</event>
<event>
 4    1  0.9064384E-005  0.9288500E+03  0.7818608E-02  0.9390219E-01
          2   -1    0    0  501    0  0.00000000000E+00  0.00000000000E+00  0.11340096325E+04  0.11340096325E+04  0.25500000000E-02 0.  1.
         -2   -1    0    0    0  501 -0.00000000000E+00 -0.00000000000E+00 -0.19020172838E+03  0.19020172840E+03  0.25500000000E-02 0. -1.
    5000001    1    1    2    0    0  0.27396419838E+03 -0.31197099591E+03  0.65270435731E+03  0.79096792750E+03  0.16500000000E+03 0.  0.
   -5000001    1    1    2    0    0 -0.27396419838E+03  0.31197099591E+03  0.29110354680E+03  0.53324343338E+03  0.16500000000E+03 0.  0.
<mgrwt>
<rscale>  0 0.92885002E+03</rscale>
<asrwt>0</asrwt>
<pdfrwt beam="1">  1        2 0.17446302E+00 0.92885002E+03</pdfrwt>
<pdfrwt beam="2">  1       -2 0.29261805E-01 0.92885002E+03</pdfrwt>
<totfact> 0.22303151E+02</totfact>
</mgrwt>
</event>
<event>
 4    1  0.9064384E-005  0.7435644E+03  0.7818608E-02  0.9645501E-01
          2   -1    0    0  501    0  0.00000000000E+00  0.00000000000E+00  0.11599268821E+04  0.11599268821E+04  0.25500000000E-02 0.  1.
         -2   -1    0    0    0  501 -0.00000000000E+00 -0.00000000000E+00 -0.11916440264E+03  0.11916440266E+03  0.25500000000E-02 0. -1.
    5000001    1    1    2    0    0 -0.33008427021E+03 -0.37851645643E+02  0.47794307281E+03  0.60501483731E+03  0.16500000000E+03 0.  0.
   -5000001    1    1    2    0    0  0.33008427021E+03  0.37851645643E+02  0.56281940668E+03  0.67407644748E+03  0.16500000000E+03 0.  0.
<mgrwt>
<rscale>  0 0.74356437E+03</rscale>
<asrwt>0</asrwt>
<pdfrwt beam="1">  1        2 0.17845030E+00 0.74356437E+03</pdfrwt>
<pdfrwt beam="2">  1       -2 0.18332984E-01 0.74356437E+03</pdfrwt>
<totfact> 0.50115136E+02</totfact>
</mgrwt>
</event>
<event>
 4    1  0.9064384E-005  0.6148560E+03  0.7818608E-02  0.9875055E-01
         -2   -1    0    0    0  501 -0.00000000000E+00  0.00000000000E+00  0.62835624894E+03  0.62835624895E+03  0.25500000000E-02 0. -1.
          2   -1    0    0  501    0  0.00000000000E+00 -0.00000000000E+00 -0.15041143014E+03  0.15041143016E+03  0.25500000000E-02 0.  1.
    5000001    1    1    2    0    0  0.48731505798E+02  0.24771126916E+03  0.16349273471E+03  0.34306050025E+03  0.16500000000E+03 0.  0.
   -5000001    1    1    2    0    0 -0.48731505798E+02 -0.24771126916E+03  0.31445208409E+03  0.43570717886E+03  0.16500000000E+03 0.  0.
<mgrwt>
<rscale>  0 0.61485596E+03</rscale>
<asrwt>0</asrwt>
<pdfrwt beam="1">  1        2 0.23140221E-01 0.61485596E+03</pdfrwt>
<pdfrwt beam="2">  1       -2 0.96670189E-01 0.61485596E+03</pdfrwt>
<totfact> 0.21692371E+02</totfact>
</mgrwt>
</event>
<event>
 4    1  0.9064384E-005  0.5171513E+03  0.7818608E-02  0.1009397E+00
         -2   -1    0    0    0  501 -0.00000000000E+00  0.00000000000E+00  0.26440351101E+02  0.26440351224E+02  0.25500000000E-02 0. -1.
          2   -1    0    0  501    0  0.00000000000E+00 -0.00000000000E+00 -0.25287623239E+04  0.25287623239E+04  0.25500000000E-02 0.  1.
    5000001    1    1    2    0    0 -0.11079088588E+03  0.16033779616E+03 -0.10502450511E+04  0.10808434191E+04  0.16500000000E+03 0.  0.
   -5000001    1    1    2    0    0  0.11079088588E+03 -0.16033779616E+03 -0.14520769217E+04  0.14743592560E+04  0.16500000000E+03 0.  0.
<mgrwt>
<rscale>  0 0.51715129E+03</rscale>
<asrwt>0</asrwt>
<pdfrwt beam="1">  1        2 0.38904017E+00 0.51715129E+03</pdfrwt>
<pdfrwt beam="2">  1       -2 0.40677483E-02 0.51715129E+03</pdfrwt>
<totfact> 0.10072045E+03</totfact>
</mgrwt>
</event>
<event>
 4    1  0.9064384E-005  0.5763987E+03  0.7818608E-02  0.9955618E-01
         -2   -1    0    0    0  501 -0.00000000000E+00  0.00000000000E+00  0.31073751126E+02  0.31073751231E+02  0.25500000000E-02 0. -1.
          2   -1    0    0  501    0  0.00000000000E+00 -0.00000000000E+00 -0.26729594947E+04  0.26729594947E+04  0.25500000000E-02 0.  1.
    5000001    1    1    2    0    0 -0.81641070421E+02 -0.22051363219E+03 -0.14301949179E+04  0.14587577008E+04  0.16500000000E+03 0.  0.
   -5000001    1    1    2    0    0  0.81641070421E+02  0.22051363219E+03 -0.12116908257E+04  0.12452755452E+04  0.16500000000E+03 0.  0.
<mgrwt>
<rscale>  0 0.57639874E+03</rscale>
<asrwt>0</asrwt>
<pdfrwt beam="1">  1        2 0.41122436E+00 0.57639874E+03</pdfrwt>
<pdfrwt beam="2">  1       -2 0.47805792E-02 0.57639874E+03</pdfrwt>
<totfact> 0.64678350E+02</totfact>
</mgrwt>
</event>
<event>
 4    1  0.9064384E-005  0.6041233E+03  0.7818608E-02  0.9896888E-01
          2   -1    0    0  501    0  0.00000000000E+00  0.00000000000E+00  0.10726112422E+04  0.10726112422E+04  0.25500000000E-02 0.  1.
         -2   -1    0    0    0  501 -0.00000000000E+00 -0.00000000000E+00 -0.85064603995E+02  0.85064604034E+02  0.25500000000E-02 0. -1.
    5000001    1    1    2    0    0 -0.22883063813E+03 -0.95034572625E+02  0.39566336586E+03  0.49514596840E+03  0.16500000000E+03 0.  0.
   -5000001    1    1    2    0    0  0.22883063813E+03  0.95034572625E+02  0.59188327231E+03  0.66252987781E+03  0.16500000000E+03 0.  0.
<mgrwt>
<rscale>  0 0.60412333E+03</rscale>
<asrwt>0</asrwt>
<pdfrwt beam="1">  1        2 0.16501712E+00 0.60412333E+03</pdfrwt>
<pdfrwt beam="2">  1       -2 0.13086861E-01 0.60412333E+03</pdfrwt>
<totfact> 0.10076221E+03</totfact>
</mgrwt>
</event>
<event>
 4    1  0.9064384E-005  0.7910334E+03  0.7818608E-02  0.9573087E-01
          2   -1    0    0  501    0  0.00000000000E+00  0.00000000000E+00  0.27481269083E+03  0.27481269085E+03  0.25500000000E-02 0.  1.
         -2   -1    0    0    0  501 -0.00000000000E+00 -0.00000000000E+00 -0.56923667381E+03  0.56923667382E+03  0.25500000000E-02 0. -1.
    5000001    1    1    2    0    0 -0.12126722787E+03 -0.25323455515E+03 -0.38669818070E+03  0.50556301628E+03  0.16500000000E+03 0.  0.
   -5000001    1    1    2    0    0  0.12126722787E+03  0.25323455515E+03  0.92274197719E+02  0.33848634838E+03  0.16500000000E+03 0.  0.
<mgrwt>
<rscale>  0 0.79103341E+03</rscale>
<asrwt>0</asrwt>
<pdfrwt beam="1">  1        2 0.42278876E-01 0.79103341E+03</pdfrwt>
<pdfrwt beam="2">  1       -2 0.87574873E-01 0.79103341E+03</pdfrwt>
<totfact> 0.13731039E+02</totfact>
</mgrwt>
</event>
<event>
 4    1  0.9064384E-005  0.6709806E+03  0.7818608E-02  0.9768188E-01
          2   -1    0    0  501    0  0.00000000000E+00  0.00000000000E+00  0.47376142662E+03  0.47376142662E+03  0.25500000000E-02 0.  1.
         -2   -1    0    0    0  501 -0.00000000000E+00 -0.00000000000E+00 -0.23757475732E+03  0.23757475734E+03  0.25500000000E-02 0. -1.
    5000001    1    1    2    0    0  0.26919465717E+03 -0.10613049438E+03  0.75696705563E+02  0.34159103694E+03  0.16500000000E+03 0.  0.
   -5000001    1    1    2    0    0 -0.26919465717E+03  0.10613049438E+03  0.16048996373E+03  0.36974514702E+03  0.16500000000E+03 0.  0.
<mgrwt>
<rscale>  0 0.67098064E+03</rscale>
<asrwt>0</asrwt>
<pdfrwt beam="1">  1        2 0.72886372E-01 0.67098064E+03</pdfrwt>
<pdfrwt beam="2">  1       -2 0.36549963E-01 0.67098064E+03</pdfrwt>
<totfact> 0.46550669E+02</totfact>
</mgrwt>
</event>
<event>
 4    1  0.9064384E-005  0.6008343E+03  0.7818608E-02  0.9903677E-01
         -2   -1    0    0    0  501 -0.00000000000E+00  0.00000000000E+00  0.11279619802E+03  0.11279619805E+03  0.25500000000E-02 0. -1.
          2   -1    0    0  501    0  0.00000000000E+00 -0.00000000000E+00 -0.80011977297E+03  0.80011977297E+03  0.25500000000E-02 0.  1.
    5000001    1    1    2    0    0  0.30924093984E+02  0.23612197665E+03 -0.22291301368E+03  0.36554767010E+03  0.16500000000E+03 0.  0.
   -5000001    1    1    2    0    0 -0.30924093984E+02 -0.23612197665E+03 -0.46441056126E+03  0.54736830093E+03  0.16500000000E+03 0.  0.
<mgrwt>
<rscale>  0 0.60083431E+03</rscale>
<asrwt>0</asrwt>
<pdfrwt beam="1">  1        2 0.12309535E+00 0.60083431E+03</pdfrwt>
<pdfrwt beam="2">  1       -2 0.17353262E-01 0.60083431E+03</pdfrwt>
<totfact> 0.94584971E+02</totfact>
</mgrwt>
</event>
<event>
 4    1  0.9064384E-005  0.4137210E+03  0.7818608E-02  0.1039129E+00
         -2   -1    0    0    0  501 -0.00000000000E+00  0.00000000000E+00  0.19179334397E+02  0.19179334566E+02  0.25500000000E-02 0. -1.
          2   -1    0    0  501    0  0.00000000000E+00 -0.00000000000E+00 -0.22311132250E+04  0.22311132250E+04  0.25500000000E-02 0.  1.
    5000001    1    1    2    0    0  0.87509479165E+02 -0.88628140857E+02 -0.10662162437E+04  0.10860731718E+04  0.16500000000E+03 0.  0.
   -5000001    1    1    2    0    0 -0.87509479165E+02  0.88628140857E+02 -0.11457176469E+04  0.11642193877E+04  0.16500000000E+03 0.  0.
<mgrwt>
<rscale>  0 0.41372100E+03</rscale>
<asrwt>0</asrwt>
<pdfrwt beam="1">  1        2 0.34324798E+00 0.41372100E+03</pdfrwt>
<pdfrwt beam="2">  1       -2 0.29506686E-02 0.41372100E+03</pdfrwt>
<totfact> 0.24114614E+03</totfact>
</mgrwt>
</event>
<event>
 4    1  0.9064384E-005  0.3679745E+03  0.7818608E-02  0.1055470E+00
         -2   -1    0    0    0  501 -0.00000000000E+00  0.00000000000E+00  0.12608302137E+02  0.12608302395E+02  0.25500000000E-02 0. -1.
          2   -1    0    0  501    0  0.00000000000E+00 -0.00000000000E+00 -0.26848427128E+04  0.26848427129E+04  0.25500000000E-02 0.  1.
    5000001    1    1    2    0    0 -0.29225082972E+02 -0.61083439974E+02 -0.10049410327E+04  0.10206452720E+04  0.16500000000E+03 0.  0.
   -5000001    1    1    2    0    0  0.29225082972E+02  0.61083439974E+02 -0.16672933780E+04  0.16768057432E+04  0.16500000000E+03 0.  0.
<mgrwt>
<rscale>  0 0.36797450E+03</rscale>
<asrwt>0</asrwt>
<pdfrwt beam="1">  1        2 0.41305227E+00 0.36797450E+03</pdfrwt>
<pdfrwt beam="2">  1       -2 0.19397409E-02 0.36797450E+03</pdfrwt>
<totfact> 0.25403945E+03</totfact>
</mgrwt>
</event>
<event>
 4    1  0.9064384E-005  0.4178396E+03  0.7818608E-02  0.1037772E+00
          2   -1    0    0  501    0  0.00000000000E+00  0.00000000000E+00  0.32462456321E+03  0.32462456322E+03  0.25500000000E-02 0.  1.
         -2   -1    0    0    0  501 -0.00000000000E+00 -0.00000000000E+00 -0.13445529165E+03  0.13445529167E+03  0.25500000000E-02 0. -1.
    5000001    1    1    2    0    0  0.23316022303E+02  0.12599349502E+03  0.92755848465E+02  0.22857525043E+03  0.16500000000E+03 0.  0.
   -5000001    1    1    2    0    0 -0.23316022303E+02 -0.12599349502E+03  0.97413423097E+02  0.23050460447E+03  0.16500000000E+03 0.  0.
<mgrwt>
<rscale>  0 0.41783964E+03</rscale>
<asrwt>0</asrwt>
<pdfrwt beam="1">  1        2 0.49942240E-01 0.41783964E+03</pdfrwt>
<pdfrwt beam="2">  1       -2 0.20685430E-01 0.41783964E+03</pdfrwt>
<totfact> 0.20029737E+03</totfact>
</mgrwt>
</event>
<event>
 4    1  0.9064384E-005  0.5877078E+03  0.7818608E-02  0.9931242E-01
          2   -1    0    0  501    0  0.00000000000E+00  0.00000000000E+00  0.14529969251E+03  0.14529969253E+03  0.25500000000E-02 0.  1.
         -2   -1    0    0    0  501 -0.00000000000E+00 -0.00000000000E+00 -0.59428974876E+03  0.59428974877E+03  0.25500000000E-02 0. -1.
    5000001    1    1    2    0    0 -0.22273208703E+03 -0.54519745663E+02 -0.12270104759E+03  0.30799761743E+03  0.16500000000E+03 0.  0.
   -5000001    1    1    2    0    0  0.22273208703E+03  0.54519745663E+02 -0.32628900867E+03  0.43159182388E+03  0.16500000000E+03 0.  0.
<mgrwt>
<rscale>  0 0.58770781E+03</rscale>
<asrwt>0</asrwt>
<pdfrwt beam="1">  1        2 0.22353799E-01 0.58770781E+03</pdfrwt>
<pdfrwt beam="2">  1       -2 0.91429191E-01 0.58770781E+03</pdfrwt>
<totfact> 0.25715245E+02</totfact>
</mgrwt>
</event>
<event>
 4    1  0.9064384E-005  0.8193335E+03  0.7818608E-02  0.9532447E-01
         -2   -1    0    0    0  501 -0.00000000000E+00  0.00000000000E+00  0.10556273571E+03  0.10556273574E+03  0.25500000000E-02 0. -1.
          2   -1    0    0  501    0  0.00000000000E+00 -0.00000000000E+00 -0.15898304206E+04  0.15898304206E+04  0.25500000000E-02 0.  1.
    5000001    1    1    2    0    0 -0.13932499224E+03  0.18338587430E+03 -0.13544315409E+04  0.13837455081E+04  0.16500000000E+03 0.  0.
   -5000001    1    1    2    0    0  0.13932499224E+03 -0.18338587430E+03 -0.12983614406E+03  0.31164764825E+03  0.16500000000E+03 0.  0.
<mgrwt>
<rscale>  0 0.81933351E+03</rscale>
<asrwt>0</asrwt>
<pdfrwt beam="1">  1        2 0.24458928E+00 0.81933351E+03</pdfrwt>
<pdfrwt beam="2">  1       -2 0.16240422E-01 0.81933351E+03</pdfrwt>
<totfact> 0.34930619E+02</totfact>
</mgrwt>
</event>
<event>
 4    1  0.9064384E-005  0.8270353E+03  0.7818608E-02  0.9521688E-01
          2   -1    0    0  501    0  0.00000000000E+00  0.00000000000E+00  0.90564549221E+03  0.90564549221E+03  0.25500000000E-02 0. -1.
         -2   -1    0    0    0  501 -0.00000000000E+00 -0.00000000000E+00 -0.18881213726E+03  0.18881213727E+03  0.25500000000E-02 0.  1.
    5000001    1    1    2    0    0  0.24297026831E+03  0.17651679252E+03  0.52098532123E+02  0.34660061508E+03  0.16500000000E+03 0.  0.
   -5000001    1    1    2    0    0 -0.24297026831E+03 -0.17651679252E+03  0.66473482283E+03  0.74785701441E+03  0.16500000000E+03 0.  0.
<mgrwt>
<rscale>  0 0.82703533E+03</rscale>
<asrwt>0</asrwt>
<pdfrwt beam="1">  1        2 0.13933007E+00 0.82703533E+03</pdfrwt>
<pdfrwt beam="2">  1       -2 0.29048022E-01 0.82703533E+03</pdfrwt>
<totfact> 0.31758930E+02</totfact>
</mgrwt>
</event>
<event>
 4    1  0.9064384E-005  0.4989685E+03  0.7818608E-02  0.1014049E+00
         -2   -1    0    0    0  501 -0.00000000000E+00  0.00000000000E+00  0.98706923822E+02  0.98706923855E+02  0.25500000000E-02 0. -1.
          2   -1    0    0  501    0  0.00000000000E+00 -0.00000000000E+00 -0.63057763508E+03  0.63057763508E+03  0.25500000000E-02 0.  1.
    5000001    1    1    2    0    0  0.14383541906E+03 -0.74489476965E+02 -0.40288877755E+03  0.46452306405E+03  0.16500000000E+03 0.  0.
   -5000001    1    1    2    0    0 -0.14383541906E+03  0.74489476965E+02 -0.12898193370E+03  0.26476149489E+03  0.16500000000E+03 0.  0.
<mgrwt>
<rscale>  0 0.49896845E+03</rscale>
<asrwt>0</asrwt>
<pdfrwt beam="1">  1        2 0.97011941E-01 0.49896845E+03</pdfrwt>
<pdfrwt beam="2">  1       -2 0.15185681E-01 0.49896845E+03</pdfrwt>
<totfact> 0.16016678E+03</totfact>
</mgrwt>
</event>
<event>
 4    1  0.9064384E-005  0.6007190E+03  0.7818608E-02  0.9903915E-01
         -2   -1    0    0    0  501 -0.00000000000E+00  0.00000000000E+00  0.78764262307E+02  0.78764262349E+02  0.25500000000E-02 0. -1.
          2   -1    0    0  501    0  0.00000000000E+00 -0.00000000000E+00 -0.11453905783E+04  0.11453905783E+04  0.25500000000E-02 0.  1.
    5000001    1    1    2    0    0  0.22503903374E+03 -0.10088869721E+03 -0.62823575322E+03  0.69478504414E+03  0.16500000000E+03 0.  0.
   -5000001    1    1    2    0    0 -0.22503903374E+03  0.10088869721E+03 -0.43839056275E+03  0.52936979650E+03  0.16500000000E+03 0.  0.
<mgrwt>
<rscale>  0 0.60071905E+03</rscale>
<asrwt>0</asrwt>
<pdfrwt beam="1">  1        2 0.17621392E+00 0.60071905E+03</pdfrwt>
<pdfrwt beam="2">  1       -2 0.12117580E-01 0.60071905E+03</pdfrwt>
<totfact> 0.10341827E+03</totfact>
</mgrwt>
</event>
<event>
 4    1  0.9064384E-005  0.3993157E+03  0.7818608E-02  0.1044017E+00
          2   -1    0    0  501    0  0.00000000000E+00  0.00000000000E+00  0.26094959490E+04  0.26094959490E+04  0.25500000000E-02 0.  1.
         -2   -1    0    0    0  501 -0.00000000000E+00 -0.00000000000E+00 -0.15276227114E+02  0.15276227327E+02  0.25500000000E-02 0. -1.
    5000001    1    1    2    0    0  0.87208925728E+02  0.70918696365E+02  0.12849987406E+04  0.13004159418E+04  0.16500000000E+03 0.  0.
   -5000001    1    1    2    0    0 -0.87208925728E+02 -0.70918696365E+02  0.13092209812E+04  0.13243562345E+04  0.16500000000E+03 0.  0.
<mgrwt>
<rscale>  0 0.39931568E+03</rscale>
<asrwt>0</asrwt>
<pdfrwt beam="1">  1        2 0.40146106E+00 0.39931568E+03</pdfrwt>
<pdfrwt beam="2">  1       -2 0.23501879E-02 0.39931568E+03</pdfrwt>
<totfact> 0.21004385E+03</totfact>
</mgrwt>
</event>
<event>
 4    1  0.9064384E-005  0.3937217E+03  0.7818608E-02  0.1045976E+00
         -2   -1    0    0    0  501 -0.00000000000E+00  0.00000000000E+00  0.84768687891E+01  0.84768691726E+01  0.25500000000E-02 0. -1.
          2   -1    0    0  501    0  0.00000000000E+00 -0.00000000000E+00 -0.45717578744E+04  0.45717578744E+04  0.25500000000E-02 0.  1.
    5000001    1    1    2    0    0  0.64772980802E+02 -0.84108251695E+02 -0.20942576650E+04  0.21034281316E+04  0.16500000000E+03 0.  0.
   -5000001    1    1    2    0    0 -0.64772980802E+02  0.84108251695E+02 -0.24690233406E+04  0.24768066120E+04  0.16500000000E+03 0.  0.
<mgrwt>
<rscale>  0 0.39372169E+03</rscale>
<asrwt>0</asrwt>
<pdfrwt beam="1">  1        2 0.70334540E+00 0.39372169E+03</pdfrwt>
<pdfrwt beam="2">  1       -2 0.13041373E-02 0.39372169E+03</pdfrwt>
<totfact> 0.20242392E+02</totfact>
</mgrwt>
</event>
<event>
 4    1  0.9064384E-005  0.5238188E+03  0.7818608E-02  0.1007742E+00
          2   -1    0    0  501    0  0.00000000000E+00  0.00000000000E+00  0.13361307594E+04  0.13361307594E+04  0.25500000000E-02 0.  1.
         -2   -1    0    0    0  501 -0.00000000000E+00 -0.00000000000E+00 -0.51339680453E+02  0.51339680516E+02  0.25500000000E-02 0. -1.
    5000001    1    1    2    0    0  0.57560192052E+02  0.18052073823E+03  0.83830738843E+03  0.87514866744E+03  0.16500000000E+03 0.  0.
   -5000001    1    1    2    0    0 -0.57560192052E+02 -0.18052073823E+03  0.44648369047E+03  0.51232177242E+03  0.16500000000E+03 0.  0.
<mgrwt>
<rscale>  0 0.52381877E+03</rscale>
<asrwt>0</asrwt>
<pdfrwt beam="1">  1        2 0.20555859E+00 0.52381877E+03</pdfrwt>
<pdfrwt beam="2">  1       -2 0.78984121E-02 0.52381877E+03</pdfrwt>
<totfact> 0.16055852E+03</totfact>
</mgrwt>
</event>
<event>
 4    1  0.9064384E-005  0.6380083E+03  0.7818608E-02  0.9829545E-01
         -2   -1    0    0    0  501 -0.00000000000E+00  0.00000000000E+00  0.66320527136E+02  0.66320527185E+02  0.25500000000E-02 0. -1.
          2   -1    0    0  501    0  0.00000000000E+00 -0.00000000000E+00 -0.15344217635E+04  0.15344217635E+04  0.25500000000E-02 0.  1.
    5000001    1    1    2    0    0  0.21707365858E+02 -0.23655141554E+03 -0.10716991144E+04  0.11100413388E+04  0.16500000000E+03 0.  0.
   -5000001    1    1    2    0    0 -0.21707365858E+02  0.23655141554E+03 -0.39640212193E+03  0.49070095190E+03  0.16500000000E+03 0.  0.
<mgrwt>
<rscale>  0 0.63800834E+03</rscale>
<asrwt>0</asrwt>
<pdfrwt beam="1">  1        2 0.23606486E+00 0.63800834E+03</pdfrwt>
<pdfrwt beam="2">  1       -2 0.10203159E-01 0.63800834E+03</pdfrwt>
<totfact> 0.82113872E+02</totfact>
</mgrwt>
</event>
<event>
 4    1  0.9064384E-005  0.5241041E+03  0.7818608E-02  0.1007672E+00
          2   -1    0    0  501    0  0.00000000000E+00  0.00000000000E+00  0.72462858998E+03  0.72462858998E+03  0.25500000000E-02 0.  1.
         -2   -1    0    0    0  501 -0.00000000000E+00 -0.00000000000E+00 -0.94767564753E+02  0.94767564787E+02  0.25500000000E-02 0. -1.
    5000001    1    1    2    0    0  0.54076083825E+02 -0.15356456085E+03  0.50602646192E+03  0.55659148156E+03  0.16500000000E+03 0.  0.
   -5000001    1    1    2    0    0 -0.54076083825E+02  0.15356456085E+03  0.12383456331E+03  0.26280467321E+03  0.16500000000E+03 0.  0.
<mgrwt>
<rscale>  0 0.52410414E+03</rscale>
<asrwt>0</asrwt>
<pdfrwt beam="1">  1        2 0.11148132E+00 0.52410414E+03</pdfrwt>
<pdfrwt beam="2">  1       -2 0.14579625E-01 0.52410414E+03</pdfrwt>
<totfact> 0.14446680E+03</totfact>
</mgrwt>
</event>
<event>
 4    1  0.9064384E-005  0.3631447E+03  0.7818608E-02  0.1057346E+00
          2   -1    0    0  501    0  0.00000000000E+00  0.00000000000E+00  0.85204564082E+03  0.85204564082E+03  0.25500000000E-02 0.  1.
         -2   -1    0    0    0  501 -0.00000000000E+00 -0.00000000000E+00 -0.38693363717E+02  0.38693363802E+02  0.25500000000E-02 0. -1.
    5000001    1    1    2    0    0 -0.32532424915E+02  0.67059429650E+02  0.44032455477E+03  0.47609456971E+03  0.16500000000E+03 0.  0.
   -5000001    1    1    2    0    0  0.32532424915E+02 -0.67059429650E+02  0.37302772233E+03  0.41464443491E+03  0.16500000000E+03 0.  0.
<mgrwt>
<rscale>  0 0.36314466E+03</rscale>
<asrwt>0</asrwt>
<pdfrwt beam="1">  1        2 0.13108393E+00 0.36314466E+03</pdfrwt>
<pdfrwt beam="2">  1       -2 0.59528260E-02 0.36314466E+03</pdfrwt>
<totfact> 0.49188313E+03</totfact>
</mgrwt>
</event>
<event>
 4    1  0.9064384E-005  0.5690163E+03  0.7818608E-02  0.9971858E-01
          2   -1    0    0  501    0  0.00000000000E+00  0.00000000000E+00  0.25633056990E+04  0.25633056990E+04  0.25500000000E-02 0.  1.
         -2   -1    0    0    0  501 -0.00000000000E+00 -0.00000000000E+00 -0.31578322629E+02  0.31578322732E+02  0.25500000000E-02 0. -1.
    5000001    1    1    2    0    0 -0.18576971379E+03  0.72895629938E+02  0.18034324059E+04  0.18219268926E+04  0.16500000000E+03 0.  0.
   -5000001    1    1    2    0    0  0.18576971379E+03 -0.72895629938E+02  0.72829497050E+03  0.77295712914E+03  0.16500000000E+03 0.  0.
<mgrwt>
<rscale>  0 0.56901632E+03</rscale>
<asrwt>0</asrwt>
<pdfrwt beam="1">  1        2 0.39435475E+00 0.56901632E+03</pdfrwt>
<pdfrwt beam="2">  1       -2 0.48582031E-02 0.56901632E+03</pdfrwt>
<totfact> 0.72917671E+02</totfact>
</mgrwt>
</event>
<event>
 4    1  0.9064384E-005  0.4670222E+03  0.7818608E-02  0.1022764E+00
         -2   -1    0    0    0  501 -0.00000000000E+00  0.00000000000E+00  0.32068487676E+02  0.32068487777E+02  0.25500000000E-02 0. -1.
          2   -1    0    0  501    0  0.00000000000E+00 -0.00000000000E+00 -0.17003430015E+04  0.17003430015E+04  0.25500000000E-02 0.  1.
    5000001    1    1    2    0    0  0.83449742963E+02  0.12557483000E+03 -0.58338238972E+03  0.62473427165E+03  0.16500000000E+03 0.  0.
   -5000001    1    1    2    0    0 -0.83449742963E+02 -0.12557483000E+03 -0.10848921241E+04  0.11076772176E+04  0.16500000000E+03 0.  0.
<mgrwt>
<rscale>  0 0.46702218E+03</rscale>
<asrwt>0</asrwt>
<pdfrwt beam="1">  1        2 0.26159116E+00 0.46702218E+03</pdfrwt>
<pdfrwt beam="2">  1       -2 0.49336148E-02 0.46702218E+03</pdfrwt>
<totfact> 0.21192629E+03</totfact>
</mgrwt>
</event>
<event>
 4    1  0.9064384E-005  0.4596390E+03  0.7818608E-02  0.1024886E+00
          2   -1    0    0  501    0  0.00000000000E+00  0.00000000000E+00  0.50314337446E+03  0.50314337447E+03  0.25500000000E-02 0.  1.
         -2   -1    0    0    0  501 -0.00000000000E+00 -0.00000000000E+00 -0.10497404283E+03  0.10497404286E+03  0.25500000000E-02 0. -1.
    5000001    1    1    2    0    0  0.94856700708E+01  0.38956728495E+02  0.40398135470E+03  0.43821631597E+03  0.16500000000E+03 0.  0.
   -5000001    1    1    2    0    0 -0.94856700708E+01 -0.38956728495E+02 -0.58120230691E+01  0.16990110136E+03  0.16500000000E+03 0.  0.
<mgrwt>
<rscale>  0 0.45963896E+03</rscale>
<asrwt>0</asrwt>
<pdfrwt beam="1">  1        2 0.77406671E-01 0.45963896E+03</pdfrwt>
<pdfrwt beam="2">  1       -2 0.16149853E-01 0.45963896E+03</pdfrwt>
<totfact> 0.18809328E+03</totfact>
</mgrwt>
</event>
<event>
 4    1  0.9064384E-005  0.4900225E+03  0.7818608E-02  0.1016416E+00
         -2   -1    0    0    0  501 -0.00000000000E+00  0.00000000000E+00  0.62213293094E+03  0.62213293095E+03  0.25500000000E-02 0. -1.
          2   -1    0    0  501    0  0.00000000000E+00 -0.00000000000E+00 -0.96491463144E+02  0.96491463178E+02  0.25500000000E-02 0.  1.
    5000001    1    1    2    0    0  0.15028906226E+03  0.92574913749E+02  0.20327597330E+03  0.31575787909E+03  0.16500000000E+03 0.  0.
   -5000001    1    1    2    0    0 -0.15028906226E+03 -0.92574913749E+02  0.32236549450E+03  0.40286651503E+03  0.16500000000E+03 0.  0.
<mgrwt>
<rscale>  0 0.49002252E+03</rscale>
<asrwt>0</asrwt>
<pdfrwt beam="1">  1        2 0.14844840E-01 0.49002252E+03</pdfrwt>
<pdfrwt beam="2">  1       -2 0.95712759E-01 0.49002252E+03</pdfrwt>
<totfact> 0.37596716E+02</totfact>
</mgrwt>
</event>
<event>
 4    1  0.9064384E-005  0.5926910E+03  0.7818608E-02  0.9920687E-01
         -2   -1    0    0    0  501 -0.00000000000E+00  0.00000000000E+00  0.69117079808E+02  0.69117079855E+02  0.25500000000E-02 0. -1.
          2   -1    0    0  501    0  0.00000000000E+00 -0.00000000000E+00 -0.12706073214E+04  0.12706073214E+04  0.25500000000E-02 0.  1.
    5000001    1    1    2    0    0 -0.16221617937E+03 -0.18246073092E+03 -0.67185504607E+03  0.73363492972E+03  0.16500000000E+03 0.  0.
   -5000001    1    1    2    0    0  0.16221617937E+03  0.18246073092E+03 -0.52963519554E+03  0.60608947156E+03  0.16500000000E+03 0.  0.
<mgrwt>
<rscale>  0 0.59269104E+03</rscale>
<asrwt>0</asrwt>
<pdfrwt beam="1">  1        2 0.19547803E+00 0.59269104E+03</pdfrwt>
<pdfrwt beam="2">  1       -2 0.10633398E-01 0.59269104E+03</pdfrwt>
<totfact> 0.10822627E+03</totfact>
</mgrwt>
</event>
<event>
 4    1  0.9064384E-005  0.6182368E+03  0.7818608E-02  0.9868277E-01
         -2   -1    0    0    0  501 -0.00000000000E+00  0.00000000000E+00  0.85438434987E+02  0.85438435025E+02  0.25500000000E-02 0. -1.
          2   -1    0    0  501    0  0.00000000000E+00 -0.00000000000E+00 -0.11183981023E+04  0.11183981023E+04  0.25500000000E-02 0.  1.
    5000001    1    1    2    0    0  0.28286229250E+02  0.25863900664E+03 -0.46741413264E+03  0.55981712899E+03  0.16500000000E+03 0.  0.
   -5000001    1    1    2    0    0 -0.28286229250E+02 -0.25863900664E+03 -0.56554553464E+03  0.64401940830E+03  0.16500000000E+03 0.  0.
<mgrwt>
<rscale>  0 0.61823679E+03</rscale>
<asrwt>0</asrwt>
<pdfrwt beam="1">  1        2 0.17206124E+00 0.61823679E+03</pdfrwt>
<pdfrwt beam="2">  1       -2 0.13144375E-01 0.61823679E+03</pdfrwt>
<totfact> 0.93771597E+02</totfact>
</mgrwt>
</event>
<event>
 4    1  0.9064384E-005  0.3783231E+03  0.7818608E-02  0.1051555E+00
          2   -1    0    0  501    0  0.00000000000E+00  0.00000000000E+00  0.12671300439E+04  0.12671300439E+04  0.25500000000E-02 0.  1.
         -2   -1    0    0    0  501 -0.00000000000E+00 -0.00000000000E+00 -0.28238685692E+02  0.28238685808E+02  0.25500000000E-02 0. -1.
    5000001    1    1    2    0    0 -0.28085519235E+02  0.85785490746E+02  0.55018819498E+03  0.58144646934E+03  0.16500000000E+03 0.  0.
   -5000001    1    1    2    0    0  0.28085519235E+02 -0.85785490746E+02  0.68870316326E+03  0.71392226040E+03  0.16500000000E+03 0.  0.
<mgrwt>
<rscale>  0 0.37832307E+03</rscale>
<asrwt>0</asrwt>
<pdfrwt beam="1">  1        2 0.19494303E+00 0.37832307E+03</pdfrwt>
<pdfrwt beam="2">  1       -2 0.43444144E-02 0.37832307E+03</pdfrwt>
<totfact> 0.44549873E+03</totfact>
</mgrwt>
</event>
<event>
 4    1  0.9064384E-005  0.4750150E+03  0.7818608E-02  0.1020514E+00
         -2   -1    0    0    0  501 -0.00000000000E+00  0.00000000000E+00  0.14024790477E+03  0.14024790479E+03  0.25500000000E-02 0. -1.
          2   -1    0    0  501    0  0.00000000000E+00 -0.00000000000E+00 -0.40221506827E+03  0.40221506828E+03  0.25500000000E-02 0.  1.
    5000001    1    1    2    0    0  0.71828902799E+02  0.84290854041E+02  0.17565202013E+02  0.19949404922E+03  0.16500000000E+03 0.  0.
   -5000001    1    1    2    0    0 -0.71828902799E+02 -0.84290854041E+02 -0.27953236552E+03  0.34296892384E+03  0.16500000000E+03 0.  0.
<mgrwt>
<rscale>  0 0.47501503E+03</rscale>
<asrwt>0</asrwt>
<pdfrwt beam="1">  1        2 0.61879241E-01 0.47501503E+03</pdfrwt>
<pdfrwt beam="2">  1       -2 0.21576601E-01 0.47501503E+03</pdfrwt>
<totfact> 0.14712019E+03</totfact>
</mgrwt>
</event>
<event>
 4    1  0.9064384E-005  0.7543107E+03  0.7818608E-02  0.9628612E-01
         -2   -1    0    0    0  501 -0.00000000000E+00  0.00000000000E+00  0.13996671743E+03  0.13996671745E+03  0.25500000000E-02 0. -1.
          2   -1    0    0  501    0  0.00000000000E+00 -0.00000000000E+00 -0.10162856507E+04  0.10162856507E+04  0.25500000000E-02 0.  1.
    5000001    1    1    2    0    0 -0.26469211196E+03  0.54355707999E+02 -0.12399913540E+03  0.34002535598E+03  0.16500000000E+03 0.  0.
   -5000001    1    1    2    0    0  0.26469211196E+03 -0.54355707999E+02 -0.75231979786E+03  0.81622701216E+03  0.16500000000E+03 0.  0.
<mgrwt>
<rscale>  0 0.75431072E+03</rscale>
<asrwt>0</asrwt>
<pdfrwt beam="1">  1        2 0.15635163E+00 0.75431072E+03</pdfrwt>
<pdfrwt beam="2">  1       -2 0.21533342E-01 0.75431072E+03</pdfrwt>
<totfact> 0.46336784E+02</totfact>
</mgrwt>
</event>
<event>
 4    1  0.9064384E-005  0.4790498E+03  0.7818608E-02  0.1019397E+00
          2   -1    0    0  501    0  0.00000000000E+00  0.00000000000E+00  0.44463121597E+03  0.44463121598E+03  0.25500000000E-02 0.  1.
         -2   -1    0    0    0  501 -0.00000000000E+00 -0.00000000000E+00 -0.12903316357E+03  0.12903316360E+03  0.25500000000E-02 0. -1.
    5000001    1    1    2    0    0  0.16994662820E+03  0.34994822832E+02  0.15016138946E+03  0.28263038928E+03  0.16500000000E+03 0.  0.
   -5000001    1    1    2    0    0 -0.16994662820E+03 -0.34994822832E+02  0.16543666293E+03  0.29103399029E+03  0.16500000000E+03 0.  0.
<mgrwt>
<rscale>  0 0.47904978E+03</rscale>
<asrwt>0</asrwt>
<pdfrwt beam="1">  1        2 0.68404802E-01 0.47904978E+03</pdfrwt>
<pdfrwt beam="2">  1       -2 0.19851256E-01 0.47904978E+03</pdfrwt>
<totfact> 0.15209182E+03</totfact>
</mgrwt>
</event>
<event>
 4    1  0.9064384E-005  0.5048840E+03  0.7818608E-02  0.1012512E+00
         -2   -1    0    0    0  501 -0.00000000000E+00  0.00000000000E+00  0.84160653607E+02  0.84160653646E+02  0.25500000000E-02 0. -1.
          2   -1    0    0  501    0  0.00000000000E+00 -0.00000000000E+00 -0.75720603417E+03  0.75720603418E+03  0.25500000000E-02 0.  1.
    5000001    1    1    2    0    0  0.13411177281E+03 -0.13383982682E+03 -0.29560491381E+03  0.38795145562E+03  0.16500000000E+03 0.  0.
   -5000001    1    1    2    0    0 -0.13411177281E+03  0.13383982682E+03 -0.37744046675E+03  0.45341523220E+03  0.16500000000E+03 0.  0.
<mgrwt>
<rscale>  0 0.50488397E+03</rscale>
<asrwt>0</asrwt>
<pdfrwt beam="1">  1        2 0.11649323E+00 0.50488397E+03</pdfrwt>
<pdfrwt beam="2">  1       -2 0.12947793E-01 0.50488397E+03</pdfrwt>
<totfact> 0.16646801E+03</totfact>
</mgrwt>
</event>
<event>
 4    1  0.9064384E-005  0.4179738E+03  0.7818608E-02  0.1037728E+00
         -2   -1    0    0    0  501 -0.00000000000E+00  0.00000000000E+00  0.30677686618E+02  0.30677686724E+02  0.25500000000E-02 0. -1.
          2   -1    0    0  501    0  0.00000000000E+00 -0.00000000000E+00 -0.14236900978E+04  0.14236900978E+04  0.25500000000E-02 0.  1.
    5000001    1    1    2    0    0 -0.84421588436E+02 -0.14819769182E+02 -0.36450574859E+03  0.40918952932E+03  0.16500000000E+03 0.  0.
   -5000001    1    1    2    0    0  0.84421588436E+02  0.14819769182E+02 -0.10285066626E+04  0.10451782552E+04  0.16500000000E+03 0.  0.
<mgrwt>
<rscale>  0 0.41797377E+03</rscale>
<asrwt>0</asrwt>
<pdfrwt beam="1">  1        2 0.21902919E+00 0.41797377E+03</pdfrwt>
<pdfrwt beam="2">  1       -2 0.47196452E-02 0.41797377E+03</pdfrwt>
<totfact> 0.32103429E+03</totfact>
</mgrwt>
</event>
<event>
 4    1  0.9064384E-005  0.7331984E+03  0.7818608E-02  0.9662084E-01
         -2   -1    0    0    0  501 -0.00000000000E+00  0.00000000000E+00  0.18564511963E+03  0.18564511965E+03  0.25500000000E-02 0. -1.
          2   -1    0    0  501    0  0.00000000000E+00 -0.00000000000E+00 -0.72393492452E+03  0.72393492452E+03  0.25500000000E-02 0.  1.
    5000001    1    1    2    0    0 -0.17400260751E+03  0.26703701205E+03 -0.36185013550E+03  0.50965301313E+03  0.16500000000E+03 0.  0.
   -5000001    1    1    2    0    0  0.17400260751E+03 -0.26703701205E+03 -0.17643966939E+03  0.39992703104E+03  0.16500000000E+03 0.  0.
<mgrwt>
<rscale>  0 0.73319843E+03</rscale>
<asrwt>0</asrwt>
<pdfrwt beam="1">  1        2 0.11137460E+00 0.73319843E+03</pdfrwt>
<pdfrwt beam="2">  1       -2 0.28560788E-01 0.73319843E+03</pdfrwt>
<totfact> 0.44344338E+02</totfact>
</mgrwt>
</event>
<event>
 4    1  0.9064384E-005  0.4106107E+03  0.7818608E-02  0.1040166E+00
         -2   -1    0    0    0  501 -0.00000000000E+00  0.00000000000E+00  0.19786860329E+04  0.19786860329E+04  0.25500000000E-02 0. -1.
          2   -1    0    0  501    0  0.00000000000E+00 -0.00000000000E+00 -0.21302156613E+02  0.21302156765E+02  0.25500000000E-02 0.  1.
    5000001    1    1    2    0    0 -0.10197892294E+03  0.39370180378E+02  0.12443861846E+04  0.12600284474E+04  0.16500000000E+03 0.  0.
   -5000001    1    1    2    0    0  0.10197892294E+03 -0.39370180378E+02  0.71299769166E+03  0.73995974224E+03  0.16500000000E+03 0.  0.
<mgrwt>
<rscale>  0 0.41061067E+03</rscale>
<asrwt>0</asrwt>
<pdfrwt beam="1">  1        2 0.32772539E-02 0.41061067E+03</pdfrwt>
<pdfrwt beam="2">  1       -2 0.30441332E+00 0.41061067E+03</pdfrwt>
<totfact> 0.94466116E+01</totfact>
</mgrwt>
</event>
<event>
 4    1  0.9064384E-005  0.4397217E+03  0.7818608E-02  0.1030832E+00
         -2   -1    0    0    0  501 -0.00000000000E+00  0.00000000000E+00  0.74784896190E+02  0.74784896233E+02  0.25500000000E-02 0. -1.
          2   -1    0    0  501    0  0.00000000000E+00 -0.00000000000E+00 -0.64637099232E+03  0.64637099233E+03  0.25500000000E-02 0.  1.
    5000001    1    1    2    0    0  0.64455176809E+02 -0.13022791911E+03 -0.28565736528E+03  0.36047040249E+03  0.16500000000E+03 0.  0.
   -5000001    1    1    2    0    0 -0.64455176809E+02  0.13022791911E+03 -0.28592873085E+03  0.36068548607E+03  0.16500000000E+03 0.  0.
<mgrwt>
<rscale>  0 0.43972167E+03</rscale>
<asrwt>0</asrwt>
<pdfrwt beam="1">  1        2 0.99441687E-01 0.43972167E+03</pdfrwt>
<pdfrwt beam="2">  1       -2 0.11505369E-01 0.43972167E+03</pdfrwt>
<totfact> 0.24586471E+03</totfact>
</mgrwt>
</event>
<event>
 4    1  0.9064384E-005  0.6904483E+03  0.7818608E-02  0.9733708E-01
          2   -1    0    0  501    0  0.00000000000E+00  0.00000000000E+00  0.11674986148E+04  0.11674986148E+04  0.25500000000E-02 0.  1.
         -2   -1    0    0    0  501 -0.00000000000E+00 -0.00000000000E+00 -0.10208124707E+03  0.10208124710E+03  0.25500000000E-02 0. -1.
    5000001    1    1    2    0    0  0.14621445432E+03  0.14987618911E+03  0.12937836356E+03  0.29631959043E+03  0.16500000000E+03 0.  0.
   -5000001    1    1    2    0    0 -0.14621445432E+03 -0.14987618911E+03  0.93603900417E+03  0.97326027148E+03  0.16500000000E+03 0.  0.
<mgrwt>
<rscale>  0 0.69044830E+03</rscale>
<asrwt>0</asrwt>
<pdfrwt beam="1">  1        2 0.17961517E+00 0.69044830E+03</pdfrwt>
<pdfrwt beam="2">  1       -2 0.15704807E-01 0.69044830E+03</pdfrwt>
<totfact> 0.64802242E+02</totfact>
</mgrwt>
</event>
<event>
 4    1  0.9064384E-005  0.1049188E+04  0.7818608E-02  0.9256183E-01
          2   -1    0    0  501    0  0.00000000000E+00  0.00000000000E+00  0.78067762432E+03  0.78067762432E+03  0.25500000000E-02 0.  1.
         -2   -1    0    0    0  501 -0.00000000000E+00 -0.00000000000E+00 -0.35251273385E+03  0.35251273386E+03  0.25500000000E-02 0. -1.
    5000001    1    1    2    0    0 -0.47559567232E+03 -0.79648417448E+02  0.34828315822E+03  0.61730160557E+03  0.16500000000E+03 0.  0.
   -5000001    1    1    2    0    0  0.47559567232E+03  0.79648417448E+02  0.79881732239E+02  0.51588875262E+03  0.16500000000E+03 0.  0.
<mgrwt>
<rscale>  0 0.10491879E+04</rscale>
<asrwt>0</asrwt>
<pdfrwt beam="1">  1        2 0.12010425E+00 0.10491879E+04</pdfrwt>
<pdfrwt beam="2">  1       -2 0.54232729E-01 0.10491879E+04</pdfrwt>
<totfact> 0.11344120E+02</totfact>
</mgrwt>
</event>
<event>
 4    1  0.9064384E-005  0.5303514E+03  0.7818608E-02  0.1006147E+00
          2   -1    0    0  501    0  0.00000000000E+00  0.00000000000E+00  0.15102455559E+04  0.15102455559E+04  0.25500000000E-02 0.  1.
         -2   -1    0    0    0  501 -0.00000000000E+00 -0.00000000000E+00 -0.46560738434E+02  0.46560738503E+02  0.25500000000E-02 0. -1.
    5000001    1    1    2    0    0 -0.19947658560E+01 -0.19162339447E+03  0.49756605900E+03  0.55814020413E+03  0.16500000000E+03 0.  0.
   -5000001    1    1    2    0    0  0.19947658560E+01  0.19162339447E+03  0.96611875845E+03  0.99866609026E+03  0.16500000000E+03 0.  0.
<mgrwt>
<rscale>  0 0.53035139E+03</rscale>
<asrwt>0</asrwt>
<pdfrwt beam="1">  1        2 0.23234542E+00 0.53035139E+03</pdfrwt>
<pdfrwt beam="2">  1       -2 0.71631922E-02 0.53035139E+03</pdfrwt>
<totfact> 0.14992207E+03</totfact>
</mgrwt>
</event>
<event>
 4    1  0.9064384E-005  0.4405623E+03  0.7818608E-02  0.1030574E+00
          2   -1    0    0  501    0  0.00000000000E+00  0.00000000000E+00  0.38245747472E+03  0.38245747473E+03  0.25500000000E-02 0.  1.
         -2   -1    0    0    0  501 -0.00000000000E+00 -0.00000000000E+00 -0.12687366228E+03  0.12687366230E+03  0.25500000000E-02 0. -1.
    5000001    1    1    2    0    0  0.11487119165E+03 -0.82773002458E+02  0.16869899088E+03  0.27519285988E+03  0.16500000000E+03 0.  0.
   -5000001    1    1    2    0    0 -0.11487119165E+03  0.82773002458E+02  0.86884821566E+02  0.23413827715E+03  0.16500000000E+03 0.  0.
<mgrwt>
<rscale>  0 0.44056228E+03</rscale>
<asrwt>0</asrwt>
<pdfrwt beam="1">  1        2 0.58839611E-01 0.44056228E+03</pdfrwt>
<pdfrwt beam="2">  1       -2 0.19519025E-01 0.44056228E+03</pdfrwt>
<totfact> 0.18506681E+03</totfact>
</mgrwt>
</event>
<event>
 4    1  0.9064384E-005  0.8486311E+03  0.7818608E-02  0.9492176E-01
          2   -1    0    0  501    0  0.00000000000E+00  0.00000000000E+00  0.69157032909E+03  0.69157032909E+03  0.25500000000E-02 0.  1.
         -2   -1    0    0    0  501 -0.00000000000E+00 -0.00000000000E+00 -0.26034038401E+03  0.26034038402E+03  0.25500000000E-02 0. -1.
    5000001    1    1    2    0    0  0.11360111357E+03  0.37404908253E+03  0.21463973553E+03  0.47551355945E+03  0.16500000000E+03 0.  0.
   -5000001    1    1    2    0    0 -0.11360111357E+03 -0.37404908253E+03  0.21659020955E+03  0.47639715367E+03  0.16500000000E+03 0.  0.
<mgrwt>
<rscale>  0 0.84863110E+03</rscale>
<asrwt>0</asrwt>
<pdfrwt beam="1">  1        2 0.10639543E+00 0.84863110E+03</pdfrwt>
<pdfrwt beam="2">  1       -2 0.40052368E-01 0.84863110E+03</pdfrwt>
<totfact> 0.24650242E+02</totfact>
</mgrwt>
</event>
<event>
 4    1  0.9064384E-005  0.4036795E+03  0.7818608E-02  0.1042513E+00
          2   -1    0    0  501    0  0.00000000000E+00  0.00000000000E+00  0.18498883236E+04  0.18498883236E+04  0.25500000000E-02 0.  1.
         -2   -1    0    0    0  501 -0.00000000000E+00 -0.00000000000E+00 -0.22022568358E+02  0.22022568506E+02  0.25500000000E-02 0. -1.
    5000001    1    1    2    0    0  0.18966658113E+02  0.96949411530E+02  0.11981006246E+04  0.12134368666E+04  0.16500000000E+03 0.  0.
   -5000001    1    1    2    0    0 -0.18966658113E+02 -0.96949411530E+02  0.62976513058E+03  0.65847402546E+03  0.16500000000E+03 0.  0.
<mgrwt>
<rscale>  0 0.40367954E+03</rscale>
<asrwt>0</asrwt>
<pdfrwt beam="1">  1        2 0.28459826E+00 0.40367954E+03</pdfrwt>
<pdfrwt beam="2">  1       -2 0.33880868E-02 0.40367954E+03</pdfrwt>
<totfact> 0.31343775E+03</totfact>
</mgrwt>
</event>
<event>
 4    1  0.9064384E-005  0.3472889E+03  0.7818608E-02  0.1063733E+00
          2   -1    0    0  501    0  0.00000000000E+00  0.00000000000E+00  0.15974725772E+04  0.15974725772E+04  0.25500000000E-02 0.  1.
         -2   -1    0    0    0  501 -0.00000000000E+00 -0.00000000000E+00 -0.18875062469E+02  0.18875062641E+02  0.25500000000E-02 0. -1.
    5000001    1    1    2    0    0 -0.18129218395E+02  0.49580424115E+02  0.84446762971E+03  0.86205421213E+03  0.16500000000E+03 0.  0.
   -5000001    1    1    2    0    0  0.18129218395E+02 -0.49580424115E+02  0.73412988497E+03  0.75429342767E+03  0.16500000000E+03 0.  0.
<mgrwt>
<rscale>  0 0.34728890E+03</rscale>
<asrwt>0</asrwt>
<pdfrwt beam="1">  1        2 0.24576512E+00 0.34728890E+03</pdfrwt>
<pdfrwt beam="2">  1       -2 0.29038546E-02 0.34728890E+03</pdfrwt>
<totfact> 0.53930310E+03</totfact>
</mgrwt>
</event>
<event>
 4    1  0.9064384E-005  0.3603888E+03  0.7818608E-02  0.1058430E+00
         -2   -1    0    0    0  501 -0.00000000000E+00  0.00000000000E+00  0.58565684577E+02  0.58565684633E+02  0.25500000000E-02 0. -1.
          2   -1    0    0  501    0  0.00000000000E+00 -0.00000000000E+00 -0.55442054306E+03  0.55442054306E+03  0.25500000000E-02 0.  1.
    5000001    1    1    2    0    0  0.43013938860E+02 -0.39791952875E+02 -0.32031917625E+03  0.36505201427E+03  0.16500000000E+03 0.  0.
   -5000001    1    1    2    0    0 -0.43013938860E+02  0.39791952875E+02 -0.17553568222E+03  0.24793421342E+03  0.16500000000E+03 0.  0.
<mgrwt>
<rscale>  0 0.36038878E+03</rscale>
<asrwt>0</asrwt>
<pdfrwt beam="1">  1        2 0.85295465E-01 0.36038878E+03</pdfrwt>
<pdfrwt beam="2">  1       -2 0.90101057E-02 0.36038878E+03</pdfrwt>
<totfact> 0.43539144E+03</totfact>
</mgrwt>
</event>
<event>
 4    1  0.9064384E-005  0.5037946E+03  0.7818608E-02  0.1012793E+00
         -2   -1    0    0    0  501 -0.00000000000E+00  0.00000000000E+00  0.10851926541E+03  0.10851926544E+03  0.25500000000E-02 0. -1.
          2   -1    0    0  501    0  0.00000000000E+00 -0.00000000000E+00 -0.58470947071E+03  0.58470947071E+03  0.25500000000E-02 0.  1.
    5000001    1    1    2    0    0 -0.18706979049E+03 -0.34857829001E+02 -0.23241039685E+03  0.34270945029E+03  0.16500000000E+03 0.  0.
   -5000001    1    1    2    0    0  0.18706979049E+03  0.34857829001E+02 -0.24377980844E+03  0.35051928586E+03  0.16500000000E+03 0.  0.
<mgrwt>
<rscale>  0 0.50379457E+03</rscale>
<asrwt>0</asrwt>
<pdfrwt beam="1">  1        2 0.89955302E-01 0.50379457E+03</pdfrwt>
<pdfrwt beam="2">  1       -2 0.16695272E-01 0.50379457E+03</pdfrwt>
<totfact> 0.14936356E+03</totfact>
</mgrwt>
</event>
<event>
 4    1  0.9064384E-005  0.4380669E+03  0.7818608E-02  0.1031342E+00
          2   -1    0    0  501    0  0.00000000000E+00  0.00000000000E+00  0.11308258890E+03  0.11308258892E+03  0.25500000000E-02 0.  1.
         -2   -1    0    0    0  501 -0.00000000000E+00 -0.00000000000E+00 -0.42425316445E+03  0.42425316445E+03  0.25500000000E-02 0. -1.
    5000001    1    1    2    0    0  0.12255996306E+03 -0.75578423605E+02 -0.15043886757E+03  0.26568759010E+03  0.16500000000E+03 0.  0.
   -5000001    1    1    2    0    0 -0.12255996306E+03  0.75578423605E+02 -0.16073170798E+03  0.27164816327E+03  0.16500000000E+03 0.  0.
<mgrwt>
<rscale>  0 0.43806687E+03</rscale>
<asrwt>0</asrwt>
<pdfrwt beam="1">  1        2 0.17397322E-01 0.43806687E+03</pdfrwt>
<pdfrwt beam="2">  1       -2 0.65269717E-01 0.43806687E+03</pdfrwt>
<totfact> 0.72879883E+02</totfact>
</mgrwt>
</event>
<event>
 4    1  0.9064384E-005  0.5492524E+03  0.7818608E-02  0.1001667E+00
         -2   -1    0    0    0  501 -0.00000000000E+00  0.00000000000E+00  0.15267295115E+04  0.15267295115E+04  0.25500000000E-02 0. -1.
          2   -1    0    0  501    0  0.00000000000E+00 -0.00000000000E+00 -0.49399422817E+02  0.49399422882E+02  0.25500000000E-02 0.  1.
    5000001    1    1    2    0    0  0.31697268975E+02  0.19852069245E+03  0.48556507143E+03  0.55082993817E+03  0.16500000000E+03 0.  0.
   -5000001    1    1    2    0    0 -0.31697268975E+02 -0.19852069245E+03  0.99176501728E+03  0.10252989962E+04  0.16500000000E+03 0.  0.
<mgrwt>
<rscale>  0 0.54925243E+03</rscale>
<asrwt>0</asrwt>
<pdfrwt beam="1">  1        2 0.75999121E-02 0.54925243E+03</pdfrwt>
<pdfrwt beam="2">  1       -2 0.23488144E+00 0.54925243E+03</pdfrwt>
<totfact> 0.78362947E+01</totfact>
</mgrwt>
</event>
<event>
 4    1  0.9064384E-005  0.4193546E+03  0.7818608E-02  0.1037277E+00
         -2   -1    0    0    0  501 -0.00000000000E+00  0.00000000000E+00  0.13725040014E+02  0.13725040251E+02  0.25500000000E-02 0. -1.
          2   -1    0    0  501    0  0.00000000000E+00 -0.00000000000E+00 -0.32032375307E+04  0.32032375307E+04  0.25500000000E-02 0.  1.
    5000001    1    1    2    0    0 -0.74432070104E+02 -0.83482328550E+02 -0.20936884749E+04  0.21031561668E+04  0.16500000000E+03 0.  0.
   -5000001    1    1    2    0    0  0.74432070104E+02  0.83482328550E+02 -0.10958240158E+04  0.11138064041E+04  0.16500000000E+03 0.  0.
<mgrwt>
<rscale>  0 0.41935457E+03</rscale>
<asrwt>0</asrwt>
<pdfrwt beam="1">  1        2 0.49280518E+00 0.41935457E+03</pdfrwt>
<pdfrwt beam="2">  1       -2 0.21115472E-02 0.41935457E+03</pdfrwt>
<totfact> 0.10948214E+03</totfact>
</mgrwt>
</event>
<event>
 4    1  0.9064384E-005  0.8057338E+03  0.7818608E-02  0.9551755E-01
          2   -1    0    0  501    0  0.00000000000E+00  0.00000000000E+00  0.50721176501E+04  0.50721176501E+04  0.25500000000E-02 0.  1.
         -2   -1    0    0    0  501 -0.00000000000E+00 -0.00000000000E+00 -0.31998808618E+02  0.31998808720E+02  0.25500000000E-02 0. -1.
    5000001    1    1    2    0    0  0.14105643140E+03 -0.14681438184E+03  0.58173831221E+03  0.63804062836E+03  0.16500000000E+03 0.  0.
   -5000001    1    1    2    0    0 -0.14105643140E+03  0.14681438184E+03  0.44583805292E+04  0.44660758304E+04  0.16500000000E+03 0.  0.
<mgrwt>
<rscale>  0 0.80573376E+03</rscale>
<asrwt>0</asrwt>
<pdfrwt beam="1">  1        2 0.78032551E+00 0.80573376E+03</pdfrwt>
<pdfrwt beam="2">  1       -2 0.49228954E-02 0.80573376E+03</pdfrwt>
<totfact> 0.68239615E+00</totfact>
</mgrwt>
</event>
<event>
 4    1  0.9064384E-005  0.3899944E+03  0.7818608E-02  0.1047300E+00
         -2   -1    0    0    0  501 -0.00000000000E+00  0.00000000000E+00  0.38004313343E+02  0.38004313428E+02  0.25500000000E-02 0. -1.
          2   -1    0    0  501    0  0.00000000000E+00 -0.00000000000E+00 -0.10005156724E+04  0.10005156724E+04  0.25500000000E-02 0.  1.
    5000001    1    1    2    0    0  0.27476848192E+02 -0.96121153004E+02 -0.40571826499E+03  0.44925111440E+03  0.16500000000E+03 0.  0.
   -5000001    1    1    2    0    0 -0.27476848192E+02  0.96121153004E+02 -0.55679309409E+03  0.58926887145E+03  0.16500000000E+03 0.  0.
<mgrwt>
<rscale>  0 0.38999442E+03</rscale>
<asrwt>0</asrwt>
<pdfrwt beam="1">  1        2 0.15392547E+00 0.38999442E+03</pdfrwt>
<pdfrwt beam="2">  1       -2 0.58468182E-02 0.38999442E+03</pdfrwt>
<totfact> 0.40586205E+03</totfact>
</mgrwt>
</event>
<event>
 4    1  0.9064384E-005  0.6376506E+03  0.7818608E-02  0.9830232E-01
         -2   -1    0    0    0  501 -0.00000000000E+00  0.00000000000E+00  0.79268365860E+02  0.79268365901E+02  0.25500000000E-02 0. -1.
          2   -1    0    0  501    0  0.00000000000E+00 -0.00000000000E+00 -0.12823472930E+04  0.12823472930E+04  0.25500000000E-02 0.  1.
    5000001    1    1    2    0    0 -0.10952541433E+03  0.24680922542E+03 -0.51845313437E+03  0.60739547469E+03  0.16500000000E+03 0.  0.
   -5000001    1    1    2    0    0  0.10952541433E+03 -0.24680922542E+03 -0.68462579272E+03  0.75422018416E+03  0.16500000000E+03 0.  0.
<mgrwt>
<rscale>  0 0.63765061E+03</rscale>
<asrwt>0</asrwt>
<pdfrwt beam="1">  1        2 0.19728418E+00 0.63765061E+03</pdfrwt>
<pdfrwt beam="2">  1       -2 0.12195134E-01 0.63765061E+03</pdfrwt>
<totfact> 0.84955670E+02</totfact>
</mgrwt>
</event>
<event>
 4    1  0.9064384E-005  0.4256014E+03  0.7818608E-02  0.1035259E+00
         -2   -1    0    0    0  501 -0.00000000000E+00  0.00000000000E+00  0.13255446008E+03  0.13255446010E+03  0.25500000000E-02 0. -1.
          2   -1    0    0  501    0  0.00000000000E+00 -0.00000000000E+00 -0.34162667750E+03  0.34162667751E+03  0.25500000000E-02 0.  1.
    5000001    1    1    2    0    0 -0.12307267185E+03 -0.43046225624E+02 -0.14079767349E+03  0.25307873272E+03  0.16500000000E+03 0.  0.
   -5000001    1    1    2    0    0  0.12307267185E+03  0.43046225624E+02 -0.68274543931E+02  0.22110240489E+03  0.16500000000E+03 0.  0.
<mgrwt>
<rscale>  0 0.42560141E+03</rscale>
<asrwt>0</asrwt>
<pdfrwt beam="1">  1        2 0.52557950E-01 0.42560141E+03</pdfrwt>
<pdfrwt beam="2">  1       -2 0.20392994E-01 0.42560141E+03</pdfrwt>
<totfact> 0.19418324E+03</totfact>
</mgrwt>
</event>
<event>
 4    1  0.9064384E-005  0.6206051E+03  0.7818608E-02  0.9863556E-01
         -2   -1    0    0    0  501 -0.00000000000E+00  0.00000000000E+00  0.24559143986E+02  0.24559144119E+02  0.25500000000E-02 0. -1.
          2   -1    0    0  501    0  0.00000000000E+00 -0.00000000000E+00 -0.39206447993E+04  0.39206447993E+04  0.25500000000E-02 0.  1.
    5000001    1    1    2    0    0  0.21752398787E+03 -0.48745210705E+02 -0.10632985044E+04  0.10988728272E+04  0.16500000000E+03 0.  0.
   -5000001    1    1    2    0    0 -0.21752398787E+03  0.48745210705E+02 -0.28327871509E+04  0.28463311162E+04  0.16500000000E+03 0.  0.
<mgrwt>
<rscale>  0 0.62060513E+03</rscale>
<asrwt>0</asrwt>
<pdfrwt beam="1">  1        2 0.60317563E+00 0.62060513E+03</pdfrwt>
<pdfrwt beam="2">  1       -2 0.37783330E-02 0.62060513E+03</pdfrwt>
<totfact> 0.14117424E+02</totfact>
</mgrwt>
</event>
<event>
 4    1  0.9064384E-005  0.3467676E+03  0.7818608E-02  0.1063950E+00
          2   -1    0    0  501    0  0.00000000000E+00  0.00000000000E+00  0.22053366532E+04  0.22053366532E+04  0.25500000000E-02 0. -1.
         -2   -1    0    0    0  501 -0.00000000000E+00 -0.00000000000E+00 -0.13631456149E+02  0.13631456388E+02  0.25500000000E-02 0.  1.
    5000001    1    1    2    0    0  0.28481753361E+02 -0.33978222756E+02  0.90697673132E+03  0.92292877355E+03  0.16500000000E+03 0.  0.
   -5000001    1    1    2    0    0 -0.28481753361E+02  0.33978222756E+02  0.12847284658E+04  0.12960393361E+04  0.16500000000E+03 0.  0.
<mgrwt>
<rscale>  0 0.34676765E+03</rscale>
<asrwt>0</asrwt>
<pdfrwt beam="1">  1        2 0.33928265E+00 0.34676765E+03</pdfrwt>
<pdfrwt beam="2">  1       -2 0.20971466E-02 0.34676765E+03</pdfrwt>
<totfact> 0.41605216E+03</totfact>
</mgrwt>
</event>
<event>
 4    1  0.9064384E-005  0.4419516E+03  0.7818608E-02  0.1030150E+00
         -2   -1    0    0    0  501 -0.00000000000E+00  0.00000000000E+00  0.30428118548E+02  0.30428118655E+02  0.25500000000E-02 0.  1.
          2   -1    0    0  501    0  0.00000000000E+00 -0.00000000000E+00 -0.16047758106E+04  0.16047758106E+04  0.25500000000E-02 0. -1.
    5000001    1    1    2    0    0 -0.63123962952E+02  0.13169655410E+03 -0.72562850149E+03  0.75834710999E+03  0.16500000000E+03 0.  0.
   -5000001    1    1    2    0    0  0.63123962952E+02 -0.13169655410E+03 -0.84871919052E+03  0.87685681922E+03  0.16500000000E+03 0.  0.
<mgrwt>
<rscale>  0 0.44195162E+03</rscale>
<asrwt>0</asrwt>
<pdfrwt beam="1">  1        2 0.24688852E+00 0.44195162E+03</pdfrwt>
<pdfrwt beam="2">  1       -2 0.46812502E-02 0.44195162E+03</pdfrwt>
<totfact> 0.25890041E+03</totfact>
</mgrwt>
</event>
<event>
 4    1  0.9064384E-005  0.5047483E+03  0.7818608E-02  0.1012547E+00
          2   -1    0    0  501    0  0.00000000000E+00  0.00000000000E+00  0.12747743040E+04  0.12747743040E+04  0.25500000000E-02 0.  1.
         -2   -1    0    0    0  501 -0.00000000000E+00 -0.00000000000E+00 -0.49963909640E+02  0.49963909705E+02  0.25500000000E-02 0. -1.
    5000001    1    1    2    0    0 -0.10082902716E+03  0.79843801811E+02  0.98288732798E+03  0.10049049830E+04  0.16500000000E+03 0.  0.
   -5000001    1    1    2    0    0  0.10082902716E+03 -0.79843801811E+02  0.24192306640E+03  0.31983323070E+03  0.16500000000E+03 0.  0.
<mgrwt>
<rscale>  0 0.50474829E+03</rscale>
<asrwt>0</asrwt>
<pdfrwt beam="1">  1        2 0.19611912E+00 0.50474829E+03</pdfrwt>
<pdfrwt beam="2">  1       -2 0.76867554E-02 0.50474829E+03</pdfrwt>
<totfact> 0.18172902E+03</totfact>
</mgrwt>
</event>
<event>
 4    1  0.9064384E-005  0.4031714E+03  0.7818608E-02  0.1042687E+00
         -2   -1    0    0    0  501 -0.00000000000E+00  0.00000000000E+00  0.14199031533E+03  0.14199031536E+03  0.25500000000E-02 0. -1.
          2   -1    0    0  501    0  0.00000000000E+00 -0.00000000000E+00 -0.28619412705E+03  0.28619412706E+03  0.25500000000E-02 0.  1.
    5000001    1    1    2    0    0 -0.24995160627E+02  0.11307531580E+03 -0.73168850484E+02  0.21445154646E+03  0.16500000000E+03 0.  0.
   -5000001    1    1    2    0    0  0.24995160627E+02 -0.11307531580E+03 -0.71034961235E+02  0.21373289596E+03  0.16500000000E+03 0.  0.
<mgrwt>
<rscale>  0 0.40317140E+03</rscale>
<asrwt>0</asrwt>
<pdfrwt beam="1">  1        2 0.44029865E-01 0.40317140E+03</pdfrwt>
<pdfrwt beam="2">  1       -2 0.21844664E-01 0.40317140E+03</pdfrwt>
<totfact> 0.20892100E+03</totfact>
</mgrwt>
</event>
<event>
 4    1  0.9064384E-005  0.4059892E+03  0.7818608E-02  0.1041725E+00
         -2   -1    0    0    0  501 -0.00000000000E+00  0.00000000000E+00  0.74288121573E+02  0.74288121617E+02  0.25500000000E-02 0. -1.
          2   -1    0    0  501    0  0.00000000000E+00 -0.00000000000E+00 -0.55468899462E+03  0.55468899463E+03  0.25500000000E-02 0.  1.
    5000001    1    1    2    0    0  0.83656826024E+01 -0.98276044426E+02 -0.13915873616E+03  0.23731481075E+03  0.16500000000E+03 0.  0.
   -5000001    1    1    2    0    0 -0.83656826024E+01  0.98276044426E+02 -0.34124213689E+03  0.39166230549E+03  0.16500000000E+03 0.  0.
<mgrwt>
<rscale>  0 0.40598918E+03</rscale>
<asrwt>0</asrwt>
<pdfrwt beam="1">  1        2 0.85336766E-01 0.40598918E+03</pdfrwt>
<pdfrwt beam="2">  1       -2 0.11428942E-01 0.40598918E+03</pdfrwt>
<totfact> 0.29760539E+03</totfact>
</mgrwt>
</event>
<event>
 4    1  0.9064384E-005  0.4013162E+03  0.7818608E-02  0.1043325E+00
          2   -1    0    0  501    0  0.00000000000E+00  0.00000000000E+00  0.10338809632E+04  0.10338809632E+04  0.25500000000E-02 0.  1.
         -2   -1    0    0    0  501 -0.00000000000E+00 -0.00000000000E+00 -0.38944203492E+02  0.38944203576E+02  0.25500000000E-02 0. -1.
    5000001    1    1    2    0    0 -0.15396431200E+02 -0.70614565487E+02  0.26114187827E+03  0.31724367218E+03  0.16500000000E+03 0.  0.
   -5000001    1    1    2    0    0  0.15396431200E+02  0.70614565487E+02  0.73379488142E+03  0.75558149458E+03  0.16500000000E+03 0.  0.
<mgrwt>
<rscale>  0 0.40131619E+03</rscale>
<asrwt>0</asrwt>
<pdfrwt beam="1">  1        2 0.15905862E+00 0.40131619E+03</pdfrwt>
<pdfrwt beam="2">  1       -2 0.59914156E-02 0.40131619E+03</pdfrwt>
<totfact> 0.37276719E+03</totfact>
</mgrwt>
</event>
<event>
 4    1  0.9064384E-005  0.4474960E+03  0.7818608E-02  0.1028471E+00
         -2   -1    0    0    0  501 -0.00000000000E+00  0.00000000000E+00  0.22457038084E+03  0.22457038085E+03  0.25500000000E-02 0. -1.
          2   -1    0    0  501    0  0.00000000000E+00 -0.00000000000E+00 -0.22292861147E+03  0.22292861148E+03  0.25500000000E-02 0.  1.
    5000001    1    1    2    0    0  0.66561300710E+02 -0.10292089222E+03  0.89224230589E+02  0.22407382741E+03  0.16500000000E+03 0.  0.
   -5000001    1    1    2    0    0 -0.66561300710E+02  0.10292089222E+03 -0.87582461220E+02  0.22342516492E+03  0.16500000000E+03 0.  0.
<mgrwt>
<rscale>  0 0.44749598E+03</rscale>
<asrwt>0</asrwt>
<pdfrwt beam="1">  1        2 0.34296710E-01 0.44749598E+03</pdfrwt>
<pdfrwt beam="2">  1       -2 0.34549289E-01 0.44749598E+03</pdfrwt>
<totfact> 0.11991827E+03</totfact>
</mgrwt>
</event>
<event>
 4    1  0.9064384E-005  0.5902306E+03  0.7818608E-02  0.9925884E-01
         -2   -1    0    0    0  501 -0.00000000000E+00  0.00000000000E+00  0.42251623178E+02  0.42251623255E+02  0.25500000000E-02 0. -1.
          2   -1    0    0  501    0  0.00000000000E+00 -0.00000000000E+00 -0.20612943436E+04  0.20612943436E+04  0.25500000000E-02 0.  1.
    5000001    1    1    2    0    0  0.46514422118E+01  0.20590857266E+03 -0.53875672960E+03  0.59991981956E+03  0.16500000000E+03 0.  0.
   -5000001    1    1    2    0    0 -0.46514422118E+01 -0.20590857266E+03 -0.14802859908E+04  0.15036261473E+04  0.16500000000E+03 0.  0.
<mgrwt>
<rscale>  0 0.59023057E+03</rscale>
<asrwt>0</asrwt>
<pdfrwt beam="1">  1        2 0.31712213E+00 0.59023057E+03</pdfrwt>
<pdfrwt beam="2">  1       -2 0.65002513E-02 0.59023057E+03</pdfrwt>
<totfact> 0.87543469E+02</totfact>
</mgrwt>
</event>
<event>
 4    1  0.9064384E-005  0.3950914E+03  0.7818608E-02  0.1045493E+00
          2   -1    0    0  501    0  0.00000000000E+00  0.00000000000E+00  0.75885482241E+03  0.75885482241E+03  0.25500000000E-02 0.  1.
         -2   -1    0    0    0  501 -0.00000000000E+00 -0.00000000000E+00 -0.51425245897E+02  0.51425245961E+02  0.25500000000E-02 0. -1.
    5000001    1    1    2    0    0 -0.50137263085E+02 -0.87357262775E+02  0.27030069696E+03  0.33231386262E+03  0.16500000000E+03 0.  0.
   -5000001    1    1    2    0    0  0.50137263085E+02  0.87357262775E+02  0.43712887955E+03  0.47796620576E+03  0.16500000000E+03 0.  0.
<mgrwt>
<rscale>  0 0.39509136E+03</rscale>
<asrwt>0</asrwt>
<pdfrwt beam="1">  1        2 0.11674690E+00 0.39509136E+03</pdfrwt>
<pdfrwt beam="2">  1       -2 0.79115758E-02 0.39509136E+03</pdfrwt>
<totfact> 0.36696679E+03</totfact>
</mgrwt>
</event>
<event>
 4    1  0.9064384E-005  0.6738952E+03  0.7818608E-02  0.9762947E-01
         -2   -1    0    0    0  501 -0.00000000000E+00  0.00000000000E+00  0.85965485376E+02  0.85965485413E+02  0.25500000000E-02 0. -1.
          2   -1    0    0  501    0  0.00000000000E+00 -0.00000000000E+00 -0.13206891833E+04  0.13206891833E+04  0.25500000000E-02 0.  1.
    5000001    1    1    2    0    0  0.16686974387E+03  0.23791453203E+03 -0.52734285172E+03  0.62431107569E+03  0.16500000000E+03 0.  0.
   -5000001    1    1    2    0    0 -0.16686974387E+03 -0.23791453203E+03 -0.70738084618E+03  0.78234359300E+03  0.16500000000E+03 0.  0.
<mgrwt>
<rscale>  0 0.67389520E+03</rscale>
<asrwt>0</asrwt>
<pdfrwt beam="1">  1        2 0.20318294E+00 0.67389520E+03</pdfrwt>
<pdfrwt beam="2">  1       -2 0.13225460E-01 0.67389520E+03</pdfrwt>
<totfact> 0.70481440E+02</totfact>
</mgrwt>
</event>
<event>
 4    1  0.9064384E-005  0.3749382E+03  0.7818608E-02  0.1052821E+00
          2   -1    0    0  501    0  0.00000000000E+00  0.00000000000E+00  0.87890217704E+03  0.87890217704E+03  0.25500000000E-02 0.  1.
         -2   -1    0    0    0  501 -0.00000000000E+00 -0.00000000000E+00 -0.39986997640E+02  0.39986997722E+02  0.25500000000E-02 0. -1.
    5000001    1    1    2    0    0  0.66796490932E+02 -0.29815580331E+02  0.54367392159E+03  0.57284995684E+03  0.16500000000E+03 0.  0.
   -5000001    1    1    2    0    0 -0.66796490932E+02  0.29815580331E+02  0.29524125781E+03  0.34603921793E+03  0.16500000000E+03 0.  0.
<mgrwt>
<rscale>  0 0.37493818E+03</rscale>
<asrwt>0</asrwt>
<pdfrwt beam="1">  1        2 0.13521573E+00 0.37493818E+03</pdfrwt>
<pdfrwt beam="2">  1       -2 0.61518454E-02 0.37493818E+03</pdfrwt>
<totfact> 0.44874176E+03</totfact>
</mgrwt>
</event>
<event>
 4    1  0.9064384E-005  0.5239301E+03  0.7818608E-02  0.1007715E+00
          2   -1    0    0  501    0  0.00000000000E+00  0.00000000000E+00  0.13663243514E+03  0.13663243516E+03  0.25500000000E-02 0.  1.
         -2   -1    0    0    0  501 -0.00000000000E+00 -0.00000000000E+00 -0.50226496302E+03  0.50226496303E+03  0.25500000000E-02 0. -1.
    5000001    1    1    2    0    0  0.28513608794E+02  0.20132401378E+03 -0.19196611903E+03  0.32468504010E+03  0.16500000000E+03 0.  0.
   -5000001    1    1    2    0    0 -0.28513608794E+02 -0.20132401378E+03 -0.17366640886E+03  0.31421235809E+03  0.16500000000E+03 0.  0.
<mgrwt>
<rscale>  0 0.52393009E+03</rscale>
<asrwt>0</asrwt>
<pdfrwt beam="1">  1        2 0.21020375E-01 0.52393009E+03</pdfrwt>
<pdfrwt beam="2">  1       -2 0.77271532E-01 0.52393009E+03</pdfrwt>
<totfact> 0.40446222E+02</totfact>
</mgrwt>
</event>
<event>
 4    1  0.9064384E-005  0.8259563E+03  0.7818608E-02  0.9523188E-01
          2   -1    0    0  501    0  0.00000000000E+00  0.00000000000E+00  0.14736551709E+04  0.14736551709E+04  0.25500000000E-02 0.  1.
         -2   -1    0    0    0  501 -0.00000000000E+00 -0.00000000000E+00 -0.11573329415E+03  0.11573329418E+03  0.25500000000E-02 0. -1.
    5000001    1    1    2    0    0 -0.35772176729E+03  0.11903324423E+03  0.61251843995E+03  0.73792792013E+03  0.16500000000E+03 0.  0.
   -5000001    1    1    2    0    0  0.35772176729E+03 -0.11903324423E+03  0.74540343683E+03  0.85146054498E+03  0.16500000000E+03 0.  0.
<mgrwt>
<rscale>  0 0.82595634E+03</rscale>
<asrwt>0</asrwt>
<pdfrwt beam="1">  1        2 0.22671619E+00 0.82595634E+03</pdfrwt>
<pdfrwt beam="2">  1       -2 0.17805122E-01 0.82595634E+03</pdfrwt>
<totfact> 0.34600779E+02</totfact>
</mgrwt>
</event>
<event>
 4    1  0.9064384E-005  0.4342580E+03  0.7818608E-02  0.1032523E+00
          2   -1    0    0  501    0  0.00000000000E+00  0.00000000000E+00  0.19390782144E+04  0.19390782144E+04  0.25500000000E-02 0.  1.
         -2   -1    0    0    0  501 -0.00000000000E+00 -0.00000000000E+00 -0.24313101235E+02  0.24313101369E+02  0.25500000000E-02 0. -1.
    5000001    1    1    2    0    0 -0.94790875396E+02 -0.10452683457E+03  0.94394304762E+03  0.96858899765E+03  0.16500000000E+03 0.  0.
   -5000001    1    1    2    0    0  0.94790875396E+02  0.10452683457E+03  0.97082206553E+03  0.99480231811E+03  0.16500000000E+03 0.  0.
<mgrwt>
<rscale>  0 0.43425801E+03</rscale>
<asrwt>0</asrwt>
<pdfrwt beam="1">  1        2 0.29831977E+00 0.43425801E+03</pdfrwt>
<pdfrwt beam="2">  1       -2 0.37404766E-02 0.43425801E+03</pdfrwt>
<totfact> 0.24149614E+03</totfact>
</mgrwt>
</event>
<event>
 4    1  0.9064384E-005  0.4629490E+03  0.7818608E-02  0.1023929E+00
          2   -1    0    0  501    0  0.00000000000E+00  0.00000000000E+00  0.10326008495E+04  0.10326008495E+04  0.25500000000E-02 0.  1.
         -2   -1    0    0    0  501 -0.00000000000E+00 -0.00000000000E+00 -0.51888827503E+02  0.51888827566E+02  0.25500000000E-02 0. -1.
    5000001    1    1    2    0    0  0.15765267754E+03  0.33725190767E+02  0.53503046283E+03  0.58264427517E+03  0.16500000000E+03 0.  0.
   -5000001    1    1    2    0    0 -0.15765267754E+03 -0.33725190767E+02  0.44568155917E+03  0.50184540191E+03  0.16500000000E+03 0.  0.
<mgrwt>
<rscale>  0 0.46294901E+03</rscale>
<asrwt>0</asrwt>
<pdfrwt beam="1">  1        2 0.15886166E+00 0.46294901E+03</pdfrwt>
<pdfrwt beam="2">  1       -2 0.79828970E-02 0.46294901E+03</pdfrwt>
<totfact> 0.23825020E+03</totfact>
</mgrwt>
</event>
<event>
 4    1  0.9064384E-005  0.7941326E+03  0.7818608E-02  0.9568549E-01
         -2   -1    0    0    0  501 -0.00000000000E+00  0.00000000000E+00  0.61156305458E+02  0.61156305511E+02  0.25500000000E-02 0. -1.
          2   -1    0    0  501    0  0.00000000000E+00 -0.00000000000E+00 -0.25780116204E+04  0.25780116204E+04  0.25500000000E-02 0.  1.
    5000001    1    1    2    0    0 -0.31888796249E+03 -0.75256252076E+02 -0.75350364336E+03  0.83806072373E+03  0.16500000000E+03 0.  0.
   -5000001    1    1    2    0    0  0.31888796249E+03  0.75256252076E+02 -0.17633516715E+04  0.18011072022E+04  0.16500000000E+03 0.  0.
<mgrwt>
<rscale>  0 0.79413265E+03</rscale>
<asrwt>0</asrwt>
<pdfrwt beam="1">  1        2 0.39661709E+00 0.79413265E+03</pdfrwt>
<pdfrwt beam="2">  1       -2 0.94086644E-02 0.79413265E+03</pdfrwt>
<totfact> 0.24613753E+02</totfact>
</mgrwt>
</event>
<event>
 4    1  0.9064384E-005  0.4083939E+03  0.7818608E-02  0.1040911E+00
          2   -1    0    0  501    0  0.00000000000E+00  0.00000000000E+00  0.83133366621E+03  0.83133366621E+03  0.25500000000E-02 0.  1.
         -2   -1    0    0    0  501 -0.00000000000E+00 -0.00000000000E+00 -0.50156034595E+02  0.50156034660E+02  0.25500000000E-02 0. -1.
    5000001    1    1    2    0    0 -0.68633886735E+02  0.90690162005E+02  0.47518396980E+03  0.51571321590E+03  0.16500000000E+03 0.  0.
   -5000001    1    1    2    0    0  0.68633886735E+02 -0.90690162005E+02  0.30599366181E+03  0.36577648498E+03  0.16500000000E+03 0.  0.
<mgrwt>
<rscale>  0 0.40839393E+03</rscale>
<asrwt>0</asrwt>
<pdfrwt beam="1">  1        2 0.12789748E+00 0.40839393E+03</pdfrwt>
<pdfrwt beam="2">  1       -2 0.77163133E-02 0.40839393E+03</pdfrwt>
<totfact> 0.33943477E+03</totfact>
</mgrwt>
</event>
<event>
 4    1  0.9064384E-005  0.5008561E+03  0.7818608E-02  0.1013556E+00
          2   -1    0    0  501    0  0.00000000000E+00  0.00000000000E+00  0.54102193887E+03  0.54102193888E+03  0.25500000000E-02 0.  1.
         -2   -1    0    0    0  501 -0.00000000000E+00 -0.00000000000E+00 -0.11591804730E+03  0.11591804733E+03  0.25500000000E-02 0. -1.
    5000001    1    1    2    0    0  0.14998004109E+03 -0.10810379939E+03  0.26000270475E+03  0.35917523668E+03  0.16500000000E+03 0.  0.
   -5000001    1    1    2    0    0 -0.14998004109E+03  0.10810379939E+03  0.16510118682E+03  0.29776474952E+03  0.16500000000E+03 0.  0.
<mgrwt>
<rscale>  0 0.50085609E+03</rscale>
<asrwt>0</asrwt>
<pdfrwt beam="1">  1        2 0.83234145E-01 0.50085609E+03</pdfrwt>
<pdfrwt beam="2">  1       -2 0.17833546E-01 0.50085609E+03</pdfrwt>
<totfact> 0.14621212E+03</totfact>
</mgrwt>
</event>
<event>
 4    1  0.9064384E-005  0.6198952E+03  0.7818608E-02  0.9864968E-01
         -2   -1    0    0    0  501 -0.00000000000E+00  0.00000000000E+00  0.10949987201E+03  0.10949987204E+03  0.25500000000E-02 0. -1.
          2   -1    0    0  501    0  0.00000000000E+00 -0.00000000000E+00 -0.87733003809E+03  0.87733003810E+03  0.25500000000E-02 0.  1.
    5000001    1    1    2    0    0 -0.20882890382E+03  0.69769850128E+02 -0.15673608980E+03  0.31665208811E+03  0.16500000000E+03 0.  0.
   -5000001    1    1    2    0    0  0.20882890382E+03 -0.69769850128E+02 -0.61109407629E+03  0.67017782203E+03  0.16500000000E+03 0.  0.
<mgrwt>
<rscale>  0 0.61989524E+03</rscale>
<asrwt>0</asrwt>
<pdfrwt beam="1">  1        2 0.13497385E+00 0.61989524E+03</pdfrwt>
<pdfrwt beam="2">  1       -2 0.16846135E-01 0.61989524E+03</pdfrwt>
<totfact> 0.87896738E+02</totfact>
</mgrwt>
</event>
<event>
 4    1  0.9064384E-005  0.3982900E+03  0.7818608E-02  0.1044373E+00
         -2   -1    0    0    0  501 -0.00000000000E+00  0.00000000000E+00  0.26218916477E+03  0.26218916478E+03  0.25500000000E-02 0. -1.
          2   -1    0    0  501    0  0.00000000000E+00 -0.00000000000E+00 -0.15125998506E+03  0.15125998508E+03  0.25500000000E-02 0.  1.
    5000001    1    1    2    0    0 -0.10974037014E+03 -0.99453399741E+00  0.75959156244E+02  0.21222330540E+03  0.16500000000E+03 0.  0.
   -5000001    1    1    2    0    0  0.10974037014E+03  0.99453399741E+00  0.34970023468E+02  0.20122584446E+03  0.16500000000E+03 0.  0.
<mgrwt>
<rscale>  0 0.39828999E+03</rscale>
<asrwt>0</asrwt>
<pdfrwt beam="1">  1        2 0.23270767E-01 0.39828999E+03</pdfrwt>
<pdfrwt beam="2">  1       -2 0.40336795E-01 0.39828999E+03</pdfrwt>
<totfact> 0.13776851E+03</totfact>
</mgrwt>
</event>
<event>
 4    1  0.9064384E-005  0.4729367E+03  0.7818608E-02  0.1021095E+00
          2   -1    0    0  501    0  0.00000000000E+00  0.00000000000E+00  0.20321435837E+04  0.20321435837E+04  0.25500000000E-02 0.  1.
         -2   -1    0    0    0  501 -0.00000000000E+00 -0.00000000000E+00 -0.27516397051E+02  0.27516397169E+02  0.25500000000E-02 0. -1.
    5000001    1    1    2    0    0  0.87688583536E+02 -0.13069562385E+03  0.72958780898E+03  0.76439126420E+03  0.16500000000E+03 0.  0.
   -5000001    1    1    2    0    0 -0.87688583536E+02  0.13069562385E+03  0.12750393777E+04  0.12952687167E+04  0.16500000000E+03 0.  0.
<mgrwt>
<rscale>  0 0.47293665E+03</rscale>
<asrwt>0</asrwt>
<pdfrwt beam="1">  1        2 0.31263756E+00 0.47293665E+03</pdfrwt>
<pdfrwt beam="2">  1       -2 0.42332907E-02 0.47293665E+03</pdfrwt>
<totfact> 0.17789252E+03</totfact>
</mgrwt>
</event>
<event>
 4    1  0.9064384E-005  0.5552067E+03  0.7818608E-02  0.1000296E+00
         -2   -1    0    0    0  501 -0.00000000000E+00  0.00000000000E+00  0.23015831319E+02  0.23015831460E+02  0.25500000000E-02 0. -1.
          2   -1    0    0  501    0  0.00000000000E+00 -0.00000000000E+00 -0.33482879400E+04  0.33482879400E+04  0.25500000000E-02 0.  1.
    5000001    1    1    2    0    0  0.40995937217E+02 -0.16946310232E+03 -0.81600585844E+03  0.85058154866E+03  0.16500000000E+03 0.  0.
   -5000001    1    1    2    0    0 -0.40995937217E+02  0.16946310232E+03 -0.25092662502E+04  0.25207222228E+04  0.16500000000E+03 0.  0.
<mgrwt>
<rscale>  0 0.55520674E+03</rscale>
<asrwt>0</asrwt>
<pdfrwt beam="1">  1        2 0.51512083E+00 0.55520674E+03</pdfrwt>
<pdfrwt beam="2">  1       -2 0.35408998E-02 0.55520674E+03</pdfrwt>
<totfact> 0.39829906E+02</totfact>
</mgrwt>
</event>
<event>
 4    1  0.9064384E-005  0.7032664E+03  0.7818608E-02  0.9711663E-01
         -2   -1    0    0    0  501 -0.00000000000E+00  0.00000000000E+00  0.21366249406E+03  0.21366249408E+03  0.25500000000E-02 0. -1.
          2   -1    0    0  501    0  0.00000000000E+00 -0.00000000000E+00 -0.57869724441E+03  0.57869724442E+03  0.25500000000E-02 0.  1.
    5000001    1    1    2    0    0  0.18629798753E+03 -0.24191467646E+03 -0.11886968131E+03  0.36685780894E+03  0.16500000000E+03 0.  0.
   -5000001    1    1    2    0    0 -0.18629798753E+03  0.24191467646E+03 -0.24616506904E+03  0.42550192956E+03  0.16500000000E+03 0.  0.
<mgrwt>
<rscale>  0 0.70326637E+03</rscale>
<asrwt>0</asrwt>
<pdfrwt beam="1">  1        2 0.89030345E-01 0.70326637E+03</pdfrwt>
<pdfrwt beam="2">  1       -2 0.32871153E-01 0.70326637E+03</pdfrwt>
<totfact> 0.45025099E+02</totfact>
</mgrwt>
</event>
<event>
 4    1  0.9064384E-005  0.4533671E+03  0.7818608E-02  0.1026723E+00
         -2   -1    0    0    0  501 -0.00000000000E+00  0.00000000000E+00  0.41328631492E+02  0.41328631570E+02  0.25500000000E-02 0. -1.
          2   -1    0    0  501    0  0.00000000000E+00 -0.00000000000E+00 -0.12433376199E+04  0.12433376199E+04  0.25500000000E-02 0.  1.
    5000001    1    1    2    0    0 -0.11830573964E+03 -0.81517864573E+02 -0.43291062137E+03  0.48505465297E+03  0.16500000000E+03 0.  0.
   -5000001    1    1    2    0    0  0.11830573964E+03  0.81517864573E+02 -0.76909836706E+03  0.79961159853E+03  0.16500000000E+03 0.  0.
<mgrwt>
<rscale>  0 0.45336715E+03</rscale>
<asrwt>0</asrwt>
<pdfrwt beam="1">  1        2 0.19128268E+00 0.45336715E+03</pdfrwt>
<pdfrwt beam="2">  1       -2 0.63582520E-02 0.45336715E+03</pdfrwt>
<totfact> 0.25550440E+03</totfact>
</mgrwt>
</event>
<event>
 4    1  0.9064384E-005  0.7322370E+03  0.7818608E-02  0.9663637E-01
         -2   -1    0    0    0  501 -0.00000000000E+00  0.00000000000E+00  0.15289961860E+03  0.15289961862E+03  0.25500000000E-02 0. -1.
          2   -1    0    0  501    0  0.00000000000E+00 -0.00000000000E+00 -0.87667153448E+03  0.87667153448E+03  0.25500000000E-02 0.  1.
    5000001    1    1    2    0    0  0.91846046830E+01  0.31180773396E+03 -0.49899923922E+03  0.61117400195E+03  0.16500000000E+03 0.  0.
   -5000001    1    1    2    0    0 -0.91846046830E+01 -0.31180773396E+03 -0.22477267666E+03  0.41839715115E+03  0.16500000000E+03 0.  0.
<mgrwt>
<rscale>  0 0.73223697E+03</rscale>
<asrwt>0</asrwt>
<pdfrwt beam="1">  1        2 0.13487254E+00 0.73223697E+03</pdfrwt>
<pdfrwt beam="2">  1       -2 0.23523019E-01 0.73223697E+03</pdfrwt>
<totfact> 0.48941250E+02</totfact>
</mgrwt>
</event>
<event>
 4    1  0.9064384E-005  0.5748535E+03  0.7818608E-02  0.9958996E-01
         -2   -1    0    0    0  501 -0.00000000000E+00  0.00000000000E+00  0.16265698765E+03  0.16265698767E+03  0.25500000000E-02 0. -1.
          2   -1    0    0  501    0  0.00000000000E+00 -0.00000000000E+00 -0.50790401176E+03  0.50790401176E+03  0.25500000000E-02 0.  1.
    5000001    1    1    2    0    0 -0.74286673244E+02 -0.18138754215E+03 -0.20669692908E+02  0.25704510591E+03  0.16500000000E+03 0.  0.
   -5000001    1    1    2    0    0  0.74286673244E+02  0.18138754215E+03 -0.32457733120E+03  0.41351589352E+03  0.16500000000E+03 0.  0.
<mgrwt>
<rscale>  0 0.57485350E+03</rscale>
<asrwt>0</asrwt>
<pdfrwt beam="1">  1        2 0.78139078E-01 0.57485350E+03</pdfrwt>
<pdfrwt beam="2">  1       -2 0.25024152E-01 0.57485350E+03</pdfrwt>
<totfact> 0.86864840E+02</totfact>
</mgrwt>
</event>
<event>
 4    1  0.9064384E-005  0.8602436E+03  0.7818608E-02  0.9476691E-01
         -2   -1    0    0    0  501 -0.00000000000E+00  0.00000000000E+00  0.97690864054E+02  0.97690864087E+02  0.25500000000E-02 0. -1.
          2   -1    0    0  501    0  0.00000000000E+00 -0.00000000000E+00 -0.18937774831E+04  0.18937774831E+04  0.25500000000E-02 0.  1.
    5000001    1    1    2    0    0  0.15807474145E+03  0.19761769044E+03 -0.16068258459E+04  0.16349784936E+04  0.16500000000E+03 0.  0.
   -5000001    1    1    2    0    0 -0.15807474145E+03 -0.19761769044E+03 -0.18926077313E+03  0.35648985358E+03  0.16500000000E+03 0.  0.
<mgrwt>
<rscale>  0 0.86024359E+03</rscale>
<asrwt>0</asrwt>
<pdfrwt beam="1">  1        2 0.29135036E+00 0.86024359E+03</pdfrwt>
<pdfrwt beam="2">  1       -2 0.15029365E-01 0.86024359E+03</pdfrwt>
<totfact> 0.27069047E+02</totfact>
</mgrwt>
</event>
<event>
 4    1  0.9064384E-005  0.3502325E+03  0.7818608E-02  0.1062520E+00
          2   -1    0    0  501    0  0.00000000000E+00  0.00000000000E+00  0.36884657716E+03  0.36884657717E+03  0.25500000000E-02 0.  1.
         -2   -1    0    0    0  501 -0.00000000000E+00 -0.00000000000E+00 -0.83139441405E+02  0.83139441444E+02  0.25500000000E-02 0. -1.
    5000001    1    1    2    0    0  0.49597084983E+02 -0.30377417632E+02  0.15268535574E+03  0.23220782975E+03  0.16500000000E+03 0.  0.
   -5000001    1    1    2    0    0 -0.49597084983E+02  0.30377417632E+02  0.13302178001E+03  0.21977818886E+03  0.16500000000E+03 0.  0.
<mgrwt>
<rscale>  0 0.35023249E+03</rscale>
<asrwt>0</asrwt>
<pdfrwt beam="1">  1        2 0.56745626E-01 0.35023249E+03</pdfrwt>
<pdfrwt beam="2">  1       -2 0.12790684E-01 0.35023249E+03</pdfrwt>
<totfact> 0.39006865E+03</totfact>
</mgrwt>
</event>
<event>
 4    1  0.9064384E-005  0.5916684E+03  0.7818608E-02  0.9922844E-01
          2   -1    0    0  501    0  0.00000000000E+00  0.00000000000E+00  0.29837440454E+03  0.29837440455E+03  0.25500000000E-02 0.  1.
         -2   -1    0    0    0  501 -0.00000000000E+00 -0.00000000000E+00 -0.29331566523E+03  0.29331566524E+03  0.25500000000E-02 0. -1.
    5000001    1    1    2    0    0  0.11094038973E+03  0.15855882686E+03 -0.14861918398E+03  0.29455276861E+03  0.16500000000E+03 0.  0.
   -5000001    1    1    2    0    0 -0.11094038973E+03 -0.15855882686E+03  0.15367792329E+03  0.29713730118E+03  0.16500000000E+03 0.  0.
<mgrwt>
<rscale>  0 0.59166844E+03</rscale>
<asrwt>0</asrwt>
<pdfrwt beam="1">  1        2 0.45903755E-01 0.59166844E+03</pdfrwt>
<pdfrwt beam="2">  1       -2 0.45125487E-01 0.59166844E+03</pdfrwt>
<totfact> 0.51860377E+02</totfact>
</mgrwt>
</event>
<event>
 4    1  0.9064384E-005  0.4314762E+03  0.7818608E-02  0.1033395E+00
         -2   -1    0    0    0  501 -0.00000000000E+00  0.00000000000E+00  0.10107411845E+03  0.10107411848E+03  0.25500000000E-02 0. -1.
          2   -1    0    0  501    0  0.00000000000E+00 -0.00000000000E+00 -0.46048314812E+03  0.46048314813E+03  0.25500000000E-02 0.  1.
    5000001    1    1    2    0    0 -0.13447526397E+03 -0.24185378080E+02 -0.14653851789E+03  0.25955166414E+03  0.16500000000E+03 0.  0.
   -5000001    1    1    2    0    0  0.13447526397E+03  0.24185378080E+02 -0.21287051179E+03  0.30200560247E+03  0.16500000000E+03 0.  0.
<mgrwt>
<rscale>  0 0.43147620E+03</rscale>
<asrwt>0</asrwt>
<pdfrwt beam="1">  1        2 0.70843560E-01 0.43147620E+03</pdfrwt>
<pdfrwt beam="2">  1       -2 0.15549865E-01 0.43147620E+03</pdfrwt>
<totfact> 0.22154184E+03</totfact>
</mgrwt>
</event>
<event>
 4    1  0.9064384E-005  0.4596748E+03  0.7818608E-02  0.1024876E+00
          2   -1    0    0  501    0  0.00000000000E+00  0.00000000000E+00  0.49145467270E+03  0.49145467270E+03  0.25500000000E-02 0.  1.
         -2   -1    0    0    0  501 -0.00000000000E+00 -0.00000000000E+00 -0.10748747507E+03  0.10748747510E+03  0.25500000000E-02 0. -1.
    5000001    1    1    2    0    0  0.38290315723E+02 -0.15483579041E+03  0.17550468672E+03  0.28890684542E+03  0.16500000000E+03 0.  0.
   -5000001    1    1    2    0    0 -0.38290315723E+02  0.15483579041E+03  0.20846251090E+03  0.31003530238E+03  0.16500000000E+03 0.  0.
<mgrwt>
<rscale>  0 0.45967476E+03</rscale>
<asrwt>0</asrwt>
<pdfrwt beam="1">  1        2 0.75608411E-01 0.45967476E+03</pdfrwt>
<pdfrwt beam="2">  1       -2 0.16536535E-01 0.45967476E+03</pdfrwt>
<totfact> 0.18563342E+03</totfact>
</mgrwt>
</event>
<event>
 4    1  0.9064384E-005  0.7507647E+03  0.7818608E-02  0.9634151E-01
          2   -1    0    0  501    0  0.00000000000E+00  0.00000000000E+00  0.19764857281E+04  0.19764857281E+04  0.25500000000E-02 0.  1.
         -2   -1    0    0    0  501 -0.00000000000E+00 -0.00000000000E+00 -0.71294165585E+02  0.71294165630E+02  0.25500000000E-02 0. -1.
    5000001    1    1    2    0    0  0.27762899023E+03 -0.21070465516E+02  0.43388633408E+03  0.54129859748E+03  0.16500000000E+03 0.  0.
   -5000001    1    1    2    0    0 -0.27762899023E+03  0.21070465516E+02  0.14713052285E+04  0.15064812963E+04  0.16500000000E+03 0.  0.
<mgrwt>
<rscale>  0 0.75076468E+03</rscale>
<asrwt>0</asrwt>
<pdfrwt beam="1">  1        2 0.30407469E+00 0.75076468E+03</pdfrwt>
<pdfrwt beam="2">  1       -2 0.10968335E-01 0.75076468E+03</pdfrwt>
<totfact> 0.41567425E+02</totfact>
</mgrwt>
</event>
<event>
 4    1  0.9064384E-005  0.5494640E+03  0.7818608E-02  0.1001618E+00
         -2   -1    0    0    0  501 -0.00000000000E+00  0.00000000000E+00  0.39229931251E+02  0.39229931334E+02  0.25500000000E-02 0. -1.
          2   -1    0    0  501    0  0.00000000000E+00 -0.00000000000E+00 -0.19239814221E+04  0.19239814221E+04  0.25500000000E-02 0.  1.
    5000001    1    1    2    0    0 -0.38217617960E+02  0.19152782525E+03 -0.58313508232E+03  0.63672208883E+03  0.16500000000E+03 0.  0.
   -5000001    1    1    2    0    0  0.38217617960E+02 -0.19152782525E+03 -0.13016164085E+04  0.13264892646E+04  0.16500000000E+03 0.  0.
<mgrwt>
<rscale>  0 0.54946395E+03</rscale>
<asrwt>0</asrwt>
<pdfrwt beam="1">  1        2 0.29599707E+00 0.54946395E+03</pdfrwt>
<pdfrwt beam="2">  1       -2 0.60353755E-02 0.54946395E+03</pdfrwt>
<totfact> 0.11699883E+03</totfact>
</mgrwt>
</event>
<event>
 4    1  0.9064384E-005  0.4975830E+03  0.7818608E-02  0.1014412E+00
         -2   -1    0    0    0  501 -0.00000000000E+00  0.00000000000E+00  0.47093311483E+02  0.47093311552E+02  0.25500000000E-02 0. -1.
          2   -1    0    0  501    0  0.00000000000E+00 -0.00000000000E+00 -0.13143526231E+04  0.13143526231E+04  0.25500000000E-02 0.  1.
    5000001    1    1    2    0    0  0.12232490209E+03  0.12240098221E+03 -0.44551610524E+03  0.50562335997E+03  0.16500000000E+03 0.  0.
   -5000001    1    1    2    0    0 -0.12232490209E+03 -0.12240098221E+03 -0.82174320638E+03  0.85582257469E+03  0.16500000000E+03 0.  0.
<mgrwt>
<rscale>  0 0.49758303E+03</rscale>
<asrwt>0</asrwt>
<pdfrwt beam="1">  1        2 0.20220807E+00 0.49758303E+03</pdfrwt>
<pdfrwt beam="2">  1       -2 0.72451258E-02 0.49758303E+03</pdfrwt>
<totfact> 0.18949716E+03</totfact>
</mgrwt>
</event>
<event>
 4    1  0.9064384E-005  0.4532650E+03  0.7818608E-02  0.1026753E+00
          2   -1    0    0  501    0  0.00000000000E+00  0.00000000000E+00  0.37719710884E+03  0.37719710884E+03  0.25500000000E-02 0.  1.
         -2   -1    0    0    0  501 -0.00000000000E+00 -0.00000000000E+00 -0.13616832290E+03  0.13616832292E+03  0.25500000000E-02 0. -1.
    5000001    1    1    2    0    0 -0.14976013200E+03 -0.41272038814E+02  0.12324659827E+03  0.25796550604E+03  0.16500000000E+03 0.  0.
   -5000001    1    1    2    0    0  0.14976013200E+03  0.41272038814E+02  0.11778218767E+03  0.25539992572E+03  0.16500000000E+03 0.  0.
<mgrwt>
<rscale>  0 0.45326503E+03</rscale>
<asrwt>0</asrwt>
<pdfrwt beam="1">  1        2 0.58030325E-01 0.45326503E+03</pdfrwt>
<pdfrwt beam="2">  1       -2 0.20948973E-01 0.45326503E+03</pdfrwt>
<totfact> 0.16627122E+03</totfact>
</mgrwt>
</event>
<event>
 4    1  0.9064384E-005  0.4805116E+03  0.7818608E-02  0.1018995E+00
          2   -1    0    0  501    0  0.00000000000E+00  0.00000000000E+00  0.10850971382E+04  0.10850971382E+04  0.25500000000E-02 0.  1.
         -2   -1    0    0    0  501 -0.00000000000E+00 -0.00000000000E+00 -0.53196022525E+02  0.53196022586E+02  0.25500000000E-02 0. -1.
    5000001    1    1    2    0    0 -0.86868636393E+02 -0.14592838531E+03  0.41953239867E+03  0.48174026940E+03  0.16500000000E+03 0.  0.
   -5000001    1    1    2    0    0  0.86868636393E+02  0.14592838531E+03  0.61236871703E+03  0.65655289141E+03  0.16500000000E+03 0.  0.
<mgrwt>
<rscale>  0 0.48051161E+03</rscale>
<asrwt>0</asrwt>
<pdfrwt beam="1">  1        2 0.16693801E+00 0.48051161E+03</pdfrwt>
<pdfrwt beam="2">  1       -2 0.81840041E-02 0.48051161E+03</pdfrwt>
<totfact> 0.21269323E+03</totfact>
</mgrwt>
</event>
<event>
 4    1  0.9064384E-005  0.6067141E+03  0.7818608E-02  0.9891574E-01
          2   -1    0    0  501    0  0.00000000000E+00  0.00000000000E+00  0.17765772122E+03  0.17765772123E+03  0.25500000000E-02 0.  1.
         -2   -1    0    0    0  501 -0.00000000000E+00 -0.00000000000E+00 -0.51799324350E+03  0.51799324351E+03  0.25500000000E-02 0. -1.
    5000001    1    1    2    0    0 -0.15856225614E+03 -0.90492440894E+01 -0.39826848472E+03  0.45941992100E+03  0.16500000000E+03 0.  0.
   -5000001    1    1    2    0    0  0.15856225614E+03  0.90492440894E+01  0.57932962437E+02  0.23623104374E+03  0.16500000000E+03 0.  0.
<mgrwt>
<rscale>  0 0.60671410E+03</rscale>
<asrwt>0</asrwt>
<pdfrwt beam="1">  1        2 0.27331957E-01 0.60671410E+03</pdfrwt>
<pdfrwt beam="2">  1       -2 0.79691268E-01 0.60671410E+03</pdfrwt>
<totfact> 0.27889988E+02</totfact>
</mgrwt>
</event>
<event>
 4    1  0.9064384E-005  0.4289448E+03  0.7818608E-02  0.1034194E+00
          2   -1    0    0  501    0  0.00000000000E+00  0.00000000000E+00  0.75499015612E+03  0.75499015612E+03  0.25500000000E-02 0. -1.
         -2   -1    0    0    0  501 -0.00000000000E+00 -0.00000000000E+00 -0.60925847529E+02  0.60925847582E+02  0.25500000000E-02 0.  1.
    5000001    1    1    2    0    0 -0.37784944472E+02 -0.69148059916E+02  0.56024455531E+03  0.58932853144E+03  0.16500000000E+03 0.  0.
   -5000001    1    1    2    0    0  0.37784944472E+02  0.69148059916E+02  0.13381975329E+03  0.22658747227E+03  0.16500000000E+03 0.  0.
<mgrwt>
<rscale>  0 0.42894482E+03</rscale>
<asrwt>0</asrwt>
<pdfrwt beam="1">  1        2 0.11615233E+00 0.42894482E+03</pdfrwt>
<pdfrwt beam="2">  1       -2 0.93732072E-02 0.42894482E+03</pdfrwt>
<totfact> 0.28238275E+03</totfact>
</mgrwt>
</event>
<event>
 4    1  0.9064384E-005  0.9546674E+03  0.7818608E-02  0.9359712E-01
          2   -1    0    0  501    0  0.00000000000E+00  0.00000000000E+00  0.97392034706E+03  0.97392034707E+03  0.25500000000E-02 0.  1.
         -2   -1    0    0    0  501 -0.00000000000E+00 -0.00000000000E+00 -0.23394876534E+03  0.23394876536E+03  0.25500000000E-02 0. -1.
    5000001    1    1    2    0    0 -0.33390306668E+03 -0.29112769682E+03  0.28629070964E+03  0.55266080395E+03  0.16500000000E+03 0.  0.
   -5000001    1    1    2    0    0  0.33390306668E+03  0.29112769682E+03  0.45368087208E+03  0.65520830847E+03  0.16500000000E+03 0.  0.
<mgrwt>
<rscale>  0 0.95466740E+03</rscale>
<asrwt>0</asrwt>
<pdfrwt beam="1">  1        2 0.14983389E+00 0.95466740E+03</pdfrwt>
<pdfrwt beam="2">  1       -2 0.35992119E-01 0.95466740E+03</pdfrwt>
<totfact> 0.19000886E+02</totfact>
</mgrwt>
</event>
<event>
 4    1  0.9064384E-005  0.3627426E+03  0.7818608E-02  0.1057503E+00
          2   -1    0    0  501    0  0.00000000000E+00  0.00000000000E+00  0.13893086548E+04  0.13893086548E+04  0.25500000000E-02 0.  1.
         -2   -1    0    0    0  501 -0.00000000000E+00 -0.00000000000E+00 -0.23677640662E+02  0.23677640799E+02  0.25500000000E-02 0. -1.
    5000001    1    1    2    0    0  0.52305391532E+02 -0.62506540582E+01  0.89242485368E+03  0.90907757872E+03  0.16500000000E+03 0.  0.
   -5000001    1    1    2    0    0 -0.52305391532E+02  0.62506540582E+01  0.47320616049E+03  0.50390871692E+03  0.16500000000E+03 0.  0.
<mgrwt>
<rscale>  0 0.36274262E+03</rscale>
<asrwt>0</asrwt>
<pdfrwt beam="1">  1        2 0.21373982E+00 0.36274262E+03</pdfrwt>
<pdfrwt beam="2">  1       -2 0.36427136E-02 0.36274262E+03</pdfrwt>
<totfact> 0.49736161E+03</totfact>
</mgrwt>
</event>
<event>
 4    1  0.9064384E-005  0.4114523E+03  0.7818608E-02  0.1039885E+00
         -2   -1    0    0    0  501 -0.00000000000E+00  0.00000000000E+00  0.10105291492E+04  0.10105291492E+04  0.25500000000E-02 0. -1.
          2   -1    0    0  501    0  0.00000000000E+00 -0.00000000000E+00 -0.41882256061E+02  0.41882256139E+02  0.25500000000E-02 0.  1.
    5000001    1    1    2    0    0 -0.68343581889E+02  0.74447865463E+02  0.66309335233E+03  0.69074678701E+03  0.16500000000E+03 0.  0.
   -5000001    1    1    2    0    0  0.68343581889E+02 -0.74447865463E+02  0.30555354084E+03  0.36166461837E+03  0.16500000000E+03 0.  0.
<mgrwt>
<rscale>  0 0.41145226E+03</rscale>
<asrwt>0</asrwt>
<pdfrwt beam="1">  1        2 0.64434245E-02 0.41145226E+03</pdfrwt>
<pdfrwt beam="2">  1       -2 0.15546601E+00 0.41145226E+03</pdfrwt>
<totfact> 0.32585717E+02</totfact>
</mgrwt>
</event>
<event>
 4    1  0.9064384E-005  0.4240629E+03  0.7818608E-02  0.1035752E+00
          2   -1    0    0  501    0  0.00000000000E+00  0.00000000000E+00  0.58983228531E+03  0.58983228532E+03  0.25500000000E-02 0.  1.
         -2   -1    0    0    0  501 -0.00000000000E+00 -0.00000000000E+00 -0.76220527988E+02  0.76220528031E+02  0.25500000000E-02 0. -1.
    5000001    1    1    2    0    0 -0.71651597291E+02  0.80827025945E+02  0.37912857000E+03  0.42735281923E+03  0.16500000000E+03 0.  0.
   -5000001    1    1    2    0    0  0.71651597291E+02 -0.80827025945E+02  0.13448318732E+03  0.23869999411E+03  0.16500000000E+03 0.  0.
<mgrwt>
<rscale>  0 0.42406286E+03</rscale>
<asrwt>0</asrwt>
<pdfrwt beam="1">  1        2 0.90743424E-01 0.42406286E+03</pdfrwt>
<pdfrwt beam="2">  1       -2 0.11726236E-01 0.42406286E+03</pdfrwt>
<totfact> 0.26578261E+03</totfact>
</mgrwt>
</event>
<event>
 4    1  0.9064384E-005  0.4756271E+03  0.7818608E-02  0.1020344E+00
         -2   -1    0    0    0  501 -0.00000000000E+00  0.00000000000E+00  0.14344366562E+03  0.14344366564E+03  0.25500000000E-02 0. -1.
          2   -1    0    0  501    0  0.00000000000E+00 -0.00000000000E+00 -0.39426824042E+03  0.39426824043E+03  0.25500000000E-02 0.  1.
    5000001    1    1    2    0    0 -0.13236199378E+03  0.14149006747E+02 -0.24722888741E+03  0.32567931245E+03  0.16500000000E+03 0.  0.
   -5000001    1    1    2    0    0  0.13236199378E+03 -0.14149006747E+02 -0.35956873848E+01  0.21203259362E+03  0.16500000000E+03 0.  0.
<mgrwt>
<rscale>  0 0.47562709E+03</rscale>
<asrwt>0</asrwt>
<pdfrwt beam="1">  1        2 0.60656652E-01 0.47562709E+03</pdfrwt>
<pdfrwt beam="2">  1       -2 0.22068256E-01 0.47562709E+03</pdfrwt>
<totfact> 0.14458723E+03</totfact>
</mgrwt>
</event>
<event>
 4    1  0.9064384E-005  0.7633296E+03  0.7818608E-02  0.9614667E-01
         -2   -1    0    0    0  501 -0.00000000000E+00  0.00000000000E+00  0.40816381993E+02  0.40816382072E+02  0.25500000000E-02 0. -1.
          2   -1    0    0  501    0  0.00000000000E+00 -0.00000000000E+00 -0.35688615739E+04  0.35688615739E+04  0.25500000000E-02 0.  1.
    5000001    1    1    2    0    0 -0.15897228764E+03  0.29882977011E+03 -0.14697827615E+04  0.15172533690E+04  0.16500000000E+03 0.  0.
   -5000001    1    1    2    0    0  0.15897228764E+03 -0.29882977011E+03 -0.20582624305E+04  0.20924245870E+04  0.16500000000E+03 0.  0.
<mgrwt>
<rscale>  0 0.76332959E+03</rscale>
<asrwt>0</asrwt>
<pdfrwt beam="1">  1        2 0.54905538E+00 0.76332959E+03</pdfrwt>
<pdfrwt beam="2">  1       -2 0.62794462E-02 0.76332959E+03</pdfrwt>
<totfact> 0.11318314E+02</totfact>
</mgrwt>
</event>
<event>
 4    1  0.9064384E-005  0.8880180E+03  0.7818608E-02  0.9440685E-01
         -2   -1    0    0    0  501 -0.00000000000E+00  0.00000000000E+00  0.28111644819E+03  0.28111644821E+03  0.25500000000E-02 0. -1.
          2   -1    0    0  501    0  0.00000000000E+00 -0.00000000000E+00 -0.70128947495E+03  0.70128947496E+03  0.25500000000E-02 0.  1.
    5000001    1    1    2    0    0  0.41093759617E+03 -0.32330785465E+02 -0.20786875980E+03  0.49025443286E+03  0.16500000000E+03 0.  0.
   -5000001    1    1    2    0    0 -0.41093759617E+03  0.32330785465E+02 -0.21230426695E+03  0.49215149030E+03  0.16500000000E+03 0.  0.
<mgrwt>
<rscale>  0 0.88801803E+03</rscale>
<asrwt>0</asrwt>
<pdfrwt beam="1">  1        2 0.10789069E+00 0.88801803E+03</pdfrwt>
<pdfrwt beam="2">  1       -2 0.43248684E-01 0.88801803E+03</pdfrwt>
<totfact> 0.20787652E+02</totfact>
</mgrwt>
</event>
<event>
 4    1  0.9064384E-005  0.4786302E+03  0.7818608E-02  0.1019512E+00
          2   -1    0    0  501    0  0.00000000000E+00  0.00000000000E+00  0.91214727230E+03  0.91214727231E+03  0.25500000000E-02 0.  1.
         -2   -1    0    0    0  501 -0.00000000000E+00 -0.00000000000E+00 -0.62787800439E+02  0.62787800490E+02  0.25500000000E-02 0. -1.
    5000001    1    1    2    0    0 -0.85824356373E+02  0.15031892867E+03  0.44347258305E+03  0.50383978841E+03  0.16500000000E+03 0.  0.
   -5000001    1    1    2    0    0  0.85824356373E+02 -0.15031892867E+03  0.40588688881E+03  0.47109528439E+03  0.16500000000E+03 0.  0.
<mgrwt>
<rscale>  0 0.47863022E+03</rscale>
<asrwt>0</asrwt>
<pdfrwt beam="1">  1        2 0.14033035E+00 0.47863022E+03</pdfrwt>
<pdfrwt beam="2">  1       -2 0.96596615E-02 0.47863022E+03</pdfrwt>
<totfact> 0.20963207E+03</totfact>
</mgrwt>
</event>
<event>
 4    1  0.9064384E-005  0.5426490E+03  0.7818608E-02  0.1003210E+00
         -2   -1    0    0    0  501 -0.00000000000E+00  0.00000000000E+00  0.11494720377E+03  0.11494720380E+03  0.25500000000E-02 0. -1.
          2   -1    0    0  501    0  0.00000000000E+00 -0.00000000000E+00 -0.64044164248E+03  0.64044164249E+03  0.25500000000E-02 0.  1.
    5000001    1    1    2    0    0 -0.72997926126E+01 -0.15687490229E+03 -0.57550224488E+02  0.23494690949E+03  0.16500000000E+03 0.  0.
   -5000001    1    1    2    0    0  0.72997926126E+01  0.15687490229E+03 -0.46794421422E+03  0.52044193679E+03  0.16500000000E+03 0.  0.
<mgrwt>
<rscale>  0 0.54264897E+03</rscale>
<asrwt>0</asrwt>
<pdfrwt beam="1">  1        2 0.98529482E-01 0.54264897E+03</pdfrwt>
<pdfrwt beam="2">  1       -2 0.17684186E-01 0.54264897E+03</pdfrwt>
<totfact> 0.12137968E+03</totfact>
</mgrwt>
</event>
<event>
 4    1  0.9064384E-005  0.3662274E+03  0.7818608E-02  0.1056145E+00
         -2   -1    0    0    0  501 -0.00000000000E+00  0.00000000000E+00  0.59857918342E+03  0.59857918343E+03  0.25500000000E-02 0. -1.
          2   -1    0    0  501    0  0.00000000000E+00 -0.00000000000E+00 -0.56017038712E+02  0.56017038770E+02  0.25500000000E-02 0.  1.
    5000001    1    1    2    0    0 -0.12920000684E+02 -0.54794927076E+02  0.37137922877E+03  0.41026447813E+03  0.16500000000E+03 0.  0.
   -5000001    1    1    2    0    0  0.12920000684E+02  0.54794927076E+02  0.17118291594E+03  0.24433174407E+03  0.16500000000E+03 0.  0.
<mgrwt>
<rscale>  0 0.36622743E+03</rscale>
<asrwt>0</asrwt>
<pdfrwt beam="1">  1        2 0.86180061E-02 0.36622743E+03</pdfrwt>
<pdfrwt beam="2">  1       -2 0.92089104E-01 0.36622743E+03</pdfrwt>
<totfact> 0.80697763E+02</totfact>
</mgrwt>
</event>
<event>
 4    1  0.9064384E-005  0.3409316E+03  0.7818608E-02  0.1066400E+00
          2   -1    0    0  501    0  0.00000000000E+00  0.00000000000E+00  0.38635818084E+03  0.38635818085E+03  0.25500000000E-02 0.  1.
         -2   -1    0    0    0  501 -0.00000000000E+00 -0.00000000000E+00 -0.75211521354E+02  0.75211521397E+02  0.25500000000E-02 0. -1.
    5000001    1    1    2    0    0  0.24738639968E+02  0.27027382992E+02  0.18557587137E+03  0.25100972845E+03  0.16500000000E+03 0.  0.
   -5000001    1    1    2    0    0 -0.24738639968E+02 -0.27027382992E+02  0.12557078811E+03  0.21055997380E+03  0.16500000000E+03 0.  0.
<mgrwt>
<rscale>  0 0.34093159E+03</rscale>
<asrwt>0</asrwt>
<pdfrwt beam="1">  1        2 0.59439720E-01 0.34093159E+03</pdfrwt>
<pdfrwt beam="2">  1       -2 0.11571003E-01 0.34093159E+03</pdfrwt>
<totfact> 0.43620177E+03</totfact>
</mgrwt>
</event>
<event>
 4    1  0.9064384E-005  0.4323210E+03  0.7818608E-02  0.1033129E+00
         -2   -1    0    0    0  501 -0.00000000000E+00  0.00000000000E+00  0.32511576610E+02  0.32511576710E+02  0.25500000000E-02 0. -1.
          2   -1    0    0  501    0  0.00000000000E+00 -0.00000000000E+00 -0.14371914752E+04  0.14371914752E+04  0.25500000000E-02 0.  1.
    5000001    1    1    2    0    0  0.19658680204E+02 -0.10730914641E+03 -0.99868066370E+03  0.10180814234E+04  0.16500000000E+03 0.  0.
   -5000001    1    1    2    0    0 -0.19658680204E+02  0.10730914641E+03 -0.40599923486E+03  0.45162162848E+03  0.16500000000E+03 0.  0.
<mgrwt>
<rscale>  0 0.43232100E+03</rscale>
<asrwt>0</asrwt>
<pdfrwt beam="1">  1        2 0.22110633E+00 0.43232100E+03</pdfrwt>
<pdfrwt beam="2">  1       -2 0.50017821E-02 0.43232100E+03</pdfrwt>
<totfact> 0.28859674E+03</totfact>
</mgrwt>
</event>
<event>
 4    1  0.9064384E-005  0.3934985E+03  0.7818608E-02  0.1046054E+00
          2   -1    0    0  501    0  0.00000000000E+00  0.00000000000E+00  0.34634270456E+02  0.34634270550E+02  0.25500000000E-02 0.  1.
         -2   -1    0    0    0  501 -0.00000000000E+00 -0.00000000000E+00 -0.11176867338E+04  0.11176867338E+04  0.25500000000E-02 0. -1.
    5000001    1    1    2    0    0 -0.42269231630E+02 -0.62324119947E+02 -0.31823153240E+03  0.36628853665E+03  0.16500000000E+03 0.  0.
   -5000001    1    1    2    0    0  0.42269231630E+02  0.62324119947E+02 -0.76482093098E+03  0.78603246773E+03  0.16500000000E+03 0.  0.
<mgrwt>
<rscale>  0 0.39349849E+03</rscale>
<asrwt>0</asrwt>
<pdfrwt beam="1">  1        2 0.53283502E-02 0.39349849E+03</pdfrwt>
<pdfrwt beam="2">  1       -2 0.17195178E+00 0.39349849E+03</pdfrwt>
<totfact> 0.31940323E+02</totfact>
</mgrwt>
</event>
<event>
 4    1  0.9064384E-005  0.7442239E+03  0.7818608E-02  0.9644456E-01
         -2   -1    0    0    0  501 -0.00000000000E+00  0.00000000000E+00  0.75878823998E+02  0.75878824041E+02  0.25500000000E-02 0. -1.
          2   -1    0    0  501    0  0.00000000000E+00 -0.00000000000E+00 -0.18248476328E+04  0.18248476328E+04  0.25500000000E-02 0.  1.
    5000001    1    1    2    0    0  0.89720079021E+02  0.19318709747E+03 -0.21899709129E+03  0.34721128035E+03  0.16500000000E+03 0.  0.
   -5000001    1    1    2    0    0 -0.89720079021E+02 -0.19318709747E+03 -0.15299717175E+04  0.15535151765E+04  0.16500000000E+03 0.  0.
<mgrwt>
<rscale>  0 0.74422387E+03</rscale>
<asrwt>0</asrwt>
<pdfrwt beam="1">  1        2 0.28074576E+00 0.74422387E+03</pdfrwt>
<pdfrwt beam="2">  1       -2 0.11673667E-01 0.74422387E+03</pdfrwt>
<totfact> 0.45399699E+02</totfact>
</mgrwt>
</event>
<event>
 4    1  0.9064384E-005  0.4444126E+03  0.7818608E-02  0.1029401E+00
          2   -1    0    0  501    0  0.00000000000E+00  0.00000000000E+00  0.98370783800E+03  0.98370783800E+03  0.25500000000E-02 0.  1.
         -2   -1    0    0    0  501 -0.00000000000E+00 -0.00000000000E+00 -0.50193408955E+02  0.50193409020E+02  0.25500000000E-02 0. -1.
    5000001    1    1    2    0    0  0.31481094849E+02 -0.10410393786E+03  0.70311708883E+03  0.73036109550E+03  0.16500000000E+03 0.  0.
   -5000001    1    1    2    0    0 -0.31481094849E+02  0.10410393786E+03  0.23039734021E+03  0.30354015153E+03  0.16500000000E+03 0.  0.
<mgrwt>
<rscale>  0 0.44441265E+03</rscale>
<asrwt>0</asrwt>
<pdfrwt beam="1">  1        2 0.15133965E+00 0.44441265E+03</pdfrwt>
<pdfrwt beam="2">  1       -2 0.77220638E-02 0.44441265E+03</pdfrwt>
<totfact> 0.26937605E+03</totfact>
</mgrwt>
</event>
<event>
 4    1  0.9064384E-005  0.3420804E+03  0.7818608E-02  0.1065913E+00
          2   -1    0    0  501    0  0.00000000000E+00  0.00000000000E+00  0.18094924303E+04  0.18094924303E+04  0.25500000000E-02 0.  1.
         -2   -1    0    0    0  501 -0.00000000000E+00 -0.00000000000E+00 -0.16167381399E+02  0.16167381600E+02  0.25500000000E-02 0. -1.
    5000001    1    1    2    0    0 -0.39620919769E+02 -0.21039054043E+02  0.91885759358E+03  0.93463187211E+03  0.16500000000E+03 0.  0.
   -5000001    1    1    2    0    0  0.39620919769E+02  0.21039054043E+02  0.87446745528E+03  0.89102793976E+03  0.16500000000E+03 0.  0.
<mgrwt>
<rscale>  0 0.34208043E+03</rscale>
<asrwt>0</asrwt>
<pdfrwt beam="1">  1        2 0.27838341E+00 0.34208043E+03</pdfrwt>
<pdfrwt beam="2">  1       -2 0.24872898E-02 0.34208043E+03</pdfrwt>
<totfact> 0.52419517E+03</totfact>
</mgrwt>
</event>
<event>
 4    1  0.9064384E-005  0.5366144E+03  0.7818608E-02  0.1004641E+00
         -2   -1    0    0    0  501 -0.00000000000E+00  0.00000000000E+00  0.36516699327E+02  0.36516699416E+02  0.25500000000E-02 0. -1.
          2   -1    0    0  501    0  0.00000000000E+00 -0.00000000000E+00 -0.19713926705E+04  0.19713926705E+04  0.25500000000E-02 0.  1.
    5000001    1    1    2    0    0  0.13233702175E+03  0.16418950415E+03 -0.10314298253E+04  0.10656189587E+04  0.16500000000E+03 0.  0.
   -5000001    1    1    2    0    0 -0.13233702175E+03 -0.16418950415E+03 -0.90344614589E+03  0.94229041125E+03  0.16500000000E+03 0.  0.
<mgrwt>
<rscale>  0 0.53661440E+03</rscale>
<asrwt>0</asrwt>
<pdfrwt beam="1">  1        2 0.30329110E+00 0.53661440E+03</pdfrwt>
<pdfrwt beam="2">  1       -2 0.56179553E-02 0.53661440E+03</pdfrwt>
<totfact> 0.12345643E+03</totfact>
</mgrwt>
</event>
<event>
 4    1  0.9064384E-005  0.5954531E+03  0.7818608E-02  0.9914885E-01
         -2   -1    0    0    0  501 -0.00000000000E+00  0.00000000000E+00  0.56076281749E+02  0.56076281807E+02  0.25500000000E-02 0. -1.
          2   -1    0    0  501    0  0.00000000000E+00 -0.00000000000E+00 -0.15807234687E+04  0.15807234687E+04  0.25500000000E-02 0.  1.
    5000001    1    1    2    0    0  0.94006613552E+01  0.22902254968E+03 -0.50334355948E+03  0.57716500203E+03  0.16500000000E+03 0.  0.
   -5000001    1    1    2    0    0 -0.94006613552E+01 -0.22902254968E+03 -0.10213036274E+04  0.10596347484E+04  0.16500000000E+03 0.  0.
<mgrwt>
<rscale>  0 0.59545309E+03</rscale>
<asrwt>0</asrwt>
<pdfrwt beam="1">  1        2 0.24318819E+00 0.59545309E+03</pdfrwt>
<pdfrwt beam="2">  1       -2 0.86271215E-02 0.59545309E+03</pdfrwt>
<totfact> 0.10174883E+03</totfact>
</mgrwt>
</event>
<event>
 4    1  0.9064384E-005  0.7904078E+03  0.7818608E-02  0.9574006E-01
         -2   -1    0    0    0  501 -0.00000000000E+00  0.00000000000E+00  0.79086922055E+02  0.79086922096E+02  0.25500000000E-02 0. -1.
          2   -1    0    0  501    0  0.00000000000E+00 -0.00000000000E+00 -0.19748666690E+04  0.19748666690E+04  0.25500000000E-02 0.  1.
    5000001    1    1    2    0    0  0.29884349040E+03  0.19190633795E+03 -0.10860232876E+04  0.11544726309E+04  0.16500000000E+03 0.  0.
   -5000001    1    1    2    0    0 -0.29884349040E+03 -0.19190633795E+03 -0.80975645935E+03  0.89948096020E+03  0.16500000000E+03 0.  0.
<mgrwt>
<rscale>  0 0.79040781E+03</rscale>
<asrwt>0</asrwt>
<pdfrwt beam="1">  1        2 0.30382560E+00 0.79040781E+03</pdfrwt>
<pdfrwt beam="2">  1       -2 0.12167220E-01 0.79040781E+03</pdfrwt>
<totfact> 0.35003111E+02</totfact>
</mgrwt>
</event>
<event>
 4    1  0.9064384E-005  0.4861159E+03  0.7818608E-02  0.1017468E+00
         -2   -1    0    0    0  501 -0.00000000000E+00  0.00000000000E+00  0.39514670786E+02  0.39514670868E+02  0.25500000000E-02 0. -1.
          2   -1    0    0  501    0  0.00000000000E+00 -0.00000000000E+00 -0.14950689432E+04  0.14950689432E+04  0.25500000000E-02 0.  1.
    5000001    1    1    2    0    0  0.42647311820E+01  0.95143665531E+02 -0.25129856397E+03  0.31535134893E+03  0.16500000000E+03 0.  0.
   -5000001    1    1    2    0    0 -0.42647311820E+01 -0.95143665531E+02 -0.12042557085E+04  0.12192322651E+04  0.16500000000E+03 0.  0.
<mgrwt>
<rscale>  0 0.48611586E+03</rscale>
<asrwt>0</asrwt>
<pdfrwt beam="1">  1        2 0.23001056E+00 0.48611586E+03</pdfrwt>
<pdfrwt beam="2">  1       -2 0.60791813E-02 0.48611586E+03</pdfrwt>
<totfact> 0.19801044E+03</totfact>
</mgrwt>
</event>
<event>
 4    1  0.9064384E-005  0.4703689E+03  0.7818608E-02  0.1021816E+00
          2   -1    0    0  501    0  0.00000000000E+00  0.00000000000E+00  0.38392578888E+03  0.38392578889E+03  0.25500000000E-02 0.  1.
         -2   -1    0    0    0  501 -0.00000000000E+00 -0.00000000000E+00 -0.14406879127E+03  0.14406879130E+03  0.25500000000E-02 0. -1.
    5000001    1    1    2    0    0  0.12127613824E+03 -0.11438099003E+03  0.13923477835E+03  0.27276773286E+03  0.16500000000E+03 0.  0.
   -5000001    1    1    2    0    0 -0.12127613824E+03  0.11438099003E+03  0.10062221926E+03  0.25522684732E+03  0.16500000000E+03 0.  0.
<mgrwt>
<rscale>  0 0.47036890E+03</rscale>
<asrwt>0</asrwt>
<pdfrwt beam="1">  1        2 0.59065505E-01 0.47036890E+03</pdfrwt>
<pdfrwt beam="2">  1       -2 0.22164430E-01 0.47036890E+03</pdfrwt>
<totfact> 0.14776516E+03</totfact>
</mgrwt>
</event>
<event>
 4    1  0.9064384E-005  0.5529372E+03  0.7818608E-02  0.1000816E+00
          2   -1    0    0  501    0  0.00000000000E+00  0.00000000000E+00  0.15264833984E+04  0.15264833984E+04  0.25500000000E-02 0.  1.
         -2   -1    0    0    0  501 -0.00000000000E+00 -0.00000000000E+00 -0.50072535414E+02  0.50072535479E+02  0.25500000000E-02 0. -1.
    5000001    1    1    2    0    0 -0.16591952496E+03  0.36092600754E+02  0.33118746390E+03  0.40711435842E+03  0.16500000000E+03 0.  0.
   -5000001    1    1    2    0    0  0.16591952496E+03 -0.36092600754E+02  0.11452233991E+04  0.11694415754E+04  0.16500000000E+03 0.  0.
<mgrwt>
<rscale>  0 0.55293723E+03</rscale>
<asrwt>0</asrwt>
<pdfrwt beam="1">  1        2 0.23484363E+00 0.55293723E+03</pdfrwt>
<pdfrwt beam="2">  1       -2 0.77034661E-02 0.55293723E+03</pdfrwt>
<totfact> 0.13078508E+03</totfact>
</mgrwt>
</event>
<event>
 4    1  0.9064384E-005  0.3910566E+03  0.7818608E-02  0.1046921E+00
         -2   -1    0    0    0  501 -0.00000000000E+00  0.00000000000E+00  0.34328780897E+02  0.34328780992E+02  0.25500000000E-02 0. -1.
          2   -1    0    0  501    0  0.00000000000E+00 -0.00000000000E+00 -0.11136811898E+04  0.11136811898E+04  0.25500000000E-02 0.  1.
    5000001    1    1    2    0    0 -0.21888157965E+02  0.80195701021E+02 -0.72755571279E+03  0.75064822463E+03  0.16500000000E+03 0.  0.
   -5000001    1    1    2    0    0  0.21888157965E+02 -0.80195701021E+02 -0.35179669610E+03  0.39736174616E+03  0.16500000000E+03 0.  0.
<mgrwt>
<rscale>  0 0.39105661E+03</rscale>
<asrwt>0</asrwt>
<pdfrwt beam="1">  1        2 0.17133554E+00 0.39105661E+03</pdfrwt>
<pdfrwt beam="2">  1       -2 0.52813518E-02 0.39105661E+03</pdfrwt>
<totfact> 0.40538069E+03</totfact>
</mgrwt>
</event>
<event>
 4    1  0.9064384E-005  0.6861662E+03  0.7818608E-02  0.9741187E-01
         -2   -1    0    0    0  501 -0.00000000000E+00  0.00000000000E+00  0.80954757648E+02  0.80954757688E+02  0.25500000000E-02 0.  1.
          2   -1    0    0  501    0  0.00000000000E+00 -0.00000000000E+00 -0.14539728349E+04  0.14539728349E+04  0.25500000000E-02 0. -1.
    5000001    1    1    2    0    0  0.67649045971E+02  0.28291239259E+03 -0.51519218316E+03  0.61421804019E+03  0.16500000000E+03 0.  0.
   -5000001    1    1    2    0    0 -0.67649045971E+02 -0.28291239259E+03 -0.85782589405E+03  0.92070955236E+03  0.16500000000E+03 0.  0.
<mgrwt>
<rscale>  0 0.68616621E+03</rscale>
<asrwt>0</asrwt>
<pdfrwt beam="1">  1        2 0.22368811E+00 0.68616621E+03</pdfrwt>
<pdfrwt beam="2">  1       -2 0.12454579E-01 0.68616621E+03</pdfrwt>
<totfact> 0.65445012E+02</totfact>
</mgrwt>
</event>
<event>
 4    1  0.9064384E-005  0.5255423E+03  0.7818608E-02  0.1007319E+00
          2   -1    0    0  501    0  0.00000000000E+00  0.00000000000E+00  0.81724872928E+03  0.81724872929E+03  0.25500000000E-02 0.  1.
         -2   -1    0    0    0  501 -0.00000000000E+00 -0.00000000000E+00 -0.84489198494E+02  0.84489198532E+02  0.25500000000E-02 0. -1.
    5000001    1    1    2    0    0 -0.15652560205E+03 -0.22789747393E+02  0.58880274076E+03  0.63161167200E+03  0.16500000000E+03 0.  0.
   -5000001    1    1    2    0    0  0.15652560205E+03  0.22789747393E+02  0.14395679003E+03  0.27012625581E+03  0.16500000000E+03 0.  0.
<mgrwt>
<rscale>  0 0.52554235E+03</rscale>
<asrwt>0</asrwt>
<pdfrwt beam="1">  1        2 0.12573058E+00 0.52554235E+03</pdfrwt>
<pdfrwt beam="2">  1       -2 0.12998338E-01 0.52554235E+03</pdfrwt>
<totfact> 0.14976430E+03</totfact>
</mgrwt>
</event>
<event>
 4    1  0.9064384E-005  0.3624899E+03  0.7818608E-02  0.1057602E+00
          2   -1    0    0  501    0  0.00000000000E+00  0.00000000000E+00  0.10056768971E+03  0.10056768974E+03  0.25500000000E-02 0.  1.
         -2   -1    0    0    0  501 -0.00000000000E+00 -0.00000000000E+00 -0.32664298728E+03  0.32664298729E+03  0.25500000000E-02 0. -1.
    5000001    1    1    2    0    0  0.44754773909E+02 -0.48989929237E+02 -0.15423159497E+03  0.23540473198E+03  0.16500000000E+03 0.  0.
   -5000001    1    1    2    0    0 -0.44754773909E+02  0.48989929237E+02 -0.71843702604E+02  0.19180594505E+03  0.16500000000E+03 0.  0.
<mgrwt>
<rscale>  0 0.36248989E+03</rscale>
<asrwt>0</asrwt>
<pdfrwt beam="1">  1        2 0.15471952E-01 0.36248989E+03</pdfrwt>
<pdfrwt beam="2">  1       -2 0.50252767E-01 0.36248989E+03</pdfrwt>
<totfact> 0.14363091E+03</totfact>
</mgrwt>
</event>
<event>
 4    1  0.9064384E-005  0.3894299E+03  0.7818608E-02  0.1047502E+00
         -2   -1    0    0    0  501 -0.00000000000E+00  0.00000000000E+00  0.26703429396E+02  0.26703429518E+02  0.25500000000E-02 0. -1.
          2   -1    0    0  501    0  0.00000000000E+00 -0.00000000000E+00 -0.14198143875E+04  0.14198143875E+04  0.25500000000E-02 0.  1.
    5000001    1    1    2    0    0 -0.82161102506E+02  0.45399368964E+02 -0.53561373123E+03  0.56825928814E+03  0.16500000000E+03 0.  0.
   -5000001    1    1    2    0    0  0.82161102506E+02 -0.45399368964E+02 -0.85749722688E+03  0.87825852890E+03  0.16500000000E+03 0.  0.
<mgrwt>
<rscale>  0 0.38942991E+03</rscale>
<asrwt>0</asrwt>
<pdfrwt beam="1">  1        2 0.21843292E+00 0.38942991E+03</pdfrwt>
<pdfrwt beam="2">  1       -2 0.41082210E-02 0.38942991E+03</pdfrwt>
<totfact> 0.39883302E+03</totfact>
</mgrwt>
</event>
<event>
 4    1  0.9064384E-005  0.4361812E+03  0.7818608E-02  0.1031925E+00
         -2   -1    0    0    0  501 -0.00000000000E+00  0.00000000000E+00  0.20189888087E+02  0.20189888248E+02  0.25500000000E-02 0. -1.
          2   -1    0    0  501    0  0.00000000000E+00 -0.00000000000E+00 -0.23558079650E+04  0.23558079650E+04  0.25500000000E-02 0.  1.
    5000001    1    1    2    0    0 -0.13872597080E+03  0.26904632178E+02 -0.10630647398E+04  0.10850347438E+04  0.16500000000E+03 0.  0.
   -5000001    1    1    2    0    0  0.13872597080E+03 -0.26904632178E+02 -0.12725533371E+04  0.12909631095E+04  0.16500000000E+03 0.  0.
<mgrwt>
<rscale>  0 0.43618115E+03</rscale>
<asrwt>0</asrwt>
<pdfrwt beam="1">  1        2 0.36243178E+00 0.43618115E+03</pdfrwt>
<pdfrwt beam="2">  1       -2 0.31061385E-02 0.43618115E+03</pdfrwt>
<totfact> 0.19059275E+03</totfact>
</mgrwt>
</event>
<event>
 4    1  0.9064384E-005  0.3697024E+03  0.7818608E-02  0.1054807E+00
         -2   -1    0    0    0  501 -0.00000000000E+00  0.00000000000E+00  0.47266739186E+02  0.47266739254E+02  0.25500000000E-02 0. -1.
          2   -1    0    0  501    0  0.00000000000E+00 -0.00000000000E+00 -0.72291771190E+03  0.72291771190E+03  0.25500000000E-02 0.  1.
    5000001    1    1    2    0    0  0.73201097089E+02 -0.39151715141E+02 -0.32255854264E+03  0.37169916712E+03  0.16500000000E+03 0.  0.
   -5000001    1    1    2    0    0 -0.73201097089E+02  0.39151715141E+02 -0.35309243008E+03  0.39848528404E+03  0.16500000000E+03 0.  0.
<mgrwt>
<rscale>  0 0.36970238E+03</rscale>
<asrwt>0</asrwt>
<pdfrwt beam="1">  1        2 0.11121810E+00 0.36970238E+03</pdfrwt>
<pdfrwt beam="2">  1       -2 0.72718066E-02 0.36970238E+03</pdfrwt>
<totfact> 0.44481387E+03</totfact>
</mgrwt>
</event>
<event>
 4    1  0.9064384E-005  0.8020247E+03  0.7818608E-02  0.9557091E-01
         -2   -1    0    0    0  501 -0.00000000000E+00  0.00000000000E+00  0.79839643722E+02  0.79839643763E+02  0.25500000000E-02 0. -1.
          2   -1    0    0  501    0  0.00000000000E+00 -0.00000000000E+00 -0.20141737286E+04  0.20141737286E+04  0.25500000000E-02 0.  1.
    5000001    1    1    2    0    0 -0.82502396140E+02  0.27206092759E+03 -0.36744113270E+03  0.49301296098E+03  0.16500000000E+03 0.  0.
   -5000001    1    1    2    0    0  0.82502396140E+02 -0.27206092759E+03 -0.15668929521E+04  0.16010004113E+04  0.16500000000E+03 0.  0.
<mgrwt>
<rscale>  0 0.80202472E+03</rscale>
<asrwt>0</asrwt>
<pdfrwt beam="1">  1        2 0.30987284E+00 0.80202472E+03</pdfrwt>
<pdfrwt beam="2">  1       -2 0.12283024E-01 0.80202472E+03</pdfrwt>
<totfact> 0.32766091E+02</totfact>
</mgrwt>
</event>
<event>
 4    1  0.9064384E-005  0.5981361E+03  0.7818608E-02  0.9909281E-01
         -2   -1    0    0    0  501 -0.00000000000E+00  0.00000000000E+00  0.21488104651E+03  0.21488104652E+03  0.25500000000E-02 0. -1.
          2   -1    0    0  501    0  0.00000000000E+00 -0.00000000000E+00 -0.41623821956E+03  0.41623821957E+03  0.25500000000E-02 0.  1.
    5000001    1    1    2    0    0 -0.13239168642E+03 -0.89122542351E+02  0.10158528894E+03  0.25102780148E+03  0.16500000000E+03 0.  0.
   -5000001    1    1    2    0    0  0.13239168642E+03  0.89122542351E+02 -0.30294246200E+03  0.38009146461E+03  0.16500000000E+03 0.  0.
<mgrwt>
<rscale>  0 0.59813612E+03</rscale>
<asrwt>0</asrwt>
<pdfrwt beam="1">  1        2 0.64036649E-01 0.59813612E+03</pdfrwt>
<pdfrwt beam="2">  1       -2 0.33058623E-01 0.59813612E+03</pdfrwt>
<totfact> 0.65320919E+02</totfact>
</mgrwt>
</event>
<event>
 4    1  0.9064384E-005  0.4711550E+03  0.7818608E-02  0.1021595E+00
          2   -1    0    0  501    0  0.00000000000E+00  0.00000000000E+00  0.12324431045E+04  0.12324431045E+04  0.25500000000E-02 0.  1.
         -2   -1    0    0    0  501 -0.00000000000E+00 -0.00000000000E+00 -0.45029880879E+02  0.45029880951E+02  0.25500000000E-02 0. -1.
    5000001    1    1    2    0    0 -0.91204276352E+02  0.13182531028E+03  0.45610296418E+03  0.51083367781E+03  0.16500000000E+03 0.  0.
   -5000001    1    1    2    0    0  0.91204276352E+02 -0.13182531028E+03  0.73131025947E+03  0.76663930767E+03  0.16500000000E+03 0.  0.
<mgrwt>
<rscale>  0 0.47115503E+03</rscale>
<asrwt>0</asrwt>
<pdfrwt beam="1">  1        2 0.18960663E+00 0.47115503E+03</pdfrwt>
<pdfrwt beam="2">  1       -2 0.69276742E-02 0.47115503E+03</pdfrwt>
<totfact> 0.22658408E+03</totfact>
</mgrwt>
</event>
<event>
 4    1  0.9064384E-005  0.1064295E+04  0.7818608E-02  0.9240708E-01
          2   -1    0    0  501    0  0.00000000000E+00  0.00000000000E+00  0.19179951314E+04  0.19179951314E+04  0.25500000000E-02 0.  1.
         -2   -1    0    0    0  501 -0.00000000000E+00 -0.00000000000E+00 -0.14764427398E+03  0.14764427400E+03  0.25500000000E-02 0. -1.
    5000001    1    1    2    0    0 -0.34689914595E+03 -0.41250944793E+02  0.17493134445E+03  0.42410686528E+03  0.16500000000E+03 0.  0.
   -5000001    1    1    2    0    0  0.34689914595E+03  0.41250944793E+02  0.15954195129E+04  0.16415325401E+04  0.16500000000E+03 0.  0.
<mgrwt>
<rscale>  0 0.10642951E+04</rscale>
<asrwt>0</asrwt>
<pdfrwt beam="1">  1        2 0.29507616E+00 0.10642951E+04</pdfrwt>
<pdfrwt beam="2">  1       -2 0.22714505E-01 0.10642951E+04</pdfrwt>
<totfact> 0.12612818E+02</totfact>
</mgrwt>
</event>
<event>
 4    1  0.9064384E-005  0.1001838E+04  0.7818608E-02  0.9306531E-01
          2   -1    0    0  501    0  0.00000000000E+00  0.00000000000E+00  0.66681560961E+03  0.66681560961E+03  0.25500000000E-02 0.  1.
         -2   -1    0    0    0  501 -0.00000000000E+00 -0.00000000000E+00 -0.37629550740E+03  0.37629550741E+03  0.25500000000E-02 0. -1.
    5000001    1    1    2    0    0  0.24153010535E+03  0.32910632624E+03 -0.10342484369E+03  0.45229355960E+03  0.16500000000E+03 0.  0.
   -5000001    1    1    2    0    0 -0.24153010535E+03 -0.32910632624E+03  0.39394494590E+03  0.59081755742E+03  0.16500000000E+03 0.  0.
<mgrwt>
<rscale>  0 0.10018377E+04</rscale>
<asrwt>0</asrwt>
<pdfrwt beam="1">  1        2 0.10258702E+00 0.10018377E+04</pdfrwt>
<pdfrwt beam="2">  1       -2 0.57891617E-01 0.10018377E+04</pdfrwt>
<totfact> 0.12150131E+02</totfact>
</mgrwt>
</event>
<event>
 4    1  0.9064384E-005  0.5807573E+03  0.7818608E-02  0.9946153E-01
         -2   -1    0    0    0  501 -0.00000000000E+00  0.00000000000E+00  0.70813033677E+02  0.70813033723E+02  0.25500000000E-02 0. -1.
          2   -1    0    0  501    0  0.00000000000E+00 -0.00000000000E+00 -0.11907377711E+04  0.11907377711E+04  0.25500000000E-02 0.  1.
    5000001    1    1    2    0    0 -0.13068096205E+02 -0.11589389809E+03 -0.10129826917E+04  0.10329380932E+04  0.16500000000E+03 0.  0.
   -5000001    1    1    2    0    0  0.13068096205E+02  0.11589389809E+03 -0.10694204569E+03  0.22861271157E+03  0.16500000000E+03 0.  0.
<mgrwt>
<rscale>  0 0.58075728E+03</rscale>
<asrwt>0</asrwt>
<pdfrwt beam="1">  1        2 0.18319041E+00 0.58075728E+03</pdfrwt>
<pdfrwt beam="2">  1       -2 0.10894314E-01 0.58075728E+03</pdfrwt>
<totfact> 0.11582532E+03</totfact>
</mgrwt>
</event>
<event>
 4    1  0.9064384E-005  0.4834569E+03  0.7818608E-02  0.1018189E+00
          2   -1    0    0  501    0  0.00000000000E+00  0.00000000000E+00  0.10910164489E+04  0.10910164489E+04  0.25500000000E-02 0.  1.
         -2   -1    0    0    0  501 -0.00000000000E+00 -0.00000000000E+00 -0.53557991248E+02  0.53557991308E+02  0.25500000000E-02 0. -1.
    5000001    1    1    2    0    0 -0.99319584963E+02  0.14599872917E+03  0.53117608959E+03  0.58356923071E+03  0.16500000000E+03 0.  0.
   -5000001    1    1    2    0    0  0.99319584963E+02 -0.14599872917E+03  0.50628236802E+03  0.56100520946E+03  0.16500000000E+03 0.  0.
<mgrwt>
<rscale>  0 0.48345692E+03</rscale>
<asrwt>0</asrwt>
<pdfrwt beam="1">  1        2 0.16784871E+00 0.48345692E+03</pdfrwt>
<pdfrwt beam="2">  1       -2 0.82396900E-02 0.48345692E+03</pdfrwt>
<totfact> 0.20868019E+03</totfact>
</mgrwt>
</event>
<event>
 4    1  0.9064384E-005  0.1022808E+04  0.7818608E-02  0.9283877E-01
          2   -1    0    0  501    0  0.00000000000E+00  0.00000000000E+00  0.64054912190E+03  0.64054912191E+03  0.25500000000E-02 0.  1.
         -2   -1    0    0    0  501 -0.00000000000E+00 -0.00000000000E+00 -0.40829649472E+03  0.40829649473E+03  0.25500000000E-02 0. -1.
    5000001    1    1    2    0    0 -0.33555515796E+03  0.34579624129E+03  0.16352702896E+03  0.53491905343E+03  0.16500000000E+03 0.  0.
   -5000001    1    1    2    0    0  0.33555515796E+03 -0.34579624129E+03  0.68725598226E+02  0.51392656321E+03  0.16500000000E+03 0.  0.
<mgrwt>
<rscale>  0 0.10228078E+04</rscale>
<asrwt>0</asrwt>
<pdfrwt beam="1">  1        2 0.98546019E-01 0.10228078E+04</pdfrwt>
<pdfrwt beam="2">  1       -2 0.62814845E-01 0.10228078E+04</pdfrwt>
<totfact> 0.10732542E+02</totfact>
</mgrwt>
</event>
<event>
 4    1  0.9064384E-005  0.6796762E+03  0.7818608E-02  0.9752634E-01
          2   -1    0    0  501    0  0.00000000000E+00  0.00000000000E+00  0.34690622542E+03  0.34690622543E+03  0.25500000000E-02 0.  1.
         -2   -1    0    0    0  501 -0.00000000000E+00 -0.00000000000E+00 -0.33291400999E+03  0.33291400999E+03  0.25500000000E-02 0. -1.
    5000001    1    1    2    0    0 -0.20788037056E+03 -0.19490197067E+03 -0.77068805925E+02  0.33817987445E+03  0.16500000000E+03 0.  0.
   -5000001    1    1    2    0    0  0.20788037056E+03  0.19490197067E+03  0.91061021364E+02  0.34164036098E+03  0.16500000000E+03 0.  0.
<mgrwt>
<rscale>  0 0.67967622E+03</rscale>
<asrwt>0</asrwt>
<pdfrwt beam="1">  1        2 0.53370189E-01 0.67967622E+03</pdfrwt>
<pdfrwt beam="2">  1       -2 0.51217540E-01 0.67967622E+03</pdfrwt>
<totfact> 0.33938985E+02</totfact>
</mgrwt>
</event>
<event>
 4    1  0.9064384E-005  0.3992073E+03  0.7818608E-02  0.1044055E+00
          2   -1    0    0  501    0  0.00000000000E+00  0.00000000000E+00  0.69647117516E+03  0.69647117516E+03  0.25500000000E-02 0.  1.
         -2   -1    0    0    0  501 -0.00000000000E+00 -0.00000000000E+00 -0.57204963651E+02  0.57204963708E+02  0.25500000000E-02 0. -1.
    5000001    1    1    2    0    0 -0.51200792855E+02  0.78838227103E+02  0.43570056256E+03  0.47528619532E+03  0.16500000000E+03 0.  0.
   -5000001    1    1    2    0    0  0.51200792855E+02 -0.78838227103E+02  0.20356564895E+03  0.27838994355E+03  0.16500000000E+03 0.  0.
<mgrwt>
<rscale>  0 0.39920726E+03</rscale>
<asrwt>0</asrwt>
<pdfrwt beam="1">  1        2 0.10714942E+00 0.39920726E+03</pdfrwt>
<pdfrwt beam="2">  1       -2 0.88007633E-02 0.39920726E+03</pdfrwt>
<totfact> 0.34512755E+03</totfact>
</mgrwt>
</event>
<event>
 4    1  0.9064384E-005  0.6075334E+03  0.7818608E-02  0.9889899E-01
         -2   -1    0    0    0  501 -0.00000000000E+00  0.00000000000E+00  0.11412146952E+03  0.11412146955E+03  0.25500000000E-02 0. -1.
          2   -1    0    0  501    0  0.00000000000E+00 -0.00000000000E+00 -0.80856131443E+03  0.80856131443E+03  0.25500000000E-02 0.  1.
    5000001    1    1    2    0    0  0.18130545624E+02  0.25410999920E+03 -0.32870647345E+03  0.44740759277E+03  0.16500000000E+03 0.  0.
   -5000001    1    1    2    0    0 -0.18130545624E+02 -0.25410999920E+03 -0.36573337145E+03  0.47527519120E+03  0.16500000000E+03 0.  0.
<mgrwt>
<rscale>  0 0.60753339E+03</rscale>
<asrwt>0</asrwt>
<pdfrwt beam="1">  1        2 0.12439405E+00 0.60753339E+03</pdfrwt>
<pdfrwt beam="2">  1       -2 0.17557150E-01 0.60753339E+03</pdfrwt>
<totfact> 0.91422827E+02</totfact>
</mgrwt>
</event>
<event>
 4    1  0.9064384E-005  0.7065633E+03  0.7818608E-02  0.9706074E-01
         -2   -1    0    0    0  501 -0.00000000000E+00  0.00000000000E+00  0.20718939347E+03  0.20718939349E+03  0.25500000000E-02 0. -1.
          2   -1    0    0  501    0  0.00000000000E+00 -0.00000000000E+00 -0.60238560442E+03  0.60238560443E+03  0.25500000000E-02 0.  1.
    5000001    1    1    2    0    0  0.22121324032E+03 -0.14102112289E+03 -0.39191269644E+03  0.49964268876E+03  0.16500000000E+03 0.  0.
   -5000001    1    1    2    0    0 -0.22121324032E+03  0.14102112289E+03 -0.32835145027E+01  0.30993230916E+03  0.16500000000E+03 0.  0.
<mgrwt>
<rscale>  0 0.70656325E+03</rscale>
<asrwt>0</asrwt>
<pdfrwt beam="1">  1        2 0.92674708E-01 0.70656325E+03</pdfrwt>
<pdfrwt beam="2">  1       -2 0.31875291E-01 0.70656325E+03</pdfrwt>
<totfact> 0.45455306E+02</totfact>
</mgrwt>
</event>
<event>
 4    1  0.9064384E-005  0.5937649E+03  0.7818608E-02  0.9918427E-01
          2   -1    0    0  501    0  0.00000000000E+00  0.00000000000E+00  0.27669877713E+04  0.27669877713E+04  0.25500000000E-02 0.  1.
         -2   -1    0    0    0  501 -0.00000000000E+00 -0.00000000000E+00 -0.31853844703E+02  0.31853844805E+02  0.25500000000E-02 0. -1.
    5000001    1    1    2    0    0 -0.42763460851E+02 -0.20013269332E+03  0.71727191611E+03  0.76392788282E+03  0.16500000000E+03 0.  0.
   -5000001    1    1    2    0    0  0.42763460851E+02  0.20013269332E+03  0.20178620105E+04  0.20349137333E+04  0.16500000000E+03 0.  0.
<mgrwt>
<rscale>  0 0.59376493E+03</rscale>
<asrwt>0</asrwt>
<pdfrwt beam="1">  1        2 0.42569062E+00 0.59376493E+03</pdfrwt>
<pdfrwt beam="2">  1       -2 0.49005893E-02 0.59376493E+03</pdfrwt>
<totfact> 0.54805164E+02</totfact>
</mgrwt>
</event>
<event>
 4    1  0.9064384E-005  0.5872794E+03  0.7818608E-02  0.9932154E-01
          2   -1    0    0  501    0  0.00000000000E+00  0.00000000000E+00  0.15816136134E+04  0.15816136134E+04  0.25500000000E-02 0.  1.
         -2   -1    0    0    0  501 -0.00000000000E+00 -0.00000000000E+00 -0.54516653820E+02  0.54516653879E+02  0.25500000000E-02 0. -1.
    5000001    1    1    2    0    0 -0.55252358556E+02 -0.18817220527E+03  0.36429493498E+03  0.44541823224E+03  0.16500000000E+03 0.  0.
   -5000001    1    1    2    0    0  0.55252358556E+02  0.18817220527E+03  0.11628020246E+04  0.11907120350E+04  0.16500000000E+03 0.  0.
<mgrwt>
<rscale>  0 0.58727943E+03</rscale>
<asrwt>0</asrwt>
<pdfrwt beam="1">  1        2 0.24332516E+00 0.58727943E+03</pdfrwt>
<pdfrwt beam="2">  1       -2 0.83871780E-02 0.58727943E+03</pdfrwt>
<totfact> 0.10637132E+03</totfact>
</mgrwt>
</event>
<event>
 4    1  0.9064384E-005  0.4317200E+03  0.7818608E-02  0.1033318E+00
          2   -1    0    0  501    0  0.00000000000E+00  0.00000000000E+00  0.45960033007E+03  0.45960033008E+03  0.25500000000E-02 0.  1.
         -2   -1    0    0    0  501 -0.00000000000E+00 -0.00000000000E+00 -0.10138272240E+03  0.10138272243E+03  0.25500000000E-02 0. -1.
    5000001    1    1    2    0    0  0.11195705963E+03 -0.13039268736E+01  0.71685286836E+02  0.21189587956E+03  0.16500000000E+03 0.  0.
   -5000001    1    1    2    0    0 -0.11195705963E+03  0.13039268736E+01  0.28653232084E+03  0.34908717294E+03  0.16500000000E+03 0.  0.
<mgrwt>
<rscale>  0 0.43171997E+03</rscale>
<asrwt>0</asrwt>
<pdfrwt beam="1">  1        2 0.70707742E-01 0.43171997E+03</pdfrwt>
<pdfrwt beam="2">  1       -2 0.15597342E-01 0.43171997E+03</pdfrwt>
<totfact> 0.22088849E+03</totfact>
</mgrwt>
</event>
<event>
 4    1  0.9064384E-005  0.4819540E+03  0.7818608E-02  0.1018600E+00
         -2   -1    0    0    0  501 -0.00000000000E+00  0.00000000000E+00  0.35058734608E+03  0.35058734609E+03  0.25500000000E-02 0. -1.
          2   -1    0    0  501    0  0.00000000000E+00 -0.00000000000E+00 -0.16563605869E+03  0.16563605871E+03  0.25500000000E-02 0.  1.
    5000001    1    1    2    0    0  0.16332153476E+03  0.64432254348E+02  0.87749759971E+02  0.25641852408E+03  0.16500000000E+03 0.  0.
   -5000001    1    1    2    0    0 -0.16332153476E+03 -0.64432254348E+02  0.97201527413E+02  0.25980488072E+03  0.16500000000E+03 0.  0.
<mgrwt>
<rscale>  0 0.48195397E+03</rscale>
<asrwt>0</asrwt>
<pdfrwt beam="1">  1        2 0.25482471E-01 0.48195397E+03</pdfrwt>
<pdfrwt beam="2">  1       -2 0.53936513E-01 0.48195397E+03</pdfrwt>
<totfact> 0.69788633E+02</totfact>
</mgrwt>
</event>
<event>
 4    1  0.9064384E-005  0.5531622E+03  0.7818608E-02  0.1000765E+00
         -2   -1    0    0    0  501 -0.00000000000E+00  0.00000000000E+00  0.35926372859E+03  0.35926372860E+03  0.25500000000E-02 0. -1.
          2   -1    0    0  501    0  0.00000000000E+00 -0.00000000000E+00 -0.21292742959E+03  0.21292742961E+03  0.25500000000E-02 0.  1.
    5000001    1    1    2    0    0  0.11817914144E+03  0.18276216586E+03  0.28034813165E+02  0.27455285373E+03  0.16500000000E+03 0.  0.
   -5000001    1    1    2    0    0 -0.11817914144E+03 -0.18276216586E+03  0.11830148583E+03  0.29763830448E+03  0.16500000000E+03 0.  0.
<mgrwt>
<rscale>  0 0.55316219E+03</rscale>
<asrwt>0</asrwt>
<pdfrwt beam="1">  1        2 0.32758066E-01 0.55316219E+03</pdfrwt>
<pdfrwt beam="2">  1       -2 0.55271343E-01 0.55316219E+03</pdfrwt>
<totfact> 0.50004117E+02</totfact>
</mgrwt>
</event>
<event>
 4    1  0.9064384E-005  0.4500452E+03  0.7818608E-02  0.1027709E+00
         -2   -1    0    0    0  501 -0.00000000000E+00  0.00000000000E+00  0.62003347480E+02  0.62003347533E+02  0.25500000000E-02 0. -1.
          2   -1    0    0  501    0  0.00000000000E+00 -0.00000000000E+00 -0.81665230628E+03  0.81665230629E+03  0.25500000000E-02 0.  1.
    5000001    1    1    2    0    0 -0.13538448000E+03 -0.51444678243E+02 -0.47365903530E+03  0.52206646518E+03  0.16500000000E+03 0.  0.
   -5000001    1    1    2    0    0  0.13538448000E+03  0.51444678243E+02 -0.28098992350E+03  0.35658918864E+03  0.16500000000E+03 0.  0.
<mgrwt>
<rscale>  0 0.45004523E+03</rscale>
<asrwt>0</asrwt>
<pdfrwt beam="1">  1        2 0.12563881E+00 0.45004523E+03</pdfrwt>
<pdfrwt beam="2">  1       -2 0.95389771E-02 0.45004523E+03</pdfrwt>
<totfact> 0.24818100E+03</totfact>
</mgrwt>
</event>
<event>
 4    1  0.9064384E-005  0.5568752E+03  0.7818608E-02  0.9999150E-01
          2   -1    0    0  501    0  0.00000000000E+00  0.00000000000E+00  0.81319122613E+03  0.81319122614E+03  0.25500000000E-02 0.  1.
         -2   -1    0    0    0  501 -0.00000000000E+00 -0.00000000000E+00 -0.95337359216E+02  0.95337359250E+02  0.25500000000E-02 0. -1.
    5000001    1    1    2    0    0  0.18658913783E+03  0.22349883620E+01  0.15592776152E+03  0.29386896458E+03  0.16500000000E+03 0.  0.
   -5000001    1    1    2    0    0 -0.18658913783E+03 -0.22349883620E+01  0.56192610539E+03  0.61465962081E+03  0.16500000000E+03 0.  0.
<mgrwt>
<rscale>  0 0.55687523E+03</rscale>
<asrwt>0</asrwt>
<pdfrwt beam="1">  1        2 0.12510634E+00 0.55687523E+03</pdfrwt>
<pdfrwt beam="2">  1       -2 0.14667287E-01 0.55687523E+03</pdfrwt>
<totfact> 0.12321363E+03</totfact>
</mgrwt>
</event>
<event>
 4    1  0.9064384E-005  0.4744439E+03  0.7818608E-02  0.1020673E+00
          2   -1    0    0  501    0  0.00000000000E+00  0.00000000000E+00  0.18979944205E+04  0.18979944205E+04  0.25500000000E-02 0.  1.
         -2   -1    0    0    0  501 -0.00000000000E+00 -0.00000000000E+00 -0.29649319247E+02  0.29649319357E+02  0.25500000000E-02 0. -1.
    5000001    1    1    2    0    0 -0.67943308790E+02  0.11140044050E+03  0.13796712155E+04  0.13956159982E+04  0.16500000000E+03 0.  0.
   -5000001    1    1    2    0    0  0.67943308790E+02 -0.11140044050E+03  0.48867388574E+03  0.53202774172E+03  0.16500000000E+03 0.  0.
<mgrwt>
<rscale>  0 0.47444385E+03</rscale>
<asrwt>0</asrwt>
<pdfrwt beam="1">  1        2 0.29199919E+00 0.47444385E+03</pdfrwt>
<pdfrwt beam="2">  1       -2 0.45614330E-02 0.47444385E+03</pdfrwt>
<totfact> 0.18724024E+03</totfact>
</mgrwt>
</event>
<event>
 4    1  0.9064384E-005  0.4930391E+03  0.7818608E-02  0.1015612E+00
         -2   -1    0    0    0  501 -0.00000000000E+00  0.00000000000E+00  0.15283687467E+03  0.15283687469E+03  0.25500000000E-02 0. -1.
          2   -1    0    0  501    0  0.00000000000E+00 -0.00000000000E+00 -0.39762584222E+03  0.39762584223E+03  0.25500000000E-02 0.  1.
    5000001    1    1    2    0    0  0.13992619631E+03  0.87220383745E+02 -0.33355458405E+02  0.23563599547E+03  0.16500000000E+03 0.  0.
   -5000001    1    1    2    0    0 -0.13992619631E+03 -0.87220383745E+02 -0.21143350914E+03  0.31482672145E+03  0.16500000000E+03 0.  0.
<mgrwt>
<rscale>  0 0.49303911E+03</rscale>
<asrwt>0</asrwt>
<pdfrwt beam="1">  1        2 0.61173206E-01 0.49303911E+03</pdfrwt>
<pdfrwt beam="2">  1       -2 0.23513366E-01 0.49303911E+03</pdfrwt>
<totfact> 0.12807896E+03</totfact>
</mgrwt>
</event>
<event>
 4    1  0.9064384E-005  0.9465236E+03  0.7818608E-02  0.9369223E-01
          2   -1    0    0  501    0  0.00000000000E+00  0.00000000000E+00  0.36175637312E+03  0.36175637313E+03  0.25500000000E-02 0. -1.
         -2   -1    0    0    0  501 -0.00000000000E+00 -0.00000000000E+00 -0.61913690484E+03  0.61913690484E+03  0.25500000000E-02 0.  1.
    5000001    1    1    2    0    0 -0.12461516636E+01  0.41717170601E+03 -0.28488800986E+03  0.53143199316E+03  0.16500000000E+03 0.  0.
   -5000001    1    1    2    0    0  0.12461516636E+01 -0.41717170601E+03  0.27507478143E+02  0.44946128481E+03  0.16500000000E+03 0.  0.
<mgrwt>
<rscale>  0 0.94652358E+03</rscale>
<asrwt>0</asrwt>
<pdfrwt beam="1">  1        2 0.55654827E-01 0.94652358E+03</pdfrwt>
<pdfrwt beam="2">  1       -2 0.95251831E-01 0.94652358E+03</pdfrwt>
<totfact> 0.82598312E+01</totfact>
</mgrwt>
</event>
<event>
 4    1  0.9064384E-005  0.5135878E+03  0.7818608E-02  0.1010292E+00
         -2   -1    0    0    0  501 -0.00000000000E+00  0.00000000000E+00  0.19340039109E+02  0.19340039277E+02  0.25500000000E-02 0. -1.
          2   -1    0    0  501    0  0.00000000000E+00 -0.00000000000E+00 -0.34096677868E+04  0.34096677868E+04  0.25500000000E-02 0.  1.
    5000001    1    1    2    0    0  0.17940546872E+03  0.73653835873E+02 -0.14730336019E+04  0.14948793269E+04  0.16500000000E+03 0.  0.
   -5000001    1    1    2    0    0 -0.17940546872E+03 -0.73653835873E+02 -0.19172941458E+04  0.19341284991E+04  0.16500000000E+03 0.  0.
<mgrwt>
<rscale>  0 0.51358781E+03</rscale>
<asrwt>0</asrwt>
<pdfrwt beam="1">  1        2 0.52456380E+00 0.51358781E+03</pdfrwt>
<pdfrwt beam="2">  1       -2 0.29753933E-02 0.51358781E+03</pdfrwt>
<totfact> 0.47565255E+02</totfact>
</mgrwt>
</event>
<event>
 4    1  0.9064384E-005  0.4937481E+03  0.7818608E-02  0.1015424E+00
         -2   -1    0    0    0  501 -0.00000000000E+00  0.00000000000E+00  0.55184236734E+02  0.55184236793E+02  0.25500000000E-02 0. -1.
          2   -1    0    0  501    0  0.00000000000E+00 -0.00000000000E+00 -0.11044241983E+04  0.11044241983E+04  0.25500000000E-02 0.  1.
    5000001    1    1    2    0    0  0.50580424445E+02 -0.17604032095E+03 -0.55553151753E+03  0.60777367572E+03  0.16500000000E+03 0.  0.
   -5000001    1    1    2    0    0 -0.50580424445E+02  0.17604032095E+03 -0.49370844403E+03  0.55183475936E+03  0.16500000000E+03 0.  0.
<mgrwt>
<rscale>  0 0.49374814E+03</rscale>
<asrwt>0</asrwt>
<pdfrwt beam="1">  1        2 0.16991140E+00 0.49374814E+03</pdfrwt>
<pdfrwt beam="2">  1       -2 0.84898834E-02 0.49374814E+03</pdfrwt>
<totfact> 0.19528409E+03</totfact>
</mgrwt>
</event>
<event>
 4    1  0.9064384E-005  0.4111840E+03  0.7818608E-02  0.1039974E+00
          2   -1    0    0  501    0  0.00000000000E+00  0.00000000000E+00  0.11384936544E+04  0.11384936544E+04  0.25500000000E-02 0.  1.
         -2   -1    0    0    0  501 -0.00000000000E+00 -0.00000000000E+00 -0.37126313125E+02  0.37126313213E+02  0.25500000000E-02 0. -1.
    5000001    1    1    2    0    0 -0.93402233076E+02  0.69472932148E+02  0.66114325510E+03  0.69129289683E+03  0.16500000000E+03 0.  0.
   -5000001    1    1    2    0    0  0.93402233076E+02 -0.69472932148E+02  0.44022408615E+03  0.48432707076E+03  0.16500000000E+03 0.  0.
<mgrwt>
<rscale>  0 0.41118401E+03</rscale>
<asrwt>0</asrwt>
<pdfrwt beam="1">  1        2 0.17515286E+00 0.41118401E+03</pdfrwt>
<pdfrwt beam="2">  1       -2 0.57117407E-02 0.41118401E+03</pdfrwt>
<totfact> 0.34736056E+03</totfact>
</mgrwt>
</event>
<event>
 4    1  0.9064384E-005  0.5835165E+03  0.7818608E-02  0.9940207E-01
          2   -1    0    0  501    0  0.00000000000E+00  0.00000000000E+00  0.20711344540E+04  0.20711344540E+04  0.25500000000E-02 0.  1.
         -2   -1    0    0    0  501 -0.00000000000E+00 -0.00000000000E+00 -0.41099636224E+02  0.41099636303E+02  0.25500000000E-02 0. -1.
    5000001    1    1    2    0    0  0.22335235105E+03  0.25390327197E+02  0.70432386744E+03  0.75751439041E+03  0.16500000000E+03 0.  0.
   -5000001    1    1    2    0    0 -0.22335235105E+03 -0.25390327197E+02  0.13257109503E+04  0.13547196999E+04  0.16500000000E+03 0.  0.
<mgrwt>
<rscale>  0 0.58351649E+03</rscale>
<asrwt>0</asrwt>
<pdfrwt beam="1">  1        2 0.31863601E+00 0.58351649E+03</pdfrwt>
<pdfrwt beam="2">  1       -2 0.63230222E-02 0.58351649E+03</pdfrwt>
<totfact> 0.90356041E+02</totfact>
</mgrwt>
</event>
<event>
 4    1  0.9064384E-005  0.8115172E+03  0.7818608E-02  0.9543494E-01
          2   -1    0    0  501    0  0.00000000000E+00  0.00000000000E+00  0.21898622052E+04  0.21898622052E+04  0.25500000000E-02 0.  1.
         -2   -1    0    0    0  501 -0.00000000000E+00 -0.00000000000E+00 -0.75182839281E+02  0.75182839324E+02  0.25500000000E-02 0. -1.
    5000001    1    1    2    0    0  0.34139588856E+03  0.17522960605E+02  0.65715783059E+03  0.75890685936E+03  0.16500000000E+03 0.  0.
   -5000001    1    1    2    0    0 -0.34139588856E+03 -0.17522960605E+02  0.14575215353E+04  0.15061381851E+04  0.16500000000E+03 0.  0.
<mgrwt>
<rscale>  0 0.81151724E+03</rscale>
<asrwt>0</asrwt>
<pdfrwt beam="1">  1        2 0.33690188E+00 0.81151724E+03</pdfrwt>
<pdfrwt beam="2">  1       -2 0.11566591E-01 0.81151724E+03</pdfrwt>
<totfact> 0.28958845E+02</totfact>
</mgrwt>
</event>
<event>
 4    1  0.9064384E-005  0.6022014E+03  0.7818608E-02  0.9900849E-01
          2   -1    0    0  501    0  0.00000000000E+00  0.00000000000E+00  0.29030538131E+04  0.29030538131E+04  0.25500000000E-02 0.  1.
         -2   -1    0    0    0  501 -0.00000000000E+00 -0.00000000000E+00 -0.31229742890E+02  0.31229742994E+02  0.25500000000E-02 0. -1.
    5000001    1    1    2    0    0 -0.20444416634E+03  0.13275179619E+03  0.11271198784E+04  0.11649226055E+04  0.16500000000E+03 0.  0.
   -5000001    1    1    2    0    0  0.20444416634E+03 -0.13275179619E+03  0.17447041918E+04  0.17693609506E+04  0.16500000000E+03 0.  0.
<mgrwt>
<rscale>  0 0.60220138E+03</rscale>
<asrwt>0</asrwt>
<pdfrwt beam="1">  1        2 0.44662371E+00 0.60220138E+03</pdfrwt>
<pdfrwt beam="2">  1       -2 0.48045753E-02 0.60220138E+03</pdfrwt>
<totfact> 0.46924024E+02</totfact>
</mgrwt>
</event>
<event>
 4    1  0.9064384E-005  0.5531848E+03  0.7818608E-02  0.1000759E+00
          2   -1    0    0  501    0  0.00000000000E+00  0.00000000000E+00  0.50457623111E+03  0.50457623112E+03  0.25500000000E-02 0.  1.
         -2   -1    0    0    0  501 -0.00000000000E+00 -0.00000000000E+00 -0.15161901480E+03  0.15161901482E+03  0.25500000000E-02 0. -1.
    5000001    1    1    2    0    0 -0.22133226829E+03  0.10031549882E+02  0.19281850306E+03  0.33688659828E+03  0.16500000000E+03 0.  0.
   -5000001    1    1    2    0    0  0.22133226829E+03 -0.10031549882E+02  0.16013871325E+03  0.31930864765E+03  0.16500000000E+03 0.  0.
<mgrwt>
<rscale>  0 0.55318478E+03</rscale>
<asrwt>0</asrwt>
<pdfrwt beam="1">  1        2 0.77627111E-01 0.55318478E+03</pdfrwt>
<pdfrwt beam="2">  1       -2 0.23326003E-01 0.55318478E+03</pdfrwt>
<totfact> 0.99249973E+02</totfact>
</mgrwt>
</event>
<event>
 4    1  0.9064384E-005  0.4603229E+03  0.7818608E-02  0.1024688E+00
         -2   -1    0    0    0  501 -0.00000000000E+00  0.00000000000E+00  0.56514093411E+02  0.56514093469E+02  0.25500000000E-02 0. -1.
          2   -1    0    0  501    0  0.00000000000E+00 -0.00000000000E+00 -0.93736447157E+03  0.93736447158E+03  0.25500000000E-02 0.  1.
    5000001    1    1    2    0    0 -0.12859193452E+03  0.90527408469E+02 -0.37153005754E+03  0.43587920455E+03  0.16500000000E+03 0.  0.
   -5000001    1    1    2    0    0  0.12859193452E+03 -0.90527408469E+02 -0.50932032063E+03  0.55799936050E+03  0.16500000000E+03 0.  0.
<mgrwt>
<rscale>  0 0.46032294E+03</rscale>
<asrwt>0</asrwt>
<pdfrwt beam="1">  1        2 0.14420991E+00 0.46032294E+03</pdfrwt>
<pdfrwt beam="2">  1       -2 0.86944766E-02 0.46032294E+03</pdfrwt>
<totfact> 0.23891297E+03</totfact>
</mgrwt>
</event>
<event>
 4    1  0.9064384E-005  0.4624679E+03  0.7818608E-02  0.1024068E+00
          2   -1    0    0  501    0  0.00000000000E+00  0.00000000000E+00  0.36583915652E+02  0.36583915741E+02  0.25500000000E-02 0.  1.
         -2   -1    0    0    0  501 -0.00000000000E+00 -0.00000000000E+00 -0.14615479154E+04  0.14615479154E+04  0.25500000000E-02 0. -1.
    5000001    1    1    2    0    0  0.30697967546E+02 -0.14280971642E+03 -0.93940774072E+03  0.96490874368E+03  0.16500000000E+03 0.  0.
   -5000001    1    1    2    0    0 -0.30697967546E+02  0.14280971642E+03 -0.48555625901E+03  0.53322308744E+03  0.16500000000E+03 0.  0.
<mgrwt>
<rscale>  0 0.46246793E+03</rscale>
<asrwt>0</asrwt>
<pdfrwt beam="1">  1        2 0.56282959E-02 0.46246793E+03</pdfrwt>
<pdfrwt beam="2">  1       -2 0.22485348E+00 0.46246793E+03</pdfrwt>
<totfact> 0.13477500E+02</totfact>
</mgrwt>
</event>
<event>
 4    1  0.9064384E-005  0.6754596E+03  0.7818608E-02  0.9760145E-01
         -2   -1    0    0    0  501 -0.00000000000E+00  0.00000000000E+00  0.10532162426E+03  0.10532162429E+03  0.25500000000E-02 0. -1.
          2   -1    0    0  501    0  0.00000000000E+00 -0.00000000000E+00 -0.10829819462E+04  0.10829819462E+04  0.25500000000E-02 0.  1.
    5000001    1    1    2    0    0  0.11075929395E+03  0.27085863131E+03 -0.54988401559E+03  0.64438299943E+03  0.16500000000E+03 0.  0.
   -5000001    1    1    2    0    0 -0.11075929395E+03 -0.27085863131E+03 -0.42777630632E+03  0.54392057104E+03  0.16500000000E+03 0.  0.
<mgrwt>
<rscale>  0 0.67545960E+03</rscale>
<asrwt>0</asrwt>
<pdfrwt beam="1">  1        2 0.16661260E+00 0.67545960E+03</pdfrwt>
<pdfrwt beam="2">  1       -2 0.16203328E-01 0.67545960E+03</pdfrwt>
<totfact> 0.69161495E+02</totfact>
</mgrwt>
</event>
<event>
 4    1  0.9064384E-005  0.8987058E+03  0.7818608E-02  0.9427201E-01
          2   -1    0    0  501    0  0.00000000000E+00  0.00000000000E+00  0.80989873933E+02  0.80989873973E+02  0.25500000000E-02 0.  1.
         -2   -1    0    0    0  501 -0.00000000000E+00 -0.00000000000E+00 -0.24931265849E+04  0.24931265849E+04  0.25500000000E-02 0. -1.
    5000001    1    1    2    0    0 -0.24797757620E+03  0.13612602569E+03 -0.32478315139E+03  0.46122908473E+03  0.16500000000E+03 0.  0.
   -5000001    1    1    2    0    0  0.24797757620E+03 -0.13612602569E+03 -0.20873535596E+04  0.21128873742E+04  0.16500000000E+03 0.  0.
<mgrwt>
<rscale>  0 0.89870575E+03</rscale>
<asrwt>0</asrwt>
<pdfrwt beam="1">  1        2 0.12459983E-01 0.89870575E+03</pdfrwt>
<pdfrwt beam="2">  1       -2 0.38355788E+00 0.89870575E+03</pdfrwt>
<totfact> 0.49851370E+00</totfact>
</mgrwt>
</event>
<event>
 4    1  0.9064384E-005  0.1052380E+04  0.7818608E-02  0.9252890E-01
          2   -1    0    0  501    0  0.00000000000E+00  0.00000000000E+00  0.42187454120E+03  0.42187454121E+03  0.25500000000E-02 0.  1.
         -2   -1    0    0    0  501 -0.00000000000E+00 -0.00000000000E+00 -0.65629896368E+03  0.65629896368E+03  0.25500000000E-02 0. -1.
    5000001    1    1    2    0    0  0.24922835491E+02 -0.48008971812E+03 -0.25672449651E+03  0.56942054080E+03  0.16500000000E+03 0.  0.
   -5000001    1    1    2    0    0 -0.24922835491E+02  0.48008971812E+03  0.22300074036E+02  0.50875296409E+03  0.16500000000E+03 0.  0.
<mgrwt>
<rscale>  0 0.10523798E+04</rscale>
<asrwt>0</asrwt>
<pdfrwt beam="1">  1        2 0.64903776E-01 0.10523798E+04</pdfrwt>
<pdfrwt beam="2">  1       -2 0.10096907E+00 0.10523798E+04</pdfrwt>
<totfact> 0.60181116E+01</totfact>
</mgrwt>
</event>
<event>
 4    1  0.9064384E-005  0.1123120E+04  0.7818608E-02  0.9182946E-01
         -2   -1    0    0    0  501 -0.00000000000E+00  0.00000000000E+00  0.34854905266E+03  0.34854905267E+03  0.25500000000E-02 0. -1.
          2   -1    0    0  501    0  0.00000000000E+00 -0.00000000000E+00 -0.90474936680E+03  0.90474936680E+03  0.25500000000E-02 0.  1.
    5000001    1    1    2    0    0 -0.11426646982E+03  0.52445921536E+03 -0.28167106319E+03  0.62823393934E+03  0.16500000000E+03 0.  0.
   -5000001    1    1    2    0    0  0.11426646982E+03 -0.52445921536E+03 -0.27452925095E+03  0.62506448014E+03  0.16500000000E+03 0.  0.
<mgrwt>
<rscale>  0 0.11231198E+04</rscale>
<asrwt>0</asrwt>
<pdfrwt beam="1">  1        2 0.13919221E+00 0.11231198E+04</pdfrwt>
<pdfrwt beam="2">  1       -2 0.53622931E-01 0.11231198E+04</pdfrwt>
<totfact> 0.94571937E+01</totfact>
</mgrwt>
</event>
<event>
 4    1  0.9064384E-005  0.3678825E+03  0.7818608E-02  0.1055506E+00
          2   -1    0    0  501    0  0.00000000000E+00  0.00000000000E+00  0.22797401594E+04  0.22797401594E+04  0.25500000000E-02 0.  1.
         -2   -1    0    0    0  501 -0.00000000000E+00 -0.00000000000E+00 -0.14841335058E+02  0.14841335277E+02  0.25500000000E-02 0. -1.
    5000001    1    1    2    0    0  0.88910239468E+01  0.76857089014E+02  0.12881720422E+04  0.13009989518E+04  0.16500000000E+03 0.  0.
   -5000001    1    1    2    0    0 -0.88910239468E+01 -0.76857089014E+02  0.97672678215E+03  0.99358254283E+03  0.16500000000E+03 0.  0.
<mgrwt>
<rscale>  0 0.36788252E+03</rscale>
<asrwt>0</asrwt>
<pdfrwt beam="1">  1        2 0.35072899E+00 0.36788252E+03</pdfrwt>
<pdfrwt beam="2">  1       -2 0.22832841E-02 0.36788252E+03</pdfrwt>
<totfact> 0.33401991E+03</totfact>
</mgrwt>
</event>
<event>
 4    1  0.9064384E-005  0.7394405E+03  0.7818608E-02  0.9652064E-01
         -2   -1    0    0    0  501 -0.00000000000E+00  0.00000000000E+00  0.59646470046E+02  0.59646470101E+02  0.25500000000E-02 0. -1.
          2   -1    0    0  501    0  0.00000000000E+00 -0.00000000000E+00 -0.22917209085E+04  0.22917209085E+04  0.25500000000E-02 0.  1.
    5000001    1    1    2    0    0  0.10682478888E+03 -0.20444548260E+03 -0.18702807732E+04  0.18916618782E+04  0.16500000000E+03 0.  0.
   -5000001    1    1    2    0    0 -0.10682478888E+03  0.20444548260E+03 -0.36179366528E+03  0.45970550041E+03  0.16500000000E+03 0.  0.
<mgrwt>
<rscale>  0 0.73944050E+03</rscale>
<asrwt>0</asrwt>
<pdfrwt beam="1">  1        2 0.35257238E+00 0.73944050E+03</pdfrwt>
<pdfrwt beam="2">  1       -2 0.91763817E-02 0.73944050E+03</pdfrwt>
<totfact> 0.37339345E+02</totfact>
</mgrwt>
</event>
<event>
 4    1  0.9064384E-005  0.5188444E+03  0.7818608E-02  0.1008974E+00
          2   -1    0    0  501    0  0.00000000000E+00  0.00000000000E+00  0.17825753966E+04  0.17825753966E+04  0.25500000000E-02 0.  1.
         -2   -1    0    0    0  501 -0.00000000000E+00 -0.00000000000E+00 -0.37754291062E+02  0.37754291148E+02  0.25500000000E-02 0. -1.
    5000001    1    1    2    0    0  0.13343609231E+02  0.19568326148E+03  0.10129616323E+04  0.10448857638E+04  0.16500000000E+03 0.  0.
   -5000001    1    1    2    0    0 -0.13343609231E+02 -0.19568326148E+03  0.73185947321E+03  0.77544392400E+03  0.16500000000E+03 0.  0.
<mgrwt>
<rscale>  0 0.51884437E+03</rscale>
<asrwt>0</asrwt>
<pdfrwt beam="1">  1        2 0.27424239E+00 0.51884437E+03</pdfrwt>
<pdfrwt beam="2">  1       -2 0.58083519E-02 0.51884437E+03</pdfrwt>
<totfact> 0.14827741E+03</totfact>
</mgrwt>
</event>
<event>
 4    1  0.9064384E-005  0.7931961E+03  0.7818608E-02  0.9569918E-01
         -2   -1    0    0    0  501 -0.00000000000E+00  0.00000000000E+00  0.73184788971E+02  0.73184789016E+02  0.25500000000E-02 0. -1.
          2   -1    0    0  501    0  0.00000000000E+00 -0.00000000000E+00 -0.21492175395E+04  0.21492175395E+04  0.25500000000E-02 0.  1.
    5000001    1    1    2    0    0 -0.35285108172E+03  0.66642767813E+02 -0.94425384132E+03  0.10236139220E+04  0.16500000000E+03 0.  0.
   -5000001    1    1    2    0    0  0.35285108172E+03 -0.66642767813E+02 -0.11317789092E+04  0.11987884065E+04  0.16500000000E+03 0.  0.
<mgrwt>
<rscale>  0 0.79319615E+03</rscale>
<asrwt>0</asrwt>
<pdfrwt beam="1">  1        2 0.33064880E+00 0.79319615E+03</pdfrwt>
<pdfrwt beam="2">  1       -2 0.11259200E-01 0.79319615E+03</pdfrwt>
<totfact> 0.31922606E+02</totfact>
</mgrwt>
</event>
<event>
 4    1  0.9064384E-005  0.3857190E+03  0.7818608E-02  0.1048840E+00
          2   -1    0    0  501    0  0.00000000000E+00  0.00000000000E+00  0.82731451314E+03  0.82731451315E+03  0.25500000000E-02 0.  1.
         -2   -1    0    0    0  501 -0.00000000000E+00 -0.00000000000E+00 -0.44958463059E+02  0.44958463131E+02  0.25500000000E-02 0. -1.
    5000001    1    1    2    0    0  0.85042245615E+02  0.27933324795E+02  0.29112875246E+03  0.34640064186E+03  0.16500000000E+03 0.  0.
   -5000001    1    1    2    0    0 -0.85042245615E+02 -0.27933324795E+02  0.49122729762E+03  0.52587233442E+03  0.16500000000E+03 0.  0.
<mgrwt>
<rscale>  0 0.38571901E+03</rscale>
<asrwt>0</asrwt>
<pdfrwt beam="1">  1        2 0.12727915E+00 0.38571901E+03</pdfrwt>
<pdfrwt beam="2">  1       -2 0.69166868E-02 0.38571901E+03</pdfrwt>
<totfact> 0.40530675E+03</totfact>
</mgrwt>
</event>
<event>
 4    1  0.9064384E-005  0.4720932E+03  0.7818608E-02  0.1021331E+00
          2   -1    0    0  501    0  0.00000000000E+00  0.00000000000E+00  0.51318905526E+04  0.51318905526E+04  0.25500000000E-02 0. -1.
         -2   -1    0    0    0  501 -0.00000000000E+00 -0.00000000000E+00 -0.10857204614E+02  0.10857204913E+02  0.25500000000E-02 0.  1.
    5000001    1    1    2    0    0  0.13225320507E+03 -0.43966246415E+02  0.15231117365E+04  0.15383492135E+04  0.16500000000E+03 0.  0.
   -5000001    1    1    2    0    0 -0.13225320507E+03  0.43966246415E+02  0.35979216116E+04  0.36043985440E+04  0.16500000000E+03 0.  0.
<mgrwt>
<rscale>  0 0.47209315E+03</rscale>
<asrwt>0</asrwt>
<pdfrwt beam="1">  1        2 0.78952316E+00 0.47209315E+03</pdfrwt>
<pdfrwt beam="2">  1       -2 0.16703359E-02 0.47209315E+03</pdfrwt>
<totfact> 0.32113179E+01</totfact>
</mgrwt>
</event>
<event>
 4    1  0.9064384E-005  0.1017571E+04  0.7818608E-02  0.9289481E-01
         -2   -1    0    0    0  501 -0.00000000000E+00  0.00000000000E+00  0.68280789782E+03  0.68280789783E+03  0.25500000000E-02 0. -1.
          2   -1    0    0  501    0  0.00000000000E+00 -0.00000000000E+00 -0.37911486312E+03  0.37911486313E+03  0.25500000000E-02 0.  1.
    5000001    1    1    2    0    0  0.39371300622E+03 -0.29829250672E+02 -0.13535379686E+03  0.44882665450E+03  0.16500000000E+03 0.  0.
   -5000001    1    1    2    0    0 -0.39371300622E+03  0.29829250672E+02  0.43904683156E+03  0.61309610647E+03  0.16500000000E+03 0.  0.
<mgrwt>
<rscale>  0 0.10175709E+04</rscale>
<asrwt>0</asrwt>
<pdfrwt beam="1">  1        2 0.58325364E-01 0.10175709E+04</pdfrwt>
<pdfrwt beam="2">  1       -2 0.10504737E+00 0.10175709E+04</pdfrwt>
<totfact> 0.61878876E+01</totfact>
</mgrwt>
</event>
<event>
 4    1  0.9064384E-005  0.8821991E+03  0.7818608E-02  0.9448111E-01
         -2   -1    0    0    0  501 -0.00000000000E+00  0.00000000000E+00  0.20790618636E+03  0.20790618637E+03  0.25500000000E-02 0. -1.
          2   -1    0    0  501    0  0.00000000000E+00 -0.00000000000E+00 -0.93584907936E+03  0.93584907936E+03  0.25500000000E-02 0.  1.
    5000001    1    1    2    0    0 -0.15463407634E+03  0.37872226441E+03 -0.36559178304E+03  0.57290889586E+03  0.16500000000E+03 0.  0.
   -5000001    1    1    2    0    0  0.15463407634E+03 -0.37872226441E+03 -0.36235110996E+03  0.57084636988E+03  0.16500000000E+03 0.  0.
<mgrwt>
<rscale>  0 0.88219910E+03</rscale>
<asrwt>0</asrwt>
<pdfrwt beam="1">  1        2 0.14397678E+00 0.88219910E+03</pdfrwt>
<pdfrwt beam="2">  1       -2 0.31985568E-01 0.88219910E+03</pdfrwt>
<totfact> 0.25271761E+02</totfact>
</mgrwt>
</event>
<event>
 4    1  0.9064384E-005  0.5082456E+03  0.7818608E-02  0.1011649E+00
          2   -1    0    0  501    0  0.00000000000E+00  0.00000000000E+00  0.44445569989E+03  0.44445569990E+03  0.25500000000E-02 0.  1.
         -2   -1    0    0    0  501 -0.00000000000E+00 -0.00000000000E+00 -0.14529771528E+03  0.14529771530E+03  0.25500000000E-02 0. -1.
    5000001    1    1    2    0    0  0.15142809373E+03  0.11873407537E+03  0.17050268808E+03  0.30549044971E+03  0.16500000000E+03 0.  0.
   -5000001    1    1    2    0    0 -0.15142809373E+03 -0.11873407537E+03  0.12865529653E+03  0.28426296549E+03  0.16500000000E+03 0.  0.
<mgrwt>
<rscale>  0 0.50824560E+03</rscale>
<asrwt>0</asrwt>
<pdfrwt beam="1">  1        2 0.68377799E-01 0.50824560E+03</pdfrwt>
<pdfrwt beam="2">  1       -2 0.22353495E-01 0.50824560E+03</pdfrwt>
<totfact> 0.12366927E+03</totfact>
</mgrwt>
</event>
<event>
 4    1  0.9064384E-005  0.4116328E+03  0.7818608E-02  0.1039824E+00
         -2   -1    0    0    0  501 -0.00000000000E+00  0.00000000000E+00  0.89096315023E+02  0.89096315059E+02  0.25500000000E-02 0. -1.
          2   -1    0    0  501    0  0.00000000000E+00 -0.00000000000E+00 -0.47544497202E+03  0.47544497202E+03  0.25500000000E-02 0.  1.
    5000001    1    1    2    0    0 -0.11676053565E+03 -0.30195964133E+02 -0.22650343251E+03  0.30507970086E+03  0.16500000000E+03 0.  0.
   -5000001    1    1    2    0    0  0.11676053565E+03  0.30195964133E+02 -0.15984522448E+03  0.25946158622E+03  0.16500000000E+03 0.  0.
<mgrwt>
<rscale>  0 0.41163282E+03</rscale>
<asrwt>0</asrwt>
<pdfrwt beam="1">  1        2 0.73145379E-01 0.41163282E+03</pdfrwt>
<pdfrwt beam="2">  1       -2 0.13707126E-01 0.41163282E+03</pdfrwt>
<totfact> 0.26354932E+03</totfact>
</mgrwt>
</event>
<event>
 4    1  0.9064384E-005  0.5917927E+03  0.7818608E-02  0.9922581E-01
         -2   -1    0    0    0  501 -0.00000000000E+00  0.00000000000E+00  0.10344171742E+03  0.10344171745E+03  0.25500000000E-02 0. -1.
          2   -1    0    0  501    0  0.00000000000E+00 -0.00000000000E+00 -0.84641522584E+03  0.84641522585E+03  0.25500000000E-02 0.  1.
    5000001    1    1    2    0    0  0.13816758716E+03 -0.18939188633E+03 -0.48910611699E+03  0.56692976851E+03  0.16500000000E+03 0.  0.
   -5000001    1    1    2    0    0 -0.13816758716E+03  0.18939188633E+03 -0.25386739144E+03  0.38292717478E+03  0.16500000000E+03 0.  0.
<mgrwt>
<rscale>  0 0.59179268E+03</rscale>
<asrwt>0</asrwt>
<pdfrwt beam="1">  1        2 0.13021772E+00 0.59179268E+03</pdfrwt>
<pdfrwt beam="2">  1       -2 0.15914111E-01 0.59179268E+03</pdfrwt>
<totfact> 0.10173224E+03</totfact>
</mgrwt>
</event>
<event>
 4    1  0.9064384E-005  0.6703878E+03  0.7818608E-02  0.9769258E-01
          2   -1    0    0  501    0  0.00000000000E+00  0.00000000000E+00  0.71746949846E+03  0.71746949846E+03  0.25500000000E-02 0.  1.
         -2   -1    0    0    0  501 -0.00000000000E+00 -0.00000000000E+00 -0.15659892009E+03  0.15659892011E+03  0.25500000000E-02 0. -1.
    5000001    1    1    2    0    0  0.13528512327E+03  0.11587316186E+03 -0.20861998804E+02  0.24369833239E+03  0.16500000000E+03 0.  0.
   -5000001    1    1    2    0    0 -0.13528512327E+03 -0.11587316186E+03  0.58173257717E+03  0.63037008619E+03  0.16500000000E+03 0.  0.
<mgrwt>
<rscale>  0 0.67038779E+03</rscale>
<asrwt>0</asrwt>
<pdfrwt beam="1">  1        2 0.11037992E+00 0.67038779E+03</pdfrwt>
<pdfrwt beam="2">  1       -2 0.24092142E-01 0.67038779E+03</pdfrwt>
<totfact> 0.61202711E+02</totfact>
</mgrwt>
</event>
<event>
 4    1  0.9064384E-005  0.7949830E+03  0.7818608E-02  0.9567308E-01
          2   -1    0    0  501    0  0.00000000000E+00  0.00000000000E+00  0.15568557046E+04  0.15568557046E+04  0.25500000000E-02 0. -1.
         -2   -1    0    0    0  501 -0.00000000000E+00 -0.00000000000E+00 -0.10148627068E+03  0.10148627071E+03  0.25500000000E-02 0.  1.
    5000001    1    1    2    0    0  0.34931200983E+03  0.15491899504E+02  0.92018168981E+03  0.99810731959E+03  0.16500000000E+03 0.  0.
   -5000001    1    1    2    0    0 -0.34931200983E+03 -0.15491899504E+02  0.53518774408E+03  0.66023465569E+03  0.16500000000E+03 0.  0.
<mgrwt>
<rscale>  0 0.79498297E+03</rscale>
<asrwt>0</asrwt>
<pdfrwt beam="1">  1        2 0.23951626E+00 0.79498297E+03</pdfrwt>
<pdfrwt beam="2">  1       -2 0.15613272E-01 0.79498297E+03</pdfrwt>
<totfact> 0.39016979E+02</totfact>
</mgrwt>
</event>
<event>
 4    1  0.9064384E-005  0.4839565E+03  0.7818608E-02  0.1018053E+00
          2   -1    0    0  501    0  0.00000000000E+00  0.00000000000E+00  0.76768138125E+03  0.76768138126E+03  0.25500000000E-02 0.  1.
         -2   -1    0    0    0  501 -0.00000000000E+00 -0.00000000000E+00 -0.76273155698E+02  0.76273155740E+02  0.25500000000E-02 0. -1.
    5000001    1    1    2    0    0 -0.11412050795E+03  0.13479126442E+03  0.36606377478E+03  0.43865688471E+03  0.16500000000E+03 0.  0.
   -5000001    1    1    2    0    0  0.11412050795E+03 -0.13479126442E+03  0.32534445077E+03  0.40529765229E+03  0.16500000000E+03 0.  0.
<mgrwt>
<rscale>  0 0.48395653E+03</rscale>
<asrwt>0</asrwt>
<pdfrwt beam="1">  1        2 0.11810483E+00 0.48395653E+03</pdfrwt>
<pdfrwt beam="2">  1       -2 0.11734331E-01 0.48395653E+03</pdfrwt>
<totfact> 0.19229248E+03</totfact>
</mgrwt>
</event>
<event>
 4    1  0.9064384E-005  0.5380635E+03  0.7818608E-02  0.1004295E+00
         -2   -1    0    0    0  501 -0.00000000000E+00  0.00000000000E+00  0.97054319331E+02  0.97054319365E+02  0.25500000000E-02 0. -1.
          2   -1    0    0  501    0  0.00000000000E+00 -0.00000000000E+00 -0.74574815221E+03  0.74574815221E+03  0.25500000000E-02 0.  1.
    5000001    1    1    2    0    0  0.16871659822E+03  0.11790483224E+03 -0.40702711062E+03  0.48503907962E+03  0.16500000000E+03 0.  0.
   -5000001    1    1    2    0    0 -0.16871659822E+03 -0.11790483224E+03 -0.24166672226E+03  0.35776339196E+03  0.16500000000E+03 0.  0.
<mgrwt>
<rscale>  0 0.53806349E+03</rscale>
<asrwt>0</asrwt>
<pdfrwt beam="1">  1        2 0.11473048E+00 0.53806349E+03</pdfrwt>
<pdfrwt beam="2">  1       -2 0.14931434E-01 0.53806349E+03</pdfrwt>
<totfact> 0.13382078E+03</totfact>
</mgrwt>
</event>
<event>
 4    1  0.9064384E-005  0.4323999E+03  0.7818608E-02  0.1033105E+00
          2   -1    0    0  501    0  0.00000000000E+00  0.00000000000E+00  0.13096101417E+04  0.13096101417E+04  0.25500000000E-02 0.  1.
         -2   -1    0    0    0  501 -0.00000000000E+00 -0.00000000000E+00 -0.35691862649E+02  0.35691862740E+02  0.25500000000E-02 0. -1.
    5000001    1    1    2    0    0  0.12744355097E+03  0.45619051979E+02  0.52943113826E+03  0.57082859664E+03  0.16500000000E+03 0.  0.
   -5000001    1    1    2    0    0 -0.12744355097E+03 -0.45619051979E+02  0.74448714082E+03  0.77447340783E+03  0.16500000000E+03 0.  0.
<mgrwt>
<rscale>  0 0.43239993E+03</rscale>
<asrwt>0</asrwt>
<pdfrwt beam="1">  1        2 0.20147847E+00 0.43239993E+03</pdfrwt>
<pdfrwt beam="2">  1       -2 0.54910563E-02 0.43239993E+03</pdfrwt>
<totfact> 0.29427604E+03</totfact>
</mgrwt>
</event>
<event>
 4    1  0.9064384E-005  0.5644760E+03  0.7818608E-02  0.9981977E-01
         -2   -1    0    0    0  501 -0.00000000000E+00  0.00000000000E+00  0.92045781234E+02  0.92045781269E+02  0.25500000000E-02 0.  1.
          2   -1    0    0  501    0  0.00000000000E+00 -0.00000000000E+00 -0.86542039603E+03  0.86542039603E+03  0.25500000000E-02 0. -1.
    5000001    1    1    2    0    0 -0.20867483535E+03  0.12709739062E+02 -0.22823455816E+03  0.35074597349E+03  0.16500000000E+03 0.  0.
   -5000001    1    1    2    0    0  0.20867483535E+03 -0.12709739062E+02 -0.54514005663E+03  0.60672020381E+03  0.16500000000E+03 0.  0.
<mgrwt>
<rscale>  0 0.56447603E+03</rscale>
<asrwt>0</asrwt>
<pdfrwt beam="1">  1        2 0.13314159E+00 0.56447603E+03</pdfrwt>
<pdfrwt beam="2">  1       -2 0.14160890E-01 0.56447603E+03</pdfrwt>
<totfact> 0.12022620E+03</totfact>
</mgrwt>
</event>
<event>
 4    1  0.9064384E-005  0.5638416E+03  0.7818608E-02  0.9983400E-01
          2   -1    0    0  501    0  0.00000000000E+00  0.00000000000E+00  0.31707984250E+03  0.31707984251E+03  0.25500000000E-02 0.  1.
         -2   -1    0    0    0  501 -0.00000000000E+00 -0.00000000000E+00 -0.25066032448E+03  0.25066032449E+03  0.25500000000E-02 0. -1.
    5000001    1    1    2    0    0  0.11900839145E+02  0.22170152148E+03 -0.21582864940E+02  0.27745993343E+03  0.16500000000E+03 0.  0.
   -5000001    1    1    2    0    0 -0.11900839145E+02 -0.22170152148E+03  0.88002382964E+02  0.29028023358E+03  0.16500000000E+03 0.  0.
<mgrwt>
<rscale>  0 0.56384160E+03</rscale>
<asrwt>0</asrwt>
<pdfrwt beam="1">  1        2 0.48781514E-01 0.56384160E+03</pdfrwt>
<pdfrwt beam="2">  1       -2 0.38563127E-01 0.56384160E+03</pdfrwt>
<totfact> 0.65973585E+02</totfact>
</mgrwt>
</event>
<event>
 4    1  0.9064384E-005  0.4777959E+03  0.7818608E-02  0.1019743E+00
         -2   -1    0    0    0  501 -0.00000000000E+00  0.00000000000E+00  0.39385178512E+02  0.39385178594E+02  0.25500000000E-02 0.  1.
          2   -1    0    0  501    0  0.00000000000E+00 -0.00000000000E+00 -0.14490785899E+04  0.14490785899E+04  0.25500000000E-02 0. -1.
    5000001    1    1    2    0    0  0.83828272446E+02 -0.12084299690E+03 -0.98723897050E+03  0.10116797883E+04  0.16500000000E+03 0.  0.
   -5000001    1    1    2    0    0 -0.83828272446E+02  0.12084299690E+03 -0.42245444093E+03  0.47678398025E+03  0.16500000000E+03 0.  0.
<mgrwt>
<rscale>  0 0.47779585E+03</rscale>
<asrwt>0</asrwt>
<pdfrwt beam="1">  1        2 0.22293513E+00 0.47779585E+03</pdfrwt>
<pdfrwt beam="2">  1       -2 0.60592594E-02 0.47779585E+03</pdfrwt>
<totfact> 0.21101329E+03</totfact>
</mgrwt>
</event>
<event>
 4    1  0.9064384E-005  0.8530030E+03  0.7818608E-02  0.9486315E-01
          2   -1    0    0  501    0  0.00000000000E+00  0.00000000000E+00  0.26302238527E+03  0.26302238529E+03  0.25500000000E-02 0.  1.
         -2   -1    0    0    0  501 -0.00000000000E+00 -0.00000000000E+00 -0.69158946317E+03  0.69158946318E+03  0.25500000000E-02 0. -1.
    5000001    1    1    2    0    0  0.19250068675E+03 -0.31880159645E+03 -0.72780072520E+02  0.41377881924E+03  0.16500000000E+03 0.  0.
   -5000001    1    1    2    0    0 -0.19250068675E+03  0.31880159645E+03 -0.35578700538E+03  0.54083302922E+03  0.16500000000E+03 0.  0.
<mgrwt>
<rscale>  0 0.85300295E+03</rscale>
<asrwt>0</asrwt>
<pdfrwt beam="1">  1        2 0.40464983E-01 0.85300295E+03</pdfrwt>
<pdfrwt beam="2">  1       -2 0.10639838E+00 0.85300295E+03</pdfrwt>
<totfact> 0.91004321E+01</totfact>
</mgrwt>
</event>
<event>
 4    1  0.9064384E-005  0.3934685E+03  0.7818608E-02  0.1046065E+00
         -2   -1    0    0    0  501 -0.00000000000E+00  0.00000000000E+00  0.12309584771E+02  0.12309585035E+02  0.25500000000E-02 0. -1.
          2   -1    0    0  501    0  0.00000000000E+00 -0.00000000000E+00 -0.31442456010E+04  0.31442456010E+04  0.25500000000E-02 0.  1.
    5000001    1    1    2    0    0 -0.56721899567E+02  0.90779721042E+02 -0.16027544163E+04  0.16147770901E+04  0.16500000000E+03 0.  0.
   -5000001    1    1    2    0    0  0.56721899567E+02 -0.90779721042E+02 -0.15291815999E+04  0.15417780960E+04  0.16500000000E+03 0.  0.
<mgrwt>
<rscale>  0 0.39346846E+03</rscale>
<asrwt>0</asrwt>
<pdfrwt beam="1">  1        2 0.48372945E+00 0.39346846E+03</pdfrwt>
<pdfrwt beam="2">  1       -2 0.18937848E-02 0.39346846E+03</pdfrwt>
<totfact> 0.14053676E+03</totfact>
</mgrwt>
</event>
<event>
 4    1  0.9064384E-005  0.4485734E+03  0.7818608E-02  0.1028148E+00
          2   -1    0    0  501    0  0.00000000000E+00  0.00000000000E+00  0.16213751913E+04  0.16213751913E+04  0.25500000000E-02 0.  1.
         -2   -1    0    0    0  501 -0.00000000000E+00 -0.00000000000E+00 -0.31025834609E+02  0.31025834714E+02  0.25500000000E-02 0. -1.
    5000001    1    1    2    0    0 -0.64666996635E+02 -0.13224914132E+03  0.93339188924E+03  0.95922733214E+03  0.16500000000E+03 0.  0.
   -5000001    1    1    2    0    0  0.64666996635E+02  0.13224914132E+03  0.65695746742E+03  0.69317369384E+03  0.16500000000E+03 0.  0.
<mgrwt>
<rscale>  0 0.44857338E+03</rscale>
<asrwt>0</asrwt>
<pdfrwt beam="1">  1        2 0.24944245E+00 0.44857338E+03</pdfrwt>
<pdfrwt beam="2">  1       -2 0.47732033E-02 0.44857338E+03</pdfrwt>
<totfact> 0.24609700E+03</totfact>
</mgrwt>
</event>
<event>
 4    1  0.9064384E-005  0.7819195E+03  0.7818608E-02  0.9586563E-01
         -2   -1    0    0    0  501 -0.00000000000E+00  0.00000000000E+00  0.23926265672E+03  0.23926265673E+03  0.25500000000E-02 0.  1.
          2   -1    0    0  501    0  0.00000000000E+00 -0.00000000000E+00 -0.63883562141E+03  0.63883562141E+03  0.25500000000E-02 0. -1.
    5000001    1    1    2    0    0 -0.14132097508E+03  0.27084218457E+03  0.20338400060E+01  0.34721210153E+03  0.16500000000E+03 0.  0.
   -5000001    1    1    2    0    0  0.14132097508E+03 -0.27084218457E+03 -0.40160680470E+03  0.53088617662E+03  0.16500000000E+03 0.  0.
<mgrwt>
<rscale>  0 0.78191945E+03</rscale>
<asrwt>0</asrwt>
<pdfrwt beam="1">  1        2 0.98282403E-01 0.78191945E+03</pdfrwt>
<pdfrwt beam="2">  1       -2 0.36809640E-01 0.78191945E+03</pdfrwt>
<totfact> 0.32127046E+02</totfact>
</mgrwt>
</event>
<event>
 4    1  0.9064384E-005  0.9085252E+03  0.7818608E-02  0.9414987E-01
         -2   -1    0    0    0  501 -0.00000000000E+00  0.00000000000E+00  0.50133150735E+03  0.50133150736E+03  0.25500000000E-02 0. -1.
          2   -1    0    0  501    0  0.00000000000E+00 -0.00000000000E+00 -0.41161285455E+03  0.41161285456E+03  0.25500000000E-02 0.  1.
    5000001    1    1    2    0    0  0.29334196023E+03  0.29630086778E+03 -0.28197703696E+02  0.44929257770E+03  0.16500000000E+03 0.  0.
   -5000001    1    1    2    0    0 -0.29334196023E+03 -0.29630086778E+03  0.11791635650E+03  0.46365178422E+03  0.16500000000E+03 0.  0.
<mgrwt>
<rscale>  0 0.90852516E+03</rscale>
<asrwt>0</asrwt>
<pdfrwt beam="1">  1        2 0.63325055E-01 0.90852516E+03</pdfrwt>
<pdfrwt beam="2">  1       -2 0.77127924E-01 0.90852516E+03</pdfrwt>
<totfact> 0.11592430E+02</totfact>
</mgrwt>
</event>
<event>
 4    1  0.9064384E-005  0.5289741E+03  0.7818608E-02  0.1006481E+00
         -2   -1    0    0    0  501 -0.00000000000E+00  0.00000000000E+00  0.37851258528E+02  0.37851258614E+02  0.25500000000E-02 0. -1.
          2   -1    0    0  501    0  0.00000000000E+00 -0.00000000000E+00 -0.18481130852E+04  0.18481130852E+04  0.25500000000E-02 0.  1.
    5000001    1    1    2    0    0  0.11809524101E+03 -0.16364412181E+03 -0.74558427253E+03  0.78983972552E+03  0.16500000000E+03 0.  0.
   -5000001    1    1    2    0    0 -0.11809524101E+03  0.16364412181E+03 -0.10646775541E+04  0.10961246183E+04  0.16500000000E+03 0.  0.
<mgrwt>
<rscale>  0 0.52897413E+03</rscale>
<asrwt>0</asrwt>
<pdfrwt beam="1">  1        2 0.28432502E+00 0.52897413E+03</pdfrwt>
<pdfrwt beam="2">  1       -2 0.58232720E-02 0.52897413E+03</pdfrwt>
<totfact> 0.13608886E+03</totfact>
</mgrwt>
</event>
<event>
 4    1  0.9064384E-005  0.9313318E+03  0.7818608E-02  0.9387241E-01
          2   -1    0    0  501    0  0.00000000000E+00  0.00000000000E+00  0.10902087348E+04  0.10902087348E+04  0.25500000000E-02 0.  1.
         -2   -1    0    0    0  501 -0.00000000000E+00 -0.00000000000E+00 -0.19890202963E+03  0.19890202964E+03  0.25500000000E-02 0. -1.
    5000001    1    1    2    0    0 -0.27978655095E+03  0.33310155838E+03  0.47272657849E+03  0.66327413661E+03  0.16500000000E+03 0.  0.
   -5000001    1    1    2    0    0  0.27978655095E+03 -0.33310155838E+03  0.41858012670E+03  0.62583662785E+03  0.16500000000E+03 0.  0.
<mgrwt>
<rscale>  0 0.93133180E+03</rscale>
<asrwt>0</asrwt>
<pdfrwt beam="1">  1        2 0.16772442E+00 0.93133180E+03</pdfrwt>
<pdfrwt beam="2">  1       -2 0.30600312E-01 0.93133180E+03</pdfrwt>
<totfact> 0.21828525E+02</totfact>
</mgrwt>
</event>
<event>
 4    1  0.9064384E-005  0.6230070E+03  0.7818608E-02  0.9858791E-01
         -2   -1    0    0    0  501 -0.00000000000E+00  0.00000000000E+00  0.84245940246E+02  0.84245940284E+02  0.25500000000E-02 0. -1.
          2   -1    0    0  501    0  0.00000000000E+00 -0.00000000000E+00 -0.11517995894E+04  0.11517995894E+04  0.25500000000E-02 0.  1.
    5000001    1    1    2    0    0  0.97843355293E+02 -0.24477914124E+03 -0.56922824700E+03  0.64864161703E+03  0.16500000000E+03 0.  0.
   -5000001    1    1    2    0    0 -0.97843355293E+02  0.24477914124E+03 -0.49832540212E+03  0.58740391262E+03  0.16500000000E+03 0.  0.
<mgrwt>
<rscale>  0 0.62300703E+03</rscale>
<asrwt>0</asrwt>
<pdfrwt beam="1">  1        2 0.17719993E+00 0.62300703E+03</pdfrwt>
<pdfrwt beam="2">  1       -2 0.12960915E-01 0.62300703E+03</pdfrwt>
<totfact> 0.91642700E+02</totfact>
</mgrwt>
</event>
<event>
 4    1  0.9064384E-005  0.4701665E+03  0.7818608E-02  0.1021873E+00
         -2   -1    0    0    0  501 -0.00000000000E+00  0.00000000000E+00  0.89900247913E+02  0.89900247949E+02  0.25500000000E-02 0. -1.
          2   -1    0    0  501    0  0.00000000000E+00 -0.00000000000E+00 -0.61472718147E+03  0.61472718148E+03  0.25500000000E-02 0.  1.
    5000001    1    1    2    0    0 -0.15324915362E+03 -0.61432130882E+02 -0.22055995756E+03  0.32114000789E+03  0.16500000000E+03 0.  0.
   -5000001    1    1    2    0    0  0.15324915362E+03  0.61432130882E+02 -0.30426697600E+03  0.38348742154E+03  0.16500000000E+03 0.  0.
<mgrwt>
<rscale>  0 0.47016646E+03</rscale>
<asrwt>0</asrwt>
<pdfrwt beam="1">  1        2 0.94573410E-01 0.47016646E+03</pdfrwt>
<pdfrwt beam="2">  1       -2 0.13830808E-01 0.47016646E+03</pdfrwt>
<totfact> 0.19301078E+03</totfact>
</mgrwt>
</event>
<event>
 4    1  0.9064384E-005  0.5494416E+03  0.7818608E-02  0.1001623E+00
         -2   -1    0    0    0  501 -0.00000000000E+00  0.00000000000E+00  0.14956333613E+03  0.14956333615E+03  0.25500000000E-02 0. -1.
          2   -1    0    0  501    0  0.00000000000E+00 -0.00000000000E+00 -0.50461237547E+03  0.50461237548E+03  0.25500000000E-02 0.  1.
    5000001    1    1    2    0    0 -0.14851321010E+03  0.16182586627E+03 -0.17555881936E+03  0.32602098647E+03  0.16500000000E+03 0.  0.
   -5000001    1    1    2    0    0  0.14851321010E+03 -0.16182586627E+03 -0.17949021999E+03  0.32815472515E+03  0.16500000000E+03 0.  0.
<mgrwt>
<rscale>  0 0.54944157E+03</rscale>
<asrwt>0</asrwt>
<pdfrwt beam="1">  1        2 0.77632672E-01 0.54944157E+03</pdfrwt>
<pdfrwt beam="2">  1       -2 0.23009744E-01 0.54944157E+03</pdfrwt>
<totfact> 0.10167801E+03</totfact>
</mgrwt>
</event>
<event>
 4    1  0.9064384E-005  0.4391873E+03  0.7818608E-02  0.1030996E+00
          2   -1    0    0  501    0  0.00000000000E+00  0.00000000000E+00  0.21412474685E+03  0.21412474687E+03  0.25500000000E-02 0.  1.
         -2   -1    0    0    0  501 -0.00000000000E+00 -0.00000000000E+00 -0.22520218935E+03  0.22520218936E+03  0.25500000000E-02 0. -1.
    5000001    1    1    2    0    0  0.76313074390E+02 -0.11842792479E+03  0.28346867380E+02  0.21880905736E+03  0.16500000000E+03 0.  0.
   -5000001    1    1    2    0    0 -0.76313074390E+02  0.11842792479E+03 -0.39424309874E+02  0.22051787887E+03  0.16500000000E+03 0.  0.
<mgrwt>
<rscale>  0 0.43918726E+03</rscale>
<asrwt>0</asrwt>
<pdfrwt beam="1">  1        2 0.32942268E-01 0.43918726E+03</pdfrwt>
<pdfrwt beam="2">  1       -2 0.34646491E-01 0.43918726E+03</pdfrwt>
<totfact> 0.12471150E+03</totfact>
</mgrwt>
</event>
<event>
 4    1  0.9064384E-005  0.5198588E+03  0.7818608E-02  0.1008722E+00
          2   -1    0    0  501    0  0.00000000000E+00  0.00000000000E+00  0.83713702311E+03  0.83713702311E+03  0.25500000000E-02 0.  1.
         -2   -1    0    0    0  501 -0.00000000000E+00 -0.00000000000E+00 -0.80707558412E+02  0.80707558452E+02  0.25500000000E-02 0. -1.
    5000001    1    1    2    0    0 -0.13165525563E+03 -0.12929157365E+03  0.51822826335E+03  0.57431258935E+03  0.16500000000E+03 0.  0.
   -5000001    1    1    2    0    0  0.13165525563E+03  0.12929157365E+03  0.23820120135E+03  0.34353199221E+03  0.16500000000E+03 0.  0.
<mgrwt>
<rscale>  0 0.51985877E+03</rscale>
<asrwt>0</asrwt>
<pdfrwt beam="1">  1        2 0.12879031E+00 0.51985877E+03</pdfrwt>
<pdfrwt beam="2">  1       -2 0.12416548E-01 0.51985877E+03</pdfrwt>
<totfact> 0.15646512E+03</totfact>
</mgrwt>
</event>
<event>
 4    1  0.9064384E-005  0.6664105E+03  0.7818608E-02  0.9776464E-01
         -2   -1    0    0    0  501 -0.00000000000E+00  0.00000000000E+00  0.19751014387E+03  0.19751014388E+03  0.25500000000E-02 0. -1.
          2   -1    0    0  501    0  0.00000000000E+00 -0.00000000000E+00 -0.56212683070E+03  0.56212683071E+03  0.25500000000E-02 0.  1.
    5000001    1    1    2    0    0  0.72823675562E+02  0.82432069337E+01 -0.50153856462E+03  0.53304518569E+03  0.16500000000E+03 0.  0.
   -5000001    1    1    2    0    0 -0.72823675562E+02 -0.82432069337E+01  0.13692187778E+03  0.22659178890E+03  0.16500000000E+03 0.  0.
<mgrwt>
<rscale>  0 0.66641054E+03</rscale>
<asrwt>0</asrwt>
<pdfrwt beam="1">  1        2 0.86481050E-01 0.66641054E+03</pdfrwt>
<pdfrwt beam="2">  1       -2 0.30386176E-01 0.66641054E+03</pdfrwt>
<totfact> 0.54036287E+02</totfact>
</mgrwt>
</event>
<event>
 4    1  0.9064384E-005  0.5248604E+03  0.7818608E-02  0.1007486E+00
          2   -1    0    0  501    0  0.00000000000E+00  0.00000000000E+00  0.15051052827E+03  0.15051052829E+03  0.25500000000E-02 0.  1.
         -2   -1    0    0    0  501 -0.00000000000E+00 -0.00000000000E+00 -0.45757333657E+03  0.45757333658E+03  0.25500000000E-02 0. -1.
    5000001    1    1    2    0    0 -0.80585574215E+02  0.18732726568E+03 -0.14462738304E+03  0.29954568794E+03  0.16500000000E+03 0.  0.
   -5000001    1    1    2    0    0  0.80585574215E+02 -0.18732726568E+03 -0.16243542527E+03  0.30853817693E+03  0.16500000000E+03 0.  0.
<mgrwt>
<rscale>  0 0.52486038E+03</rscale>
<asrwt>0</asrwt>
<pdfrwt beam="1">  1        2 0.23155466E-01 0.52486038E+03</pdfrwt>
<pdfrwt beam="2">  1       -2 0.70395897E-01 0.52486038E+03</pdfrwt>
<totfact> 0.44375832E+02</totfact>
</mgrwt>
</event>
<event>
 4    1  0.9064384E-005  0.4978504E+03  0.7818608E-02  0.1014342E+00
         -2   -1    0    0    0  501 -0.00000000000E+00  0.00000000000E+00  0.87934083578E+03  0.87934083579E+03  0.25500000000E-02 0. -1.
          2   -1    0    0  501    0  0.00000000000E+00 -0.00000000000E+00 -0.70466138799E+02  0.70466138845E+02  0.25500000000E-02 0.  1.
    5000001    1    1    2    0    0 -0.15266660019E+02 -0.17697076780E+03  0.29673391076E+03  0.38318107647E+03  0.16500000000E+03 0.  0.
   -5000001    1    1    2    0    0  0.15266660019E+02  0.17697076780E+03  0.51214078622E+03  0.56662589817E+03  0.16500000000E+03 0.  0.
<mgrwt>
<rscale>  0 0.49785039E+03</rscale>
<asrwt>0</asrwt>
<pdfrwt beam="1">  1        2 0.10840944E-01 0.49785039E+03</pdfrwt>
<pdfrwt beam="2">  1       -2 0.13528320E+00 0.49785039E+03</pdfrwt>
<totfact> 0.23904421E+02</totfact>
</mgrwt>
</event>
<event>
 4    1  0.9064384E-005  0.1121372E+04  0.7818608E-02  0.9184608E-01
         -2   -1    0    0    0  501 -0.00000000000E+00  0.00000000000E+00  0.62966050823E+03  0.62966050823E+03  0.25500000000E-02 0. -1.
          2   -1    0    0  501    0  0.00000000000E+00 -0.00000000000E+00 -0.49926675718E+03  0.49926675719E+03  0.25500000000E-02 0.  1.
    5000001    1    1    2    0    0  0.40825284392E+03 -0.10811373404E+03  0.39724429935E+03  0.60281589015E+03  0.16500000000E+03 0.  0.
   -5000001    1    1    2    0    0 -0.40825284392E+03  0.10811373404E+03 -0.26685054830E+03  0.52611137527E+03  0.16500000000E+03 0.  0.
<mgrwt>
<rscale>  0 0.11213716E+04</rscale>
<asrwt>0</asrwt>
<pdfrwt beam="1">  1        2 0.76810271E-01 0.11213716E+04</pdfrwt>
<pdfrwt beam="2">  1       -2 0.96870847E-01 0.11213716E+04</pdfrwt>
<totfact> 0.54477895E+01</totfact>
</mgrwt>
</event>
<event>
 4    1  0.9064384E-005  0.4810532E+03  0.7818608E-02  0.1018846E+00
         -2   -1    0    0    0  501 -0.00000000000E+00  0.00000000000E+00  0.14444039311E+02  0.14444039537E+02  0.25500000000E-02 0. -1.
          2   -1    0    0  501    0  0.00000000000E+00 -0.00000000000E+00 -0.40053229249E+04  0.40053229249E+04  0.25500000000E-02 0.  1.
    5000001    1    1    2    0    0  0.99291276455E+02  0.12764781731E+03 -0.25544497272E+04  0.25648764359E+04  0.16500000000E+03 0.  0.
   -5000001    1    1    2    0    0 -0.99291276455E+02 -0.12764781731E+03 -0.14364291584E+04  0.14548905285E+04  0.16500000000E+03 0.  0.
<mgrwt>
<rscale>  0 0.48105319E+03</rscale>
<asrwt>0</asrwt>
<pdfrwt beam="1">  1        2 0.61620264E+00 0.48105319E+03</pdfrwt>
<pdfrwt beam="2">  1       -2 0.22221631E-02 0.48105319E+03</pdfrwt>
<totfact> 0.27817971E+02</totfact>
</mgrwt>
</event>
<event>
 4    1  0.9064384E-005  0.4008756E+03  0.7818608E-02  0.1043477E+00
         -2   -1    0    0    0  501 -0.00000000000E+00  0.00000000000E+00  0.86235944299E+02  0.86235944337E+02  0.25500000000E-02 0. -1.
          2   -1    0    0  501    0  0.00000000000E+00 -0.00000000000E+00 -0.46587656665E+03  0.46587656665E+03  0.25500000000E-02 0.  1.
    5000001    1    1    2    0    0 -0.12500406382E+02  0.90304856042E+02 -0.28362701105E+03  0.34055911173E+03  0.16500000000E+03 0.  0.
   -5000001    1    1    2    0    0  0.12500406382E+02 -0.90304856042E+02 -0.96013611296E+02  0.21155339926E+03  0.16500000000E+03 0.  0.
<mgrwt>
<rscale>  0 0.40087557E+03</rscale>
<asrwt>0</asrwt>
<pdfrwt beam="1">  1        2 0.71673317E-01 0.40087557E+03</pdfrwt>
<pdfrwt beam="2">  1       -2 0.13267069E-01 0.40087557E+03</pdfrwt>
<totfact> 0.28447024E+03</totfact>
</mgrwt>
</event>
<event>
 4    1  0.9064384E-005  0.5037302E+03  0.7818608E-02  0.1012810E+00
          2   -1    0    0  501    0  0.00000000000E+00  0.00000000000E+00  0.38105147743E+04  0.38105147743E+04  0.25500000000E-02 0.  1.
         -2   -1    0    0    0  501 -0.00000000000E+00 -0.00000000000E+00 -0.16647624329E+02  0.16647624524E+02  0.25500000000E-02 0. -1.
    5000001    1    1    2    0    0  0.54168950090E+02  0.18089797473E+03  0.17183216402E+04  0.17365231388E+04  0.16500000000E+03 0.  0.
   -5000001    1    1    2    0    0 -0.54168950090E+02 -0.18089797473E+03  0.20755455098E+04  0.20906392600E+04  0.16500000000E+03 0.  0.
<mgrwt>
<rscale>  0 0.50373016E+03</rscale>
<asrwt>0</asrwt>
<pdfrwt beam="1">  1        2 0.58623329E+00 0.50373016E+03</pdfrwt>
<pdfrwt beam="2">  1       -2 0.25611719E-02 0.50373016E+03</pdfrwt>
<totfact> 0.31434273E+02</totfact>
</mgrwt>
</event>
<event>
 4    1  0.9064384E-005  0.5996759E+03  0.7818608E-02  0.9906079E-01
         -2   -1    0    0    0  501 -0.00000000000E+00  0.00000000000E+00  0.25601899943E+02  0.25601900070E+02  0.25500000000E-02 0. -1.
          2   -1    0    0  501    0  0.00000000000E+00 -0.00000000000E+00 -0.35115677590E+04  0.35115677590E+04  0.25500000000E-02 0.  1.
    5000001    1    1    2    0    0  0.21692567239E+03 -0.18066761484E+02 -0.10135101980E+04  0.10496718900E+04  0.16500000000E+03 0.  0.
   -5000001    1    1    2    0    0 -0.21692567239E+03  0.18066761484E+02 -0.24724556611E+04  0.24874977691E+04  0.16500000000E+03 0.  0.
<mgrwt>
<rscale>  0 0.59967593E+03</rscale>
<asrwt>0</asrwt>
<pdfrwt beam="1">  1        2 0.54024081E+00 0.59967593E+03</pdfrwt>
<pdfrwt beam="2">  1       -2 0.39387566E-02 0.59967593E+03</pdfrwt>
<totfact> 0.26180107E+02</totfact>
</mgrwt>
</event>
<event>
 4    1  0.9064384E-005  0.5946230E+03  0.7818608E-02  0.9916625E-01
          2   -1    0    0  501    0  0.00000000000E+00  0.00000000000E+00  0.88672040965E+03  0.88672040965E+03  0.25500000000E-02 0.  1.
         -2   -1    0    0    0  501 -0.00000000000E+00 -0.00000000000E+00 -0.99686594553E+02  0.99686594586E+02  0.25500000000E-02 0. -1.
    5000001    1    1    2    0    0  0.22903057456E+02  0.23109029046E+03  0.53468600865E+03  0.60583941786E+03  0.16500000000E+03 0.  0.
   -5000001    1    1    2    0    0 -0.22903057456E+02 -0.23109029046E+03  0.25234780644E+03  0.38056758638E+03  0.16500000000E+03 0.  0.
<mgrwt>
<rscale>  0 0.59462303E+03</rscale>
<asrwt>0</asrwt>
<pdfrwt beam="1">  1        2 0.13641853E+00 0.59462303E+03</pdfrwt>
<pdfrwt beam="2">  1       -2 0.15336399E-01 0.59462303E+03</pdfrwt>
<totfact> 0.10165610E+03</totfact>
</mgrwt>
</event>
<event>
 4    1  0.9064384E-005  0.3991148E+03  0.7818608E-02  0.1044087E+00
          2   -1    0    0  501    0  0.00000000000E+00  0.00000000000E+00  0.59218346441E+03  0.59218346442E+03  0.25500000000E-02 0.  1.
         -2   -1    0    0    0  501 -0.00000000000E+00 -0.00000000000E+00 -0.67248000867E+02  0.67248000915E+02  0.25500000000E-02 0. -1.
    5000001    1    1    2    0    0 -0.18134728478E+02  0.78153091372E+02  0.13277643195E+03  0.22647594784E+03  0.16500000000E+03 0.  0.
   -5000001    1    1    2    0    0  0.18134728478E+02 -0.78153091372E+02  0.39215903159E+03  0.43295551749E+03  0.16500000000E+03 0.  0.
<mgrwt>
<rscale>  0 0.39911479E+03</rscale>
<asrwt>0</asrwt>
<pdfrwt beam="1">  1        2 0.91105147E-01 0.39911479E+03</pdfrwt>
<pdfrwt beam="2">  1       -2 0.10345846E-01 0.39911479E+03</pdfrwt>
<totfact> 0.32381768E+03</totfact>
</mgrwt>
</event>
<event>
 4    1  0.9064384E-005  0.7003737E+03  0.7818608E-02  0.9716593E-01
         -2   -1    0    0    0  501 -0.00000000000E+00  0.00000000000E+00  0.86083517722E+02  0.86083517760E+02  0.25500000000E-02 0. -1.
          2   -1    0    0  501    0  0.00000000000E+00 -0.00000000000E+00 -0.14245565523E+04  0.14245565523E+04  0.25500000000E-02 0.  1.
    5000001    1    1    2    0    0  0.25298367725E+03  0.12022045336E+03 -0.38840656196E+03  0.50649615570E+03  0.16500000000E+03 0.  0.
   -5000001    1    1    2    0    0 -0.25298367725E+03 -0.12022045336E+03 -0.95006647261E+03  0.10041439144E+04  0.16500000000E+03 0.  0.
<mgrwt>
<rscale>  0 0.70037373E+03</rscale>
<asrwt>0</asrwt>
<pdfrwt beam="1">  1        2 0.21916253E+00 0.70037373E+03</pdfrwt>
<pdfrwt beam="2">  1       -2 0.13243619E-01 0.70037373E+03</pdfrwt>
<totfact> 0.61332175E+02</totfact>
</mgrwt>
</event>
<event>
 4    1  0.9064384E-005  0.4032922E+03  0.7818608E-02  0.1042646E+00
         -2   -1    0    0    0  501 -0.00000000000E+00  0.00000000000E+00  0.30579173507E+02  0.30579173613E+02  0.25500000000E-02 0. -1.
          2   -1    0    0  501    0  0.00000000000E+00 -0.00000000000E+00 -0.13297004796E+04  0.13297004796E+04  0.25500000000E-02 0.  1.
    5000001    1    1    2    0    0  0.82036119384E+02  0.78947387180E+02 -0.72295806742E+03  0.75023728385E+03  0.16500000000E+03 0.  0.
   -5000001    1    1    2    0    0 -0.82036119384E+02 -0.78947387180E+02 -0.57616323867E+03  0.61004236936E+03  0.16500000000E+03 0.  0.
<mgrwt>
<rscale>  0 0.40329216E+03</rscale>
<asrwt>0</asrwt>
<pdfrwt beam="1">  1        2 0.20456926E+00 0.40329216E+03</pdfrwt>
<pdfrwt beam="2">  1       -2 0.47044893E-02 0.40329216E+03</pdfrwt>
<totfact> 0.36381475E+03</totfact>
</mgrwt>
</event>
<event>
 4    1  0.9064384E-005  0.1121192E+04  0.7818608E-02  0.9184779E-01
          2   -1    0    0  501    0  0.00000000000E+00  0.00000000000E+00  0.14862986792E+04  0.14862986792E+04  0.25500000000E-02 0.  1.
         -2   -1    0    0    0  501 -0.00000000000E+00 -0.00000000000E+00 -0.21144331289E+03  0.21144331290E+03  0.25500000000E-02 0. -1.
    5000001    1    1    2    0    0 -0.11248064765E+03 -0.45515858545E+03  0.24483123929E+03  0.55406549228E+03  0.16500000000E+03 0.  0.
   -5000001    1    1    2    0    0  0.11248064765E+03  0.45515858545E+03  0.10300241270E+04  0.11436764998E+04  0.16500000000E+03 0.  0.
<mgrwt>
<rscale>  0 0.11211921E+04</rscale>
<asrwt>0</asrwt>
<pdfrwt beam="1">  1        2 0.22866134E+00 0.11211921E+04</pdfrwt>
<pdfrwt beam="2">  1       -2 0.32529740E-01 0.11211921E+04</pdfrwt>
<totfact> 0.11276135E+02</totfact>
</mgrwt>
</event>
<event>
 4    1  0.9064384E-005  0.7340158E+03  0.7818608E-02  0.9660766E-01
          2   -1    0    0  501    0  0.00000000000E+00  0.00000000000E+00  0.55522761622E+03  0.55522761622E+03  0.25500000000E-02 0.  1.
         -2   -1    0    0    0  501 -0.00000000000E+00 -0.00000000000E+00 -0.24259385567E+03  0.24259385568E+03  0.25500000000E-02 0. -1.
    5000001    1    1    2    0    0 -0.14285726448E+03  0.25224285834E+03  0.32270954274E+03  0.46411324757E+03  0.16500000000E+03 0.  0.
   -5000001    1    1    2    0    0  0.14285726448E+03 -0.25224285834E+03 -0.10075782190E+02  0.33370822433E+03  0.16500000000E+03 0.  0.
<mgrwt>
<rscale>  0 0.73401583E+03</rscale>
<asrwt>0</asrwt>
<pdfrwt beam="1">  1        2 0.85419633E-01 0.73401583E+03</pdfrwt>
<pdfrwt beam="2">  1       -2 0.37322132E-01 0.73401583E+03</pdfrwt>
<totfact> 0.37108696E+02</totfact>
</mgrwt>
</event>
<event>
 4    1  0.9064384E-005  0.1060738E+04  0.7818608E-02  0.9244328E-01
         -2   -1    0    0    0  501 -0.00000000000E+00  0.00000000000E+00  0.30128196600E+03  0.30128196601E+03  0.25500000000E-02 0.  1.
          2   -1    0    0  501    0  0.00000000000E+00 -0.00000000000E+00 -0.93364714784E+03  0.93364714785E+03  0.25500000000E-02 0. -1.
    5000001    1    1    2    0    0 -0.50240179367E+03 -0.30254696932E+02 -0.28444534825E+03  0.60121299479E+03  0.16500000000E+03 0.  0.
   -5000001    1    1    2    0    0  0.50240179367E+03  0.30254696932E+02 -0.34791983358E+03  0.63371611907E+03  0.16500000000E+03 0.  0.
<mgrwt>
<rscale>  0 0.10607376E+04</rscale>
<asrwt>0</asrwt>
<pdfrwt beam="1">  1        2 0.14363802E+00 0.10607376E+04</pdfrwt>
<pdfrwt beam="2">  1       -2 0.46351072E-01 0.10607376E+04</pdfrwt>
<totfact> 0.12219609E+02</totfact>
</mgrwt>
</event>
<event>
 4    1  0.9064384E-005  0.3998584E+03  0.7818608E-02  0.1043829E+00
         -2   -1    0    0    0  501 -0.00000000000E+00  0.00000000000E+00  0.35858120354E+02  0.35858120444E+02  0.25500000000E-02 0. -1.
          2   -1    0    0  501    0  0.00000000000E+00 -0.00000000000E+00 -0.11147180013E+04  0.11147180013E+04  0.25500000000E-02 0.  1.
    5000001    1    1    2    0    0 -0.64525105186E+02  0.78437015696E+02 -0.68129879839E+03  0.70831413040E+03  0.16500000000E+03 0.  0.
   -5000001    1    1    2    0    0  0.64525105186E+02 -0.78437015696E+02 -0.39756108255E+03  0.44226199135E+03  0.16500000000E+03 0.  0.
<mgrwt>
<rscale>  0 0.39985844E+03</rscale>
<asrwt>0</asrwt>
<pdfrwt beam="1">  1        2 0.17149505E+00 0.39985844E+03</pdfrwt>
<pdfrwt beam="2">  1       -2 0.55166348E-02 0.39985844E+03</pdfrwt>
<totfact> 0.37855446E+03</totfact>
</mgrwt>
</event>
<event>
 4    1  0.9064384E-005  0.4705800E+03  0.7818608E-02  0.1021757E+00
          2   -1    0    0  501    0  0.00000000000E+00  0.00000000000E+00  0.11379751403E+04  0.11379751403E+04  0.25500000000E-02 0.  1.
         -2   -1    0    0    0  501 -0.00000000000E+00 -0.00000000000E+00 -0.48649026638E+02  0.48649026705E+02  0.25500000000E-02 0. -1.
    5000001    1    1    2    0    0  0.15190593431E+03  0.55363748760E+02  0.43201051354E+03  0.48989656191E+03  0.16500000000E+03 0.  0.
   -5000001    1    1    2    0    0 -0.15190593431E+03 -0.55363748760E+02  0.65731560013E+03  0.69672760511E+03  0.16500000000E+03 0.  0.
<mgrwt>
<rscale>  0 0.47058000E+03</rscale>
<asrwt>0</asrwt>
<pdfrwt beam="1">  1        2 0.17507307E+00 0.47058000E+03</pdfrwt>
<pdfrwt beam="2">  1       -2 0.74844668E-02 0.47058000E+03</pdfrwt>
<totfact> 0.22780939E+03</totfact>
</mgrwt>
</event>
<event>
 4    1  0.9064384E-005  0.5201604E+03  0.7818608E-02  0.1008647E+00
         -2   -1    0    0    0  501 -0.00000000000E+00  0.00000000000E+00  0.19862980241E+03  0.19862980243E+03  0.25500000000E-02 0. -1.
          2   -1    0    0  501    0  0.00000000000E+00 -0.00000000000E+00 -0.34054158725E+03  0.34054158726E+03  0.25500000000E-02 0.  1.
    5000001    1    1    2    0    0  0.16152570578E+03 -0.97316797365E+02  0.12729760023E+01  0.25057480549E+03  0.16500000000E+03 0.  0.
   -5000001    1    1    2    0    0 -0.16152570578E+03  0.97316797365E+02 -0.14318476084E+03  0.28859658420E+03  0.16500000000E+03 0.  0.
<mgrwt>
<rscale>  0 0.52016039E+03</rscale>
<asrwt>0</asrwt>
<pdfrwt beam="1">  1        2 0.52391014E-01 0.52016039E+03</pdfrwt>
<pdfrwt beam="2">  1       -2 0.30558431E-01 0.52016039E+03</pdfrwt>
<totfact> 0.94614819E+02</totfact>
</mgrwt>
</event>
<event>
 4    1  0.9064384E-005  0.4245696E+03  0.7818608E-02  0.1035589E+00
          2   -1    0    0  501    0  0.00000000000E+00  0.00000000000E+00  0.92595383947E+03  0.92595383948E+03  0.25500000000E-02 0.  1.
         -2   -1    0    0    0  501 -0.00000000000E+00 -0.00000000000E+00 -0.48668556784E+02  0.48668556851E+02  0.25500000000E-02 0. -1.
    5000001    1    1    2    0    0  0.11274161057E+03 -0.62260654811E+02  0.35739244818E+03  0.41417559309E+03  0.16500000000E+03 0.  0.
   -5000001    1    1    2    0    0 -0.11274161057E+03  0.62260654811E+02  0.51989283451E+03  0.56044680324E+03  0.16500000000E+03 0.  0.
<mgrwt>
<rscale>  0 0.42456960E+03</rscale>
<asrwt>0</asrwt>
<pdfrwt beam="1">  1        2 0.14245443E+00 0.42456960E+03</pdfrwt>
<pdfrwt beam="2">  1       -2 0.74874706E-02 0.42456960E+03</pdfrwt>
<totfact> 0.30785593E+03</totfact>
</mgrwt>
</event>
<event>
 4    1  0.9064384E-005  0.5351723E+03  0.7818608E-02  0.1004985E+00
         -2   -1    0    0    0  501 -0.00000000000E+00  0.00000000000E+00  0.12700535651E+03  0.12700535653E+03  0.25500000000E-02 0. -1.
          2   -1    0    0  501    0  0.00000000000E+00 -0.00000000000E+00 -0.56377427912E+03  0.56377427913E+03  0.25500000000E-02 0.  1.
    5000001    1    1    2    0    0 -0.16149274407E+03  0.73552753279E+02 -0.71853566895E+02  0.25274067535E+03  0.16500000000E+03 0.  0.
   -5000001    1    1    2    0    0  0.16149274407E+03 -0.73552753279E+02 -0.36491535572E+03  0.43803896031E+03  0.16500000000E+03 0.  0.
<mgrwt>
<rscale>  0 0.53517232E+03</rscale>
<asrwt>0</asrwt>
<pdfrwt beam="1">  1        2 0.86734503E-01 0.53517232E+03</pdfrwt>
<pdfrwt beam="2">  1       -2 0.19539286E-01 0.53517232E+03</pdfrwt>
<totfact> 0.11904356E+03</totfact>
</mgrwt>
</event>
<event>
 4    1  0.9064384E-005  0.6334406E+03  0.7818608E-02  0.9838358E-01
          2   -1    0    0  501    0  0.00000000000E+00  0.00000000000E+00  0.68560205749E+03  0.68560205750E+03  0.25500000000E-02 0.  1.
         -2   -1    0    0    0  501 -0.00000000000E+00 -0.00000000000E+00 -0.14631189401E+03  0.14631189403E+03  0.25500000000E-02 0. -1.
    5000001    1    1    2    0    0 -0.12596952830E+03  0.96759171986E+02 -0.17658528329E+02  0.22971173903E+03  0.16500000000E+03 0.  0.
   -5000001    1    1    2    0    0  0.12596952830E+03 -0.96759171986E+02  0.55694869182E+03  0.60220221250E+03  0.16500000000E+03 0.  0.
<mgrwt>
<rscale>  0 0.63344056E+03</rscale>
<asrwt>0</asrwt>
<pdfrwt beam="1">  1        2 0.10547724E+00 0.63344056E+03</pdfrwt>
<pdfrwt beam="2">  1       -2 0.22509522E-01 0.63344056E+03</pdfrwt>
<totfact> 0.73209748E+02</totfact>
</mgrwt>
</event>
<event>
 4    1  0.9064384E-005  0.4450706E+03  0.7818608E-02  0.1029202E+00
         -2   -1    0    0    0  501 -0.00000000000E+00  0.00000000000E+00  0.23278019919E+03  0.23278019921E+03  0.25500000000E-02 0. -1.
          2   -1    0    0  501    0  0.00000000000E+00 -0.00000000000E+00 -0.21274128434E+03  0.21274128436E+03  0.25500000000E-02 0.  1.
    5000001    1    1    2    0    0 -0.99419289169E+02  0.10986011272E+03 -0.85335881382E+01  0.22192625251E+03  0.16500000000E+03 0.  0.
   -5000001    1    1    2    0    0  0.99419289169E+02 -0.10986011272E+03  0.28572502989E+02  0.22359523106E+03  0.16500000000E+03 0.  0.
<mgrwt>
<rscale>  0 0.44507059E+03</rscale>
<asrwt>0</asrwt>
<pdfrwt beam="1">  1        2 0.32729428E-01 0.44507059E+03</pdfrwt>
<pdfrwt beam="2">  1       -2 0.35812338E-01 0.44507059E+03</pdfrwt>
<totfact> 0.11801545E+03</totfact>
</mgrwt>
</event>
<event>
 4    1  0.9064384E-005  0.1024105E+04  0.7818608E-02  0.9282495E-01
          2   -1    0    0  501    0  0.00000000000E+00  0.00000000000E+00  0.77528025776E+03  0.77528025777E+03  0.25500000000E-02 0.  1.
         -2   -1    0    0    0  501 -0.00000000000E+00 -0.00000000000E+00 -0.33819709758E+03  0.33819709759E+03  0.25500000000E-02 0. -1.
    5000001    1    1    2    0    0 -0.13099737188E+03 -0.41628813510E+03 -0.10860399094E+02  0.46668948042E+03  0.16500000000E+03 0.  0.
   -5000001    1    1    2    0    0  0.13099737188E+03  0.41628813510E+03  0.44794355927E+03  0.64678787494E+03  0.16500000000E+03 0.  0.
<mgrwt>
<rscale>  0 0.10241046E+04</rscale>
<asrwt>0</asrwt>
<pdfrwt beam="1">  1        2 0.11927389E+00 0.10241046E+04</pdfrwt>
<pdfrwt beam="2">  1       -2 0.52030323E-01 0.10241046E+04</pdfrwt>
<totfact> 0.12488904E+02</totfact>
</mgrwt>
</event>
<event>
 4    1  0.9064384E-005  0.7252928E+03  0.7818608E-02  0.9674930E-01
          2   -1    0    0  501    0  0.00000000000E+00  0.00000000000E+00  0.43358682861E+03  0.43358682862E+03  0.25500000000E-02 0.  1.
         -2   -1    0    0    0  501 -0.00000000000E+00 -0.00000000000E+00 -0.30331275544E+03  0.30331275545E+03  0.25500000000E-02 0. -1.
    5000001    1    1    2    0    0 -0.17749310331E+03 -0.25269314839E+03 -0.30872745030E+02  0.35147653599E+03  0.16500000000E+03 0.  0.
   -5000001    1    1    2    0    0  0.17749310331E+03  0.25269314839E+03  0.16114681820E+03  0.38542304807E+03  0.16500000000E+03 0.  0.
<mgrwt>
<rscale>  0 0.72529281E+03</rscale>
<asrwt>0</asrwt>
<pdfrwt beam="1">  1        2 0.66705666E-01 0.72529281E+03</pdfrwt>
<pdfrwt beam="2">  1       -2 0.46663501E-01 0.72529281E+03</pdfrwt>
<totfact> 0.31862741E+02</totfact>
</mgrwt>
</event>
<event>
 4    1  0.9064384E-005  0.5286753E+03  0.7818608E-02  0.1006554E+00
          2   -1    0    0  501    0  0.00000000000E+00  0.00000000000E+00  0.98565052177E+03  0.98565052177E+03  0.25500000000E-02 0.  1.
         -2   -1    0    0    0  501 -0.00000000000E+00 -0.00000000000E+00 -0.70891659963E+02  0.70891660008E+02  0.25500000000E-02 0. -1.
    5000001    1    1    2    0    0 -0.65685264601E+02 -0.19181039318E+03  0.53589722621E+03  0.59625214295E+03  0.16500000000E+03 0.  0.
   -5000001    1    1    2    0    0  0.65685264601E+02  0.19181039318E+03  0.37886163560E+03  0.46029003883E+03  0.16500000000E+03 0.  0.
<mgrwt>
<rscale>  0 0.52867533E+03</rscale>
<asrwt>0</asrwt>
<pdfrwt beam="1">  1        2 0.15163853E+00 0.52867533E+03</pdfrwt>
<pdfrwt beam="2">  1       -2 0.10906410E-01 0.52867533E+03</pdfrwt>
<totfact> 0.15433621E+03</totfact>
</mgrwt>
</event>
<event>
 4    1  0.9064384E-005  0.5291296E+03  0.7818608E-02  0.1006443E+00
          2   -1    0    0  501    0  0.00000000000E+00  0.00000000000E+00  0.58664782750E+03  0.58664782750E+03  0.25500000000E-02 0.  1.
         -2   -1    0    0    0  501 -0.00000000000E+00 -0.00000000000E+00 -0.11931267399E+03  0.11931267401E+03  0.25500000000E-02 0. -1.
    5000001    1    1    2    0    0  0.57883033446E+02 -0.19435870380E+03  0.17957485063E+03  0.31717168581E+03  0.16500000000E+03 0.  0.
   -5000001    1    1    2    0    0 -0.57883033446E+02  0.19435870380E+03  0.28776030288E+03  0.38878881570E+03  0.16500000000E+03 0.  0.
<mgrwt>
<rscale>  0 0.52912955E+03</rscale>
<asrwt>0</asrwt>
<pdfrwt beam="1">  1        2 0.90253513E-01 0.52912955E+03</pdfrwt>
<pdfrwt beam="2">  1       -2 0.18355796E-01 0.52912955E+03</pdfrwt>
<totfact> 0.12652079E+03</totfact>
</mgrwt>
</event>
<event>
 4    1  0.9064384E-005  0.4494334E+03  0.7818608E-02  0.1027891E+00
          2   -1    0    0  501    0  0.00000000000E+00  0.00000000000E+00  0.28974014567E+04  0.28974014567E+04  0.25500000000E-02 0.  1.
         -2   -1    0    0    0  501 -0.00000000000E+00 -0.00000000000E+00 -0.17428579560E+02  0.17428579747E+02  0.25500000000E-02 0. -1.
    5000001    1    1    2    0    0  0.13354276741E+03  0.54653221523E+02  0.17611331068E+04  0.17747212359E+04  0.16500000000E+03 0.  0.
   -5000001    1    1    2    0    0 -0.13354276741E+03 -0.54653221523E+02  0.11188397703E+04  0.11401088005E+04  0.16500000000E+03 0.  0.
<mgrwt>
<rscale>  0 0.44943339E+03</rscale>
<asrwt>0</asrwt>
<pdfrwt beam="1">  1        2 0.44575422E+00 0.44943339E+03</pdfrwt>
<pdfrwt beam="2">  1       -2 0.26813190E-02 0.44943339E+03</pdfrwt>
<totfact> 0.11705725E+03</totfact>
</mgrwt>
</event>
<event>
 4    1  0.9064384E-005  0.8234931E+03  0.7818608E-02  0.9526621E-01
         -2   -1    0    0    0  501 -0.00000000000E+00  0.00000000000E+00  0.26198525445E+03  0.26198525446E+03  0.25500000000E-02 0. -1.
          2   -1    0    0  501    0  0.00000000000E+00 -0.00000000000E+00 -0.64711736201E+03  0.64711736201E+03  0.25500000000E-02 0.  1.
    5000001    1    1    2    0    0  0.34193686743E+03 -0.15493706908E+03 -0.23363407314E+03  0.47194935832E+03  0.16500000000E+03 0.  0.
   -5000001    1    1    2    0    0 -0.34193686743E+03  0.15493706908E+03 -0.15149803442E+03  0.43715325816E+03  0.16500000000E+03 0.  0.
<mgrwt>
<rscale>  0 0.82349306E+03</rscale>
<asrwt>0</asrwt>
<pdfrwt beam="1">  1        2 0.99556516E-01 0.82349306E+03</pdfrwt>
<pdfrwt beam="2">  1       -2 0.40305424E-01 0.82349306E+03</pdfrwt>
<totfact> 0.26480609E+02</totfact>
</mgrwt>
</event>
<event>
 4    1  0.9064384E-005  0.4340125E+03  0.7818608E-02  0.1032600E+00
          2   -1    0    0  501    0  0.00000000000E+00  0.00000000000E+00  0.35963007780E+03  0.35963007781E+03  0.25500000000E-02 0.  1.
         -2   -1    0    0    0  501 -0.00000000000E+00 -0.00000000000E+00 -0.13094487974E+03  0.13094487976E+03  0.25500000000E-02 0. -1.
    5000001    1    1    2    0    0  0.29646963858E+02  0.13773612024E+03  0.10974619210E+03  0.24314482920E+03  0.16500000000E+03 0.  0.
   -5000001    1    1    2    0    0 -0.29646963858E+02 -0.13773612024E+03  0.11893900596E+03  0.24743012837E+03  0.16500000000E+03 0.  0.
<mgrwt>
<rscale>  0 0.43401252E+03</rscale>
<asrwt>0</asrwt>
<pdfrwt beam="1">  1        2 0.55327703E-01 0.43401252E+03</pdfrwt>
<pdfrwt beam="2">  1       -2 0.20145367E-01 0.43401252E+03</pdfrwt>
<totfact> 0.18749804E+03</totfact>
</mgrwt>
</event>
<event>
 4    1  0.9064384E-005  0.1000864E+04  0.7818608E-02  0.9307598E-01
          2   -1    0    0  501    0  0.00000000000E+00  0.00000000000E+00  0.19314154342E+04  0.19314154342E+04  0.25500000000E-02 0. -1.
         -2   -1    0    0    0  501 -0.00000000000E+00 -0.00000000000E+00 -0.12966241875E+03  0.12966241877E+03  0.25500000000E-02 0.  1.
    5000001    1    1    2    0    0  0.10549061690E+03  0.44766407359E+03  0.67836157197E+03  0.83602082233E+03  0.16500000000E+03 0.  0.
   -5000001    1    1    2    0    0 -0.10549061690E+03 -0.44766407359E+03  0.11233914434E+04  0.12250570306E+04  0.16500000000E+03 0.  0.
<mgrwt>
<rscale>  0 0.10008636E+04</rscale>
<asrwt>0</asrwt>
<pdfrwt beam="1">  1        2 0.29714082E+00 0.10008636E+04</pdfrwt>
<pdfrwt beam="2">  1       -2 0.19948065E-01 0.10008636E+04</pdfrwt>
<totfact> 0.15681232E+02</totfact>
</mgrwt>
</event>
<event>
 4    1  0.9064384E-005  0.6745599E+03  0.7818608E-02  0.9761755E-01
         -2   -1    0    0    0  501 -0.00000000000E+00  0.00000000000E+00  0.56687971628E+02  0.56687971685E+02  0.25500000000E-02 0. -1.
          2   -1    0    0  501    0  0.00000000000E+00 -0.00000000000E+00 -0.20067354591E+04  0.20067354591E+04  0.25500000000E-02 0.  1.
    5000001    1    1    2    0    0  0.20827429248E+03 -0.20313654394E+03 -0.11080119933E+04  0.11573928519E+04  0.16500000000E+03 0.  0.
   -5000001    1    1    2    0    0 -0.20827429248E+03  0.20313654394E+03 -0.84203549422E+03  0.90603057890E+03  0.16500000000E+03 0.  0.
<mgrwt>
<rscale>  0 0.67455989E+03</rscale>
<asrwt>0</asrwt>
<pdfrwt beam="1">  1        2 0.30872848E+00 0.67455989E+03</pdfrwt>
<pdfrwt beam="2">  1       -2 0.87212279E-02 0.67455989E+03</pdfrwt>
<totfact> 0.58392192E+02</totfact>
</mgrwt>
</event>
<event>
 4    1  0.9064384E-005  0.4368497E+03  0.7818608E-02  0.1031718E+00
          2   -1    0    0  501    0  0.00000000000E+00  0.00000000000E+00  0.14921610955E+04  0.14921610955E+04  0.25500000000E-02 0.  1.
         -2   -1    0    0    0  501 -0.00000000000E+00 -0.00000000000E+00 -0.31973368092E+02  0.31973368193E+02  0.25500000000E-02 0. -1.
    5000001    1    1    2    0    0  0.61675915742E+02 -0.88419450862E+02  0.40164382568E+03  0.44739767610E+03  0.16500000000E+03 0.  0.
   -5000001    1    1    2    0    0 -0.61675915742E+02  0.88419450862E+02  0.10585439017E+04  0.10767367876E+04  0.16500000000E+03 0.  0.
<mgrwt>
<rscale>  0 0.43684970E+03</rscale>
<asrwt>0</asrwt>
<pdfrwt beam="1">  1        2 0.22956316E+00 0.43684970E+03</pdfrwt>
<pdfrwt beam="2">  1       -2 0.49189815E-02 0.43684970E+03</pdfrwt>
<totfact> 0.27623236E+03</totfact>
</mgrwt>
</event>
<event>
 4    1  0.9064384E-005  0.4193297E+03  0.7818608E-02  0.1037285E+00
          2   -1    0    0  501    0  0.00000000000E+00  0.00000000000E+00  0.34206183788E+03  0.34206183789E+03  0.25500000000E-02 0.  1.
         -2   -1    0    0    0  501 -0.00000000000E+00 -0.00000000000E+00 -0.12851289450E+03  0.12851289453E+03  0.25500000000E-02 0. -1.
    5000001    1    1    2    0    0 -0.38544494332E+02 -0.12334156570E+03  0.11346427643E+03  0.23832322988E+03  0.16500000000E+03 0.  0.
   -5000001    1    1    2    0    0  0.38544494332E+02  0.12334156570E+03  0.10008466695E+03  0.23225150254E+03  0.16500000000E+03 0.  0.
<mgrwt>
<rscale>  0 0.41932974E+03</rscale>
<asrwt>0</asrwt>
<pdfrwt beam="1">  1        2 0.52624898E-01 0.41932974E+03</pdfrwt>
<pdfrwt beam="2">  1       -2 0.19771215E-01 0.41932974E+03</pdfrwt>
<totfact> 0.20455279E+03</totfact>
</mgrwt>
</event>
<event>
 4    1  0.9064384E-005  0.3767063E+03  0.7818608E-02  0.1052158E+00
         -2   -1    0    0    0  501 -0.00000000000E+00  0.00000000000E+00  0.60991757541E+02  0.60991757594E+02  0.25500000000E-02 0. -1.
          2   -1    0    0  501    0  0.00000000000E+00 -0.00000000000E+00 -0.58166732199E+03  0.58166732199E+03  0.25500000000E-02 0.  1.
    5000001    1    1    2    0    0  0.87074774440E+02 -0.21255633055E+02 -0.23514363782E+03  0.30091751144E+03  0.16500000000E+03 0.  0.
   -5000001    1    1    2    0    0 -0.87074774440E+02  0.21255633055E+02 -0.28553192662E+03  0.34174156815E+03  0.16500000000E+03 0.  0.
<mgrwt>
<rscale>  0 0.37670632E+03</rscale>
<asrwt>0</asrwt>
<pdfrwt beam="1">  1        2 0.89487276E-01 0.37670632E+03</pdfrwt>
<pdfrwt beam="2">  1       -2 0.93833477E-02 0.37670632E+03</pdfrwt>
<totfact> 0.38635743E+03</totfact>
</mgrwt>
</event>
<event>
 4    1  0.9064384E-005  0.4145345E+03  0.7818608E-02  0.1038860E+00
          2   -1    0    0  501    0  0.00000000000E+00  0.00000000000E+00  0.18510168777E+04  0.18510168777E+04  0.25500000000E-02 0.  1.
         -2   -1    0    0    0  501 -0.00000000000E+00 -0.00000000000E+00 -0.23208714793E+02  0.23208714933E+02  0.25500000000E-02 0. -1.
    5000001    1    1    2    0    0  0.77063996449E+02 -0.24775837783E+02  0.13471458090E+04  0.13596247763E+04  0.16500000000E+03 0.  0.
   -5000001    1    1    2    0    0 -0.77063996449E+02  0.24775837783E+02  0.48066235392E+03  0.51460081632E+03  0.16500000000E+03 0.  0.
<mgrwt>
<rscale>  0 0.41453455E+03</rscale>
<asrwt>0</asrwt>
<pdfrwt beam="1">  1        2 0.28477173E+00 0.41453455E+03</pdfrwt>
<pdfrwt beam="2">  1       -2 0.35705727E-02 0.41453455E+03</pdfrwt>
<totfact> 0.28900866E+03</totfact>
</mgrwt>
</event>
<event>
 4    1  0.9064384E-005  0.6842561E+03  0.7818608E-02  0.9744542E-01
         -2   -1    0    0    0  501 -0.00000000000E+00  0.00000000000E+00  0.16349737867E+04  0.16349737867E+04  0.25500000000E-02 0. -1.
          2   -1    0    0  501    0  0.00000000000E+00 -0.00000000000E+00 -0.71592342931E+02  0.71592342976E+02  0.25500000000E-02 0.  1.
    5000001    1    1    2    0    0 -0.29218951727E+03 -0.15365343511E+02  0.61975440802E+03  0.70493356711E+03  0.16500000000E+03 0.  0.
   -5000001    1    1    2    0    0  0.29218951727E+03  0.15365343511E+02  0.94362703573E+03  0.10016325625E+04  0.16500000000E+03 0.  0.
<mgrwt>
<rscale>  0 0.68425610E+03</rscale>
<asrwt>0</asrwt>
<pdfrwt beam="1">  1        2 0.11014208E-01 0.68425610E+03</pdfrwt>
<pdfrwt beam="2">  1       -2 0.25153440E+00 0.68425610E+03</pdfrwt>
<totfact> 0.38214277E+01</totfact>
</mgrwt>
</event>
<event>
 4    1  0.9064384E-005  0.3709288E+03  0.7818608E-02  0.1054338E+00
          2   -1    0    0  501    0  0.00000000000E+00  0.00000000000E+00  0.10565462497E+03  0.10565462500E+03  0.25500000000E-02 0.  1.
         -2   -1    0    0    0  501 -0.00000000000E+00 -0.00000000000E+00 -0.32556117034E+03  0.32556117035E+03  0.25500000000E-02 0. -1.
    5000001    1    1    2    0    0  0.57520636880E+02 -0.44542132348E+02 -0.59554981017E+02  0.18990634793E+03  0.16500000000E+03 0.  0.
   -5000001    1    1    2    0    0 -0.57520636880E+02  0.44542132348E+02 -0.16035156435E+03  0.24130944742E+03  0.16500000000E+03 0.  0.
<mgrwt>
<rscale>  0 0.37092880E+03</rscale>
<asrwt>0</asrwt>
<pdfrwt beam="1">  1        2 0.16254558E-01 0.37092880E+03</pdfrwt>
<pdfrwt beam="2">  1       -2 0.50086334E-01 0.37092880E+03</pdfrwt>
<totfact> 0.13639495E+03</totfact>
</mgrwt>
</event>
<event>
 4    1  0.9064384E-005  0.5820340E+03  0.7818608E-02  0.9943397E-01
         -2   -1    0    0    0  501 -0.00000000000E+00  0.00000000000E+00  0.57750488170E+02  0.57750488226E+02  0.25500000000E-02 0. -1.
          2   -1    0    0  501    0  0.00000000000E+00 -0.00000000000E+00 -0.14664965845E+04  0.14664965845E+04  0.25500000000E-02 0.  1.
    5000001    1    1    2    0    0 -0.22302371379E+03 -0.37181674659E+02 -0.49578802515E+03  0.56934420145E+03  0.16500000000E+03 0.  0.
   -5000001    1    1    2    0    0  0.22302371379E+03  0.37181674659E+02 -0.91295807118E+03  0.95490287128E+03  0.16500000000E+03 0.  0.
<mgrwt>
<rscale>  0 0.58203400E+03</rscale>
<asrwt>0</asrwt>
<pdfrwt beam="1">  1        2 0.22561483E+00 0.58203400E+03</pdfrwt>
<pdfrwt beam="2">  1       -2 0.88846916E-02 0.58203400E+03</pdfrwt>
<totfact> 0.11225803E+03</totfact>
</mgrwt>
</event>
<event>
 4    1  0.9064384E-005  0.4254303E+03  0.7818608E-02  0.1035313E+00
          2   -1    0    0  501    0  0.00000000000E+00  0.00000000000E+00  0.17856006751E+04  0.17856006751E+04  0.25500000000E-02 0.  1.
         -2   -1    0    0    0  501 -0.00000000000E+00 -0.00000000000E+00 -0.25340342683E+02  0.25340342812E+02  0.25500000000E-02 0. -1.
    5000001    1    1    2    0    0  0.11747996281E+03 -0.56574138077E+02  0.74414397223E+03  0.77329000133E+03  0.16500000000E+03 0.  0.
   -5000001    1    1    2    0    0 -0.11747996281E+03  0.56574138077E+02  0.10161163602E+04  0.10376510165E+04  0.16500000000E+03 0.  0.
<mgrwt>
<rscale>  0 0.42543029E+03</rscale>
<asrwt>0</asrwt>
<pdfrwt beam="1">  1        2 0.27470780E+00 0.42543029E+03</pdfrwt>
<pdfrwt beam="2">  1       -2 0.38985142E-02 0.42543029E+03</pdfrwt>
<totfact> 0.27398548E+03</totfact>
</mgrwt>
</event>
<event>
 4    1  0.9064384E-005  0.4452569E+03  0.7818608E-02  0.1029146E+00
         -2   -1    0    0    0  501 -0.00000000000E+00  0.00000000000E+00  0.31439213391E+02  0.31439213495E+02  0.25500000000E-02 0. -1.
          2   -1    0    0  501    0  0.00000000000E+00 -0.00000000000E+00 -0.15764842052E+04  0.15764842052E+04  0.25500000000E-02 0.  1.
    5000001    1    1    2    0    0 -0.14033906215E+03 -0.44680732875E+01 -0.58755833594E+03  0.62623063976E+03  0.16500000000E+03 0.  0.
   -5000001    1    1    2    0    0  0.14033906215E+03  0.44680732875E+01 -0.95748665583E+03  0.98169277890E+03  0.16500000000E+03 0.  0.
<mgrwt>
<rscale>  0 0.44525689E+03</rscale>
<asrwt>0</asrwt>
<pdfrwt beam="1">  1        2 0.24253597E+00 0.44525689E+03</pdfrwt>
<pdfrwt beam="2">  1       -2 0.48368033E-02 0.44525689E+03</pdfrwt>
<totfact> 0.25502484E+03</totfact>
</mgrwt>
</event>
<event>
 4    1  0.9064384E-005  0.5930020E+03  0.7818608E-02  0.9920032E-01
         -2   -1    0    0    0  501 -0.00000000000E+00  0.00000000000E+00  0.60194631916E+02  0.60194631970E+02  0.25500000000E-02 0. -1.
          2   -1    0    0  501    0  0.00000000000E+00 -0.00000000000E+00 -0.14604763249E+04  0.14604763249E+04  0.25500000000E-02 0.  1.
    5000001    1    1    2    0    0  0.93438494338E+02  0.19060784490E+03 -0.10206934439E+04  0.10555104022E+04  0.16500000000E+03 0.  0.
   -5000001    1    1    2    0    0 -0.93438494338E+02 -0.19060784490E+03 -0.37958824907E+03  0.46516055464E+03  0.16500000000E+03 0.  0.
<mgrwt>
<rscale>  0 0.59300197E+03</rscale>
<asrwt>0</asrwt>
<pdfrwt beam="1">  1        2 0.22468864E+00 0.59300197E+03</pdfrwt>
<pdfrwt beam="2">  1       -2 0.92607137E-02 0.59300197E+03</pdfrwt>
<totfact> 0.10577721E+03</totfact>
</mgrwt>
</event>
<event>
 4    1  0.9064384E-005  0.4263671E+03  0.7818608E-02  0.1035014E+00
          2   -1    0    0  501    0  0.00000000000E+00  0.00000000000E+00  0.24256390738E+03  0.24256390740E+03  0.25500000000E-02 0.  1.
         -2   -1    0    0    0  501 -0.00000000000E+00 -0.00000000000E+00 -0.18736183175E+03  0.18736183177E+03  0.25500000000E-02 0. -1.
    5000001    1    1    2    0    0 -0.12176889813E+03 -0.57397899370E+02  0.17515828043E+02  0.21366793778E+03  0.16500000000E+03 0.  0.
   -5000001    1    1    2    0    0  0.12176889813E+03  0.57397899370E+02  0.37686247586E+02  0.21625780139E+03  0.16500000000E+03 0.  0.
<mgrwt>
<rscale>  0 0.42636706E+03</rscale>
<asrwt>0</asrwt>
<pdfrwt beam="1">  1        2 0.37317524E-01 0.42636706E+03</pdfrwt>
<pdfrwt beam="2">  1       -2 0.28824897E-01 0.42636706E+03</pdfrwt>
<totfact> 0.15275927E+03</totfact>
</mgrwt>
</event>
<event>
 4    1  0.9064384E-005  0.4754666E+03  0.7818608E-02  0.1020389E+00
         -2   -1    0    0    0  501 -0.00000000000E+00  0.00000000000E+00  0.41343018150E+02  0.41343018229E+02  0.25500000000E-02 0. -1.
          2   -1    0    0  501    0  0.00000000000E+00 -0.00000000000E+00 -0.13670295692E+04  0.13670295692E+04  0.25500000000E-02 0.  1.
    5000001    1    1    2    0    0 -0.95336465969E+01  0.17085596158E+03 -0.65372393834E+03  0.69560235594E+03  0.16500000000E+03 0.  0.
   -5000001    1    1    2    0    0  0.95336465969E+01 -0.17085596158E+03 -0.67196261267E+03  0.71277023146E+03  0.16500000000E+03 0.  0.
<mgrwt>
<rscale>  0 0.47546663E+03</rscale>
<asrwt>0</asrwt>
<pdfrwt beam="1">  1        2 0.21031221E+00 0.47546663E+03</pdfrwt>
<pdfrwt beam="2">  1       -2 0.63604654E-02 0.47546663E+03</pdfrwt>
<totfact> 0.21726806E+03</totfact>
</mgrwt>
</event>
<event>
 4    1  0.9064384E-005  0.1129033E+04  0.7818608E-02  0.9177348E-01
         -2   -1    0    0    0  501 -0.00000000000E+00  0.00000000000E+00  0.20625028774E+03  0.20625028775E+03  0.25500000000E-02 0. -1.
          2   -1    0    0  501    0  0.00000000000E+00 -0.00000000000E+00 -0.15451070805E+04  0.15451070805E+04  0.25500000000E-02 0.  1.
    5000001    1    1    2    0    0  0.30822072386E+03 -0.85641115191E+02  0.51558664659E+01  0.35998055251E+03  0.16500000000E+03 0.  0.
   -5000001    1    1    2    0    0 -0.30822072386E+03  0.85641115191E+02 -0.13440126593E+04  0.13913768158E+04  0.16500000000E+03 0.  0.
<mgrwt>
<rscale>  0 0.11290328E+04</rscale>
<asrwt>0</asrwt>
<pdfrwt beam="1">  1        2 0.23770877E+00 0.11290328E+04</pdfrwt>
<pdfrwt beam="2">  1       -2 0.31730814E-01 0.11290328E+04</pdfrwt>
<totfact> 0.10945244E+02</totfact>
</mgrwt>
</event>
<event>
 4    1  0.9064384E-005  0.4298508E+03  0.7818608E-02  0.1033907E+00
         -2   -1    0    0    0  501 -0.00000000000E+00  0.00000000000E+00  0.24420449333E+02  0.24420449466E+02  0.25500000000E-02 0. -1.
          2   -1    0    0  501    0  0.00000000000E+00 -0.00000000000E+00 -0.18915676682E+04  0.18915676682E+04  0.25500000000E-02 0.  1.
    5000001    1    1    2    0    0  0.12876530003E+03  0.36181524791E+02 -0.10799430284E+04  0.11006323409E+04  0.16500000000E+03 0.  0.
   -5000001    1    1    2    0    0 -0.12876530003E+03 -0.36181524791E+02 -0.78720419038E+03  0.81535577669E+03  0.16500000000E+03 0.  0.
<mgrwt>
<rscale>  0 0.42985082E+03</rscale>
<asrwt>0</asrwt>
<pdfrwt beam="1">  1        2 0.29101029E+00 0.42985082E+03</pdfrwt>
<pdfrwt beam="2">  1       -2 0.37569937E-02 0.42985082E+03</pdfrwt>
<totfact> 0.25437442E+03</totfact>
</mgrwt>
</event>
<event>
 4    1  0.9064384E-005  0.6062828E+03  0.7818608E-02  0.9892456E-01
          2   -1    0    0  501    0  0.00000000000E+00  0.00000000000E+00  0.16764762862E+03  0.16764762864E+03  0.25500000000E-02 0.  1.
         -2   -1    0    0    0  501 -0.00000000000E+00 -0.00000000000E+00 -0.54814201631E+03  0.54814201631E+03  0.25500000000E-02 0. -1.
    5000001    1    1    2    0    0  0.57099288398E+02 -0.20360398925E+03 -0.35702329167E+03  0.44654847885E+03  0.16500000000E+03 0.  0.
   -5000001    1    1    2    0    0 -0.57099288398E+02  0.20360398925E+03 -0.23471096022E+02  0.26924116610E+03  0.16500000000E+03 0.  0.
<mgrwt>
<rscale>  0 0.60628280E+03</rscale>
<asrwt>0</asrwt>
<pdfrwt beam="1">  1        2 0.25791943E-01 0.60628280E+03</pdfrwt>
<pdfrwt beam="2">  1       -2 0.84329540E-01 0.60628280E+03</pdfrwt>
<totfact> 0.26230013E+02</totfact>
</mgrwt>
</event>
<event>
 4    1  0.9064384E-005  0.3700346E+03  0.7818608E-02  0.1054680E+00
          2   -1    0    0  501    0  0.00000000000E+00  0.00000000000E+00  0.71321794772E+03  0.71321794772E+03  0.25500000000E-02 0.  1.
         -2   -1    0    0    0  501 -0.00000000000E+00 -0.00000000000E+00 -0.47995717517E+02  0.47995717585E+02  0.25500000000E-02 0. -1.
    5000001    1    1    2    0    0  0.83619345335E+02 -0.35247462862E+01  0.32986005929E+03  0.37820269362E+03  0.16500000000E+03 0.  0.
   -5000001    1    1    2    0    0 -0.83619345335E+02  0.35247462862E+01  0.33536217091E+03  0.38301097169E+03  0.16500000000E+03 0.  0.
<mgrwt>
<rscale>  0 0.37003463E+03</rscale>
<asrwt>0</asrwt>
<pdfrwt beam="1">  1        2 0.10972584E+00 0.37003463E+03</pdfrwt>
<pdfrwt beam="2">  1       -2 0.73839563E-02 0.37003463E+03</pdfrwt>
<totfact> 0.44161765E+03</totfact>
</mgrwt>
</event>
<event>
 4    1  0.9064384E-005  0.6861414E+03  0.7818608E-02  0.9741230E-01
          2   -1    0    0  501    0  0.00000000000E+00  0.00000000000E+00  0.56425369964E+03  0.56425369965E+03  0.25500000000E-02 0. -1.
         -2   -1    0    0    0  501 -0.00000000000E+00 -0.00000000000E+00 -0.20858972078E+03  0.20858972079E+03  0.25500000000E-02 0.  1.
    5000001    1    1    2    0    0  0.25295520466E+03 -0.11685068769E+03  0.30542496798E+03  0.44514023615E+03  0.16500000000E+03 0.  0.
   -5000001    1    1    2    0    0 -0.25295520466E+03  0.11685068769E+03  0.50239010880E+02  0.32770318429E+03  0.16500000000E+03 0.  0.
<mgrwt>
<rscale>  0 0.68614145E+03</rscale>
<asrwt>0</asrwt>
<pdfrwt beam="1">  1        2 0.86808261E-01 0.68614145E+03</pdfrwt>
<pdfrwt beam="2">  1       -2 0.32090726E-01 0.68614145E+03</pdfrwt>
<totfact> 0.48564490E+02</totfact>
</mgrwt>
</event>
<event>
 4    1  0.9064384E-005  0.5569516E+03  0.7818608E-02  0.9998976E-01
         -2   -1    0    0    0  501 -0.00000000000E+00  0.00000000000E+00  0.33009564812E+03  0.33009564813E+03  0.25500000000E-02 0. -1.
          2   -1    0    0  501    0  0.00000000000E+00 -0.00000000000E+00 -0.23492817303E+03  0.23492817304E+03  0.25500000000E-02 0.  1.
    5000001    1    1    2    0    0 -0.50219238131E+02 -0.21796583361E+03  0.30227562175E+02  0.27958859422E+03  0.16500000000E+03 0.  0.
   -5000001    1    1    2    0    0  0.50219238131E+02  0.21796583361E+03  0.64939912917E+02  0.28543522696E+03  0.16500000000E+03 0.  0.
<mgrwt>
<rscale>  0 0.55695159E+03</rscale>
<asrwt>0</asrwt>
<pdfrwt beam="1">  1        2 0.36142796E-01 0.55695159E+03</pdfrwt>
<pdfrwt beam="2">  1       -2 0.50783946E-01 0.55695159E+03</pdfrwt>
<totfact> 0.53308919E+02</totfact>
</mgrwt>
</event>
<event>
 4    1  0.9064384E-005  0.3567190E+03  0.7818608E-02  0.1059891E+00
          2   -1    0    0  501    0  0.00000000000E+00  0.00000000000E+00  0.25199176513E+04  0.25199176513E+04  0.25500000000E-02 0.  1.
         -2   -1    0    0    0  501 -0.00000000000E+00 -0.00000000000E+00 -0.12624268988E+02  0.12624269246E+02  0.25500000000E-02 0. -1.
    5000001    1    1    2    0    0 -0.62172978377E+01  0.58972665546E+02  0.14859534910E+04  0.14962617443E+04  0.16500000000E+03 0.  0.
   -5000001    1    1    2    0    0  0.62172978377E+01 -0.58972665546E+02  0.10213398913E+04  0.10362801762E+04  0.16500000000E+03 0.  0.
<mgrwt>
<rscale>  0 0.35671904E+03</rscale>
<asrwt>0</asrwt>
<pdfrwt beam="1">  1        2 0.38767976E+00 0.35671904E+03</pdfrwt>
<pdfrwt beam="2">  1       -2 0.19421947E-02 0.35671904E+03</pdfrwt>
<totfact> 0.31401276E+03</totfact>
</mgrwt>
</event>
<event>
 4    1  0.9064384E-005  0.3836158E+03  0.7818608E-02  0.1049605E+00
          2   -1    0    0  501    0  0.00000000000E+00  0.00000000000E+00  0.60889479548E+03  0.60889479549E+03  0.25500000000E-02 0.  1.
         -2   -1    0    0    0  501 -0.00000000000E+00 -0.00000000000E+00 -0.60421405861E+02  0.60421405915E+02  0.25500000000E-02 0. -1.
    5000001    1    1    2    0    0 -0.44740642846E+02  0.61871303346E+02  0.38087394860E+03  0.42204235335E+03  0.16500000000E+03 0.  0.
   -5000001    1    1    2    0    0  0.44740642846E+02 -0.61871303346E+02  0.16759944102E+03  0.24727384805E+03  0.16500000000E+03 0.  0.
<mgrwt>
<rscale>  0 0.38361585E+03</rscale>
<asrwt>0</asrwt>
<pdfrwt beam="1">  1        2 0.93676125E-01 0.38361585E+03</pdfrwt>
<pdfrwt beam="2">  1       -2 0.92956006E-02 0.38361585E+03</pdfrwt>
<totfact> 0.37177320E+03</totfact>
</mgrwt>
</event>
<event>
 4    1  0.9064384E-005  0.5296438E+03  0.7818608E-02  0.1006319E+00
          2   -1    0    0  501    0  0.00000000000E+00  0.00000000000E+00  0.10380930423E+04  0.10380930423E+04  0.25500000000E-02 0.  1.
         -2   -1    0    0    0  501 -0.00000000000E+00 -0.00000000000E+00 -0.67557182211E+02  0.67557182259E+02  0.25500000000E-02 0. -1.
    5000001    1    1    2    0    0 -0.15071827647E+02 -0.82003674749E+02  0.88109612911E+03  0.90028170669E+03  0.16500000000E+03 0.  0.
   -5000001    1    1    2    0    0  0.15071827647E+02  0.82003674749E+02  0.89439730995E+02  0.20536851789E+03  0.16500000000E+03 0.  0.
<mgrwt>
<rscale>  0 0.52964381E+03</rscale>
<asrwt>0</asrwt>
<pdfrwt beam="1">  1        2 0.15970661E+00 0.52964381E+03</pdfrwt>
<pdfrwt beam="2">  1       -2 0.10393413E-01 0.52964381E+03</pdfrwt>
<totfact> 0.15474161E+03</totfact>
</mgrwt>
</event>
<event>
 4    1  0.9064384E-005  0.4695464E+03  0.7818608E-02  0.1022048E+00
          2   -1    0    0  501    0  0.00000000000E+00  0.00000000000E+00  0.32479643883E+04  0.32479643883E+04  0.25500000000E-02 0.  1.
         -2   -1    0    0    0  501 -0.00000000000E+00 -0.00000000000E+00 -0.16970153846E+02  0.16970154038E+02  0.25500000000E-02 0. -1.
    5000001    1    1    2    0    0  0.12447825374E+03  0.10608730695E+03  0.18506923884E+04  0.18652175929E+04  0.16500000000E+03 0.  0.
   -5000001    1    1    2    0    0 -0.12447825374E+03 -0.10608730695E+03  0.13803018461E+04  0.13997169495E+04  0.16500000000E+03 0.  0.
<mgrwt>
<rscale>  0 0.46954640E+03</rscale>
<asrwt>0</asrwt>
<pdfrwt beam="1">  1        2 0.49968677E+00 0.46954640E+03</pdfrwt>
<pdfrwt beam="2">  1       -2 0.26107932E-02 0.46954640E+03</pdfrwt>
<totfact> 0.74173033E+02</totfact>
</mgrwt>
</event>
<event>
 4    1  0.9064384E-005  0.4347696E+03  0.7818608E-02  0.1032364E+00
          2   -1    0    0  501    0  0.00000000000E+00  0.00000000000E+00  0.10923298809E+04  0.10923298809E+04  0.25500000000E-02 0.  1.
         -2   -1    0    0    0  501 -0.00000000000E+00 -0.00000000000E+00 -0.43261786609E+02  0.43261786684E+02  0.25500000000E-02 0. -1.
    5000001    1    1    2    0    0  0.13489948780E+03 -0.31820399867E+02  0.59936200816E+03  0.63692246505E+03  0.16500000000E+03 0.  0.
   -5000001    1    1    2    0    0 -0.13489948780E+03  0.31820399867E+02  0.44970608610E+03  0.49866920251E+03  0.16500000000E+03 0.  0.
<mgrwt>
<rscale>  0 0.43476956E+03</rscale>
<asrwt>0</asrwt>
<pdfrwt beam="1">  1        2 0.16805074E+00 0.43476956E+03</pdfrwt>
<pdfrwt beam="2">  1       -2 0.66556599E-02 0.43476956E+03</pdfrwt>
<totfact> 0.29172286E+03</totfact>
</mgrwt>
</event>
<event>
 4    1  0.9064384E-005  0.6975152E+03  0.7818608E-02  0.9721491E-01
          2   -1    0    0  501    0  0.00000000000E+00  0.00000000000E+00  0.98501808422E+03  0.98501808422E+03  0.25500000000E-02 0.  1.
         -2   -1    0    0    0  501 -0.00000000000E+00 -0.00000000000E+00 -0.12348187408E+03  0.12348187410E+03  0.25500000000E-02 0. -1.
    5000001    1    1    2    0    0  0.88285076407E+02  0.56155431893E+02  0.88988054969E+03  0.91107633048E+03  0.16500000000E+03 0.  0.
   -5000001    1    1    2    0    0 -0.88285076407E+02 -0.56155431893E+02 -0.28344339545E+02  0.19742362784E+03  0.16500000000E+03 0.  0.
<mgrwt>
<rscale>  0 0.69751524E+03</rscale>
<asrwt>0</asrwt>
<pdfrwt beam="1">  1        2 0.15154123E+00 0.69751524E+03</pdfrwt>
<pdfrwt beam="2">  1       -2 0.18997213E-01 0.69751524E+03</pdfrwt>
<totfact> 0.60555567E+02</totfact>
</mgrwt>
</event>
<event>
 4    1  0.9064384E-005  0.4674658E+03  0.7818608E-02  0.1022638E+00
         -2   -1    0    0    0  501 -0.00000000000E+00  0.00000000000E+00  0.16840828130E+02  0.16840828323E+02  0.25500000000E-02 0. -1.
          2   -1    0    0  501    0  0.00000000000E+00 -0.00000000000E+00 -0.32439662387E+04  0.32439662387E+04  0.25500000000E-02 0.  1.
    5000001    1    1    2    0    0 -0.86275166038E+02  0.14126441937E+03 -0.16320678334E+04  0.16487175177E+04  0.16500000000E+03 0.  0.
   -5000001    1    1    2    0    0  0.86275166038E+02 -0.14126441937E+03 -0.15950575772E+04  0.16120895493E+04  0.16500000000E+03 0.  0.
<mgrwt>
<rscale>  0 0.46746584E+03</rscale>
<asrwt>0</asrwt>
<pdfrwt beam="1">  1        2 0.49907123E+00 0.46746584E+03</pdfrwt>
<pdfrwt beam="2">  1       -2 0.25908992E-02 0.46746584E+03</pdfrwt>
<totfact> 0.75492165E+02</totfact>
</mgrwt>
</event>
<event>
 4    1  0.9064384E-005  0.6378014E+03  0.7818608E-02  0.9829942E-01
         -2   -1    0    0    0  501 -0.00000000000E+00  0.00000000000E+00  0.63058491918E+02  0.63058491969E+02  0.25500000000E-02 0. -1.
          2   -1    0    0  501    0  0.00000000000E+00 -0.00000000000E+00 -0.16127513164E+04  0.16127513164E+04  0.25500000000E-02 0.  1.
    5000001    1    1    2    0    0 -0.11826068828E+03  0.11683608109E+03 -0.20621477504E+03  0.31206696987E+03  0.16500000000E+03 0.  0.
   -5000001    1    1    2    0    0  0.11826068828E+03 -0.11683608109E+03 -0.13434780494E+04  0.13637428385E+04  0.16500000000E+03 0.  0.
<mgrwt>
<rscale>  0 0.63780143E+03</rscale>
<asrwt>0</asrwt>
<pdfrwt beam="1">  1        2 0.24811556E+00 0.63780143E+03</pdfrwt>
<pdfrwt beam="2">  1       -2 0.97013076E-02 0.63780143E+03</pdfrwt>
<totfact> 0.80712040E+02</totfact>
</mgrwt>
</event>
<event>
 4    1  0.9064384E-005  0.3739510E+03  0.7818608E-02  0.1053192E+00
          2   -1    0    0  501    0  0.00000000000E+00  0.00000000000E+00  0.45438964275E+03  0.45438964275E+03  0.25500000000E-02 0.  1.
         -2   -1    0    0    0  501 -0.00000000000E+00 -0.00000000000E+00 -0.76938001484E+02  0.76938001526E+02  0.25500000000E-02 0. -1.
    5000001    1    1    2    0    0 -0.72168540312E+02 -0.41045722762E+02  0.22994956445E+03  0.29494889686E+03  0.16500000000E+03 0.  0.
   -5000001    1    1    2    0    0  0.72168540312E+02  0.41045722762E+02  0.14750207681E+03  0.23637874742E+03  0.16500000000E+03 0.  0.
<mgrwt>
<rscale>  0 0.37395096E+03</rscale>
<asrwt>0</asrwt>
<pdfrwt beam="1">  1        2 0.69906099E-01 0.37395096E+03</pdfrwt>
<pdfrwt beam="2">  1       -2 0.11836616E-01 0.37395096E+03</pdfrwt>
<totfact> 0.35217997E+03</totfact>
</mgrwt>
</event>
<event>
 4    1  0.9064384E-005  0.5137664E+03  0.7818608E-02  0.1010247E+00
         -2   -1    0    0    0  501 -0.00000000000E+00  0.00000000000E+00  0.72995038291E+02  0.72995038335E+02  0.25500000000E-02 0. -1.
          2   -1    0    0  501    0  0.00000000000E+00 -0.00000000000E+00 -0.90402017348E+03  0.90402017349E+03  0.25500000000E-02 0.  1.
    5000001    1    1    2    0    0 -0.11877497556E+03  0.13368565177E+03 -0.25887390465E+03  0.35527460762E+03  0.16500000000E+03 0.  0.
   -5000001    1    1    2    0    0  0.11877497556E+03 -0.13368565177E+03 -0.57215123054E+03  0.62174060420E+03  0.16500000000E+03 0.  0.
<mgrwt>
<rscale>  0 0.51376643E+03</rscale>
<asrwt>0</asrwt>
<pdfrwt beam="1">  1        2 0.13908002E+00 0.51376643E+03</pdfrwt>
<pdfrwt beam="2">  1       -2 0.11230006E-01 0.51376643E+03</pdfrwt>
<totfact> 0.16623694E+03</totfact>
</mgrwt>
</event>
<event>
 4    1  0.9064384E-005  0.5349609E+03  0.7818608E-02  0.1005036E+00
         -2   -1    0    0    0  501 -0.00000000000E+00  0.00000000000E+00  0.63082906717E+03  0.63082906717E+03  0.25500000000E-02 0. -1.
          2   -1    0    0  501    0  0.00000000000E+00 -0.00000000000E+00 -0.11341550600E+03  0.11341550603E+03  0.25500000000E-02 0.  1.
    5000001    1    1    2    0    0 -0.12524044419E+03 -0.10795469264E+03  0.77413990854E+02  0.24608395012E+03  0.16500000000E+03 0.  0.
   -5000001    1    1    2    0    0  0.12524044419E+03  0.10795469264E+03  0.43999957031E+03  0.49816062309E+03  0.16500000000E+03 0.  0.
<mgrwt>
<rscale>  0 0.53496093E+03</rscale>
<asrwt>0</asrwt>
<pdfrwt beam="1">  1        2 0.17448540E-01 0.53496093E+03</pdfrwt>
<pdfrwt beam="2">  1       -2 0.97050624E-01 0.53496093E+03</pdfrwt>
<totfact> 0.29970218E+02</totfact>
</mgrwt>
</event>
<event>
 4    1  0.9064384E-005  0.1131035E+04  0.7818608E-02  0.9175460E-01
         -2   -1    0    0    0  501 -0.00000000000E+00  0.00000000000E+00  0.22534564793E+03  0.22534564794E+03  0.25500000000E-02 0. -1.
          2   -1    0    0  501    0  0.00000000000E+00 -0.00000000000E+00 -0.14191983544E+04  0.14191983544E+04  0.25500000000E-02 0.  1.
    5000001    1    1    2    0    0  0.37429032657E+03  0.27663851747E+03 -0.19617907979E+03  0.53135049568E+03  0.16500000000E+03 0.  0.
   -5000001    1    1    2    0    0 -0.37429032657E+03 -0.27663851747E+03 -0.99767362664E+03  0.11131935066E+04  0.16500000000E+03 0.  0.
<mgrwt>
<rscale>  0 0.11310352E+04</rscale>
<asrwt>0</asrwt>
<pdfrwt beam="1">  1        2 0.21833820E+00 0.11310352E+04</pdfrwt>
<pdfrwt beam="2">  1       -2 0.34668562E-01 0.11310352E+04</pdfrwt>
<totfact> 0.10899804E+02</totfact>
</mgrwt>
</event>
<event>
 4    1  0.9064384E-005  0.5762159E+03  0.7818608E-02  0.9956017E-01
          2   -1    0    0  501    0  0.00000000000E+00  0.00000000000E+00  0.83681129371E+03  0.83681129372E+03  0.25500000000E-02 0.  1.
         -2   -1    0    0    0  501 -0.00000000000E+00 -0.00000000000E+00 -0.99193428300E+02  0.99193428333E+02  0.25500000000E-02 0. -1.
    5000001    1    1    2    0    0 -0.83862160022E+02  0.19863071202E+03  0.52541114268E+03  0.59141262287E+03  0.16500000000E+03 0.  0.
   -5000001    1    1    2    0    0  0.83862160022E+02 -0.19863071202E+03  0.21220672273E+03  0.34459209917E+03  0.16500000000E+03 0.  0.
<mgrwt>
<rscale>  0 0.57621587E+03</rscale>
<asrwt>0</asrwt>
<pdfrwt beam="1">  1        2 0.12874020E+00 0.57621587E+03</pdfrwt>
<pdfrwt beam="2">  1       -2 0.15260527E-01 0.57621587E+03</pdfrwt>
<totfact> 0.11092499E+03</totfact>
</mgrwt>
</event>
<event>
 4    1  0.9064384E-005  0.6486444E+03  0.7818608E-02  0.9809326E-01
         -2   -1    0    0    0  501 -0.00000000000E+00  0.00000000000E+00  0.83013959886E+02  0.83013959925E+02  0.25500000000E-02 0. -1.
          2   -1    0    0  501    0  0.00000000000E+00 -0.00000000000E+00 -0.12670748233E+04  0.12670748233E+04  0.25500000000E-02 0.  1.
    5000001    1    1    2    0    0 -0.11443115923E+03 -0.19614096638E+03 -0.25388049514E+03  0.37847863177E+03  0.16500000000E+03 0.  0.
   -5000001    1    1    2    0    0  0.11443115923E+03  0.19614096638E+03 -0.93018036823E+03  0.97161015142E+03  0.16500000000E+03 0.  0.
<mgrwt>
<rscale>  0 0.64864443E+03</rscale>
<asrwt>0</asrwt>
<pdfrwt beam="1">  1        2 0.19493457E+00 0.64864443E+03</pdfrwt>
<pdfrwt beam="2">  1       -2 0.12771379E-01 0.64864443E+03</pdfrwt>
<totfact> 0.80281320E+02</totfact>
</mgrwt>
</event>
<event>
 4    1  0.9064384E-005  0.3954041E+03  0.7818608E-02  0.1045383E+00
         -2   -1    0    0    0  501 -0.00000000000E+00  0.00000000000E+00  0.20401117598E+03  0.20401117600E+03  0.25500000000E-02 0. -1.
          2   -1    0    0  501    0  0.00000000000E+00 -0.00000000000E+00 -0.19158800418E+03  0.19158800420E+03  0.25500000000E-02 0.  1.
    5000001    1    1    2    0    0 -0.85048317107E+02 -0.61195460614E+02 -0.23518282021E+02  0.19686597022E+03  0.16500000000E+03 0.  0.
   -5000001    1    1    2    0    0  0.85048317107E+02  0.61195460614E+02  0.35941453821E+02  0.19873320997E+03  0.16500000000E+03 0.  0.
<mgrwt>
<rscale>  0 0.39540407E+03</rscale>
<asrwt>0</asrwt>
<pdfrwt beam="1">  1        2 0.29475078E-01 0.39540407E+03</pdfrwt>
<pdfrwt beam="2">  1       -2 0.31386335E-01 0.39540407E+03</pdfrwt>
<totfact> 0.16946244E+03</totfact>
</mgrwt>
</event>
<event>
 4    1  0.9064384E-005  0.5012304E+03  0.7818608E-02  0.1013458E+00
         -2   -1    0    0    0  501 -0.00000000000E+00  0.00000000000E+00  0.17787956438E+02  0.17787956621E+02  0.25500000000E-02 0. -1.
          2   -1    0    0  501    0  0.00000000000E+00 -0.00000000000E+00 -0.35309276254E+04  0.35309276254E+04  0.25500000000E-02 0.  1.
    5000001    1    1    2    0    0  0.14146682348E+03 -0.86595808049E+02 -0.23926403473E+04  0.24040516899E+04  0.16500000000E+03 0.  0.
   -5000001    1    1    2    0    0 -0.14146682348E+03  0.86595808049E+02 -0.11204993217E+04  0.11446638922E+04  0.16500000000E+03 0.  0.
<mgrwt>
<rscale>  0 0.50123043E+03</rscale>
<asrwt>0</asrwt>
<pdfrwt beam="1">  1        2 0.54321908E+00 0.50123043E+03</pdfrwt>
<pdfrwt beam="2">  1       -2 0.27366115E-02 0.50123043E+03</pdfrwt>
<totfact> 0.44846046E+02</totfact>
</mgrwt>
</event>
<event>
 4    1  0.9064384E-005  0.4927923E+03  0.7818608E-02  0.1015678E+00
         -2   -1    0    0    0  501 -0.00000000000E+00  0.00000000000E+00  0.11122941887E+04  0.11122941887E+04  0.25500000000E-02 0. -1.
          2   -1    0    0  501    0  0.00000000000E+00 -0.00000000000E+00 -0.54581844790E+02  0.54581844849E+02  0.25500000000E-02 0.  1.
    5000001    1    1    2    0    0  0.17945929416E+03 -0.13596072297E+02  0.45048031355E+03  0.51239438360E+03  0.16500000000E+03 0.  0.
   -5000001    1    1    2    0    0 -0.17945929416E+03  0.13596072297E+02  0.60723203039E+03  0.65448164999E+03  0.16500000000E+03 0.  0.
<mgrwt>
<rscale>  0 0.49279232E+03</rscale>
<asrwt>0</asrwt>
<pdfrwt beam="1">  1        2 0.83972068E-02 0.49279232E+03</pdfrwt>
<pdfrwt beam="2">  1       -2 0.17112218E+00 0.49279232E+03</pdfrwt>
<totfact> 0.17788701E+02</totfact>
</mgrwt>
</event>
<event>
 4    1  0.9064384E-005  0.4592125E+03  0.7818608E-02  0.1025010E+00
         -2   -1    0    0    0  501 -0.00000000000E+00  0.00000000000E+00  0.18719420461E+03  0.18719420463E+03  0.25500000000E-02 0. -1.
          2   -1    0    0  501    0  0.00000000000E+00 -0.00000000000E+00 -0.28162748684E+03  0.28162748685E+03  0.25500000000E-02 0.  1.
    5000001    1    1    2    0    0  0.60503143459E+02 -0.10547318547E+02  0.10325181244E+03  0.20410245728E+03  0.16500000000E+03 0.  0.
   -5000001    1    1    2    0    0 -0.60503143459E+02  0.10547318547E+02 -0.19768509467E+03  0.26471923420E+03  0.16500000000E+03 0.  0.
<mgrwt>
<rscale>  0 0.45921251E+03</rscale>
<asrwt>0</asrwt>
<pdfrwt beam="1">  1        2 0.43327306E-01 0.45921251E+03</pdfrwt>
<pdfrwt beam="2">  1       -2 0.28799108E-01 0.45921251E+03</pdfrwt>
<totfact> 0.12996160E+03</totfact>
</mgrwt>
</event>
<event>
 4    1  0.9064384E-005  0.6462526E+03  0.7818608E-02  0.9813836E-01
          2   -1    0    0  501    0  0.00000000000E+00  0.00000000000E+00  0.23706387842E+04  0.23706387842E+04  0.25500000000E-02 0.  1.
         -2   -1    0    0    0  501 -0.00000000000E+00 -0.00000000000E+00 -0.44043242620E+02  0.44043242694E+02  0.25500000000E-02 0. -1.
    5000001    1    1    2    0    0 -0.14554625135E+03  0.22166597996E+03  0.85368938103E+03  0.90902699478E+03  0.16500000000E+03 0.  0.
   -5000001    1    1    2    0    0  0.14554625135E+03 -0.22166597996E+03  0.14729061606E+04  0.15056550321E+04  0.16500000000E+03 0.  0.
<mgrwt>
<rscale>  0 0.64625264E+03</rscale>
<asrwt>0</asrwt>
<pdfrwt beam="1">  1        2 0.36471382E+00 0.64625264E+03</pdfrwt>
<pdfrwt beam="2">  1       -2 0.67758804E-02 0.64625264E+03</pdfrwt>
<totfact> 0.55226690E+02</totfact>
</mgrwt>
</event>
<event>
 4    1  0.9064384E-005  0.7887165E+03  0.7818608E-02  0.9576495E-01
         -2   -1    0    0    0  501 -0.00000000000E+00  0.00000000000E+00  0.76005140548E+02  0.76005140591E+02  0.25500000000E-02 0. -1.
          2   -1    0    0  501    0  0.00000000000E+00 -0.00000000000E+00 -0.20461565816E+04  0.20461565816E+04  0.25500000000E-02 0.  1.
    5000001    1    1    2    0    0 -0.10345417206E+03  0.34253380708E+03 -0.10285648439E+04  0.11014548619E+04  0.16500000000E+03 0.  0.
   -5000001    1    1    2    0    0  0.10345417206E+03 -0.34253380708E+03 -0.94158659725E+03  0.10207068604E+04  0.16500000000E+03 0.  0.
<mgrwt>
<rscale>  0 0.78871647E+03</rscale>
<asrwt>0</asrwt>
<pdfrwt beam="1">  1        2 0.31479328E+00 0.78871647E+03</pdfrwt>
<pdfrwt beam="2">  1       -2 0.11693100E-01 0.78871647E+03</pdfrwt>
<totfact> 0.34176933E+02</totfact>
</mgrwt>
</event>
<event>
 4    1  0.9064384E-005  0.4086765E+03  0.7818608E-02  0.1040816E+00
         -2   -1    0    0    0  501 -0.00000000000E+00  0.00000000000E+00  0.97414139358E+03  0.97414139359E+03  0.25500000000E-02 0. -1.
          2   -1    0    0  501    0  0.00000000000E+00 -0.00000000000E+00 -0.42862483047E+02  0.42862483123E+02  0.25500000000E-02 0.  1.
    5000001    1    1    2    0    0  0.60174073380E+02  0.72111337685E+02  0.27762518020E+03  0.33633570255E+03  0.16500000000E+03 0.  0.
   -5000001    1    1    2    0    0 -0.60174073380E+02 -0.72111337685E+02  0.65365373034E+03  0.68066817416E+03  0.16500000000E+03 0.  0.
<mgrwt>
<rscale>  0 0.40867649E+03</rscale>
<asrwt>0</asrwt>
<pdfrwt beam="1">  1        2 0.65942288E-02 0.40867649E+03</pdfrwt>
<pdfrwt beam="2">  1       -2 0.14986789E+00 0.40867649E+03</pdfrwt>
<totfact> 0.34804431E+02</totfact>
</mgrwt>
</event>
<event>
 4    1  0.9064384E-005  0.4954507E+03  0.7818608E-02  0.1014973E+00
         -2   -1    0    0    0  501 -0.00000000000E+00  0.00000000000E+00  0.17458363769E+02  0.17458363956E+02  0.25500000000E-02 0. -1.
          2   -1    0    0  501    0  0.00000000000E+00 -0.00000000000E+00 -0.35150971027E+04  0.35150971027E+04  0.25500000000E-02 0.  1.
    5000001    1    1    2    0    0  0.33000566248E+02  0.81436416509E+02 -0.29077854395E+04  0.29137882712E+04  0.16500000000E+03 0.  0.
   -5000001    1    1    2    0    0 -0.33000566248E+02 -0.81436416509E+02 -0.58985329947E+03  0.61876719548E+03  0.16500000000E+03 0.  0.
<mgrwt>
<rscale>  0 0.49545068E+03</rscale>
<asrwt>0</asrwt>
<pdfrwt beam="1">  1        2 0.54078361E+00 0.49545068E+03</pdfrwt>
<pdfrwt beam="2">  1       -2 0.26859049E-02 0.49545068E+03</pdfrwt>
<totfact> 0.47324165E+02</totfact>
</mgrwt>
</event>
<event>
 4    1  0.9064384E-005  0.4683484E+03  0.7818608E-02  0.1022387E+00
         -2   -1    0    0    0  501 -0.00000000000E+00  0.00000000000E+00  0.60034530265E+02  0.60034530319E+02  0.25500000000E-02 0. -1.
          2   -1    0    0  501    0  0.00000000000E+00 -0.00000000000E+00 -0.91343361148E+03  0.91343361148E+03  0.25500000000E-02 0.  1.
    5000001    1    1    2    0    0  0.14562596090E+03 -0.76012893669E+02 -0.47877353797E+03  0.53238518119E+03  0.16500000000E+03 0.  0.
   -5000001    1    1    2    0    0 -0.14562596090E+03  0.76012893669E+02 -0.37462554324E+03  0.44108296061E+03  0.16500000000E+03 0.  0.
<mgrwt>
<rscale>  0 0.46834841E+03</rscale>
<asrwt>0</asrwt>
<pdfrwt beam="1">  1        2 0.14052824E+00 0.46834841E+03</pdfrwt>
<pdfrwt beam="2">  1       -2 0.92360823E-02 0.46834841E+03</pdfrwt>
<totfact> 0.22484619E+03</totfact>
</mgrwt>
</event>
<event>
 4    1  0.9064384E-005  0.4655030E+03  0.7818608E-02  0.1023197E+00
         -2   -1    0    0    0  501 -0.00000000000E+00  0.00000000000E+00  0.14288313006E+04  0.14288313006E+04  0.25500000000E-02 0. -1.
          2   -1    0    0  501    0  0.00000000000E+00 -0.00000000000E+00 -0.37914390523E+02  0.37914390609E+02  0.25500000000E-02 0.  1.
    5000001    1    1    2    0    0  0.83058652690E+02 -0.11512872329E+03  0.43572732129E+03  0.48706946243E+03  0.16500000000E+03 0.  0.
   -5000001    1    1    2    0    0 -0.83058652690E+02  0.11512872329E+03  0.95518958879E+03  0.97967622879E+03  0.16500000000E+03 0.  0.
<mgrwt>
<rscale>  0 0.46550303E+03</rscale>
<asrwt>0</asrwt>
<pdfrwt beam="1">  1        2 0.58329830E-02 0.46550303E+03</pdfrwt>
<pdfrwt beam="2">  1       -2 0.21982021E+00 0.46550303E+03</pdfrwt>
<totfact> 0.13800034E+02</totfact>
</mgrwt>
</event>
<event>
 4    1  0.9064384E-005  0.4497894E+03  0.7818608E-02  0.1027785E+00
         -2   -1    0    0    0  501 -0.00000000000E+00  0.00000000000E+00  0.16940635151E+02  0.16940635343E+02  0.25500000000E-02 0. -1.
          2   -1    0    0  501    0  0.00000000000E+00 -0.00000000000E+00 -0.29855798824E+04  0.29855798824E+04  0.25500000000E-02 0.  1.
    5000001    1    1    2    0    0 -0.10817980346E+03  0.10711558287E+03 -0.13957600781E+04  0.14137000437E+04  0.16500000000E+03 0.  0.
   -5000001    1    1    2    0    0  0.10817980346E+03 -0.10711558287E+03 -0.15728791692E+04  0.15888204741E+04  0.16500000000E+03 0.  0.
<mgrwt>
<rscale>  0 0.44978937E+03</rscale>
<asrwt>0</asrwt>
<pdfrwt beam="1">  1        2 0.45931956E+00 0.44978937E+03</pdfrwt>
<pdfrwt beam="2">  1       -2 0.26062539E-02 0.44978937E+03</pdfrwt>
<totfact> 0.10823379E+03</totfact>
</mgrwt>
</event>
<event>
 4    1  0.9064384E-005  0.4563581E+03  0.7818608E-02  0.1025843E+00
         -2   -1    0    0    0  501 -0.00000000000E+00  0.00000000000E+00  0.11577142493E+03  0.11577142495E+03  0.25500000000E-02 0.  1.
          2   -1    0    0  501    0  0.00000000000E+00 -0.00000000000E+00 -0.44972818858E+03  0.44972818859E+03  0.25500000000E-02 0. -1.
    5000001    1    1    2    0    0  0.12085757595E+03  0.79238056732E+02 -0.24491194240E+03  0.32877360421E+03  0.16500000000E+03 0.  0.
   -5000001    1    1    2    0    0 -0.12085757595E+03 -0.79238056732E+02 -0.89044821257E+02  0.23672600933E+03  0.16500000000E+03 0.  0.
<mgrwt>
<rscale>  0 0.45635808E+03</rscale>
<asrwt>0</asrwt>
<pdfrwt beam="1">  1        2 0.69188951E-01 0.45635808E+03</pdfrwt>
<pdfrwt beam="2">  1       -2 0.17810989E-01 0.45635808E+03</pdfrwt>
<totfact> 0.18089075E+03</totfact>
</mgrwt>
</event>
<event>
 4    1  0.9064384E-005  0.6687664E+03  0.7818608E-02  0.9772189E-01
         -2   -1    0    0    0  501 -0.00000000000E+00  0.00000000000E+00  0.12668082755E+03  0.12668082758E+03  0.25500000000E-02 0. -1.
          2   -1    0    0  501    0  0.00000000000E+00 -0.00000000000E+00 -0.88262859646E+03  0.88262859646E+03  0.25500000000E-02 0.  1.
    5000001    1    1    2    0    0 -0.80786975301E+02  0.11128816052E+03  0.87951409049E+01  0.21497428812E+03  0.16500000000E+03 0.  0.
   -5000001    1    1    2    0    0  0.80786975301E+02 -0.11128816052E+03 -0.76474290981E+03  0.79433513592E+03  0.16500000000E+03 0.  0.
<mgrwt>
<rscale>  0 0.66876639E+03</rscale>
<asrwt>0</asrwt>
<pdfrwt beam="1">  1        2 0.13578901E+00 0.66876639E+03</pdfrwt>
<pdfrwt beam="2">  1       -2 0.19489359E-01 0.66876639E+03</pdfrwt>
<totfact> 0.67712385E+02</totfact>
</mgrwt>
</event>
<event>
 4    1  0.9064384E-005  0.4504502E+03  0.7818608E-02  0.1027588E+00
          2   -1    0    0  501    0  0.00000000000E+00  0.00000000000E+00  0.13379064556E+04  0.13379064556E+04  0.25500000000E-02 0.  1.
         -2   -1    0    0    0  501 -0.00000000000E+00 -0.00000000000E+00 -0.37914722421E+02  0.37914722506E+02  0.25500000000E-02 0. -1.
    5000001    1    1    2    0    0 -0.29812340283E+02 -0.13732374005E+03  0.83715311871E+03  0.86475252493E+03  0.16500000000E+03 0.  0.
   -5000001    1    1    2    0    0  0.29812340283E+02  0.13732374005E+03  0.46283861446E+03  0.51106865316E+03  0.16500000000E+03 0.  0.
<mgrwt>
<rscale>  0 0.45045023E+03</rscale>
<asrwt>0</asrwt>
<pdfrwt beam="1">  1        2 0.20583174E+00 0.45045023E+03</pdfrwt>
<pdfrwt beam="2">  1       -2 0.58330347E-02 0.45045023E+03</pdfrwt>
<totfact> 0.25827693E+03</totfact>
</mgrwt>
</event>
<event>
 4    1  0.9064384E-005  0.4550327E+03  0.7818608E-02  0.1026232E+00
          2   -1    0    0  501    0  0.00000000000E+00  0.00000000000E+00  0.58668887134E+03  0.58668887134E+03  0.25500000000E-02 0.  1.
         -2   -1    0    0    0  501 -0.00000000000E+00 -0.00000000000E+00 -0.88230236564E+02  0.88230236601E+02  0.25500000000E-02 0. -1.
    5000001    1    1    2    0    0 -0.15594855551E+03  0.12104041980E+02  0.23662288186E+03  0.32814912466E+03  0.16500000000E+03 0.  0.
   -5000001    1    1    2    0    0  0.15594855551E+03 -0.12104041980E+02  0.26183575292E+03  0.34676998328E+03  0.16500000000E+03 0.  0.
<mgrwt>
<rscale>  0 0.45503274E+03</rscale>
<asrwt>0</asrwt>
<pdfrwt beam="1">  1        2 0.90259830E-01 0.45503274E+03</pdfrwt>
<pdfrwt beam="2">  1       -2 0.13573882E-01 0.45503274E+03</pdfrwt>
<totfact> 0.21042202E+03</totfact>
</mgrwt>
</event>
<event>
 4    1  0.9064384E-005  0.1094646E+04  0.7818608E-02  0.9210426E-01
          2   -1    0    0  501    0  0.00000000000E+00  0.00000000000E+00  0.22002595674E+04  0.22002595674E+04  0.25500000000E-02 0.  1.
         -2   -1    0    0    0  501 -0.00000000000E+00 -0.00000000000E+00 -0.13614859671E+03  0.13614859673E+03  0.25500000000E-02 0. -1.
    5000001    1    1    2    0    0 -0.47150612987E+03  0.15809965174E+03  0.69441763215E+03  0.86991630530E+03  0.16500000000E+03 0.  0.
   -5000001    1    1    2    0    0  0.47150612987E+03 -0.15809965174E+03  0.13696933386E+04  0.14664918589E+04  0.16500000000E+03 0.  0.
<mgrwt>
<rscale>  0 0.10946456E+04</rscale>
<asrwt>0</asrwt>
<pdfrwt beam="1">  1        2 0.33850144E+00 0.10946456E+04</pdfrwt>
<pdfrwt beam="2">  1       -2 0.20945940E-01 0.10946456E+04</pdfrwt>
<totfact> 0.10145891E+02</totfact>
</mgrwt>
</event>
<event>
 4    1  0.9064384E-005  0.6395121E+03  0.7818608E-02  0.9826660E-01
         -2   -1    0    0    0  501 -0.00000000000E+00  0.00000000000E+00  0.32001661638E+03  0.32001661639E+03  0.25500000000E-02 0. -1.
          2   -1    0    0  501    0  0.00000000000E+00 -0.00000000000E+00 -0.31949572749E+03  0.31949572750E+03  0.25500000000E-02 0.  1.
    5000001    1    1    2    0    0  0.17423014771E+03 -0.16472249974E+03  0.13265873371E+03  0.31986401161E+03  0.16500000000E+03 0.  0.
   -5000001    1    1    2    0    0 -0.17423014771E+03  0.16472249974E+03 -0.13213784482E+03  0.31964833228E+03  0.16500000000E+03 0.  0.
<mgrwt>
<rscale>  0 0.63951213E+03</rscale>
<asrwt>0</asrwt>
<pdfrwt beam="1">  1        2 0.49153189E-01 0.63951213E+03</pdfrwt>
<pdfrwt beam="2">  1       -2 0.49233326E-01 0.63951213E+03</pdfrwt>
<totfact> 0.40336917E+02</totfact>
</mgrwt>
</event>
<event>
 4    1  0.9064384E-005  0.1639275E+04  0.7818608E-02  0.8796777E-01
          2   -1    0    0  501    0  0.00000000000E+00  0.00000000000E+00  0.30621083809E+04  0.30621083809E+04  0.25500000000E-02 0.  1.
         -2   -1    0    0    0  501 -0.00000000000E+00 -0.00000000000E+00 -0.21939317378E+03  0.21939317380E+03  0.25500000000E-02 0. -1.
    5000001    1    1    2    0    0  0.46962205149E+03  0.51232241426E+03  0.22259756855E+04  0.23377792624E+04  0.16500000000E+03 0.  0.
   -5000001    1    1    2    0    0 -0.46962205149E+03 -0.51232241426E+03  0.61673952162E+03  0.94372229227E+03  0.16500000000E+03 0.  0.
<mgrwt>
<rscale>  0 0.16392751E+04</rscale>
<asrwt>0</asrwt>
<pdfrwt beam="1">  1        2 0.47109355E+00 0.16392751E+04</pdfrwt>
<pdfrwt beam="2">  1       -2 0.33752799E-01 0.16392751E+04</pdfrwt>
<totfact> 0.12564276E+01</totfact>
</mgrwt>
</event>
<event>
 4    1  0.9064384E-005  0.4107008E+03  0.7818608E-02  0.1040136E+00
         -2   -1    0    0    0  501 -0.00000000000E+00  0.00000000000E+00  0.42013342861E+02  0.42013342939E+02  0.25500000000E-02 0. -1.
          2   -1    0    0  501    0  0.00000000000E+00 -0.00000000000E+00 -0.10036997193E+04  0.10036997193E+04  0.25500000000E-02 0.  1.
    5000001    1    1    2    0    0  0.11531216541E+03  0.21157015849E+02 -0.56901803571E+03  0.60394622258E+03  0.16500000000E+03 0.  0.
   -5000001    1    1    2    0    0 -0.11531216541E+03 -0.21157015849E+02 -0.39266834073E+03  0.44176683966E+03  0.16500000000E+03 0.  0.
<mgrwt>
<rscale>  0 0.41070077E+03</rscale>
<asrwt>0</asrwt>
<pdfrwt beam="1">  1        2 0.15441532E+00 0.41070077E+03</pdfrwt>
<pdfrwt beam="2">  1       -2 0.64635920E-02 0.41070077E+03</pdfrwt>
<totfact> 0.34588504E+03</totfact>
</mgrwt>
</event>
<event>
 4    1  0.9064384E-005  0.3507553E+03  0.7818608E-02  0.1062305E+00
         -2   -1    0    0    0  501 -0.00000000000E+00  0.00000000000E+00  0.13153346489E+02  0.13153346736E+02  0.25500000000E-02 0. -1.
          2   -1    0    0  501    0  0.00000000000E+00 -0.00000000000E+00 -0.23383640123E+04  0.23383640123E+04  0.25500000000E-02 0.  1.
    5000001    1    1    2    0    0  0.51990854034E+02 -0.21750351276E+02 -0.12891320470E+04  0.13008699248E+04  0.16500000000E+03 0.  0.
   -5000001    1    1    2    0    0 -0.51990854034E+02  0.21750351276E+02 -0.10360786188E+04  0.10506474343E+04  0.16500000000E+03 0.  0.
<mgrwt>
<rscale>  0 0.35075526E+03</rscale>
<asrwt>0</asrwt>
<pdfrwt beam="1">  1        2 0.35974798E+00 0.35075526E+03</pdfrwt>
<pdfrwt beam="2">  1       -2 0.20235936E-02 0.35075526E+03</pdfrwt>
<totfact> 0.37176032E+03</totfact>
</mgrwt>
</event>
<event>
 4    1  0.9064384E-005  0.3376982E+03  0.7818608E-02  0.1067781E+00
          2   -1    0    0  501    0  0.00000000000E+00  0.00000000000E+00  0.11555536907E+04  0.11555536907E+04  0.25500000000E-02 0.  1.
         -2   -1    0    0    0  501 -0.00000000000E+00 -0.00000000000E+00 -0.24672175990E+02  0.24672176121E+02  0.25500000000E-02 0. -1.
    5000001    1    1    2    0    0 -0.20781549469E+02  0.15841266844E+02  0.65120548720E+03  0.67229190468E+03  0.16500000000E+03 0.  0.
   -5000001    1    1    2    0    0  0.20781549469E+02 -0.15841266844E+02  0.47967602747E+03  0.50793396211E+03  0.16500000000E+03 0.  0.
<mgrwt>
<rscale>  0 0.33769823E+03</rscale>
<asrwt>0</asrwt>
<pdfrwt beam="1">  1        2 0.17777749E+00 0.33769823E+03</pdfrwt>
<pdfrwt beam="2">  1       -2 0.37957194E-02 0.33769823E+03</pdfrwt>
<totfact> 0.63281010E+03</totfact>
</mgrwt>
</event>
<event>
 4    1  0.9064384E-005  0.4425135E+03  0.7818608E-02  0.1029978E+00
          2   -1    0    0  501    0  0.00000000000E+00  0.00000000000E+00  0.55556055489E+03  0.55556055489E+03  0.25500000000E-02 0.  1.
         -2   -1    0    0    0  501 -0.00000000000E+00 -0.00000000000E+00 -0.88117387210E+02  0.88117387247E+02  0.25500000000E-02 0. -1.
    5000001    1    1    2    0    0 -0.11280452290E+03 -0.93605068381E+02  0.25638599310E+03  0.33829801459E+03  0.16500000000E+03 0.  0.
   -5000001    1    1    2    0    0  0.11280452290E+03  0.93605068381E+02  0.21105717457E+03  0.30537992755E+03  0.16500000000E+03 0.  0.
<mgrwt>
<rscale>  0 0.44251348E+03</rscale>
<asrwt>0</asrwt>
<pdfrwt beam="1">  1        2 0.85470855E-01 0.44251348E+03</pdfrwt>
<pdfrwt beam="2">  1       -2 0.13556521E-01 0.44251348E+03</pdfrwt>
<totfact> 0.22473316E+03</totfact>
</mgrwt>
</event>
<event>
 4    1  0.9064384E-005  0.3938603E+03  0.7818608E-02  0.1045927E+00
         -2   -1    0    0    0  501 -0.00000000000E+00  0.00000000000E+00  0.23245457580E+02  0.23245457720E+02  0.25500000000E-02 0. -1.
          2   -1    0    0  501    0  0.00000000000E+00 -0.00000000000E+00 -0.16683467912E+04  0.16683467912E+04  0.25500000000E-02 0.  1.
    5000001    1    1    2    0    0 -0.10271950245E+03 -0.27697802533E+02 -0.88881203721E+03  0.91023639893E+03  0.16500000000E+03 0.  0.
   -5000001    1    1    2    0    0  0.10271950245E+03  0.27697802533E+02 -0.75628929637E+03  0.78135584996E+03  0.16500000000E+03 0.  0.
<mgrwt>
<rscale>  0 0.39386030E+03</rscale>
<asrwt>0</asrwt>
<pdfrwt beam="1">  1        2 0.25666864E+00 0.39386030E+03</pdfrwt>
<pdfrwt beam="2">  1       -2 0.35762256E-02 0.39386030E+03</pdfrwt>
<totfact> 0.36111389E+03</totfact>
</mgrwt>
</event>
<event>
 4    1  0.9064384E-005  0.4900688E+03  0.7818608E-02  0.1016404E+00
          2   -1    0    0  501    0  0.00000000000E+00  0.00000000000E+00  0.44630212636E+03  0.44630212637E+03  0.25500000000E-02 0.  1.
         -2   -1    0    0    0  501 -0.00000000000E+00 -0.00000000000E+00 -0.13453186913E+03  0.13453186915E+03  0.25500000000E-02 0. -1.
    5000001    1    1    2    0    0  0.17420725021E+03  0.30108909537E+02  0.10904092199E+03  0.26527275609E+03  0.16500000000E+03 0.  0.
   -5000001    1    1    2    0    0 -0.17420725021E+03 -0.30108909537E+02  0.20272933525E+03  0.31556123943E+03  0.16500000000E+03 0.  0.
<mgrwt>
<rscale>  0 0.49006881E+03</rscale>
<asrwt>0</asrwt>
<pdfrwt beam="1">  1        2 0.68661867E-01 0.49006881E+03</pdfrwt>
<pdfrwt beam="2">  1       -2 0.20697210E-01 0.49006881E+03</pdfrwt>
<totfact> 0.14086921E+03</totfact>
</mgrwt>
</event>
<event>
 4    1  0.9064384E-005  0.3590347E+03  0.7818608E-02  0.1058967E+00
          2   -1    0    0  501    0  0.00000000000E+00  0.00000000000E+00  0.36514367250E+03  0.36514367251E+03  0.25500000000E-02 0.  1.
         -2   -1    0    0    0  501 -0.00000000000E+00 -0.00000000000E+00 -0.88256983801E+02  0.88256983838E+02  0.25500000000E-02 0. -1.
    5000001    1    1    2    0    0  0.46316456225E+02 -0.46177241157E+02  0.10446570125E+03  0.20595056314E+03  0.16500000000E+03 0.  0.
   -5000001    1    1    2    0    0 -0.46316456225E+02  0.46177241157E+02  0.17242098744E+03  0.24745009321E+03  0.16500000000E+03 0.  0.
<mgrwt>
<rscale>  0 0.35903470E+03</rscale>
<asrwt>0</asrwt>
<pdfrwt beam="1">  1        2 0.56175949E-01 0.35903470E+03</pdfrwt>
<pdfrwt beam="2">  1       -2 0.13577998E-01 0.35903470E+03</pdfrwt>
<totfact> 0.35774991E+03</totfact>
</mgrwt>
</event>
<event>
 4    1  0.9064384E-005  0.5484340E+03  0.7818608E-02  0.1001857E+00
          2   -1    0    0  501    0  0.00000000000E+00  0.00000000000E+00  0.94287104679E+03  0.94287104680E+03  0.25500000000E-02 0.  1.
         -2   -1    0    0    0  501 -0.00000000000E+00 -0.00000000000E+00 -0.79751058051E+02  0.79751058092E+02  0.25500000000E-02 0. -1.
    5000001    1    1    2    0    0 -0.21513331395E+03  0.18376413437E+02  0.36305122760E+03  0.45348784901E+03  0.16500000000E+03 0.  0.
   -5000001    1    1    2    0    0  0.21513331395E+03 -0.18376413437E+02  0.50006876115E+03  0.56913425588E+03  0.16500000000E+03 0.  0.
<mgrwt>
<rscale>  0 0.54843400E+03</rscale>
<asrwt>0</asrwt>
<pdfrwt beam="1">  1        2 0.14505709E+00 0.54843400E+03</pdfrwt>
<pdfrwt beam="2">  1       -2 0.12269393E-01 0.54843400E+03</pdfrwt>
<totfact> 0.13552222E+03</totfact>
</mgrwt>
</event>
<event>
 4    1  0.9064384E-005  0.6027404E+03  0.7818608E-02  0.9899737E-01
          2   -1    0    0  501    0  0.00000000000E+00  0.00000000000E+00  0.54568596111E+03  0.54568596111E+03  0.25500000000E-02 0.  1.
         -2   -1    0    0    0  501 -0.00000000000E+00 -0.00000000000E+00 -0.16644007497E+03  0.16644007499E+03  0.25500000000E-02 0. -1.
    5000001    1    1    2    0    0  0.12007030441E+03 -0.18778682295E+03  0.32900881001E+03  0.43029358110E+03  0.16500000000E+03 0.  0.
   -5000001    1    1    2    0    0 -0.12007030441E+03  0.18778682295E+03  0.50237076126E+02  0.28183245500E+03  0.16500000000E+03 0.  0.
<mgrwt>
<rscale>  0 0.60274045E+03</rscale>
<asrwt>0</asrwt>
<pdfrwt beam="1">  1        2 0.83951686E-01 0.60274045E+03</pdfrwt>
<pdfrwt beam="2">  1       -2 0.25606166E-01 0.60274045E+03</pdfrwt>
<totfact> 0.76638354E+02</totfact>
</mgrwt>
</event>
<event>
 4    1  0.9064384E-005  0.9837535E+03  0.7818608E-02  0.9326545E-01
          2   -1    0    0  501    0  0.00000000000E+00  0.00000000000E+00  0.14690607989E+04  0.14690607989E+04  0.25500000000E-02 0.  1.
         -2   -1    0    0    0  501 -0.00000000000E+00 -0.00000000000E+00 -0.16469212704E+03  0.16469212706E+03  0.25500000000E-02 0. -1.
    5000001    1    1    2    0    0 -0.21627576465E+03  0.32370423451E+03  0.10695480042E+04  0.11500945922E+04  0.16500000000E+03 0.  0.
   -5000001    1    1    2    0    0  0.21627576465E+03 -0.32370423451E+03  0.23482066765E+03  0.48365833371E+03  0.16500000000E+03 0.  0.
<mgrwt>
<rscale>  0 0.98375352E+03</rscale>
<asrwt>0</asrwt>
<pdfrwt beam="1">  1        2 0.22600935E+00 0.98375352E+03</pdfrwt>
<pdfrwt beam="2">  1       -2 0.25337250E-01 0.98375352E+03</pdfrwt>
<totfact> 0.18471732E+02</totfact>
</mgrwt>
</event>
<event>
 4    1  0.9064384E-005  0.4513613E+03  0.7818608E-02  0.1027317E+00
          2   -1    0    0  501    0  0.00000000000E+00  0.00000000000E+00  0.24769989575E+03  0.24769989576E+03  0.25500000000E-02 0.  1.
         -2   -1    0    0    0  501 -0.00000000000E+00 -0.00000000000E+00 -0.20561881330E+03  0.20561881331E+03  0.25500000000E-02 0. -1.
    5000001    1    1    2    0    0 -0.12326983745E+03  0.88976860135E+02  0.45527087707E+02  0.22893241400E+03  0.16500000000E+03 0.  0.
   -5000001    1    1    2    0    0  0.12326983745E+03 -0.88976860135E+02 -0.34460052594E+01  0.22438629507E+03  0.16500000000E+03 0.  0.
<mgrwt>
<rscale>  0 0.45136131E+03</rscale>
<asrwt>0</asrwt>
<pdfrwt beam="1">  1        2 0.38107676E-01 0.45136131E+03</pdfrwt>
<pdfrwt beam="2">  1       -2 0.31633664E-01 0.45136131E+03</pdfrwt>
<totfact> 0.12587428E+03</totfact>
</mgrwt>
</event>
<event>
 4    1  0.9064384E-005  0.4060087E+03  0.7818608E-02  0.1041719E+00
         -2   -1    0    0    0  501 -0.00000000000E+00  0.00000000000E+00  0.69461543871E+03  0.69461543872E+03  0.25500000000E-02 0. -1.
          2   -1    0    0  501    0  0.00000000000E+00 -0.00000000000E+00 -0.59328908792E+02  0.59328908847E+02  0.25500000000E-02 0.  1.
    5000001    1    1    2    0    0 -0.82686719471E+02  0.69629745413E+02  0.40670759067E+03  0.45201931301E+03  0.16500000000E+03 0.  0.
   -5000001    1    1    2    0    0  0.82686719471E+02 -0.69629745413E+02  0.22857893925E+03  0.30192503456E+03  0.16500000000E+03 0.  0.
<mgrwt>
<rscale>  0 0.40600875E+03</rscale>
<asrwt>0</asrwt>
<pdfrwt beam="1">  1        2 0.91275245E-02 0.40600875E+03</pdfrwt>
<pdfrwt beam="2">  1       -2 0.10686391E+00 0.40600875E+03</pdfrwt>
<totfact> 0.53025204E+02</totfact>
</mgrwt>
</event>
<event>
 4    1  0.9064384E-005  0.5317047E+03  0.7818608E-02  0.1005820E+00
          2   -1    0    0  501    0  0.00000000000E+00  0.00000000000E+00  0.33604115434E+03  0.33604115434E+03  0.25500000000E-02 0.  1.
         -2   -1    0    0    0  501 -0.00000000000E+00 -0.00000000000E+00 -0.21032386237E+03  0.21032386239E+03  0.25500000000E-02 0. -1.
    5000001    1    1    2    0    0 -0.17946311446E+03 -0.61205036402E+02 -0.26128209129E+02  0.25270684447E+03  0.16500000000E+03 0.  0.
   -5000001    1    1    2    0    0  0.17946311446E+03  0.61205036402E+02  0.15184550109E+03  0.29365817226E+03  0.16500000000E+03 0.  0.
<mgrwt>
<rscale>  0 0.53170471E+03</rscale>
<asrwt>0</asrwt>
<pdfrwt beam="1">  1        2 0.51698638E-01 0.53170471E+03</pdfrwt>
<pdfrwt beam="2">  1       -2 0.32357518E-01 0.53170471E+03</pdfrwt>
<totfact> 0.86329046E+02</totfact>
</mgrwt>
</event>
<event>
 4    1  0.9064384E-005  0.5195640E+03  0.7818608E-02  0.1008795E+00
         -2   -1    0    0    0  501 -0.00000000000E+00  0.00000000000E+00  0.97418181445E+02  0.97418181478E+02  0.25500000000E-02 0. -1.
          2   -1    0    0  501    0  0.00000000000E+00 -0.00000000000E+00 -0.69275238333E+03  0.69275238333E+03  0.25500000000E-02 0.  1.
    5000001    1    1    2    0    0  0.15061820688E+03  0.46274808467E+01 -0.49916710790E+03  0.54690041089E+03  0.16500000000E+03 0.  0.
   -5000001    1    1    2    0    0 -0.15061820688E+03 -0.46274808467E+01 -0.96167093979E+02  0.24327015392E+03  0.16500000000E+03 0.  0.
<mgrwt>
<rscale>  0 0.51956396E+03</rscale>
<asrwt>0</asrwt>
<pdfrwt beam="1">  1        2 0.10657729E+00 0.51956396E+03</pdfrwt>
<pdfrwt beam="2">  1       -2 0.14987413E-01 0.51956396E+03</pdfrwt>
<totfact> 0.14593085E+03</totfact>
</mgrwt>
</event>
<event>
 4    1  0.9064384E-005  0.3775791E+03  0.7818608E-02  0.1051832E+00
         -2   -1    0    0    0  501 -0.00000000000E+00  0.00000000000E+00  0.25083180181E+04  0.25083180181E+04  0.25500000000E-02 0. -1.
          2   -1    0    0  501    0  0.00000000000E+00 -0.00000000000E+00 -0.14209320655E+02  0.14209320884E+02  0.25500000000E-02 0.  1.
    5000001    1    1    2    0    0  0.13150359008E+02  0.88756147396E+02  0.13748496457E+04  0.13876192324E+04  0.16500000000E+03 0.  0.
   -5000001    1    1    2    0    0 -0.13150359008E+02 -0.88756147396E+02  0.11192590517E+04  0.11349081066E+04  0.16500000000E+03 0.  0.
<mgrwt>
<rscale>  0 0.37757911E+03</rscale>
<asrwt>0</asrwt>
<pdfrwt beam="1">  1        2 0.21860486E-02 0.37757911E+03</pdfrwt>
<pdfrwt beam="2">  1       -2 0.38589522E+00 0.37757911E+03</pdfrwt>
<totfact> 0.52834759E+01</totfact>
</mgrwt>
</event>
<event>
 4    1  0.9064384E-005  0.6933001E+03  0.7818608E-02  0.9728759E-01
          2   -1    0    0  501    0  0.00000000000E+00  0.00000000000E+00  0.24631492036E+03  0.24631492038E+03  0.25500000000E-02 0.  1.
         -2   -1    0    0    0  501 -0.00000000000E+00 -0.00000000000E+00 -0.48785621233E+03  0.48785621234E+03  0.25500000000E-02 0. -1.
    5000001    1    1    2    0    0 -0.26793996919E+03  0.76128472009E+02  0.10444896496E+02  0.32391583352E+03  0.16500000000E+03 0.  0.
   -5000001    1    1    2    0    0  0.26793996919E+03 -0.76128472009E+02 -0.25198618847E+03  0.41025529920E+03  0.16500000000E+03 0.  0.
<mgrwt>
<rscale>  0 0.69330012E+03</rscale>
<asrwt>0</asrwt>
<pdfrwt beam="1">  1        2 0.37894603E-01 0.69330012E+03</pdfrwt>
<pdfrwt beam="2">  1       -2 0.75054802E-01 0.69330012E+03</pdfrwt>
<totfact> 0.22032181E+02</totfact>
</mgrwt>
</event>
<event>
 4    1  0.9064384E-005  0.7246969E+03  0.7818608E-02  0.9675905E-01
          2   -1    0    0  501    0  0.00000000000E+00  0.00000000000E+00  0.66798327485E+03  0.66798327486E+03  0.25500000000E-02 0.  1.
         -2   -1    0    0    0  501 -0.00000000000E+00 -0.00000000000E+00 -0.19655640755E+03  0.19655640757E+03  0.25500000000E-02 0. -1.
    5000001    1    1    2    0    0 -0.18744491404E+03 -0.22632765668E+03  0.76947507853E+02  0.34569599787E+03  0.16500000000E+03 0.  0.
   -5000001    1    1    2    0    0  0.18744491404E+03  0.22632765668E+03  0.39447935945E+03  0.51884368456E+03  0.16500000000E+03 0.  0.
<mgrwt>
<rscale>  0 0.72469688E+03</rscale>
<asrwt>0</asrwt>
<pdfrwt beam="1">  1        2 0.10276666E+00 0.72469688E+03</pdfrwt>
<pdfrwt beam="2">  1       -2 0.30239447E-01 0.72469688E+03</pdfrwt>
<totfact> 0.44164424E+02</totfact>
</mgrwt>
</event>
<event>
 4    1  0.9064384E-005  0.4753702E+03  0.7818608E-02  0.1020415E+00
         -2   -1    0    0    0  501 -0.00000000000E+00  0.00000000000E+00  0.54419472003E+02  0.54419472062E+02  0.25500000000E-02 0. -1.
          2   -1    0    0  501    0  0.00000000000E+00 -0.00000000000E+00 -0.10381249584E+04  0.10381249584E+04  0.25500000000E-02 0.  1.
    5000001    1    1    2    0    0 -0.47750742749E+02  0.14761550701E+03 -0.32613988199E+03  0.39706761888E+03  0.16500000000E+03 0.  0.
   -5000001    1    1    2    0    0  0.47750742749E+02 -0.14761550701E+03 -0.65756560441E+03  0.69547681158E+03  0.16500000000E+03 0.  0.
<mgrwt>
<rscale>  0 0.47537022E+03</rscale>
<asrwt>0</asrwt>
<pdfrwt beam="1">  1        2 0.15971152E+00 0.47537022E+03</pdfrwt>
<pdfrwt beam="2">  1       -2 0.83722273E-02 0.47537022E+03</pdfrwt>
<totfact> 0.21916047E+03</totfact>
</mgrwt>
</event>
<event>
 4    1  0.9064384E-005  0.5359676E+03  0.7818608E-02  0.1004795E+00
          2   -1    0    0  501    0  0.00000000000E+00  0.00000000000E+00  0.48427719837E+03  0.48427719838E+03  0.25500000000E-02 0.  1.
         -2   -1    0    0    0  501 -0.00000000000E+00 -0.00000000000E+00 -0.14829380148E+03  0.14829380150E+03  0.25500000000E-02 0. -1.
    5000001    1    1    2    0    0  0.17766836382E+03  0.11412254250E+03  0.16864299225E+03  0.31663142776E+03  0.16500000000E+03 0.  0.
   -5000001    1    1    2    0    0 -0.17766836382E+03 -0.11412254250E+03  0.16734040463E+03  0.31593957212E+03  0.16500000000E+03 0.  0.
<mgrwt>
<rscale>  0 0.53596756E+03</rscale>
<asrwt>0</asrwt>
<pdfrwt beam="1">  1        2 0.74504187E-01 0.53596756E+03</pdfrwt>
<pdfrwt beam="2">  1       -2 0.22814430E-01 0.53596756E+03</pdfrwt>
<totfact> 0.10822113E+03</totfact>
</mgrwt>
</event>
<event>
 4    1  0.9064384E-005  0.1640870E+04  0.7818608E-02  0.8795826E-01
         -2   -1    0    0    0  501 -0.00000000000E+00  0.00000000000E+00  0.32848519333E+03  0.32848519334E+03  0.25500000000E-02 0. -1.
          2   -1    0    0  501    0  0.00000000000E+00 -0.00000000000E+00 -0.20491439555E+04  0.20491439555E+04  0.25500000000E-02 0.  1.
    5000001    1    1    2    0    0 -0.58991315212E+03 -0.20145745048E+01 -0.69476570641E+02  0.61648485742E+03  0.16500000000E+03 0.  0.
   -5000001    1    1    2    0    0  0.58991315212E+03  0.20145745048E+01 -0.16511821915E+04  0.17611442914E+04  0.16500000000E+03 0.  0.
<mgrwt>
<rscale>  0 0.16408698E+04</rscale>
<asrwt>0</asrwt>
<pdfrwt beam="1">  1        2 0.31525291E+00 0.16408698E+04</pdfrwt>
<pdfrwt beam="2">  1       -2 0.50536185E-01 0.16408698E+04</pdfrwt>
<totfact> 0.22208665E+01</totfact>
</mgrwt>
</event>
<event>
 4    1  0.9064384E-005  0.6577757E+03  0.7818608E-02  0.9792297E-01
          2   -1    0    0  501    0  0.00000000000E+00  0.00000000000E+00  0.10798068107E+04  0.10798068107E+04  0.25500000000E-02 0.  1.
         -2   -1    0    0    0  501 -0.00000000000E+00 -0.00000000000E+00 -0.10017275340E+03  0.10017275344E+03  0.25500000000E-02 0. -1.
    5000001    1    1    2    0    0 -0.28395969009E+03 -0.88504924924E+01  0.51706913321E+03  0.61261482624E+03  0.16500000000E+03 0.  0.
   -5000001    1    1    2    0    0  0.28395969009E+03  0.88504924924E+01  0.46256492406E+03  0.56736473787E+03  0.16500000000E+03 0.  0.
<mgrwt>
<rscale>  0 0.65777571E+03</rscale>
<asrwt>0</asrwt>
<pdfrwt beam="1">  1        2 0.16612411E+00 0.65777571E+03</pdfrwt>
<pdfrwt beam="2">  1       -2 0.15411194E-01 0.65777571E+03</pdfrwt>
<totfact> 0.75691684E+02</totfact>
</mgrwt>
</event>
<event>
 4    1  0.9064384E-005  0.4537726E+03  0.7818608E-02  0.1026603E+00
          2   -1    0    0  501    0  0.00000000000E+00  0.00000000000E+00  0.14865525720E+03  0.14865525722E+03  0.25500000000E-02 0.  1.
         -2   -1    0    0    0  501 -0.00000000000E+00 -0.00000000000E+00 -0.34628710136E+03  0.34628710137E+03  0.25500000000E-02 0. -1.
    5000001    1    1    2    0    0  0.90441823581E+02 -0.10498250051E+03 -0.21294803132E+02  0.21651678343E+03  0.16500000000E+03 0.  0.
   -5000001    1    1    2    0    0 -0.90441823581E+02  0.10498250051E+03 -0.17633704104E+03  0.27842557517E+03  0.16500000000E+03 0.  0.
<mgrwt>
<rscale>  0 0.45377262E+03</rscale>
<asrwt>0</asrwt>
<pdfrwt beam="1">  1        2 0.22870040E-01 0.45377262E+03</pdfrwt>
<pdfrwt beam="2">  1       -2 0.53274939E-01 0.45377262E+03</pdfrwt>
<totfact> 0.80969444E+02</totfact>
</mgrwt>
</event>
<event>
 4    1  0.9064384E-005  0.4955795E+03  0.7818608E-02  0.1014939E+00
         -2   -1    0    0    0  501 -0.00000000000E+00  0.00000000000E+00  0.30280331477E+02  0.30280331584E+02  0.25500000000E-02 0. -1.
          2   -1    0    0  501    0  0.00000000000E+00 -0.00000000000E+00 -0.20277106407E+04  0.20277106407E+04  0.25500000000E-02 0.  1.
    5000001    1    1    2    0    0  0.17278700299E+03 -0.35417177229E+02 -0.76881078791E+03  0.80585653342E+03  0.16500000000E+03 0.  0.
   -5000001    1    1    2    0    0 -0.17278700299E+03  0.35417177229E+02 -0.12286195214E+04  0.12521344389E+04  0.16500000000E+03 0.  0.
<mgrwt>
<rscale>  0 0.49557946E+03</rscale>
<asrwt>0</asrwt>
<pdfrwt beam="1">  1        2 0.31195538E+00 0.49557946E+03</pdfrwt>
<pdfrwt beam="2">  1       -2 0.46585141E-02 0.49557946E+03</pdfrwt>
<totfact> 0.15421732E+03</totfact>
</mgrwt>
</event>
<event>
 4    1  0.9064384E-005  0.5089844E+03  0.7818608E-02  0.1011460E+00
         -2   -1    0    0    0  501 -0.00000000000E+00  0.00000000000E+00  0.27878799691E+03  0.27878799692E+03  0.25500000000E-02 0. -1.
          2   -1    0    0  501    0  0.00000000000E+00 -0.00000000000E+00 -0.23231368939E+03  0.23231368940E+03  0.25500000000E-02 0.  1.
    5000001    1    1    2    0    0 -0.85430433701E+02 -0.10888702525E+03 -0.11292383863E+03  0.24316976909E+03  0.16500000000E+03 0.  0.
   -5000001    1    1    2    0    0  0.85430433701E+02  0.10888702525E+03  0.15939814616E+03  0.26793191722E+03  0.16500000000E+03 0.  0.
<mgrwt>
<rscale>  0 0.50898435E+03</rscale>
<asrwt>0</asrwt>
<pdfrwt beam="1">  1        2 0.35740568E-01 0.50898435E+03</pdfrwt>
<pdfrwt beam="2">  1       -2 0.42890461E-01 0.50898435E+03</pdfrwt>
<totfact> 0.75648965E+02</totfact>
</mgrwt>
</event>
<event>
 4    1  0.9064384E-005  0.4324485E+03  0.7818608E-02  0.1033089E+00
          2   -1    0    0  501    0  0.00000000000E+00  0.00000000000E+00  0.51039466107E+03  0.51039466108E+03  0.25500000000E-02 0.  1.
         -2   -1    0    0    0  501 -0.00000000000E+00 -0.00000000000E+00 -0.91601531857E+02  0.91601531893E+02  0.25500000000E-02 0. -1.
    5000001    1    1    2    0    0 -0.13545450368E+03  0.34260710552E+02  0.21286667785E+03  0.30341216422E+03  0.16500000000E+03 0.  0.
   -5000001    1    1    2    0    0  0.13545450368E+03 -0.34260710552E+02  0.20592645136E+03  0.29858402875E+03  0.16500000000E+03 0.  0.
<mgrwt>
<rscale>  0 0.43244853E+03</rscale>
<asrwt>0</asrwt>
<pdfrwt beam="1">  1        2 0.78522256E-01 0.43244853E+03</pdfrwt>
<pdfrwt beam="2">  1       -2 0.14092543E-01 0.43244853E+03</pdfrwt>
<totfact> 0.23234686E+03</totfact>
</mgrwt>
</event>
<event>
 4    1  0.9064384E-005  0.4497287E+03  0.7818608E-02  0.1027803E+00
          2   -1    0    0  501    0  0.00000000000E+00  0.00000000000E+00  0.53476677874E+03  0.53476677875E+03  0.25500000000E-02 0.  1.
         -2   -1    0    0    0  501 -0.00000000000E+00 -0.00000000000E+00 -0.94553338154E+02  0.94553338188E+02  0.25500000000E-02 0. -1.
    5000001    1    1    2    0    0  0.78291706062E+02  0.10446268796E+03  0.10906511234E+03  0.23698574460E+03  0.16500000000E+03 0.  0.
   -5000001    1    1    2    0    0 -0.78291706062E+02 -0.10446268796E+03  0.33114832824E+03  0.39233437233E+03  0.16500000000E+03 0.  0.
<mgrwt>
<rscale>  0 0.44972874E+03</rscale>
<asrwt>0</asrwt>
<pdfrwt beam="1">  1        2 0.82271811E-01 0.44972874E+03</pdfrwt>
<pdfrwt beam="2">  1       -2 0.14546668E-01 0.44972874E+03</pdfrwt>
<totfact> 0.20895817E+03</totfact>
</mgrwt>
</event>
<event>
 4    1  0.9064384E-005  0.5691661E+03  0.7818608E-02  0.9971526E-01
          2   -1    0    0  501    0  0.00000000000E+00  0.00000000000E+00  0.21900215167E+04  0.21900215167E+04  0.25500000000E-02 0.  1.
         -2   -1    0    0    0  501 -0.00000000000E+00 -0.00000000000E+00 -0.36980242040E+02  0.36980242128E+02  0.25500000000E-02 0. -1.
    5000001    1    1    2    0    0 -0.88017691440E+02  0.20962328725E+03  0.12546897419E+04  0.12857528475E+04  0.16500000000E+03 0.  0.
   -5000001    1    1    2    0    0  0.88017691440E+02 -0.20962328725E+03  0.89835153275E+03  0.94124891126E+03  0.16500000000E+03 0.  0.
<mgrwt>
<rscale>  0 0.56916615E+03</rscale>
<asrwt>0</asrwt>
<pdfrwt beam="1">  1        2 0.33692633E+00 0.56916615E+03</pdfrwt>
<pdfrwt beam="2">  1       -2 0.56892689E-02 0.56916615E+03</pdfrwt>
<totfact> 0.91937396E+02</totfact>
</mgrwt>
</event>
<event>
 4    1  0.9064384E-005  0.8918954E+03  0.7818608E-02  0.9435770E-01
          2   -1    0    0  501    0  0.00000000000E+00  0.00000000000E+00  0.25942055270E+04  0.25942055270E+04  0.25500000000E-02 0.  1.
         -2   -1    0    0    0  501 -0.00000000000E+00 -0.00000000000E+00 -0.76659058771E+02  0.76659058814E+02  0.25500000000E-02 0. -1.
    5000001    1    1    2    0    0 -0.24182406584E+03 -0.14633073799E+02  0.25234305247E+03  0.38677515664E+03  0.16500000000E+03 0.  0.
   -5000001    1    1    2    0    0  0.24182406584E+03  0.14633073799E+02  0.22652034158E+04  0.22840894292E+04  0.16500000000E+03 0.  0.
<mgrwt>
<rscale>  0 0.89189541E+03</rscale>
<asrwt>0</asrwt>
<pdfrwt beam="1">  1        2 0.39910853E+00 0.89189541E+03</pdfrwt>
<pdfrwt beam="2">  1       -2 0.11793702E-01 0.89189541E+03</pdfrwt>
<totfact> 0.16486941E+02</totfact>
</mgrwt>
</event>
<event>
 4    1  0.9064384E-005  0.4036321E+03  0.7818608E-02  0.1042529E+00
         -2   -1    0    0    0  501 -0.00000000000E+00  0.00000000000E+00  0.76200737529E+02  0.76200737571E+02  0.25500000000E-02 0. -1.
          2   -1    0    0  501    0  0.00000000000E+00 -0.00000000000E+00 -0.53450555488E+03  0.53450555488E+03  0.25500000000E-02 0.  1.
    5000001    1    1    2    0    0  0.81513474850E+02  0.14854183746E+02 -0.35243973893E+03  0.39787417978E+03  0.16500000000E+03 0.  0.
   -5000001    1    1    2    0    0 -0.81513474850E+02 -0.14854183746E+02 -0.10586507841E+03  0.21283211267E+03  0.16500000000E+03 0.  0.
<mgrwt>
<rscale>  0 0.40363210E+03</rscale>
<asrwt>0</asrwt>
<pdfrwt beam="1">  1        2 0.82231621E-01 0.40363210E+03</pdfrwt>
<pdfrwt beam="2">  1       -2 0.11723191E-01 0.40363210E+03</pdfrwt>
<totfact> 0.29801699E+03</totfact>
</mgrwt>
</event>
<event>
 4    1  0.9064384E-005  0.4942651E+03  0.7818608E-02  0.1015287E+00
         -2   -1    0    0    0  501 -0.00000000000E+00  0.00000000000E+00  0.20115457625E+03  0.20115457627E+03  0.25500000000E-02 0. -1.
          2   -1    0    0  501    0  0.00000000000E+00 -0.00000000000E+00 -0.30361967613E+03  0.30361967614E+03  0.25500000000E-02 0.  1.
    5000001    1    1    2    0    0  0.14252889846E+03 -0.30575876237E+02 -0.16586948301E+03  0.27565749854E+03  0.16500000000E+03 0.  0.
   -5000001    1    1    2    0    0 -0.14252889846E+03  0.30575876237E+02  0.63404383133E+02  0.22911675387E+03  0.16500000000E+03 0.  0.
<mgrwt>
<rscale>  0 0.49426506E+03</rscale>
<asrwt>0</asrwt>
<pdfrwt beam="1">  1        2 0.46710720E-01 0.49426506E+03</pdfrwt>
<pdfrwt beam="2">  1       -2 0.30946858E-01 0.49426506E+03</pdfrwt>
<totfact> 0.10487933E+03</totfact>
</mgrwt>
</event>
<event>
 4    1  0.9064384E-005  0.5410233E+03  0.7818608E-02  0.1003593E+00
         -2   -1    0    0    0  501 -0.00000000000E+00  0.00000000000E+00  0.64708758075E+02  0.64708758125E+02  0.25500000000E-02 0. -1.
          2   -1    0    0  501    0  0.00000000000E+00 -0.00000000000E+00 -0.11308602654E+04  0.11308602654E+04  0.25500000000E-02 0.  1.
    5000001    1    1    2    0    0  0.11136457023E+03  0.18316502770E+03 -0.53249745845E+03  0.59726881564E+03  0.16500000000E+03 0.  0.
   -5000001    1    1    2    0    0 -0.11136457023E+03 -0.18316502770E+03 -0.53365404883E+03  0.59830020784E+03  0.16500000000E+03 0.  0.
<mgrwt>
<rscale>  0 0.54102334E+03</rscale>
<asrwt>0</asrwt>
<pdfrwt beam="1">  1        2 0.17397849E+00 0.54102334E+03</pdfrwt>
<pdfrwt beam="2">  1       -2 0.99551944E-02 0.54102334E+03</pdfrwt>
<totfact> 0.14567557E+03</totfact>
</mgrwt>
</event>
<event>
 4    1  0.9064384E-005  0.4261235E+03  0.7818608E-02  0.1035092E+00
         -2   -1    0    0    0  501 -0.00000000000E+00  0.00000000000E+00  0.51421726645E+02  0.51421726709E+02  0.25500000000E-02 0. -1.
          2   -1    0    0  501    0  0.00000000000E+00 -0.00000000000E+00 -0.88280408493E+03  0.88280408494E+03  0.25500000000E-02 0.  1.
    5000001    1    1    2    0    0  0.10082197646E+03  0.76445642170E+02 -0.31376770412E+03  0.37640958980E+03  0.16500000000E+03 0.  0.
   -5000001    1    1    2    0    0 -0.10082197646E+03 -0.76445642170E+02 -0.51761465417E+03  0.55781622185E+03  0.16500000000E+03 0.  0.
<mgrwt>
<rscale>  0 0.42612350E+03</rscale>
<asrwt>0</asrwt>
<pdfrwt beam="1">  1        2 0.13581600E+00 0.42612350E+03</pdfrwt>
<pdfrwt beam="2">  1       -2 0.79110355E-02 0.42612350E+03</pdfrwt>
<totfact> 0.30130602E+03</totfact>
</mgrwt>
</event>
<event>
 4    1  0.9064384E-005  0.7564733E+03  0.7818608E-02  0.9625249E-01
          2   -1    0    0  501    0  0.00000000000E+00  0.00000000000E+00  0.98515415877E+03  0.98515415878E+03  0.25500000000E-02 0.  1.
         -2   -1    0    0    0  501 -0.00000000000E+00 -0.00000000000E+00 -0.14521884045E+03  0.14521884048E+03  0.25500000000E-02 0. -1.
    5000001    1    1    2    0    0  0.66941318388E+02 -0.31767249026E+03  0.26728169667E+03  0.45173162005E+03  0.16500000000E+03 0.  0.
   -5000001    1    1    2    0    0 -0.66941318388E+02  0.31767249026E+03  0.57265362165E+03  0.67864137920E+03  0.16500000000E+03 0.  0.
<mgrwt>
<rscale>  0 0.75647325E+03</rscale>
<asrwt>0</asrwt>
<pdfrwt beam="1">  1        2 0.15156218E+00 0.75647325E+03</pdfrwt>
<pdfrwt beam="2">  1       -2 0.22341360E-01 0.75647325E+03</pdfrwt>
<totfact> 0.45436686E+02</totfact>
</mgrwt>
</event>
<event>
 4    1  0.9064384E-005  0.3916630E+03  0.7818608E-02  0.1046705E+00
          2   -1    0    0  501    0  0.00000000000E+00  0.00000000000E+00  0.53348727413E+03  0.53348727414E+03  0.25500000000E-02 0.  1.
         -2   -1    0    0    0  501 -0.00000000000E+00 -0.00000000000E+00 -0.71885439785E+02  0.71885439831E+02  0.25500000000E-02 0. -1.
    5000001    1    1    2    0    0  0.85673020140E+02 -0.84056624987E+01  0.32500231771E+03  0.37451572472E+03  0.16500000000E+03 0.  0.
   -5000001    1    1    2    0    0 -0.85673020140E+02  0.84056624987E+01  0.13659951664E+03  0.23085698925E+03  0.16500000000E+03 0.  0.
<mgrwt>
<rscale>  0 0.39166295E+03</rscale>
<asrwt>0</asrwt>
<pdfrwt beam="1">  1        2 0.82074969E-01 0.39166295E+03</pdfrwt>
<pdfrwt beam="2">  1       -2 0.11059298E-01 0.39166295E+03</pdfrwt>
<totfact> 0.32816628E+03</totfact>
</mgrwt>
</event>
<event>
 4    1  0.9064384E-005  0.4960765E+03  0.7818608E-02  0.1014808E+00
          2   -1    0    0  501    0  0.00000000000E+00  0.00000000000E+00  0.25846127579E+03  0.25846127580E+03  0.25500000000E-02 0.  1.
         -2   -1    0    0    0  501 -0.00000000000E+00 -0.00000000000E+00 -0.23803559734E+03  0.23803559736E+03  0.25500000000E-02 0. -1.
    5000001    1    1    2    0    0  0.11833826544E+03 -0.11872494683E+03  0.89009631813E+02  0.25149010442E+03  0.16500000000E+03 0.  0.
   -5000001    1    1    2    0    0 -0.11833826544E+03  0.11872494683E+03 -0.68583953363E+02  0.24500676874E+03  0.16500000000E+03 0.  0.
<mgrwt>
<rscale>  0 0.49607654E+03</rscale>
<asrwt>0</asrwt>
<pdfrwt beam="1">  1        2 0.39763273E-01 0.49607654E+03</pdfrwt>
<pdfrwt beam="2">  1       -2 0.36620861E-01 0.49607654E+03</pdfrwt>
<totfact> 0.91264331E+02</totfact>
</mgrwt>
</event>
<event>
 4    1  0.9064384E-005  0.5266336E+03  0.7818608E-02  0.1007052E+00
          2   -1    0    0  501    0  0.00000000000E+00  0.00000000000E+00  0.59224843124E+03  0.59224843125E+03  0.25500000000E-02 0.  1.
         -2   -1    0    0    0  501 -0.00000000000E+00 -0.00000000000E+00 -0.11707204301E+03  0.11707204303E+03  0.25500000000E-02 0. -1.
    5000001    1    1    2    0    0  0.48482730975E+02  0.19650292390E+03  0.19197713898E+03  0.32410522395E+03  0.16500000000E+03 0.  0.
   -5000001    1    1    2    0    0 -0.48482730975E+02 -0.19650292390E+03  0.28319924926E+03  0.38521525033E+03  0.16500000000E+03 0.  0.
<mgrwt>
<rscale>  0 0.52663359E+03</rscale>
<asrwt>0</asrwt>
<pdfrwt beam="1">  1        2 0.91115144E-01 0.52663359E+03</pdfrwt>
<pdfrwt beam="2">  1       -2 0.18011083E-01 0.52663359E+03</pdfrwt>
<totfact> 0.12924111E+03</totfact>
</mgrwt>
</event>
<event>
 4    1  0.9064384E-005  0.4820934E+03  0.7818608E-02  0.1018561E+00
         -2   -1    0    0    0  501 -0.00000000000E+00  0.00000000000E+00  0.42422251430E+02  0.42422251507E+02  0.25500000000E-02 0. -1.
          2   -1    0    0  501    0  0.00000000000E+00 -0.00000000000E+00 -0.13696472546E+04  0.13696472546E+04  0.25500000000E-02 0.  1.
    5000001    1    1    2    0    0 -0.51466003520E+02 -0.13226825033E+03 -0.96708788386E+03  0.99127575108E+03  0.16500000000E+03 0.  0.
   -5000001    1    1    2    0    0  0.51466003520E+02  0.13226825033E+03 -0.36013711926E+03  0.42079375499E+03  0.16500000000E+03 0.  0.
<mgrwt>
<rscale>  0 0.48209344E+03</rscale>
<asrwt>0</asrwt>
<pdfrwt beam="1">  1        2 0.21071493E+00 0.48209344E+03</pdfrwt>
<pdfrwt beam="2">  1       -2 0.65265013E-02 0.48209344E+03</pdfrwt>
<totfact> 0.20794826E+03</totfact>
</mgrwt>
</event>
<event>
 4    1  0.9064384E-005  0.4461873E+03  0.7818608E-02  0.1028865E+00
         -2   -1    0    0    0  501 -0.00000000000E+00  0.00000000000E+00  0.55495388275E+03  0.55495388276E+03  0.25500000000E-02 0. -1.
          2   -1    0    0  501    0  0.00000000000E+00 -0.00000000000E+00 -0.89684533970E+02  0.89684534006E+02  0.25500000000E-02 0.  1.
    5000001    1    1    2    0    0 -0.10740167106E+03 -0.84230168348E+02  0.14222456685E+03  0.25706549286E+03  0.16500000000E+03 0.  0.
   -5000001    1    1    2    0    0  0.10740167106E+03  0.84230168348E+02  0.32304478193E+03  0.38757292390E+03  0.16500000000E+03 0.  0.
<mgrwt>
<rscale>  0 0.44618732E+03</rscale>
<asrwt>0</asrwt>
<pdfrwt beam="1">  1        2 0.13797621E-01 0.44618732E+03</pdfrwt>
<pdfrwt beam="2">  1       -2 0.85377520E-01 0.44618732E+03</pdfrwt>
<totfact> 0.53387250E+02</totfact>
</mgrwt>
</event>
<event>
 4    1  0.9064384E-005  0.6302252E+03  0.7818608E-02  0.9844609E-01
          2   -1    0    0  501    0  0.00000000000E+00  0.00000000000E+00  0.35805952779E+03  0.35805952780E+03  0.25500000000E-02 0.  1.
         -2   -1    0    0    0  501 -0.00000000000E+00 -0.00000000000E+00 -0.27731692011E+03  0.27731692012E+03  0.25500000000E-02 0. -1.
    5000001    1    1    2    0    0 -0.81110253302E+02  0.22553493503E+03 -0.81555549895E+02  0.30219395730E+03  0.16500000000E+03 0.  0.
   -5000001    1    1    2    0    0  0.81110253302E+02 -0.22553493503E+03  0.16229815758E+03  0.33318249063E+03  0.16500000000E+03 0.  0.
<mgrwt>
<rscale>  0 0.63022525E+03</rscale>
<asrwt>0</asrwt>
<pdfrwt beam="1">  1        2 0.55086081E-01 0.63022525E+03</pdfrwt>
<pdfrwt beam="2">  1       -2 0.42664142E-01 0.63022525E+03</pdfrwt>
<totfact> 0.47308762E+02</totfact>
</mgrwt>
</event>
<event>
 4    1  0.9064384E-005  0.7606839E+03  0.7818608E-02  0.9618737E-01
         -2   -1    0    0    0  501 -0.00000000000E+00  0.00000000000E+00  0.38289383109E+02  0.38289383194E+02  0.25500000000E-02 0. -1.
          2   -1    0    0  501    0  0.00000000000E+00 -0.00000000000E+00 -0.37780705995E+04  0.37780705995E+04  0.25500000000E-02 0.  1.
    5000001    1    1    2    0    0  0.68491813256E+02 -0.24977317375E+03 -0.29957289036E+04  0.30114273079E+04  0.16500000000E+03 0.  0.
   -5000001    1    1    2    0    0 -0.68491813256E+02  0.24977317375E+03 -0.74405231278E+03  0.80493267480E+03  0.16500000000E+03 0.  0.
<mgrwt>
<rscale>  0 0.76068388E+03</rscale>
<asrwt>0</asrwt>
<pdfrwt beam="1">  1        2 0.58124134E+00 0.76068388E+03</pdfrwt>
<pdfrwt beam="2">  1       -2 0.58906773E-02 0.76068388E+03</pdfrwt>
<totfact> 0.88734989E+01</totfact>
</mgrwt>
</event>
<event>
 4    1  0.9064384E-005  0.5542825E+03  0.7818608E-02  0.1000508E+00
          2   -1    0    0  501    0  0.00000000000E+00  0.00000000000E+00  0.71065481993E+03  0.71065481994E+03  0.25500000000E-02 0.  1.
         -2   -1    0    0    0  501 -0.00000000000E+00 -0.00000000000E+00 -0.10807959354E+03  0.10807959357E+03  0.25500000000E-02 0. -1.
    5000001    1    1    2    0    0  0.35164047262E+02 -0.14382692369E+03  0.54694776371E+03  0.59016908630E+03  0.16500000000E+03 0.  0.
   -5000001    1    1    2    0    0 -0.35164047262E+02  0.14382692369E+03  0.55627462674E+02  0.22856532721E+03  0.16500000000E+03 0.  0.
<mgrwt>
<rscale>  0 0.55428254E+03</rscale>
<asrwt>0</asrwt>
<pdfrwt beam="1">  1        2 0.10933151E+00 0.55428254E+03</pdfrwt>
<pdfrwt beam="2">  1       -2 0.16627630E-01 0.55428254E+03</pdfrwt>
<totfact> 0.11856444E+03</totfact>
</mgrwt>
</event>
<event>
 4    1  0.9064384E-005  0.5034115E+03  0.7818608E-02  0.1012892E+00
         -2   -1    0    0    0  501 -0.00000000000E+00  0.00000000000E+00  0.33372848118E+03  0.33372848119E+03  0.25500000000E-02 0. -1.
          2   -1    0    0  501    0  0.00000000000E+00 -0.00000000000E+00 -0.18984233677E+03  0.18984233679E+03  0.25500000000E-02 0.  1.
    5000001    1    1    2    0    0  0.23555698956E+01  0.14092477977E+03 -0.60700234384E+02  0.22533277773E+03  0.16500000000E+03 0.  0.
   -5000001    1    1    2    0    0 -0.23555698956E+01 -0.14092477977E+03  0.20458637879E+03  0.29823804025E+03  0.16500000000E+03 0.  0.
<mgrwt>
<rscale>  0 0.50341154E+03</rscale>
<asrwt>0</asrwt>
<pdfrwt beam="1">  1        2 0.29206514E-01 0.50341154E+03</pdfrwt>
<pdfrwt beam="2">  1       -2 0.51342842E-01 0.50341154E+03</pdfrwt>
<totfact> 0.66157442E+02</totfact>
</mgrwt>
</event>
<event>
 4    1  0.9064384E-005  0.4775580E+03  0.7818608E-02  0.1019808E+00
          2   -1    0    0  501    0  0.00000000000E+00  0.00000000000E+00  0.12249802018E+03  0.12249802021E+03  0.25500000000E-02 0.  1.
         -2   -1    0    0    0  501 -0.00000000000E+00 -0.00000000000E+00 -0.46543953761E+03  0.46543953762E+03  0.25500000000E-02 0. -1.
    5000001    1    1    2    0    0 -0.16359444565E+03 -0.28369274854E+02 -0.22951008383E+03  0.32782287440E+03  0.16500000000E+03 0.  0.
   -5000001    1    1    2    0    0  0.16359444565E+03  0.28369274854E+02 -0.11343143360E+03  0.26011468343E+03  0.16500000000E+03 0.  0.
<mgrwt>
<rscale>  0 0.47755805E+03</rscale>
<asrwt>0</asrwt>
<pdfrwt beam="1">  1        2 0.18845850E-01 0.47755805E+03</pdfrwt>
<pdfrwt beam="2">  1       -2 0.71606082E-01 0.47755805E+03</pdfrwt>
<totfact> 0.54335530E+02</totfact>
</mgrwt>
</event>
<event>
 4    1  0.9064384E-005  0.4123876E+03  0.7818608E-02  0.1039573E+00
         -2   -1    0    0    0  501 -0.00000000000E+00  0.00000000000E+00  0.44795361658E+02  0.44795361730E+02  0.25500000000E-02 0. -1.
          2   -1    0    0  501    0  0.00000000000E+00 -0.00000000000E+00 -0.94911368817E+03  0.94911368818E+03  0.25500000000E-02 0.  1.
    5000001    1    1    2    0    0  0.88103855650E+02  0.82498737642E+02 -0.51694467942E+03  0.55590029023E+03  0.16500000000E+03 0.  0.
   -5000001    1    1    2    0    0 -0.88103855650E+02 -0.82498737642E+02 -0.38737364709E+03  0.43800875968E+03  0.16500000000E+03 0.  0.
<mgrwt>
<rscale>  0 0.41238764E+03</rscale>
<asrwt>0</asrwt>
<pdfrwt beam="1">  1        2 0.14601748E+00 0.41238764E+03</pdfrwt>
<pdfrwt beam="2">  1       -2 0.68915948E-02 0.41238764E+03</pdfrwt>
<totfact> 0.33875765E+03</totfact>
</mgrwt>
</event>
<event>
 4    1  0.9064384E-005  0.4953728E+03  0.7818608E-02  0.1014994E+00
          2   -1    0    0  501    0  0.00000000000E+00  0.00000000000E+00  0.11827424244E+04  0.11827424244E+04  0.25500000000E-02 0.  1.
         -2   -1    0    0    0  501 -0.00000000000E+00 -0.00000000000E+00 -0.51869748839E+02  0.51869748901E+02  0.25500000000E-02 0. -1.
    5000001    1    1    2    0    0 -0.12236674266E+02  0.17159191135E+03  0.73318113089E+03  0.77095595914E+03  0.16500000000E+03 0.  0.
   -5000001    1    1    2    0    0  0.12236674266E+02 -0.17159191135E+03  0.39769154471E+03  0.46365621420E+03  0.16500000000E+03 0.  0.
<mgrwt>
<rscale>  0 0.49537280E+03</rscale>
<asrwt>0</asrwt>
<pdfrwt beam="1">  1        2 0.18196035E+00 0.49537280E+03</pdfrwt>
<pdfrwt beam="2">  1       -2 0.79799625E-02 0.49537280E+03</pdfrwt>
<totfact> 0.19362939E+03</totfact>
</mgrwt>
</event>
<event>
 4    1  0.9064384E-005  0.1074886E+04  0.7818608E-02  0.9230021E-01
         -2   -1    0    0    0  501 -0.00000000000E+00  0.00000000000E+00  0.42429536074E+03  0.42429536075E+03  0.25500000000E-02 0. -1.
          2   -1    0    0  501    0  0.00000000000E+00 -0.00000000000E+00 -0.68076425807E+03  0.68076425808E+03  0.25500000000E-02 0.  1.
    5000001    1    1    2    0    0  0.37666976145E+03 -0.10186425057E+03 -0.46821945139E+03  0.63143557818E+03  0.16500000000E+03 0.  0.
   -5000001    1    1    2    0    0 -0.37666976145E+03  0.10186425057E+03  0.21175055406E+03  0.47362404065E+03  0.16500000000E+03 0.  0.
<mgrwt>
<rscale>  0 0.10748863E+04</rscale>
<asrwt>0</asrwt>
<pdfrwt beam="1">  1        2 0.10473296E+00 0.10748863E+04</pdfrwt>
<pdfrwt beam="2">  1       -2 0.65276210E-01 0.10748863E+04</pdfrwt>
<totfact> 0.91343081E+01</totfact>
</mgrwt>
</event>
<event>
 4    1  0.9064384E-005  0.6417953E+03  0.7818608E-02  0.9822298E-01
          2   -1    0    0  501    0  0.00000000000E+00  0.00000000000E+00  0.42359322690E+03  0.42359322690E+03  0.25500000000E-02 0.  1.
         -2   -1    0    0    0  501 -0.00000000000E+00 -0.00000000000E+00 -0.24309946556E+03  0.24309946557E+03  0.25500000000E-02 0. -1.
    5000001    1    1    2    0    0 -0.20429392520E+03  0.15625227271E+03  0.19202481837E+03  0.36090069475E+03  0.16500000000E+03 0.  0.
   -5000001    1    1    2    0    0  0.20429392520E+03 -0.15625227271E+03 -0.11531057030E+02  0.30579199773E+03  0.16500000000E+03 0.  0.
<mgrwt>
<rscale>  0 0.64179525E+03</rscale>
<asrwt>0</asrwt>
<pdfrwt beam="1">  1        2 0.65168189E-01 0.64179525E+03</pdfrwt>
<pdfrwt beam="2">  1       -2 0.37399918E-01 0.64179525E+03</pdfrwt>
<totfact> 0.50621828E+02</totfact>
</mgrwt>
</event>
<event>
 4    1  0.9064384E-005  0.8913484E+03  0.7818608E-02  0.9436461E-01
          2   -1    0    0  501    0  0.00000000000E+00  0.00000000000E+00  0.37857231946E+04  0.37857231946E+04  0.25500000000E-02 0.  1.
         -2   -1    0    0    0  501 -0.00000000000E+00 -0.00000000000E+00 -0.52466986696E+02  0.52466986758E+02  0.25500000000E-02 0. -1.
    5000001    1    1    2    0    0 -0.20898062389E+03 -0.34878625922E+03  0.22022716796E+04  0.22455623586E+04  0.16500000000E+03 0.  0.
   -5000001    1    1    2    0    0  0.20898062389E+03  0.34878625922E+03  0.15309845283E+04  0.15926278227E+04  0.16500000000E+03 0.  0.
<mgrwt>
<rscale>  0 0.89134839E+03</rscale>
<asrwt>0</asrwt>
<pdfrwt beam="1">  1        2 0.58241907E+00 0.89134839E+03</pdfrwt>
<pdfrwt beam="2">  1       -2 0.80718425E-02 0.89134839E+03</pdfrwt>
<totfact> 0.52145457E+01</totfact>
</mgrwt>
</event>
<event>
 4    1  0.9064384E-005  0.5116389E+03  0.7818608E-02  0.1010785E+00
         -2   -1    0    0    0  501 -0.00000000000E+00  0.00000000000E+00  0.56708393849E+02  0.56708393906E+02  0.25500000000E-02 0. -1.
          2   -1    0    0  501    0  0.00000000000E+00 -0.00000000000E+00 -0.11540371841E+04  0.11540371841E+04  0.25500000000E-02 0.  1.
    5000001    1    1    2    0    0 -0.19175687366E+03  0.22658372173E+02 -0.62100427070E+03  0.67093621504E+03  0.16500000000E+03 0.  0.
   -5000001    1    1    2    0    0  0.19175687366E+03 -0.22658372173E+02 -0.47632451956E+03  0.53980936298E+03  0.16500000000E+03 0.  0.
<mgrwt>
<rscale>  0 0.51163892E+03</rscale>
<asrwt>0</asrwt>
<pdfrwt beam="1">  1        2 0.17754417E+00 0.51163892E+03</pdfrwt>
<pdfrwt beam="2">  1       -2 0.87243691E-02 0.51163892E+03</pdfrwt>
<totfact> 0.17460006E+03</totfact>
</mgrwt>
</event>
<event>
 4    1  0.9064384E-005  0.4022450E+03  0.7818608E-02  0.1043005E+00
         -2   -1    0    0    0  501 -0.00000000000E+00  0.00000000000E+00  0.27141564854E+03  0.27141564855E+03  0.25500000000E-02 0. -1.
          2   -1    0    0  501    0  0.00000000000E+00 -0.00000000000E+00 -0.14903439433E+03  0.14903439435E+03  0.25500000000E-02 0.  1.
    5000001    1    1    2    0    0 -0.64781674860E+02 -0.74623670333E+02  0.12267377043E+03  0.22812104577E+03  0.16500000000E+03 0.  0.
   -5000001    1    1    2    0    0  0.64781674860E+02  0.74623670333E+02 -0.29251621835E+00  0.19232899713E+03  0.16500000000E+03 0.  0.
<mgrwt>
<rscale>  0 0.40224503E+03</rscale>
<asrwt>0</asrwt>
<pdfrwt beam="1">  1        2 0.22928369E-01 0.40224503E+03</pdfrwt>
<pdfrwt beam="2">  1       -2 0.41756253E-01 0.40224503E+03</pdfrwt>
<totfact> 0.13105811E+03</totfact>
</mgrwt>
</event>
<event>
 4    1  0.9064384E-005  0.4402659E+03  0.7818608E-02  0.1030665E+00
          2   -1    0    0  501    0  0.00000000000E+00  0.00000000000E+00  0.27598513426E+04  0.27598513426E+04  0.25500000000E-02 0.  1.
         -2   -1    0    0    0  501 -0.00000000000E+00 -0.00000000000E+00 -0.17558379571E+02  0.17558379756E+02  0.25500000000E-02 0. -1.
    5000001    1    1    2    0    0 -0.11352032874E+03  0.86332844776E+02  0.15596944045E+04  0.15748688392E+04  0.16500000000E+03 0.  0.
   -5000001    1    1    2    0    0  0.11352032874E+03 -0.86332844776E+02  0.11825985585E+04  0.12025408831E+04  0.16500000000E+03 0.  0.
<mgrwt>
<rscale>  0 0.44026591E+03</rscale>
<asrwt>0</asrwt>
<pdfrwt beam="1">  1        2 0.42459234E+00 0.44026591E+03</pdfrwt>
<pdfrwt beam="2">  1       -2 0.27012903E-02 0.44026591E+03</pdfrwt>
<totfact> 0.13942679E+03</totfact>
</mgrwt>
</event>
<event>
 4    1  0.9064384E-005  0.5612004E+03  0.7818608E-02  0.9989342E-01
          2   -1    0    0  501    0  0.00000000000E+00  0.00000000000E+00  0.36981959423E+04  0.36981959423E+04  0.25500000000E-02 0.  1.
         -2   -1    0    0    0  501 -0.00000000000E+00 -0.00000000000E+00 -0.21290506980E+02  0.21290507133E+02  0.25500000000E-02 0. -1.
    5000001    1    1    2    0    0 -0.10154553259E+03 -0.12976090805E+03  0.28729329394E+04  0.28823806242E+04  0.16500000000E+03 0.  0.
   -5000001    1    1    2    0    0  0.10154553259E+03  0.12976090805E+03  0.80397249585E+03  0.83710582517E+03  0.16500000000E+03 0.  0.
<mgrwt>
<rscale>  0 0.56120038E+03</rscale>
<asrwt>0</asrwt>
<pdfrwt beam="1">  1        2 0.56895301E+00 0.56120038E+03</pdfrwt>
<pdfrwt beam="2">  1       -2 0.32754639E-02 0.56120038E+03</pdfrwt>
<totfact> 0.25878632E+02</totfact>
</mgrwt>
</event>
<event>
 4    1  0.9064384E-005  0.7596718E+03  0.7818608E-02  0.9620298E-01
          2   -1    0    0  501    0  0.00000000000E+00  0.00000000000E+00  0.22146498271E+04  0.22146498271E+04  0.25500000000E-02 0.  1.
         -2   -1    0    0    0  501 -0.00000000000E+00 -0.00000000000E+00 -0.65145880011E+02  0.65145880061E+02  0.25500000000E-02 0. -1.
    5000001    1    1    2    0    0  0.13722222851E+03  0.31050228202E+03  0.94712167849E+03  0.10195617102E+04  0.16500000000E+03 0.  0.
   -5000001    1    1    2    0    0 -0.13722222851E+03 -0.31050228202E+03  0.12023822686E+04  0.12602339969E+04  0.16500000000E+03 0.  0.
<mgrwt>
<rscale>  0 0.75967180E+03</rscale>
<asrwt>0</asrwt>
<pdfrwt beam="1">  1        2 0.34071536E+00 0.75967180E+03</pdfrwt>
<pdfrwt beam="2">  1       -2 0.10022443E-01 0.75967180E+03</pdfrwt>
<totfact> 0.35639836E+02</totfact>
</mgrwt>
</event>
<event>
 4    1  0.9064384E-005  0.3985261E+03  0.7818608E-02  0.1044291E+00
         -2   -1    0    0    0  501 -0.00000000000E+00  0.00000000000E+00  0.89506340517E+02  0.89506340553E+02  0.25500000000E-02 0. -1.
          2   -1    0    0  501    0  0.00000000000E+00 -0.00000000000E+00 -0.44360836877E+03  0.44360836878E+03  0.25500000000E-02 0.  1.
    5000001    1    1    2    0    0  0.69657720687E+02 -0.69788732296E+02 -0.24730462221E+03  0.31322075502E+03  0.16500000000E+03 0.  0.
   -5000001    1    1    2    0    0 -0.69657720687E+02  0.69788732296E+02 -0.10679740605E+03  0.21989395432E+03  0.16500000000E+03 0.  0.
<mgrwt>
<rscale>  0 0.39852609E+03</rscale>
<asrwt>0</asrwt>
<pdfrwt beam="1">  1        2 0.68247440E-01 0.39852609E+03</pdfrwt>
<pdfrwt beam="2">  1       -2 0.13770207E-01 0.39852609E+03</pdfrwt>
<totfact> 0.28257143E+03</totfact>
</mgrwt>
</event>
<event>
 4    1  0.9064384E-005  0.6668718E+03  0.7818608E-02  0.9775626E-01
         -2   -1    0    0    0  501 -0.00000000000E+00  0.00000000000E+00  0.32601264336E+03  0.32601264337E+03  0.25500000000E-02 0. -1.
          2   -1    0    0  501    0  0.00000000000E+00 -0.00000000000E+00 -0.34102815762E+03  0.34102815763E+03  0.25500000000E-02 0.  1.
    5000001    1    1    2    0    0  0.14313910372E+03  0.35554653562E+02  0.24195785178E+03  0.32790477038E+03  0.16500000000E+03 0.  0.
   -5000001    1    1    2    0    0 -0.14313910372E+03 -0.35554653562E+02 -0.25697336604E+03  0.33913603061E+03  0.16500000000E+03 0.  0.
<mgrwt>
<rscale>  0 0.66687178E+03</rscale>
<asrwt>0</asrwt>
<pdfrwt beam="1">  1        2 0.52465871E-01 0.66687178E+03</pdfrwt>
<pdfrwt beam="2">  1       -2 0.50155791E-01 0.66687178E+03</pdfrwt>
<totfact> 0.36110316E+02</totfact>
</mgrwt>
</event>
<event>
 4    1  0.9064384E-005  0.3698666E+03  0.7818608E-02  0.1054744E+00
          2   -1    0    0  501    0  0.00000000000E+00  0.00000000000E+00  0.10921498838E+04  0.10921498838E+04  0.25500000000E-02 0.  1.
         -2   -1    0    0    0  501 -0.00000000000E+00 -0.00000000000E+00 -0.31314683219E+02  0.31314683323E+02  0.25500000000E-02 0. -1.
    5000001    1    1    2    0    0  0.52213523596E+02 -0.58500341495E+02  0.44307809487E+03  0.47926166147E+03  0.16500000000E+03 0.  0.
   -5000001    1    1    2    0    0 -0.52213523596E+02  0.58500341495E+02  0.61775710573E+03  0.64420290568E+03  0.16500000000E+03 0.  0.
<mgrwt>
<rscale>  0 0.36986661E+03</rscale>
<asrwt>0</asrwt>
<pdfrwt beam="1">  1        2 0.16802305E+00 0.36986661E+03</pdfrwt>
<pdfrwt beam="2">  1       -2 0.48176439E-02 0.36986661E+03</pdfrwt>
<totfact> 0.48053158E+03</totfact>
</mgrwt>
</event>
<event>
 4    1  0.9064384E-005  0.9450220E+03  0.7818608E-02  0.9370988E-01
          2   -1    0    0  501    0  0.00000000000E+00  0.00000000000E+00  0.97601888978E+03  0.97601888978E+03  0.25500000000E-02 0.  1.
         -2   -1    0    0    0  501 -0.00000000000E+00 -0.00000000000E+00 -0.22875238027E+03  0.22875238028E+03  0.25500000000E-02 0. -1.
    5000001    1    1    2    0    0  0.33649638148E+02  0.43745945333E+03  0.44946948741E+03  0.64942350710E+03  0.16500000000E+03 0.  0.
   -5000001    1    1    2    0    0 -0.33649638148E+02 -0.43745945333E+03  0.29779702210E+03  0.55534776297E+03  0.16500000000E+03 0.  0.
<mgrwt>
<rscale>  0 0.94502200E+03</rscale>
<asrwt>0</asrwt>
<pdfrwt beam="1">  1        2 0.15015676E+00 0.94502200E+03</pdfrwt>
<pdfrwt beam="2">  1       -2 0.35192673E-01 0.94502200E+03</pdfrwt>
<totfact> 0.19783548E+02</totfact>
</mgrwt>
</event>
<event>
 4    1  0.9064384E-005  0.4881687E+03  0.7818608E-02  0.1016914E+00
          2   -1    0    0  501    0  0.00000000000E+00  0.00000000000E+00  0.16642557102E+04  0.16642557102E+04  0.25500000000E-02 0. -1.
         -2   -1    0    0    0  501 -0.00000000000E+00 -0.00000000000E+00 -0.35798081126E+02  0.35798081217E+02  0.25500000000E-02 0.  1.
    5000001    1    1    2    0    0 -0.33426894107E+02 -0.16473727140E+03  0.59133613337E+03  0.63652112963E+03  0.16500000000E+03 0.  0.
   -5000001    1    1    2    0    0  0.33426894107E+02  0.16473727140E+03  0.10371214957E+04  0.10635326617E+04  0.16500000000E+03 0.  0.
<mgrwt>
<rscale>  0 0.48816866E+03</rscale>
<asrwt>0</asrwt>
<pdfrwt beam="1">  1        2 0.25603936E+00 0.48816866E+03</pdfrwt>
<pdfrwt beam="2">  1       -2 0.55073967E-02 0.48816866E+03</pdfrwt>
<totfact> 0.18680487E+03</totfact>
</mgrwt>
</event>
<event>
 4    1  0.9064384E-005  0.4116700E+03  0.7818608E-02  0.1039812E+00
         -2   -1    0    0    0  501 -0.00000000000E+00  0.00000000000E+00  0.54531634359E+03  0.54531634360E+03  0.25500000000E-02 0. -1.
          2   -1    0    0  501    0  0.00000000000E+00 -0.00000000000E+00 -0.77694424749E+02  0.77694424791E+02  0.25500000000E-02 0.  1.
    5000001    1    1    2    0    0 -0.90754851346E+02 -0.80855473276E+02  0.20474041917E+03  0.28968550161E+03  0.16500000000E+03 0.  0.
   -5000001    1    1    2    0    0  0.90754851346E+02  0.80855473276E+02  0.26288149967E+03  0.33332526677E+03  0.16500000000E+03 0.  0.
<mgrwt>
<rscale>  0 0.41166996E+03</rscale>
<asrwt>0</asrwt>
<pdfrwt beam="1">  1        2 0.11952989E-01 0.41166996E+03</pdfrwt>
<pdfrwt beam="2">  1       -2 0.83894817E-01 0.41166996E+03</pdfrwt>
<totfact> 0.66198778E+02</totfact>
</mgrwt>
</event>
<event>
 4    1  0.9064384E-005  0.4665253E+03  0.7818608E-02  0.1022906E+00
         -2   -1    0    0    0  501 -0.00000000000E+00  0.00000000000E+00  0.28892551644E+03  0.28892551646E+03  0.25500000000E-02 0. -1.
          2   -1    0    0  501    0  0.00000000000E+00 -0.00000000000E+00 -0.18832351275E+03  0.18832351276E+03  0.25500000000E-02 0.  1.
    5000001    1    1    2    0    0 -0.12730720572E+02  0.15411857463E+03 -0.82140127124E+01  0.22628980600E+03  0.16500000000E+03 0.  0.
   -5000001    1    1    2    0    0  0.12730720572E+02 -0.15411857463E+03  0.10881601641E+03  0.25095922322E+03  0.16500000000E+03 0.  0.
<mgrwt>
<rscale>  0 0.46652532E+03</rscale>
<asrwt>0</asrwt>
<pdfrwt beam="1">  1        2 0.28972848E-01 0.46652532E+03</pdfrwt>
<pdfrwt beam="2">  1       -2 0.44450079E-01 0.46652532E+03</pdfrwt>
<totfact> 0.89080490E+02</totfact>
</mgrwt>
</event>
<event>
 4    1  0.9064384E-005  0.4030017E+03  0.7818608E-02  0.1042745E+00
         -2   -1    0    0    0  501 -0.00000000000E+00  0.00000000000E+00  0.23394191904E+02  0.23394192043E+02  0.25500000000E-02 0. -1.
          2   -1    0    0  501    0  0.00000000000E+00 -0.00000000000E+00 -0.17355847397E+04  0.17355847397E+04  0.25500000000E-02 0.  1.
    5000001    1    1    2    0    0 -0.23118791835E+02 -0.10397970452E+03 -0.65937661209E+03  0.68800346951E+03  0.16500000000E+03 0.  0.
   -5000001    1    1    2    0    0  0.23118791835E+02  0.10397970452E+03 -0.10528139357E+04  0.10709754622E+04  0.16500000000E+03 0.  0.
<mgrwt>
<rscale>  0 0.40300175E+03</rscale>
<asrwt>0</asrwt>
<pdfrwt beam="1">  1        2 0.26701294E+00 0.40300175E+03</pdfrwt>
<pdfrwt beam="2">  1       -2 0.35991078E-02 0.40300175E+03</pdfrwt>
<totfact> 0.32916742E+03</totfact>
</mgrwt>
</event>
<event>
 4    1  0.9064384E-005  0.4958810E+03  0.7818608E-02  0.1014860E+00
          2   -1    0    0  501    0  0.00000000000E+00  0.00000000000E+00  0.33560976746E+03  0.33560976747E+03  0.25500000000E-02 0.  1.
         -2   -1    0    0    0  501 -0.00000000000E+00 -0.00000000000E+00 -0.18317255004E+03  0.18317255006E+03  0.25500000000E-02 0. -1.
    5000001    1    1    2    0    0  0.17984713243E+03  0.24001494297E+02  0.11434956480E+03  0.27059542816E+03  0.16500000000E+03 0.  0.
   -5000001    1    1    2    0    0 -0.17984713243E+03 -0.24001494297E+02  0.38087652621E+02  0.24818688937E+03  0.16500000000E+03 0.  0.
<mgrwt>
<rscale>  0 0.49588102E+03</rscale>
<asrwt>0</asrwt>
<pdfrwt beam="1">  1        2 0.51632271E-01 0.49588102E+03</pdfrwt>
<pdfrwt beam="2">  1       -2 0.28180393E-01 0.49588102E+03</pdfrwt>
<totfact> 0.11157043E+03</totfact>
</mgrwt>
</event>
<event>
 4    1  0.9064384E-005  0.3451451E+03  0.7818608E-02  0.1064626E+00
          2   -1    0    0  501    0  0.00000000000E+00  0.00000000000E+00  0.66912823875E+03  0.66912823875E+03  0.25500000000E-02 0.  1.
         -2   -1    0    0    0  501 -0.00000000000E+00 -0.00000000000E+00 -0.44507586240E+02  0.44507586313E+02  0.25500000000E-02 0. -1.
    5000001    1    1    2    0    0  0.50216693381E+02 -0.25626933448E+01  0.32325107894E+03  0.36639397338E+03  0.16500000000E+03 0.  0.
   -5000001    1    1    2    0    0 -0.50216693381E+02  0.25626933448E+01  0.30136957356E+03  0.34724185168E+03  0.16500000000E+03 0.  0.
<mgrwt>
<rscale>  0 0.34514509E+03</rscale>
<asrwt>0</asrwt>
<pdfrwt beam="1">  1        2 0.10294280E+00 0.34514509E+03</pdfrwt>
<pdfrwt beam="2">  1       -2 0.68473214E-02 0.34514509E+03</pdfrwt>
<totfact> 0.53645935E+03</totfact>
</mgrwt>
</event>
<event>
 4    1  0.9064384E-005  0.6223988E+03  0.7818608E-02  0.9859995E-01
         -2   -1    0    0    0  501 -0.00000000000E+00  0.00000000000E+00  0.11685295087E+03  0.11685295090E+03  0.25500000000E-02 0. -1.
          2   -1    0    0  501    0  0.00000000000E+00 -0.00000000000E+00 -0.82877731733E+03  0.82877731733E+03  0.25500000000E-02 0.  1.
    5000001    1    1    2    0    0  0.23780166799E+03 -0.98592858990E+02 -0.44389841942E+03  0.53901854505E+03  0.16500000000E+03 0.  0.
   -5000001    1    1    2    0    0 -0.23780166799E+03  0.98592858990E+02 -0.26802594704E+03  0.40661172318E+03  0.16500000000E+03 0.  0.
<mgrwt>
<rscale>  0 0.62239883E+03</rscale>
<asrwt>0</asrwt>
<pdfrwt beam="1">  1        2 0.12750420E+00 0.62239883E+03</pdfrwt>
<pdfrwt beam="2">  1       -2 0.17977378E-01 0.62239883E+03</pdfrwt>
<totfact> 0.84918824E+02</totfact>
</mgrwt>
</event>
<event>
 4    1  0.9064384E-005  0.4830641E+03  0.7818608E-02  0.1018296E+00
         -2   -1    0    0    0  501 -0.00000000000E+00  0.00000000000E+00  0.36179127439E+02  0.36179127529E+02  0.25500000000E-02 0. -1.
          2   -1    0    0  501    0  0.00000000000E+00 -0.00000000000E+00 -0.16124695405E+04  0.16124695405E+04  0.25500000000E-02 0.  1.
    5000001    1    1    2    0    0 -0.12150157977E+03 -0.11693448817E+03 -0.96470892914E+03  0.99313877498E+03  0.16500000000E+03 0.  0.
   -5000001    1    1    2    0    0  0.12150157977E+03  0.11693448817E+03 -0.61158148392E+03  0.65550989305E+03  0.16500000000E+03 0.  0.
<mgrwt>
<rscale>  0 0.48306414E+03</rscale>
<asrwt>0</asrwt>
<pdfrwt beam="1">  1        2 0.24807218E+00 0.48306414E+03</pdfrwt>
<pdfrwt beam="2">  1       -2 0.55660209E-02 0.48306414E+03</pdfrwt>
<totfact> 0.19604111E+03</totfact>
</mgrwt>
</event>
<event>
 4    1  0.9064384E-005  0.4222756E+03  0.7818608E-02  0.1036328E+00
         -2   -1    0    0    0  501 -0.00000000000E+00  0.00000000000E+00  0.82418423161E+02  0.82418423200E+02  0.25500000000E-02 0. -1.
          2   -1    0    0  501    0  0.00000000000E+00 -0.00000000000E+00 -0.54088849032E+03  0.54088849033E+03  0.25500000000E-02 0.  1.
    5000001    1    1    2    0    0  0.74847304878E+02  0.81190835929E+02 -0.33526661102E+03  0.38964441656E+03  0.16500000000E+03 0.  0.
   -5000001    1    1    2    0    0 -0.74847304878E+02 -0.81190835929E+02 -0.12320345614E+03  0.23366249697E+03  0.16500000000E+03 0.  0.
<mgrwt>
<rscale>  0 0.42227563E+03</rscale>
<asrwt>0</asrwt>
<pdfrwt beam="1">  1        2 0.83213611E-01 0.42227563E+03</pdfrwt>
<pdfrwt beam="2">  1       -2 0.12679758E-01 0.42227563E+03</pdfrwt>
<totfact> 0.25872337E+03</totfact>
</mgrwt>
</event>
<event>
 4    1  0.9064384E-005  0.3931729E+03  0.7818608E-02  0.1046170E+00
          2   -1    0    0  501    0  0.00000000000E+00  0.00000000000E+00  0.43211378533E+03  0.43211378534E+03  0.25500000000E-02 0.  1.
         -2   -1    0    0    0  501 -0.00000000000E+00 -0.00000000000E+00 -0.89435294517E+02  0.89435294553E+02  0.25500000000E-02 0. -1.
    5000001    1    1    2    0    0 -0.86727118742E+02  0.68160148506E+01  0.88997345866E+02  0.20667263669E+03  0.16500000000E+03 0.  0.
   -5000001    1    1    2    0    0  0.86727118742E+02 -0.68160148506E+01  0.25368114495E+03  0.31487644321E+03  0.16500000000E+03 0.  0.
<mgrwt>
<rscale>  0 0.39317286E+03</rscale>
<asrwt>0</asrwt>
<pdfrwt beam="1">  1        2 0.66479045E-01 0.39317286E+03</pdfrwt>
<pdfrwt beam="2">  1       -2 0.13759276E-01 0.39317286E+03</pdfrwt>
<totfact> 0.29127451E+03</totfact>
</mgrwt>
</event>
<event>
 4    1  0.9064384E-005  0.4528022E+03  0.7818608E-02  0.1026890E+00
          2   -1    0    0  501    0  0.00000000000E+00  0.00000000000E+00  0.20262263593E+04  0.20262263593E+04  0.25500000000E-02 0.  1.
         -2   -1    0    0    0  501 -0.00000000000E+00 -0.00000000000E+00 -0.25297001542E+02  0.25297001671E+02  0.25500000000E-02 0. -1.
    5000001    1    1    2    0    0 -0.55205752795E+02  0.10215146494E+03  0.53510237352E+03  0.57187598925E+03  0.16500000000E+03 0.  0.
   -5000001    1    1    2    0    0  0.55205752795E+02 -0.10215146494E+03  0.14658269842E+04  0.14796473717E+04  0.16500000000E+03 0.  0.
<mgrwt>
<rscale>  0 0.45280217E+03</rscale>
<asrwt>0</asrwt>
<pdfrwt beam="1">  1        2 0.31172703E+00 0.45280217E+03</pdfrwt>
<pdfrwt beam="2">  1       -2 0.38918476E-02 0.45280217E+03</pdfrwt>
<totfact> 0.20399153E+03</totfact>
</mgrwt>
</event>
<event>
 4    1  0.9064384E-005  0.5931761E+03  0.7818608E-02  0.9919665E-01
          2   -1    0    0  501    0  0.00000000000E+00  0.00000000000E+00  0.14759522941E+03  0.14759522943E+03  0.25500000000E-02 0.  1.
         -2   -1    0    0    0  501 -0.00000000000E+00 -0.00000000000E+00 -0.59598457098E+03  0.59598457099E+03  0.25500000000E-02 0. -1.
    5000001    1    1    2    0    0 -0.17484766220E+03  0.13535422759E+03 -0.87752615574E+02  0.28951337352E+03  0.16500000000E+03 0.  0.
   -5000001    1    1    2    0    0  0.17484766220E+03 -0.13535422759E+03 -0.36063672599E+03  0.45406642690E+03  0.16500000000E+03 0.  0.
<mgrwt>
<rscale>  0 0.59317613E+03</rscale>
<asrwt>0</asrwt>
<pdfrwt beam="1">  1        2 0.22706959E-01 0.59317613E+03</pdfrwt>
<pdfrwt beam="2">  1       -2 0.91689933E-01 0.59317613E+03</pdfrwt>
<totfact> 0.25084620E+02</totfact>
</mgrwt>
</event>
<event>
 4    1  0.9064384E-005  0.6448154E+03  0.7818608E-02  0.9816557E-01
         -2   -1    0    0    0  501 -0.00000000000E+00  0.00000000000E+00  0.10853992719E+03  0.10853992722E+03  0.25500000000E-02 0. -1.
          2   -1    0    0  501    0  0.00000000000E+00 -0.00000000000E+00 -0.95768186541E+03  0.95768186541E+03  0.25500000000E-02 0.  1.
    5000001    1    1    2    0    0  0.24859237668E+03  0.89467800886E+01 -0.22311487897E+03  0.37267071771E+03  0.16500000000E+03 0.  0.
   -5000001    1    1    2    0    0 -0.24859237668E+03 -0.89467800886E+01 -0.62602705924E+03  0.69355107492E+03  0.16500000000E+03 0.  0.
<mgrwt>
<rscale>  0 0.64481538E+03</rscale>
<asrwt>0</asrwt>
<pdfrwt beam="1">  1        2 0.14733567E+00 0.64481538E+03</pdfrwt>
<pdfrwt beam="2">  1       -2 0.16698451E-01 0.64481538E+03</pdfrwt>
<totfact> 0.78879401E+02</totfact>
</mgrwt>
</event>
<event>
 4    1  0.9064384E-005  0.3856796E+03  0.7818608E-02  0.1048854E+00
         -2   -1    0    0    0  501 -0.00000000000E+00  0.00000000000E+00  0.25329239402E+03  0.25329239403E+03  0.25500000000E-02 0. -1.
          2   -1    0    0  501    0  0.00000000000E+00 -0.00000000000E+00 -0.14681528416E+03  0.14681528418E+03  0.25500000000E-02 0.  1.
    5000001    1    1    2    0    0  0.92414557172E+02 -0.36210255409E+02  0.64146747658E+02  0.20295673975E+03  0.16500000000E+03 0.  0.
   -5000001    1    1    2    0    0 -0.92414557172E+02  0.36210255409E+02  0.42330362200E+02  0.19715093847E+03  0.16500000000E+03 0.  0.
<mgrwt>
<rscale>  0 0.38567963E+03</rscale>
<asrwt>0</asrwt>
<pdfrwt beam="1">  1        2 0.22586967E-01 0.38567963E+03</pdfrwt>
<pdfrwt beam="2">  1       -2 0.38968060E-01 0.38567963E+03</pdfrwt>
<totfact> 0.15226006E+03</totfact>
</mgrwt>
</event>
<event>
 4    1  0.9064384E-005  0.4541167E+03  0.7818608E-02  0.1026501E+00
         -2   -1    0    0    0  501 -0.00000000000E+00  0.00000000000E+00  0.35801020071E+02  0.35801020162E+02  0.25500000000E-02 0. -1.
          2   -1    0    0  501    0  0.00000000000E+00 -0.00000000000E+00 -0.14400566351E+04  0.14400566351E+04  0.25500000000E-02 0.  1.
    5000001    1    1    2    0    0 -0.13017904829E+03  0.83370163842E+02 -0.63447509223E+03  0.67355832078E+03  0.16500000000E+03 0.  0.
   -5000001    1    1    2    0    0  0.13017904829E+03 -0.83370163842E+02 -0.76978052279E+03  0.80229933447E+03  0.16500000000E+03 0.  0.
<mgrwt>
<rscale>  0 0.45411671E+03</rscale>
<asrwt>0</asrwt>
<pdfrwt beam="1">  1        2 0.22154713E+00 0.45411671E+03</pdfrwt>
<pdfrwt beam="2">  1       -2 0.55078504E-02 0.45411671E+03</pdfrwt>
<totfact> 0.24769145E+03</totfact>
</mgrwt>
</event>
<event>
 4    1  0.9064384E-005  0.4670707E+03  0.7818608E-02  0.1022750E+00
          2   -1    0    0  501    0  0.00000000000E+00  0.00000000000E+00  0.44408974876E+03  0.44408974877E+03  0.25500000000E-02 0.  1.
         -2   -1    0    0    0  501 -0.00000000000E+00 -0.00000000000E+00 -0.12281024437E+03  0.12281024439E+03  0.25500000000E-02 0. -1.
    5000001    1    1    2    0    0  0.10907981185E+03  0.10509835413E+03  0.80407376177E+02  0.23797986373E+03  0.16500000000E+03 0.  0.
   -5000001    1    1    2    0    0 -0.10907981185E+03 -0.10509835413E+03  0.24087212822E+03  0.32892012944E+03  0.16500000000E+03 0.  0.
<mgrwt>
<rscale>  0 0.46707075E+03</rscale>
<asrwt>0</asrwt>
<pdfrwt beam="1">  1        2 0.68321500E-01 0.46707075E+03</pdfrwt>
<pdfrwt beam="2">  1       -2 0.18893884E-01 0.46707075E+03</pdfrwt>
<totfact> 0.16584887E+03</totfact>
</mgrwt>
</event>
<event>
 4    1  0.9064384E-005  0.5416170E+03  0.7818608E-02  0.1003453E+00
         -2   -1    0    0    0  501 -0.00000000000E+00  0.00000000000E+00  0.96922999156E+02  0.96922999189E+02  0.25500000000E-02 0. -1.
          2   -1    0    0  501    0  0.00000000000E+00 -0.00000000000E+00 -0.75665465285E+03  0.75665465285E+03  0.25500000000E-02 0.  1.
    5000001    1    1    2    0    0 -0.15209957777E+03  0.11514461218E+03 -0.17449243845E+03  0.30670046356E+03  0.16500000000E+03 0.  0.
   -5000001    1    1    2    0    0  0.15209957777E+03 -0.11514461218E+03 -0.48523921525E+03  0.54687718848E+03  0.16500000000E+03 0.  0.
<mgrwt>
<rscale>  0 0.54161698E+03</rscale>
<asrwt>0</asrwt>
<pdfrwt beam="1">  1        2 0.11640840E+00 0.54161698E+03</pdfrwt>
<pdfrwt beam="2">  1       -2 0.14911231E-01 0.54161698E+03</pdfrwt>
<totfact> 0.13165320E+03</totfact>
</mgrwt>
</event>
<event>
 4    1  0.9064384E-005  0.4251501E+03  0.7818608E-02  0.1035403E+00
         -2   -1    0    0    0  501 -0.00000000000E+00  0.00000000000E+00  0.49944054376E+02  0.49944054441E+02  0.25500000000E-02 0. -1.
          2   -1    0    0  501    0  0.00000000000E+00 -0.00000000000E+00 -0.90477546005E+03  0.90477546005E+03  0.25500000000E-02 0.  1.
    5000001    1    1    2    0    0  0.10735397644E+03 -0.19324275726E+02 -0.60229708012E+03  0.63394406426E+03  0.16500000000E+03 0.  0.
   -5000001    1    1    2    0    0 -0.10735397644E+03  0.19324275726E+02 -0.25253432555E+03  0.32077545023E+03  0.16500000000E+03 0.  0.
<mgrwt>
<rscale>  0 0.42515011E+03</rscale>
<asrwt>0</asrwt>
<pdfrwt beam="1">  1        2 0.13919621E+00 0.42515011E+03</pdfrwt>
<pdfrwt beam="2">  1       -2 0.76837013E-02 0.42515011E+03</pdfrwt>
<totfact> 0.30511867E+03</totfact>
</mgrwt>
</event>
<event>
 4    1  0.9064384E-005  0.5998404E+03  0.7818608E-02  0.9905737E-01
          2   -1    0    0  501    0  0.00000000000E+00  0.00000000000E+00  0.11272411145E+04  0.11272411145E+04  0.25500000000E-02 0.  1.
         -2   -1    0    0    0  501 -0.00000000000E+00 -0.00000000000E+00 -0.79798491941E+02  0.79798491982E+02  0.25500000000E-02 0. -1.
    5000001    1    1    2    0    0 -0.16224137336E+03 -0.15428714155E+03  0.29784162493E+03  0.40750634206E+03  0.16500000000E+03 0.  0.
   -5000001    1    1    2    0    0  0.16224137336E+03  0.15428714155E+03  0.74960099758E+03  0.79953326437E+03  0.16500000000E+03 0.  0.
<mgrwt>
<rscale>  0 0.59984045E+03</rscale>
<asrwt>0</asrwt>
<pdfrwt beam="1">  1        2 0.17342172E+00 0.59984045E+03</pdfrwt>
<pdfrwt beam="2">  1       -2 0.12276690E-01 0.59984045E+03</pdfrwt>
<totfact> 0.10378608E+03</totfact>
</mgrwt>
</event>
<event>
 4    1  0.9064384E-005  0.4300375E+03  0.7818608E-02  0.1033848E+00
         -2   -1    0    0    0  501 -0.00000000000E+00  0.00000000000E+00  0.43327921733E+02  0.43327921808E+02  0.25500000000E-02 0. -1.
          2   -1    0    0  501    0  0.00000000000E+00 -0.00000000000E+00 -0.10670499357E+04  0.10670499357E+04  0.25500000000E-02 0.  1.
    5000001    1    1    2    0    0 -0.70635268046E+02 -0.42008059709E+02 -0.79768857012E+03  0.81871000548E+03  0.16500000000E+03 0.  0.
   -5000001    1    1    2    0    0  0.70635268046E+02  0.42008059709E+02 -0.22603344386E+03  0.29166785204E+03  0.16500000000E+03 0.  0.
<mgrwt>
<rscale>  0 0.43003747E+03</rscale>
<asrwt>0</asrwt>
<pdfrwt beam="1">  1        2 0.16416151E+00 0.43003747E+03</pdfrwt>
<pdfrwt beam="2">  1       -2 0.66658349E-02 0.43003747E+03</pdfrwt>
<totfact> 0.30143443E+03</totfact>
</mgrwt>
</event>
<event>
 4    1  0.9064384E-005  0.4316920E+03  0.7818608E-02  0.1033327E+00
         -2   -1    0    0    0  501 -0.00000000000E+00  0.00000000000E+00  0.98649626133E+02  0.98649626166E+02  0.25500000000E-02 0. -1.
          2   -1    0    0  501    0  0.00000000000E+00 -0.00000000000E+00 -0.47227230562E+03  0.47227230562E+03  0.25500000000E-02 0.  1.
    5000001    1    1    2    0    0 -0.10832981151E+03  0.79278795184E+02 -0.23529597977E+03  0.31719027968E+03  0.16500000000E+03 0.  0.
   -5000001    1    1    2    0    0  0.10832981151E+03 -0.79278795184E+02 -0.13832669972E+03  0.25373165211E+03  0.16500000000E+03 0.  0.
<mgrwt>
<rscale>  0 0.43169196E+03</rscale>
<asrwt>0</asrwt>
<pdfrwt beam="1">  1        2 0.72657277E-01 0.43169196E+03</pdfrwt>
<pdfrwt beam="2">  1       -2 0.15176866E-01 0.43169196E+03</pdfrwt>
<totfact> 0.22426363E+03</totfact>
</mgrwt>
</event>
<event>
 4    1  0.9064384E-005  0.5740877E+03  0.7818608E-02  0.9960674E-01
         -2   -1    0    0    0  501 -0.00000000000E+00  0.00000000000E+00  0.11278267500E+03  0.11278267503E+03  0.25500000000E-02 0. -1.
          2   -1    0    0  501    0  0.00000000000E+00 -0.00000000000E+00 -0.73055707237E+03  0.73055707237E+03  0.25500000000E-02 0.  1.
    5000001    1    1    2    0    0 -0.19108397713E+03  0.10611232584E+03 -0.18255017291E+03  0.32912380291E+03  0.16500000000E+03 0.  0.
   -5000001    1    1    2    0    0  0.19108397713E+03 -0.10611232584E+03 -0.43522422446E+03  0.51421594449E+03  0.16500000000E+03 0.  0.
<mgrwt>
<rscale>  0 0.57408773E+03</rscale>
<asrwt>0</asrwt>
<pdfrwt beam="1">  1        2 0.11239339E+00 0.57408773E+03</pdfrwt>
<pdfrwt beam="2">  1       -2 0.17351181E-01 0.57408773E+03</pdfrwt>
<totfact> 0.10644925E+03</totfact>
</mgrwt>
</event>
<event>
 4    1  0.9064384E-005  0.5284399E+03  0.7818608E-02  0.1006611E+00
         -2   -1    0    0    0  501 -0.00000000000E+00  0.00000000000E+00  0.18293592377E+04  0.18293592377E+04  0.25500000000E-02 0. -1.
          2   -1    0    0  501    0  0.00000000000E+00 -0.00000000000E+00 -0.38162095920E+02  0.38162096005E+02  0.25500000000E-02 0.  1.
    5000001    1    1    2    0    0 -0.18669417768E+03 -0.76406652296E+02  0.74177738367E+03  0.78622603583E+03  0.16500000000E+03 0.  0.
   -5000001    1    1    2    0    0  0.18669417768E+03  0.76406652296E+02  0.10494197581E+04  0.10812952979E+04  0.16500000000E+03 0.  0.
<mgrwt>
<rscale>  0 0.52843990E+03</rscale>
<asrwt>0</asrwt>
<pdfrwt beam="1">  1        2 0.58710930E-02 0.52843990E+03</pdfrwt>
<pdfrwt beam="2">  1       -2 0.28143982E+00 0.52843990E+03</pdfrwt>
<totfact> 0.58067024E+01</totfact>
</mgrwt>
</event>
<event>
 4    1  0.9064384E-005  0.1412505E+04  0.7818608E-02  0.8944816E-01
          2   -1    0    0  501    0  0.00000000000E+00  0.00000000000E+00  0.41708978653E+03  0.41708978654E+03  0.25500000000E-02 0.  1.
         -2   -1    0    0    0  501 -0.00000000000E+00 -0.00000000000E+00 -0.11958878766E+04  0.11958878766E+04  0.25500000000E-02 0. -1.
    5000001    1    1    2    0    0 -0.40684104745E+01  0.68667427195E+03 -0.39560250147E+03  0.80948406216E+03  0.16500000000E+03 0.  0.
   -5000001    1    1    2    0    0  0.40684104745E+01 -0.68667427195E+03 -0.38319558864E+03  0.80349360102E+03  0.16500000000E+03 0.  0.
<mgrwt>
<rscale>  0 0.14125050E+04</rscale>
<asrwt>0</asrwt>
<pdfrwt beam="1">  1        2 0.64167660E-01 0.14125050E+04</pdfrwt>
<pdfrwt beam="2">  1       -2 0.18398275E+00 0.14125050E+04</pdfrwt>
<totfact> 0.12541177E+01</totfact>
</mgrwt>
</event>
<event>
 4    1  0.9064384E-005  0.5325383E+03  0.7818608E-02  0.1005618E+00
          2   -1    0    0  501    0  0.00000000000E+00  0.00000000000E+00  0.27564292856E+03  0.27564292857E+03  0.25500000000E-02 0.  1.
         -2   -1    0    0    0  501 -0.00000000000E+00 -0.00000000000E+00 -0.25721418418E+03  0.25721418419E+03  0.25500000000E-02 0. -1.
    5000001    1    1    2    0    0  0.20738493052E+03  0.17183628497E+02 -0.10045123500E+02  0.26576247102E+03  0.16500000000E+03 0.  0.
   -5000001    1    1    2    0    0 -0.20738493052E+03 -0.17183628497E+02  0.28473867877E+02  0.26709464175E+03  0.16500000000E+03 0.  0.
<mgrwt>
<rscale>  0 0.53253834E+03</rscale>
<asrwt>0</asrwt>
<pdfrwt beam="1">  1        2 0.42406604E-01 0.53253834E+03</pdfrwt>
<pdfrwt beam="2">  1       -2 0.39571413E-01 0.53253834E+03</pdfrwt>
<totfact> 0.73262710E+02</totfact>
</mgrwt>
</event>
<event>
 4    1  0.9064384E-005  0.5286372E+03  0.7818608E-02  0.1006563E+00
          2   -1    0    0  501    0  0.00000000000E+00  0.00000000000E+00  0.17423660846E+04  0.17423660846E+04  0.25500000000E-02 0.  1.
         -2   -1    0    0    0  501 -0.00000000000E+00 -0.00000000000E+00 -0.40097378989E+02  0.40097379070E+02  0.25500000000E-02 0. -1.
    5000001    1    1    2    0    0  0.90233748396E+02 -0.15311891162E+03  0.49666465473E+03  0.55270996888E+03  0.16500000000E+03 0.  0.
   -5000001    1    1    2    0    0 -0.90233748396E+02  0.15311891162E+03  0.12056040509E+04  0.12297534948E+04  0.16500000000E+03 0.  0.
<mgrwt>
<rscale>  0 0.52863717E+03</rscale>
<asrwt>0</asrwt>
<pdfrwt beam="1">  1        2 0.26805630E+00 0.52863717E+03</pdfrwt>
<pdfrwt beam="2">  1       -2 0.61688280E-02 0.52863717E+03</pdfrwt>
<totfact> 0.14181307E+03</totfact>
</mgrwt>
</event>
<event>
 4    1  0.9064384E-005  0.6922979E+03  0.7818608E-02  0.9730495E-01
          2   -1    0    0  501    0  0.00000000000E+00  0.00000000000E+00  0.19236687954E+04  0.19236687954E+04  0.25500000000E-02 0.  1.
         -2   -1    0    0    0  501 -0.00000000000E+00 -0.00000000000E+00 -0.62286758015E+02  0.62286758067E+02  0.25500000000E-02 0. -1.
    5000001    1    1    2    0    0 -0.30037879107E+03  0.35881832697E+02  0.83645407334E+03  0.90465205513E+03  0.16500000000E+03 0.  0.
   -5000001    1    1    2    0    0  0.30037879107E+03 -0.35881832697E+02  0.10249279640E+04  0.10813034983E+04  0.16500000000E+03 0.  0.
<mgrwt>
<rscale>  0 0.69229789E+03</rscale>
<asrwt>0</asrwt>
<pdfrwt beam="1">  1        2 0.29594907E+00 0.69229789E+03</pdfrwt>
<pdfrwt beam="2">  1       -2 0.95825775E-02 0.69229789E+03</pdfrwt>
<totfact> 0.55583447E+02</totfact>
</mgrwt>
</event>
<event>
 4    1  0.9064384E-005  0.4757778E+03  0.7818608E-02  0.1020302E+00
         -2   -1    0    0    0  501 -0.00000000000E+00  0.00000000000E+00  0.30792821089E+02  0.30792821195E+02  0.25500000000E-02 0. -1.
          2   -1    0    0  501    0  0.00000000000E+00 -0.00000000000E+00 -0.18378023122E+04  0.18378023122E+04  0.25500000000E-02 0.  1.
    5000001    1    1    2    0    0  0.45077617388E+02  0.16533028269E+03 -0.90411234969E+03  0.93488514525E+03  0.16500000000E+03 0.  0.
   -5000001    1    1    2    0    0 -0.45077617388E+02 -0.16533028269E+03 -0.90289714142E+03  0.93370998814E+03  0.16500000000E+03 0.  0.
<mgrwt>
<rscale>  0 0.47577775E+03</rscale>
<asrwt>0</asrwt>
<pdfrwt beam="1">  1        2 0.28273873E+00 0.47577775E+03</pdfrwt>
<pdfrwt beam="2">  1       -2 0.47373585E-02 0.47577775E+03</pdfrwt>
<totfact> 0.19027067E+03</totfact>
</mgrwt>
</event>
<event>
 4    1  0.9064384E-005  0.4411284E+03  0.7818608E-02  0.1030401E+00
         -2   -1    0    0    0  501 -0.00000000000E+00  0.00000000000E+00  0.19419212548E+03  0.19419212550E+03  0.25500000000E-02 0. -1.
          2   -1    0    0  501    0  0.00000000000E+00 -0.00000000000E+00 -0.25051765402E+03  0.25051765403E+03  0.25500000000E-02 0.  1.
    5000001    1    1    2    0    0 -0.12194293804E+03  0.80554627898E+02 -0.36254605340E+02  0.22337977666E+03  0.16500000000E+03 0.  0.
   -5000001    1    1    2    0    0  0.12194293804E+03 -0.80554627898E+02 -0.20070923200E+02  0.22133000287E+03  0.16500000000E+03 0.  0.
<mgrwt>
<rscale>  0 0.44112835E+03</rscale>
<asrwt>0</asrwt>
<pdfrwt beam="1">  1        2 0.38541178E-01 0.44112835E+03</pdfrwt>
<pdfrwt beam="2">  1       -2 0.29875711E-01 0.44112835E+03</pdfrwt>
<totfact> 0.13812471E+03</totfact>
</mgrwt>
</event>
<event>
 4    1  0.9064384E-005  0.4246240E+03  0.7818608E-02  0.1035572E+00
         -2   -1    0    0    0  501 -0.00000000000E+00  0.00000000000E+00  0.46866176935E+03  0.46866176935E+03  0.25500000000E-02 0. -1.
          2   -1    0    0  501    0  0.00000000000E+00 -0.00000000000E+00 -0.96181052277E+02  0.96181052310E+02  0.25500000000E-02 0.  1.
    5000001    1    1    2    0    0 -0.36753644741E+02 -0.12417641324E+03  0.14250932304E+03  0.25358335742E+03  0.16500000000E+03 0.  0.
   -5000001    1    1    2    0    0  0.36753644741E+02  0.12417641324E+03  0.22997139403E+03  0.31125946424E+03  0.16500000000E+03 0.  0.
<mgrwt>
<rscale>  0 0.42462398E+03</rscale>
<asrwt>0</asrwt>
<pdfrwt beam="1">  1        2 0.14797085E-01 0.42462398E+03</pdfrwt>
<pdfrwt beam="2">  1       -2 0.72101811E-01 0.42462398E+03</pdfrwt>
<totfact> 0.71350403E+02</totfact>
</mgrwt>
</event>
<event>
 4    1  0.9064384E-005  0.4335296E+03  0.7818608E-02  0.1032751E+00
         -2   -1    0    0    0  501 -0.00000000000E+00  0.00000000000E+00  0.20087614492E+02  0.20087614653E+02  0.25500000000E-02 0. -1.
          2   -1    0    0  501    0  0.00000000000E+00 -0.00000000000E+00 -0.23391015525E+04  0.23391015525E+04  0.25500000000E-02 0.  1.
    5000001    1    1    2    0    0  0.60561767441E+01 -0.13220983560E+03 -0.90161687199E+03  0.92609616226E+03  0.16500000000E+03 0.  0.
   -5000001    1    1    2    0    0 -0.60561767441E+01  0.13220983560E+03 -0.14173970660E+04  0.14330930049E+04  0.16500000000E+03 0.  0.
<mgrwt>
<rscale>  0 0.43352956E+03</rscale>
<asrwt>0</asrwt>
<pdfrwt beam="1">  1        2 0.35986156E+00 0.43352956E+03</pdfrwt>
<pdfrwt beam="2">  1       -2 0.30904041E-02 0.43352956E+03</pdfrwt>
<totfact> 0.19618645E+03</totfact>
</mgrwt>
</event>
<event>
 4    1  0.9064384E-005  0.3837675E+03  0.7818608E-02  0.1049550E+00
         -2   -1    0    0    0  501 -0.00000000000E+00  0.00000000000E+00  0.21702084973E+02  0.21702085122E+02  0.25500000000E-02 0.  1.
          2   -1    0    0  501    0  0.00000000000E+00 -0.00000000000E+00 -0.16965822407E+04  0.16965822407E+04  0.25500000000E-02 0. -1.
    5000001    1    1    2    0    0 -0.41393945467E+02 -0.42299489004E+02 -0.48798214256E+03  0.51851159770E+03  0.16500000000E+03 0.  0.
   -5000001    1    1    2    0    0  0.41393945467E+02  0.42299489004E+02 -0.11868980132E+04  0.11997727281E+04  0.16500000000E+03 0.  0.
<mgrwt>
<rscale>  0 0.38376749E+03</rscale>
<asrwt>0</asrwt>
<pdfrwt beam="1">  1        2 0.26101255E+00 0.38376749E+03</pdfrwt>
<pdfrwt beam="2">  1       -2 0.33387836E-02 0.38376749E+03</pdfrwt>
<totfact> 0.38699297E+03</totfact>
</mgrwt>
</event>
<event>
 4    1  0.9064384E-005  0.3650039E+03  0.7818608E-02  0.1056620E+00
         -2   -1    0    0    0  501 -0.00000000000E+00  0.00000000000E+00  0.20577343726E+02  0.20577343884E+02  0.25500000000E-02 0. -1.
          2   -1    0    0  501    0  0.00000000000E+00 -0.00000000000E+00 -0.16186231273E+04  0.16186231273E+04  0.25500000000E-02 0.  1.
    5000001    1    1    2    0    0 -0.65330133776E+02 -0.38273183882E+02 -0.71511352042E+03  0.73779754003E+03  0.16500000000E+03 0.  0.
   -5000001    1    1    2    0    0  0.65330133776E+02  0.38273183882E+02 -0.88293226316E+03  0.90140293116E+03  0.16500000000E+03 0.  0.
<mgrwt>
<rscale>  0 0.36500392E+03</rscale>
<asrwt>0</asrwt>
<pdfrwt beam="1">  1        2 0.24901884E+00 0.36500392E+03</pdfrwt>
<pdfrwt beam="2">  1       -2 0.31657465E-02 0.36500392E+03</pdfrwt>
<totfact> 0.46159761E+03</totfact>
</mgrwt>
</event>
<event>
 4    1  0.9064384E-005  0.5497068E+03  0.7818608E-02  0.1001562E+00
         -2   -1    0    0    0  501 -0.00000000000E+00  0.00000000000E+00  0.83620588110E+02  0.83620588149E+02  0.25500000000E-02 0. -1.
          2   -1    0    0  501    0  0.00000000000E+00 -0.00000000000E+00 -0.90341857225E+03  0.90341857225E+03  0.25500000000E-02 0.  1.
    5000001    1    1    2    0    0  0.21668542107E+03  0.26999090515E+02 -0.36454982911E+03  0.45585425357E+03  0.16500000000E+03 0.  0.
   -5000001    1    1    2    0    0 -0.21668542107E+03 -0.26999090515E+02 -0.45524815503E+03  0.53118490683E+03  0.16500000000E+03 0.  0.
<mgrwt>
<rscale>  0 0.54970680E+03</rscale>
<asrwt>0</asrwt>
<pdfrwt beam="1">  1        2 0.13898747E+00 0.54970680E+03</pdfrwt>
<pdfrwt beam="2">  1       -2 0.12864706E-01 0.54970680E+03</pdfrwt>
<totfact> 0.13302519E+03</totfact>
</mgrwt>
</event>
<event>
 4    1  0.9064384E-005  0.6057884E+03  0.7818608E-02  0.9893469E-01
          2   -1    0    0  501    0  0.00000000000E+00  0.00000000000E+00  0.20462165060E+04  0.20462165060E+04  0.25500000000E-02 0.  1.
         -2   -1    0    0    0  501 -0.00000000000E+00 -0.00000000000E+00 -0.44836357631E+02  0.44836357703E+02  0.25500000000E-02 0. -1.
    5000001    1    1    2    0    0  0.19026982234E+03 -0.16669816584E+03  0.10800820399E+04  0.11215137523E+04  0.16500000000E+03 0.  0.
   -5000001    1    1    2    0    0 -0.19026982234E+03  0.16669816584E+03  0.92129810849E+03  0.96953911138E+03  0.16500000000E+03 0.  0.
<mgrwt>
<rscale>  0 0.60578840E+03</rscale>
<asrwt>0</asrwt>
<pdfrwt beam="1">  1        2 0.31480255E+00 0.60578840E+03</pdfrwt>
<pdfrwt beam="2">  1       -2 0.68979010E-02 0.60578840E+03</pdfrwt>
<totfact> 0.81150278E+02</totfact>
</mgrwt>
</event>
<event>
 4    1  0.9064384E-005  0.5914009E+03  0.7818608E-02  0.9923409E-01
         -2   -1    0    0    0  501 -0.00000000000E+00  0.00000000000E+00  0.53108684725E+02  0.53108684786E+02  0.25500000000E-02 0. -1.
          2   -1    0    0  501    0  0.00000000000E+00 -0.00000000000E+00 -0.16464118739E+04  0.16464118739E+04  0.25500000000E-02 0.  1.
    5000001    1    1    2    0    0 -0.14008308447E+03  0.20146815989E+03 -0.79963692498E+03  0.85255903126E+03  0.16500000000E+03 0.  0.
   -5000001    1    1    2    0    0  0.14008308447E+03 -0.20146815989E+03 -0.79366626418E+03  0.84696152741E+03  0.16500000000E+03 0.  0.
<mgrwt>
<rscale>  0 0.59140094E+03</rscale>
<asrwt>0</asrwt>
<pdfrwt beam="1">  1        2 0.25329410E+00 0.59140094E+03</pdfrwt>
<pdfrwt beam="2">  1       -2 0.81705681E-02 0.59140094E+03</pdfrwt>
<totfact> 0.10221576E+03</totfact>
</mgrwt>
</event>
<event>
 4    1  0.9064384E-005  0.3991762E+03  0.7818608E-02  0.1044065E+00
          2   -1    0    0  501    0  0.00000000000E+00  0.00000000000E+00  0.14874288418E+04  0.14874288418E+04  0.25500000000E-02 0.  1.
         -2   -1    0    0    0  501 -0.00000000000E+00 -0.00000000000E+00 -0.26781388123E+02  0.26781388244E+02  0.25500000000E-02 0. -1.
    5000001    1    1    2    0    0 -0.85717424320E+02 -0.58742198253E+02  0.56883769262E+03  0.60133139219E+03  0.16500000000E+03 0.  0.
   -5000001    1    1    2    0    0  0.85717424320E+02  0.58742198253E+02  0.89180976102E+03  0.91287883782E+03  0.16500000000E+03 0.  0.
<mgrwt>
<rscale>  0 0.39917620E+03</rscale>
<asrwt>0</asrwt>
<pdfrwt beam="1">  1        2 0.22883529E+00 0.39917620E+03</pdfrwt>
<pdfrwt beam="2">  1       -2 0.41202120E-02 0.39917620E+03</pdfrwt>
<totfact> 0.36464089E+03</totfact>
</mgrwt>
</event>
<event>
 4    1  0.9064384E-005  0.4106380E+03  0.7818608E-02  0.1040157E+00
         -2   -1    0    0    0  501 -0.00000000000E+00  0.00000000000E+00  0.38579823233E+02  0.38579823317E+02  0.25500000000E-02 0. -1.
          2   -1    0    0  501    0  0.00000000000E+00 -0.00000000000E+00 -0.10926927494E+04  0.10926927494E+04  0.25500000000E-02 0.  1.
    5000001    1    1    2    0    0 -0.27950556680E+02 -0.11596672610E+03 -0.60001635490E+03  0.63361987132E+03  0.16500000000E+03 0.  0.
   -5000001    1    1    2    0    0  0.27950556680E+02  0.11596672610E+03 -0.45409657131E+03  0.49765270144E+03  0.16500000000E+03 0.  0.
<mgrwt>
<rscale>  0 0.41063801E+03</rscale>
<asrwt>0</asrwt>
<pdfrwt beam="1">  1        2 0.16810655E+00 0.41063801E+03</pdfrwt>
<pdfrwt beam="2">  1       -2 0.59353582E-02 0.41063801E+03</pdfrwt>
<totfact> 0.34847352E+03</totfact>
</mgrwt>
</event>
<event>
 4    1  0.9064384E-005  0.1101719E+04  0.7818608E-02  0.9203518E-01
          2   -1    0    0  501    0  0.00000000000E+00  0.00000000000E+00  0.31149465512E+04  0.31149465512E+04  0.25500000000E-02 0.  1.
         -2   -1    0    0    0  501 -0.00000000000E+00 -0.00000000000E+00 -0.97416094754E+02  0.97416094787E+02  0.25500000000E-02 0. -1.
    5000001    1    1    2    0    0 -0.23951728372E+03  0.42479316788E+03  0.20801615184E+04  0.21429220022E+04  0.16500000000E+03 0.  0.
   -5000001    1    1    2    0    0  0.23951728372E+03 -0.42479316788E+03  0.93736893807E+03  0.10694406439E+04  0.16500000000E+03 0.  0.
<mgrwt>
<rscale>  0 0.11017185E+04</rscale>
<asrwt>0</asrwt>
<pdfrwt beam="1">  1        2 0.47922245E+00 0.11017185E+04</pdfrwt>
<pdfrwt beam="2">  1       -2 0.14987095E-01 0.11017185E+04</pdfrwt>
<totfact> 0.52503703E+01</totfact>
</mgrwt>
</event>
<event>
 4    1  0.9064384E-005  0.5661438E+03  0.7818608E-02  0.9978248E-01
         -2   -1    0    0    0  501 -0.00000000000E+00  0.00000000000E+00  0.25428988092E+03  0.25428988093E+03  0.25500000000E-02 0. -1.
          2   -1    0    0  501    0  0.00000000000E+00 -0.00000000000E+00 -0.31511165087E+03  0.31511165088E+03  0.25500000000E-02 0.  1.
    5000001    1    1    2    0    0  0.76206779024E+02 -0.21141981886E+03 -0.79671195163E+02  0.28996260503E+03  0.16500000000E+03 0.  0.
   -5000001    1    1    2    0    0 -0.76206779024E+02  0.21141981886E+03  0.18849425207E+02  0.27943892679E+03  0.16500000000E+03 0.  0.
<mgrwt>
<rscale>  0 0.56614381E+03</rscale>
<asrwt>0</asrwt>
<pdfrwt beam="1">  1        2 0.48478716E-01 0.56614381E+03</pdfrwt>
<pdfrwt beam="2">  1       -2 0.39121520E-01 0.56614381E+03</pdfrwt>
<totfact> 0.64609435E+02</totfact>
</mgrwt>
</event>
<event>
 4    1  0.9064384E-005  0.4707874E+03  0.7818608E-02  0.1021698E+00
         -2   -1    0    0    0  501 -0.00000000000E+00  0.00000000000E+00  0.52188855096E+02  0.52188855159E+02  0.25500000000E-02 0. -1.
          2   -1    0    0  501    0  0.00000000000E+00 -0.00000000000E+00 -0.10617245381E+04  0.10617245381E+04  0.25500000000E-02 0.  1.
    5000001    1    1    2    0    0 -0.31614627772E+02  0.12875443508E+03 -0.74846100743E+03  0.77781493229E+03  0.16500000000E+03 0.  0.
   -5000001    1    1    2    0    0  0.31614627772E+02 -0.12875443508E+03 -0.26107467556E+03  0.33609846096E+03  0.16500000000E+03 0.  0.
<mgrwt>
<rscale>  0 0.47078737E+03</rscale>
<asrwt>0</asrwt>
<pdfrwt beam="1">  1        2 0.16334222E+00 0.47078737E+03</pdfrwt>
<pdfrwt beam="2">  1       -2 0.80290554E-02 0.47078737E+03</pdfrwt>
<totfact> 0.22655293E+03</totfact>
</mgrwt>
</event>
<event>
 4    1  0.9064384E-005  0.5530680E+03  0.7818608E-02  0.1000786E+00
         -2   -1    0    0    0  501 -0.00000000000E+00  0.00000000000E+00  0.96791623527E+02  0.96791623561E+02  0.25500000000E-02 0. -1.
          2   -1    0    0  501    0  0.00000000000E+00 -0.00000000000E+00 -0.79005872780E+03  0.79005872781E+03  0.25500000000E-02 0.  1.
    5000001    1    1    2    0    0 -0.80957543447E+02  0.11470733529E+03 -0.62220496297E+03  0.65884437659E+03  0.16500000000E+03 0.  0.
   -5000001    1    1    2    0    0  0.80957543447E+02 -0.11470733529E+03 -0.71062141301E+02  0.22800597478E+03  0.16500000000E+03 0.  0.
<mgrwt>
<rscale>  0 0.55306805E+03</rscale>
<asrwt>0</asrwt>
<pdfrwt beam="1">  1        2 0.12154749E+00 0.55306805E+03</pdfrwt>
<pdfrwt beam="2">  1       -2 0.14891020E-01 0.55306805E+03</pdfrwt>
<totfact> 0.12476475E+03</totfact>
</mgrwt>
</event>
<event>
 4    1  0.9064384E-005  0.3623317E+03  0.7818608E-02  0.1057664E+00
          2   -1    0    0  501    0  0.00000000000E+00  0.00000000000E+00  0.51626028440E+03  0.51626028441E+03  0.25500000000E-02 0.  1.
         -2   -1    0    0    0  501 -0.00000000000E+00 -0.00000000000E+00 -0.63574637079E+02  0.63574637130E+02  0.25500000000E-02 0. -1.
    5000001    1    1    2    0    0  0.52906974434E+02  0.41489085244E+02  0.27882562709E+03  0.33089155695E+03  0.16500000000E+03 0.  0.
   -5000001    1    1    2    0    0 -0.52906974434E+02 -0.41489085244E+02  0.17386002024E+03  0.24894336459E+03  0.16500000000E+03 0.  0.
<mgrwt>
<rscale>  0 0.36233167E+03</rscale>
<asrwt>0</asrwt>
<pdfrwt beam="1">  1        2 0.79424658E-01 0.36233167E+03</pdfrwt>
<pdfrwt beam="2">  1       -2 0.97807136E-02 0.36233167E+03</pdfrwt>
<totfact> 0.41458825E+03</totfact>
</mgrwt>
</event>
<event>
 4    1  0.9064384E-005  0.8113384E+03  0.7818608E-02  0.9543749E-01
          2   -1    0    0  501    0  0.00000000000E+00  0.00000000000E+00  0.10854715579E+04  0.10854715579E+04  0.25500000000E-02 0.  1.
         -2   -1    0    0    0  501 -0.00000000000E+00 -0.00000000000E+00 -0.15160920670E+03  0.15160920672E+03  0.25500000000E-02 0. -1.
    5000001    1    1    2    0    0  0.15073236944E+03 -0.26797466452E+03  0.15144679648E+03  0.38038375384E+03  0.16500000000E+03 0.  0.
   -5000001    1    1    2    0    0 -0.15073236944E+03  0.26797466452E+03  0.78241555469E+03  0.85669701076E+03  0.16500000000E+03 0.  0.
<mgrwt>
<rscale>  0 0.81133836E+03</rscale>
<asrwt>0</asrwt>
<pdfrwt beam="1">  1        2 0.16699563E+00 0.81133836E+03</pdfrwt>
<pdfrwt beam="2">  1       -2 0.23324493E-01 0.81133836E+03</pdfrwt>
<totfact> 0.36300422E+02</totfact>
</mgrwt>
</event>
<event>
 4    1  0.9064384E-005  0.4067201E+03  0.7818608E-02  0.1041477E+00
          2   -1    0    0  501    0  0.00000000000E+00  0.00000000000E+00  0.80832437920E+03  0.80832437921E+03  0.25500000000E-02 0.  1.
         -2   -1    0    0    0  501 -0.00000000000E+00 -0.00000000000E+00 -0.51161764740E+02  0.51161764803E+02  0.25500000000E-02 0. -1.
    5000001    1    1    2    0    0  0.96007425480E+02  0.24784933775E+02  0.24003149276E+03  0.30768788765E+03  0.16500000000E+03 0.  0.
   -5000001    1    1    2    0    0 -0.96007425480E+02 -0.24784933775E+02  0.51713112170E+03  0.55179825636E+03  0.16500000000E+03 0.  0.
<mgrwt>
<rscale>  0 0.40672006E+03</rscale>
<asrwt>0</asrwt>
<pdfrwt beam="1">  1        2 0.12435759E+00 0.40672006E+03</pdfrwt>
<pdfrwt beam="2">  1       -2 0.78710411E-02 0.40672006E+03</pdfrwt>
<totfact> 0.34126029E+03</totfact>
</mgrwt>
</event>
<event>
 4    1  0.9064384E-005  0.4348805E+03  0.7818608E-02  0.1032329E+00
          2   -1    0    0  501    0  0.00000000000E+00  0.00000000000E+00  0.32569302874E+03  0.32569302875E+03  0.25500000000E-02 0.  1.
         -2   -1    0    0    0  501 -0.00000000000E+00 -0.00000000000E+00 -0.14516819254E+03  0.14516819256E+03  0.25500000000E-02 0. -1.
    5000001    1    1    2    0    0 -0.23821764060E+02  0.89815260737E+02  0.20597357456E+03  0.27979344332E+03  0.16500000000E+03 0.  0.
   -5000001    1    1    2    0    0  0.23821764060E+02 -0.89815260737E+02 -0.25448738358E+02  0.19106777800E+03  0.16500000000E+03 0.  0.
<mgrwt>
<rscale>  0 0.43488053E+03</rscale>
<asrwt>0</asrwt>
<pdfrwt beam="1">  1        2 0.50106619E-01 0.43488053E+03</pdfrwt>
<pdfrwt beam="2">  1       -2 0.22333568E-01 0.43488053E+03</pdfrwt>
<totfact> 0.17464178E+03</totfact>
</mgrwt>
</event>
<event>
 4    1  0.9064384E-005  0.9335193E+03  0.7818608E-02  0.9384624E-01
          2   -1    0    0  501    0  0.00000000000E+00  0.00000000000E+00  0.67182506318E+03  0.67182506319E+03  0.25500000000E-02 0.  1.
         -2   -1    0    0    0  501 -0.00000000000E+00 -0.00000000000E+00 -0.32428766076E+03  0.32428766077E+03  0.25500000000E-02 0. -1.
    5000001    1    1    2    0    0  0.18085485444E+03 -0.39719233348E+03  0.18765472265E+03  0.50290110666E+03  0.16500000000E+03 0.  0.
   -5000001    1    1    2    0    0 -0.18085485444E+03  0.39719233348E+03  0.15988267978E+03  0.49321161730E+03  0.16500000000E+03 0.  0.
<mgrwt>
<rscale>  0 0.93351932E+03</rscale>
<asrwt>0</asrwt>
<pdfrwt beam="1">  1        2 0.10335770E+00 0.93351932E+03</pdfrwt>
<pdfrwt beam="2">  1       -2 0.49890410E-01 0.93351932E+03</pdfrwt>
<totfact> 0.16431537E+02</totfact>
</mgrwt>
</event>
<event>
 4    1  0.9064384E-005  0.5359787E+03  0.7818608E-02  0.1004792E+00
         -2   -1    0    0    0  501 -0.00000000000E+00  0.00000000000E+00  0.33419261520E+02  0.33419261618E+02  0.25500000000E-02 0. -1.
          2   -1    0    0  501    0  0.00000000000E+00 -0.00000000000E+00 -0.21490088621E+04  0.21490088621E+04  0.25500000000E-02 0.  1.
    5000001    1    1    2    0    0  0.73371835301E+02  0.11011888543E+02 -0.25275474129E+03  0.31082896768E+03  0.16500000000E+03 0.  0.
   -5000001    1    1    2    0    0 -0.73371835301E+02 -0.11011888543E+02 -0.18628348593E+04  0.18715991561E+04  0.16500000000E+03 0.  0.
<mgrwt>
<rscale>  0 0.53597869E+03</rscale>
<asrwt>0</asrwt>
<pdfrwt beam="1">  1        2 0.33061664E+00 0.53597869E+03</pdfrwt>
<pdfrwt beam="2">  1       -2 0.51414265E-02 0.53597869E+03</pdfrwt>
<totfact> 0.11356262E+03</totfact>
</mgrwt>
</event>
<event>
 4    1  0.9064384E-005  0.7178898E+03  0.7818608E-02  0.9687118E-01
          2   -1    0    0  501    0  0.00000000000E+00  0.00000000000E+00  0.60716392140E+03  0.60716392141E+03  0.25500000000E-02 0.  1.
         -2   -1    0    0    0  501 -0.00000000000E+00 -0.00000000000E+00 -0.21220209928E+03  0.21220209929E+03  0.25500000000E-02 0. -1.
    5000001    1    1    2    0    0 -0.28036813900E+03 -0.14698375502E+03  0.15468485917E+03  0.38905388221E+03  0.16500000000E+03 0.  0.
   -5000001    1    1    2    0    0  0.28036813900E+03  0.14698375502E+03  0.24027696296E+03  0.43031213849E+03  0.16500000000E+03 0.  0.
<mgrwt>
<rscale>  0 0.71788985E+03</rscale>
<asrwt>0</asrwt>
<pdfrwt beam="1">  1        2 0.93409833E-01 0.71788985E+03</pdfrwt>
<pdfrwt beam="2">  1       -2 0.32646477E-01 0.71788985E+03</pdfrwt>
<totfact> 0.43034242E+02</totfact>
</mgrwt>
</event>
<event>
 4    1  0.9064384E-005  0.4793937E+03  0.7818608E-02  0.1019302E+00
         -2   -1    0    0    0  501 -0.00000000000E+00  0.00000000000E+00  0.10525787758E+04  0.10525787758E+04  0.25500000000E-02 0. -1.
          2   -1    0    0  501    0  0.00000000000E+00 -0.00000000000E+00 -0.54584587944E+02  0.54584588004E+02  0.25500000000E-02 0.  1.
    5000001    1    1    2    0    0  0.12433365733E+03 -0.90293931725E+02  0.31112001888E+03  0.38422977318E+03  0.16500000000E+03 0.  0.
   -5000001    1    1    2    0    0 -0.12433365733E+03  0.90293931725E+02  0.68687416898E+03  0.72293359063E+03  0.16500000000E+03 0.  0.
<mgrwt>
<rscale>  0 0.47939370E+03</rscale>
<asrwt>0</asrwt>
<pdfrwt beam="1">  1        2 0.83976298E-02 0.47939370E+03</pdfrwt>
<pdfrwt beam="2">  1       -2 0.16193518E+00 0.47939370E+03</pdfrwt>
<totfact> 0.20678665E+02</totfact>
</mgrwt>
</event>
<event>
 4    1  0.9064384E-005  0.4451544E+03  0.7818608E-02  0.1029177E+00
          2   -1    0    0  501    0  0.00000000000E+00  0.00000000000E+00  0.15900998953E+04  0.15900998953E+04  0.25500000000E-02 0.  1.
         -2   -1    0    0    0  501 -0.00000000000E+00 -0.00000000000E+00 -0.31155656163E+02  0.31155656267E+02  0.25500000000E-02 0. -1.
    5000001    1    1    2    0    0  0.89284665409E+02 -0.23056201477E+02  0.12075012117E+04  0.12222060040E+04  0.16500000000E+03 0.  0.
   -5000001    1    1    2    0    0 -0.89284665409E+02  0.23056201477E+02  0.35144302750E+03  0.39904954765E+03  0.16500000000E+03 0.  0.
<mgrwt>
<rscale>  0 0.44515438E+03</rscale>
<asrwt>0</asrwt>
<pdfrwt beam="1">  1        2 0.24463075E+00 0.44515438E+03</pdfrwt>
<pdfrwt beam="2">  1       -2 0.47931780E-02 0.44515438E+03</pdfrwt>
<totfact> 0.25425106E+03</totfact>
</mgrwt>
</event>
<event>
 4    1  0.9064384E-005  0.5334508E+03  0.7818608E-02  0.1005399E+00
         -2   -1    0    0    0  501 -0.00000000000E+00  0.00000000000E+00  0.74531502726E+03  0.74531502726E+03  0.25500000000E-02 0. -1.
          2   -1    0    0  501    0  0.00000000000E+00 -0.00000000000E+00 -0.95452837247E+02  0.95452837281E+02  0.25500000000E-02 0.  1.
    5000001    1    1    2    0    0  0.15046257437E+03 -0.12397904045E+03  0.44607148088E+03  0.51401804911E+03  0.16500000000E+03 0.  0.
   -5000001    1    1    2    0    0 -0.15046257437E+03  0.12397904045E+03  0.20379070913E+03  0.32674981543E+03  0.16500000000E+03 0.  0.
<mgrwt>
<rscale>  0 0.53345078E+03</rscale>
<asrwt>0</asrwt>
<pdfrwt beam="1">  1        2 0.14685052E-01 0.53345078E+03</pdfrwt>
<pdfrwt beam="2">  1       -2 0.11466385E+00 0.53345078E+03</pdfrwt>
<totfact> 0.24767005E+02</totfact>
</mgrwt>
</event>
<event>
 4    1  0.9064384E-005  0.6045237E+03  0.7818608E-02  0.9896065E-01
          2   -1    0    0  501    0  0.00000000000E+00  0.00000000000E+00  0.33470834101E+03  0.33470834102E+03  0.25500000000E-02 0.  1.
         -2   -1    0    0    0  501 -0.00000000000E+00 -0.00000000000E+00 -0.27296072845E+03  0.27296072847E+03  0.25500000000E-02 0. -1.
    5000001    1    1    2    0    0  0.24838338582E+03  0.14205224399E+02 -0.16713165360E+02  0.29899903787E+03  0.16500000000E+03 0.  0.
   -5000001    1    1    2    0    0 -0.24838338582E+03 -0.14205224399E+02  0.78460777921E+02  0.30867003162E+03  0.16500000000E+03 0.  0.
<mgrwt>
<rscale>  0 0.60452372E+03</rscale>
<asrwt>0</asrwt>
<pdfrwt beam="1">  1        2 0.51493591E-01 0.60452372E+03</pdfrwt>
<pdfrwt beam="2">  1       -2 0.41993958E-01 0.60452372E+03</pdfrwt>
<totfact> 0.52624669E+02</totfact>
</mgrwt>
</event>
<event>
 4    1  0.9064384E-005  0.5245704E+03  0.7818608E-02  0.1007557E+00
         -2   -1    0    0    0  501 -0.00000000000E+00  0.00000000000E+00  0.46007551445E+02  0.46007551516E+02  0.25500000000E-02 0. -1.
          2   -1    0    0  501    0  0.00000000000E+00 -0.00000000000E+00 -0.14952660464E+04  0.14952660464E+04  0.25500000000E-02 0.  1.
    5000001    1    1    2    0    0 -0.18185909110E+03 -0.84827113865E+02 -0.61868568499E+03  0.67101814064E+03  0.16500000000E+03 0.  0.
   -5000001    1    1    2    0    0  0.18185909110E+03  0.84827113865E+02 -0.83057280996E+03  0.87025545727E+03  0.16500000000E+03 0.  0.
<mgrwt>
<rscale>  0 0.52457041E+03</rscale>
<asrwt>0</asrwt>
<pdfrwt beam="1">  1        2 0.23004089E+00 0.52457041E+03</pdfrwt>
<pdfrwt beam="2">  1       -2 0.70780860E-02 0.52457041E+03</pdfrwt>
<totfact> 0.15573450E+03</totfact>
</mgrwt>
</event>
<event>
 4    1  0.9064384E-005  0.6230567E+03  0.7818608E-02  0.9858693E-01
         -2   -1    0    0    0  501 -0.00000000000E+00  0.00000000000E+00  0.14797773468E+03  0.14797773471E+03  0.25500000000E-02 0. -1.
          2   -1    0    0  501    0  0.00000000000E+00 -0.00000000000E+00 -0.65584134106E+03  0.65584134107E+03  0.25500000000E-02 0.  1.
    5000001    1    1    2    0    0  0.23968464314E+03  0.76576440366E+02 -0.14982099538E+03  0.33613094179E+03  0.16500000000E+03 0.  0.
   -5000001    1    1    2    0    0 -0.23968464314E+03 -0.76576440366E+02 -0.35804261100E+03  0.46768813398E+03  0.16500000000E+03 0.  0.
<mgrwt>
<rscale>  0 0.62305671E+03</rscale>
<asrwt>0</asrwt>
<pdfrwt beam="1">  1        2 0.10089867E+00 0.62305671E+03</pdfrwt>
<pdfrwt beam="2">  1       -2 0.22765806E-01 0.62305671E+03</pdfrwt>
<totfact> 0.75826276E+02</totfact>
</mgrwt>
</event>
<event>
 4    1  0.9064384E-005  0.6540939E+03  0.7818608E-02  0.9799128E-01
          2   -1    0    0  501    0  0.00000000000E+00  0.00000000000E+00  0.10203173978E+04  0.10203173978E+04  0.25500000000E-02 0.  1.
         -2   -1    0    0    0  501 -0.00000000000E+00 -0.00000000000E+00 -0.10482982716E+03  0.10482982719E+03  0.25500000000E-02 0. -1.
    5000001    1    1    2    0    0 -0.20869409620E+03  0.26401732448E+01  0.13057599080E+03  0.29637018352E+03  0.16500000000E+03 0.  0.
   -5000001    1    1    2    0    0  0.20869409620E+03 -0.26401732448E+01  0.78491157983E+03  0.82877704146E+03  0.16500000000E+03 0.  0.
<mgrwt>
<rscale>  0 0.65409387E+03</rscale>
<asrwt>0</asrwt>
<pdfrwt beam="1">  1        2 0.15697191E+00 0.65409387E+03</pdfrwt>
<pdfrwt beam="2">  1       -2 0.16127665E-01 0.65409387E+03</pdfrwt>
<totfact> 0.76309797E+02</totfact>
</mgrwt>
</event>
<event>
 4    1  0.9064384E-005  0.9474411E+03  0.7818608E-02  0.9368147E-01
         -2   -1    0    0    0  501 -0.00000000000E+00  0.00000000000E+00  0.13551574821E+03  0.13551574823E+03  0.25500000000E-02 0. -1.
          2   -1    0    0  501    0  0.00000000000E+00 -0.00000000000E+00 -0.16559784417E+04  0.16559784417E+04  0.25500000000E-02 0.  1.
    5000001    1    1    2    0    0  0.10408461152E+03 -0.42980407421E+03 -0.83636135884E+03  0.96035955304E+03  0.16500000000E+03 0.  0.
   -5000001    1    1    2    0    0 -0.10408461152E+03  0.42980407421E+03 -0.68410133462E+03  0.83113463686E+03  0.16500000000E+03 0.  0.
<mgrwt>
<rscale>  0 0.94744110E+03</rscale>
<asrwt>0</asrwt>
<pdfrwt beam="1">  1        2 0.25476590E+00 0.94744110E+03</pdfrwt>
<pdfrwt beam="2">  1       -2 0.20848578E-01 0.94744110E+03</pdfrwt>
<totfact> 0.20643654E+02</totfact>
</mgrwt>
</event>
<event>
 4    1  0.9064384E-005  0.6381330E+03  0.7818608E-02  0.9829305E-01
         -2   -1    0    0    0  501 -0.00000000000E+00  0.00000000000E+00  0.13904465643E+03  0.13904465646E+03  0.25500000000E-02 0. -1.
          2   -1    0    0  501    0  0.00000000000E+00 -0.00000000000E+00 -0.73216361120E+03  0.73216361121E+03  0.25500000000E-02 0.  1.
    5000001    1    1    2    0    0 -0.33684192693E+02  0.21298627531E+03 -0.67781391490E+02  0.27985191680E+03  0.16500000000E+03 0.  0.
   -5000001    1    1    2    0    0  0.33684192693E+02 -0.21298627531E+03 -0.52533756328E+03  0.59135635086E+03  0.16500000000E+03 0.  0.
<mgrwt>
<rscale>  0 0.63813302E+03</rscale>
<asrwt>0</asrwt>
<pdfrwt beam="1">  1        2 0.11264055E+00 0.63813302E+03</pdfrwt>
<pdfrwt beam="2">  1       -2 0.21391486E-01 0.63813302E+03</pdfrwt>
<totfact> 0.73726580E+02</totfact>
</mgrwt>
</event>
<event>
 4    1  0.9064384E-005  0.3748406E+03  0.7818608E-02  0.1052857E+00
          2   -1    0    0  501    0  0.00000000000E+00  0.00000000000E+00  0.53126726604E+03  0.53126726604E+03  0.25500000000E-02 0.  1.
         -2   -1    0    0    0  501 -0.00000000000E+00 -0.00000000000E+00 -0.66118084935E+02  0.66118084984E+02  0.25500000000E-02 0. -1.
    5000001    1    1    2    0    0  0.74710288119E+02  0.47611885183E+02  0.22098807372E+03  0.28967092965E+03  0.16500000000E+03 0.  0.
   -5000001    1    1    2    0    0 -0.74710288119E+02 -0.47611885183E+02  0.24416110738E+03  0.30771442137E+03  0.16500000000E+03 0.  0.
<mgrwt>
<rscale>  0 0.37484063E+03</rscale>
<asrwt>0</asrwt>
<pdfrwt beam="1">  1        2 0.81733425E-01 0.37484063E+03</pdfrwt>
<pdfrwt beam="2">  1       -2 0.10172013E-01 0.37484063E+03</pdfrwt>
<totfact> 0.37704347E+03</totfact>
</mgrwt>
</event>
<event>
 4    1  0.9064384E-005  0.4618759E+03  0.7818608E-02  0.1024239E+00
          2   -1    0    0  501    0  0.00000000000E+00  0.00000000000E+00  0.50916677321E+03  0.50916677322E+03  0.25500000000E-02 0.  1.
         -2   -1    0    0    0  501 -0.00000000000E+00 -0.00000000000E+00 -0.10474431942E+03  0.10474431945E+03  0.25500000000E-02 0. -1.
    5000001    1    1    2    0    0 -0.11571360518E+03  0.64775582986E+02  0.79510762429E+02  0.22612491220E+03  0.16500000000E+03 0.  0.
   -5000001    1    1    2    0    0  0.11571360518E+03 -0.64775582986E+02  0.32491169137E+03  0.38778618047E+03  0.16500000000E+03 0.  0.
<mgrwt>
<rscale>  0 0.46187586E+03</rscale>
<asrwt>0</asrwt>
<pdfrwt beam="1">  1        2 0.78333348E-01 0.46187586E+03</pdfrwt>
<pdfrwt beam="2">  1       -2 0.16114511E-01 0.46187586E+03</pdfrwt>
<totfact> 0.18624093E+03</totfact>
</mgrwt>
</event>
<event>
 4    1  0.9064384E-005  0.4669424E+03  0.7818608E-02  0.1022787E+00
          2   -1    0    0  501    0  0.00000000000E+00  0.00000000000E+00  0.55682136515E+03  0.55682136516E+03  0.25500000000E-02 0.  1.
         -2   -1    0    0    0  501 -0.00000000000E+00 -0.00000000000E+00 -0.97892805842E+02  0.97892805875E+02  0.25500000000E-02 0. -1.
    5000001    1    1    2    0    0 -0.51078974486E+02 -0.14549325860E+03  0.31249190183E+03  0.38555614201E+03  0.16500000000E+03 0.  0.
   -5000001    1    1    2    0    0  0.51078974486E+02  0.14549325860E+03  0.14643665748E+03  0.26915802902E+03  0.16500000000E+03 0.  0.
<mgrwt>
<rscale>  0 0.46694242E+03</rscale>
<asrwt>0</asrwt>
<pdfrwt beam="1">  1        2 0.85664826E-01 0.46694242E+03</pdfrwt>
<pdfrwt beam="2">  1       -2 0.15060432E-01 0.46694242E+03</pdfrwt>
<totfact> 0.18818314E+03</totfact>
</mgrwt>
</event>
<event>
 4    1  0.9064384E-005  0.6133647E+03  0.7818608E-02  0.9878060E-01
         -2   -1    0    0    0  501 -0.00000000000E+00  0.00000000000E+00  0.71312530645E+02  0.71312530690E+02  0.25500000000E-02 0. -1.
          2   -1    0    0  501    0  0.00000000000E+00 -0.00000000000E+00 -0.13188993356E+04  0.13188993356E+04  0.25500000000E-02 0.  1.
    5000001    1    1    2    0    0 -0.13338987010E+03  0.19500117517E+03 -0.86162544915E+03  0.90853823827E+03  0.16500000000E+03 0.  0.
   -5000001    1    1    2    0    0  0.13338987010E+03 -0.19500117517E+03 -0.38596135582E+03  0.48167362804E+03  0.16500000000E+03 0.  0.
<mgrwt>
<rscale>  0 0.61336465E+03</rscale>
<asrwt>0</asrwt>
<pdfrwt beam="1">  1        2 0.20290757E+00 0.61336465E+03</pdfrwt>
<pdfrwt beam="2">  1       -2 0.10971160E-01 0.61336465E+03</pdfrwt>
<totfact> 0.96417199E+02</totfact>
</mgrwt>
</event>
<event>
 4    1  0.9064384E-005  0.4879190E+03  0.7818608E-02  0.1016981E+00
          2   -1    0    0  501    0  0.00000000000E+00  0.00000000000E+00  0.15498875044E+04  0.15498875044E+04  0.25500000000E-02 0.  1.
         -2   -1    0    0    0  501 -0.00000000000E+00 -0.00000000000E+00 -0.38400362027E+02  0.38400362112E+02  0.25500000000E-02 0. -1.
    5000001    1    1    2    0    0  0.83966531765E+02  0.15798587974E+03  0.70114448217E+03  0.74218495102E+03  0.16500000000E+03 0.  0.
   -5000001    1    1    2    0    0 -0.83966531765E+02 -0.15798587974E+03  0.81034266023E+03  0.84610291551E+03  0.16500000000E+03 0.  0.
<mgrwt>
<rscale>  0 0.48791902E+03</rscale>
<asrwt>0</asrwt>
<pdfrwt beam="1">  1        2 0.23844418E+00 0.48791902E+03</pdfrwt>
<pdfrwt beam="2">  1       -2 0.59077493E-02 0.48791902E+03</pdfrwt>
<totfact> 0.19321975E+03</totfact>
</mgrwt>
</event>
<event>
 4    1  0.9064384E-005  0.7592782E+03  0.7818608E-02  0.9620906E-01
         -2   -1    0    0    0  501 -0.00000000000E+00  0.00000000000E+00  0.13546995124E+03  0.13546995126E+03  0.25500000000E-02 0. -1.
          2   -1    0    0  501    0  0.00000000000E+00 -0.00000000000E+00 -0.10638953639E+04  0.10638953639E+04  0.25500000000E-02 0.  1.
    5000001    1    1    2    0    0  0.86742094286E+02  0.28606256802E+03 -0.20205000559E+03  0.39674322742E+03  0.16500000000E+03 0.  0.
   -5000001    1    1    2    0    0 -0.86742094286E+02 -0.28606256802E+03 -0.72637540702E+03  0.80262208770E+03  0.16500000000E+03 0.  0.
<mgrwt>
<rscale>  0 0.75927822E+03</rscale>
<asrwt>0</asrwt>
<pdfrwt beam="1">  1        2 0.16367620E+00 0.75927822E+03</pdfrwt>
<pdfrwt beam="2">  1       -2 0.20841532E-01 0.75927822E+03</pdfrwt>
<totfact> 0.45813848E+02</totfact>
</mgrwt>
</event>
<event>
 4    1  0.9064384E-005  0.5025650E+03  0.7818608E-02  0.1013112E+00
          2   -1    0    0  501    0  0.00000000000E+00  0.00000000000E+00  0.16744658854E+04  0.16744658854E+04  0.25500000000E-02 0.  1.
         -2   -1    0    0    0  501 -0.00000000000E+00 -0.00000000000E+00 -0.37709268088E+02  0.37709268174E+02  0.25500000000E-02 0. -1.
    5000001    1    1    2    0    0  0.47294901839E+02  0.18351653004E+03  0.81271990987E+03  0.85067842128E+03  0.16500000000E+03 0.  0.
   -5000001    1    1    2    0    0 -0.47294901839E+02 -0.18351653004E+03  0.82403670745E+03  0.86149673230E+03  0.16500000000E+03 0.  0.
<mgrwt>
<rscale>  0 0.50256495E+03</rscale>
<asrwt>0</asrwt>
<pdfrwt beam="1">  1        2 0.25761019E+00 0.50256495E+03</pdfrwt>
<pdfrwt beam="2">  1       -2 0.58014247E-02 0.50256495E+03</pdfrwt>
<totfact> 0.17002348E+03</totfact>
</mgrwt>
</event>
<event>
 4    1  0.9064384E-005  0.3557619E+03  0.7818608E-02  0.1060275E+00
          2   -1    0    0  501    0  0.00000000000E+00  0.00000000000E+00  0.26098437807E+03  0.26098437808E+03  0.25500000000E-02 0.  1.
         -2   -1    0    0    0  501 -0.00000000000E+00 -0.00000000000E+00 -0.12123957002E+03  0.12123957004E+03  0.25500000000E-02 0. -1.
    5000001    1    1    2    0    0  0.11446152032E+02 -0.47786984473E+02  0.21800310653E+02  0.17353634728E+03  0.16500000000E+03 0.  0.
   -5000001    1    1    2    0    0 -0.11446152032E+02  0.47786984473E+02  0.11794449740E+03  0.20868760085E+03  0.16500000000E+03 0.  0.
<mgrwt>
<rscale>  0 0.35576191E+03</rscale>
<asrwt>0</asrwt>
<pdfrwt beam="1">  1        2 0.40151442E-01 0.35576191E+03</pdfrwt>
<pdfrwt beam="2">  1       -2 0.18652242E-01 0.35576191E+03</pdfrwt>
<totfact> 0.30280209E+03</totfact>
</mgrwt>
</event>
<event>
 4    1  0.9064384E-005  0.4850299E+03  0.7818608E-02  0.1017762E+00
          2   -1    0    0  501    0  0.00000000000E+00  0.00000000000E+00  0.23783470383E+04  0.23783470383E+04  0.25500000000E-02 0.  1.
         -2   -1    0    0    0  501 -0.00000000000E+00 -0.00000000000E+00 -0.24728732324E+02  0.24728732455E+02  0.25500000000E-02 0. -1.
    5000001    1    1    2    0    0  0.14581574104E+03 -0.50513246623E+02  0.73995100290E+03  0.77367066967E+03  0.16500000000E+03 0.  0.
   -5000001    1    1    2    0    0 -0.14581574104E+03  0.50513246623E+02  0.16136673031E+04  0.16294051011E+04  0.16500000000E+03 0.  0.
<mgrwt>
<rscale>  0 0.48502993E+03</rscale>
<asrwt>0</asrwt>
<pdfrwt beam="1">  1        2 0.36589965E+00 0.48502993E+03</pdfrwt>
<pdfrwt beam="2">  1       -2 0.38044193E-02 0.48502993E+03</pdfrwt>
<totfact> 0.13566159E+03</totfact>
</mgrwt>
</event>
<event>
 4    1  0.9064384E-005  0.4704139E+03  0.7818608E-02  0.1021803E+00
          2   -1    0    0  501    0  0.00000000000E+00  0.00000000000E+00  0.75447044803E+03  0.75447044804E+03  0.25500000000E-02 0.  1.
         -2   -1    0    0    0  501 -0.00000000000E+00 -0.00000000000E+00 -0.73325998881E+02  0.73325998925E+02  0.25500000000E-02 0. -1.
    5000001    1    1    2    0    0 -0.13553425082E+03 -0.25894747043E+02  0.50804380011E+03  0.55170061981E+03  0.16500000000E+03 0.  0.
   -5000001    1    1    2    0    0  0.13553425082E+03  0.25894747043E+02  0.17310064904E+03  0.27609582715E+03  0.16500000000E+03 0.  0.
<mgrwt>
<rscale>  0 0.47041386E+03</rscale>
<asrwt>0</asrwt>
<pdfrwt beam="1">  1        2 0.11607238E+00 0.47041386E+03</pdfrwt>
<pdfrwt beam="2">  1       -2 0.11280923E-01 0.47041386E+03</pdfrwt>
<totfact> 0.20966029E+03</totfact>
</mgrwt>
</event>
<event>
 4    1  0.9064384E-005  0.4407263E+03  0.7818608E-02  0.1030524E+00
          2   -1    0    0  501    0  0.00000000000E+00  0.00000000000E+00  0.79879855117E+03  0.79879855118E+03  0.25500000000E-02 0.  1.
         -2   -1    0    0    0  501 -0.00000000000E+00 -0.00000000000E+00 -0.60791181560E+02  0.60791181614E+02  0.25500000000E-02 0. -1.
    5000001    1    1    2    0    0  0.78664866620E+02 -0.22839386072E+02  0.13313414881E+03  0.22728726400E+03  0.16500000000E+03 0.  0.
   -5000001    1    1    2    0    0 -0.78664866620E+02  0.22839386072E+02  0.60487322080E+03  0.63230246879E+03  0.16500000000E+03 0.  0.
<mgrwt>
<rscale>  0 0.44072625E+03</rscale>
<asrwt>0</asrwt>
<pdfrwt beam="1">  1        2 0.12289208E+00 0.44072625E+03</pdfrwt>
<pdfrwt beam="2">  1       -2 0.93524896E-02 0.44072625E+03</pdfrwt>
<totfact> 0.26363368E+03</totfact>
</mgrwt>
</event>
<event>
 4    1  0.9064384E-005  0.8569828E+03  0.7818608E-02  0.9481013E-01
          2   -1    0    0  501    0  0.00000000000E+00  0.00000000000E+00  0.12851238765E+04  0.12851238765E+04  0.25500000000E-02 0.  1.
         -2   -1    0    0    0  501 -0.00000000000E+00 -0.00000000000E+00 -0.14286938837E+03  0.14286938839E+03  0.25500000000E-02 0. -1.
    5000001    1    1    2    0    0 -0.11320052924E+02  0.39464146316E+03  0.60875155486E+03  0.74409238915E+03  0.16500000000E+03 0.  0.
   -5000001    1    1    2    0    0  0.11320052924E+02 -0.39464146316E+03  0.53350293331E+03  0.68390087578E+03  0.16500000000E+03 0.  0.
<mgrwt>
<rscale>  0 0.85698276E+03</rscale>
<asrwt>0</asrwt>
<pdfrwt beam="1">  1        2 0.19771136E+00 0.85698276E+03</pdfrwt>
<pdfrwt beam="2">  1       -2 0.21979907E-01 0.85698276E+03</pdfrwt>
<totfact> 0.30592603E+02</totfact>
</mgrwt>
</event>
<event>
 4    1  0.9064384E-005  0.6253362E+03  0.7818608E-02  0.9854192E-01
          2   -1    0    0  501    0  0.00000000000E+00  0.00000000000E+00  0.84531856014E+02  0.84531856053E+02  0.25500000000E-02 0.  1.
         -2   -1    0    0    0  501 -0.00000000000E+00 -0.00000000000E+00 -0.11565028543E+04  0.11565028543E+04  0.25500000000E-02 0. -1.
    5000001    1    1    2    0    0 -0.16038780448E+03 -0.20901412439E+03 -0.46941504408E+03  0.56301566197E+03  0.16500000000E+03 0.  0.
   -5000001    1    1    2    0    0  0.16038780448E+03  0.20901412439E+03 -0.60255595421E+03  0.67801904838E+03  0.16500000000E+03 0.  0.
<mgrwt>
<rscale>  0 0.62533617E+03</rscale>
<asrwt>0</asrwt>
<pdfrwt beam="1">  1        2 0.13004902E-01 0.62533617E+03</pdfrwt>
<pdfrwt beam="2">  1       -2 0.17792351E+00 0.62533617E+03</pdfrwt>
<totfact> 0.91359823E+01</totfact>
</mgrwt>
</event>
<event>
 4    1  0.9064384E-005  0.8480049E+03  0.7818608E-02  0.9493019E-01
          2   -1    0    0  501    0  0.00000000000E+00  0.00000000000E+00  0.13762304531E+04  0.13762304531E+04  0.25500000000E-02 0. -1.
         -2   -1    0    0    0  501 -0.00000000000E+00 -0.00000000000E+00 -0.13063079087E+03  0.13063079090E+03  0.25500000000E-02 0.  1.
    5000001    1    1    2    0    0  0.79124855324E+02  0.12953791321E+03  0.12622848084E+04  0.12820408539E+04  0.16500000000E+03 0.  0.
   -5000001    1    1    2    0    0 -0.79124855324E+02 -0.12953791321E+03 -0.16685146152E+02  0.22482039007E+03  0.16500000000E+03 0.  0.
<mgrwt>
<rscale>  0 0.84800489E+03</rscale>
<asrwt>0</asrwt>
<pdfrwt beam="1">  1        2 0.21172777E+00 0.84800489E+03</pdfrwt>
<pdfrwt beam="2">  1       -2 0.20097044E-01 0.84800489E+03</pdfrwt>
<totfact> 0.31773108E+02</totfact>
</mgrwt>
</event>
<event>
 4    1  0.9064384E-005  0.4399775E+03  0.7818608E-02  0.1030754E+00
         -2   -1    0    0    0  501 -0.00000000000E+00  0.00000000000E+00  0.41103900244E+02  0.41103900323E+02  0.25500000000E-02 0. -1.
          2   -1    0    0  501    0  0.00000000000E+00 -0.00000000000E+00 -0.11773836486E+04  0.11773836486E+04  0.25500000000E-02 0.  1.
    5000001    1    1    2    0    0 -0.10162463944E+03 -0.52499525718E+01 -0.85614648384E+03  0.87781941829E+03  0.16500000000E+03 0.  0.
   -5000001    1    1    2    0    0  0.10162463944E+03  0.52499525718E+01 -0.28013326456E+03  0.34066813067E+03  0.16500000000E+03 0.  0.
<mgrwt>
<rscale>  0 0.43997755E+03</rscale>
<asrwt>0</asrwt>
<pdfrwt beam="1">  1        2 0.18113592E+00 0.43997755E+03</pdfrwt>
<pdfrwt beam="2">  1       -2 0.63236779E-02 0.43997755E+03</pdfrwt>
<totfact> 0.28138833E+03</totfact>
</mgrwt>
</event>
<event>
 4    1  0.9064384E-005  0.4043424E+03  0.7818608E-02  0.1042286E+00
          2   -1    0    0  501    0  0.00000000000E+00  0.00000000000E+00  0.42197919628E+03  0.42197919629E+03  0.25500000000E-02 0.  1.
         -2   -1    0    0    0  501 -0.00000000000E+00 -0.00000000000E+00 -0.96860703435E+02  0.96860703468E+02  0.25500000000E-02 0. -1.
    5000001    1    1    2    0    0  0.10124600952E+03  0.58153305091E+02  0.16763392808E+03  0.26259987658E+03  0.16500000000E+03 0.  0.
   -5000001    1    1    2    0    0 -0.10124600952E+03 -0.58153305091E+02  0.15748456476E+03  0.25624002317E+03  0.16500000000E+03 0.  0.
<mgrwt>
<rscale>  0 0.40434244E+03</rscale>
<asrwt>0</asrwt>
<pdfrwt beam="1">  1        2 0.64919875E-01 0.40434244E+03</pdfrwt>
<pdfrwt beam="2">  1       -2 0.14901647E-01 0.40434244E+03</pdfrwt>
<totfact> 0.26207584E+03</totfact>
</mgrwt>
</event>
<event>
 4    1  0.9064384E-005  0.8574028E+03  0.7818608E-02  0.9480455E-01
          2   -1    0    0  501    0  0.00000000000E+00  0.00000000000E+00  0.16854574843E+04  0.16854574843E+04  0.25500000000E-02 0.  1.
         -2   -1    0    0    0  501 -0.00000000000E+00 -0.00000000000E+00 -0.10904153805E+03  0.10904153808E+03  0.25500000000E-02 0. -1.
    5000001    1    1    2    0    0 -0.30655160103E+03  0.20131494102E+03  0.47736272317E+03  0.62418087046E+03  0.16500000000E+03 0.  0.
   -5000001    1    1    2    0    0  0.30655160103E+03 -0.20131494102E+03  0.10990532231E+04  0.11703181519E+04  0.16500000000E+03 0.  0.
<mgrwt>
<rscale>  0 0.85740277E+03</rscale>
<asrwt>0</asrwt>
<pdfrwt beam="1">  1        2 0.25930117E+00 0.85740277E+03</pdfrwt>
<pdfrwt beam="2">  1       -2 0.16775620E-01 0.85740277E+03</pdfrwt>
<totfact> 0.29195609E+02</totfact>
</mgrwt>
</event>
<event>
 4    1  0.9064384E-005  0.8063526E+03  0.7818608E-02  0.9550867E-01
          2   -1    0    0  501    0  0.00000000000E+00  0.00000000000E+00  0.44808658460E+03  0.44808658460E+03  0.25500000000E-02 0. -1.
         -2   -1    0    0    0  501 -0.00000000000E+00 -0.00000000000E+00 -0.36276726563E+03  0.36276726564E+03  0.25500000000E-02 0.  1.
    5000001    1    1    2    0    0 -0.14538226924E+03 -0.33337698010E+03  0.98194113514E+02  0.41127034782E+03  0.16500000000E+03 0.  0.
   -5000001    1    1    2    0    0  0.14538226924E+03  0.33337698010E+03 -0.12874794548E+02  0.39958350242E+03  0.16500000000E+03 0.  0.
<mgrwt>
<rscale>  0 0.80635264E+03</rscale>
<asrwt>0</asrwt>
<pdfrwt beam="1">  1        2 0.68936398E-01 0.80635264E+03</pdfrwt>
<pdfrwt beam="2">  1       -2 0.55810349E-01 0.80635264E+03</pdfrwt>
<totfact> 0.21228852E+02</totfact>
</mgrwt>
</event>
<event>
 4    1  0.9064384E-005  0.4044123E+03  0.7818608E-02  0.1042262E+00
         -2   -1    0    0    0  501 -0.00000000000E+00  0.00000000000E+00  0.28009390261E+02  0.28009390377E+02  0.25500000000E-02 0. -1.
          2   -1    0    0  501    0  0.00000000000E+00 -0.00000000000E+00 -0.14597724579E+04  0.14597724579E+04  0.25500000000E-02 0.  1.
    5000001    1    1    2    0    0 -0.11218267059E+03  0.23766147567E+02 -0.63259300856E+03  0.66373842426E+03  0.16500000000E+03 0.  0.
   -5000001    1    1    2    0    0  0.11218267059E+03 -0.23766147567E+02 -0.79917005907E+03  0.82404342402E+03  0.16500000000E+03 0.  0.
<mgrwt>
<rscale>  0 0.40441235E+03</rscale>
<asrwt>0</asrwt>
<pdfrwt beam="1">  1        2 0.22458032E+00 0.40441235E+03</pdfrwt>
<pdfrwt beam="2">  1       -2 0.43091381E-02 0.40441235E+03</pdfrwt>
<totfact> 0.35258622E+03</totfact>
</mgrwt>
</event>
<event>
 4    1  0.9064384E-005  0.6480704E+03  0.7818608E-02  0.9810407E-01
         -2   -1    0    0    0  501 -0.00000000000E+00  0.00000000000E+00  0.65360227645E+02  0.65360227695E+02  0.25500000000E-02 0. -1.
          2   -1    0    0  501    0  0.00000000000E+00 -0.00000000000E+00 -0.16064635089E+04  0.16064635089E+04  0.25500000000E-02 0.  1.
    5000001    1    1    2    0    0 -0.26909144634E+03 -0.73227182933E+02 -0.76750598507E+03  0.83310435356E+03  0.16500000000E+03 0.  0.
   -5000001    1    1    2    0    0  0.26909144634E+03  0.73227182933E+02 -0.77359729623E+03  0.83871938308E+03  0.16500000000E+03 0.  0.
<mgrwt>
<rscale>  0 0.64807043E+03</rscale>
<asrwt>0</asrwt>
<pdfrwt beam="1">  1        2 0.24714820E+00 0.64807043E+03</pdfrwt>
<pdfrwt beam="2">  1       -2 0.10055421E-01 0.64807043E+03</pdfrwt>
<totfact> 0.76715569E+02</totfact>
</mgrwt>
</event>
<event>
 4    1  0.9064384E-005  0.4773251E+03  0.7818608E-02  0.1019873E+00
         -2   -1    0    0    0  501 -0.00000000000E+00  0.00000000000E+00  0.16408553845E+03  0.16408553847E+03  0.25500000000E-02 0. -1.
          2   -1    0    0  501    0  0.00000000000E+00 -0.00000000000E+00 -0.34713491408E+03  0.34713491409E+03  0.25500000000E-02 0.  1.
    5000001    1    1    2    0    0 -0.16623956174E+03  0.42969790694E+02 -0.74495124828E+02  0.24951256165E+03  0.16500000000E+03 0.  0.
   -5000001    1    1    2    0    0  0.16623956174E+03 -0.42969790694E+02 -0.10855425080E+03  0.26170789091E+03  0.16500000000E+03 0.  0.
<mgrwt>
<rscale>  0 0.47732513E+03</rscale>
<asrwt>0</asrwt>
<pdfrwt beam="1">  1        2 0.53405371E-01 0.47732513E+03</pdfrwt>
<pdfrwt beam="2">  1       -2 0.25243929E-01 0.47732513E+03</pdfrwt>
<totfact> 0.13112279E+03</totfact>
</mgrwt>
</event>
<event>
 4    1  0.9064384E-005  0.5075606E+03  0.7818608E-02  0.1011824E+00
          2   -1    0    0  501    0  0.00000000000E+00  0.00000000000E+00  0.12709337888E+04  0.12709337888E+04  0.25500000000E-02 0.  1.
         -2   -1    0    0    0  501 -0.00000000000E+00 -0.00000000000E+00 -0.50674890415E+02  0.50674890479E+02  0.25500000000E-02 0. -1.
    5000001    1    1    2    0    0 -0.17084548435E+03 -0.88228281081E+02  0.64759418258E+03  0.69539602704E+03  0.16500000000E+03 0.  0.
   -5000001    1    1    2    0    0  0.17084548435E+03  0.88228281081E+02  0.57266471580E+03  0.62621265224E+03  0.16500000000E+03 0.  0.
<mgrwt>
<rscale>  0 0.50756056E+03</rscale>
<asrwt>0</asrwt>
<pdfrwt beam="1">  1        2 0.19552827E+00 0.50756056E+03</pdfrwt>
<pdfrwt beam="2">  1       -2 0.77961371E-02 0.50756056E+03</pdfrwt>
<totfact> 0.17859380E+03</totfact>
</mgrwt>
</event>
<event>
 4    1  0.9064384E-005  0.4250474E+03  0.7818608E-02  0.1035436E+00
         -2   -1    0    0    0  501 -0.00000000000E+00  0.00000000000E+00  0.29365818487E+02  0.29365818598E+02  0.25500000000E-02 0. -1.
          2   -1    0    0  501    0  0.00000000000E+00 -0.00000000000E+00 -0.15380575910E+04  0.15380575910E+04  0.25500000000E-02 0.  1.
    5000001    1    1    2    0    0 -0.94102000387E+02 -0.89730086451E+02 -0.63572949417E+03  0.66953989026E+03  0.16500000000E+03 0.  0.
   -5000001    1    1    2    0    0  0.94102000387E+02  0.89730086451E+02 -0.87296227831E+03  0.89788351931E+03  0.16500000000E+03 0.  0.
<mgrwt>
<rscale>  0 0.42504739E+03</rscale>
<asrwt>0</asrwt>
<pdfrwt beam="1">  1        2 0.23662418E+00 0.42504739E+03</pdfrwt>
<pdfrwt beam="2">  1       -2 0.45178194E-02 0.42504739E+03</pdfrwt>
<totfact> 0.29723082E+03</totfact>
</mgrwt>
</event>
<event>
 4    1  0.9064384E-005  0.4577071E+03  0.7818608E-02  0.1025448E+00
          2   -1    0    0  501    0  0.00000000000E+00  0.00000000000E+00  0.10141445903E+04  0.10141445903E+04  0.25500000000E-02 0.  1.
         -2   -1    0    0    0  501 -0.00000000000E+00 -0.00000000000E+00 -0.51643475388E+02  0.51643475451E+02  0.25500000000E-02 0. -1.
    5000001    1    1    2    0    0 -0.75331036035E+02  0.83889454811E+02  0.22157171716E+03  0.29838101726E+03  0.16500000000E+03 0.  0.
   -5000001    1    1    2    0    0  0.75331036035E+02 -0.83889454811E+02  0.74092939776E+03  0.76740704849E+03  0.16500000000E+03 0.  0.
<mgrwt>
<rscale>  0 0.45770712E+03</rscale>
<asrwt>0</asrwt>
<pdfrwt beam="1">  1        2 0.15602224E+00 0.45770712E+03</pdfrwt>
<pdfrwt beam="2">  1       -2 0.79451501E-02 0.45770712E+03</pdfrwt>
<totfact> 0.24645597E+03</totfact>
</mgrwt>
</event>
<event>
 4    1  0.9064384E-005  0.5609971E+03  0.7818608E-02  0.9989801E-01
         -2   -1    0    0    0  501 -0.00000000000E+00  0.00000000000E+00  0.49058959098E+02  0.49058959164E+02  0.25500000000E-02 0. -1.
          2   -1    0    0  501    0  0.00000000000E+00 -0.00000000000E+00 -0.16037730505E+04  0.16037730505E+04  0.25500000000E-02 0.  1.
    5000001    1    1    2    0    0  0.67832094528E+02 -0.21645079365E+03 -0.77289135585E+03  0.82221541403E+03  0.16500000000E+03 0.  0.
   -5000001    1    1    2    0    0 -0.67832094528E+02  0.21645079365E+03 -0.78182273557E+03  0.83061659566E+03  0.16500000000E+03 0.  0.
<mgrwt>
<rscale>  0 0.56099710E+03</rscale>
<asrwt>0</asrwt>
<pdfrwt beam="1">  1        2 0.24673427E+00 0.56099710E+03</pdfrwt>
<pdfrwt beam="2">  1       -2 0.75475334E-02 0.56099710E+03</pdfrwt>
<totfact> 0.12252034E+03</totfact>
</mgrwt>
</event>
<event>
 4    1  0.9064384E-005  0.4564526E+03  0.7818608E-02  0.1025815E+00
          2   -1    0    0  501    0  0.00000000000E+00  0.00000000000E+00  0.11517918906E+04  0.11517918906E+04  0.25500000000E-02 0.  1.
         -2   -1    0    0    0  501 -0.00000000000E+00 -0.00000000000E+00 -0.45222796713E+02  0.45222796785E+02  0.25500000000E-02 0. -1.
    5000001    1    1    2    0    0 -0.15237554778E+03 -0.14495040769E+02  0.45398354558E+03  0.50670945662E+03  0.16500000000E+03 0.  0.
   -5000001    1    1    2    0    0  0.15237554778E+03  0.14495040769E+02  0.65258554832E+03  0.69030523078E+03  0.16500000000E+03 0.  0.
<mgrwt>
<rscale>  0 0.45645263E+03</rscale>
<asrwt>0</asrwt>
<pdfrwt beam="1">  1        2 0.17719875E+00 0.45645263E+03</pdfrwt>
<pdfrwt beam="2">  1       -2 0.69573536E-02 0.45645263E+03</pdfrwt>
<totfact> 0.25083205E+03</totfact>
</mgrwt>
</event>
<event>
 4    1  0.9064384E-005  0.9056278E+03  0.7818608E-02  0.9418574E-01
          2   -1    0    0  501    0  0.00000000000E+00  0.00000000000E+00  0.79662622679E+03  0.79662622679E+03  0.25500000000E-02 0.  1.
         -2   -1    0    0    0  501 -0.00000000000E+00 -0.00000000000E+00 -0.25738600056E+03  0.25738600057E+03  0.25500000000E-02 0. -1.
    5000001    1    1    2    0    0 -0.33141604124E+03  0.25220054621E+03  0.19265003899E+03  0.48762767090E+03  0.16500000000E+03 0.  0.
   -5000001    1    1    2    0    0  0.33141604124E+03 -0.25220054621E+03  0.34659018724E+03  0.56638455646E+03  0.16500000000E+03 0.  0.
<mgrwt>
<rscale>  0 0.90562782E+03</rscale>
<asrwt>0</asrwt>
<pdfrwt beam="1">  1        2 0.12255788E+00 0.90562782E+03</pdfrwt>
<pdfrwt beam="2">  1       -2 0.39597846E-01 0.90562782E+03</pdfrwt>
<totfact> 0.20938242E+02</totfact>
</mgrwt>
</event>
<event>
 4    1  0.9064384E-005  0.6511232E+03  0.7818608E-02  0.9804674E-01
         -2   -1    0    0    0  501 -0.00000000000E+00  0.00000000000E+00  0.45401733726E+02  0.45401733798E+02  0.25500000000E-02 0. -1.
          2   -1    0    0  501    0  0.00000000000E+00 -0.00000000000E+00 -0.23344999164E+04  0.23344999164E+04  0.25500000000E-02 0.  1.
    5000001    1    1    2    0    0  0.22539985554E+03  0.15313978201E+03 -0.13899689944E+04  0.14260069050E+04  0.16500000000E+03 0.  0.
   -5000001    1    1    2    0    0 -0.22539985554E+03 -0.15313978201E+03 -0.89912918828E+03  0.95389474520E+03  0.16500000000E+03 0.  0.
<mgrwt>
<rscale>  0 0.65112316E+03</rscale>
<asrwt>0</asrwt>
<pdfrwt beam="1">  1        2 0.35915374E+00 0.65112316E+03</pdfrwt>
<pdfrwt beam="2">  1       -2 0.69848839E-02 0.65112316E+03</pdfrwt>
<totfact> 0.55104213E+02</totfact>
</mgrwt>
</event>
<event>
 4    1  0.9064384E-005  0.1033345E+04  0.7818608E-02  0.9272710E-01
         -2   -1    0    0    0  501 -0.00000000000E+00  0.00000000000E+00  0.82753731490E+02  0.82753731530E+02  0.25500000000E-02 0. -1.
          2   -1    0    0  501    0  0.00000000000E+00 -0.00000000000E+00 -0.32258407602E+04  0.32258407602E+04  0.25500000000E-02 0.  1.
    5000001    1    1    2    0    0  0.33794016524E+03 -0.34016687777E+03 -0.12544443008E+04  0.13530604436E+04  0.16500000000E+03 0.  0.
   -5000001    1    1    2    0    0 -0.33794016524E+03  0.34016687777E+03 -0.18886427278E+04  0.19555340481E+04  0.16500000000E+03 0.  0.
<mgrwt>
<rscale>  0 0.10333448E+04</rscale>
<asrwt>0</asrwt>
<pdfrwt beam="1">  1        2 0.49628310E+00 0.10333448E+04</pdfrwt>
<pdfrwt beam="2">  1       -2 0.12731346E-01 0.10333448E+04</pdfrwt>
<totfact> 0.59137716E+01</totfact>
</mgrwt>
</event>
<event>
 4    1  0.9064384E-005  0.5435746E+03  0.7818608E-02  0.1002992E+00
         -2   -1    0    0    0  501 -0.00000000000E+00  0.00000000000E+00  0.28315131580E+02  0.28315131694E+02  0.25500000000E-02 0. -1.
          2   -1    0    0  501    0  0.00000000000E+00 -0.00000000000E+00 -0.26087935973E+04  0.26087935973E+04  0.25500000000E-02 0.  1.
    5000001    1    1    2    0    0  0.17518676298E+03  0.12581569241E+03 -0.13441192162E+04  0.13712773089E+04  0.16500000000E+03 0.  0.
   -5000001    1    1    2    0    0 -0.17518676298E+03 -0.12581569241E+03 -0.12363592494E+04  0.12658314201E+04  0.16500000000E+03 0.  0.
<mgrwt>
<rscale>  0 0.54357459E+03</rscale>
<asrwt>0</asrwt>
<pdfrwt beam="1">  1        2 0.40135267E+00 0.54357459E+03</pdfrwt>
<pdfrwt beam="2">  1       -2 0.43561762E-02 0.54357459E+03</pdfrwt>
<totfact> 0.81495967E+02</totfact>
</mgrwt>
</event>
<event>
 4    1  0.9064384E-005  0.3851184E+03  0.7818608E-02  0.1049058E+00
          2   -1    0    0  501    0  0.00000000000E+00  0.00000000000E+00  0.18964878446E+04  0.18964878446E+04  0.25500000000E-02 0.  1.
         -2   -1    0    0    0  501 -0.00000000000E+00 -0.00000000000E+00 -0.19551423147E+02  0.19551423313E+02  0.25500000000E-02 0. -1.
    5000001    1    1    2    0    0  0.18045825047E+02 -0.95221418033E+02  0.10453210407E+04  0.10626917937E+04  0.16500000000E+03 0.  0.
   -5000001    1    1    2    0    0 -0.18045825047E+02  0.95221418033E+02  0.83161538072E+03  0.85334747419E+03  0.16500000000E+03 0.  0.
<mgrwt>
<rscale>  0 0.38511835E+03</rscale>
<asrwt>0</asrwt>
<pdfrwt beam="1">  1        2 0.29176729E+00 0.38511835E+03</pdfrwt>
<pdfrwt beam="2">  1       -2 0.30079120E-02 0.38511835E+03</pdfrwt>
<totfact> 0.35441413E+03</totfact>
</mgrwt>
</event>
<event>
 4    1  0.9064384E-005  0.3747364E+03  0.7818608E-02  0.1052897E+00
         -2   -1    0    0    0  501 -0.00000000000E+00  0.00000000000E+00  0.15084365152E+03  0.15084365154E+03  0.25500000000E-02 0. -1.
          2   -1    0    0  501    0  0.00000000000E+00 -0.00000000000E+00 -0.23273661467E+03  0.23273661468E+03  0.25500000000E-02 0.  1.
    5000001    1    1    2    0    0 -0.13896153882E+02 -0.87499308659E+02 -0.46791651009E+02  0.19303805509E+03  0.16500000000E+03 0.  0.
   -5000001    1    1    2    0    0  0.13896153882E+02  0.87499308659E+02 -0.35101312145E+02  0.19054221113E+03  0.16500000000E+03 0.  0.
<mgrwt>
<rscale>  0 0.37473639E+03</rscale>
<asrwt>0</asrwt>
<pdfrwt beam="1">  1        2 0.35805633E-01 0.37473639E+03</pdfrwt>
<pdfrwt beam="2">  1       -2 0.23206716E-01 0.37473639E+03</pdfrwt>
<totfact> 0.23527002E+03</totfact>
</mgrwt>
</event>
<event>
 4    1  0.9064384E-005  0.4354101E+03  0.7818608E-02  0.1032164E+00
         -2   -1    0    0    0  501 -0.00000000000E+00  0.00000000000E+00  0.11161129328E+03  0.11161129331E+03  0.25500000000E-02 0. -1.
          2   -1    0    0  501    0  0.00000000000E+00 -0.00000000000E+00 -0.42464779256E+03  0.42464779257E+03  0.25500000000E-02 0.  1.
    5000001    1    1    2    0    0  0.16820919849E+02 -0.11655562694E+03 -0.25429301770E+03  0.32520469918E+03  0.16500000000E+03 0.  0.
   -5000001    1    1    2    0    0 -0.16820919849E+02  0.11655562694E+03 -0.58743481580E+02  0.21105438670E+03  0.16500000000E+03 0.  0.
<mgrwt>
<rscale>  0 0.43541010E+03</rscale>
<asrwt>0</asrwt>
<pdfrwt beam="1">  1        2 0.65330429E-01 0.43541010E+03</pdfrwt>
<pdfrwt beam="2">  1       -2 0.17170968E-01 0.43541010E+03</pdfrwt>
<totfact> 0.20519947E+03</totfact>
</mgrwt>
</event>
<event>
 4    1  0.9064384E-005  0.4647115E+03  0.7818608E-02  0.1023424E+00
          2   -1    0    0  501    0  0.00000000000E+00  0.00000000000E+00  0.13446816474E+03  0.13446816477E+03  0.25500000000E-02 0.  1.
         -2   -1    0    0    0  501 -0.00000000000E+00 -0.00000000000E+00 -0.40150165722E+03  0.40150165723E+03  0.25500000000E-02 0. -1.
    5000001    1    1    2    0    0 -0.80681255314E+02 -0.96143973889E+02 -0.12492735307E+02  0.20768773943E+03  0.16500000000E+03 0.  0.
   -5000001    1    1    2    0    0  0.80681255314E+02  0.96143973889E+02 -0.25454075717E+03  0.32828208256E+03  0.16500000000E+03 0.  0.
<mgrwt>
<rscale>  0 0.46471148E+03</rscale>
<asrwt>0</asrwt>
<pdfrwt beam="1">  1        2 0.20687410E-01 0.46471148E+03</pdfrwt>
<pdfrwt beam="2">  1       -2 0.61769485E-01 0.46471148E+03</pdfrwt>
<totfact> 0.66877224E+02</totfact>
</mgrwt>
</event>
<event>
 4    1  0.9064384E-005  0.1002419E+04  0.7818608E-02  0.9305896E-01
          2   -1    0    0  501    0  0.00000000000E+00  0.00000000000E+00  0.14510515059E+04  0.14510515059E+04  0.25500000000E-02 0.  1.
         -2   -1    0    0    0  501 -0.00000000000E+00 -0.00000000000E+00 -0.17312328618E+03  0.17312328620E+03  0.25500000000E-02 0. -1.
    5000001    1    1    2    0    0 -0.35760956852E+03  0.16525957665E+03  0.21400439373E+03  0.47772189787E+03  0.16500000000E+03 0.  0.
   -5000001    1    1    2    0    0  0.35760956852E+03 -0.16525957665E+03  0.10639238260E+04  0.11464528942E+04  0.16500000000E+03 0.  0.
<mgrwt>
<rscale>  0 0.10024187E+04</rscale>
<asrwt>0</asrwt>
<pdfrwt beam="1">  1        2 0.22323869E+00 0.10024187E+04</pdfrwt>
<pdfrwt beam="2">  1       -2 0.26634352E-01 0.10024187E+04</pdfrwt>
<totfact> 0.17246315E+02</totfact>
</mgrwt>
</event>
<event>
 4    1  0.9064384E-005  0.8671907E+03  0.7818608E-02  0.9467550E-01
         -2   -1    0    0    0  501 -0.00000000000E+00  0.00000000000E+00  0.13473256372E+03  0.13473256375E+03  0.25500000000E-02 0. -1.
          2   -1    0    0  501    0  0.00000000000E+00 -0.00000000000E+00 -0.13953933970E+04  0.13953933970E+04  0.25500000000E-02 0.  1.
    5000001    1    1    2    0    0 -0.31117973750E+03  0.24324947783E+03 -0.75228012017E+03  0.86553654844E+03  0.16500000000E+03 0.  0.
   -5000001    1    1    2    0    0  0.31117973750E+03 -0.24324947783E+03 -0.50838071315E+03  0.66458941235E+03  0.16500000000E+03 0.  0.
<mgrwt>
<rscale>  0 0.86719071E+03</rscale>
<asrwt>0</asrwt>
<pdfrwt beam="1">  1        2 0.21467590E+00 0.86719071E+03</pdfrwt>
<pdfrwt beam="2">  1       -2 0.20728088E-01 0.86719071E+03</pdfrwt>
<totfact> 0.29314028E+02</totfact>
</mgrwt>
</event>
<event>
 4    1  0.9064384E-005  0.5545085E+03  0.7818608E-02  0.1000456E+00
          2   -1    0    0  501    0  0.00000000000E+00  0.00000000000E+00  0.22360374927E+04  0.22360374927E+04  0.25500000000E-02 0.  1.
         -2   -1    0    0    0  501 -0.00000000000E+00 -0.00000000000E+00 -0.34377739016E+02  0.34377739111E+02  0.25500000000E-02 0. -1.
    5000001    1    1    2    0    0 -0.18887013703E+02  0.11730789599E+03  0.32907979525E+03  0.38682860984E+03  0.16500000000E+03 0.  0.
   -5000001    1    1    2    0    0  0.18887013703E+02 -0.11730789599E+03  0.18725799584E+04  0.18835866220E+04  0.16500000000E+03 0.  0.
<mgrwt>
<rscale>  0 0.55450848E+03</rscale>
<asrwt>0</asrwt>
<pdfrwt beam="1">  1        2 0.34400574E+00 0.55450848E+03</pdfrwt>
<pdfrwt beam="2">  1       -2 0.52888834E-02 0.55450848E+03</pdfrwt>
<totfact> 0.97308183E+02</totfact>
</mgrwt>
</event>
<event>
 4    1  0.9064384E-005  0.4440946E+03  0.7818608E-02  0.1029498E+00
         -2   -1    0    0    0  501 -0.00000000000E+00  0.00000000000E+00  0.13931895950E+03  0.13931895952E+03  0.25500000000E-02 0. -1.
          2   -1    0    0  501    0  0.00000000000E+00 -0.00000000000E+00 -0.35390020634E+03  0.35390020635E+03  0.25500000000E-02 0.  1.
    5000001    1    1    2    0    0  0.10535566981E+03  0.49941203896E+02 -0.49807208941E+01  0.20209836365E+03  0.16500000000E+03 0.  0.
   -5000001    1    1    2    0    0 -0.10535566981E+03 -0.49941203896E+02 -0.20960052595E+03  0.29112080222E+03  0.16500000000E+03 0.  0.
<mgrwt>
<rscale>  0 0.44409462E+03</rscale>
<asrwt>0</asrwt>
<pdfrwt beam="1">  1        2 0.54446185E-01 0.44409462E+03</pdfrwt>
<pdfrwt beam="2">  1       -2 0.21433686E-01 0.44409462E+03</pdfrwt>
<totfact> 0.17136568E+03</totfact>
</mgrwt>
</event>
<event>
 4    1  0.9064384E-005  0.4747789E+03  0.7818608E-02  0.1020580E+00
          2   -1    0    0  501    0  0.00000000000E+00  0.00000000000E+00  0.12497111408E+04  0.12497111408E+04  0.25500000000E-02 0.  1.
         -2   -1    0    0    0  501 -0.00000000000E+00 -0.00000000000E+00 -0.45093429944E+02  0.45093430016E+02  0.25500000000E-02 0. -1.
    5000001    1    1    2    0    0  0.14121720885E+03  0.18268843567E+02  0.34571224326E+03  0.40867836481E+03  0.16500000000E+03 0.  0.
   -5000001    1    1    2    0    0 -0.14121720885E+03 -0.18268843567E+02  0.85890546763E+03  0.88612620604E+03  0.16500000000E+03 0.  0.
<mgrwt>
<rscale>  0 0.47477895E+03</rscale>
<asrwt>0</asrwt>
<pdfrwt beam="1">  1        2 0.19226329E+00 0.47477895E+03</pdfrwt>
<pdfrwt beam="2">  1       -2 0.69374496E-02 0.47477895E+03</pdfrwt>
<totfact> 0.22095902E+03</totfact>
</mgrwt>
</event>
<event>
 4    1  0.9064384E-005  0.9063422E+03  0.7818608E-02  0.9417688E-01
          2   -1    0    0  501    0  0.00000000000E+00  0.00000000000E+00  0.55159049787E+03  0.55159049788E+03  0.25500000000E-02 0.  1.
         -2   -1    0    0    0  501 -0.00000000000E+00 -0.00000000000E+00 -0.37231247520E+03  0.37231247521E+03  0.25500000000E-02 0. -1.
    5000001    1    1    2    0    0 -0.40251903392E+03  0.11411764388E+03  0.14634611257E+03  0.47295517121E+03  0.16500000000E+03 0.  0.
   -5000001    1    1    2    0    0  0.40251903392E+03 -0.11411764388E+03  0.32931910101E+02  0.45094780187E+03  0.16500000000E+03 0.  0.
<mgrwt>
<rscale>  0 0.90634215E+03</rscale>
<asrwt>0</asrwt>
<pdfrwt beam="1">  1        2 0.84860076E-01 0.90634215E+03</pdfrwt>
<pdfrwt beam="2">  1       -2 0.57278843E-01 0.90634215E+03</pdfrwt>
<totfact> 0.15723819E+02</totfact>
</mgrwt>
</event>
<event>
 4    1  0.9064384E-005  0.3681186E+03  0.7818608E-02  0.1055415E+00
          2   -1    0    0  501    0  0.00000000000E+00  0.00000000000E+00  0.85846730704E+03  0.85846730704E+03  0.25500000000E-02 0.  1.
         -2   -1    0    0    0  501 -0.00000000000E+00 -0.00000000000E+00 -0.39463151047E+02  0.39463151129E+02  0.25500000000E-02 0. -1.
    5000001    1    1    2    0    0 -0.70478565418E+02  0.49714513341E+01  0.50891075075E+03  0.53963607713E+03  0.16500000000E+03 0.  0.
   -5000001    1    1    2    0    0  0.70478565418E+02 -0.49714513341E+01  0.31009340524E+03  0.35829438104E+03  0.16500000000E+03 0.  0.
<mgrwt>
<rscale>  0 0.36811860E+03</rscale>
<asrwt>0</asrwt>
<pdfrwt beam="1">  1        2 0.13207190E+00 0.36811860E+03</pdfrwt>
<pdfrwt beam="2">  1       -2 0.60712539E-02 0.36811860E+03</pdfrwt>
<totfact> 0.47249402E+03</totfact>
</mgrwt>
</event>
<event>
 4    1  0.9064384E-005  0.4230098E+03  0.7818608E-02  0.1036091E+00
          2   -1    0    0  501    0  0.00000000000E+00  0.00000000000E+00  0.18461617261E+04  0.18461617261E+04  0.25500000000E-02 0.  1.
         -2   -1    0    0    0  501 -0.00000000000E+00 -0.00000000000E+00 -0.24230990393E+02  0.24230990528E+02  0.25500000000E-02 0. -1.
    5000001    1    1    2    0    0  0.11426563792E+01 -0.10892275512E+03  0.57878782123E+03  0.61162555069E+03  0.16500000000E+03 0.  0.
   -5000001    1    1    2    0    0 -0.11426563792E+01  0.10892275512E+03  0.12431429145E+04  0.12587671659E+04  0.16500000000E+03 0.  0.
<mgrwt>
<rscale>  0 0.42300982E+03</rscale>
<asrwt>0</asrwt>
<pdfrwt beam="1">  1        2 0.28402484E+00 0.42300982E+03</pdfrwt>
<pdfrwt beam="2">  1       -2 0.37278453E-02 0.42300982E+03</pdfrwt>
<totfact> 0.27225256E+03</totfact>
</mgrwt>
</event>
<event>
 4    1  0.9064384E-005  0.8909696E+03  0.7818608E-02  0.9436941E-01
         -2   -1    0    0    0  501 -0.00000000000E+00  0.00000000000E+00  0.75586617145E+03  0.75586617145E+03  0.25500000000E-02 0. -1.
          2   -1    0    0  501    0  0.00000000000E+00 -0.00000000000E+00 -0.26255532609E+03  0.26255532610E+03  0.25500000000E-02 0.  1.
    5000001    1    1    2    0    0 -0.18147040717E+03 -0.35893886882E+03  0.35784925351E+03  0.56307167259E+03  0.16500000000E+03 0.  0.
   -5000001    1    1    2    0    0  0.18147040717E+03  0.35893886882E+03  0.13546159184E+03  0.45534982496E+03  0.16500000000E+03 0.  0.
<mgrwt>
<rscale>  0 0.89096956E+03</rscale>
<asrwt>0</asrwt>
<pdfrwt beam="1">  1        2 0.40393127E-01 0.89096956E+03</pdfrwt>
<pdfrwt beam="2">  1       -2 0.11628710E+00 0.89096956E+03</pdfrwt>
<totfact> 0.73347307E+01</totfact>
</mgrwt>
</event>
<event>
 4    1  0.9064384E-005  0.6762145E+03  0.7818608E-02  0.9758796E-01
         -2   -1    0    0    0  501 -0.00000000000E+00  0.00000000000E+00  0.66697545764E+03  0.66697545764E+03  0.25500000000E-02 0. -1.
          2   -1    0    0  501    0  0.00000000000E+00 -0.00000000000E+00 -0.17139538564E+03  0.17139538566E+03  0.25500000000E-02 0.  1.
    5000001    1    1    2    0    0 -0.64465498463E+02  0.28516116457E+03  0.29767293685E+03  0.44867233880E+03  0.16500000000E+03 0.  0.
   -5000001    1    1    2    0    0  0.64465498463E+02 -0.28516116457E+03  0.19790713515E+03  0.38969850450E+03  0.16500000000E+03 0.  0.
<mgrwt>
<rscale>  0 0.67621451E+03</rscale>
<asrwt>0</asrwt>
<pdfrwt beam="1">  1        2 0.26368521E-01 0.67621451E+03</pdfrwt>
<pdfrwt beam="2">  1       -2 0.10261161E+00 0.67621451E+03</pdfrwt>
<totfact> 0.16188245E+02</totfact>
</mgrwt>
</event>
<event>
 4    1  0.9064384E-005  0.1229217E+04  0.7818608E-02  0.9087660E-01
         -2   -1    0    0    0  501 -0.00000000000E+00  0.00000000000E+00  0.21513031771E+03  0.21513031772E+03  0.25500000000E-02 0. -1.
          2   -1    0    0  501    0  0.00000000000E+00 -0.00000000000E+00 -0.17558837058E+04  0.17558837058E+04  0.25500000000E-02 0.  1.
    5000001    1    1    2    0    0 -0.36140848762E+03  0.43824581229E+03 -0.50281641363E+03  0.77635354879E+03  0.16500000000E+03 0.  0.
   -5000001    1    1    2    0    0  0.36140848762E+03 -0.43824581229E+03 -0.10379369744E+04  0.11946604747E+04  0.16500000000E+03 0.  0.
<mgrwt>
<rscale>  0 0.12292173E+04</rscale>
<asrwt>0</asrwt>
<pdfrwt beam="1">  1        2 0.27013595E+00 0.12292173E+04</pdfrwt>
<pdfrwt beam="2">  1       -2 0.33096973E-01 0.12292173E+04</pdfrwt>
<totfact> 0.76630987E+01</totfact>
</mgrwt>
</event>
<event>
 4    1  0.9064384E-005  0.9608904E+03  0.7818608E-02  0.9352511E-01
         -2   -1    0    0    0  501 -0.00000000000E+00  0.00000000000E+00  0.87177372451E+02  0.87177372488E+02  0.25500000000E-02 0. -1.
          2   -1    0    0  501    0  0.00000000000E+00 -0.00000000000E+00 -0.26477923614E+04  0.26477923614E+04  0.25500000000E-02 0.  1.
    5000001    1    1    2    0    0 -0.23378237913E+03  0.37428911850E+03 -0.10124533546E+04  0.11167064700E+04  0.16500000000E+03 0.  0.
   -5000001    1    1    2    0    0  0.23378237913E+03 -0.37428911850E+03 -0.15481616344E+04  0.16182632639E+04  0.16500000000E+03 0.  0.
<mgrwt>
<rscale>  0 0.96089038E+03</rscale>
<asrwt>0</asrwt>
<pdfrwt beam="1">  1        2 0.40735261E+00 0.96089038E+03</pdfrwt>
<pdfrwt beam="2">  1       -2 0.13411905E-01 0.96089038E+03</pdfrwt>
<totfact> 0.12310767E+02</totfact>
</mgrwt>
</event>
<event>
 4    1  0.9064384E-005  0.8550671E+03  0.7818608E-02  0.9483561E-01
         -2   -1    0    0    0  501 -0.00000000000E+00  0.00000000000E+00  0.22471325385E+03  0.22471325386E+03  0.25500000000E-02 0. -1.
          2   -1    0    0  501    0  0.00000000000E+00 -0.00000000000E+00 -0.81341404445E+03  0.81341404445E+03  0.25500000000E-02 0.  1.
    5000001    1    1    2    0    0 -0.22172685056E+03 -0.18772112690E+03  0.29513098120E+02  0.33540727586E+03  0.16500000000E+03 0.  0.
   -5000001    1    1    2    0    0  0.22172685056E+03  0.18772112690E+03 -0.61821388872E+03  0.70272002245E+03  0.16500000000E+03 0.  0.
<mgrwt>
<rscale>  0 0.85506705E+03</rscale>
<asrwt>0</asrwt>
<pdfrwt beam="1">  1        2 0.12514062E+00 0.85506705E+03</pdfrwt>
<pdfrwt beam="2">  1       -2 0.34571270E-01 0.85506705E+03</pdfrwt>
<totfact> 0.26511136E+02</totfact>
</mgrwt>
</event>
<event>
 4    1  0.9064384E-005  0.4252365E+03  0.7818608E-02  0.1035375E+00
         -2   -1    0    0    0  501 -0.00000000000E+00  0.00000000000E+00  0.29884682185E+03  0.29884682186E+03  0.25500000000E-02 0. -1.
          2   -1    0    0  501    0  0.00000000000E+00 -0.00000000000E+00 -0.15126986278E+03  0.15126986281E+03  0.25500000000E-02 0.  1.
    5000001    1    1    2    0    0 -0.13400653722E+03 -0.65403252947E-01  0.68628701509E+02  0.22336663799E+03  0.16500000000E+03 0.  0.
   -5000001    1    1    2    0    0  0.13400653722E+03  0.65403252947E-01  0.78948257555E+02  0.22675004667E+03  0.16500000000E+03 0.  0.
<mgrwt>
<rscale>  0 0.42523649E+03</rscale>
<asrwt>0</asrwt>
<pdfrwt beam="1">  1        2 0.23272287E-01 0.42523649E+03</pdfrwt>
<pdfrwt beam="2">  1       -2 0.45976434E-01 0.42523649E+03</pdfrwt>
<totfact> 0.10672158E+03</totfact>
</mgrwt>
</event>
<event>
 4    1  0.9064384E-005  0.6075631E+03  0.7818608E-02  0.9889838E-01
         -2   -1    0    0    0  501 -0.00000000000E+00  0.00000000000E+00  0.50477225016E+02  0.50477225081E+02  0.25500000000E-02 0. -1.
          2   -1    0    0  501    0  0.00000000000E+00 -0.00000000000E+00 -0.18282150227E+04  0.18282150227E+04  0.25500000000E-02 0.  1.
    5000001    1    1    2    0    0  0.11998996984E+03 -0.22457856001E+03 -0.93526171501E+03  0.98324594993E+03  0.16500000000E+03 0.  0.
   -5000001    1    1    2    0    0 -0.11998996984E+03  0.22457856001E+03 -0.84247608270E+03  0.89544629789E+03  0.16500000000E+03 0.  0.
<mgrwt>
<rscale>  0 0.60756307E+03</rscale>
<asrwt>0</asrwt>
<pdfrwt beam="1">  1        2 0.28126380E+00 0.60756307E+03</pdfrwt>
<pdfrwt beam="2">  1       -2 0.77657283E-02 0.60756307E+03</pdfrwt>
<totfact> 0.88244448E+02</totfact>
</mgrwt>
</event>
<event>
 4    1  0.9064384E-005  0.3985526E+03  0.7818608E-02  0.1044282E+00
         -2   -1    0    0    0  501 -0.00000000000E+00  0.00000000000E+00  0.52696992925E+03  0.52696992925E+03  0.25500000000E-02 0. -1.
          2   -1    0    0  501    0  0.00000000000E+00 -0.00000000000E+00 -0.75357312864E+02  0.75357312907E+02  0.25500000000E-02 0.  1.
    5000001    1    1    2    0    0  0.91535297136E+02 -0.38000902324E+02  0.30379893796E+03  0.35964089576E+03  0.16500000000E+03 0.  0.
   -5000001    1    1    2    0    0 -0.91535297136E+02  0.38000902324E+02  0.14781367843E+03  0.24268634640E+03  0.16500000000E+03 0.  0.
<mgrwt>
<rscale>  0 0.39855257E+03</rscale>
<asrwt>0</asrwt>
<pdfrwt beam="1">  1        2 0.11593433E-01 0.39855257E+03</pdfrwt>
<pdfrwt beam="2">  1       -2 0.81072296E-01 0.39855257E+03</pdfrwt>
<totfact> 0.74203059E+02</totfact>
</mgrwt>
</event>
<event>
 4    1  0.9064384E-005  0.4769386E+03  0.7818608E-02  0.1019980E+00
         -2   -1    0    0    0  501 -0.00000000000E+00  0.00000000000E+00  0.22470092330E+03  0.22470092332E+03  0.25500000000E-02 0. -1.
          2   -1    0    0  501    0  0.00000000000E+00 -0.00000000000E+00 -0.25308135463E+03  0.25308135464E+03  0.25500000000E-02 0.  1.
    5000001    1    1    2    0    0 -0.48989896198E+02  0.15593302830E+03 -0.68392252226E+02  0.24211075856E+03  0.16500000000E+03 0.  0.
   -5000001    1    1    2    0    0  0.48989896198E+02 -0.15593302830E+03  0.40011820897E+02  0.23567151940E+03  0.16500000000E+03 0.  0.
<mgrwt>
<rscale>  0 0.47693863E+03</rscale>
<asrwt>0</asrwt>
<pdfrwt beam="1">  1        2 0.38935593E-01 0.47693863E+03</pdfrwt>
<pdfrwt beam="2">  1       -2 0.34569373E-01 0.47693863E+03</pdfrwt>
<totfact> 0.10417140E+03</totfact>
</mgrwt>
</event>
<event>
 4    1  0.9064384E-005  0.4939196E+03  0.7818608E-02  0.1015378E+00
         -2   -1    0    0    0  501 -0.00000000000E+00  0.00000000000E+00  0.29035734225E+02  0.29035734337E+02  0.25500000000E-02 0. -1.
          2   -1    0    0  501    0  0.00000000000E+00 -0.00000000000E+00 -0.21004856109E+04  0.21004856109E+04  0.25500000000E-02 0.  1.
    5000001    1    1    2    0    0  0.29082250237E+02 -0.17885039969E+03 -0.90417910533E+03  0.93680205874E+03  0.16500000000E+03 0.  0.
   -5000001    1    1    2    0    0 -0.29082250237E+02  0.17885039969E+03 -0.11672707713E+04  0.11927192865E+04  0.16500000000E+03 0.  0.
<mgrwt>
<rscale>  0 0.49391960E+03</rscale>
<asrwt>0</asrwt>
<pdfrwt beam="1">  1        2 0.32315151E+00 0.49391960E+03</pdfrwt>
<pdfrwt beam="2">  1       -2 0.44670377E-02 0.49391960E+03</pdfrwt>
<totfact> 0.15029980E+03</totfact>
</mgrwt>
</event>
<event>
 4    1  0.9064384E-005  0.4949184E+03  0.7818608E-02  0.1015114E+00
         -2   -1    0    0    0  501 -0.00000000000E+00  0.00000000000E+00  0.99901490601E+02  0.99901490633E+02  0.25500000000E-02 0. -1.
          2   -1    0    0  501    0  0.00000000000E+00 -0.00000000000E+00 -0.61296445880E+03  0.61296445880E+03  0.25500000000E-02 0.  1.
    5000001    1    1    2    0    0 -0.14374677544E+03  0.11349054450E+03 -0.28768560417E+03  0.37885517812E+03  0.16500000000E+03 0.  0.
   -5000001    1    1    2    0    0  0.14374677544E+03 -0.11349054450E+03 -0.22537736402E+03  0.33401077131E+03  0.16500000000E+03 0.  0.
<mgrwt>
<rscale>  0 0.49491843E+03</rscale>
<asrwt>0</asrwt>
<pdfrwt beam="1">  1        2 0.94302222E-01 0.49491843E+03</pdfrwt>
<pdfrwt beam="2">  1       -2 0.15369461E-01 0.49491843E+03</pdfrwt>
<totfact> 0.16239566E+03</totfact>
</mgrwt>
</event>
<event>
 4    1  0.9064384E-005  0.1568465E+04  0.7818608E-02  0.8840159E-01
         -2   -1    0    0    0  501 -0.00000000000E+00  0.00000000000E+00  0.28440978249E+03  0.28440978251E+03  0.25500000000E-02 0. -1.
          2   -1    0    0  501    0  0.00000000000E+00 -0.00000000000E+00 -0.21624449093E+04  0.21624449093E+04  0.25500000000E-02 0.  1.
    5000001    1    1    2    0    0 -0.51104670278E+03  0.44833544925E+03 -0.38609236760E+03  0.79904050197E+03  0.16500000000E+03 0.  0.
   -5000001    1    1    2    0    0  0.51104670278E+03 -0.44833544925E+03 -0.14919427593E+04  0.16478141899E+04  0.16500000000E+03 0.  0.
<mgrwt>
<rscale>  0 0.15684648E+04</rscale>
<asrwt>0</asrwt>
<pdfrwt beam="1">  1        2 0.33268382E+00 0.15684648E+04</pdfrwt>
<pdfrwt beam="2">  1       -2 0.43755352E-01 0.15684648E+04</pdfrwt>
<totfact> 0.25828765E+01</totfact>
</mgrwt>
</event>
<event>
 4    1  0.9064384E-005  0.5315809E+03  0.7818608E-02  0.1005849E+00
          2   -1    0    0  501    0  0.00000000000E+00  0.00000000000E+00  0.18773212196E+04  0.18773212196E+04  0.25500000000E-02 0.  1.
         -2   -1    0    0    0  501 -0.00000000000E+00 -0.00000000000E+00 -0.37630512422E+02  0.37630512508E+02  0.25500000000E-02 0. -1.
    5000001    1    1    2    0    0  0.59529986098E+02 -0.19835610951E+03  0.83686606670E+03  0.87775781342E+03  0.16500000000E+03 0.  0.
   -5000001    1    1    2    0    0 -0.59529986098E+02  0.19835610951E+03  0.10028246405E+04  0.10371939187E+04  0.16500000000E+03 0.  0.
<mgrwt>
<rscale>  0 0.53158089E+03</rscale>
<asrwt>0</asrwt>
<pdfrwt beam="1">  1        2 0.28881864E+00 0.53158089E+03</pdfrwt>
<pdfrwt beam="2">  1       -2 0.57893098E-02 0.53158089E+03</pdfrwt>
<totfact> 0.13243271E+03</totfact>
</mgrwt>
</event>
<event>
 4    1  0.9064384E-005  0.3810583E+03  0.7818608E-02  0.1050543E+00
          2   -1    0    0  501    0  0.00000000000E+00  0.00000000000E+00  0.10219907629E+04  0.10219907629E+04  0.25500000000E-02 0.  1.
         -2   -1    0    0    0  501 -0.00000000000E+00 -0.00000000000E+00 -0.35520243719E+02  0.35520243810E+02  0.25500000000E-02 0. -1.
    5000001    1    1    2    0    0  0.45762008521E+02  0.72247403369E+02  0.37672624584E+03  0.42007322340E+03  0.16500000000E+03 0.  0.
   -5000001    1    1    2    0    0 -0.45762008521E+02 -0.72247403369E+02  0.60974427336E+03  0.63743778333E+03  0.16500000000E+03 0.  0.
<mgrwt>
<rscale>  0 0.38105832E+03</rscale>
<asrwt>0</asrwt>
<pdfrwt beam="1">  1        2 0.15722935E+00 0.38105832E+03</pdfrwt>
<pdfrwt beam="2">  1       -2 0.54646528E-02 0.38105832E+03</pdfrwt>
<totfact> 0.43684392E+03</totfact>
</mgrwt>
</event>
<event>
 4    1  0.9064384E-005  0.4763417E+03  0.7818608E-02  0.1020145E+00
          2   -1    0    0  501    0  0.00000000000E+00  0.00000000000E+00  0.32582371059E+03  0.32582371060E+03  0.25500000000E-02 0.  1.
         -2   -1    0    0    0  501 -0.00000000000E+00 -0.00000000000E+00 -0.17409828191E+03  0.17409828193E+03  0.25500000000E-02 0. -1.
    5000001    1    1    2    0    0 -0.13681712883E+03  0.24591070373E+02  0.18173618830E+03  0.28209340584E+03  0.16500000000E+03 0.  0.
   -5000001    1    1    2    0    0  0.13681712883E+03 -0.24591070373E+02 -0.30010759628E+02  0.21782858668E+03  0.16500000000E+03 0.  0.
<mgrwt>
<rscale>  0 0.47634168E+03</rscale>
<asrwt>0</asrwt>
<pdfrwt beam="1">  1        2 0.50126724E-01 0.47634168E+03</pdfrwt>
<pdfrwt beam="2">  1       -2 0.26784351E-01 0.47634168E+03</pdfrwt>
<totfact> 0.12638017E+03</totfact>
</mgrwt>
</event>
<event>
 4    1  0.9064384E-005  0.5606549E+03  0.7818608E-02  0.9990574E-01
         -2   -1    0    0    0  501 -0.00000000000E+00  0.00000000000E+00  0.96973012257E+02  0.96973012291E+02  0.25500000000E-02 0. -1.
          2   -1    0    0  501    0  0.00000000000E+00 -0.00000000000E+00 -0.81036448811E+03  0.81036448811E+03  0.25500000000E-02 0.  1.
    5000001    1    1    2    0    0 -0.14940229829E+03 -0.17029957281E+03 -0.36633740342E+03  0.46124948171E+03  0.16500000000E+03 0.  0.
   -5000001    1    1    2    0    0  0.14940229829E+03  0.17029957281E+03 -0.34705407243E+03  0.44608801869E+03  0.16500000000E+03 0.  0.
<mgrwt>
<rscale>  0 0.56065492E+03</rscale>
<asrwt>0</asrwt>
<pdfrwt beam="1">  1        2 0.12467146E+00 0.56065492E+03</pdfrwt>
<pdfrwt beam="2">  1       -2 0.14918926E-01 0.56065492E+03</pdfrwt>
<totfact> 0.12028761E+03</totfact>
</mgrwt>
</event>
<event>
 4    1  0.9064384E-005  0.5745798E+03  0.7818608E-02  0.9959595E-01
          2   -1    0    0  501    0  0.00000000000E+00  0.00000000000E+00  0.13014077834E+04  0.13014077834E+04  0.25500000000E-02 0.  1.
         -2   -1    0    0    0  501 -0.00000000000E+00 -0.00000000000E+00 -0.63420168075E+02  0.63420168127E+02  0.25500000000E-02 0. -1.
    5000001    1    1    2    0    0  0.22781953152E+03 -0.41369421358E+02  0.52113250947E+03  0.59364742094E+03  0.16500000000E+03 0.  0.
   -5000001    1    1    2    0    0 -0.22781953152E+03  0.41369421358E+02  0.71685510583E+03  0.77118053056E+03  0.16500000000E+03 0.  0.
<mgrwt>
<rscale>  0 0.57457985E+03</rscale>
<asrwt>0</asrwt>
<pdfrwt beam="1">  1        2 0.20021659E+00 0.57457985E+03</pdfrwt>
<pdfrwt beam="2">  1       -2 0.97569486E-02 0.57457985E+03</pdfrwt>
<totfact> 0.11956076E+03</totfact>
</mgrwt>
</event>
<event>
 4    1  0.9064384E-005  0.4231255E+03  0.7818608E-02  0.1036054E+00
         -2   -1    0    0    0  501 -0.00000000000E+00  0.00000000000E+00  0.19739226567E+02  0.19739226732E+02  0.25500000000E-02 0. -1.
          2   -1    0    0  501    0  0.00000000000E+00 -0.00000000000E+00 -0.22675053953E+04  0.22675053953E+04  0.25500000000E-02 0.  1.
    5000001    1    1    2    0    0 -0.36138193492E+02 -0.12078843104E+03 -0.13426586704E+04  0.13586217720E+04  0.16500000000E+03 0.  0.
   -5000001    1    1    2    0    0  0.36138193492E+02  0.12078843104E+03 -0.90510749838E+03  0.92862285010E+03  0.16500000000E+03 0.  0.
<mgrwt>
<rscale>  0 0.42312553E+03</rscale>
<asrwt>0</asrwt>
<pdfrwt beam="1">  1        2 0.34884678E+00 0.42312553E+03</pdfrwt>
<pdfrwt beam="2">  1       -2 0.30368059E-02 0.42312553E+03</pdfrwt>
<totfact> 0.22053215E+03</totfact>
</mgrwt>
</event>
<event>
 4    1  0.9064384E-005  0.5758753E+03  0.7818608E-02  0.9956761E-01
         -2   -1    0    0    0  501 -0.00000000000E+00  0.00000000000E+00  0.37215631089E+02  0.37215631176E+02  0.25500000000E-02 0. -1.
          2   -1    0    0  501    0  0.00000000000E+00 -0.00000000000E+00 -0.22277757048E+04  0.22277757048E+04  0.25500000000E-02 0.  1.
    5000001    1    1    2    0    0  0.97825360258E+02  0.21144167916E+03 -0.94781687829E+03  0.98987838625E+03  0.16500000000E+03 0.  0.
   -5000001    1    1    2    0    0 -0.97825360258E+02 -0.21144167916E+03 -0.12427431954E+04  0.12751129497E+04  0.16500000000E+03 0.  0.
<mgrwt>
<rscale>  0 0.57587526E+03</rscale>
<asrwt>0</asrwt>
<pdfrwt beam="1">  1        2 0.34273462E+00 0.57587526E+03</pdfrwt>
<pdfrwt beam="2">  1       -2 0.57254835E-02 0.57587526E+03</pdfrwt>
<totfact> 0.86762181E+02</totfact>
</mgrwt>
</event>
<event>
 4    1  0.9064384E-005  0.4132945E+03  0.7818608E-02  0.1039271E+00
         -2   -1    0    0    0  501 -0.00000000000E+00  0.00000000000E+00  0.33611331746E+02  0.33611331843E+02  0.25500000000E-02 0.  1.
          2   -1    0    0  501    0  0.00000000000E+00 -0.00000000000E+00 -0.12704965019E+04  0.12704965019E+04  0.25500000000E-02 0. -1.
    5000001    1    1    2    0    0 -0.25711537002E+01  0.11882562570E+03 -0.50242267885E+03  0.54201447248E+03  0.16500000000E+03 0.  0.
   -5000001    1    1    2    0    0  0.25711537002E+01 -0.11882562570E+03 -0.73446249130E+03  0.76209336126E+03  0.16500000000E+03 0.  0.
<mgrwt>
<rscale>  0 0.41329447E+03</rscale>
<asrwt>0</asrwt>
<pdfrwt beam="1">  1        2 0.19546096E+00 0.41329447E+03</pdfrwt>
<pdfrwt beam="2">  1       -2 0.51709751E-02 0.41329447E+03</pdfrwt>
<totfact> 0.33975799E+03</totfact>
</mgrwt>
</event>
<event>
 4    1  0.9064384E-005  0.3880884E+03  0.7818608E-02  0.1047984E+00
         -2   -1    0    0    0  501 -0.00000000000E+00  0.00000000000E+00  0.41414231997E+02  0.41414232075E+02  0.25500000000E-02 0. -1.
          2   -1    0    0  501    0  0.00000000000E+00 -0.00000000000E+00 -0.90918364379E+03  0.90918364380E+03  0.25500000000E-02 0.  1.
    5000001    1    1    2    0    0  0.70151858577E+02 -0.22463016964E+02 -0.26064402503E+03  0.31715324085E+03  0.16500000000E+03 0.  0.
   -5000001    1    1    2    0    0 -0.70151858577E+02  0.22463016964E+02 -0.60712538676E+03  0.63344463503E+03  0.16500000000E+03 0.  0.
<mgrwt>
<rscale>  0 0.38808835E+03</rscale>
<asrwt>0</asrwt>
<pdfrwt beam="1">  1        2 0.13987439E+00 0.38808835E+03</pdfrwt>
<pdfrwt beam="2">  1       -2 0.63714210E-02 0.38808835E+03</pdfrwt>
<totfact> 0.40607958E+03</totfact>
</mgrwt>
</event>
<event>
 4    1  0.9064384E-005  0.7392179E+03  0.7818608E-02  0.9652419E-01
          2   -1    0    0  501    0  0.00000000000E+00  0.00000000000E+00  0.61993024180E+03  0.61993024180E+03  0.25500000000E-02 0.  1.
         -2   -1    0    0    0  501 -0.00000000000E+00 -0.00000000000E+00 -0.22036477190E+03  0.22036477191E+03  0.25500000000E-02 0. -1.
    5000001    1    1    2    0    0 -0.17318586333E+03 -0.25223566365E+03  0.34253066316E+03  0.48802502854E+03  0.16500000000E+03 0.  0.
   -5000001    1    1    2    0    0  0.17318586333E+03  0.25223566365E+03  0.57034806743E+02  0.35226998518E+03  0.16500000000E+03 0.  0.
<mgrwt>
<rscale>  0 0.73921793E+03</rscale>
<asrwt>0</asrwt>
<pdfrwt beam="1">  1        2 0.95373880E-01 0.73921793E+03</pdfrwt>
<pdfrwt beam="2">  1       -2 0.33902274E-01 0.73921793E+03</pdfrwt>
<totfact> 0.39050459E+02</totfact>
</mgrwt>
</event>
<event>
 4    1  0.9064384E-005  0.4500626E+03  0.7818608E-02  0.1027703E+00
          2   -1    0    0  501    0  0.00000000000E+00  0.00000000000E+00  0.16038308144E+04  0.16038308144E+04  0.25500000000E-02 0.  1.
         -2   -1    0    0    0  501 -0.00000000000E+00 -0.00000000000E+00 -0.31573832473E+02  0.31573832576E+02  0.25500000000E-02 0. -1.
    5000001    1    1    2    0    0  0.77280956756E+02 -0.12193320247E+03  0.97048538935E+03  0.99494067315E+03  0.16500000000E+03 0.  0.
   -5000001    1    1    2    0    0 -0.77280956756E+02  0.12193320247E+03  0.60177159258E+03  0.64046397383E+03  0.16500000000E+03 0.  0.
<mgrwt>
<rscale>  0 0.45006260E+03</rscale>
<asrwt>0</asrwt>
<pdfrwt beam="1">  1        2 0.24674316E+00 0.45006260E+03</pdfrwt>
<pdfrwt beam="2">  1       -2 0.48575135E-02 0.45006260E+03</pdfrwt>
<totfact> 0.24483280E+03</totfact>
</mgrwt>
</event>
<event>
 4    1  0.9064384E-005  0.1151199E+04  0.7818608E-02  0.9156678E-01
          2   -1    0    0  501    0  0.00000000000E+00  0.00000000000E+00  0.13752887039E+04  0.13752887039E+04  0.25500000000E-02 0.  1.
         -2   -1    0    0    0  501 -0.00000000000E+00 -0.00000000000E+00 -0.24090547428E+03  0.24090547429E+03  0.25500000000E-02 0. -1.
    5000001    1    1    2    0    0 -0.21599600690E+03  0.48041771548E+03  0.79631132715E+03  0.96891288880E+03  0.16500000000E+03 0.  0.
   -5000001    1    1    2    0    0  0.21599600690E+03 -0.48041771548E+03  0.33807190246E+03  0.64728128938E+03  0.16500000000E+03 0.  0.
<mgrwt>
<rscale>  0 0.11511986E+04</rscale>
<asrwt>0</asrwt>
<pdfrwt beam="1">  1        2 0.21158287E+00 0.11511986E+04</pdfrwt>
<pdfrwt beam="2">  1       -2 0.37062381E-01 0.11511986E+04</pdfrwt>
<totfact> 0.10146154E+02</totfact>
</mgrwt>
</event>
<event>
 4    1  0.9064384E-005  0.4334721E+03  0.7818608E-02  0.1032769E+00
         -2   -1    0    0    0  501 -0.00000000000E+00  0.00000000000E+00  0.35702558376E+02  0.35702558467E+02  0.25500000000E-02 0. -1.
          2   -1    0    0  501    0  0.00000000000E+00 -0.00000000000E+00 -0.13157182434E+04  0.13157182434E+04  0.25500000000E-02 0.  1.
    5000001    1    1    2    0    0 -0.13974570834E+03 -0.14760998067E+02 -0.63483083547E+03  0.67080693178E+03  0.16500000000E+03 0.  0.
   -5000001    1    1    2    0    0  0.13974570834E+03  0.14760998067E+02 -0.64518484959E+03  0.68061387012E+03  0.16500000000E+03 0.  0.
<mgrwt>
<rscale>  0 0.43347206E+03</rscale>
<asrwt>0</asrwt>
<pdfrwt beam="1">  1        2 0.20241815E+00 0.43347206E+03</pdfrwt>
<pdfrwt beam="2">  1       -2 0.54927023E-02 0.43347206E+03</pdfrwt>
<totfact> 0.29181621E+03</totfact>
</mgrwt>
</event>
<event>
 4    1  0.9064384E-005  0.4012065E+03  0.7818608E-02  0.1043363E+00
          2   -1    0    0  501    0  0.00000000000E+00  0.00000000000E+00  0.13734389931E+04  0.13734389931E+04  0.25500000000E-02 0.  1.
         -2   -1    0    0    0  501 -0.00000000000E+00 -0.00000000000E+00 -0.29299930508E+02  0.29299930619E+02  0.25500000000E-02 0. -1.
    5000001    1    1    2    0    0  0.72566884719E+02 -0.48807983093E+02  0.92824359249E+03  0.94684177082E+03  0.16500000000E+03 0.  0.
   -5000001    1    1    2    0    0 -0.72566884719E+02  0.48807983093E+02  0.41589547010E+03  0.45589715290E+03  0.16500000000E+03 0.  0.
<mgrwt>
<rscale>  0 0.40120652E+03</rscale>
<asrwt>0</asrwt>
<pdfrwt beam="1">  1        2 0.21129831E+00 0.40120652E+03</pdfrwt>
<pdfrwt beam="2">  1       -2 0.45076815E-02 0.40120652E+03</pdfrwt>
<totfact> 0.36721781E+03</totfact>
</mgrwt>
</event>
<event>
 4    1  0.9064384E-005  0.6333776E+03  0.7818608E-02  0.9838480E-01
          2   -1    0    0  501    0  0.00000000000E+00  0.00000000000E+00  0.11573898434E+04  0.11573898434E+04  0.25500000000E-02 0.  1.
         -2   -1    0    0    0  501 -0.00000000000E+00 -0.00000000000E+00 -0.86653415950E+02  0.86653415988E+02  0.25500000000E-02 0. -1.
    5000001    1    1    2    0    0 -0.22638490667E+03 -0.13883380383E+03  0.63439353780E+03  0.70725180230E+03  0.16500000000E+03 0.  0.
   -5000001    1    1    2    0    0  0.22638490667E+03  0.13883380383E+03  0.43634288965E+03  0.53679145708E+03  0.16500000000E+03 0.  0.
<mgrwt>
<rscale>  0 0.63337756E+03</rscale>
<asrwt>0</asrwt>
<pdfrwt beam="1">  1        2 0.17805997E+00 0.63337756E+03</pdfrwt>
<pdfrwt beam="2">  1       -2 0.13331295E-01 0.63337756E+03</pdfrwt>
<totfact> 0.86744995E+02</totfact>
</mgrwt>
</event>
<event>
 4    1  0.9064384E-005  0.4289800E+03  0.7818608E-02  0.1034183E+00
          2   -1    0    0  501    0  0.00000000000E+00  0.00000000000E+00  0.24895889115E+04  0.24895889115E+04  0.25500000000E-02 0.  1.
         -2   -1    0    0    0  501 -0.00000000000E+00 -0.00000000000E+00 -0.18479339454E+02  0.18479339630E+02  0.25500000000E-02 0. -1.
    5000001    1    1    2    0    0 -0.49495098647E+02  0.56768929881E+02  0.19049437118E+04  0.19135589934E+04  0.16500000000E+03 0.  0.
   -5000001    1    1    2    0    0  0.49495098647E+02 -0.56768929881E+02  0.56616586024E+03  0.59450925770E+03  0.16500000000E+03 0.  0.
<mgrwt>
<rscale>  0 0.42897999E+03</rscale>
<asrwt>0</asrwt>
<pdfrwt beam="1">  1        2 0.38301354E+00 0.42897999E+03</pdfrwt>
<pdfrwt beam="2">  1       -2 0.28429764E-02 0.42897999E+03</pdfrwt>
<totfact> 0.18383988E+03</totfact>
</mgrwt>
</event>
<event>
 4    1  0.9064384E-005  0.3565026E+03  0.7818608E-02  0.1059977E+00
         -2   -1    0    0    0  501 -0.00000000000E+00  0.00000000000E+00  0.23824349948E+02  0.23824350085E+02  0.25500000000E-02 0. -1.
          2   -1    0    0  501    0  0.00000000000E+00 -0.00000000000E+00 -0.13336572742E+04  0.13336572742E+04  0.25500000000E-02 0.  1.
    5000001    1    1    2    0    0 -0.12304001637E+02 -0.34610322665E+02 -0.43954124398E+03  0.47092543789E+03  0.16500000000E+03 0.  0.
   -5000001    1    1    2    0    0  0.12304001637E+02  0.34610322665E+02 -0.87029168031E+03  0.88655618644E+03  0.16500000000E+03 0.  0.
<mgrwt>
<rscale>  0 0.35650255E+03</rscale>
<asrwt>0</asrwt>
<pdfrwt beam="1">  1        2 0.20517798E+00 0.35650255E+03</pdfrwt>
<pdfrwt beam="2">  1       -2 0.36652857E-02 0.35650255E+03</pdfrwt>
<totfact> 0.52888809E+03</totfact>
</mgrwt>
</event>
<event>
 4    1  0.9064384E-005  0.5190790E+03  0.7818608E-02  0.1008916E+00
         -2   -1    0    0    0  501 -0.00000000000E+00  0.00000000000E+00  0.29195037697E+03  0.29195037698E+03  0.25500000000E-02 0. -1.
          2   -1    0    0  501    0  0.00000000000E+00 -0.00000000000E+00 -0.23072670971E+03  0.23072670972E+03  0.25500000000E-02 0.  1.
    5000001    1    1    2    0    0 -0.16713686499E+03 -0.59229758615E+02 -0.63269921613E+02  0.25034172430E+03  0.16500000000E+03 0.  0.
   -5000001    1    1    2    0    0  0.16713686499E+03  0.59229758615E+02  0.12449358888E+03  0.27233536240E+03  0.16500000000E+03 0.  0.
<mgrwt>
<rscale>  0 0.51907899E+03</rscale>
<asrwt>0</asrwt>
<pdfrwt beam="1">  1        2 0.35496417E-01 0.51907899E+03</pdfrwt>
<pdfrwt beam="2">  1       -2 0.44915443E-01 0.51907899E+03</pdfrwt>
<totfact> 0.69597331E+02</totfact>
</mgrwt>
</event>
<event>
 4    1  0.9064384E-005  0.3905591E+03  0.7818608E-02  0.1047099E+00
         -2   -1    0    0    0  501 -0.00000000000E+00  0.00000000000E+00  0.21087075837E+03  0.21087075839E+03  0.25500000000E-02 0. -1.
          2   -1    0    0  501    0  0.00000000000E+00 -0.00000000000E+00 -0.18084111865E+03  0.18084111867E+03  0.25500000000E-02 0.  1.
    5000001    1    1    2    0    0 -0.46355466795E+02 -0.93522738323E+02  0.11292807789E+02  0.19557059951E+03  0.16500000000E+03 0.  0.
   -5000001    1    1    2    0    0  0.46355466795E+02  0.93522738323E+02  0.18736831932E+02  0.19614127754E+03  0.16500000000E+03 0.  0.
<mgrwt>
<rscale>  0 0.39055911E+03</rscale>
<asrwt>0</asrwt>
<pdfrwt beam="1">  1        2 0.27821711E-01 0.39055911E+03</pdfrwt>
<pdfrwt beam="2">  1       -2 0.32441655E-01 0.39055911E+03</pdfrwt>
<totfact> 0.16997718E+03</totfact>
</mgrwt>
</event>
<event>
 4    1  0.9064384E-005  0.6308767E+03  0.7818608E-02  0.9843339E-01
          2   -1    0    0  501    0  0.00000000000E+00  0.00000000000E+00  0.12462382386E+04  0.12462382386E+04  0.25500000000E-02 0.  1.
         -2   -1    0    0    0  501 -0.00000000000E+00 -0.00000000000E+00 -0.79841356396E+02  0.79841356436E+02  0.25500000000E-02 0. -1.
    5000001    1    1    2    0    0 -0.24766966012E+03 -0.82577080154E+02  0.44832647306E+03  0.54440872620E+03  0.16500000000E+03 0.  0.
   -5000001    1    1    2    0    0  0.24766966012E+03  0.82577080154E+02  0.71807040915E+03  0.78167086885E+03  0.16500000000E+03 0.  0.
<mgrwt>
<rscale>  0 0.63087670E+03</rscale>
<asrwt>0</asrwt>
<pdfrwt beam="1">  1        2 0.19172894E+00 0.63087670E+03</pdfrwt>
<pdfrwt beam="2">  1       -2 0.12283287E-01 0.63087670E+03</pdfrwt>
<totfact> 0.88109292E+02</totfact>
</mgrwt>
</event>
<event>
 4    1  0.9064384E-005  0.4405224E+03  0.7818608E-02  0.1030587E+00
         -2   -1    0    0    0  501 -0.00000000000E+00  0.00000000000E+00  0.41164191786E+02  0.41164191865E+02  0.25500000000E-02 0. -1.
          2   -1    0    0  501    0  0.00000000000E+00 -0.00000000000E+00 -0.11785729240E+04  0.11785729240E+04  0.25500000000E-02 0.  1.
    5000001    1    1    2    0    0  0.59668804506E+02  0.13296988181E+03 -0.54939256446E+03  0.59186024160E+03  0.16500000000E+03 0.  0.
   -5000001    1    1    2    0    0 -0.59668804506E+02 -0.13296988181E+03 -0.58801616772E+03  0.62787687423E+03  0.16500000000E+03 0.  0.
<mgrwt>
<rscale>  0 0.44052243E+03</rscale>
<asrwt>0</asrwt>
<pdfrwt beam="1">  1        2 0.18131889E+00 0.44052243E+03</pdfrwt>
<pdfrwt beam="2">  1       -2 0.63329535E-02 0.44052243E+03</pdfrwt>
<totfact> 0.28029660E+03</totfact>
</mgrwt>
</event>
<event>
 4    1  0.9064384E-005  0.4890093E+03  0.7818608E-02  0.1016688E+00
         -2   -1    0    0    0  501 -0.00000000000E+00  0.00000000000E+00  0.10015466549E+03  0.10015466552E+03  0.25500000000E-02 0. -1.
          2   -1    0    0  501    0  0.00000000000E+00 -0.00000000000E+00 -0.59690211039E+03  0.59690211039E+03  0.25500000000E-02 0.  1.
    5000001    1    1    2    0    0  0.96171061125E+02 -0.89245086739E+02 -0.42494494197E+03  0.47435931761E+03  0.16500000000E+03 0.  0.
   -5000001    1    1    2    0    0 -0.96171061125E+02  0.89245086739E+02 -0.71802502936E+02  0.22269745830E+03  0.16500000000E+03 0.  0.
<mgrwt>
<rscale>  0 0.48900933E+03</rscale>
<asrwt>0</asrwt>
<pdfrwt beam="1">  1        2 0.91831092E-01 0.48900933E+03</pdfrwt>
<pdfrwt beam="2">  1       -2 0.15408410E-01 0.48900933E+03</pdfrwt>
<totfact> 0.16690418E+03</totfact>
</mgrwt>
</event>
<event>
 4    1  0.9064384E-005  0.6708459E+03  0.7818608E-02  0.9768431E-01
         -2   -1    0    0    0  501 -0.00000000000E+00  0.00000000000E+00  0.96919950562E+02  0.96919950595E+02  0.25500000000E-02 0. -1.
          2   -1    0    0  501    0  0.00000000000E+00 -0.00000000000E+00 -0.11608400208E+04  0.11608400208E+04  0.25500000000E-02 0.  1.
    5000001    1    1    2    0    0 -0.16147166967E+03  0.21136383633E+03 -0.75800469731E+03  0.82008773467E+03  0.16500000000E+03 0.  0.
   -5000001    1    1    2    0    0  0.16147166967E+03 -0.21136383633E+03 -0.30591537294E+03  0.43767223674E+03  0.16500000000E+03 0.  0.
<mgrwt>
<rscale>  0 0.67084591E+03</rscale>
<asrwt>0</asrwt>
<pdfrwt beam="1">  1        2 0.17859076E+00 0.67084591E+03</pdfrwt>
<pdfrwt beam="2">  1       -2 0.14910763E-01 0.67084591E+03</pdfrwt>
<totfact> 0.71456050E+02</totfact>
</mgrwt>
</event>
<event>
 4    1  0.9064384E-005  0.4371714E+03  0.7818608E-02  0.1031618E+00
         -2   -1    0    0    0  501 -0.00000000000E+00  0.00000000000E+00  0.33506654627E+02  0.33506654724E+02  0.25500000000E-02 0. -1.
          2   -1    0    0  501    0  0.00000000000E+00 -0.00000000000E+00 -0.14259768149E+04  0.14259768149E+04  0.25500000000E-02 0.  1.
    5000001    1    1    2    0    0  0.13734607947E+03  0.88885208155E+01 -0.83026377501E+03  0.85761639878E+03  0.16500000000E+03 0.  0.
   -5000001    1    1    2    0    0 -0.13734607947E+03 -0.88885208155E+01 -0.56220638528E+03  0.60186707087E+03  0.16500000000E+03 0.  0.
<mgrwt>
<rscale>  0 0.43717142E+03</rscale>
<asrwt>0</asrwt>
<pdfrwt beam="1">  1        2 0.21938100E+00 0.43717142E+03</pdfrwt>
<pdfrwt beam="2">  1       -2 0.51548711E-02 0.43717142E+03</pdfrwt>
<totfact> 0.27942416E+03</totfact>
</mgrwt>
</event>
<event>
 4    1  0.9064384E-005  0.4498816E+03  0.7818608E-02  0.1027757E+00
         -2   -1    0    0    0  501 -0.00000000000E+00  0.00000000000E+00  0.24043482470E+02  0.24043482605E+02  0.25500000000E-02 0. -1.
          2   -1    0    0  501    0  0.00000000000E+00 -0.00000000000E+00 -0.21044520186E+04  0.21044520186E+04  0.25500000000E-02 0.  1.
    5000001    1    1    2    0    0 -0.10271316243E+03  0.32876775193E+02 -0.15528937902E+04  0.15653545923E+04  0.16500000000E+03 0.  0.
   -5000001    1    1    2    0    0  0.10271316243E+03 -0.32876775193E+02 -0.52751474601E+03  0.56314090896E+03  0.16500000000E+03 0.  0.
<mgrwt>
<rscale>  0 0.44988156E+03</rscale>
<asrwt>0</asrwt>
<pdfrwt beam="1">  1        2 0.32376170E+00 0.44988156E+03</pdfrwt>
<pdfrwt beam="2">  1       -2 0.36989990E-02 0.44988156E+03</pdfrwt>
<totfact> 0.20009249E+03</totfact>
</mgrwt>
</event>
<event>
 4    1  0.9064384E-005  0.3989756E+03  0.7818608E-02  0.1044135E+00
          2   -1    0    0  501    0  0.00000000000E+00  0.00000000000E+00  0.28445312552E+04  0.28445312552E+04  0.25500000000E-02 0.  1.
         -2   -1    0    0    0  501 -0.00000000000E+00 -0.00000000000E+00 -0.13990136972E+02  0.13990137204E+02  0.25500000000E-02 0. -1.
    5000001    1    1    2    0    0  0.10177938841E+03 -0.28051808365E+02  0.16856765635E+04  0.16970198658E+04  0.16500000000E+03 0.  0.
   -5000001    1    1    2    0    0 -0.10177938841E+03  0.28051808365E+02  0.11448645547E+04  0.11615015267E+04  0.16500000000E+03 0.  0.
<mgrwt>
<rscale>  0 0.39897560E+03</rscale>
<asrwt>0</asrwt>
<pdfrwt beam="1">  1        2 0.43761996E+00 0.39897560E+03</pdfrwt>
<pdfrwt beam="2">  1       -2 0.21523299E-02 0.39897560E+03</pdfrwt>
<totfact> 0.17563295E+03</totfact>
</mgrwt>
</event>
<event>
 4    1  0.9064384E-005  0.7120704E+03  0.7818608E-02  0.9696810E-01
          2   -1    0    0  501    0  0.00000000000E+00  0.00000000000E+00  0.79261523573E+03  0.79261523573E+03  0.25500000000E-02 0.  1.
         -2   -1    0    0    0  501 -0.00000000000E+00 -0.00000000000E+00 -0.15992762881E+03  0.15992762883E+03  0.25500000000E-02 0. -1.
    5000001    1    1    2    0    0  0.42459891030E+02 -0.30227520086E+03  0.42305017364E+03  0.54714677081E+03  0.16500000000E+03 0.  0.
   -5000001    1    1    2    0    0 -0.42459891030E+02  0.30227520086E+03  0.20963743328E+03  0.40539609375E+03  0.16500000000E+03 0.  0.
<mgrwt>
<rscale>  0 0.71207043E+03</rscale>
<asrwt>0</asrwt>
<pdfrwt beam="1">  1        2 0.12194080E+00 0.71207043E+03</pdfrwt>
<pdfrwt beam="2">  1       -2 0.24604251E-01 0.71207043E+03</pdfrwt>
<totfact> 0.51751794E+02</totfact>
</mgrwt>
</event>
<event>
 4    1  0.9064384E-005  0.6860851E+03  0.7818608E-02  0.9741329E-01
         -2   -1    0    0    0  501 -0.00000000000E+00  0.00000000000E+00  0.20681105566E+03  0.20681105568E+03  0.25500000000E-02 0. -1.
          2   -1    0    0  501    0  0.00000000000E+00 -0.00000000000E+00 -0.56901305648E+03  0.56901305649E+03  0.25500000000E-02 0.  1.
    5000001    1    1    2    0    0 -0.70810971549E+02 -0.68849721440E+02 -0.50233284406E+03  0.53788266756E+03  0.16500000000E+03 0.  0.
   -5000001    1    1    2    0    0  0.70810971549E+02  0.68849721440E+02  0.14013084324E+03  0.23794144461E+03  0.16500000000E+03 0.  0.
<mgrwt>
<rscale>  0 0.68608510E+03</rscale>
<asrwt>0</asrwt>
<pdfrwt beam="1">  1        2 0.87540470E-01 0.68608510E+03</pdfrwt>
<pdfrwt beam="2">  1       -2 0.31817086E-01 0.68608510E+03</pdfrwt>
<totfact> 0.48859787E+02</totfact>
</mgrwt>
</event>
<event>
 4    1  0.9064384E-005  0.6820134E+03  0.7818608E-02  0.9748496E-01
         -2   -1    0    0    0  501 -0.00000000000E+00  0.00000000000E+00  0.34668756651E+02  0.34668756745E+02  0.25500000000E-02 0. -1.
          2   -1    0    0  501    0  0.00000000000E+00 -0.00000000000E+00 -0.33541895720E+04  0.33541895720E+04  0.25500000000E-02 0.  1.
    5000001    1    1    2    0    0  0.26961240556E+03 -0.42109991489E+02 -0.22600828426E+04  0.22824687415E+04  0.16500000000E+03 0.  0.
   -5000001    1    1    2    0    0 -0.26961240556E+03  0.42109991489E+02 -0.10594379727E+04  0.11063895872E+04  0.16500000000E+03 0.  0.
<mgrwt>
<rscale>  0 0.68201344E+03</rscale>
<asrwt>0</asrwt>
<pdfrwt beam="1">  1        2 0.51602891E+00 0.68201344E+03</pdfrwt>
<pdfrwt beam="2">  1       -2 0.53336575E-02 0.68201344E+03</pdfrwt>
<totfact> 0.20635437E+02</totfact>
</mgrwt>
</event>
<event>
 4    1  0.9064384E-005  0.7399310E+03  0.7818608E-02  0.9651281E-01
          2   -1    0    0  501    0  0.00000000000E+00  0.00000000000E+00  0.85800183311E+03  0.85800183312E+03  0.25500000000E-02 0.  1.
         -2   -1    0    0    0  501 -0.00000000000E+00 -0.00000000000E+00 -0.15952701868E+03  0.15952701870E+03  0.25500000000E-02 0. -1.
    5000001    1    1    2    0    0  0.23584020936E+03  0.93747845436E+02  0.64173198400E+03  0.70954506705E+03  0.16500000000E+03 0.  0.
   -5000001    1    1    2    0    0 -0.23584020936E+03 -0.93747845436E+02  0.56742830434E+02  0.30798378477E+03  0.16500000000E+03 0.  0.
<mgrwt>
<rscale>  0 0.73993101E+03</rscale>
<asrwt>0</asrwt>
<pdfrwt beam="1">  1        2 0.13200028E+00 0.73993101E+03</pdfrwt>
<pdfrwt beam="2">  1       -2 0.24542618E-01 0.73993101E+03</pdfrwt>
<totfact> 0.46699588E+02</totfact>
</mgrwt>
</event>
<event>
 4    1  0.9064384E-005  0.7581185E+03  0.7818608E-02  0.9622699E-01
         -2   -1    0    0    0  501 -0.00000000000E+00  0.00000000000E+00  0.84395121261E+02  0.84395121299E+02  0.25500000000E-02 0. -1.
          2   -1    0    0  501    0  0.00000000000E+00 -0.00000000000E+00 -0.17025383397E+04  0.17025383397E+04  0.25500000000E-02 0.  1.
    5000001    1    1    2    0    0  0.24649729356E+03 -0.17495990111E+03 -0.11824191942E+04  0.12315486322E+04  0.16500000000E+03 0.  0.
   -5000001    1    1    2    0    0 -0.24649729356E+03  0.17495990111E+03 -0.43572402423E+03  0.55538482876E+03  0.16500000000E+03 0.  0.
<mgrwt>
<rscale>  0 0.75811854E+03</rscale>
<asrwt>0</asrwt>
<pdfrwt beam="1">  1        2 0.26192895E+00 0.75811854E+03</pdfrwt>
<pdfrwt beam="2">  1       -2 0.12983866E-01 0.75811854E+03</pdfrwt>
<totfact> 0.44345715E+02</totfact>
</mgrwt>
</event>
<event>
 4    1  0.9064384E-005  0.4675746E+03  0.7818608E-02  0.1022607E+00
          2   -1    0    0  501    0  0.00000000000E+00  0.00000000000E+00  0.50788401563E+03  0.50788401564E+03  0.25500000000E-02 0.  1.
         -2   -1    0    0    0  501 -0.00000000000E+00 -0.00000000000E+00 -0.10761609207E+03  0.10761609210E+03  0.25500000000E-02 0. -1.
    5000001    1    1    2    0    0  0.15759626056E+03 -0.49252897627E+02  0.18301795375E+03  0.29661928572E+03  0.16500000000E+03 0.  0.
   -5000001    1    1    2    0    0 -0.15759626056E+03  0.49252897627E+02  0.21724996981E+03  0.31888082201E+03  0.16500000000E+03 0.  0.
<mgrwt>
<rscale>  0 0.46757456E+03</rscale>
<asrwt>0</asrwt>
<pdfrwt beam="1">  1        2 0.78136001E-01 0.46757456E+03</pdfrwt>
<pdfrwt beam="2">  1       -2 0.16556322E-01 0.46757456E+03</pdfrwt>
<totfact> 0.17844496E+03</totfact>
</mgrwt>
</event>
<event>
 4    1  0.9064384E-005  0.3997487E+03  0.7818608E-02  0.1043867E+00
         -2   -1    0    0    0  501 -0.00000000000E+00  0.00000000000E+00  0.28020484289E+02  0.28020484405E+02  0.25500000000E-02 0. -1.
          2   -1    0    0  501    0  0.00000000000E+00 -0.00000000000E+00 -0.14257338460E+04  0.14257338460E+04  0.25500000000E-02 0.  1.
    5000001    1    1    2    0    0  0.31194919955E+02 -0.10506720818E+03 -0.60178334311E+03  0.63354592044E+03  0.16500000000E+03 0.  0.
   -5000001    1    1    2    0    0 -0.31194919955E+02  0.10506720818E+03 -0.79593001857E+03  0.82020840993E+03  0.16500000000E+03 0.  0.
<mgrwt>
<rscale>  0 0.39974869E+03</rscale>
<asrwt>0</asrwt>
<pdfrwt beam="1">  1        2 0.21934361E+00 0.39974869E+03</pdfrwt>
<pdfrwt beam="2">  1       -2 0.43108449E-02 0.39974869E+03</pdfrwt>
<totfact> 0.36785506E+03</totfact>
</mgrwt>
</event>
<event>
 4    1  0.9064384E-005  0.4157144E+03  0.7818608E-02  0.1038470E+00
         -2   -1    0    0    0  501 -0.00000000000E+00  0.00000000000E+00  0.85806881104E+02  0.85806881142E+02  0.25500000000E-02 0. -1.
          2   -1    0    0  501    0  0.00000000000E+00 -0.00000000000E+00 -0.50350981703E+03  0.50350981703E+03  0.25500000000E-02 0.  1.
    5000001    1    1    2    0    0 -0.62674019668E+02 -0.10844256120E+03 -0.23306651682E+03  0.31182178096E+03  0.16500000000E+03 0.  0.
   -5000001    1    1    2    0    0  0.62674019668E+02  0.10844256120E+03 -0.18463641911E+03  0.27749491722E+03  0.16500000000E+03 0.  0.
<mgrwt>
<rscale>  0 0.41571436E+03</rscale>
<asrwt>0</asrwt>
<pdfrwt beam="1">  1        2 0.77463047E-01 0.41571436E+03</pdfrwt>
<pdfrwt beam="2">  1       -2 0.13201059E-01 0.41571436E+03</pdfrwt>
<totfact> 0.26281753E+03</totfact>
</mgrwt>
</event>
<event>
 4    1  0.9064384E-005  0.3727450E+03  0.7818608E-02  0.1053648E+00
         -2   -1    0    0    0  501 -0.00000000000E+00  0.00000000000E+00  0.33061095229E+02  0.33061095327E+02  0.25500000000E-02 0. -1.
          2   -1    0    0  501    0  0.00000000000E+00 -0.00000000000E+00 -0.10506216522E+04  0.10506216522E+04  0.25500000000E-02 0.  1.
    5000001    1    1    2    0    0 -0.73208108334E+02 -0.43584519570E+02 -0.46275066930E+03  0.49862031588E+03  0.16500000000E+03 0.  0.
   -5000001    1    1    2    0    0  0.73208108334E+02  0.43584519570E+02 -0.55480988771E+03  0.58506243168E+03  0.16500000000E+03 0.  0.
<mgrwt>
<rscale>  0 0.37274497E+03</rscale>
<asrwt>0</asrwt>
<pdfrwt beam="1">  1        2 0.16163407E+00 0.37274497E+03</pdfrwt>
<pdfrwt beam="2">  1       -2 0.50863232E-02 0.37274497E+03</pdfrwt>
<totfact> 0.46842459E+03</totfact>
</mgrwt>
</event>
<event>
 4    1  0.9064384E-005  0.6646519E+03  0.7818608E-02  0.9779668E-01
         -2   -1    0    0    0  501 -0.00000000000E+00  0.00000000000E+00  0.13464541398E+03  0.13464541401E+03  0.25500000000E-02 0. -1.
          2   -1    0    0  501    0  0.00000000000E+00 -0.00000000000E+00 -0.82023237710E+03  0.82023237710E+03  0.25500000000E-02 0.  1.
    5000001    1    1    2    0    0 -0.26529385307E+03 -0.75989095696E+02 -0.46351005120E+03  0.56411145947E+03  0.16500000000E+03 0.  0.
   -5000001    1    1    2    0    0  0.26529385307E+03  0.75989095696E+02 -0.22207691191E+03  0.39076633164E+03  0.16500000000E+03 0.  0.
<mgrwt>
<rscale>  0 0.66465187E+03</rscale>
<asrwt>0</asrwt>
<pdfrwt beam="1">  1        2 0.12618959E+00 0.66465187E+03</pdfrwt>
<pdfrwt beam="2">  1       -2 0.20714680E-01 0.66465187E+03</pdfrwt>
<totfact> 0.67231020E+02</totfact>
</mgrwt>
</event>
<event>
 4    1  0.9064384E-005  0.1167188E+04  0.7818608E-02  0.9142072E-01
         -2   -1    0    0    0  501 -0.00000000000E+00  0.00000000000E+00  0.24371891746E+03  0.24371891747E+03  0.25500000000E-02 0. -1.
          2   -1    0    0  501    0  0.00000000000E+00 -0.00000000000E+00 -0.13974372343E+04  0.13974372343E+04  0.25500000000E-02 0.  1.
    5000001    1    1    2    0    0  0.49370602801E+03 -0.26372346654E+03 -0.58785725812E+03  0.82830964308E+03  0.16500000000E+03 0.  0.
   -5000001    1    1    2    0    0 -0.49370602801E+03  0.26372346654E+03 -0.56586105870E+03  0.81284650866E+03  0.16500000000E+03 0.  0.
<mgrwt>
<rscale>  0 0.11671879E+04</rscale>
<asrwt>0</asrwt>
<pdfrwt beam="1">  1        2 0.21499034E+00 0.11671879E+04</pdfrwt>
<pdfrwt beam="2">  1       -2 0.37495219E-01 0.11671879E+04</pdfrwt>
<totfact> 0.96251178E+01</totfact>
</mgrwt>
</event>
<event>
 4    1  0.9064384E-005  0.4607498E+03  0.7818608E-02  0.1024564E+00
          2   -1    0    0  501    0  0.00000000000E+00  0.00000000000E+00  0.60071994133E+03  0.60071994134E+03  0.25500000000E-02 0.  1.
         -2   -1    0    0    0  501 -0.00000000000E+00 -0.00000000000E+00 -0.88348303734E+02  0.88348303770E+02  0.25500000000E-02 0. -1.
    5000001    1    1    2    0    0 -0.11413342656E+03  0.94693135898E+02  0.16333768501E+03  0.27549487906E+03  0.16500000000E+03 0.  0.
   -5000001    1    1    2    0    0  0.11413342656E+03 -0.94693135898E+02  0.34903395259E+03  0.41357336605E+03  0.16500000000E+03 0.  0.
<mgrwt>
<rscale>  0 0.46074977E+03</rscale>
<asrwt>0</asrwt>
<pdfrwt beam="1">  1        2 0.92418454E-01 0.46074977E+03</pdfrwt>
<pdfrwt beam="2">  1       -2 0.13592047E-01 0.46074977E+03</pdfrwt>
<totfact> 0.20417975E+03</totfact>
</mgrwt>
</event>
<event>
 4    1  0.9064384E-005  0.6678230E+03  0.7818608E-02  0.9773899E-01
          2   -1    0    0  501    0  0.00000000000E+00  0.00000000000E+00  0.83490218838E+03  0.83490218839E+03  0.25500000000E-02 0.  1.
         -2   -1    0    0    0  501 -0.00000000000E+00 -0.00000000000E+00 -0.13354483337E+03  0.13354483340E+03  0.25500000000E-02 0. -1.
    5000001    1    1    2    0    0 -0.45192372021E+02  0.28506886729E+03  0.30562423761E+03  0.45159471233E+03  0.16500000000E+03 0.  0.
   -5000001    1    1    2    0    0  0.45192372021E+02 -0.28506886729E+03  0.39573311740E+03  0.51685230946E+03  0.16500000000E+03 0.  0.
<mgrwt>
<rscale>  0 0.66782295E+03</rscale>
<asrwt>0</asrwt>
<pdfrwt beam="1">  1        2 0.12844649E+00 0.66782295E+03</pdfrwt>
<pdfrwt beam="2">  1       -2 0.20545359E-01 0.66782295E+03</pdfrwt>
<totfact> 0.66600288E+02</totfact>
</mgrwt>
</event>
<event>
 4    1  0.9064384E-005  0.5184475E+03  0.7818608E-02  0.1009073E+00
          2   -1    0    0  501    0  0.00000000000E+00  0.00000000000E+00  0.11440077268E+04  0.11440077268E+04  0.25500000000E-02 0.  1.
         -2   -1    0    0    0  501 -0.00000000000E+00 -0.00000000000E+00 -0.58738191003E+02  0.58738191058E+02  0.25500000000E-02 0. -1.
    5000001    1    1    2    0    0  0.17330670064E+03 -0.53519229862E+02  0.34753656168E+03  0.42533067389E+03  0.16500000000E+03 0.  0.
   -5000001    1    1    2    0    0 -0.17330670064E+03  0.53519229862E+02  0.73773297411E+03  0.77741524396E+03  0.16500000000E+03 0.  0.
<mgrwt>
<rscale>  0 0.51844747E+03</rscale>
<asrwt>0</asrwt>
<pdfrwt beam="1">  1        2 0.17600119E+00 0.51844747E+03</pdfrwt>
<pdfrwt beam="2">  1       -2 0.90366446E-02 0.51844747E+03</pdfrwt>
<totfact> 0.16729348E+03</totfact>
</mgrwt>
</event>
<event>
 4    1  0.9064384E-005  0.9106739E+03  0.7818608E-02  0.9412336E-01
         -2   -1    0    0    0  501 -0.00000000000E+00  0.00000000000E+00  0.19460704767E+03  0.19460704768E+03  0.25500000000E-02 0. -1.
          2   -1    0    0  501    0  0.00000000000E+00 -0.00000000000E+00 -0.10653865044E+04  0.10653865044E+04  0.25500000000E-02 0.  1.
    5000001    1    1    2    0    0  0.37613265386E+03 -0.19388554870E+03 -0.47999486685E+03  0.66082331337E+03  0.16500000000E+03 0.  0.
   -5000001    1    1    2    0    0 -0.37613265386E+03  0.19388554870E+03 -0.39078458992E+03  0.59917023876E+03  0.16500000000E+03 0.  0.
<mgrwt>
<rscale>  0 0.91067387E+03</rscale>
<asrwt>0</asrwt>
<pdfrwt beam="1">  1        2 0.16390561E+00 0.91067387E+03</pdfrwt>
<pdfrwt beam="2">  1       -2 0.29939546E-01 0.91067387E+03</pdfrwt>
<totfact> 0.23581156E+02</totfact>
</mgrwt>
</event>
<event>
 4    1  0.9064384E-005  0.7959358E+03  0.7818608E-02  0.9565919E-01
          2   -1    0    0  501    0  0.00000000000E+00  0.00000000000E+00  0.92286206674E+03  0.92286206674E+03  0.25500000000E-02 0.  1.
         -2   -1    0    0    0  501 -0.00000000000E+00 -0.00000000000E+00 -0.17161661634E+03  0.17161661636E+03  0.25500000000E-02 0. -1.
    5000001    1    1    2    0    0  0.76161329415E+02 -0.34126311820E+03  0.50529250510E+03  0.63624411954E+03  0.16500000000E+03 0.  0.
   -5000001    1    1    2    0    0 -0.76161329415E+02  0.34126311820E+03  0.24595294529E+03  0.45823456356E+03  0.16500000000E+03 0.  0.
<mgrwt>
<rscale>  0 0.79593584E+03</rscale>
<asrwt>0</asrwt>
<pdfrwt beam="1">  1        2 0.14197878E+00 0.79593584E+03</pdfrwt>
<pdfrwt beam="2">  1       -2 0.26402556E-01 0.79593584E+03</pdfrwt>
<totfact> 0.36898778E+02</totfact>
</mgrwt>
</event>
<event>
 4    1  0.9064384E-005  0.4844878E+03  0.7818608E-02  0.1017909E+00
         -2   -1    0    0    0  501 -0.00000000000E+00  0.00000000000E+00  0.18777284375E+03  0.18777284376E+03  0.25500000000E-02 0. -1.
          2   -1    0    0  501    0  0.00000000000E+00 -0.00000000000E+00 -0.31251645545E+03  0.31251645546E+03  0.25500000000E-02 0.  1.
    5000001    1    1    2    0    0  0.15251026416E+03  0.59653591178E+02 -0.13270472067E+03  0.26768166635E+03  0.16500000000E+03 0.  0.
   -5000001    1    1    2    0    0 -0.15251026416E+03 -0.59653591178E+02  0.79611089688E+01  0.23260763287E+03  0.16500000000E+03 0.  0.
<mgrwt>
<rscale>  0 0.48448779E+03</rscale>
<asrwt>0</asrwt>
<pdfrwt beam="1">  1        2 0.48079455E-01 0.48448779E+03</pdfrwt>
<pdfrwt beam="2">  1       -2 0.28888130E-01 0.48448779E+03</pdfrwt>
<totfact> 0.11531808E+03</totfact>
</mgrwt>
</event>
<event>
 4    1  0.9064384E-005  0.5592413E+03  0.7818608E-02  0.9993773E-01
         -2   -1    0    0    0  501 -0.00000000000E+00  0.00000000000E+00  0.23033962364E+02  0.23033962505E+02  0.25500000000E-02 0. -1.
          2   -1    0    0  501    0  0.00000000000E+00 -0.00000000000E+00 -0.33944532723E+04  0.33944532723E+04  0.25500000000E-02 0.  1.
    5000001    1    1    2    0    0 -0.32330728900E+02 -0.20917140978E+03 -0.21655155204E+04  0.21820816721E+04  0.16500000000E+03 0.  0.
   -5000001    1    1    2    0    0  0.32330728900E+02  0.20917140978E+03 -0.12059037895E+04  0.12354055627E+04  0.16500000000E+03 0.  0.
<mgrwt>
<rscale>  0 0.55924130E+03</rscale>
<asrwt>0</asrwt>
<pdfrwt beam="1">  1        2 0.52222318E+00 0.55924130E+03</pdfrwt>
<pdfrwt beam="2">  1       -2 0.35436892E-02 0.55924130E+03</pdfrwt>
<totfact> 0.37082338E+02</totfact>
</mgrwt>
</event>
<event>
 4    1  0.9064384E-005  0.8919770E+03  0.7818608E-02  0.9435667E-01
          2   -1    0    0  501    0  0.00000000000E+00  0.00000000000E+00  0.25040802922E+04  0.25040802922E+04  0.25500000000E-02 0.  1.
         -2   -1    0    0    0  501 -0.00000000000E+00 -0.00000000000E+00 -0.79432644972E+02  0.79432645012E+02  0.25500000000E-02 0. -1.
    5000001    1    1    2    0    0 -0.26251050219E+03  0.71288073220E+02  0.21175879745E+04  0.21413541470E+04  0.16500000000E+03 0.  0.
   -5000001    1    1    2    0    0  0.26251050219E+03 -0.71288073220E+02  0.30705967273E+03  0.44215879021E+03  0.16500000000E+03 0.  0.
<mgrwt>
<rscale>  0 0.89197695E+03</rscale>
<asrwt>0</asrwt>
<pdfrwt beam="1">  1        2 0.38524315E+00 0.89197695E+03</pdfrwt>
<pdfrwt beam="2">  1       -2 0.12220406E-01 0.89197695E+03</pdfrwt>
<totfact> 0.17506599E+02</totfact>
</mgrwt>
</event>
<event>
 4    1  0.9064384E-005  0.5824163E+03  0.7818608E-02  0.9942573E-01
         -2   -1    0    0    0  501 -0.00000000000E+00  0.00000000000E+00  0.73454974406E+02  0.73454974450E+02  0.25500000000E-02 0. -1.
          2   -1    0    0  501    0  0.00000000000E+00 -0.00000000000E+00 -0.11544783987E+04  0.11544783987E+04  0.25500000000E-02 0.  1.
    5000001    1    1    2    0    0 -0.71910487974E+02 -0.21161696208E+03 -0.72460670522E+03  0.77603655466E+03  0.16500000000E+03 0.  0.
   -5000001    1    1    2    0    0  0.71910487974E+02  0.21161696208E+03 -0.35641671904E+03  0.45189681846E+03  0.16500000000E+03 0.  0.
<mgrwt>
<rscale>  0 0.58241628E+03</rscale>
<asrwt>0</asrwt>
<pdfrwt beam="1">  1        2 0.17761205E+00 0.58241628E+03</pdfrwt>
<pdfrwt beam="2">  1       -2 0.11300766E-01 0.58241628E+03</pdfrwt>
<totfact> 0.11460985E+03</totfact>
</mgrwt>
</event>
<event>
 4    1  0.9064384E-005  0.4635327E+03  0.7818608E-02  0.1023762E+00
         -2   -1    0    0    0  501 -0.00000000000E+00  0.00000000000E+00  0.39787466834E+02  0.39787466916E+02  0.25500000000E-02 0. -1.
          2   -1    0    0  501    0  0.00000000000E+00 -0.00000000000E+00 -0.13500644546E+04  0.13500644546E+04  0.25500000000E-02 0.  1.
    5000001    1    1    2    0    0 -0.62220335833E+01 -0.13554827242E+03 -0.92463684300E+03  0.94899438317E+03  0.16500000000E+03 0.  0.
   -5000001    1    1    2    0    0  0.62220335833E+01  0.13554827242E+03 -0.38564014473E+03  0.44085753831E+03  0.16500000000E+03 0.  0.
<mgrwt>
<rscale>  0 0.46353272E+03</rscale>
<asrwt>0</asrwt>
<pdfrwt beam="1">  1        2 0.20770219E+00 0.46353272E+03</pdfrwt>
<pdfrwt beam="2">  1       -2 0.61211498E-02 0.46353272E+03</pdfrwt>
<totfact> 0.23582935E+03</totfact>
</mgrwt>
</event>
<event>
 4    1  0.9064384E-005  0.8310556E+03  0.7818608E-02  0.9516122E-01
          2   -1    0    0  501    0  0.00000000000E+00  0.00000000000E+00  0.12052422986E+04  0.12052422986E+04  0.25500000000E-02 0. -1.
         -2   -1    0    0    0  501 -0.00000000000E+00 -0.00000000000E+00 -0.14326026576E+03  0.14326026579E+03  0.25500000000E-02 0.  1.
    5000001    1    1    2    0    0 -0.89373467569E+02 -0.37069378041E+03  0.54083930588E+03  0.68200707498E+03  0.16500000000E+03 0.  0.
   -5000001    1    1    2    0    0  0.89373467569E+02  0.37069378041E+03  0.52114272696E+03  0.66649548941E+03  0.16500000000E+03 0.  0.
<mgrwt>
<rscale>  0 0.83105555E+03</rscale>
<asrwt>0</asrwt>
<pdfrwt beam="1">  1        2 0.18542190E+00 0.83105555E+03</pdfrwt>
<pdfrwt beam="2">  1       -2 0.22040040E-01 0.83105555E+03</pdfrwt>
<totfact> 0.33960173E+02</totfact>
</mgrwt>
</event>
<event>
 4    1  0.9064384E-005  0.6187112E+03  0.7818608E-02  0.9867329E-01
          2   -1    0    0  501    0  0.00000000000E+00  0.00000000000E+00  0.17420763110E+04  0.17420763110E+04  0.25500000000E-02 0.  1.
         -2   -1    0    0    0  501 -0.00000000000E+00 -0.00000000000E+00 -0.54934964880E+02  0.54934964939E+02  0.25500000000E-02 0. -1.
    5000001    1    1    2    0    0  0.24593344735E+03  0.63999641742E+02  0.10248759808E+04  0.10687258726E+04  0.16500000000E+03 0.  0.
   -5000001    1    1    2    0    0 -0.24593344735E+03 -0.63999641742E+02  0.66226536536E+03  0.72828540341E+03  0.16500000000E+03 0.  0.
<mgrwt>
<rscale>  0 0.61871124E+03</rscale>
<asrwt>0</asrwt>
<pdfrwt beam="1">  1        2 0.26801173E+00 0.61871124E+03</pdfrwt>
<pdfrwt beam="2">  1       -2 0.84515334E-02 0.61871124E+03</pdfrwt>
<totfact> 0.85783081E+02</totfact>
</mgrwt>
</event>
<event>
 4    1  0.9064384E-005  0.8916733E+03  0.7818608E-02  0.9436051E-01
          2   -1    0    0  501    0  0.00000000000E+00  0.00000000000E+00  0.13663493750E+04  0.13663493750E+04  0.25500000000E-02 0.  1.
         -2   -1    0    0    0  501 -0.00000000000E+00 -0.00000000000E+00 -0.14547546220E+03  0.14547546223E+03  0.25500000000E-02 0. -1.
    5000001    1    1    2    0    0 -0.34319071157E+03  0.22664002943E+03  0.52737966383E+03  0.68883951489E+03  0.16500000000E+03 0.  0.
   -5000001    1    1    2    0    0  0.34319071157E+03 -0.22664002943E+03  0.69349424896E+03  0.82298532234E+03  0.16500000000E+03 0.  0.
<mgrwt>
<rscale>  0 0.89167327E+03</rscale>
<asrwt>0</asrwt>
<pdfrwt beam="1">  1        2 0.21020758E+00 0.89167327E+03</pdfrwt>
<pdfrwt beam="2">  1       -2 0.22380842E-01 0.89167327E+03</pdfrwt>
<totfact> 0.26546976E+02</totfact>
</mgrwt>
</event>
<event>
 4    1  0.9064384E-005  0.4529246E+03  0.7818608E-02  0.1026853E+00
          2   -1    0    0  501    0  0.00000000000E+00  0.00000000000E+00  0.11587442521E+04  0.11587442521E+04  0.25500000000E-02 0.  1.
         -2   -1    0    0    0  501 -0.00000000000E+00 -0.00000000000E+00 -0.44259262043E+02  0.44259262117E+02  0.25500000000E-02 0. -1.
    5000001    1    1    2    0    0  0.24229644320E+02 -0.15241506649E+03  0.59862429280E+03  0.63983862972E+03  0.16500000000E+03 0.  0.
   -5000001    1    1    2    0    0 -0.24229644320E+02  0.15241506649E+03  0.51586069728E+03  0.56316488452E+03  0.16500000000E+03 0.  0.
<mgrwt>
<rscale>  0 0.45292457E+03</rscale>
<asrwt>0</asrwt>
<pdfrwt beam="1">  1        2 0.17826834E+00 0.45292457E+03</pdfrwt>
<pdfrwt beam="2">  1       -2 0.68091175E-02 0.45292457E+03</pdfrwt>
<totfact> 0.25702379E+03</totfact>
</mgrwt>
</event>
<event>
 4    1  0.9064384E-005  0.3444883E+03  0.7818608E-02  0.1064900E+00
         -2   -1    0    0    0  501 -0.00000000000E+00  0.00000000000E+00  0.17119910112E+02  0.17119910302E+02  0.25500000000E-02 0. -1.
          2   -1    0    0  501    0  0.00000000000E+00 -0.00000000000E+00 -0.17329555946E+04  0.17329555946E+04  0.25500000000E-02 0.  1.
    5000001    1    1    2    0    0  0.45971567972E+02  0.18112016099E+02 -0.85146379281E+03  0.86870997499E+03  0.16500000000E+03 0.  0.
   -5000001    1    1    2    0    0 -0.45971567972E+02 -0.18112016099E+02 -0.86437189171E+03  0.88136552994E+03  0.16500000000E+03 0.  0.
<mgrwt>
<rscale>  0 0.34448828E+03</rscale>
<asrwt>0</asrwt>
<pdfrwt beam="1">  1        2 0.26660841E+00 0.34448828E+03</pdfrwt>
<pdfrwt beam="2">  1       -2 0.26338337E-02 0.34448828E+03</pdfrwt>
<totfact> 0.52844474E+03</totfact>
</mgrwt>
</event>
<event>
 4    1  0.9064384E-005  0.5227414E+03  0.7818608E-02  0.1008008E+00
         -2   -1    0    0    0  501 -0.00000000000E+00  0.00000000000E+00  0.42220923745E+02  0.42220923822E+02  0.25500000000E-02 0.  1.
          2   -1    0    0  501    0  0.00000000000E+00 -0.00000000000E+00 -0.16180281731E+04  0.16180281731E+04  0.25500000000E-02 0. -1.
    5000001    1    1    2    0    0  0.17237223949E+03 -0.30228882943E+02 -0.11127876566E+04  0.11384846696E+04  0.16500000000E+03 0.  0.
   -5000001    1    1    2    0    0 -0.17237223949E+03  0.30228882943E+02 -0.46301959276E+03  0.52176442730E+03  0.16500000000E+03 0.  0.
<mgrwt>
<rscale>  0 0.52274141E+03</rscale>
<asrwt>0</asrwt>
<pdfrwt beam="1">  1        2 0.24892736E+00 0.52274141E+03</pdfrwt>
<pdfrwt beam="2">  1       -2 0.64955280E-02 0.52274141E+03</pdfrwt>
<totfact> 0.15276062E+03</totfact>
</mgrwt>
</event>
<event>
 4    1  0.9064384E-005  0.7242100E+03  0.7818608E-02  0.9676703E-01
          2   -1    0    0  501    0  0.00000000000E+00  0.00000000000E+00  0.28763892791E+03  0.28763892792E+03  0.25500000000E-02 0. -1.
         -2   -1    0    0    0  501 -0.00000000000E+00 -0.00000000000E+00 -0.45584941397E+03  0.45584941398E+03  0.25500000000E-02 0.  1.
    5000001    1    1    2    0    0  0.22917259421E+03 -0.19013733526E+03  0.42559641050E+02  0.34308688002E+03  0.16500000000E+03 0.  0.
   -5000001    1    1    2    0    0 -0.22917259421E+03  0.19013733526E+03 -0.21077012711E+03  0.40040146188E+03  0.16500000000E+03 0.  0.
<mgrwt>
<rscale>  0 0.72421002E+03</rscale>
<asrwt>0</asrwt>
<pdfrwt beam="1">  1        2 0.44252143E-01 0.72421002E+03</pdfrwt>
<pdfrwt beam="2">  1       -2 0.70130679E-01 0.72421002E+03</pdfrwt>
<totfact> 0.21506099E+02</totfact>
</mgrwt>
</event>
<event>
 4    1  0.9064384E-005  0.3547298E+03  0.7818608E-02  0.1060690E+00
         -2   -1    0    0    0  501 -0.00000000000E+00  0.00000000000E+00  0.12871253847E+03  0.12871253850E+03  0.25500000000E-02 0. -1.
          2   -1    0    0  501    0  0.00000000000E+00 -0.00000000000E+00 -0.24440752282E+03  0.24440752283E+03  0.25500000000E-02 0.  1.
    5000001    1    1    2    0    0  0.34495833528E+02  0.54617283711E+02 -0.66015543911E+02  0.18909273452E+03  0.16500000000E+03 0.  0.
   -5000001    1    1    2    0    0 -0.34495833528E+02 -0.54617283711E+02 -0.49679440432E+02  0.18402732681E+03  0.16500000000E+03 0.  0.
<mgrwt>
<rscale>  0 0.35472983E+03</rscale>
<asrwt>0</asrwt>
<pdfrwt beam="1">  1        2 0.37601157E-01 0.35472983E+03</pdfrwt>
<pdfrwt beam="2">  1       -2 0.19801929E-01 0.35472983E+03</pdfrwt>
<totfact> 0.29356705E+03</totfact>
</mgrwt>
</event>
<event>
 4    1  0.9064384E-005  0.3954209E+03  0.7818608E-02  0.1045377E+00
         -2   -1    0    0    0  501 -0.00000000000E+00  0.00000000000E+00  0.63194760707E+02  0.63194760758E+02  0.25500000000E-02 0. -1.
          2   -1    0    0  501    0  0.00000000000E+00 -0.00000000000E+00 -0.61855471981E+03  0.61855471981E+03  0.25500000000E-02 0.  1.
    5000001    1    1    2    0    0 -0.10454973028E+03 -0.25235792618E+02 -0.24797088107E+03  0.31667341093E+03  0.16500000000E+03 0.  0.
   -5000001    1    1    2    0    0  0.10454973028E+03  0.25235792618E+02 -0.30738907803E+03  0.36507606964E+03  0.16500000000E+03 0.  0.
<mgrwt>
<rscale>  0 0.39542088E+03</rscale>
<asrwt>0</asrwt>
<pdfrwt beam="1">  1        2 0.95162261E-01 0.39542088E+03</pdfrwt>
<pdfrwt beam="2">  1       -2 0.97222713E-02 0.39542088E+03</pdfrwt>
<totfact> 0.33980076E+03</totfact>
</mgrwt>
</event>
<event>
 4    1  0.9064384E-005  0.7191943E+03  0.7818608E-02  0.9684959E-01
          2   -1    0    0  501    0  0.00000000000E+00  0.00000000000E+00  0.13109860291E+03  0.13109860294E+03  0.25500000000E-02 0.  1.
         -2   -1    0    0    0  501 -0.00000000000E+00 -0.00000000000E+00 -0.98635775377E+03  0.98635775377E+03  0.25500000000E-02 0. -1.
    5000001    1    1    2    0    0  0.21878897879E+03  0.14360734043E+03 -0.71241092116E+03  0.77668913090E+03  0.16500000000E+03 0.  0.
   -5000001    1    1    2    0    0 -0.21878897879E+03 -0.14360734043E+03 -0.14284822970E+03  0.34076722582E+03  0.16500000000E+03 0.  0.
<mgrwt>
<rscale>  0 0.71919434E+03</rscale>
<asrwt>0</asrwt>
<pdfrwt beam="1">  1        2 0.20169016E-01 0.71919434E+03</pdfrwt>
<pdfrwt beam="2">  1       -2 0.15174734E+00 0.71919434E+03</pdfrwt>
<totfact> 0.82760872E+01</totfact>
</mgrwt>
</event>
<event>
 4    1  0.9064384E-005  0.5424356E+03  0.7818608E-02  0.1003260E+00
         -2   -1    0    0    0  501 -0.00000000000E+00  0.00000000000E+00  0.88155308088E+02  0.88155308125E+02  0.25500000000E-02 0. -1.
          2   -1    0    0  501    0  0.00000000000E+00 -0.00000000000E+00 -0.83442625961E+03  0.83442625962E+03  0.25500000000E-02 0.  1.
    5000001    1    1    2    0    0  0.18234442749E+03  0.10850255330E+03 -0.31153387720E+03  0.41146160325E+03  0.16500000000E+03 0.  0.
   -5000001    1    1    2    0    0 -0.18234442749E+03 -0.10850255330E+03 -0.43473707433E+03  0.51111996450E+03  0.16500000000E+03 0.  0.
<mgrwt>
<rscale>  0 0.54243563E+03</rscale>
<asrwt>0</asrwt>
<pdfrwt beam="1">  1        2 0.12837327E+00 0.54243563E+03</pdfrwt>
<pdfrwt beam="2">  1       -2 0.13562356E-01 0.54243563E+03</pdfrwt>
<totfact> 0.13574559E+03</totfact>
</mgrwt>
</event>
<event>
 4    1  0.9064384E-005  0.3868509E+03  0.7818608E-02  0.1048430E+00
          2   -1    0    0  501    0  0.00000000000E+00  0.00000000000E+00  0.43561703643E+03  0.43561703644E+03  0.25500000000E-02 0.  1.
         -2   -1    0    0    0  501 -0.00000000000E+00 -0.00000000000E+00 -0.85885980239E+02  0.85885980277E+02  0.25500000000E-02 0. -1.
    5000001    1    1    2    0    0 -0.78768335108E+02  0.58535559094E+02  0.20669642695E+03  0.28209798866E+03  0.16500000000E+03 0.  0.
   -5000001    1    1    2    0    0  0.78768335108E+02 -0.58535559094E+02  0.14303462924E+03  0.23940502805E+03  0.16500000000E+03 0.  0.
<mgrwt>
<rscale>  0 0.38685086E+03</rscale>
<asrwt>0</asrwt>
<pdfrwt beam="1">  1        2 0.67018005E-01 0.38685086E+03</pdfrwt>
<pdfrwt beam="2">  1       -2 0.13213228E-01 0.38685086E+03</pdfrwt>
<totfact> 0.30852581E+03</totfact>
</mgrwt>
</event>
<event>
 4    1  0.9064384E-005  0.3628237E+03  0.7818608E-02  0.1057471E+00
          2   -1    0    0  501    0  0.00000000000E+00  0.00000000000E+00  0.14118409466E+04  0.14118409466E+04  0.25500000000E-02 0.  1.
         -2   -1    0    0    0  501 -0.00000000000E+00 -0.00000000000E+00 -0.23310173447E+02  0.23310173586E+02  0.25500000000E-02 0. -1.
    5000001    1    1    2    0    0 -0.61524889779E+02 -0.69534813685E+01  0.86447141485E+03  0.88225250924E+03  0.16500000000E+03 0.  0.
   -5000001    1    1    2    0    0  0.61524889779E+02  0.69534813685E+01  0.52405935830E+03  0.55289861095E+03  0.16500000000E+03 0.  0.
<mgrwt>
<rscale>  0 0.36282369E+03</rscale>
<asrwt>0</asrwt>
<pdfrwt beam="1">  1        2 0.21720633E+00 0.36282369E+03</pdfrwt>
<pdfrwt beam="2">  1       -2 0.35861800E-02 0.36282369E+03</pdfrwt>
<totfact> 0.49493865E+03</totfact>
</mgrwt>
</event>
<event>
 4    1  0.9064384E-005  0.9380438E+03  0.7818608E-02  0.9379236E-01
          2   -1    0    0  501    0  0.00000000000E+00  0.00000000000E+00  0.13412220907E+04  0.13412220907E+04  0.25500000000E-02 0.  1.
         -2   -1    0    0    0  501 -0.00000000000E+00 -0.00000000000E+00 -0.16401573040E+03  0.16401573042E+03  0.25500000000E-02 0. -1.
    5000001    1    1    2    0    0 -0.38846931479E+03  0.16677184734E+03  0.39849871929E+03  0.60394328117E+03  0.16500000000E+03 0.  0.
   -5000001    1    1    2    0    0  0.38846931479E+03 -0.16677184734E+03  0.77870764104E+03  0.90129453998E+03  0.16500000000E+03 0.  0.
<mgrwt>
<rscale>  0 0.93804375E+03</rscale>
<asrwt>0</asrwt>
<pdfrwt beam="1">  1        2 0.20634186E+00 0.93804375E+03</pdfrwt>
<pdfrwt beam="2">  1       -2 0.25233189E-01 0.93804375E+03</pdfrwt>
<totfact> 0.22065205E+02</totfact>
</mgrwt>
</event>
<event>
 4    1  0.9064384E-005  0.3617308E+03  0.7818608E-02  0.1057901E+00
         -2   -1    0    0    0  501 -0.00000000000E+00  0.00000000000E+00  0.15833640904E+02  0.15833641109E+02  0.25500000000E-02 0. -1.
          2   -1    0    0  501    0  0.00000000000E+00 -0.00000000000E+00 -0.20659992533E+04  0.20659992533E+04  0.25500000000E-02 0.  1.
    5000001    1    1    2    0    0 -0.18819633909E+01 -0.44571286558E+02 -0.68473929916E+03  0.70574999057E+03  0.16500000000E+03 0.  0.
   -5000001    1    1    2    0    0  0.18819633909E+01  0.44571286558E+02 -0.13654263132E+04  0.13760829038E+04  0.16500000000E+03 0.  0.
<mgrwt>
<rscale>  0 0.36173079E+03</rscale>
<asrwt>0</asrwt>
<pdfrwt beam="1">  1        2 0.31784583E+00 0.36173079E+03</pdfrwt>
<pdfrwt beam="2">  1       -2 0.24359464E-02 0.36173079E+03</pdfrwt>
<totfact> 0.39511466E+03</totfact>
</mgrwt>
</event>
<event>
 4    1  0.9064384E-005  0.4429704E+03  0.7818608E-02  0.1029839E+00
         -2   -1    0    0    0  501 -0.00000000000E+00  0.00000000000E+00  0.68587274572E+02  0.68587274619E+02  0.25500000000E-02 0. -1.
          2   -1    0    0  501    0  0.00000000000E+00 -0.00000000000E+00 -0.71523029319E+03  0.71523029320E+03  0.25500000000E-02 0.  1.
    5000001    1    1    2    0    0  0.11387474054E+03 -0.19709226351E+02 -0.48621534671E+03  0.52629485416E+03  0.16500000000E+03 0.  0.
   -5000001    1    1    2    0    0 -0.11387474054E+03  0.19709226351E+02 -0.16042767191E+03  0.25752271366E+03  0.16500000000E+03 0.  0.
<mgrwt>
<rscale>  0 0.44297041E+03</rscale>
<asrwt>0</asrwt>
<pdfrwt beam="1">  1        2 0.11003542E+00 0.44297041E+03</pdfrwt>
<pdfrwt beam="2">  1       -2 0.10551889E-01 0.44297041E+03</pdfrwt>
<totfact> 0.24988039E+03</totfact>
</mgrwt>
</event>
<event>
 4    1  0.9064384E-005  0.6904484E+03  0.7818608E-02  0.9733708E-01
         -2   -1    0    0    0  501 -0.00000000000E+00  0.00000000000E+00  0.12014813027E+03  0.12014813030E+03  0.25500000000E-02 0. -1.
          2   -1    0    0  501    0  0.00000000000E+00 -0.00000000000E+00 -0.99194000901E+03  0.99194000901E+03  0.25500000000E-02 0.  1.
    5000001    1    1    2    0    0  0.10720414507E+03 -0.24149803813E+03 -0.19623142440E+03  0.36816545610E+03  0.16500000000E+03 0.  0.
   -5000001    1    1    2    0    0 -0.10720414507E+03  0.24149803813E+03 -0.67556045433E+03  0.74392268321E+03  0.16500000000E+03 0.  0.
<mgrwt>
<rscale>  0 0.69044837E+03</rscale>
<asrwt>0</asrwt>
<pdfrwt beam="1">  1        2 0.15260615E+00 0.69044837E+03</pdfrwt>
<pdfrwt beam="2">  1       -2 0.18484328E-01 0.69044837E+03</pdfrwt>
<totfact> 0.62868975E+02</totfact>
</mgrwt>
</event>
<event>
 4    1  0.9064384E-005  0.4015671E+03  0.7818608E-02  0.1043238E+00
         -2   -1    0    0    0  501 -0.00000000000E+00  0.00000000000E+00  0.31363790317E+03  0.31363790318E+03  0.25500000000E-02 0. -1.
          2   -1    0    0  501    0  0.00000000000E+00 -0.00000000000E+00 -0.12853684008E+03  0.12853684011E+03  0.25500000000E-02 0.  1.
    5000001    1    1    2    0    0 -0.51663852923E+02 -0.97891071260E+02  0.60690006735E+02  0.20775007208E+03  0.16500000000E+03 0.  0.
   -5000001    1    1    2    0    0  0.51663852923E+02  0.97891071260E+02  0.12441105635E+03  0.23442467122E+03  0.16500000000E+03 0.  0.
<mgrwt>
<rscale>  0 0.40156706E+03</rscale>
<asrwt>0</asrwt>
<pdfrwt beam="1">  1        2 0.19774899E-01 0.40156706E+03</pdfrwt>
<pdfrwt beam="2">  1       -2 0.48251985E-01 0.40156706E+03</pdfrwt>
<totfact> 0.11688391E+03</totfact>
</mgrwt>
</event>
<event>
 4    1  0.9064384E-005  0.4561009E+03  0.7818608E-02  0.1025918E+00
          2   -1    0    0  501    0  0.00000000000E+00  0.00000000000E+00  0.16024069532E+04  0.16024069532E+04  0.25500000000E-02 0.  1.
         -2   -1    0    0    0  501 -0.00000000000E+00 -0.00000000000E+00 -0.32455555150E+02  0.32455555250E+02  0.25500000000E-02 0. -1.
    5000001    1    1    2    0    0 -0.19624075378E+02 -0.15617614484E+03  0.77625825101E+03  0.80905992659E+03  0.16500000000E+03 0.  0.
   -5000001    1    1    2    0    0  0.19624075378E+02  0.15617614484E+03  0.79369314707E+03  0.82580258189E+03  0.16500000000E+03 0.  0.
<mgrwt>
<rscale>  0 0.45610090E+03</rscale>
<asrwt>0</asrwt>
<pdfrwt beam="1">  1        2 0.24652414E+00 0.45610090E+03</pdfrwt>
<pdfrwt beam="2">  1       -2 0.49931625E-02 0.45610090E+03</pdfrwt>
<totfact> 0.23503872E+03</totfact>
</mgrwt>
</event>
<event>
 4    1  0.9064384E-005  0.6112065E+03  0.7818608E-02  0.9882425E-01
          2   -1    0    0  501    0  0.00000000000E+00  0.00000000000E+00  0.31323965839E+03  0.31323965840E+03  0.25500000000E-02 0.  1.
         -2   -1    0    0    0  501 -0.00000000000E+00 -0.00000000000E+00 -0.29815305483E+03  0.29815305485E+03  0.25500000000E-02 0. -1.
    5000001    1    1    2    0    0  0.13902122467E+03  0.15125645693E+03  0.16239014285E+03  0.30951732611E+03  0.16500000000E+03 0.  0.
   -5000001    1    1    2    0    0 -0.13902122467E+03 -0.15125645693E+03 -0.14730353929E+03  0.30187538714E+03  0.16500000000E+03 0.  0.
<mgrwt>
<rscale>  0 0.61120655E+03</rscale>
<asrwt>0</asrwt>
<pdfrwt beam="1">  1        2 0.48190716E-01 0.61120655E+03</pdfrwt>
<pdfrwt beam="2">  1       -2 0.45869701E-01 0.61120655E+03</pdfrwt>
<totfact> 0.47555983E+02</totfact>
</mgrwt>
</event>
<event>
 4    1  0.9064384E-005  0.8774680E+03  0.7818608E-02  0.9454194E-01
          2   -1    0    0  501    0  0.00000000000E+00  0.00000000000E+00  0.18816509812E+04  0.18816509812E+04  0.25500000000E-02 0.  1.
         -2   -1    0    0    0  501 -0.00000000000E+00 -0.00000000000E+00 -0.10229714486E+03  0.10229714489E+03  0.25500000000E-02 0. -1.
    5000001    1    1    2    0    0 -0.28521403349E+03 -0.11509506473E+03  0.14907292435E+04  0.15310429766E+04  0.16500000000E+03 0.  0.
   -5000001    1    1    2    0    0  0.28521403349E+03  0.11509506473E+03  0.28862459282E+03  0.45290514946E+03  0.16500000000E+03 0.  0.
<mgrwt>
<rscale>  0 0.87746800E+03</rscale>
<asrwt>0</asrwt>
<pdfrwt beam="1">  1        2 0.28948475E+00 0.87746800E+03</pdfrwt>
<pdfrwt beam="2">  1       -2 0.15738023E-01 0.87746800E+03</pdfrwt>
<totfact> 0.25384507E+02</totfact>
</mgrwt>
</event>
<event>
 4    1  0.9064384E-005  0.7233060E+03  0.7818608E-02  0.9678186E-01
          2   -1    0    0  501    0  0.00000000000E+00  0.00000000000E+00  0.74256783823E+03  0.74256783824E+03  0.25500000000E-02 0.  1.
         -2   -1    0    0    0  501 -0.00000000000E+00 -0.00000000000E+00 -0.17613593695E+03  0.17613593697E+03  0.25500000000E-02 0. -1.
    5000001    1    1    2    0    0 -0.55996390987E+02  0.21852470419E+03  0.57473920285E+03  0.63909216349E+03  0.16500000000E+03 0.  0.
   -5000001    1    1    2    0    0  0.55996390987E+02 -0.21852470419E+03 -0.83073015697E+01  0.27961161171E+03  0.16500000000E+03 0.  0.
<mgrwt>
<rscale>  0 0.72330597E+03</rscale>
<asrwt>0</asrwt>
<pdfrwt beam="1">  1        2 0.11424120E+00 0.72330597E+03</pdfrwt>
<pdfrwt beam="2">  1       -2 0.27097837E-01 0.72330597E+03</pdfrwt>
<totfact> 0.47283001E+02</totfact>
</mgrwt>
</event>
<event>
 4    1  0.9064384E-005  0.1141601E+04  0.7818608E-02  0.9165567E-01
          2   -1    0    0  501    0  0.00000000000E+00  0.00000000000E+00  0.36027040477E+04  0.36027040477E+04  0.25500000000E-02 0.  1.
         -2   -1    0    0    0  501 -0.00000000000E+00 -0.00000000000E+00 -0.90435729324E+02  0.90435729360E+02  0.25500000000E-02 0. -1.
    5000001    1    1    2    0    0  0.38903870852E+01  0.50132413882E+03  0.24593185136E+04  0.25153158009E+04  0.16500000000E+03 0.  0.
   -5000001    1    1    2    0    0 -0.38903870852E+01 -0.50132413882E+03  0.10529498048E+04  0.11778239761E+04  0.16500000000E+03 0.  0.
<mgrwt>
<rscale>  0 0.11416009E+04</rscale>
<asrwt>0</asrwt>
<pdfrwt beam="1">  1        2 0.55426226E+00 0.11416009E+04</pdfrwt>
<pdfrwt beam="2">  1       -2 0.13913187E-01 0.11416009E+04</pdfrwt>
<totfact> 0.28021969E+01</totfact>
</mgrwt>
</event>
<event>
 4    1  0.9064384E-005  0.5970737E+03  0.7818608E-02  0.9911496E-01
          2   -1    0    0  501    0  0.00000000000E+00  0.00000000000E+00  0.63939290898E+03  0.63939290899E+03  0.25500000000E-02 0.  1.
         -2   -1    0    0    0  501 -0.00000000000E+00 -0.00000000000E+00 -0.13938888098E+03  0.13938888100E+03  0.25500000000E-02 0. -1.
    5000001    1    1    2    0    0  0.20517548414E+03  0.12417444301E+03  0.16364987815E+03  0.33394992769E+03  0.16500000000E+03 0.  0.
   -5000001    1    1    2    0    0 -0.20517548414E+03 -0.12417444301E+03  0.33635414986E+03  0.44483186230E+03  0.16500000000E+03 0.  0.
<mgrwt>
<rscale>  0 0.59707374E+03</rscale>
<asrwt>0</asrwt>
<pdfrwt beam="1">  1        2 0.98368142E-01 0.59707374E+03</pdfrwt>
<pdfrwt beam="2">  1       -2 0.21444443E-01 0.59707374E+03</pdfrwt>
<totfact> 0.86981784E+02</totfact>
</mgrwt>
</event>
<event>
 4    1  0.9064384E-005  0.3507422E+03  0.7818608E-02  0.1062311E+00
          2   -1    0    0  501    0  0.00000000000E+00  0.00000000000E+00  0.10841745209E+04  0.10841745209E+04  0.25500000000E-02 0.  1.
         -2   -1    0    0    0  501 -0.00000000000E+00 -0.00000000000E+00 -0.28367220019E+02  0.28367220133E+02  0.25500000000E-02 0. -1.
    5000001    1    1    2    0    0  0.53861754298E+02  0.62281328507E+00  0.60742707178E+03  0.63173896825E+03  0.16500000000E+03 0.  0.
   -5000001    1    1    2    0    0 -0.53861754298E+02 -0.62281328507E+00  0.44838022912E+03  0.48080277280E+03  0.16500000000E+03 0.  0.
<mgrwt>
<rscale>  0 0.35074217E+03</rscale>
<asrwt>0</asrwt>
<pdfrwt beam="1">  1        2 0.16679606E+00 0.35074217E+03</pdfrwt>
<pdfrwt beam="2">  1       -2 0.43641883E-02 0.35074217E+03</pdfrwt>
<totfact> 0.56455163E+03</totfact>
</mgrwt>
</event>
<event>
 4    1  0.9064384E-005  0.4447013E+03  0.7818608E-02  0.1029314E+00
          2   -1    0    0  501    0  0.00000000000E+00  0.00000000000E+00  0.11303170215E+04  0.11303170215E+04  0.25500000000E-02 0.  1.
         -2   -1    0    0    0  501 -0.00000000000E+00 -0.00000000000E+00 -0.43739775100E+02  0.43739775174E+02  0.25500000000E-02 0. -1.
    5000001    1    1    2    0    0  0.10844467230E+03  0.54287991800E+02  0.77204061559E+03  0.79873596709E+03  0.16500000000E+03 0.  0.
   -5000001    1    1    2    0    0 -0.10844467230E+03 -0.54287991800E+02  0.31453663085E+03  0.37532082962E+03  0.16500000000E+03 0.  0.
<mgrwt>
<rscale>  0 0.44470130E+03</rscale>
<asrwt>0</asrwt>
<pdfrwt beam="1">  1        2 0.17389492E+00 0.44470130E+03</pdfrwt>
<pdfrwt beam="2">  1       -2 0.67291963E-02 0.44470130E+03</pdfrwt>
<totfact> 0.27215480E+03</totfact>
</mgrwt>
</event>
<event>
 4    1  0.9064384E-005  0.4263900E+03  0.7818608E-02  0.1035006E+00
         -2   -1    0    0    0  501 -0.00000000000E+00  0.00000000000E+00  0.40262578583E+02  0.40262578663E+02  0.25500000000E-02 0. -1.
          2   -1    0    0  501    0  0.00000000000E+00 -0.00000000000E+00 -0.11288922182E+04  0.11288922182E+04  0.25500000000E-02 0.  1.
    5000001    1    1    2    0    0  0.16029186971E+02 -0.13231467069E+03 -0.60331559612E+03  0.63951451542E+03  0.16500000000E+03 0.  0.
   -5000001    1    1    2    0    0 -0.16029186971E+02  0.13231467069E+03 -0.48531404354E+03  0.52964028149E+03  0.16500000000E+03 0.  0.
<mgrwt>
<rscale>  0 0.42639002E+03</rscale>
<asrwt>0</asrwt>
<pdfrwt beam="1">  1        2 0.17367570E+00 0.42639002E+03</pdfrwt>
<pdfrwt beam="2">  1       -2 0.61942437E-02 0.42639002E+03</pdfrwt>
<totfact> 0.31033243E+03</totfact>
</mgrwt>
</event>
<event>
 4    1  0.9064384E-005  0.7221697E+03  0.7818608E-02  0.9680053E-01
          2   -1    0    0  501    0  0.00000000000E+00  0.00000000000E+00  0.84089302920E+03  0.84089302920E+03  0.25500000000E-02 0.  1.
         -2   -1    0    0    0  501 -0.00000000000E+00 -0.00000000000E+00 -0.15505215251E+03  0.15505215253E+03  0.25500000000E-02 0. -1.
    5000001    1    1    2    0    0 -0.28442578061E+03 -0.51283950388E+02  0.14970246195E+03  0.36491628541E+03  0.16500000000E+03 0.  0.
   -5000001    1    1    2    0    0  0.28442578061E+03  0.51283950388E+02  0.53613841473E+03  0.63102889632E+03  0.16500000000E+03 0.  0.
<mgrwt>
<rscale>  0 0.72216971E+03</rscale>
<asrwt>0</asrwt>
<pdfrwt beam="1">  1        2 0.12936816E+00 0.72216971E+03</pdfrwt>
<pdfrwt beam="2">  1       -2 0.23854177E-01 0.72216971E+03</pdfrwt>
<totfact> 0.50541121E+02</totfact>
</mgrwt>
</event>
<event>
 4    1  0.9064384E-005  0.8819562E+03  0.7818608E-02  0.9448422E-01
          2   -1    0    0  501    0  0.00000000000E+00  0.00000000000E+00  0.30630689265E+04  0.30630689265E+04  0.25500000000E-02 0.  1.
         -2   -1    0    0    0  501 -0.00000000000E+00 -0.00000000000E+00 -0.63485901018E+02  0.63485901070E+02  0.25500000000E-02 0. -1.
    5000001    1    1    2    0    0 -0.40532719597E+03  0.45605222658E+02  0.13954257403E+04  0.14631500159E+04  0.16500000000E+03 0.  0.
   -5000001    1    1    2    0    0  0.40532719597E+03 -0.45605222658E+02  0.16041572852E+04  0.16634048117E+04  0.16500000000E+03 0.  0.
<mgrwt>
<rscale>  0 0.88195621E+03</rscale>
<asrwt>0</asrwt>
<pdfrwt beam="1">  1        2 0.47124145E+00 0.88195621E+03</pdfrwt>
<pdfrwt beam="2">  1       -2 0.97670600E-02 0.88195621E+03</pdfrwt>
<totfact> 0.11801046E+02</totfact>
</mgrwt>
</event>
<event>
 4    1  0.9064384E-005  0.6410472E+03  0.7818608E-02  0.9823725E-01
          2   -1    0    0  501    0  0.00000000000E+00  0.00000000000E+00  0.14990367335E+04  0.14990367335E+04  0.25500000000E-02 0.  1.
         -2   -1    0    0    0  501 -0.00000000000E+00 -0.00000000000E+00 -0.68534269441E+02  0.68534269489E+02  0.25500000000E-02 0. -1.
    5000001    1    1    2    0    0  0.25334123749E+03  0.97661438849E+02  0.61176881128E+03  0.68935159223E+03  0.16500000000E+03 0.  0.
   -5000001    1    1    2    0    0 -0.25334123749E+03 -0.97661438849E+02  0.81873365281E+03  0.87821941079E+03  0.16500000000E+03 0.  0.
<mgrwt>
<rscale>  0 0.64104723E+03</rscale>
<asrwt>0</asrwt>
<pdfrwt beam="1">  1        2 0.23062103E+00 0.64104723E+03</pdfrwt>
<pdfrwt beam="2">  1       -2 0.10543734E-01 0.64104723E+03</pdfrwt>
<totfact> 0.81411521E+02</totfact>
</mgrwt>
</event>
<event>
 4    1  0.9064384E-005  0.6152661E+03  0.7818608E-02  0.9874230E-01
         -2   -1    0    0    0  501 -0.00000000000E+00  0.00000000000E+00  0.54148313914E+03  0.54148313915E+03  0.25500000000E-02 0. -1.
          2   -1    0    0  501    0  0.00000000000E+00 -0.00000000000E+00 -0.17477570370E+03  0.17477570372E+03  0.25500000000E-02 0.  1.
    5000001    1    1    2    0    0  0.73997258813E+02  0.24132886903E+03  0.11256184987E+03  0.32188567440E+03  0.16500000000E+03 0.  0.
   -5000001    1    1    2    0    0 -0.73997258813E+02 -0.24132886903E+03  0.25414558558E+03  0.39437316847E+03  0.16500000000E+03 0.  0.
<mgrwt>
<rscale>  0 0.61526611E+03</rscale>
<asrwt>0</asrwt>
<pdfrwt beam="1">  1        2 0.26888570E-01 0.61526611E+03</pdfrwt>
<pdfrwt beam="2">  1       -2 0.83305097E-01 0.61526611E+03</pdfrwt>
<totfact> 0.25709561E+02</totfact>
</mgrwt>
</event>
<event>
 4    1  0.9064384E-005  0.6217971E+03  0.7818608E-02  0.9861188E-01
          2   -1    0    0  501    0  0.00000000000E+00  0.00000000000E+00  0.74332205417E+03  0.74332205418E+03  0.25500000000E-02 0.  1.
         -2   -1    0    0    0  501 -0.00000000000E+00 -0.00000000000E+00 -0.13003502008E+03  0.13003502010E+03  0.25500000000E-02 0. -1.
    5000001    1    1    2    0    0  0.13893194967E+03  0.12492778956E+03  0.45666153092E+02  0.25341554172E+03  0.16500000000E+03 0.  0.
   -5000001    1    1    2    0    0 -0.13893194967E+03 -0.12492778956E+03  0.56762088101E+03  0.61994153257E+03  0.16500000000E+03 0.  0.
<mgrwt>
<rscale>  0 0.62179707E+03</rscale>
<asrwt>0</asrwt>
<pdfrwt beam="1">  1        2 0.11435724E+00 0.62179707E+03</pdfrwt>
<pdfrwt beam="2">  1       -2 0.20005388E-01 0.62179707E+03</pdfrwt>
<totfact> 0.81354999E+02</totfact>
</mgrwt>
</event>
<event>
 4    1  0.9064384E-005  0.7632865E+03  0.7818608E-02  0.9614734E-01
          2   -1    0    0  501    0  0.00000000000E+00  0.00000000000E+00  0.14445008773E+03  0.14445008775E+03  0.25500000000E-02 0.  1.
         -2   -1    0    0    0  501 -0.00000000000E+00 -0.00000000000E+00 -0.10083175439E+04  0.10083175439E+04  0.25500000000E-02 0. -1.
    5000001    1    1    2    0    0 -0.96662238915E+01  0.30335479725E+03 -0.18696745831E+03  0.39280962229E+03  0.16500000000E+03 0.  0.
   -5000001    1    1    2    0    0  0.96662238915E+01 -0.30335479725E+03 -0.67689999790E+03  0.75995800941E+03  0.16500000000E+03 0.  0.
<mgrwt>
<rscale>  0 0.76328647E+03</rscale>
<asrwt>0</asrwt>
<pdfrwt beam="1">  1        2 0.22223091E-01 0.76328647E+03</pdfrwt>
<pdfrwt beam="2">  1       -2 0.15512577E+00 0.76328647E+03</pdfrwt>
<totfact> 0.69531781E+01</totfact>
</mgrwt>
</event>
<event>
 4    1  0.9064384E-005  0.6038213E+03  0.7818608E-02  0.9897510E-01
         -2   -1    0    0    0  501 -0.00000000000E+00  0.00000000000E+00  0.28804516982E+03  0.28804516983E+03  0.25500000000E-02 0.  1.
          2   -1    0    0  501    0  0.00000000000E+00 -0.00000000000E+00 -0.31644360377E+03  0.31644360378E+03  0.25500000000E-02 0. -1.
    5000001    1    1    2    0    0 -0.21570554470E+03 -0.67868125525E+02 -0.12741749255E+03  0.30756329736E+03  0.16500000000E+03 0.  0.
   -5000001    1    1    2    0    0  0.21570554470E+03  0.67868125525E+02  0.99019058607E+02  0.29692547625E+03  0.16500000000E+03 0.  0.
<mgrwt>
<rscale>  0 0.60382134E+03</rscale>
<asrwt>0</asrwt>
<pdfrwt beam="1">  1        2 0.48683631E-01 0.60382134E+03</pdfrwt>
<pdfrwt beam="2">  1       -2 0.44314642E-01 0.60382134E+03</pdfrwt>
<totfact> 0.50366739E+02</totfact>
</mgrwt>
</event>
<event>
 4    1  0.9064384E-005  0.3444428E+03  0.7818608E-02  0.1064919E+00
         -2   -1    0    0    0  501 -0.00000000000E+00  0.00000000000E+00  0.83225191322E+02  0.83225191361E+02  0.25500000000E-02 0. -1.
          2   -1    0    0  501    0  0.00000000000E+00 -0.00000000000E+00 -0.35638501823E+03  0.35638501824E+03  0.25500000000E-02 0.  1.
    5000001    1    1    2    0    0  0.23700872827E+02 -0.37555990535E+02 -0.10911652848E+03  0.20274022932E+03  0.16500000000E+03 0.  0.
   -5000001    1    1    2    0    0 -0.23700872827E+02  0.37555990535E+02 -0.16404329842E+03  0.23686998027E+03  0.16500000000E+03 0.  0.
<mgrwt>
<rscale>  0 0.34444280E+03</rscale>
<asrwt>0</asrwt>
<pdfrwt beam="1">  1        2 0.54828463E-01 0.34444280E+03</pdfrwt>
<pdfrwt beam="2">  1       -2 0.12803876E-01 0.34444280E+03</pdfrwt>
<totfact> 0.40414747E+03</totfact>
</mgrwt>
</event>
