<event>
 4    1  0.2679255E-004  0.4948479E+03  0.7818608E-02  0.1015133E+00
         -2   -1    0    0    0  501 -0.00000000000E+00  0.00000000000E+00  0.71536950946E+03  0.71536950946E+03  0.25500000000E-02 0.  1.
          2   -1    0    0  501    0  0.00000000000E+00 -0.00000000000E+00 -0.85576195332E+02  0.85576195370E+02  0.25500000000E-02 0. -1.
    5000001    1    1    2    0    0 -0.97097811594E+02 -0.17863477857E+03  0.21576363870E+03  0.32252335872E+03  0.12700000000E+03 0.  0.
   -5000001    1    1    2    0    0  0.97097811594E+02  0.17863477857E+03  0.41402967542E+03  0.47842234611E+03  0.12700000000E+03 0.  0.
<mgrwt>
<rscale>  0 0.49484786E+03</rscale>
<asrwt>0</asrwt>
<pdfrwt beam="1">  1        2 0.12225171E-01 0.49484786E+03</pdfrwt>
<pdfrwt beam="2">  1       -2 0.10219564E+00 0.49484786E+03</pdfrwt>
<totfact> 0.40893575E+02</totfact>
</mgrwt>
</event>
<event>
 4    1  0.2679255E-004  0.3937813E+03  0.7818608E-02  0.1045955E+00
          2   -1    0    0  501    0  0.00000000000E+00  0.00000000000E+00  0.99436754375E+03  0.99436754375E+03  0.25500000000E-02 0.  1.
         -2   -1    0    0    0  501 -0.00000000000E+00 -0.00000000000E+00 -0.38985518757E+02  0.38985518841E+02  0.25500000000E-02 0. -1.
    5000001    1    1    2    0    0  0.62555668442E+02 -0.78851051255E+02  0.77115640413E+03  0.78799866724E+03  0.12700000000E+03 0.  0.
   -5000001    1    1    2    0    0 -0.62555668442E+02  0.78851051255E+02  0.18422562086E+03  0.24535439536E+03  0.12700000000E+03 0.  0.
<mgrwt>
<rscale>  0 0.39378133E+03</rscale>
<asrwt>0</asrwt>
<pdfrwt beam="1">  1        2 0.14205249E+00 0.39378133E+03</pdfrwt>
<pdfrwt beam="2">  1       -2 0.55693606E-02 0.39378133E+03</pdfrwt>
<totfact> 0.49002939E+03</totfact>
</mgrwt>
</event>
<event>
 4    1  0.2679255E-004  0.4149762E+03  0.7818608E-02  0.1038714E+00
          2   -1    0    0  501    0  0.00000000000E+00  0.00000000000E+00  0.89152636816E+03  0.89152636816E+03  0.25500000000E-02 0.  1.
         -2   -1    0    0    0  501 -0.00000000000E+00 -0.00000000000E+00 -0.48289444310E+02  0.48289444377E+02  0.25500000000E-02 0. -1.
    5000001    1    1    2    0    0 -0.10362464947E+03  0.10259817027E+03  0.25126707790E+03  0.31706244962E+03  0.12700000000E+03 0.  0.
   -5000001    1    1    2    0    0  0.10362464947E+03 -0.10259817027E+03  0.59196984595E+03  0.62275336293E+03  0.12700000000E+03 0.  0.
<mgrwt>
<rscale>  0 0.41497621E+03</rscale>
<asrwt>0</asrwt>
<pdfrwt beam="1">  1        2 0.12736089E+00 0.41497621E+03</pdfrwt>
<pdfrwt beam="2">  1       -2 0.68984931E-02 0.41497621E+03</pdfrwt>
<totfact> 0.40722360E+03</totfact>
</mgrwt>
</event>
<event>
 4    1  0.2679255E-004  0.5532276E+03  0.7818608E-02  0.1000750E+00
          2   -1    0    0  501    0  0.00000000000E+00  0.00000000000E+00  0.25156106301E+03  0.25156106302E+03  0.25500000000E-02 0.  1.
         -2   -1    0    0    0  501 -0.00000000000E+00 -0.00000000000E+00 -0.30416153615E+03  0.30416153616E+03  0.25500000000E-02 0. -1.
    5000001    1    1    2    0    0  0.20220622092E+03 -0.23949119184E+02 -0.16448984938E+03  0.29094127695E+03  0.12700000000E+03 0.  0.
   -5000001    1    1    2    0    0 -0.20220622092E+03  0.23949119184E+02  0.11188937623E+03  0.26478132223E+03  0.12700000000E+03 0.  0.
<mgrwt>
<rscale>  0 0.55322762E+03</rscale>
<asrwt>0</asrwt>
<pdfrwt beam="1">  1        2 0.35937295E-01 0.55322762E+03</pdfrwt>
<pdfrwt beam="2">  1       -2 0.43451648E-01 0.55322762E+03</pdfrwt>
<totfact> 0.73299473E+02</totfact>
</mgrwt>
</event>
<event>
 4    1  0.2679255E-004  0.3151043E+03  0.7818608E-02  0.1077925E+00
          2   -1    0    0  501    0  0.00000000000E+00  0.00000000000E+00  0.16549889572E+04  0.16549889572E+04  0.25500000000E-02 0.  1.
         -2   -1    0    0    0  501 -0.00000000000E+00 -0.00000000000E+00 -0.14998696013E+02  0.14998696229E+02  0.25500000000E-02 0. -1.
    5000001    1    1    2    0    0 -0.45923569154E+02 -0.56403715965E+02  0.51081573015E+03  0.53136810551E+03  0.12700000000E+03 0.  0.
   -5000001    1    1    2    0    0  0.45923569154E+02  0.56403715965E+02  0.11291745310E+04  0.11386195479E+04  0.12700000000E+03 0.  0.
<mgrwt>
<rscale>  0 0.31510428E+03</rscale>
<asrwt>0</asrwt>
<pdfrwt beam="1">  1        2 0.23642702E+00 0.31510428E+03</pdfrwt>
<pdfrwt beam="2">  1       -2 0.21426706E-02 0.31510428E+03</pdfrwt>
<totfact> 0.91337340E+03</totfact>
</mgrwt>
</event>
<event>
 4    1  0.2679255E-004  0.3606334E+03  0.7818608E-02  0.1058333E+00
          2   -1    0    0  501    0  0.00000000000E+00  0.00000000000E+00  0.76328412272E+03  0.76328412272E+03  0.25500000000E-02 0.  1.
         -2   -1    0    0    0  501 -0.00000000000E+00 -0.00000000000E+00 -0.42597646739E+02  0.42597646815E+02  0.25500000000E-02 0. -1.
    5000001    1    1    2    0    0  0.10139116748E+03  0.26697329068E+02  0.19625099167E+03  0.25619595616E+03  0.12700000000E+03 0.  0.
   -5000001    1    1    2    0    0 -0.10139116748E+03 -0.26697329068E+02  0.52443548431E+03  0.54968581337E+03  0.12700000000E+03 0.  0.
<mgrwt>
<rscale>  0 0.36063337E+03</rscale>
<asrwt>0</asrwt>
<pdfrwt beam="1">  1        2 0.10904058E+00 0.36063337E+03</pdfrwt>
<pdfrwt beam="2">  1       -2 0.60853784E-02 0.36063337E+03</pdfrwt>
<totfact> 0.60152810E+03</totfact>
</mgrwt>
</event>
<event>
 4    1  0.2679255E-004  0.2868984E+03  0.7818608E-02  0.1091980E+00
         -2   -1    0    0    0  501 -0.00000000000E+00  0.00000000000E+00  0.92384537942E+02  0.92384537977E+02  0.25500000000E-02 0. -1.
          2   -1    0    0  501    0  0.00000000000E+00 -0.00000000000E+00 -0.22273943311E+03  0.22273943312E+03  0.25500000000E-02 0.  1.
    5000001    1    1    2    0    0 -0.19022139035E+02 -0.63768809150E+02 -0.60219276825E+02  0.15551097741E+03  0.12700000000E+03 0.  0.
   -5000001    1    1    2    0    0  0.19022139035E+02  0.63768809150E+02 -0.70135618340E+02  0.15961299369E+03  0.12700000000E+03 0.  0.
<mgrwt>
<rscale>  0 0.28689845E+03</rscale>
<asrwt>0</asrwt>
<pdfrwt beam="1">  1        2 0.31819919E-01 0.28689845E+03</pdfrwt>
<pdfrwt beam="2">  1       -2 0.13197791E-01 0.28689845E+03</pdfrwt>
<totfact> 0.69112291E+03</totfact>
</mgrwt>
</event>
<event>
 4    1  0.2679255E-004  0.3116958E+03  0.7818608E-02  0.1079536E+00
         -2   -1    0    0    0  501 -0.00000000000E+00  0.00000000000E+00  0.57706155637E+03  0.57706155638E+03  0.25500000000E-02 0. -1.
          2   -1    0    0  501    0  0.00000000000E+00 -0.00000000000E+00 -0.42090092020E+02  0.42090092097E+02  0.25500000000E-02 0.  1.
    5000001    1    1    2    0    0 -0.70467289127E+02  0.50430177819E+02  0.21681382720E+03  0.26579329814E+03  0.12700000000E+03 0.  0.
   -5000001    1    1    2    0    0  0.70467289127E+02 -0.50430177819E+02  0.31815763715E+03  0.35335835033E+03  0.12700000000E+03 0.  0.
<mgrwt>
<rscale>  0 0.31169584E+03</rscale>
<asrwt>0</asrwt>
<pdfrwt beam="1">  1        2 0.60128708E-02 0.31169584E+03</pdfrwt>
<pdfrwt beam="2">  1       -2 0.82437358E-01 0.31169584E+03</pdfrwt>
<totfact> 0.16466058E+03</totfact>
</mgrwt>
</event>
<event>
 4    1  0.2679255E-004  0.3637109E+03  0.7818608E-02  0.1057124E+00
          2   -1    0    0  501    0  0.00000000000E+00  0.00000000000E+00  0.15048641426E+03  0.15048641428E+03  0.25500000000E-02 0.  1.
         -2   -1    0    0    0  501 -0.00000000000E+00 -0.00000000000E+00 -0.21976337414E+03  0.21976337416E+03  0.25500000000E-02 0. -1.
    5000001    1    1    2    0    0  0.93204403630E+02  0.90671521816E+02 -0.28701262350E+02  0.18401398910E+03  0.12700000000E+03 0.  0.
   -5000001    1    1    2    0    0 -0.93204403630E+02 -0.90671521816E+02 -0.40575697537E+02  0.18623579934E+03  0.12700000000E+03 0.  0.
<mgrwt>
<rscale>  0 0.36371089E+03</rscale>
<asrwt>0</asrwt>
<pdfrwt beam="1">  1        2 0.21498059E-01 0.36371089E+03</pdfrwt>
<pdfrwt beam="2">  1       -2 0.31394767E-01 0.36371089E+03</pdfrwt>
<totfact> 0.24170191E+03</totfact>
</mgrwt>
</event>
<event>
 4    1  0.2679255E-004  0.2670158E+03  0.7818608E-02  0.1103000E+00
          2   -1    0    0  501    0  0.00000000000E+00  0.00000000000E+00  0.44013145252E+03  0.44013145252E+03  0.25500000000E-02 0.  1.
         -2   -1    0    0    0  501 -0.00000000000E+00 -0.00000000000E+00 -0.40497797409E+02  0.40497797489E+02  0.25500000000E-02 0. -1.
    5000001    1    1    2    0    0  0.90894631952E+01  0.33111130976E+02  0.24072045492E+03  0.27432517703E+03  0.12700000000E+03 0.  0.
   -5000001    1    1    2    0    0 -0.90894631952E+01 -0.33111130976E+02  0.15891320019E+03  0.20630407298E+03  0.12700000000E+03 0.  0.
<mgrwt>
<rscale>  0 0.26701576E+03</rscale>
<asrwt>0</asrwt>
<pdfrwt beam="1">  1        2 0.62875918E-01 0.26701576E+03</pdfrwt>
<pdfrwt beam="2">  1       -2 0.57854000E-02 0.26701576E+03</pdfrwt>
<totfact> 0.12098054E+04</totfact>
</mgrwt>
</event>
<event>
 4    1  0.2679255E-004  0.2913173E+03  0.7818608E-02  0.1089663E+00
          2   -1    0    0  501    0  0.00000000000E+00  0.00000000000E+00  0.42496208212E+03  0.42496208213E+03  0.25500000000E-02 0.  1.
         -2   -1    0    0    0  501 -0.00000000000E+00 -0.00000000000E+00 -0.49925507066E+02  0.49925507132E+02  0.25500000000E-02 0. -1.
    5000001    1    1    2    0    0  0.49929647394E+02  0.29613421217E+02  0.25507613098E+03  0.29079676236E+03  0.12700000000E+03 0.  0.
   -5000001    1    1    2    0    0 -0.49929647394E+02 -0.29613421217E+02  0.11996044408E+03  0.18409082690E+03  0.12700000000E+03 0.  0.
<mgrwt>
<rscale>  0 0.29131734E+03</rscale>
<asrwt>0</asrwt>
<pdfrwt beam="1">  1        2 0.60708868E-01 0.29131734E+03</pdfrwt>
<pdfrwt beam="2">  1       -2 0.71322154E-02 0.29131734E+03</pdfrwt>
<totfact> 0.91369688E+03</totfact>
</mgrwt>
</event>
<event>
 4    1  0.2679255E-004  0.3482860E+03  0.7818608E-02  0.1063321E+00
          2   -1    0    0  501    0  0.00000000000E+00  0.00000000000E+00  0.98778615529E+03  0.98778615529E+03  0.25500000000E-02 0.  1.
         -2   -1    0    0    0  501 -0.00000000000E+00 -0.00000000000E+00 -0.30700760360E+02  0.30700760466E+02  0.25500000000E-02 0. -1.
    5000001    1    1    2    0    0 -0.77836225404E+02 -0.90185140718E+02  0.47203756133E+03  0.50313049688E+03  0.12700000000E+03 0.  0.
   -5000001    1    1    2    0    0  0.77836225404E+02  0.90185140718E+02  0.48504783360E+03  0.51535641887E+03  0.12700000000E+03 0.  0.
<mgrwt>
<rscale>  0 0.34828601E+03</rscale>
<asrwt>0</asrwt>
<pdfrwt beam="1">  1        2 0.14111232E+00 0.34828601E+03</pdfrwt>
<pdfrwt beam="2">  1       -2 0.43858225E-02 0.34828601E+03</pdfrwt>
<totfact> 0.71145630E+03</totfact>
</mgrwt>
</event>
<event>
 4    1  0.2679255E-004  0.3072336E+03  0.7818608E-02  0.1081680E+00
          2   -1    0    0  501    0  0.00000000000E+00  0.00000000000E+00  0.22196403897E+03  0.22196403899E+03  0.25500000000E-02 0.  1.
         -2   -1    0    0    0  501 -0.00000000000E+00 -0.00000000000E+00 -0.10631503934E+03  0.10631503937E+03  0.25500000000E-02 0. -1.
    5000001    1    1    2    0    0  0.66083523334E+02 -0.41603129408E+02  0.97391665782E+02  0.17807860342E+03  0.12700000000E+03 0.  0.
   -5000001    1    1    2    0    0 -0.66083523334E+02  0.41603129408E+02  0.18257333847E+02  0.15020047494E+03  0.12700000000E+03 0.  0.
<mgrwt>
<rscale>  0 0.30723356E+03</rscale>
<asrwt>0</asrwt>
<pdfrwt beam="1">  1        2 0.31709148E-01 0.30723356E+03</pdfrwt>
<pdfrwt beam="2">  1       -2 0.15187863E-01 0.30723356E+03</pdfrwt>
<totfact> 0.55192994E+03</totfact>
</mgrwt>
</event>
<event>
 4    1  0.2679255E-004  0.5354615E+03  0.7818608E-02  0.1004916E+00
          2   -1    0    0  501    0  0.00000000000E+00  0.00000000000E+00  0.63237501700E+03  0.63237501701E+03  0.25500000000E-02 0.  1.
         -2   -1    0    0    0  501 -0.00000000000E+00 -0.00000000000E+00 -0.11335005494E+03  0.11335005497E+03  0.25500000000E-02 0. -1.
    5000001    1    1    2    0    0 -0.59629671481E+01 -0.18020241834E+03  0.48108480550E+02  0.22572526322E+03  0.12700000000E+03 0.  0.
   -5000001    1    1    2    0    0  0.59629671481E+01  0.18020241834E+03  0.47091648151E+03  0.51999980876E+03  0.12700000000E+03 0.  0.
<mgrwt>
<rscale>  0 0.53546146E+03</rscale>
<asrwt>0</asrwt>
<pdfrwt beam="1">  1        2 0.90339290E-01 0.53546146E+03</pdfrwt>
<pdfrwt beam="2">  1       -2 0.16192865E-01 0.53546146E+03</pdfrwt>
<totfact> 0.15655244E+03</totfact>
</mgrwt>
</event>
<event>
 4    1  0.2679255E-004  0.3289374E+03  0.7818608E-02  0.1071608E+00
         -2   -1    0    0    0  501 -0.00000000000E+00  0.00000000000E+00  0.13524250012E+02  0.13524250252E+02  0.25500000000E-02 0.  1.
          2   -1    0    0  501    0  0.00000000000E+00 -0.00000000000E+00 -0.20001069353E+04  0.20001069353E+04  0.25500000000E-02 0. -1.
    5000001    1    1    2    0    0  0.59801312377E+02  0.80318962087E+02 -0.81029530996E+03  0.82627769059E+03  0.12700000000E+03 0.  0.
   -5000001    1    1    2    0    0 -0.59801312377E+02 -0.80318962087E+02 -0.11762873754E+04  0.11873534950E+04  0.12700000000E+03 0.  0.
<mgrwt>
<rscale>  0 0.32893736E+03</rscale>
<asrwt>0</asrwt>
<pdfrwt beam="1">  1        2 0.28572937E+00 0.32893736E+03</pdfrwt>
<pdfrwt beam="2">  1       -2 0.19320370E-02 0.32893736E+03</pdfrwt>
<totfact> 0.71970523E+03</totfact>
</mgrwt>
</event>
<event>
 4    1  0.2679255E-004  0.3653860E+03  0.7818608E-02  0.1056471E+00
         -2   -1    0    0    0  501 -0.00000000000E+00  0.00000000000E+00  0.41523001138E+02  0.41523001217E+02  0.25500000000E-02 0. -1.
          2   -1    0    0  501    0  0.00000000000E+00 -0.00000000000E+00 -0.80381293025E+03  0.80381293025E+03  0.25500000000E-02 0.  1.
    5000001    1    1    2    0    0  0.99784543392E+01 -0.59922447721E+02 -0.11176420512E+03  0.17975123599E+03  0.12700000000E+03 0.  0.
   -5000001    1    1    2    0    0 -0.99784543392E+01  0.59922447721E+02 -0.65052572398E+03  0.66558469548E+03  0.12700000000E+03 0.  0.
<mgrwt>
<rscale>  0 0.36538596E+03</rscale>
<asrwt>0</asrwt>
<pdfrwt beam="1">  1        2 0.11483041E+00 0.36538596E+03</pdfrwt>
<pdfrwt beam="2">  1       -2 0.59318578E-02 0.36538596E+03</pdfrwt>
<totfact> 0.58693392E+03</totfact>
</mgrwt>
</event>
<event>
 4    1  0.2679255E-004  0.2819311E+03  0.7818608E-02  0.1094639E+00
          2   -1    0    0  501    0  0.00000000000E+00  0.00000000000E+00  0.10031528839E+04  0.10031528839E+04  0.25500000000E-02 0.  1.
         -2   -1    0    0    0  501 -0.00000000000E+00 -0.00000000000E+00 -0.19808831492E+02  0.19808831656E+02  0.25500000000E-02 0. -1.
    5000001    1    1    2    0    0  0.15426922850E+02 -0.40479661792E+02  0.33494765077E+03  0.36082616552E+03  0.12700000000E+03 0.  0.
   -5000001    1    1    2    0    0 -0.15426922850E+02  0.40479661792E+02  0.64839640159E+03  0.66213554999E+03  0.12700000000E+03 0.  0.
<mgrwt>
<rscale>  0 0.28193110E+03</rscale>
<asrwt>0</asrwt>
<pdfrwt beam="1">  1        2 0.14330760E+00 0.28193110E+03</pdfrwt>
<pdfrwt beam="2">  1       -2 0.28298323E-02 0.28193110E+03</pdfrwt>
<totfact> 0.13376407E+04</totfact>
</mgrwt>
</event>
<event>
 4    1  0.2679255E-004  0.3608463E+03  0.7818608E-02  0.1058249E+00
          2   -1    0    0  501    0  0.00000000000E+00  0.00000000000E+00  0.86951152277E+03  0.86951152277E+03  0.25500000000E-02 0.  1.
         -2   -1    0    0    0  501 -0.00000000000E+00 -0.00000000000E+00 -0.37437691552E+02  0.37437691639E+02  0.25500000000E-02 0. -1.
    5000001    1    1    2    0    0  0.68961162995E+02 -0.53900541636E+02  0.18076119499E+03  0.23762264203E+03  0.12700000000E+03 0.  0.
   -5000001    1    1    2    0    0 -0.68961162995E+02  0.53900541636E+02  0.65131263622E+03  0.66932657238E+03  0.12700000000E+03 0.  0.
<mgrwt>
<rscale>  0 0.36084625E+03</rscale>
<asrwt>0</asrwt>
<pdfrwt beam="1">  1        2 0.12421594E+00 0.36084625E+03</pdfrwt>
<pdfrwt beam="2">  1       -2 0.53482414E-02 0.36084625E+03</pdfrwt>
<totfact> 0.62275918E+03</totfact>
</mgrwt>
</event>
<event>
 4    1  0.2679255E-004  0.3690457E+03  0.7818608E-02  0.1055058E+00
          2   -1    0    0  501    0  0.00000000000E+00  0.00000000000E+00  0.10744150349E+04  0.10744150349E+04  0.25500000000E-02 0.  1.
         -2   -1    0    0    0  501 -0.00000000000E+00 -0.00000000000E+00 -0.31690444453E+02  0.31690444555E+02  0.25500000000E-02 0. -1.
    5000001    1    1    2    0    0  0.23412174193E+02 -0.12870135222E+03  0.43619094230E+03  0.47276178580E+03  0.12700000000E+03 0.  0.
   -5000001    1    1    2    0    0 -0.23412174193E+02  0.12870135222E+03  0.60653364811E+03  0.63334369363E+03  0.12700000000E+03 0.  0.
<mgrwt>
<rscale>  0 0.36904574E+03</rscale>
<asrwt>0</asrwt>
<pdfrwt beam="1">  1        2 0.15348785E+00 0.36904574E+03</pdfrwt>
<pdfrwt beam="2">  1       -2 0.45272068E-02 0.36904574E+03</pdfrwt>
<totfact> 0.60352839E+03</totfact>
</mgrwt>
</event>
<event>
 4    1  0.2679255E-004  0.3871388E+03  0.7818608E-02  0.1048326E+00
         -2   -1    0    0    0  501 -0.00000000000E+00  0.00000000000E+00  0.31665964998E+02  0.31665965100E+02  0.25500000000E-02 0. -1.
          2   -1    0    0  501    0  0.00000000000E+00 -0.00000000000E+00 -0.11832612845E+04  0.11832612845E+04  0.25500000000E-02 0.  1.
    5000001    1    1    2    0    0 -0.72666050294E+02  0.12327659298E+03 -0.66796937885E+03  0.69483060117E+03  0.12700000000E+03 0.  0.
   -5000001    1    1    2    0    0  0.72666050294E+02 -0.12327659298E+03 -0.48362594067E+03  0.52009664845E+03  0.12700000000E+03 0.  0.
<mgrwt>
<rscale>  0 0.38713879E+03</rscale>
<asrwt>0</asrwt>
<pdfrwt beam="1">  1        2 0.16903730E+00 0.38713879E+03</pdfrwt>
<pdfrwt beam="2">  1       -2 0.45237100E-02 0.38713879E+03</pdfrwt>
<totfact> 0.52483811E+03</totfact>
</mgrwt>
</event>
<event>
 4    1  0.2679255E-004  0.3245118E+03  0.7818608E-02  0.1073591E+00
         -2   -1    0    0    0  501 -0.00000000000E+00  0.00000000000E+00  0.32166067140E+02  0.32166067241E+02  0.25500000000E-02 0. -1.
          2   -1    0    0  501    0  0.00000000000E+00 -0.00000000000E+00 -0.81847038351E+03  0.81847038351E+03  0.25500000000E-02 0.  1.
    5000001    1    1    2    0    0  0.88334519282E+02 -0.47972524965E+02 -0.41851538943E+03  0.44876328018E+03  0.12700000000E+03 0.  0.
   -5000001    1    1    2    0    0 -0.88334519282E+02  0.47972524965E+02 -0.36778892694E+03  0.40187317058E+03  0.12700000000E+03 0.  0.
<mgrwt>
<rscale>  0 0.32451178E+03</rscale>
<asrwt>0</asrwt>
<pdfrwt beam="1">  1        2 0.11692433E+00 0.32451178E+03</pdfrwt>
<pdfrwt beam="2">  1       -2 0.45951530E-02 0.32451178E+03</pdfrwt>
<totfact> 0.84606569E+03</totfact>
</mgrwt>
</event>
<event>
 4    1  0.2679255E-004  0.3798675E+03  0.7818608E-02  0.1050983E+00
          2   -1    0    0  501    0  0.00000000000E+00  0.00000000000E+00  0.21397337898E+04  0.21397337898E+04  0.25500000000E-02 0.  1.
         -2   -1    0    0    0  501 -0.00000000000E+00 -0.00000000000E+00 -0.16859496797E+02  0.16859496990E+02  0.25500000000E-02 0. -1.
    5000001    1    1    2    0    0  0.76026886981E+02 -0.16888056823E+02  0.39257090841E+03  0.41988833294E+03  0.12700000000E+03 0.  0.
   -5000001    1    1    2    0    0 -0.76026886981E+02  0.16888056823E+02  0.17303033846E+04  0.17367049539E+04  0.12700000000E+03 0.  0.
<mgrwt>
<rscale>  0 0.37986753E+03</rscale>
<asrwt>0</asrwt>
<pdfrwt beam="1">  1        2 0.30567632E+00 0.37986753E+03</pdfrwt>
<pdfrwt beam="2">  1       -2 0.24084991E-02 0.37986753E+03</pdfrwt>
<totfact> 0.44273371E+03</totfact>
</mgrwt>
</event>
<event>
 4    1  0.2679255E-004  0.4637872E+03  0.7818608E-02  0.1023689E+00
         -2   -1    0    0    0  501 -0.00000000000E+00  0.00000000000E+00  0.29731416886E+03  0.29731416887E+03  0.25500000000E-02 0. -1.
          2   -1    0    0  501    0  0.00000000000E+00 -0.00000000000E+00 -0.18086811420E+03  0.18086811422E+03  0.25500000000E-02 0.  1.
    5000001    1    1    2    0    0  0.60433542624E+01  0.19102914607E+03  0.92681858246E+02  0.24748249156E+03  0.12700000000E+03 0.  0.
   -5000001    1    1    2    0    0 -0.60433542624E+01 -0.19102914607E+03  0.23764196413E+02  0.23069979153E+03  0.12700000000E+03 0.  0.
<mgrwt>
<rscale>  0 0.46378725E+03</rscale>
<asrwt>0</asrwt>
<pdfrwt beam="1">  1        2 0.25838302E-01 0.46378725E+03</pdfrwt>
<pdfrwt beam="2">  1       -2 0.42473453E-01 0.46378725E+03</pdfrwt>
<totfact> 0.11085260E+03</totfact>
</mgrwt>
</event>
<event>
 4    1  0.2679255E-004  0.2811572E+03  0.7818608E-02  0.1095059E+00
         -2   -1    0    0    0  501 -0.00000000000E+00  0.00000000000E+00  0.32183913867E+02  0.32183913968E+02  0.25500000000E-02 0. -1.
          2   -1    0    0  501    0  0.00000000000E+00 -0.00000000000E+00 -0.61404406120E+03  0.61404406121E+03  0.25500000000E-02 0.  1.
    5000001    1    1    2    0    0 -0.56304134995E+02 -0.10299337275E+02 -0.33436480195E+03  0.36222238024E+03  0.12700000000E+03 0.  0.
   -5000001    1    1    2    0    0  0.56304134995E+02  0.10299337275E+02 -0.24749534538E+03  0.28400559493E+03  0.12700000000E+03 0.  0.
<mgrwt>
<rscale>  0 0.28115719E+03</rscale>
<asrwt>0</asrwt>
<pdfrwt beam="1">  1        2 0.87720573E-01 0.28115719E+03</pdfrwt>
<pdfrwt beam="2">  1       -2 0.45977024E-02 0.28115719E+03</pdfrwt>
<totfact> 0.11869317E+04</totfact>
</mgrwt>
</event>
<event>
 4    1  0.2679255E-004  0.5392608E+03  0.7818608E-02  0.1004011E+00
          2   -1    0    0  501    0  0.00000000000E+00  0.00000000000E+00  0.21670239246E+03  0.21670239247E+03  0.25500000000E-02 0.  1.
         -2   -1    0    0    0  501 -0.00000000000E+00 -0.00000000000E+00 -0.33548573046E+03  0.33548573047E+03  0.25500000000E-02 0. -1.
    5000001    1    1    2    0    0  0.12047049729E+03  0.20187736937E+03 -0.96367524494E+02  0.28404808177E+03  0.12700000000E+03 0.  0.
   -5000001    1    1    2    0    0 -0.12047049729E+03 -0.20187736937E+03 -0.22415813514E+02  0.26814004117E+03  0.12700000000E+03 0.  0.
<mgrwt>
<rscale>  0 0.53926083E+03</rscale>
<asrwt>0</asrwt>
<pdfrwt beam="1">  1        2 0.30957485E-01 0.53926083E+03</pdfrwt>
<pdfrwt beam="2">  1       -2 0.47926533E-01 0.53926083E+03</pdfrwt>
<totfact> 0.71232809E+02</totfact>
</mgrwt>
</event>
<event>
 4    1  0.2679255E-004  0.3731760E+03  0.7818608E-02  0.1053485E+00
         -2   -1    0    0    0  501 -0.00000000000E+00  0.00000000000E+00  0.34588307212E+02  0.34588307306E+02  0.25500000000E-02 0. -1.
          2   -1    0    0  501    0  0.00000000000E+00 -0.00000000000E+00 -0.10065564938E+04  0.10065564938E+04  0.25500000000E-02 0.  1.
    5000001    1    1    2    0    0  0.60296094185E+02  0.34266881017E+02 -0.15733425637E+03  0.21375899124E+03  0.12700000000E+03 0.  0.
   -5000001    1    1    2    0    0 -0.60296094185E+02 -0.34266881017E+02 -0.81463393019E+03  0.82738580984E+03  0.12700000000E+03 0.  0.
<mgrwt>
<rscale>  0 0.37317602E+03</rscale>
<asrwt>0</asrwt>
<pdfrwt beam="1">  1        2 0.14379377E+00 0.37317602E+03</pdfrwt>
<pdfrwt beam="2">  1       -2 0.49411874E-02 0.37317602E+03</pdfrwt>
<totfact> 0.57872218E+03</totfact>
</mgrwt>
</event>
<event>
 4    1  0.2679255E-004  0.4296611E+03  0.7818608E-02  0.1033967E+00
         -2   -1    0    0    0  501 -0.00000000000E+00  0.00000000000E+00  0.19804735406E+02  0.19804735570E+02  0.25500000000E-02 0. -1.
          2   -1    0    0  501    0  0.00000000000E+00 -0.00000000000E+00 -0.23303595653E+04  0.23303595653E+04  0.25500000000E-02 0.  1.
    5000001    1    1    2    0    0 -0.29486521244E+02 -0.11168730363E+03 -0.18617017532E+04  0.18696004724E+04  0.12700000000E+03 0.  0.
   -5000001    1    1    2    0    0  0.29486521244E+02  0.11168730363E+03 -0.44885307668E+03  0.48056382841E+03  0.12700000000E+03 0.  0.
<mgrwt>
<rscale>  0 0.42966105E+03</rscale>
<asrwt>0</asrwt>
<pdfrwt beam="1">  1        2 0.33290834E+00 0.42966105E+03</pdfrwt>
<pdfrwt beam="2">  1       -2 0.28292494E-02 0.42966105E+03</pdfrwt>
<totfact> 0.27912051E+03</totfact>
</mgrwt>
</event>
<event>
 4    1  0.2679255E-004  0.7613931E+03  0.7818608E-02  0.9617644E-01
         -2   -1    0    0    0  501 -0.00000000000E+00  0.00000000000E+00  0.42220948819E+02  0.42220948896E+02  0.25500000000E-02 0. -1.
          2   -1    0    0  501    0  0.00000000000E+00 -0.00000000000E+00 -0.34326529500E+04  0.34326529500E+04  0.25500000000E-02 0.  1.
    5000001    1    1    2    0    0  0.29803331285E+03  0.14736151767E+03 -0.10784798155E+04  0.11356878906E+04  0.12700000000E+03 0.  0.
   -5000001    1    1    2    0    0 -0.29803331285E+03 -0.14736151767E+03 -0.23119521857E+04  0.23391860083E+04  0.12700000000E+03 0.  0.
<mgrwt>
<rscale>  0 0.76139310E+03</rscale>
<asrwt>0</asrwt>
<pdfrwt beam="1">  1        2 0.49037882E+00 0.76139310E+03</pdfrwt>
<pdfrwt beam="2">  1       -2 0.60315663E-02 0.76139310E+03</pdfrwt>
<totfact> 0.21600482E+02</totfact>
</mgrwt>
</event>
<event>
 4    1  0.2679255E-004  0.7069728E+03  0.7818608E-02  0.9705381E-01
         -2   -1    0    0    0  501 -0.00000000000E+00  0.00000000000E+00  0.14035834840E+03  0.14035834842E+03  0.25500000000E-02 0. -1.
          2   -1    0    0  501    0  0.00000000000E+00 -0.00000000000E+00 -0.89024024759E+03  0.89024024759E+03  0.25500000000E-02 0.  1.
    5000001    1    1    2    0    0 -0.55958937175E+02 -0.22476944083E+03 -0.71734747433E+03  0.76444038558E+03  0.12700000000E+03 0.  0.
   -5000001    1    1    2    0    0  0.55958937175E+02  0.22476944083E+03 -0.32534424865E+02  0.26615821044E+03  0.12700000000E+03 0.  0.
<mgrwt>
<rscale>  0 0.70697284E+03</rscale>
<asrwt>0</asrwt>
<pdfrwt beam="1">  1        2 0.12717717E+00 0.70697284E+03</pdfrwt>
<pdfrwt beam="2">  1       -2 0.20051193E-01 0.70697284E+03</pdfrwt>
<totfact> 0.70357001E+02</totfact>
</mgrwt>
</event>
<event>
 4    1  0.2679255E-004  0.2863035E+03  0.7818608E-02  0.1092295E+00
          2   -1    0    0  501    0  0.00000000000E+00  0.00000000000E+00  0.56464326091E+03  0.56464326091E+03  0.25500000000E-02 0.  1.
         -2   -1    0    0    0  501 -0.00000000000E+00 -0.00000000000E+00 -0.36292703108E+02  0.36292703197E+02  0.25500000000E-02 0. -1.
    5000001    1    1    2    0    0  0.61860931033E+02  0.21624191493E+02  0.28161673418E+03  0.31580273181E+03  0.12700000000E+03 0.  0.
   -5000001    1    1    2    0    0 -0.61860931033E+02 -0.21624191493E+02  0.24673382362E+03  0.28513323230E+03  0.12700000000E+03 0.  0.
<mgrwt>
<rscale>  0 0.28630355E+03</rscale>
<asrwt>0</asrwt>
<pdfrwt beam="1">  1        2 0.80663315E-01 0.28630355E+03</pdfrwt>
<pdfrwt beam="2">  1       -2 0.51846724E-02 0.28630355E+03</pdfrwt>
<totfact> 0.10888106E+04</totfact>
</mgrwt>
</event>
<event>
 4    1  0.2679255E-004  0.4261301E+03  0.7818608E-02  0.1035089E+00
          2   -1    0    0  501    0  0.00000000000E+00  0.00000000000E+00  0.20073719931E+04  0.20073719931E+04  0.25500000000E-02 0.  1.
         -2   -1    0    0    0  501 -0.00000000000E+00 -0.00000000000E+00 -0.22614995080E+02  0.22614995223E+02  0.25500000000E-02 0. -1.
    5000001    1    1    2    0    0  0.15864761948E+03 -0.63464273338E+02  0.10324980505E+04  0.10542191449E+04  0.12700000000E+03 0.  0.
   -5000001    1    1    2    0    0 -0.15864761948E+03  0.63464273338E+02  0.95225894748E+03  0.97576784340E+03  0.12700000000E+03 0.  0.
<mgrwt>
<rscale>  0 0.42613006E+03</rscale>
<asrwt>0</asrwt>
<pdfrwt beam="1">  1        2 0.28676747E+00 0.42613006E+03</pdfrwt>
<pdfrwt beam="2">  1       -2 0.32307131E-02 0.42613006E+03</pdfrwt>
<totfact> 0.33088522E+03</totfact>
</mgrwt>
</event>
<event>
 4    1  0.2679255E-004  0.5363653E+03  0.7818608E-02  0.1004700E+00
         -2   -1    0    0    0  501 -0.00000000000E+00  0.00000000000E+00  0.54707044788E+02  0.54707044847E+02  0.25500000000E-02 0. -1.
          2   -1    0    0  501    0  0.00000000000E+00 -0.00000000000E+00 -0.13146742947E+04  0.13146742948E+04  0.25500000000E-02 0.  1.
    5000001    1    1    2    0    0 -0.22665243360E+03 -0.66398014038E+02 -0.63916179580E+03  0.69313550128E+03  0.12700000000E+03 0.  0.
   -5000001    1    1    2    0    0  0.22665243360E+03  0.66398014038E+02 -0.62080545416E+03  0.67624583832E+03  0.12700000000E+03 0.  0.
<mgrwt>
<rscale>  0 0.53636534E+03</rscale>
<asrwt>0</asrwt>
<pdfrwt beam="1">  1        2 0.18781059E+00 0.53636534E+03</pdfrwt>
<pdfrwt beam="2">  1       -2 0.78152929E-02 0.53636534E+03</pdfrwt>
<totfact> 0.19006444E+03</totfact>
</mgrwt>
</event>
<event>
 4    1  0.2679255E-004  0.4245053E+03  0.7818608E-02  0.1035610E+00
          2   -1    0    0  501    0  0.00000000000E+00  0.00000000000E+00  0.85190786101E+03  0.85190786101E+03  0.25500000000E-02 0.  1.
         -2   -1    0    0    0  501 -0.00000000000E+00 -0.00000000000E+00 -0.52882692137E+02  0.52882692199E+02  0.25500000000E-02 0. -1.
    5000001    1    1    2    0    0 -0.15032439447E+03  0.25901209029E+02  0.23924767032E+03  0.31086451060E+03  0.12700000000E+03 0.  0.
   -5000001    1    1    2    0    0  0.15032439447E+03 -0.25901209029E+02  0.55977749855E+03  0.59392604261E+03  0.12700000000E+03 0.  0.
<mgrwt>
<rscale>  0 0.42450527E+03</rscale>
<asrwt>0</asrwt>
<pdfrwt beam="1">  1        2 0.12170111E+00 0.42450527E+03</pdfrwt>
<pdfrwt beam="2">  1       -2 0.75546713E-02 0.42450527E+03</pdfrwt>
<totfact> 0.37472557E+03</totfact>
</mgrwt>
</event>
<event>
 4    1  0.2679255E-004  0.4529124E+03  0.7818608E-02  0.1026857E+00
          2   -1    0    0  501    0  0.00000000000E+00  0.00000000000E+00  0.11004209289E+04  0.11004209289E+04  0.25500000000E-02 0.  1.
         -2   -1    0    0    0  501 -0.00000000000E+00 -0.00000000000E+00 -0.46602537254E+02  0.46602537323E+02  0.25500000000E-02 0. -1.
    5000001    1    1    2    0    0 -0.13068534839E+03 -0.11297911868E+03  0.34235479117E+03  0.40395388917E+03  0.12700000000E+03 0.  0.
   -5000001    1    1    2    0    0  0.13068534839E+03  0.11297911868E+03  0.71146360049E+03  0.74306957706E+03  0.12700000000E+03 0.  0.
<mgrwt>
<rscale>  0 0.45291239E+03</rscale>
<asrwt>0</asrwt>
<pdfrwt beam="1">  1        2 0.15720297E+00 0.45291239E+03</pdfrwt>
<pdfrwt beam="2">  1       -2 0.66575061E-02 0.45291239E+03</pdfrwt>
<totfact> 0.32209586E+03</totfact>
</mgrwt>
</event>
<event>
 4    1  0.2679255E-004  0.3726544E+03  0.7818608E-02  0.1053683E+00
         -2   -1    0    0    0  501 -0.00000000000E+00  0.00000000000E+00  0.92207677759E+02  0.92207677794E+02  0.25500000000E-02 0.  1.
          2   -1    0    0  501    0  0.00000000000E+00 -0.00000000000E+00 -0.37651766701E+03  0.37651766702E+03  0.25500000000E-02 0. -1.
    5000001    1    1    2    0    0  0.93950300797E+02 -0.97332403913E+02 -0.16352148448E+03  0.24732272794E+03  0.12700000000E+03 0.  0.
   -5000001    1    1    2    0    0 -0.93950300797E+02  0.97332403913E+02 -0.12078850477E+03  0.22140261687E+03  0.12700000000E+03 0.  0.
<mgrwt>
<rscale>  0 0.37265437E+03</rscale>
<asrwt>0</asrwt>
<pdfrwt beam="1">  1        2 0.53788237E-01 0.37265437E+03</pdfrwt>
<pdfrwt beam="2">  1       -2 0.13172526E-01 0.37265437E+03</pdfrwt>
<totfact> 0.39490849E+03</totfact>
</mgrwt>
</event>
<event>
 4    1  0.2679255E-004  0.4561271E+03  0.7818608E-02  0.1025910E+00
         -2   -1    0    0    0  501 -0.00000000000E+00  0.00000000000E+00  0.10028456523E+03  0.10028456526E+03  0.25500000000E-02 0.  1.
          2   -1    0    0  501    0  0.00000000000E+00 -0.00000000000E+00 -0.51865381647E+03  0.51865381648E+03  0.25500000000E-02 0. -1.
    5000001    1    1    2    0    0  0.17088365992E+03  0.32334713266E+01 -0.98343965813E+02  0.23454683152E+03  0.12700000000E+03 0.  0.
   -5000001    1    1    2    0    0 -0.17088365992E+03 -0.32334713266E+01 -0.32002528543E+03  0.38439155022E+03  0.12700000000E+03 0.  0.
<mgrwt>
<rscale>  0 0.45612705E+03</rscale>
<asrwt>0</asrwt>
<pdfrwt beam="1">  1        2 0.74093401E-01 0.45612705E+03</pdfrwt>
<pdfrwt beam="2">  1       -2 0.14326367E-01 0.45612705E+03</pdfrwt>
<totfact> 0.24176045E+03</totfact>
</mgrwt>
</event>
<event>
 4    1  0.2679255E-004  0.4370527E+03  0.7818608E-02  0.1031655E+00
          2   -1    0    0  501    0  0.00000000000E+00  0.00000000000E+00  0.32383490151E+04  0.32383490151E+04  0.25500000000E-02 0.  1.
         -2   -1    0    0    0  501 -0.00000000000E+00 -0.00000000000E+00 -0.14746327682E+02  0.14746327902E+02  0.25500000000E-02 0. -1.
    5000001    1    1    2    0    0  0.36356656110E+02 -0.15362709759E+03  0.10024688056E+04  0.10227393597E+04  0.12700000000E+03 0.  0.
   -5000001    1    1    2    0    0 -0.36356656110E+02  0.15362709759E+03  0.22211338818E+04  0.22303559833E+04  0.12700000000E+03 0.  0.
<mgrwt>
<rscale>  0 0.43705266E+03</rscale>
<asrwt>0</asrwt>
<pdfrwt beam="1">  1        2 0.46262115E+00 0.43705266E+03</pdfrwt>
<pdfrwt beam="2">  1       -2 0.21066189E-02 0.43705266E+03</pdfrwt>
<totfact> 0.14470966E+03</totfact>
</mgrwt>
</event>
<event>
 4    1  0.2679255E-004  0.3005701E+03  0.7818608E-02  0.1084956E+00
         -2   -1    0    0    0  501 -0.00000000000E+00  0.00000000000E+00  0.12298236109E+02  0.12298236373E+02  0.25500000000E-02 0. -1.
          2   -1    0    0  501    0  0.00000000000E+00 -0.00000000000E+00 -0.18364909789E+04  0.18364909789E+04  0.25500000000E-02 0.  1.
    5000001    1    1    2    0    0 -0.56031697689E+02 -0.57553809608E+02 -0.89889293506E+03  0.91136683111E+03  0.12700000000E+03 0.  0.
   -5000001    1    1    2    0    0  0.56031697689E+02  0.57553809608E+02 -0.92529980775E+03  0.93742238418E+03  0.12700000000E+03 0.  0.
<mgrwt>
<rscale>  0 0.30057012E+03</rscale>
<asrwt>0</asrwt>
<pdfrwt beam="1">  1        2 0.26235568E+00 0.30057012E+03</pdfrwt>
<pdfrwt beam="2">  1       -2 0.17568921E-02 0.30057012E+03</pdfrwt>
<totfact> 0.99508137E+03</totfact>
</mgrwt>
</event>
<event>
 4    1  0.2679255E-004  0.6911737E+03  0.7818608E-02  0.9732446E-01
         -2   -1    0    0    0  501 -0.00000000000E+00  0.00000000000E+00  0.41517869157E+02  0.41517869236E+02  0.25500000000E-02 0. -1.
          2   -1    0    0  501    0  0.00000000000E+00 -0.00000000000E+00 -0.28765994306E+04  0.28765994306E+04  0.25500000000E-02 0.  1.
    5000001    1    1    2    0    0 -0.37506565221E+02 -0.29369634555E+03 -0.88959156605E+03  0.94613235872E+03  0.12700000000E+03 0.  0.
   -5000001    1    1    2    0    0  0.37506565221E+02  0.29369634555E+03 -0.19454899954E+04  0.19719849411E+04  0.12700000000E+03 0.  0.
<mgrwt>
<rscale>  0 0.69117372E+03</rscale>
<asrwt>0</asrwt>
<pdfrwt beam="1">  1        2 0.41094265E+00 0.69117372E+03</pdfrwt>
<pdfrwt beam="2">  1       -2 0.59311260E-02 0.69117372E+03</pdfrwt>
<totfact> 0.45833001E+02</totfact>
</mgrwt>
</event>
<event>
 4    1  0.2679255E-004  0.4103236E+03  0.7818608E-02  0.1040262E+00
         -2   -1    0    0    0  501 -0.00000000000E+00  0.00000000000E+00  0.23527250033E+02  0.23527250172E+02  0.25500000000E-02 0. -1.
          2   -1    0    0  501    0  0.00000000000E+00 -0.00000000000E+00 -0.17890472710E+04  0.17890472710E+04  0.25500000000E-02 0.  1.
    5000001    1    1    2    0    0 -0.12425990142E+03  0.31915153460E+02 -0.45212855978E+03  0.48683501793E+03  0.12700000000E+03 0.  0.
   -5000001    1    1    2    0    0  0.12425990142E+03 -0.31915153460E+02 -0.13133914612E+04  0.13257395032E+04  0.12700000000E+03 0.  0.
<mgrwt>
<rscale>  0 0.41032359E+03</rscale>
<asrwt>0</asrwt>
<pdfrwt beam="1">  1        2 0.25557810E+00 0.41032359E+03</pdfrwt>
<pdfrwt beam="2">  1       -2 0.33610369E-02 0.41032359E+03</pdfrwt>
<totfact> 0.40017497E+03</totfact>
</mgrwt>
</event>
<event>
 4    1  0.2679255E-004  0.5535965E+03  0.7818608E-02  0.1000665E+00
          2   -1    0    0  501    0  0.00000000000E+00  0.00000000000E+00  0.23028857526E+03  0.23028857528E+03  0.25500000000E-02 0.  1.
         -2   -1    0    0    0  501 -0.00000000000E+00 -0.00000000000E+00 -0.33270109692E+03  0.33270109693E+03  0.25500000000E-02 0. -1.
    5000001    1    1    2    0    0 -0.14022531296E+03 -0.10121037619E+03  0.12663687204E+03  0.24914368546E+03  0.12700000000E+03 0.  0.
   -5000001    1    1    2    0    0  0.14022531296E+03  0.10121037619E+03 -0.22904939369E+03  0.31384598674E+03  0.12700000000E+03 0.  0.
<mgrwt>
<rscale>  0 0.55359647E+03</rscale>
<asrwt>0</asrwt>
<pdfrwt beam="1">  1        2 0.32898368E-01 0.55359647E+03</pdfrwt>
<pdfrwt beam="2">  1       -2 0.47528728E-01 0.55359647E+03</pdfrwt>
<totfact> 0.67671807E+02</totfact>
</mgrwt>
</event>
<event>
 4    1  0.2679255E-004  0.3175950E+03  0.7818608E-02  0.1076761E+00
         -2   -1    0    0    0  501 -0.00000000000E+00  0.00000000000E+00  0.21633950802E+03  0.21633950804E+03  0.25500000000E-02 0. -1.
          2   -1    0    0  501    0  0.00000000000E+00 -0.00000000000E+00 -0.11656054128E+03  0.11656054131E+03  0.25500000000E-02 0.  1.
    5000001    1    1    2    0    0 -0.79682721914E+02 -0.49255566214E+02  0.31368722103E+02  0.16089886171E+03  0.12700000000E+03 0.  0.
   -5000001    1    1    2    0    0  0.79682721914E+02  0.49255566214E+02  0.68410244641E+02  0.17200118763E+03  0.12700000000E+03 0.  0.
<mgrwt>
<rscale>  0 0.31759503E+03</rscale>
<asrwt>0</asrwt>
<pdfrwt beam="1">  1        2 0.16651506E-01 0.31759503E+03</pdfrwt>
<pdfrwt beam="2">  1       -2 0.30905643E-01 0.31759503E+03</pdfrwt>
<totfact> 0.33358738E+03</totfact>
</mgrwt>
</event>
<event>
 4    1  0.2679255E-004  0.3784834E+03  0.7818608E-02  0.1051496E+00
         -2   -1    0    0    0  501 -0.00000000000E+00  0.00000000000E+00  0.17042778823E+02  0.17042779014E+02  0.25500000000E-02 0. -1.
          2   -1    0    0  501    0  0.00000000000E+00 -0.00000000000E+00 -0.21013250093E+04  0.21013250093E+04  0.25500000000E-02 0.  1.
    5000001    1    1    2    0    0 -0.13622302924E+03 -0.32612845190E+02 -0.10866032781E+04  0.11029306394E+04  0.12700000000E+03 0.  0.
   -5000001    1    1    2    0    0  0.13622302924E+03  0.32612845190E+02 -0.99767895239E+03  0.10154371489E+04  0.12700000000E+03 0.  0.
<mgrwt>
<rscale>  0 0.37848338E+03</rscale>
<asrwt>0</asrwt>
<pdfrwt beam="1">  1        2 0.30018912E+00 0.37848338E+03</pdfrwt>
<pdfrwt beam="2">  1       -2 0.24346840E-02 0.37848338E+03</pdfrwt>
<totfact> 0.45512299E+03</totfact>
</mgrwt>
</event>
<event>
 4    1  0.2679255E-004  0.7855697E+03  0.7818608E-02  0.9581142E-01
          2   -1    0    0  501    0  0.00000000000E+00  0.00000000000E+00  0.15836681551E+03  0.15836681553E+03  0.25500000000E-02 0.  1.
         -2   -1    0    0    0  501 -0.00000000000E+00 -0.00000000000E+00 -0.97419368575E+03  0.97419368575E+03  0.25500000000E-02 0. -1.
    5000001    1    1    2    0    0  0.11057291160E+03 -0.17811086974E+03 -0.85040465526E+03  0.88502368803E+03  0.12700000000E+03 0.  0.
   -5000001    1    1    2    0    0 -0.11057291160E+03  0.17811086974E+03  0.34577785018E+02  0.24753681325E+03  0.12700000000E+03 0.  0.
<mgrwt>
<rscale>  0 0.78556973E+03</rscale>
<asrwt>0</asrwt>
<pdfrwt beam="1">  1        2 0.22623831E-01 0.78556973E+03</pdfrwt>
<pdfrwt beam="2">  1       -2 0.13917052E+00 0.78556973E+03</pdfrwt>
<totfact> 0.90512602E+01</totfact>
</mgrwt>
</event>
<event>
 4    1  0.2679255E-004  0.7850410E+03  0.7818608E-02  0.9581926E-01
          2   -1    0    0  501    0  0.00000000000E+00  0.00000000000E+00  0.67497752214E+03  0.67497752215E+03  0.25500000000E-02 0.  1.
         -2   -1    0    0    0  501 -0.00000000000E+00 -0.00000000000E+00 -0.22826295051E+03  0.22826295052E+03  0.25500000000E-02 0. -1.
    5000001    1    1    2    0    0 -0.84683794422E+02 -0.34577846728E+03  0.10154260338E+03  0.39137449301E+03  0.12700000000E+03 0.  0.
   -5000001    1    1    2    0    0  0.84683794422E+02  0.34577846728E+03  0.34517196825E+03  0.51186597967E+03  0.12700000000E+03 0.  0.
<mgrwt>
<rscale>  0 0.78504105E+03</rscale>
<asrwt>0</asrwt>
<pdfrwt beam="1">  1        2 0.96425359E-01 0.78504105E+03</pdfrwt>
<pdfrwt beam="2">  1       -2 0.32608993E-01 0.78504105E+03</pdfrwt>
<totfact> 0.41410032E+02</totfact>
</mgrwt>
</event>
<event>
 4    1  0.2679255E-004  0.9478028E+03  0.7818608E-02  0.9367722E-01
         -2   -1    0    0    0  501 -0.00000000000E+00  0.00000000000E+00  0.18313428387E+03  0.18313428388E+03  0.25500000000E-02 0. -1.
          2   -1    0    0  501    0  0.00000000000E+00 -0.00000000000E+00 -0.12263270541E+04  0.12263270541E+04  0.25500000000E-02 0.  1.
    5000001    1    1    2    0    0 -0.28307570409E+03  0.35819974002E+03 -0.52728218831E+03  0.70893893538E+03  0.12700000000E+03 0.  0.
   -5000001    1    1    2    0    0  0.28307570409E+03 -0.35819974002E+03 -0.51591058193E+03  0.70052240260E+03  0.12700000000E+03 0.  0.
<mgrwt>
<rscale>  0 0.94780278E+03</rscale>
<asrwt>0</asrwt>
<pdfrwt beam="1">  1        2 0.17518957E+00 0.94780278E+03</pdfrwt>
<pdfrwt beam="2">  1       -2 0.26162041E-01 0.94780278E+03</pdfrwt>
<totfact> 0.27197998E+02</totfact>
</mgrwt>
</event>
<event>
 4    1  0.2679255E-004  0.3016040E+03  0.7818608E-02  0.1084442E+00
         -2   -1    0    0    0  501 -0.00000000000E+00  0.00000000000E+00  0.16680237560E+03  0.16680237562E+03  0.25500000000E-02 0. -1.
          2   -1    0    0  501    0  0.00000000000E+00 -0.00000000000E+00 -0.13633648051E+03  0.13633648054E+03  0.25500000000E-02 0.  1.
    5000001    1    1    2    0    0 -0.43071304817E+02 -0.58462354976E+02  0.52015143157E+02  0.15526609213E+03  0.12700000000E+03 0.  0.
   -5000001    1    1    2    0    0  0.43071304817E+02  0.58462354976E+02 -0.21549248070E+02  0.14787276403E+03  0.12700000000E+03 0.  0.
<mgrwt>
<rscale>  0 0.30160404E+03</rscale>
<asrwt>0</asrwt>
<pdfrwt beam="1">  1        2 0.19476640E-01 0.30160404E+03</pdfrwt>
<pdfrwt beam="2">  1       -2 0.23828911E-01 0.30160404E+03</pdfrwt>
<totfact> 0.44233904E+03</totfact>
</mgrwt>
</event>
<event>
 4    1  0.2679255E-004  0.4817504E+03  0.7818608E-02  0.1018655E+00
         -2   -1    0    0    0  501 -0.00000000000E+00  0.00000000000E+00  0.43298464738E+02  0.43298464813E+02  0.25500000000E-02 0. -1.
          2   -1    0    0  501    0  0.00000000000E+00 -0.00000000000E+00 -0.13400213305E+04  0.13400213305E+04  0.25500000000E-02 0.  1.
    5000001    1    1    2    0    0  0.40840392790E+02  0.17245510101E+03 -0.35436183256E+03  0.41606490831E+03  0.12700000000E+03 0.  0.
   -5000001    1    1    2    0    0 -0.40840392790E+02 -0.17245510101E+03 -0.94236103320E+03  0.96725488701E+03  0.12700000000E+03 0.  0.
<mgrwt>
<rscale>  0 0.48175042E+03</rscale>
<asrwt>0</asrwt>
<pdfrwt beam="1">  1        2 0.19143159E+00 0.48175042E+03</pdfrwt>
<pdfrwt beam="2">  1       -2 0.61854958E-02 0.48175042E+03</pdfrwt>
<totfact> 0.26638539E+03</totfact>
</mgrwt>
</event>
<event>
 4    1  0.2679255E-004  0.5023072E+03  0.7818608E-02  0.1013178E+00
         -2   -1    0    0    0  501 -0.00000000000E+00  0.00000000000E+00  0.48364659445E+02  0.48364659512E+02  0.25500000000E-02 0. -1.
          2   -1    0    0  501    0  0.00000000000E+00 -0.00000000000E+00 -0.13042197277E+04  0.13042197277E+04  0.25500000000E-02 0.  1.
    5000001    1    1    2    0    0  0.17244775167E+02 -0.20585269909E+03 -0.80401784397E+03  0.83978950304E+03  0.12700000000E+03 0.  0.
   -5000001    1    1    2    0    0 -0.17244775167E+02  0.20585269909E+03 -0.45183722431E+03  0.51279488420E+03  0.12700000000E+03 0.  0.
<mgrwt>
<rscale>  0 0.50230725E+03</rscale>
<asrwt>0</asrwt>
<pdfrwt beam="1">  1        2 0.18631708E+00 0.50230725E+03</pdfrwt>
<pdfrwt beam="2">  1       -2 0.69092379E-02 0.50230725E+03</pdfrwt>
<totfact> 0.23406746E+03</totfact>
</mgrwt>
</event>
<event>
 4    1  0.2679255E-004  0.2767511E+03  0.7818608E-02  0.1097477E+00
          2   -1    0    0  501    0  0.00000000000E+00  0.00000000000E+00  0.13374554523E+04  0.13374554523E+04  0.25500000000E-02 0.  1.
         -2   -1    0    0    0  501 -0.00000000000E+00 -0.00000000000E+00 -0.14316581372E+02  0.14316581599E+02  0.25500000000E-02 0. -1.
    5000001    1    1    2    0    0  0.52656665999E+02 -0.93530447846E+01  0.60005930857E+03  0.61567879428E+03  0.12700000000E+03 0.  0.
   -5000001    1    1    2    0    0 -0.52656665999E+02  0.93530447846E+01  0.72307956231E+03  0.73609323958E+03  0.12700000000E+03 0.  0.
<mgrwt>
<rscale>  0 0.27675108E+03</rscale>
<asrwt>0</asrwt>
<pdfrwt beam="1">  1        2 0.19106507E+00 0.27675108E+03</pdfrwt>
<pdfrwt beam="2">  1       -2 0.20452259E-02 0.27675108E+03</pdfrwt>
<totfact> 0.14139238E+04</totfact>
</mgrwt>
</event>
<event>
 4    1  0.2679255E-004  0.3275716E+03  0.7818608E-02  0.1072216E+00
          2   -1    0    0  501    0  0.00000000000E+00  0.00000000000E+00  0.75779795973E+03  0.75779795973E+03  0.25500000000E-02 0.  1.
         -2   -1    0    0    0  501 -0.00000000000E+00 -0.00000000000E+00 -0.35399653048E+02  0.35399653140E+02  0.25500000000E-02 0. -1.
    5000001    1    1    2    0    0 -0.15645824582E+02 -0.95669984001E+02  0.27391787803E+03  0.31710809131E+03  0.12700000000E+03 0.  0.
   -5000001    1    1    2    0    0  0.15645824582E+02  0.95669984001E+02  0.44848042865E+03  0.47608952157E+03  0.12700000000E+03 0.  0.
<mgrwt>
<rscale>  0 0.32757158E+03</rscale>
<asrwt>0</asrwt>
<pdfrwt beam="1">  1        2 0.10825686E+00 0.32757158E+03</pdfrwt>
<pdfrwt beam="2">  1       -2 0.50570928E-02 0.32757158E+03</pdfrwt>
<totfact> 0.80465543E+03</totfact>
</mgrwt>
</event>
<event>
 4    1  0.2679255E-004  0.5129928E+03  0.7818608E-02  0.1010442E+00
          2   -1    0    0  501    0  0.00000000000E+00  0.00000000000E+00  0.22604078333E+04  0.22604078333E+04  0.25500000000E-02 0.  1.
         -2   -1    0    0    0  501 -0.00000000000E+00 -0.00000000000E+00 -0.29105540300E+02  0.29105540412E+02  0.25500000000E-02 0. -1.
    5000001    1    1    2    0    0 -0.45618024050E+02  0.21812525438E+03  0.11215732299E+04  0.11505282007E+04  0.12700000000E+03 0.  0.
   -5000001    1    1    2    0    0  0.45618024050E+02 -0.21812525438E+03  0.11097290631E+04  0.11389851730E+04  0.12700000000E+03 0.  0.
<mgrwt>
<rscale>  0 0.51299275E+03</rscale>
<asrwt>0</asrwt>
<pdfrwt beam="1">  1        2 0.32291540E+00 0.51299275E+03</pdfrwt>
<pdfrwt beam="2">  1       -2 0.41579344E-02 0.51299275E+03</pdfrwt>
<totfact> 0.16793204E+03</totfact>
</mgrwt>
</event>
<event>
 4    1  0.2679255E-004  0.4714579E+03  0.7818608E-02  0.1021510E+00
         -2   -1    0    0    0  501 -0.00000000000E+00  0.00000000000E+00  0.13305207239E+03  0.13305207241E+03  0.25500000000E-02 0. -1.
          2   -1    0    0  501    0  0.00000000000E+00 -0.00000000000E+00 -0.41764202587E+03  0.41764202588E+03  0.25500000000E-02 0.  1.
    5000001    1    1    2    0    0  0.25305169567E+01 -0.17255348423E+03 -0.25708701100E+03  0.33466974716E+03  0.12700000000E+03 0.  0.
   -5000001    1    1    2    0    0 -0.25305169567E+01  0.17255348423E+03 -0.27502942477E+02  0.21602435113E+03  0.12700000000E+03 0.  0.
<mgrwt>
<rscale>  0 0.47145790E+03</rscale>
<asrwt>0</asrwt>
<pdfrwt beam="1">  1        2 0.59663146E-01 0.47145790E+03</pdfrwt>
<pdfrwt beam="2">  1       -2 0.19007439E-01 0.47145790E+03</pdfrwt>
<totfact> 0.19097762E+03</totfact>
</mgrwt>
</event>
<event>
 4    1  0.2679255E-004  0.3157550E+03  0.7818608E-02  0.1077620E+00
         -2   -1    0    0    0  501 -0.00000000000E+00  0.00000000000E+00  0.31983410246E+02  0.31983410348E+02  0.25500000000E-02 0. -1.
          2   -1    0    0  501    0  0.00000000000E+00 -0.00000000000E+00 -0.77931980799E+03  0.77931980799E+03  0.25500000000E-02 0.  1.
    5000001    1    1    2    0    0  0.81801031056E+00 -0.80004251128E+02 -0.49941059024E+03  0.52147990084E+03  0.12700000000E+03 0.  0.
   -5000001    1    1    2    0    0 -0.81801031056E+00  0.80004251128E+02 -0.24792580751E+03  0.28982331750E+03  0.12700000000E+03 0.  0.
<mgrwt>
<rscale>  0 0.31575500E+03</rscale>
<asrwt>0</asrwt>
<pdfrwt beam="1">  1        2 0.11133139E+00 0.31575500E+03</pdfrwt>
<pdfrwt beam="2">  1       -2 0.45690591E-02 0.31575500E+03</pdfrwt>
<totfact> 0.90639591E+03</totfact>
</mgrwt>
</event>
<event>
 4    1  0.2679255E-004  0.3279953E+03  0.7818608E-02  0.1072027E+00
         -2   -1    0    0    0  501 -0.00000000000E+00  0.00000000000E+00  0.28456328244E+03  0.28456328245E+03  0.25500000000E-02 0. -1.
          2   -1    0    0  501    0  0.00000000000E+00 -0.00000000000E+00 -0.94514066758E+02  0.94514066792E+02  0.25500000000E-02 0.  1.
    5000001    1    1    2    0    0 -0.93032790811E+02 -0.32671358843E+02  0.13236262002E+03  0.20825796751E+03  0.12700000000E+03 0.  0.
   -5000001    1    1    2    0    0  0.93032790811E+02  0.32671358843E+02  0.57686595662E+02  0.17081938173E+03  0.12700000000E+03 0.  0.
<mgrwt>
<rscale>  0 0.32799532E+03</rscale>
<asrwt>0</asrwt>
<pdfrwt beam="1">  1        2 0.13502009E-01 0.32799532E+03</pdfrwt>
<pdfrwt beam="2">  1       -2 0.40651898E-01 0.32799532E+03</pdfrwt>
<totfact> 0.25630014E+03</totfact>
</mgrwt>
</event>
<event>
 4    1  0.2679255E-004  0.8247323E+03  0.7818608E-02  0.9524892E-01
          2   -1    0    0  501    0  0.00000000000E+00  0.00000000000E+00  0.13834761560E+04  0.13834761560E+04  0.25500000000E-02 0.  1.
         -2   -1    0    0    0  501 -0.00000000000E+00 -0.00000000000E+00 -0.12291200991E+03  0.12291200994E+03  0.25500000000E-02 0. -1.
    5000001    1    1    2    0    0  0.15926025869E+03  0.35596038947E+03  0.55182242666E+03  0.68753808580E+03  0.12700000000E+03 0.  0.
   -5000001    1    1    2    0    0 -0.15926025869E+03 -0.35596038947E+03  0.70874171942E+03  0.81885008012E+03  0.12700000000E+03 0.  0.
<mgrwt>
<rscale>  0 0.82473228E+03</rscale>
<asrwt>0</asrwt>
<pdfrwt beam="1">  1        2 0.19763945E+00 0.82473228E+03</pdfrwt>
<pdfrwt beam="2">  1       -2 0.17558859E-01 0.82473228E+03</pdfrwt>
<totfact> 0.45418576E+02</totfact>
</mgrwt>
</event>
<event>
 4    1  0.2679255E-004  0.5271452E+03  0.7818608E-02  0.1006927E+00
         -2   -1    0    0    0  501 -0.00000000000E+00  0.00000000000E+00  0.37512379755E+02  0.37512379842E+02  0.25500000000E-02 0. -1.
          2   -1    0    0  501    0  0.00000000000E+00 -0.00000000000E+00 -0.18519355361E+04  0.18519355361E+04  0.25500000000E-02 0.  1.
    5000001    1    1    2    0    0 -0.86494964326E+02  0.21231271190E+03 -0.80688677675E+03  0.84838277740E+03  0.12700000000E+03 0.  0.
   -5000001    1    1    2    0    0  0.86494964326E+02 -0.21231271190E+03 -0.10075363796E+04  0.10410651385E+04  0.12700000000E+03 0.  0.
<mgrwt>
<rscale>  0 0.52714518E+03</rscale>
<asrwt>0</asrwt>
<pdfrwt beam="1">  1        2 0.26456216E+00 0.52714518E+03</pdfrwt>
<pdfrwt beam="2">  1       -2 0.53589126E-02 0.52714518E+03</pdfrwt>
<totfact> 0.18166901E+03</totfact>
</mgrwt>
</event>
<event>
 4    1  0.2679255E-004  0.5849198E+03  0.7818608E-02  0.9937196E-01
          2   -1    0    0  501    0  0.00000000000E+00  0.00000000000E+00  0.99178764026E+03  0.99178764027E+03  0.25500000000E-02 0.  1.
         -2   -1    0    0    0  501 -0.00000000000E+00 -0.00000000000E+00 -0.86241024356E+02  0.86241024393E+02  0.25500000000E-02 0. -1.
    5000001    1    1    2    0    0  0.98810228658E+02  0.21103419606E+03  0.67928612500E+03  0.72928563184E+03  0.12700000000E+03 0.  0.
   -5000001    1    1    2    0    0 -0.98810228658E+02 -0.21103419606E+03  0.22626049091E+03  0.34874303282E+03  0.12700000000E+03 0.  0.
<mgrwt>
<rscale>  0 0.58491976E+03</rscale>
<asrwt>0</asrwt>
<pdfrwt beam="1">  1        2 0.14168395E+00 0.58491976E+03</pdfrwt>
<pdfrwt beam="2">  1       -2 0.12320146E-01 0.58491976E+03</pdfrwt>
<totfact> 0.13905442E+03</totfact>
</mgrwt>
</event>
<event>
 4    1  0.2679255E-004  0.2872116E+03  0.7818608E-02  0.1091814E+00
          2   -1    0    0  501    0  0.00000000000E+00  0.00000000000E+00  0.10912779100E+04  0.10912779100E+04  0.25500000000E-02 0.  1.
         -2   -1    0    0    0  501 -0.00000000000E+00 -0.00000000000E+00 -0.18897689412E+02  0.18897689584E+02  0.25500000000E-02 0. -1.
    5000001    1    1    2    0    0  0.55844237885E+02  0.65703829306E+01  0.67725617906E+03  0.69135134405E+03  0.12700000000E+03 0.  0.
   -5000001    1    1    2    0    0 -0.55844237885E+02 -0.65703829306E+01  0.39512404152E+03  0.41882425553E+03  0.12700000000E+03 0.  0.
<mgrwt>
<rscale>  0 0.28721164E+03</rscale>
<asrwt>0</asrwt>
<pdfrwt beam="1">  1        2 0.15589689E+00 0.28721164E+03</pdfrwt>
<pdfrwt beam="2">  1       -2 0.26996692E-02 0.28721164E+03</pdfrwt>
<totfact> 0.12766775E+04</totfact>
</mgrwt>
</event>
<event>
 4    1  0.2679255E-004  0.3573229E+03  0.7818608E-02  0.1059649E+00
          2   -1    0    0  501    0  0.00000000000E+00  0.00000000000E+00  0.17232231596E+03  0.17232231598E+03  0.25500000000E-02 0.  1.
         -2   -1    0    0    0  501 -0.00000000000E+00 -0.00000000000E+00 -0.18523379189E+03  0.18523379191E+03  0.25500000000E-02 0. -1.
    5000001    1    1    2    0    0 -0.61765748337E+02  0.33887115333E+02  0.97667789117E+02  0.17501811702E+03  0.12700000000E+03 0.  0.
   -5000001    1    1    2    0    0  0.61765748337E+02 -0.33887115333E+02 -0.11057926505E+03  0.18253799087E+03  0.12700000000E+03 0.  0.
<mgrwt>
<rscale>  0 0.35732291E+03</rscale>
<asrwt>0</asrwt>
<pdfrwt beam="1">  1        2 0.24617474E-01 0.35732291E+03</pdfrwt>
<pdfrwt beam="2">  1       -2 0.26461970E-01 0.35732291E+03</pdfrwt>
<totfact> 0.28250363E+03</totfact>
</mgrwt>
</event>
<event>
 4    1  0.2679255E-004  0.3200404E+03  0.7818608E-02  0.1075631E+00
         -2   -1    0    0    0  501 -0.00000000000E+00  0.00000000000E+00  0.35113634874E+02  0.35113634966E+02  0.25500000000E-02 0. -1.
          2   -1    0    0  501    0  0.00000000000E+00 -0.00000000000E+00 -0.72924577558E+03  0.72924577559E+03  0.25500000000E-02 0.  1.
    5000001    1    1    2    0    0  0.25127138680E+02 -0.72852449024E+02 -0.48913842435E+03  0.51119883666E+03  0.12700000000E+03 0.  0.
   -5000001    1    1    2    0    0 -0.25127138680E+02  0.72852449024E+02 -0.20499371636E+03  0.25316057389E+03  0.12700000000E+03 0.  0.
<mgrwt>
<rscale>  0 0.32004043E+03</rscale>
<asrwt>0</asrwt>
<pdfrwt beam="1">  1        2 0.10417796E+00 0.32004043E+03</pdfrwt>
<pdfrwt beam="2">  1       -2 0.50162340E-02 0.32004043E+03</pdfrwt>
<totfact> 0.85305932E+03</totfact>
</mgrwt>
</event>
<event>
 4    1  0.2679255E-004  0.2912794E+03  0.7818608E-02  0.1089683E+00
          2   -1    0    0  501    0  0.00000000000E+00  0.00000000000E+00  0.16466662602E+04  0.16466662602E+04  0.25500000000E-02 0.  1.
         -2   -1    0    0    0  501 -0.00000000000E+00 -0.00000000000E+00 -0.12881128596E+02  0.12881128848E+02  0.25500000000E-02 0. -1.
    5000001    1    1    2    0    0  0.48168257903E+02 -0.49973931918E+02  0.90952552971E+03  0.92096865535E+03  0.12700000000E+03 0.  0.
   -5000001    1    1    2    0    0 -0.48168257903E+02  0.49973931918E+02  0.72425960191E+03  0.73857873372E+03  0.12700000000E+03 0.  0.
<mgrwt>
<rscale>  0 0.29127939E+03</rscale>
<asrwt>0</asrwt>
<pdfrwt beam="1">  1        2 0.23523790E+00 0.29127939E+03</pdfrwt>
<pdfrwt beam="2">  1       -2 0.18401623E-02 0.29127939E+03</pdfrwt>
<totfact> 0.11525529E+04</totfact>
</mgrwt>
</event>
<event>
 4    1  0.2679255E-004  0.4763712E+03  0.7818608E-02  0.1020137E+00
         -2   -1    0    0    0  501 -0.00000000000E+00  0.00000000000E+00  0.52333758236E+02  0.52333758298E+02  0.25500000000E-02 0. -1.
          2   -1    0    0  501    0  0.00000000000E+00 -0.00000000000E+00 -0.10840492767E+04  0.10840492767E+04  0.25500000000E-02 0.  1.
    5000001    1    1    2    0    0 -0.12222696035E+03 -0.38225061790E+02 -0.14473980395E+03  0.23125569406E+03  0.12700000000E+03 0.  0.
   -5000001    1    1    2    0    0  0.12222696035E+03  0.38225061790E+02 -0.88697571451E+03  0.90512734093E+03  0.12700000000E+03 0.  0.
<mgrwt>
<rscale>  0 0.47637117E+03</rscale>
<asrwt>0</asrwt>
<pdfrwt beam="1">  1        2 0.15486417E+00 0.47637117E+03</pdfrwt>
<pdfrwt beam="2">  1       -2 0.74762519E-02 0.47637117E+03</pdfrwt>
<totfact> 0.27436991E+03</totfact>
</mgrwt>
</event>
<event>
 4    1  0.2679255E-004  0.5543601E+03  0.7818608E-02  0.1000490E+00
          2   -1    0    0  501    0  0.00000000000E+00  0.00000000000E+00  0.21921567841E+03  0.21921567843E+03  0.25500000000E-02 0.  1.
         -2   -1    0    0    0  501 -0.00000000000E+00 -0.00000000000E+00 -0.35047121743E+03  0.35047121744E+03  0.25500000000E-02 0. -1.
    5000001    1    1    2    0    0 -0.23467165381E+03  0.25913956269E+02  0.67281698600E+01  0.26817268038E+03  0.12700000000E+03 0.  0.
   -5000001    1    1    2    0    0  0.23467165381E+03 -0.25913956269E+02 -0.13798370888E+03  0.30151421549E+03  0.12700000000E+03 0.  0.
<mgrwt>
<rscale>  0 0.55436012E+03</rscale>
<asrwt>0</asrwt>
<pdfrwt beam="1">  1        2 0.31316525E-01 0.55436012E+03</pdfrwt>
<pdfrwt beam="2">  1       -2 0.50067317E-01 0.55436012E+03</pdfrwt>
<totfact> 0.64386161E+02</totfact>
</mgrwt>
</event>
<event>
 4    1  0.2679255E-004  0.4399110E+03  0.7818608E-02  0.1030774E+00
          2   -1    0    0  501    0  0.00000000000E+00  0.00000000000E+00  0.41021797496E+03  0.41021797497E+03  0.25500000000E-02 0.  1.
         -2   -1    0    0    0  501 -0.00000000000E+00 -0.00000000000E+00 -0.11793830391E+03  0.11793830394E+03  0.25500000000E-02 0. -1.
    5000001    1    1    2    0    0  0.96169912727E+02  0.13385660332E+03  0.60524729103E+02  0.21669906599E+03  0.12700000000E+03 0.  0.
   -5000001    1    1    2    0    0 -0.96169912727E+02 -0.13385660332E+03  0.23175494195E+03  0.31145721293E+03  0.12700000000E+03 0.  0.
<mgrwt>
<rscale>  0 0.43991096E+03</rscale>
<asrwt>0</asrwt>
<pdfrwt beam="1">  1        2 0.58602568E-01 0.43991096E+03</pdfrwt>
<pdfrwt beam="2">  1       -2 0.16848329E-01 0.43991096E+03</pdfrwt>
<totfact> 0.23914813E+03</totfact>
</mgrwt>
</event>
<event>
 4    1  0.2679255E-004  0.2797152E+03  0.7818608E-02  0.1095845E+00
         -2   -1    0    0    0  501 -0.00000000000E+00  0.00000000000E+00  0.14653682726E+03  0.14653682728E+03  0.25500000000E-02 0. -1.
          2   -1    0    0  501    0  0.00000000000E+00 -0.00000000000E+00 -0.13348284708E+03  0.13348284711E+03  0.25500000000E-02 0.  1.
    5000001    1    1    2    0    0 -0.44948555979E+02 -0.36801888073E+02 -0.99126115068E+00  0.13965935074E+03  0.12700000000E+03 0.  0.
   -5000001    1    1    2    0    0  0.44948555979E+02  0.36801888073E+02  0.14045241324E+02  0.14036032365E+03  0.12700000000E+03 0.  0.
<mgrwt>
<rscale>  0 0.27971523E+03</rscale>
<asrwt>0</asrwt>
<pdfrwt beam="1">  1        2 0.19068978E-01 0.27971523E+03</pdfrwt>
<pdfrwt beam="2">  1       -2 0.20933832E-01 0.27971523E+03</pdfrwt>
<totfact> 0.56630967E+03</totfact>
</mgrwt>
</event>
<event>
 4    1  0.2679255E-004  0.3957076E+03  0.7818608E-02  0.1045276E+00
          2   -1    0    0  501    0  0.00000000000E+00  0.00000000000E+00  0.71400818433E+03  0.71400818433E+03  0.25500000000E-02 0.  1.
         -2   -1    0    0    0  501 -0.00000000000E+00 -0.00000000000E+00 -0.54825882418E+02  0.54825882478E+02  0.25500000000E-02 0. -1.
    5000001    1    1    2    0    0 -0.14258922265E+03 -0.40838930954E+02  0.39157119802E+03  0.43755743373E+03  0.12700000000E+03 0.  0.
   -5000001    1    1    2    0    0  0.14258922265E+03  0.40838930954E+02  0.26761110389E+03  0.33127663307E+03  0.12700000000E+03 0.  0.
<mgrwt>
<rscale>  0 0.39570761E+03</rscale>
<asrwt>0</asrwt>
<pdfrwt beam="1">  1        2 0.10200117E+00 0.39570761E+03</pdfrwt>
<pdfrwt beam="2">  1       -2 0.78322691E-02 0.39570761E+03</pdfrwt>
<totfact> 0.44095796E+03</totfact>
</mgrwt>
</event>
<event>
 4    1  0.2679255E-004  0.3309724E+03  0.7818608E-02  0.1070707E+00
         -2   -1    0    0    0  501 -0.00000000000E+00  0.00000000000E+00  0.69798977596E+02  0.69798977643E+02  0.25500000000E-02 0. -1.
          2   -1    0    0  501    0  0.00000000000E+00 -0.00000000000E+00 -0.39235072819E+03  0.39235072820E+03  0.25500000000E-02 0.  1.
    5000001    1    1    2    0    0 -0.61393555176E+02 -0.79843086385E+02 -0.20785153491E+03  0.26358176649E+03  0.12700000000E+03 0.  0.
   -5000001    1    1    2    0    0  0.61393555176E+02  0.79843086385E+02 -0.11470021568E+03  0.19856793935E+03  0.12700000000E+03 0.  0.
<mgrwt>
<rscale>  0 0.33097238E+03</rscale>
<asrwt>0</asrwt>
<pdfrwt beam="1">  1        2 0.56050102E-01 0.33097238E+03</pdfrwt>
<pdfrwt beam="2">  1       -2 0.99712828E-02 0.33097238E+03</pdfrwt>
<totfact> 0.59073913E+03</totfact>
</mgrwt>
</event>
<event>
 4    1  0.2679255E-004  0.4093465E+03  0.7818608E-02  0.1040591E+00
         -2   -1    0    0    0  501 -0.00000000000E+00  0.00000000000E+00  0.25134034815E+02  0.25134034944E+02  0.25500000000E-02 0. -1.
          2   -1    0    0  501    0  0.00000000000E+00 -0.00000000000E+00 -0.16667096509E+04  0.16667096509E+04  0.25500000000E-02 0.  1.
    5000001    1    1    2    0    0 -0.94345779127E+02  0.10725756966E+02 -0.13556283492E+04  0.13648711988E+04  0.12700000000E+03 0.  0.
   -5000001    1    1    2    0    0  0.94345779127E+02 -0.10725756966E+02 -0.28594726681E+03  0.32697248707E+03  0.12700000000E+03 0.  0.
<mgrwt>
<rscale>  0 0.40934650E+03</rscale>
<asrwt>0</asrwt>
<pdfrwt beam="1">  1        2 0.23810131E+00 0.40934650E+03</pdfrwt>
<pdfrwt beam="2">  1       -2 0.35905775E-02 0.40934650E+03</pdfrwt>
<totfact> 0.41690561E+03</totfact>
</mgrwt>
</event>
<event>
 4    1  0.2679255E-004  0.2979176E+03  0.7818608E-02  0.1086286E+00
          2   -1    0    0  501    0  0.00000000000E+00  0.00000000000E+00  0.14824734852E+04  0.14824734852E+04  0.25500000000E-02 0.  1.
         -2   -1    0    0    0  501 -0.00000000000E+00 -0.00000000000E+00 -0.14967367215E+02  0.14967367432E+02  0.25500000000E-02 0. -1.
    5000001    1    1    2    0    0  0.71047795405E+02 -0.18515157120E+02  0.60373397243E+03  0.62130049875E+03  0.12700000000E+03 0.  0.
   -5000001    1    1    2    0    0 -0.71047795405E+02  0.18515157120E+02  0.86377214554E+03  0.87614035388E+03  0.12700000000E+03 0.  0.
<mgrwt>
<rscale>  0 0.29791761E+03</rscale>
<asrwt>0</asrwt>
<pdfrwt beam="1">  1        2 0.21178187E+00 0.29791761E+03</pdfrwt>
<pdfrwt beam="2">  1       -2 0.21381959E-02 0.29791761E+03</pdfrwt>
<totfact> 0.11174036E+04</totfact>
</mgrwt>
</event>
<event>
 4    1  0.2679255E-004  0.3420903E+03  0.7818608E-02  0.1065909E+00
         -2   -1    0    0    0  501 -0.00000000000E+00  0.00000000000E+00  0.10618310135E+03  0.10618310138E+03  0.25500000000E-02 0. -1.
          2   -1    0    0  501    0  0.00000000000E+00 -0.00000000000E+00 -0.27552819987E+03  0.27552819988E+03  0.25500000000E-02 0.  1.
    5000001    1    1    2    0    0  0.68866378391E+02  0.91567090821E+02 -0.84032934770E+02  0.19057188754E+03  0.12700000000E+03 0.  0.
   -5000001    1    1    2    0    0 -0.68866378391E+02 -0.91567090821E+02 -0.85312163752E+02  0.19113941372E+03  0.12700000000E+03 0.  0.
<mgrwt>
<rscale>  0 0.34209027E+03</rscale>
<asrwt>0</asrwt>
<pdfrwt beam="1">  1        2 0.39361171E-01 0.34209027E+03</pdfrwt>
<pdfrwt beam="2">  1       -2 0.15169015E-01 0.34209027E+03</pdfrwt>
<totfact> 0.43821232E+03</totfact>
</mgrwt>
</event>
<event>
 4    1  0.2679255E-004  0.5568934E+03  0.7818608E-02  0.9999109E-01
          2   -1    0    0  501    0  0.00000000000E+00  0.00000000000E+00  0.78205497983E+03  0.78205497984E+03  0.25500000000E-02 0.  1.
         -2   -1    0    0    0  501 -0.00000000000E+00 -0.00000000000E+00 -0.99139538109E+02  0.99139538141E+02  0.25500000000E-02 0. -1.
    5000001    1    1    2    0    0  0.17311147703E+03  0.90537563956E+02  0.10024077299E+03  0.25365694656E+03  0.12700000000E+03 0.  0.
   -5000001    1    1    2    0    0 -0.17311147703E+03 -0.90537563956E+02  0.58267466873E+03  0.62753757142E+03  0.12700000000E+03 0.  0.
<mgrwt>
<rscale>  0 0.55689342E+03</rscale>
<asrwt>0</asrwt>
<pdfrwt beam="1">  1        2 0.11172214E+00 0.55689342E+03</pdfrwt>
<pdfrwt beam="2">  1       -2 0.14162792E-01 0.55689342E+03</pdfrwt>
<totfact> 0.15123239E+03</totfact>
</mgrwt>
</event>
<event>
 4    1  0.2679255E-004  0.5282208E+03  0.7818608E-02  0.1006665E+00
          2   -1    0    0  501    0  0.00000000000E+00  0.00000000000E+00  0.93163625783E+03  0.93163625784E+03  0.25500000000E-02 0.  1.
         -2   -1    0    0    0  501 -0.00000000000E+00 -0.00000000000E+00 -0.74872885535E+02  0.74872885578E+02  0.25500000000E-02 0. -1.
    5000001    1    1    2    0    0 -0.25918581757E+02  0.18396945615E+03  0.69178335322E+03  0.72746803467E+03  0.12700000000E+03 0.  0.
   -5000001    1    1    2    0    0  0.25918581757E+02 -0.18396945615E+03  0.16498001908E+03  0.27904110875E+03  0.12700000000E+03 0.  0.
<mgrwt>
<rscale>  0 0.52822077E+03</rscale>
<asrwt>0</asrwt>
<pdfrwt beam="1">  1        2 0.13309089E+00 0.52822077E+03</pdfrwt>
<pdfrwt beam="2">  1       -2 0.10696127E-01 0.52822077E+03</pdfrwt>
<totfact> 0.19112110E+03</totfact>
</mgrwt>
</event>
<event>
 4    1  0.2679255E-004  0.3424802E+03  0.7818608E-02  0.1065744E+00
         -2   -1    0    0    0  501 -0.00000000000E+00  0.00000000000E+00  0.24454589927E+02  0.24454590060E+02  0.25500000000E-02 0. -1.
          2   -1    0    0  501    0  0.00000000000E+00 -0.00000000000E+00 -0.11990865399E+04  0.11990865399E+04  0.25500000000E-02 0.  1.
    5000001    1    1    2    0    0  0.67756684616E+02  0.89000467063E+02 -0.68062270218E+03  0.70134749887E+03  0.12700000000E+03 0.  0.
   -5000001    1    1    2    0    0 -0.67756684616E+02 -0.89000467063E+02 -0.49400924777E+03  0.52219363107E+03  0.12700000000E+03 0.  0.
<mgrwt>
<rscale>  0 0.34248019E+03</rscale>
<asrwt>0</asrwt>
<pdfrwt beam="1">  1        2 0.17129804E+00 0.34248019E+03</pdfrwt>
<pdfrwt beam="2">  1       -2 0.34935136E-02 0.34248019E+03</pdfrwt>
<totfact> 0.75971828E+03</totfact>
</mgrwt>
</event>
<event>
 4    1  0.2679255E-004  0.1236730E+04  0.7818608E-02  0.9081300E-01
          2   -1    0    0  501    0  0.00000000000E+00  0.00000000000E+00  0.16882597145E+04  0.16882597145E+04  0.25500000000E-02 0.  1.
         -2   -1    0    0    0  501 -0.00000000000E+00 -0.00000000000E+00 -0.22649089444E+03  0.22649089445E+03  0.25500000000E-02 0. -1.
    5000001    1    1    2    0    0  0.27400187580E+03 -0.41287747362E+03  0.19299404882E+03  0.54673626096E+03  0.12700000000E+03 0.  0.
   -5000001    1    1    2    0    0 -0.27400187580E+03  0.41287747362E+03  0.12687747713E+04  0.13680143480E+04  0.12700000000E+03 0.  0.
<mgrwt>
<rscale>  0 0.12367303E+04</rscale>
<asrwt>0</asrwt>
<pdfrwt beam="1">  1        2 0.24117996E+00 0.12367303E+04</pdfrwt>
<pdfrwt beam="2">  1       -2 0.32355841E-01 0.12367303E+04</pdfrwt>
<totfact> 0.10182757E+02</totfact>
</mgrwt>
</event>
<event>
 4    1  0.2679255E-004  0.6162255E+03  0.7818608E-02  0.9872304E-01
         -2   -1    0    0    0  501 -0.00000000000E+00  0.00000000000E+00  0.11350712085E+03  0.11350712087E+03  0.25500000000E-02 0. -1.
          2   -1    0    0  501    0  0.00000000000E+00 -0.00000000000E+00 -0.83636581278E+03  0.83636581278E+03  0.25500000000E-02 0.  1.
    5000001    1    1    2    0    0 -0.23867950546E+02 -0.27177377225E+03 -0.46337199978E+03  0.55251540479E+03  0.12700000000E+03 0.  0.
   -5000001    1    1    2    0    0  0.23867950546E+02  0.27177377225E+03 -0.25948669215E+03  0.39735752887E+03  0.12700000000E+03 0.  0.
<mgrwt>
<rscale>  0 0.61622553E+03</rscale>
<asrwt>0</asrwt>
<pdfrwt beam="1">  1        2 0.11948083E+00 0.61622553E+03</pdfrwt>
<pdfrwt beam="2">  1       -2 0.16215303E-01 0.61622553E+03</pdfrwt>
<totfact> 0.11038365E+03</totfact>
</mgrwt>
</event>
<event>
 4    1  0.2679255E-004  0.4680906E+03  0.7818608E-02  0.1022461E+00
          2   -1    0    0  501    0  0.00000000000E+00  0.00000000000E+00  0.23090600153E+04  0.23090600153E+04  0.25500000000E-02 0.  1.
         -2   -1    0    0    0  501 -0.00000000000E+00 -0.00000000000E+00 -0.23722730250E+02  0.23722730387E+02  0.25500000000E-02 0. -1.
    5000001    1    1    2    0    0 -0.41114822695E+02  0.12705892028E+03  0.42368311752E+03  0.46202898388E+03  0.12700000000E+03 0.  0.
   -5000001    1    1    2    0    0  0.41114822695E+02 -0.12705892028E+03  0.18616541675E+04  0.18707537618E+04  0.12700000000E+03 0.  0.
<mgrwt>
<rscale>  0 0.46809062E+03</rscale>
<asrwt>0</asrwt>
<pdfrwt beam="1">  1        2 0.32986566E+00 0.46809062E+03</pdfrwt>
<pdfrwt beam="2">  1       -2 0.33889620E-02 0.46809062E+03</pdfrwt>
<totfact> 0.21736890E+03</totfact>
</mgrwt>
</event>
<event>
 4    1  0.2679255E-004  0.4086096E+03  0.7818608E-02  0.1040839E+00
          2   -1    0    0  501    0  0.00000000000E+00  0.00000000000E+00  0.22659875556E+03  0.22659875557E+03  0.25500000000E-02 0. -1.
         -2   -1    0    0    0  501 -0.00000000000E+00 -0.00000000000E+00 -0.18420425889E+03  0.18420425891E+03  0.25500000000E-02 0.  1.
    5000001    1    1    2    0    0 -0.62871974872E+02 -0.10039620299E+03  0.12938143998E+03  0.21656601721E+03  0.12700000000E+03 0.  0.
   -5000001    1    1    2    0    0  0.62871974872E+02  0.10039620299E+03 -0.86986943314E+02  0.19423699727E+03  0.12700000000E+03 0.  0.
<mgrwt>
<rscale>  0 0.40860962E+03</rscale>
<asrwt>0</asrwt>
<pdfrwt beam="1">  1        2 0.32371251E-01 0.40860962E+03</pdfrwt>
<pdfrwt beam="2">  1       -2 0.26314894E-01 0.40860962E+03</pdfrwt>
<totfact> 0.21071398E+03</totfact>
</mgrwt>
</event>
<event>
 4    1  0.2679255E-004  0.5642105E+03  0.7818608E-02  0.9982572E-01
          2   -1    0    0  501    0  0.00000000000E+00  0.00000000000E+00  0.25413376214E+04  0.25413376214E+04  0.25500000000E-02 0.  1.
         -2   -1    0    0    0  501 -0.00000000000E+00 -0.00000000000E+00 -0.31315544676E+02  0.31315544780E+02  0.25500000000E-02 0. -1.
    5000001    1    1    2    0    0 -0.35339220043E+02 -0.22451971424E+03  0.75977185939E+03  0.80314397269E+03  0.12700000000E+03 0.  0.
   -5000001    1    1    2    0    0  0.35339220043E+02  0.22451971424E+03  0.17502502173E+04  0.17695091935E+04  0.12700000000E+03 0.  0.
<mgrwt>
<rscale>  0 0.56421050E+03</rscale>
<asrwt>0</asrwt>
<pdfrwt beam="1">  1        2 0.36304837E+00 0.56421050E+03</pdfrwt>
<pdfrwt beam="2">  1       -2 0.44736475E-02 0.56421050E+03</pdfrwt>
<totfact> 0.10769912E+03</totfact>
</mgrwt>
</event>
<event>
 4    1  0.2679255E-004  0.4336837E+03  0.7818608E-02  0.1032703E+00
          2   -1    0    0  501    0  0.00000000000E+00  0.00000000000E+00  0.10489454106E+04  0.10489454106E+04  0.25500000000E-02 0.  1.
         -2   -1    0    0    0  501 -0.00000000000E+00 -0.00000000000E+00 -0.44826335560E+02  0.44826335632E+02  0.25500000000E-02 0. -1.
    5000001    1    1    2    0    0  0.32697377545E+02 -0.89654058388E+02  0.12981653154E+03  0.20515433348E+03  0.12700000000E+03 0.  0.
   -5000001    1    1    2    0    0 -0.32697377545E+02  0.89654058388E+02  0.87430254350E+03  0.88861741276E+03  0.12700000000E+03 0.  0.
<mgrwt>
<rscale>  0 0.43368366E+03</rscale>
<asrwt>0</asrwt>
<pdfrwt beam="1">  1        2 0.14984934E+00 0.43368366E+03</pdfrwt>
<pdfrwt beam="2">  1       -2 0.64037626E-02 0.43368366E+03</pdfrwt>
<totfact> 0.36658706E+03</totfact>
</mgrwt>
</event>
<event>
 4    1  0.2679255E-004  0.3320319E+03  0.7818608E-02  0.1070241E+00
          2   -1    0    0  501    0  0.00000000000E+00  0.00000000000E+00  0.60049079916E+02  0.60049079970E+02  0.25500000000E-02 0.  1.
         -2   -1    0    0    0  501 -0.00000000000E+00 -0.00000000000E+00 -0.45897944367E+03  0.45897944368E+03  0.25500000000E-02 0. -1.
    5000001    1    1    2    0    0  0.10585569436E+02 -0.93136235860E+02 -0.11905768283E+03  0.19771227719E+03  0.12700000000E+03 0.  0.
   -5000001    1    1    2    0    0 -0.10585569436E+02  0.93136235860E+02 -0.27987268092E+03  0.32131624646E+03  0.12700000000E+03 0.  0.
<mgrwt>
<rscale>  0 0.33203189E+03</rscale>
<asrwt>0</asrwt>
<pdfrwt beam="1">  1        2 0.85784403E-02 0.33203189E+03</pdfrwt>
<pdfrwt beam="2">  1       -2 0.65568490E-01 0.33203189E+03</pdfrwt>
<totfact> 0.17143018E+03</totfact>
</mgrwt>
</event>
<event>
 4    1  0.2679255E-004  0.4551685E+03  0.7818608E-02  0.1026192E+00
          2   -1    0    0  501    0  0.00000000000E+00  0.00000000000E+00  0.59597473968E+03  0.59597473968E+03  0.25500000000E-02 0.  1.
         -2   -1    0    0    0  501 -0.00000000000E+00 -0.00000000000E+00 -0.86907341378E+02  0.86907341415E+02  0.25500000000E-02 0. -1.
    5000001    1    1    2    0    0 -0.81127120396E+02 -0.91656356879E+02  0.38768599886E+02  0.18059485529E+03  0.12700000000E+03 0.  0.
   -5000001    1    1    2    0    0  0.81127120396E+02  0.91656356879E+02  0.47029879841E+03  0.50228722581E+03  0.12700000000E+03 0.  0.
<mgrwt>
<rscale>  0 0.45516845E+03</rscale>
<asrwt>0</asrwt>
<pdfrwt beam="1">  1        2 0.85139250E-01 0.45516845E+03</pdfrwt>
<pdfrwt beam="2">  1       -2 0.12415334E-01 0.45516845E+03</pdfrwt>
<totfact> 0.26113616E+03</totfact>
</mgrwt>
</event>
<event>
 4    1  0.2679255E-004  0.6733286E+03  0.7818608E-02  0.9763963E-01
         -2   -1    0    0    0  501 -0.00000000000E+00  0.00000000000E+00  0.14145178395E+03  0.14145178398E+03  0.25500000000E-02 0. -1.
          2   -1    0    0  501    0  0.00000000000E+00 -0.00000000000E+00 -0.80128253632E+03  0.80128253633E+03  0.25500000000E-02 0.  1.
    5000001    1    1    2    0    0  0.23790803491E+03 -0.10012390695E+02 -0.48102120276E+02  0.27412277362E+03  0.12700000000E+03 0.  0.
   -5000001    1    1    2    0    0 -0.23790803491E+03  0.10012390695E+02 -0.61172863209E+03  0.66861154669E+03  0.12700000000E+03 0.  0.
<mgrwt>
<rscale>  0 0.67332858E+03</rscale>
<asrwt>0</asrwt>
<pdfrwt beam="1">  1        2 0.11446893E+00 0.67332858E+03</pdfrwt>
<pdfrwt beam="2">  1       -2 0.20207398E-01 0.67332858E+03</pdfrwt>
<totfact> 0.79751064E+02</totfact>
</mgrwt>
</event>
<event>
 4    1  0.2679255E-004  0.3984380E+03  0.7818608E-02  0.1044322E+00
         -2   -1    0    0    0  501 -0.00000000000E+00  0.00000000000E+00  0.15189427991E+02  0.15189428205E+02  0.25500000000E-02 0. -1.
          2   -1    0    0  501    0  0.00000000000E+00 -0.00000000000E+00 -0.26128838766E+04  0.26128838766E+04  0.25500000000E-02 0.  1.
    5000001    1    1    2    0    0 -0.25467927786E+02 -0.15094762357E+03 -0.12249811248E+04  0.12410243980E+04  0.12700000000E+03 0.  0.
   -5000001    1    1    2    0    0  0.25467927786E+02  0.15094762357E+03 -0.13727133238E+04  0.13870489068E+04  0.12700000000E+03 0.  0.
<mgrwt>
<rscale>  0 0.39843801E+03</rscale>
<asrwt>0</asrwt>
<pdfrwt beam="1">  1        2 0.37326884E+00 0.39843801E+03</pdfrwt>
<pdfrwt beam="2">  1       -2 0.21699200E-02 0.39843801E+03</pdfrwt>
<totfact> 0.29932280E+03</totfact>
</mgrwt>
</event>
<event>
 4    1  0.2679255E-004  0.5884228E+03  0.7818608E-02  0.9929720E-01
         -2   -1    0    0    0  501 -0.00000000000E+00  0.00000000000E+00  0.19388770709E+03  0.19388770710E+03  0.25500000000E-02 0. -1.
          2   -1    0    0  501    0  0.00000000000E+00 -0.00000000000E+00 -0.44644580562E+03  0.44644580563E+03  0.25500000000E-02 0.  1.
    5000001    1    1    2    0    0  0.23913511176E+03  0.98708723060E+02 -0.19068053282E+03  0.34556776366E+03  0.12700000000E+03 0.  0.
   -5000001    1    1    2    0    0 -0.23913511176E+03 -0.98708723060E+02 -0.61877565710E+02  0.29476574907E+03  0.12700000000E+03 0.  0.
<mgrwt>
<rscale>  0 0.58842282E+03</rscale>
<asrwt>0</asrwt>
<pdfrwt beam="1">  1        2 0.63777972E-01 0.58842282E+03</pdfrwt>
<pdfrwt beam="2">  1       -2 0.27698244E-01 0.58842282E+03</pdfrwt>
<totfact> 0.91063586E+02</totfact>
</mgrwt>
</event>
<event>
 4    1  0.2679255E-004  0.2981681E+03  0.7818608E-02  0.1086160E+00
          2   -1    0    0  501    0  0.00000000000E+00  0.00000000000E+00  0.53076587293E+03  0.53076587294E+03  0.25500000000E-02 0.  1.
         -2   -1    0    0    0  501 -0.00000000000E+00 -0.00000000000E+00 -0.41875449762E+02  0.41875449840E+02  0.25500000000E-02 0. -1.
    5000001    1    1    2    0    0 -0.67563793020E+02 -0.39142722564E+02  0.24483320867E+03  0.28665191247E+03  0.12700000000E+03 0.  0.
   -5000001    1    1    2    0    0  0.67563793020E+02  0.39142722564E+02  0.24405721450E+03  0.28598941030E+03  0.12700000000E+03 0.  0.
<mgrwt>
<rscale>  0 0.29816814E+03</rscale>
<asrwt>0</asrwt>
<pdfrwt beam="1">  1        2 0.75823694E-01 0.29816814E+03</pdfrwt>
<pdfrwt beam="2">  1       -2 0.59822073E-02 0.29816814E+03</pdfrwt>
<totfact> 0.93915371E+03</totfact>
</mgrwt>
</event>
<event>
 4    1  0.2679255E-004  0.4596156E+03  0.7818608E-02  0.1024893E+00
         -2   -1    0    0    0  501 -0.00000000000E+00  0.00000000000E+00  0.29151699318E+02  0.29151699429E+02  0.25500000000E-02 0. -1.
          2   -1    0    0  501    0  0.00000000000E+00 -0.00000000000E+00 -0.18116141202E+04  0.18116141202E+04  0.25500000000E-02 0.  1.
    5000001    1    1    2    0    0  0.12524928647E+03 -0.14188676460E+03 -0.10089126282E+04  0.10343369514E+04  0.12700000000E+03 0.  0.
   -5000001    1    1    2    0    0 -0.12524928647E+03  0.14188676460E+03 -0.77354979270E+03  0.80642886823E+03  0.12700000000E+03 0.  0.
<mgrwt>
<rscale>  0 0.45961562E+03</rscale>
<asrwt>0</asrwt>
<pdfrwt beam="1">  1        2 0.25880195E+00 0.45961562E+03</pdfrwt>
<pdfrwt beam="2">  1       -2 0.41645296E-02 0.45961562E+03</pdfrwt>
<totfact> 0.28126032E+03</totfact>
</mgrwt>
</event>
<event>
 4    1  0.2679255E-004  0.4499961E+03  0.7818608E-02  0.1027723E+00
         -2   -1    0    0    0  501 -0.00000000000E+00  0.00000000000E+00  0.54455837377E+02  0.54455837437E+02  0.25500000000E-02 0. -1.
          2   -1    0    0  501    0  0.00000000000E+00 -0.00000000000E+00 -0.92963642295E+03  0.92963642295E+03  0.25500000000E-02 0.  1.
    5000001    1    1    2    0    0  0.17685141286E+03  0.40006629952E+02 -0.52556140386E+03  0.57028128314E+03  0.12700000000E+03 0.  0.
   -5000001    1    1    2    0    0 -0.17685141286E+03 -0.40006629952E+02 -0.34961918171E+03  0.41381097724E+03  0.12700000000E+03 0.  0.
<mgrwt>
<rscale>  0 0.44999613E+03</rscale>
<asrwt>0</asrwt>
<pdfrwt beam="1">  1        2 0.13280519E+00 0.44999613E+03</pdfrwt>
<pdfrwt beam="2">  1       -2 0.77794059E-02 0.44999613E+03</pdfrwt>
<totfact> 0.31912145E+03</totfact>
</mgrwt>
</event>
<event>
 4    1  0.2679255E-004  0.3203222E+03  0.7818608E-02  0.1075501E+00
          2   -1    0    0  501    0  0.00000000000E+00  0.00000000000E+00  0.13577499267E+03  0.13577499269E+03  0.25500000000E-02 0.  1.
         -2   -1    0    0    0  501 -0.00000000000E+00 -0.00000000000E+00 -0.18892711653E+03  0.18892711655E+03  0.25500000000E-02 0. -1.
    5000001    1    1    2    0    0  0.64821028692E+01 -0.89683716325E+02 -0.65007405543E+02  0.16864207484E+03  0.12700000000E+03 0.  0.
   -5000001    1    1    2    0    0 -0.64821028692E+01  0.89683716325E+02  0.11855281680E+02  0.15606003439E+03  0.12700000000E+03 0.  0.
<mgrwt>
<rscale>  0 0.32032220E+03</rscale>
<asrwt>0</asrwt>
<pdfrwt beam="1">  1        2 0.19396428E-01 0.32032220E+03</pdfrwt>
<pdfrwt beam="2">  1       -2 0.26989588E-01 0.32032220E+03</pdfrwt>
<totfact> 0.35699560E+03</totfact>
</mgrwt>
</event>
<event>
 4    1  0.2679255E-004  0.1008905E+04  0.7818608E-02  0.9298832E-01
         -2   -1    0    0    0  501 -0.00000000000E+00  0.00000000000E+00  0.65488237695E+03  0.65488237696E+03  0.25500000000E-02 0. -1.
          2   -1    0    0  501    0  0.00000000000E+00 -0.00000000000E+00 -0.38857690297E+03  0.38857690298E+03  0.25500000000E-02 0.  1.
    5000001    1    1    2    0    0  0.35981718645E+03  0.29951472933E+02  0.47300669942E+03  0.60846514780E+03  0.12700000000E+03 0.  0.
   -5000001    1    1    2    0    0 -0.35981718645E+03 -0.29951472933E+02 -0.20670122544E+03  0.43499413214E+03  0.12700000000E+03 0.  0.
<mgrwt>
<rscale>  0 0.10089047E+04</rscale>
<asrwt>0</asrwt>
<pdfrwt beam="1">  1        2 0.55510986E-01 0.10089047E+04</pdfrwt>
<pdfrwt beam="2">  1       -2 0.93554625E-01 0.10089047E+04</pdfrwt>
<totfact> 0.86191450E+01</totfact>
</mgrwt>
</event>
<event>
 4    1  0.2679255E-004  0.4102334E+03  0.7818608E-02  0.1040293E+00
          2   -1    0    0  501    0  0.00000000000E+00  0.00000000000E+00  0.16523575373E+04  0.16523575373E+04  0.25500000000E-02 0.  1.
         -2   -1    0    0    0  501 -0.00000000000E+00 -0.00000000000E+00 -0.25462322046E+02  0.25462322174E+02  0.25500000000E-02 0. -1.
    5000001    1    1    2    0    0 -0.11577705293E+03 -0.86731568298E+02  0.52375081943E+03  0.55800592450E+03  0.12700000000E+03 0.  0.
   -5000001    1    1    2    0    0  0.11577705293E+03  0.86731568298E+02  0.11031443958E+04  0.11198139350E+04  0.12700000000E+03 0.  0.
<mgrwt>
<rscale>  0 0.41023340E+03</rscale>
<asrwt>0</asrwt>
<pdfrwt beam="1">  1        2 0.23605113E+00 0.41023340E+03</pdfrwt>
<pdfrwt beam="2">  1       -2 0.36374738E-02 0.41023340E+03</pdfrwt>
<totfact> 0.41563968E+03</totfact>
</mgrwt>
</event>
<event>
 4    1  0.2679255E-004  0.3996326E+03  0.7818608E-02  0.1043907E+00
          2   -1    0    0  501    0  0.00000000000E+00  0.00000000000E+00  0.80131183737E+03  0.80131183737E+03  0.25500000000E-02 0.  1.
         -2   -1    0    0    0  501 -0.00000000000E+00 -0.00000000000E+00 -0.49826477139E+02  0.49826477204E+02  0.25500000000E-02 0. -1.
    5000001    1    1    2    0    0 -0.33629201962E+02  0.15052763091E+03  0.38178737413E+03  0.43090612659E+03  0.12700000000E+03 0.  0.
   -5000001    1    1    2    0    0  0.33629201962E+02 -0.15052763091E+03  0.36969798610E+03  0.42023218799E+03  0.12700000000E+03 0.  0.
<mgrwt>
<rscale>  0 0.39963256E+03</rscale>
<asrwt>0</asrwt>
<pdfrwt beam="1">  1        2 0.11447311E+00 0.39963256E+03</pdfrwt>
<pdfrwt beam="2">  1       -2 0.71180688E-02 0.39963256E+03</pdfrwt>
<totfact> 0.44448177E+03</totfact>
</mgrwt>
</event>
<event>
 4    1  0.2679255E-004  0.4970912E+03  0.7818608E-02  0.1014541E+00
          2   -1    0    0  501    0  0.00000000000E+00  0.00000000000E+00  0.44820263362E+03  0.44820263363E+03  0.25500000000E-02 0.  1.
         -2   -1    0    0    0  501 -0.00000000000E+00 -0.00000000000E+00 -0.13782808168E+03  0.13782808170E+03  0.25500000000E-02 0. -1.
    5000001    1    1    2    0    0  0.19947234910E+03 -0.55308101665E+02  0.21754428673E+03  0.32604098033E+03  0.12700000000E+03 0.  0.
   -5000001    1    1    2    0    0 -0.19947234910E+03  0.55308101665E+02  0.92830265215E+02  0.25998973500E+03  0.12700000000E+03 0.  0.
<mgrwt>
<rscale>  0 0.49709118E+03</rscale>
<asrwt>0</asrwt>
<pdfrwt beam="1">  1        2 0.64028947E-01 0.49709118E+03</pdfrwt>
<pdfrwt beam="2">  1       -2 0.19689726E-01 0.49709118E+03</pdfrwt>
<totfact> 0.16619900E+03</totfact>
</mgrwt>
</event>
<event>
 4    1  0.2679255E-004  0.1233510E+04  0.7818608E-02  0.9084021E-01
          2   -1    0    0  501    0  0.00000000000E+00  0.00000000000E+00  0.37109489692E+03  0.37109489693E+03  0.25500000000E-02 0.  1.
         -2   -1    0    0    0  501 -0.00000000000E+00 -0.00000000000E+00 -0.10250388524E+04  0.10250388524E+04  0.25500000000E-02 0. -1.
    5000001    1    1    2    0    0  0.31734384365E+03 -0.26957497089E+03  0.16752595801E+03  0.46644584535E+03  0.12700000000E+03 0.  0.
   -5000001    1    1    2    0    0 -0.31734384365E+03  0.26957497089E+03 -0.82146991345E+03  0.92968790395E+03  0.12700000000E+03 0.  0.
<mgrwt>
<rscale>  0 0.12335099E+04</rscale>
<asrwt>0</asrwt>
<pdfrwt beam="1">  1        2 0.53013557E-01 0.12335099E+04</pdfrwt>
<pdfrwt beam="2">  1       -2 0.14643412E+00 0.12335099E+04</pdfrwt>
<totfact> 0.29579884E+01</totfact>
</mgrwt>
</event>
<event>
 4    1  0.2679255E-004  0.3624194E+03  0.7818608E-02  0.1057630E+00
          2   -1    0    0  501    0  0.00000000000E+00  0.00000000000E+00  0.24870449671E+04  0.24870449671E+04  0.25500000000E-02 0.  1.
         -2   -1    0    0    0  501 -0.00000000000E+00 -0.00000000000E+00 -0.13203204076E+02  0.13203204322E+02  0.25500000000E-02 0. -1.
    5000001    1    1    2    0    0  0.70975272310E+02  0.77749837091E+02  0.17543486500E+04  0.17620870331E+04  0.12700000000E+03 0.  0.
   -5000001    1    1    2    0    0 -0.70975272310E+02 -0.77749837091E+02  0.71949311298E+03  0.73816113828E+03  0.12700000000E+03 0.  0.
<mgrwt>
<rscale>  0 0.36241944E+03</rscale>
<asrwt>0</asrwt>
<pdfrwt beam="1">  1        2 0.35529206E+00 0.36241944E+03</pdfrwt>
<pdfrwt beam="2">  1       -2 0.18861724E-02 0.36241944E+03</pdfrwt>
<totfact> 0.42771171E+03</totfact>
</mgrwt>
</event>
<event>
 4    1  0.2679255E-004  0.5579438E+03  0.7818608E-02  0.9996718E-01
          2   -1    0    0  501    0  0.00000000000E+00  0.00000000000E+00  0.32365137037E+04  0.32365137037E+04  0.25500000000E-02 0.  1.
         -2   -1    0    0    0  501 -0.00000000000E+00 -0.00000000000E+00 -0.24046033047E+02  0.24046033182E+02  0.25500000000E-02 0. -1.
    5000001    1    1    2    0    0 -0.23241015790E+03 -0.54100358533E+02  0.20092071749E+04  0.20273094983E+04  0.12700000000E+03 0.  0.
   -5000001    1    1    2    0    0  0.23241015790E+03  0.54100358533E+02  0.12032604957E+04  0.12332502386E+04  0.12700000000E+03 0.  0.
<mgrwt>
<rscale>  0 0.55794378E+03</rscale>
<asrwt>0</asrwt>
<pdfrwt beam="1">  1        2 0.46235917E+00 0.55794378E+03</pdfrwt>
<pdfrwt beam="2">  1       -2 0.34351471E-02 0.55794378E+03</pdfrwt>
<totfact> 0.68503581E+02</totfact>
</mgrwt>
</event>
<event>
 4    1  0.2679255E-004  0.3783496E+03  0.7818608E-02  0.1051545E+00
          2   -1    0    0  501    0  0.00000000000E+00  0.00000000000E+00  0.35448599838E+03  0.35448599839E+03  0.25500000000E-02 0.  1.
         -2   -1    0    0    0  501 -0.00000000000E+00 -0.00000000000E+00 -0.10095492014E+03  0.10095492017E+03  0.25500000000E-02 0. -1.
    5000001    1    1    2    0    0 -0.10184673980E+03 -0.31249424763E+02  0.23649126363E+03  0.28880166677E+03  0.12700000000E+03 0.  0.
   -5000001    1    1    2    0    0  0.10184673980E+03  0.31249424763E+02  0.17039814615E+02  0.16663925179E+03  0.12700000000E+03 0.  0.
<mgrwt>
<rscale>  0 0.37834960E+03</rscale>
<asrwt>0</asrwt>
<pdfrwt beam="1">  1        2 0.50640857E-01 0.37834960E+03</pdfrwt>
<pdfrwt beam="2">  1       -2 0.14422131E-01 0.37834960E+03</pdfrwt>
<totfact> 0.36326778E+03</totfact>
</mgrwt>
</event>
<event>
 4    1  0.2679255E-004  0.3077211E+03  0.7818608E-02  0.1081443E+00
         -2   -1    0    0    0  501 -0.00000000000E+00  0.00000000000E+00  0.39690661969E+02  0.39690662051E+02  0.25500000000E-02 0. -1.
          2   -1    0    0  501    0  0.00000000000E+00 -0.00000000000E+00 -0.59643907478E+03  0.59643907478E+03  0.25500000000E-02 0.  1.
    5000001    1    1    2    0    0 -0.49204287887E+02 -0.69480833990E+02 -0.24284351574E+03  0.28696797970E+03  0.12700000000E+03 0.  0.
   -5000001    1    1    2    0    0  0.49204287887E+02  0.69480833990E+02 -0.31390489707E+03  0.34916175713E+03  0.12700000000E+03 0.  0.
<mgrwt>
<rscale>  0 0.30772105E+03</rscale>
<asrwt>0</asrwt>
<pdfrwt beam="1">  1        2 0.85205577E-01 0.30772105E+03</pdfrwt>
<pdfrwt beam="2">  1       -2 0.56700949E-02 0.30772105E+03</pdfrwt>
<totfact> 0.89453357E+03</totfact>
</mgrwt>
</event>
<event>
 4    1  0.2679255E-004  0.3027212E+03  0.7818608E-02  0.1083888E+00
          2   -1    0    0  501    0  0.00000000000E+00  0.00000000000E+00  0.12449421628E+04  0.12449421628E+04  0.25500000000E-02 0.  1.
         -2   -1    0    0    0  501 -0.00000000000E+00 -0.00000000000E+00 -0.18402488393E+02  0.18402488570E+02  0.25500000000E-02 0. -1.
    5000001    1    1    2    0    0  0.35382397888E+02  0.54073678791E+02  0.82627784748E+03  0.83847478081E+03  0.12700000000E+03 0.  0.
   -5000001    1    1    2    0    0 -0.35382397888E+02 -0.54073678791E+02  0.40026182696E+03  0.42486987060E+03  0.12700000000E+03 0.  0.
<mgrwt>
<rscale>  0 0.30272122E+03</rscale>
<asrwt>0</asrwt>
<pdfrwt beam="1">  1        2 0.17784895E+00 0.30272122E+03</pdfrwt>
<pdfrwt beam="2">  1       -2 0.26289258E-02 0.30272122E+03</pdfrwt>
<totfact> 0.10945592E+04</totfact>
</mgrwt>
</event>
<event>
 4    1  0.2679255E-004  0.5091443E+03  0.7818608E-02  0.1011419E+00
          2   -1    0    0  501    0  0.00000000000E+00  0.00000000000E+00  0.38114537191E+03  0.38114537192E+03  0.25500000000E-02 0.  1.
         -2   -1    0    0    0  501 -0.00000000000E+00 -0.00000000000E+00 -0.17003215637E+03  0.17003215638E+03  0.25500000000E-02 0. -1.
    5000001    1    1    2    0    0 -0.14044826780E+03  0.12304406965E+03 -0.21672179834E+02  0.22685731724E+03  0.12700000000E+03 0.  0.
   -5000001    1    1    2    0    0  0.14044826780E+03 -0.12304406965E+03  0.23278539538E+03  0.32432021107E+03  0.12700000000E+03 0.  0.
<mgrwt>
<rscale>  0 0.50914426E+03</rscale>
<asrwt>0</asrwt>
<pdfrwt beam="1">  1        2 0.54449338E-01 0.50914426E+03</pdfrwt>
<pdfrwt beam="2">  1       -2 0.24290309E-01 0.50914426E+03</pdfrwt>
<totfact> 0.13757452E+03</totfact>
</mgrwt>
</event>
<event>
 4    1  0.2679255E-004  0.3558587E+03  0.7818608E-02  0.1060236E+00
          2   -1    0    0  501    0  0.00000000000E+00  0.00000000000E+00  0.16928189105E+04  0.16928189105E+04  0.25500000000E-02 0.  1.
         -2   -1    0    0    0  501 -0.00000000000E+00 -0.00000000000E+00 -0.18701858675E+02  0.18701858849E+02  0.25500000000E-02 0. -1.
    5000001    1    1    2    0    0 -0.12403233942E+03  0.10177341675E+02  0.80579249619E+03  0.82517764537E+03  0.12700000000E+03 0.  0.
   -5000001    1    1    2    0    0  0.12403233942E+03 -0.10177341675E+02  0.86832455566E+03  0.88634312400E+03  0.12700000000E+03 0.  0.
<mgrwt>
<rscale>  0 0.35585874E+03</rscale>
<asrwt>0</asrwt>
<pdfrwt beam="1">  1        2 0.24183142E+00 0.35585874E+03</pdfrwt>
<pdfrwt beam="2">  1       -2 0.26716925E-02 0.35585874E+03</pdfrwt>
<totfact> 0.63083576E+03</totfact>
</mgrwt>
</event>
<event>
 4    1  0.2679255E-004  0.3546934E+03  0.7818608E-02  0.1060705E+00
          2   -1    0    0  501    0  0.00000000000E+00  0.00000000000E+00  0.18818696749E+04  0.18818696749E+04  0.25500000000E-02 0.  1.
         -2   -1    0    0    0  501 -0.00000000000E+00 -0.00000000000E+00 -0.16713090928E+02  0.16713091123E+02  0.25500000000E-02 0. -1.
    5000001    1    1    2    0    0 -0.11255710634E+03 -0.50998139321E+02  0.97152727665E+03  0.98755463731E+03  0.12700000000E+03 0.  0.
   -5000001    1    1    2    0    0  0.11255710634E+03  0.50998139321E+02  0.89362930735E+03  0.91102812874E+03  0.12700000000E+03 0.  0.
<mgrwt>
<rscale>  0 0.35469344E+03</rscale>
<asrwt>0</asrwt>
<pdfrwt beam="1">  1        2 0.26883858E+00 0.35469344E+03</pdfrwt>
<pdfrwt beam="2">  1       -2 0.23875839E-02 0.35469344E+03</pdfrwt>
<totfact> 0.60125256E+03</totfact>
</mgrwt>
</event>
<event>
 4    1  0.2679255E-004  0.3715600E+03  0.7818608E-02  0.1054098E+00
          2   -1    0    0  501    0  0.00000000000E+00  0.00000000000E+00  0.11698271831E+03  0.11698271833E+03  0.25500000000E-02 0.  1.
         -2   -1    0    0    0  501 -0.00000000000E+00 -0.00000000000E+00 -0.29503678975E+03  0.29503678977E+03  0.25500000000E-02 0. -1.
    5000001    1    1    2    0    0 -0.87325931013E+02 -0.39757353947E+02 -0.19526515707E+03  0.25192051720E+03  0.12700000000E+03 0.  0.
   -5000001    1    1    2    0    0  0.87325931013E+02  0.39757353947E+02  0.17211085616E+02  0.16009899090E+03  0.12700000000E+03 0.  0.
<mgrwt>
<rscale>  0 0.37155999E+03</rscale>
<asrwt>0</asrwt>
<pdfrwt beam="1">  1        2 0.16711817E-01 0.37155999E+03</pdfrwt>
<pdfrwt beam="2">  1       -2 0.42148113E-01 0.37155999E+03</pdfrwt>
<totfact> 0.18572852E+03</totfact>
</mgrwt>
</event>
<event>
 4    1  0.2679255E-004  0.5474408E+03  0.7818608E-02  0.1002088E+00
         -2   -1    0    0    0  501 -0.00000000000E+00  0.00000000000E+00  0.51115422028E+02  0.51115422092E+02  0.25500000000E-02 0. -1.
          2   -1    0    0  501    0  0.00000000000E+00 -0.00000000000E+00 -0.14657586246E+04  0.14657586246E+04  0.25500000000E-02 0.  1.
    5000001    1    1    2    0    0 -0.24276790320E+02 -0.24034935184E+03 -0.64941840282E+03  0.70443625361E+03  0.12700000000E+03 0.  0.
   -5000001    1    1    2    0    0  0.24276790320E+02  0.24034935184E+03 -0.76522479979E+03  0.81243779312E+03  0.12700000000E+03 0.  0.
<mgrwt>
<rscale>  0 0.54744085E+03</rscale>
<asrwt>0</asrwt>
<pdfrwt beam="1">  1        2 0.20939406E+00 0.54744085E+03</pdfrwt>
<pdfrwt beam="2">  1       -2 0.73022040E-02 0.54744085E+03</pdfrwt>
<totfact> 0.17594016E+03</totfact>
</mgrwt>
</event>
<event>
 4    1  0.2679255E-004  0.3990312E+03  0.7818608E-02  0.1044116E+00
          2   -1    0    0  501    0  0.00000000000E+00  0.00000000000E+00  0.23445932523E+04  0.23445932523E+04  0.25500000000E-02 0.  1.
         -2   -1    0    0    0  501 -0.00000000000E+00 -0.00000000000E+00 -0.16977989280E+02  0.16977989471E+02  0.25500000000E-02 0. -1.
    5000001    1    1    2    0    0  0.48128453495E+02 -0.10835737269E+03  0.58334075383E+03  0.60866501734E+03  0.12700000000E+03 0.  0.
   -5000001    1    1    2    0    0 -0.48128453495E+02  0.10835737269E+03  0.17442745092E+04  0.17529062244E+04  0.12700000000E+03 0.  0.
<mgrwt>
<rscale>  0 0.39903122E+03</rscale>
<asrwt>0</asrwt>
<pdfrwt beam="1">  1        2 0.33494161E+00 0.39903122E+03</pdfrwt>
<pdfrwt beam="2">  1       -2 0.24254291E-02 0.39903122E+03</pdfrwt>
<totfact> 0.34636132E+03</totfact>
</mgrwt>
</event>
<event>
 4    1  0.2679255E-004  0.3400925E+03  0.7818608E-02  0.1066757E+00
         -2   -1    0    0    0  501 -0.00000000000E+00  0.00000000000E+00  0.19255591347E+02  0.19255591515E+02  0.25500000000E-02 0. -1.
          2   -1    0    0  501    0  0.00000000000E+00 -0.00000000000E+00 -0.15016793172E+04  0.15016793172E+04  0.25500000000E-02 0.  1.
    5000001    1    1    2    0    0  0.11294497691E+03  0.24387805538E+01 -0.76321539941E+03  0.78191384522E+03  0.12700000000E+03 0.  0.
   -5000001    1    1    2    0    0 -0.11294497691E+03 -0.24387805538E+01 -0.71920832644E+03  0.73902106349E+03  0.12700000000E+03 0.  0.
<mgrwt>
<rscale>  0 0.34009248E+03</rscale>
<asrwt>0</asrwt>
<pdfrwt beam="1">  1        2 0.21452554E+00 0.34009248E+03</pdfrwt>
<pdfrwt beam="2">  1       -2 0.27507997E-02 0.34009248E+03</pdfrwt>
<totfact> 0.75339208E+03</totfact>
</mgrwt>
</event>
<event>
 4    1  0.2679255E-004  0.4174384E+03  0.7818608E-02  0.1037903E+00
          2   -1    0    0  501    0  0.00000000000E+00  0.00000000000E+00  0.16405856040E+04  0.16405856040E+04  0.25500000000E-02 0.  1.
         -2   -1    0    0    0  501 -0.00000000000E+00 -0.00000000000E+00 -0.26553748077E+02  0.26553748199E+02  0.25500000000E-02 0. -1.
    5000001    1    1    2    0    0  0.79338765664E+02  0.78394540657E+02  0.31797702170E+03  0.36010933072E+03  0.12700000000E+03 0.  0.
   -5000001    1    1    2    0    0 -0.79338765664E+02 -0.78394540657E+02  0.12960548342E+04  0.13070300215E+04  0.12700000000E+03 0.  0.
<mgrwt>
<rscale>  0 0.41743836E+03</rscale>
<asrwt>0</asrwt>
<pdfrwt beam="1">  1        2 0.23436941E+00 0.41743836E+03</pdfrwt>
<pdfrwt beam="2">  1       -2 0.37933919E-02 0.41743836E+03</pdfrwt>
<totfact> 0.39534715E+03</totfact>
</mgrwt>
</event>
<event>
 4    1  0.2679255E-004  0.3154947E+03  0.7818608E-02  0.1077742E+00
         -2   -1    0    0    0  501 -0.00000000000E+00  0.00000000000E+00  0.27646757772E+02  0.27646757890E+02  0.25500000000E-02 0. -1.
          2   -1    0    0  501    0  0.00000000000E+00 -0.00000000000E+00 -0.90007751908E+03  0.90007751909E+03  0.25500000000E-02 0.  1.
    5000001    1    1    2    0    0 -0.17742039791E+02  0.85218761361E+02 -0.53714946248E+03  0.55878042405E+03  0.12700000000E+03 0.  0.
   -5000001    1    1    2    0    0  0.17742039791E+02 -0.85218761361E+02 -0.33528129883E+03  0.36894385293E+03  0.12700000000E+03 0.  0.
<mgrwt>
<rscale>  0 0.31549469E+03</rscale>
<asrwt>0</asrwt>
<pdfrwt beam="1">  1        2 0.12858248E+00 0.31549469E+03</pdfrwt>
<pdfrwt beam="2">  1       -2 0.39495374E-02 0.31549469E+03</pdfrwt>
<totfact> 0.94150582E+03</totfact>
</mgrwt>
</event>
<event>
 4    1  0.2679255E-004  0.8163604E+03  0.7818608E-02  0.9536633E-01
          2   -1    0    0  501    0  0.00000000000E+00  0.00000000000E+00  0.64932396720E+03  0.64932396721E+03  0.25500000000E-02 0.  1.
         -2   -1    0    0    0  501 -0.00000000000E+00 -0.00000000000E+00 -0.25659161973E+03  0.25659161974E+03  0.25500000000E-02 0. -1.
    5000001    1    1    2    0    0  0.23952739056E+03  0.10991363495E+03  0.51224649386E+03  0.58989816786E+03  0.12700000000E+03 0.  0.
   -5000001    1    1    2    0    0 -0.23952739056E+03 -0.10991363495E+03 -0.11951414638E+03  0.31601741908E+03  0.12700000000E+03 0.  0.
<mgrwt>
<rscale>  0 0.81636043E+03</rscale>
<asrwt>0</asrwt>
<pdfrwt beam="1">  1        2 0.92760566E-01 0.81636043E+03</pdfrwt>
<pdfrwt beam="2">  1       -2 0.36655946E-01 0.81636043E+03</pdfrwt>
<totfact> 0.34716103E+02</totfact>
</mgrwt>
</event>
<event>
 4    1  0.2679255E-004  0.5028804E+03  0.7818608E-02  0.1013030E+00
          2   -1    0    0  501    0  0.00000000000E+00  0.00000000000E+00  0.10790797892E+04  0.10790797892E+04  0.25500000000E-02 0.  1.
         -2   -1    0    0    0  501 -0.00000000000E+00 -0.00000000000E+00 -0.58588982038E+02  0.58588982093E+02  0.25500000000E-02 0. -1.
    5000001    1    1    2    0    0  0.10695360761E+03  0.21748819406E+02  0.93457741862E+03  0.94946091901E+03  0.12700000000E+03 0.  0.
   -5000001    1    1    2    0    0 -0.10695360761E+03 -0.21748819406E+02  0.85913388514E+02  0.18820785226E+03  0.12700000000E+03 0.  0.
<mgrwt>
<rscale>  0 0.50288045E+03</rscale>
<asrwt>0</asrwt>
<pdfrwt beam="1">  1        2 0.15415424E+00 0.50288045E+03</pdfrwt>
<pdfrwt beam="2">  1       -2 0.83698552E-02 0.50288045E+03</pdfrwt>
<totfact> 0.23092944E+03</totfact>
</mgrwt>
</event>
<event>
 4    1  0.2679255E-004  0.3477274E+03  0.7818608E-02  0.1063552E+00
         -2   -1    0    0    0  501 -0.00000000000E+00  0.00000000000E+00  0.84416613299E+02  0.84416613337E+02  0.25500000000E-02 0. -1.
          2   -1    0    0  501    0  0.00000000000E+00 -0.00000000000E+00 -0.35808818319E+03  0.35808818320E+03  0.25500000000E-02 0.  1.
    5000001    1    1    2    0    0 -0.71730627379E+02  0.18126771024E+02 -0.25502475106E+03  0.29434756052E+03  0.12700000000E+03 0.  0.
   -5000001    1    1    2    0    0  0.71730627379E+02 -0.18126771024E+02 -0.18646818834E+02  0.14815723602E+03  0.12700000000E+03 0.  0.
<mgrwt>
<rscale>  0 0.34772743E+03</rscale>
<asrwt>0</asrwt>
<pdfrwt beam="1">  1        2 0.51155454E-01 0.34772743E+03</pdfrwt>
<pdfrwt beam="2">  1       -2 0.12059516E-01 0.34772743E+03</pdfrwt>
<totfact> 0.48100760E+03</totfact>
</mgrwt>
</event>
<event>
 4    1  0.2679255E-004  0.4792431E+03  0.7818608E-02  0.1019343E+00
         -2   -1    0    0    0  501 -0.00000000000E+00  0.00000000000E+00  0.18713104655E+02  0.18713104829E+02  0.25500000000E-02 0. -1.
          2   -1    0    0  501    0  0.00000000000E+00 -0.00000000000E+00 -0.30683571925E+04  0.30683571925E+04  0.25500000000E-02 0.  1.
    5000001    1    1    2    0    0 -0.18244894237E+02 -0.18189872126E+03 -0.20962524483E+04  0.21080377956E+04  0.12700000000E+03 0.  0.
   -5000001    1    1    2    0    0  0.18244894237E+02  0.18189872126E+03 -0.95339163964E+03  0.97903250176E+03  0.12700000000E+03 0.  0.
<mgrwt>
<rscale>  0 0.47924311E+03</rscale>
<asrwt>0</asrwt>
<pdfrwt beam="1">  1        2 0.43833642E+00 0.47924311E+03</pdfrwt>
<pdfrwt beam="2">  1       -2 0.26733026E-02 0.47924311E+03</pdfrwt>
<totfact> 0.12515909E+03</totfact>
</mgrwt>
</event>
<event>
 4    1  0.2679255E-004  0.5568761E+03  0.7818608E-02  0.9999148E-01
         -2   -1    0    0    0  501 -0.00000000000E+00  0.00000000000E+00  0.16421008214E+03  0.16421008216E+03  0.25500000000E-02 0. -1.
          2   -1    0    0  501    0  0.00000000000E+00 -0.00000000000E+00 -0.47212545469E+03  0.47212545469E+03  0.25500000000E-02 0.  1.
    5000001    1    1    2    0    0  0.19389490053E+02  0.11603560764E+03 -0.40315413273E+03  0.43875103339E+03  0.12700000000E+03 0.  0.
   -5000001    1    1    2    0    0 -0.19389490053E+02 -0.11603560764E+03  0.95238760185E+02  0.19758450346E+03  0.12700000000E+03 0.  0.
<mgrwt>
<rscale>  0 0.55687614E+03</rscale>
<asrwt>0</asrwt>
<pdfrwt beam="1">  1        2 0.67446493E-01 0.55687614E+03</pdfrwt>
<pdfrwt beam="2">  1       -2 0.23458583E-01 0.55687614E+03</pdfrwt>
<totfact> 0.11533572E+03</totfact>
</mgrwt>
</event>
<event>
 4    1  0.2679255E-004  0.2997451E+03  0.7818608E-02  0.1085368E+00
         -2   -1    0    0    0  501 -0.00000000000E+00  0.00000000000E+00  0.96917943344E+03  0.96917943345E+03  0.25500000000E-02 0. -1.
          2   -1    0    0  501    0  0.00000000000E+00 -0.00000000000E+00 -0.23176076454E+02  0.23176076594E+02  0.25500000000E-02 0.  1.
    5000001    1    1    2    0    0 -0.71406062774E+02  0.15792257177E+02  0.57688249271E+03  0.59520637730E+03  0.12700000000E+03 0.  0.
   -5000001    1    1    2    0    0  0.71406062774E+02 -0.15792257177E+02  0.36912086429E+03  0.39714913274E+03  0.12700000000E+03 0.  0.
<mgrwt>
<rscale>  0 0.29974507E+03</rscale>
<asrwt>0</asrwt>
<pdfrwt beam="1">  1        2 0.33108689E-02 0.29974507E+03</pdfrwt>
<pdfrwt beam="2">  1       -2 0.13845417E+00 0.29974507E+03</pdfrwt>
<totfact> 0.10698276E+03</totfact>
</mgrwt>
</event>
<event>
 4    1  0.2679255E-004  0.4202552E+03  0.7818608E-02  0.1036983E+00
          2   -1    0    0  501    0  0.00000000000E+00  0.00000000000E+00  0.68624214257E+03  0.68624214257E+03  0.25500000000E-02 0.  1.
         -2   -1    0    0    0  501 -0.00000000000E+00 -0.00000000000E+00 -0.64341139950E+02  0.64341140001E+02  0.25500000000E-02 0. -1.
    5000001    1    1    2    0    0 -0.79417506297E+02  0.72607683012E+02  0.53999005973E+03  0.56506396147E+03  0.12700000000E+03 0.  0.
   -5000001    1    1    2    0    0  0.79417506297E+02 -0.72607683012E+02  0.81910942882E+02  0.18551932110E+03  0.12700000000E+03 0.  0.
<mgrwt>
<rscale>  0 0.42025517E+03</rscale>
<asrwt>0</asrwt>
<pdfrwt beam="1">  1        2 0.98034587E-01 0.42025517E+03</pdfrwt>
<pdfrwt beam="2">  1       -2 0.91915919E-02 0.42025517E+03</pdfrwt>
<totfact> 0.35923367E+03</totfact>
</mgrwt>
</event>
<event>
 4    1  0.2679255E-004  0.4203645E+03  0.7818608E-02  0.1036948E+00
         -2   -1    0    0    0  501 -0.00000000000E+00  0.00000000000E+00  0.58444978806E+02  0.58444978862E+02  0.25500000000E-02 0. -1.
          2   -1    0    0  501    0  0.00000000000E+00 -0.00000000000E+00 -0.75586608134E+03  0.75586608135E+03  0.25500000000E-02 0.  1.
    5000001    1    1    2    0    0 -0.12509658226E+03  0.86770868122E+02 -0.48388507189E+03  0.52292647786E+03  0.12700000000E+03 0.  0.
   -5000001    1    1    2    0    0  0.12509658226E+03 -0.86770868122E+02 -0.21353603065E+03  0.29138458235E+03  0.12700000000E+03 0.  0.
<mgrwt>
<rscale>  0 0.42036449E+03</rscale>
<asrwt>0</asrwt>
<pdfrwt beam="1">  1        2 0.10798086E+00 0.42036449E+03</pdfrwt>
<pdfrwt beam="2">  1       -2 0.83492832E-02 0.42036449E+03</pdfrwt>
<totfact> 0.37208838E+03</totfact>
</mgrwt>
</event>
<event>
 4    1  0.2679255E-004  0.5483357E+03  0.7818608E-02  0.1001880E+00
         -2   -1    0    0    0  501 -0.00000000000E+00  0.00000000000E+00  0.54401943479E+02  0.54401943539E+02  0.25500000000E-02 0. -1.
          2   -1    0    0  501    0  0.00000000000E+00 -0.00000000000E+00 -0.13817154709E+04  0.13817154709E+04  0.25500000000E-02 0.  1.
    5000001    1    1    2    0    0 -0.18541968204E+03  0.13858803226E+03 -0.47027406899E+03  0.53932717448E+03  0.12700000000E+03 0.  0.
   -5000001    1    1    2    0    0  0.18541968204E+03 -0.13858803226E+03 -0.85703945842E+03  0.89679023995E+03  0.12700000000E+03 0.  0.
<mgrwt>
<rscale>  0 0.54833569E+03</rscale>
<asrwt>0</asrwt>
<pdfrwt beam="1">  1        2 0.19738790E+00 0.54833569E+03</pdfrwt>
<pdfrwt beam="2">  1       -2 0.77717070E-02 0.54833569E+03</pdfrwt>
<totfact> 0.17650273E+03</totfact>
</mgrwt>
</event>
<event>
 4    1  0.2679255E-004  0.2712681E+03  0.7818608E-02  0.1100556E+00
         -2   -1    0    0    0  501 -0.00000000000E+00  0.00000000000E+00  0.15954588285E+02  0.15954588489E+02  0.25500000000E-02 0. -1.
          2   -1    0    0  501    0  0.00000000000E+00 -0.00000000000E+00 -0.11530601003E+04  0.11530601003E+04  0.25500000000E-02 0.  1.
    5000001    1    1    2    0    0 -0.13081306359E+02 -0.43385446449E+02 -0.50548426668E+03  0.52316035917E+03  0.12700000000E+03 0.  0.
   -5000001    1    1    2    0    0  0.13081306359E+02  0.43385446449E+02 -0.63162124531E+03  0.64585432960E+03  0.12700000000E+03 0.  0.
<mgrwt>
<rscale>  0 0.27126813E+03</rscale>
<asrwt>0</asrwt>
<pdfrwt beam="1">  1        2 0.16472282E+00 0.27126813E+03</pdfrwt>
<pdfrwt beam="2">  1       -2 0.22792276E-02 0.27126813E+03</pdfrwt>
<totfact> 0.15118997E+04</totfact>
</mgrwt>
</event>
<event>
 4    1  0.2679255E-004  0.3302186E+03  0.7818608E-02  0.1071040E+00
          2   -1    0    0  501    0  0.00000000000E+00  0.00000000000E+00  0.35520777010E+03  0.35520777011E+03  0.25500000000E-02 0.  1.
         -2   -1    0    0    0  501 -0.00000000000E+00 -0.00000000000E+00 -0.76746870954E+02  0.76746870997E+02  0.25500000000E-02 0. -1.
    5000001    1    1    2    0    0  0.85805439631E+02  0.48703217877E+02  0.18813099837E+03  0.24750121100E+03  0.12700000000E+03 0.  0.
   -5000001    1    1    2    0    0 -0.85805439631E+02 -0.48703217877E+02  0.90329900781E+02  0.18445343010E+03  0.12700000000E+03 0.  0.
<mgrwt>
<rscale>  0 0.33021862E+03</rscale>
<asrwt>0</asrwt>
<pdfrwt beam="1">  1        2 0.50743967E-01 0.33021862E+03</pdfrwt>
<pdfrwt beam="2">  1       -2 0.10963839E-01 0.33021862E+03</pdfrwt>
<totfact> 0.56523550E+03</totfact>
</mgrwt>
</event>
<event>
 4    1  0.2679255E-004  0.4571302E+03  0.7818608E-02  0.1025617E+00
         -2   -1    0    0    0  501 -0.00000000000E+00  0.00000000000E+00  0.51463957030E+02  0.51463957093E+02  0.25500000000E-02 0. -1.
          2   -1    0    0  501    0  0.00000000000E+00 -0.00000000000E+00 -0.10151183120E+04  0.10151183120E+04  0.25500000000E-02 0.  1.
    5000001    1    1    2    0    0  0.80133216847E+02  0.75145124371E+02 -0.12002949590E+03  0.20640785364E+03  0.12700000000E+03 0.  0.
   -5000001    1    1    2    0    0 -0.80133216847E+02 -0.75145124371E+02 -0.84362485907E+03  0.86017441545E+03  0.12700000000E+03 0.  0.
<mgrwt>
<rscale>  0 0.45713020E+03</rscale>
<asrwt>0</asrwt>
<pdfrwt beam="1">  1        2 0.14501689E+00 0.45713020E+03</pdfrwt>
<pdfrwt beam="2">  1       -2 0.73519945E-02 0.45713020E+03</pdfrwt>
<totfact> 0.30930095E+03</totfact>
</mgrwt>
</event>
<event>
 4    1  0.2679255E-004  0.3720749E+03  0.7818608E-02  0.1053902E+00
          2   -1    0    0  501    0  0.00000000000E+00  0.00000000000E+00  0.77969161041E+03  0.77969161042E+03  0.25500000000E-02 0.  1.
         -2   -1    0    0    0  501 -0.00000000000E+00 -0.00000000000E+00 -0.44389255049E+02  0.44389255122E+02  0.25500000000E-02 0. -1.
    5000001    1    1    2    0    0  0.55384007467E+02 -0.94891563371E+02  0.54496357740E+03  0.57025090773E+03  0.12700000000E+03 0.  0.
   -5000001    1    1    2    0    0 -0.55384007467E+02  0.94891563371E+02  0.19033877797E+03  0.25382995781E+03  0.12700000000E+03 0.  0.
<mgrwt>
<rscale>  0 0.37207488E+03</rscale>
<asrwt>0</asrwt>
<pdfrwt beam="1">  1        2 0.11138451E+00 0.37207488E+03</pdfrwt>
<pdfrwt beam="2">  1       -2 0.63413227E-02 0.37207488E+03</pdfrwt>
<totfact> 0.55002694E+03</totfact>
</mgrwt>
</event>
<event>
 4    1  0.2679255E-004  0.3278817E+03  0.7818608E-02  0.1072078E+00
          2   -1    0    0  501    0  0.00000000000E+00  0.00000000000E+00  0.40352405469E+03  0.40352405470E+03  0.25500000000E-02 0.  1.
         -2   -1    0    0    0  501 -0.00000000000E+00 -0.00000000000E+00 -0.66604697436E+02  0.66604697485E+02  0.25500000000E-02 0. -1.
    5000001    1    1    2    0    0 -0.10035287386E+03 -0.19965677114E+02  0.14454123646E+03  0.21792314377E+03  0.12700000000E+03 0.  0.
   -5000001    1    1    2    0    0  0.10035287386E+03  0.19965677114E+02  0.19237812079E+03  0.25220560841E+03  0.12700000000E+03 0.  0.
<mgrwt>
<rscale>  0 0.32788167E+03</rscale>
<asrwt>0</asrwt>
<pdfrwt beam="1">  1        2 0.57646293E-01 0.32788167E+03</pdfrwt>
<pdfrwt beam="2">  1       -2 0.95149569E-02 0.32788167E+03</pdfrwt>
<totfact> 0.61716868E+03</totfact>
</mgrwt>
</event>
<event>
 4    1  0.2679255E-004  0.3769238E+03  0.7818608E-02  0.1052077E+00
          2   -1    0    0  501    0  0.00000000000E+00  0.00000000000E+00  0.63880353772E+03  0.63880353772E+03  0.25500000000E-02 0.  1.
         -2   -1    0    0    0  501 -0.00000000000E+00 -0.00000000000E+00 -0.55600649630E+02  0.55600649688E+02  0.25500000000E-02 0. -1.
    5000001    1    1    2    0    0 -0.61165694792E+02  0.99846688582E+02  0.15277651373E+03  0.23060847033E+03  0.12700000000E+03 0.  0.
   -5000001    1    1    2    0    0  0.61165694792E+02 -0.99846688582E+02  0.43042637436E+03  0.46379571708E+03  0.12700000000E+03 0.  0.
<mgrwt>
<rscale>  0 0.37692382E+03</rscale>
<asrwt>0</asrwt>
<pdfrwt beam="1">  1        2 0.91257644E-01 0.37692382E+03</pdfrwt>
<pdfrwt beam="2">  1       -2 0.79429504E-02 0.37692382E+03</pdfrwt>
<totfact> 0.49204344E+03</totfact>
</mgrwt>
</event>
<event>
 4    1  0.2679255E-004  0.6021812E+03  0.7818608E-02  0.9900891E-01
         -2   -1    0    0    0  501 -0.00000000000E+00  0.00000000000E+00  0.64349616550E+02  0.64349616601E+02  0.25500000000E-02 0. -1.
          2   -1    0    0  501    0  0.00000000000E+00 -0.00000000000E+00 -0.14087968369E+04  0.14087968369E+04  0.25500000000E-02 0.  1.
    5000001    1    1    2    0    0  0.16005081435E+03 -0.22114534151E+03 -0.67769985543E+03  0.74157104804E+03  0.12700000000E+03 0.  0.
   -5000001    1    1    2    0    0 -0.16005081435E+03  0.22114534151E+03 -0.66674736492E+03  0.73157540546E+03  0.12700000000E+03 0.  0.
<mgrwt>
<rscale>  0 0.60218116E+03</rscale>
<asrwt>0</asrwt>
<pdfrwt beam="1">  1        2 0.20125667E+00 0.60218116E+03</pdfrwt>
<pdfrwt beam="2">  1       -2 0.91928032E-02 0.60218116E+03</pdfrwt>
<totfact> 0.13034870E+03</totfact>
</mgrwt>
</event>
<event>
 4    1  0.2679255E-004  0.3748718E+03  0.7818608E-02  0.1052846E+00
         -2   -1    0    0    0  501 -0.00000000000E+00  0.00000000000E+00  0.16781012869E+03  0.16781012871E+03  0.25500000000E-02 0. -1.
          2   -1    0    0  501    0  0.00000000000E+00 -0.00000000000E+00 -0.20935697923E+03  0.20935697925E+03  0.25500000000E-02 0.  1.
    5000001    1    1    2    0    0 -0.11955080133E+02 -0.11783412369E+03 -0.91741945752E+02  0.19640109281E+03  0.12700000000E+03 0.  0.
   -5000001    1    1    2    0    0  0.11955080133E+02  0.11783412369E+03  0.50195095215E+02  0.18076601514E+03  0.12700000000E+03 0.  0.
<mgrwt>
<rscale>  0 0.37487183E+03</rscale>
<asrwt>0</asrwt>
<pdfrwt beam="1">  1        2 0.29908140E-01 0.37487183E+03</pdfrwt>
<pdfrwt beam="2">  1       -2 0.23972876E-01 0.37487183E+03</pdfrwt>
<totfact> 0.27112771E+03</totfact>
</mgrwt>
</event>
<event>
 4    1  0.2679255E-004  0.3718081E+03  0.7818608E-02  0.1054004E+00
          2   -1    0    0  501    0  0.00000000000E+00  0.00000000000E+00  0.99819219693E+03  0.99819219693E+03  0.25500000000E-02 0.  1.
         -2   -1    0    0    0  501 -0.00000000000E+00 -0.00000000000E+00 -0.34622899249E+02  0.34622899342E+02  0.25500000000E-02 0. -1.
    5000001    1    1    2    0    0 -0.87017364768E+02 -0.32563627053E+02  0.20681018645E+03  0.25986893773E+03  0.12700000000E+03 0.  0.
   -5000001    1    1    2    0    0  0.87017364768E+02  0.32563627053E+02  0.75675911123E+03  0.77294615854E+03  0.12700000000E+03 0.  0.
<mgrwt>
<rscale>  0 0.37180806E+03</rscale>
<asrwt>0</asrwt>
<pdfrwt beam="1">  1        2 0.14259890E+00 0.37180806E+03</pdfrwt>
<pdfrwt beam="2">  1       -2 0.49461279E-02 0.37180806E+03</pdfrwt>
<totfact> 0.58448494E+03</totfact>
</mgrwt>
</event>
<event>
 4    1  0.2679255E-004  0.3391009E+03  0.7818608E-02  0.1067179E+00
          2   -1    0    0  501    0  0.00000000000E+00  0.00000000000E+00  0.24298415692E+02  0.24298415826E+02  0.25500000000E-02 0.  1.
         -2   -1    0    0    0  501 -0.00000000000E+00 -0.00000000000E+00 -0.11830961732E+04  0.11830961732E+04  0.25500000000E-02 0. -1.
    5000001    1    1    2    0    0 -0.62033910658E+02 -0.82848812635E+02 -0.73485505283E+03  0.75289646068E+03  0.12700000000E+03 0.  0.
   -5000001    1    1    2    0    0  0.62033910658E+02  0.82848812635E+02 -0.42394270465E+03  0.45449812833E+03  0.12700000000E+03 0.  0.
<mgrwt>
<rscale>  0 0.33910094E+03</rscale>
<asrwt>0</asrwt>
<pdfrwt beam="1">  1        2 0.34712030E-02 0.33910094E+03</pdfrwt>
<pdfrwt beam="2">  1       -2 0.16901370E+00 0.33910094E+03</pdfrwt>
<totfact> 0.59653380E+02</totfact>
</mgrwt>
</event>
<event>
 4    1  0.2679255E-004  0.3157213E+03  0.7818608E-02  0.1077636E+00
          2   -1    0    0  501    0  0.00000000000E+00  0.00000000000E+00  0.21927719007E+04  0.21927719007E+04  0.25500000000E-02 0.  1.
         -2   -1    0    0    0  501 -0.00000000000E+00 -0.00000000000E+00 -0.11364600649E+02  0.11364600935E+02  0.25500000000E-02 0. -1.
    5000001    1    1    2    0    0  0.36423656104E+02 -0.34944391877E+02  0.16423207727E+04  0.16479970612E+04  0.12700000000E+03 0.  0.
   -5000001    1    1    2    0    0 -0.36423656104E+02  0.34944391877E+02  0.53908652733E+03  0.55613944042E+03  0.12700000000E+03 0.  0.
<mgrwt>
<rscale>  0 0.31572125E+03</rscale>
<asrwt>0</asrwt>
<pdfrwt beam="1">  1        2 0.31325301E+00 0.31572125E+03</pdfrwt>
<pdfrwt beam="2">  1       -2 0.16235150E-02 0.31572125E+03</pdfrwt>
<totfact> 0.74792066E+03</totfact>
</mgrwt>
</event>
<event>
 4    1  0.2679255E-004  0.4437996E+03  0.7818608E-02  0.1029587E+00
          2   -1    0    0  501    0  0.00000000000E+00  0.00000000000E+00  0.56391104828E+02  0.56391104885E+02  0.25500000000E-02 0.  1.
         -2   -1    0    0    0  501 -0.00000000000E+00 -0.00000000000E+00 -0.87317900809E+03  0.87317900809E+03  0.25500000000E-02 0. -1.
    5000001    1    1    2    0    0 -0.11506329425E+03  0.89554378236E+02 -0.63641364436E+03  0.66513974101E+03  0.12700000000E+03 0.  0.
   -5000001    1    1    2    0    0  0.11506329425E+03 -0.89554378236E+02 -0.18037425890E+03  0.26443037196E+03  0.12700000000E+03 0.  0.
<mgrwt>
<rscale>  0 0.44379964E+03</rscale>
<asrwt>0</asrwt>
<pdfrwt beam="1">  1        2 0.80558726E-02 0.44379964E+03</pdfrwt>
<pdfrwt beam="2">  1       -2 0.12473985E+00 0.44379964E+03</pdfrwt>
<totfact> 0.42784666E+02</totfact>
</mgrwt>
</event>
<event>
 4    1  0.2679255E-004  0.3691952E+03  0.7818608E-02  0.1055001E+00
         -2   -1    0    0    0  501 -0.00000000000E+00  0.00000000000E+00  0.18261345694E+02  0.18261345872E+02  0.25500000000E-02 0. -1.
          2   -1    0    0  501    0  0.00000000000E+00 -0.00000000000E+00 -0.18660331344E+04  0.18660331344E+04  0.25500000000E-02 0.  1.
    5000001    1    1    2    0    0 -0.79123030488E+02  0.10541639026E+03 -0.80158575122E+03  0.82221760249E+03  0.12700000000E+03 0.  0.
   -5000001    1    1    2    0    0  0.79123030488E+02 -0.10541639026E+03 -0.10461860375E+04  0.10620768778E+04  0.12700000000E+03 0.  0.
<mgrwt>
<rscale>  0 0.36919521E+03</rscale>
<asrwt>0</asrwt>
<pdfrwt beam="1">  1        2 0.26657604E+00 0.36919521E+03</pdfrwt>
<pdfrwt beam="2">  1       -2 0.26087649E-02 0.36919521E+03</pdfrwt>
<totfact> 0.53642529E+03</totfact>
</mgrwt>
</event>
<event>
 4    1  0.2679255E-004  0.2788775E+03  0.7818608E-02  0.1096304E+00
          2   -1    0    0  501    0  0.00000000000E+00  0.00000000000E+00  0.23555752668E+03  0.23555752669E+03  0.25500000000E-02 0.  1.
         -2   -1    0    0    0  501 -0.00000000000E+00 -0.00000000000E+00 -0.82541019781E+02  0.82541019821E+02  0.25500000000E-02 0. -1.
    5000001    1    1    2    0    0 -0.49128969311E+02  0.59478854869E+01  0.11005789158E+03  0.17518782054E+03  0.12700000000E+03 0.  0.
   -5000001    1    1    2    0    0  0.49128969311E+02 -0.59478854869E+01  0.42958615317E+02  0.14291072597E+03  0.12700000000E+03 0.  0.
<mgrwt>
<rscale>  0 0.27887745E+03</rscale>
<asrwt>0</asrwt>
<pdfrwt beam="1">  1        2 0.33651075E-01 0.27887745E+03</pdfrwt>
<pdfrwt beam="2">  1       -2 0.11791574E-01 0.27887745E+03</pdfrwt>
<totfact> 0.77969926E+03</totfact>
</mgrwt>
</event>
<event>
 4    1  0.2679255E-004  0.3430816E+03  0.7818608E-02  0.1065491E+00
         -2   -1    0    0    0  501 -0.00000000000E+00  0.00000000000E+00  0.39440914979E+02  0.39440915062E+02  0.25500000000E-02 0. -1.
          2   -1    0    0  501    0  0.00000000000E+00 -0.00000000000E+00 -0.74608427951E+03  0.74608427952E+03  0.25500000000E-02 0.  1.
    5000001    1    1    2    0    0  0.10873352394E+03 -0.28833273178E+02 -0.29526693882E+03  0.34053766610E+03  0.12700000000E+03 0.  0.
   -5000001    1    1    2    0    0 -0.10873352394E+03  0.28833273178E+02 -0.41137642571E+03  0.44498752848E+03  0.12700000000E+03 0.  0.
<mgrwt>
<rscale>  0 0.34308160E+03</rscale>
<asrwt>0</asrwt>
<pdfrwt beam="1">  1        2 0.10658346E+00 0.34308160E+03</pdfrwt>
<pdfrwt beam="2">  1       -2 0.56344169E-02 0.34308160E+03</pdfrwt>
<totfact> 0.69577385E+03</totfact>
</mgrwt>
</event>
<event>
 4    1  0.2679255E-004  0.7752905E+03  0.7818608E-02  0.9596488E-01
         -2   -1    0    0    0  501 -0.00000000000E+00  0.00000000000E+00  0.69388790751E+02  0.69388790797E+02  0.25500000000E-02 0. -1.
          2   -1    0    0  501    0  0.00000000000E+00 -0.00000000000E+00 -0.21656069476E+04  0.21656069476E+04  0.25500000000E-02 0.  1.
    5000001    1    1    2    0    0  0.99537150594E+01  0.36321479418E+03 -0.11807104190E+04  0.12418655953E+04  0.12700000000E+03 0.  0.
   -5000001    1    1    2    0    0 -0.99537150594E+01 -0.36321479418E+03 -0.91550773786E+03  0.99313014315E+03  0.12700000000E+03 0.  0.
<mgrwt>
<rscale>  0 0.77529052E+03</rscale>
<asrwt>0</asrwt>
<pdfrwt beam="1">  1        2 0.30937238E+00 0.77529052E+03</pdfrwt>
<pdfrwt beam="2">  1       -2 0.99126857E-02 0.77529052E+03</pdfrwt>
<totfact> 0.46888065E+02</totfact>
</mgrwt>
</event>
<event>
 4    1  0.2679255E-004  0.3305109E+03  0.7818608E-02  0.1070911E+00
          2   -1    0    0  501    0  0.00000000000E+00  0.00000000000E+00  0.62711780672E+03  0.62711780672E+03  0.25500000000E-02 0.  1.
         -2   -1    0    0    0  501 -0.00000000000E+00 -0.00000000000E+00 -0.43547419391E+02  0.43547419465E+02  0.25500000000E-02 0. -1.
    5000001    1    1    2    0    0  0.84224279858E+02 -0.55916848608E+02  0.22891543295E+03  0.28062733067E+03  0.12700000000E+03 0.  0.
   -5000001    1    1    2    0    0 -0.84224279858E+02  0.55916848608E+02  0.35465495438E+03  0.39003789552E+03  0.12700000000E+03 0.  0.
<mgrwt>
<rscale>  0 0.33051089E+03</rscale>
<asrwt>0</asrwt>
<pdfrwt beam="1">  1        2 0.89588251E-01 0.33051089E+03</pdfrwt>
<pdfrwt beam="2">  1       -2 0.62210604E-02 0.33051089E+03</pdfrwt>
<totfact> 0.73360881E+03</totfact>
</mgrwt>
</event>
<event>
 4    1  0.2679255E-004  0.3243037E+03  0.7818608E-02  0.1073686E+00
          2   -1    0    0  501    0  0.00000000000E+00  0.00000000000E+00  0.47421942818E+03  0.47421942819E+03  0.25500000000E-02 0.  1.
         -2   -1    0    0    0  501 -0.00000000000E+00 -0.00000000000E+00 -0.55445252452E+02  0.55445252511E+02  0.25500000000E-02 0. -1.
    5000001    1    1    2    0    0 -0.75684742437E+02  0.42850568172E+02  0.12611019336E+03  0.19899028193E+03  0.12700000000E+03 0.  0.
   -5000001    1    1    2    0    0  0.75684742437E+02 -0.42850568172E+02  0.29266398236E+03  0.33067439877E+03  0.12700000000E+03 0.  0.
<mgrwt>
<rscale>  0 0.32430366E+03</rscale>
<asrwt>0</asrwt>
<pdfrwt beam="1">  1        2 0.67745629E-01 0.32430366E+03</pdfrwt>
<pdfrwt beam="2">  1       -2 0.79207507E-02 0.32430366E+03</pdfrwt>
<totfact> 0.69047670E+03</totfact>
</mgrwt>
</event>
<event>
 4    1  0.2679255E-004  0.4812028E+03  0.7818608E-02  0.1018805E+00
         -2   -1    0    0    0  501 -0.00000000000E+00  0.00000000000E+00  0.34000396397E+02  0.34000396493E+02  0.25500000000E-02 0. -1.
          2   -1    0    0  501    0  0.00000000000E+00 -0.00000000000E+00 -0.17025986379E+04  0.17025986379E+04  0.25500000000E-02 0.  1.
    5000001    1    1    2    0    0  0.15577154790E+03  0.13171626005E+03 -0.79068095719E+03  0.82638932977E+03  0.12700000000E+03 0.  0.
   -5000001    1    1    2    0    0 -0.15577154790E+03 -0.13171626005E+03 -0.87791728433E+03  0.91020970465E+03  0.12700000000E+03 0.  0.
<mgrwt>
<rscale>  0 0.48120278E+03</rscale>
<asrwt>0</asrwt>
<pdfrwt beam="1">  1        2 0.24322832E+00 0.48120278E+03</pdfrwt>
<pdfrwt beam="2">  1       -2 0.48572006E-02 0.48120278E+03</pdfrwt>
<totfact> 0.25178000E+03</totfact>
</mgrwt>
</event>
<event>
 4    1  0.2679255E-004  0.3683048E+03  0.7818608E-02  0.1055343E+00
         -2   -1    0    0    0  501 -0.00000000000E+00  0.00000000000E+00  0.17532299167E+02  0.17532299352E+02  0.25500000000E-02 0. -1.
          2   -1    0    0  501    0  0.00000000000E+00 -0.00000000000E+00 -0.19342647442E+04  0.19342647442E+04  0.25500000000E-02 0.  1.
    5000001    1    1    2    0    0  0.12711458616E+03 -0.15576315401E+02 -0.11553993337E+04  0.11693918761E+04  0.12700000000E+03 0.  0.
   -5000001    1    1    2    0    0 -0.12711458616E+03  0.15576315401E+02 -0.76133311129E+03  0.78240516740E+03  0.12700000000E+03 0.  0.
<mgrwt>
<rscale>  0 0.36830481E+03</rscale>
<asrwt>0</asrwt>
<pdfrwt beam="1">  1        2 0.27632340E+00 0.36830481E+03</pdfrwt>
<pdfrwt beam="2">  1       -2 0.25046154E-02 0.36830481E+03</pdfrwt>
<totfact> 0.52752943E+03</totfact>
</mgrwt>
</event>
<event>
 4    1  0.2679255E-004  0.5960270E+03  0.7818608E-02  0.9913683E-01
          2   -1    0    0  501    0  0.00000000000E+00  0.00000000000E+00  0.10893681543E+04  0.10893681543E+04  0.25500000000E-02 0.  1.
         -2   -1    0    0    0  501 -0.00000000000E+00 -0.00000000000E+00 -0.81526197578E+02  0.81526197618E+02  0.25500000000E-02 0. -1.
    5000001    1    1    2    0    0  0.23176468358E+03  0.10710414777E+03  0.67401613956E+03  0.73185580780E+03  0.12700000000E+03 0.  0.
   -5000001    1    1    2    0    0 -0.23176468358E+03 -0.10710414777E+03  0.33382581717E+03  0.43903854413E+03  0.12700000000E+03 0.  0.
<mgrwt>
<rscale>  0 0.59602699E+03</rscale>
<asrwt>0</asrwt>
<pdfrwt beam="1">  1        2 0.15562401E+00 0.59602699E+03</pdfrwt>
<pdfrwt beam="2">  1       -2 0.11646600E-01 0.59602699E+03</pdfrwt>
<totfact> 0.13334627E+03</totfact>
</mgrwt>
</event>
<event>
 4    1  0.2679255E-004  0.3452798E+03  0.7818608E-02  0.1064569E+00
         -2   -1    0    0    0  501 -0.00000000000E+00  0.00000000000E+00  0.21747656613E+02  0.21747656762E+02  0.25500000000E-02 0. -1.
          2   -1    0    0  501    0  0.00000000000E+00 -0.00000000000E+00 -0.13704713989E+04  0.13704713989E+04  0.25500000000E-02 0.  1.
    5000001    1    1    2    0    0  0.11083509477E+03 -0.23626810397E+02 -0.79072945766E+03  0.80884159117E+03  0.12700000000E+03 0.  0.
   -5000001    1    1    2    0    0 -0.11083509477E+03  0.23626810397E+02 -0.55799428467E+03  0.58337746453E+03  0.12700000000E+03 0.  0.
<mgrwt>
<rscale>  0 0.34527984E+03</rscale>
<asrwt>0</asrwt>
<pdfrwt beam="1">  1        2 0.19578157E+00 0.34527984E+03</pdfrwt>
<pdfrwt beam="2">  1       -2 0.31068090E-02 0.34527984E+03</pdfrwt>
<totfact> 0.73397030E+03</totfact>
</mgrwt>
</event>
<event>
 4    1  0.2679255E-004  0.3725186E+03  0.7818608E-02  0.1053734E+00
          2   -1    0    0  501    0  0.00000000000E+00  0.00000000000E+00  0.51765274708E+03  0.51765274709E+03  0.25500000000E-02 0.  1.
         -2   -1    0    0    0  501 -0.00000000000E+00 -0.00000000000E+00 -0.67018909987E+02  0.67018910036E+02  0.25500000000E-02 0. -1.
    5000001    1    1    2    0    0  0.16962004968E+02 -0.12966279271E+03  0.16527677945E+03  0.24606008057E+03  0.12700000000E+03 0.  0.
   -5000001    1    1    2    0    0 -0.16962004968E+02  0.12966279271E+03  0.28535705764E+03  0.33861157655E+03  0.12700000000E+03 0.  0.
<mgrwt>
<rscale>  0 0.37251858E+03</rscale>
<asrwt>0</asrwt>
<pdfrwt beam="1">  1        2 0.73950394E-01 0.37251858E+03</pdfrwt>
<pdfrwt beam="2">  1       -2 0.95741298E-02 0.37251858E+03</pdfrwt>
<totfact> 0.46566504E+03</totfact>
</mgrwt>
</event>
<event>
 4    1  0.2679255E-004  0.3813153E+03  0.7818608E-02  0.1050449E+00
          2   -1    0    0  501    0  0.00000000000E+00  0.00000000000E+00  0.66776166970E+03  0.66776166970E+03  0.25500000000E-02 0.  1.
         -2   -1    0    0    0  501 -0.00000000000E+00 -0.00000000000E+00 -0.54436100111E+02  0.54436100171E+02  0.25500000000E-02 0. -1.
    5000001    1    1    2    0    0  0.14214597644E+03 -0.34341786794E+01  0.30284235915E+03  0.35785439315E+03  0.12700000000E+03 0.  0.
   -5000001    1    1    2    0    0 -0.14214597644E+03  0.34341786794E+01  0.31048321044E+03  0.36434337673E+03  0.12700000000E+03 0.  0.
<mgrwt>
<rscale>  0 0.38131531E+03</rscale>
<asrwt>0</asrwt>
<pdfrwt beam="1">  1        2 0.95394522E-01 0.38131531E+03</pdfrwt>
<pdfrwt beam="2">  1       -2 0.77765860E-02 0.38131531E+03</pdfrwt>
<totfact> 0.48289208E+03</totfact>
</mgrwt>
</event>
<event>
 4    1  0.2679255E-004  0.3268348E+03  0.7818608E-02  0.1072546E+00
         -2   -1    0    0    0  501 -0.00000000000E+00  0.00000000000E+00  0.21326078303E+02  0.21326078455E+02  0.25500000000E-02 0. -1.
          2   -1    0    0  501    0  0.00000000000E+00 -0.00000000000E+00 -0.12522344517E+04  0.12522344517E+04  0.25500000000E-02 0.  1.
    5000001    1    1    2    0    0 -0.72780644057E+02 -0.36709503592E+02 -0.37112341988E+03  0.40063225356E+03  0.12700000000E+03 0.  0.
   -5000001    1    1    2    0    0  0.72780644057E+02  0.36709503592E+02 -0.85978495352E+03  0.87292827661E+03  0.12700000000E+03 0.  0.
<mgrwt>
<rscale>  0 0.32683482E+03</rscale>
<asrwt>0</asrwt>
<pdfrwt beam="1">  1        2 0.17889059E+00 0.32683482E+03</pdfrwt>
<pdfrwt beam="2">  1       -2 0.30465834E-02 0.32683482E+03</pdfrwt>
<totfact> 0.87222659E+03</totfact>
</mgrwt>
</event>
<event>
 4    1  0.2679255E-004  0.3486519E+03  0.7818608E-02  0.1063170E+00
          2   -1    0    0  501    0  0.00000000000E+00  0.00000000000E+00  0.16516736559E+03  0.16516736561E+03  0.25500000000E-02 0.  1.
         -2   -1    0    0    0  501 -0.00000000000E+00 -0.00000000000E+00 -0.18399239040E+03  0.18399239041E+03  0.25500000000E-02 0. -1.
    5000001    1    1    2    0    0 -0.11939714919E+03  0.21967658338E+01 -0.92294834467E+01  0.17457000997E+03  0.12700000000E+03 0.  0.
   -5000001    1    1    2    0    0  0.11939714919E+03 -0.21967658338E+01 -0.95955413592E+01  0.17458974606E+03  0.12700000000E+03 0.  0.
<mgrwt>
<rscale>  0 0.34865191E+03</rscale>
<asrwt>0</asrwt>
<pdfrwt beam="1">  1        2 0.23595338E-01 0.34865191E+03</pdfrwt>
<pdfrwt beam="2">  1       -2 0.26284627E-01 0.34865191E+03</pdfrwt>
<totfact> 0.29981086E+03</totfact>
</mgrwt>
</event>
<event>
 4    1  0.2679255E-004  0.3849496E+03  0.7818608E-02  0.1049119E+00
         -2   -1    0    0    0  501 -0.00000000000E+00  0.00000000000E+00  0.10768697830E+03  0.10768697833E+03  0.25500000000E-02 0. -1.
          2   -1    0    0  501    0  0.00000000000E+00 -0.00000000000E+00 -0.34402064690E+03  0.34402064691E+03  0.25500000000E-02 0.  1.
    5000001    1    1    2    0    0  0.11699986193E+03 -0.59236347688E+02 -0.46601364373E+02  0.18841072088E+03  0.12700000000E+03 0.  0.
   -5000001    1    1    2    0    0 -0.11699986193E+03  0.59236347688E+02 -0.18973230423E+03  0.26329690436E+03  0.12700000000E+03 0.  0.
<mgrwt>
<rscale>  0 0.38494958E+03</rscale>
<asrwt>0</asrwt>
<pdfrwt beam="1">  1        2 0.49145806E-01 0.38494958E+03</pdfrwt>
<pdfrwt beam="2">  1       -2 0.15383854E-01 0.38494958E+03</pdfrwt>
<totfact> 0.33720393E+03</totfact>
</mgrwt>
</event>
<event>
 4    1  0.2679255E-004  0.3476964E+03  0.7818608E-02  0.1063565E+00
          2   -1    0    0  501    0  0.00000000000E+00  0.00000000000E+00  0.13226309035E+04  0.13226309035E+04  0.25500000000E-02 0.  1.
         -2   -1    0    0    0  501 -0.00000000000E+00 -0.00000000000E+00 -0.22850817588E+02  0.22850817730E+02  0.25500000000E-02 0. -1.
    5000001    1    1    2    0    0  0.95537047937E+02  0.69049081835E+02  0.59528822532E+03  0.61999368903E+03  0.12700000000E+03 0.  0.
   -5000001    1    1    2    0    0 -0.95537047937E+02 -0.69049081835E+02  0.70449186060E+03  0.72548803221E+03  0.12700000000E+03 0.  0.
<mgrwt>
<rscale>  0 0.34769641E+03</rscale>
<asrwt>0</asrwt>
<pdfrwt beam="1">  1        2 0.18894733E+00 0.34769641E+03</pdfrwt>
<pdfrwt beam="2">  1       -2 0.32644016E-02 0.34769641E+03</pdfrwt>
<totfact> 0.72212878E+03</totfact>
</mgrwt>
</event>
<event>
 4    1  0.2679255E-004  0.3064213E+03  0.7818608E-02  0.1082074E+00
          2   -1    0    0  501    0  0.00000000000E+00  0.00000000000E+00  0.35465719652E+03  0.35465719652E+03  0.25500000000E-02 0.  1.
         -2   -1    0    0    0  501 -0.00000000000E+00 -0.00000000000E+00 -0.66186441501E+02  0.66186441550E+02  0.25500000000E-02 0. -1.
    5000001    1    1    2    0    0 -0.53546728273E+02 -0.65222303045E+02  0.12371226657E+03  0.19635408278E+03  0.12700000000E+03 0.  0.
   -5000001    1    1    2    0    0  0.53546728273E+02  0.65222303045E+02  0.16475848844E+03  0.22448955530E+03  0.12700000000E+03 0.  0.
<mgrwt>
<rscale>  0 0.30642126E+03</rscale>
<asrwt>0</asrwt>
<pdfrwt beam="1">  1        2 0.50665315E-01 0.30642126E+03</pdfrwt>
<pdfrwt beam="2">  1       -2 0.94552058E-02 0.30642126E+03</pdfrwt>
<totfact> 0.71553050E+03</totfact>
</mgrwt>
</event>
<event>
 4    1  0.2679255E-004  0.3174785E+03  0.7818608E-02  0.1076816E+00
         -2   -1    0    0    0  501 -0.00000000000E+00  0.00000000000E+00  0.30757386432E+02  0.30757386538E+02  0.25500000000E-02 0. -1.
          2   -1    0    0  501    0  0.00000000000E+00 -0.00000000000E+00 -0.81925501488E+03  0.81925501488E+03  0.25500000000E-02 0.  1.
    5000001    1    1    2    0    0 -0.93686030253E+02 -0.15546942648E+02 -0.41324947345E+03  0.44263179619E+03  0.12700000000E+03 0.  0.
   -5000001    1    1    2    0    0  0.93686030253E+02  0.15546942648E+02 -0.37524815499E+03  0.40738060523E+03  0.12700000000E+03 0.  0.
<mgrwt>
<rscale>  0 0.31747846E+03</rscale>
<asrwt>0</asrwt>
<pdfrwt beam="1">  1        2 0.11703642E+00 0.31747846E+03</pdfrwt>
<pdfrwt beam="2">  1       -2 0.43939129E-02 0.31747846E+03</pdfrwt>
<totfact> 0.90392630E+03</totfact>
</mgrwt>
</event>
<event>
 4    1  0.2679255E-004  0.4431385E+03  0.7818608E-02  0.1029788E+00
         -2   -1    0    0    0  501 -0.00000000000E+00  0.00000000000E+00  0.18977328444E+03  0.18977328446E+03  0.25500000000E-02 0. -1.
          2   -1    0    0  501    0  0.00000000000E+00 -0.00000000000E+00 -0.25869256314E+03  0.25869256315E+03  0.25500000000E-02 0.  1.
    5000001    1    1    2    0    0 -0.75933408495E+02 -0.14338436623E+03  0.47999822771E+02  0.21156072885E+03  0.12700000000E+03 0.  0.
   -5000001    1    1    2    0    0  0.75933408495E+02  0.14338436623E+03 -0.11691910147E+03  0.23690511876E+03  0.12700000000E+03 0.  0.
<mgrwt>
<rscale>  0 0.44313852E+03</rscale>
<asrwt>0</asrwt>
<pdfrwt beam="1">  1        2 0.36956081E-01 0.44313852E+03</pdfrwt>
<pdfrwt beam="2">  1       -2 0.27110469E-01 0.44313852E+03</pdfrwt>
<totfact> 0.17273298E+03</totfact>
</mgrwt>
</event>
<event>
 4    1  0.2679255E-004  0.4947207E+03  0.7818608E-02  0.1015166E+00
          2   -1    0    0  501    0  0.00000000000E+00  0.00000000000E+00  0.10148937877E+03  0.10148937881E+03  0.25500000000E-02 0.  1.
         -2   -1    0    0    0  501 -0.00000000000E+00 -0.00000000000E+00 -0.60289216529E+03  0.60289216529E+03  0.25500000000E-02 0. -1.
    5000001    1    1    2    0    0 -0.88139271017E+02 -0.14150817981E+03 -0.63619463045E+02  0.21901947888E+03  0.12700000000E+03 0.  0.
   -5000001    1    1    2    0    0  0.88139271017E+02  0.14150817981E+03 -0.43778332347E+03  0.48536206522E+03  0.12700000000E+03 0.  0.
<mgrwt>
<rscale>  0 0.49472073E+03</rscale>
<asrwt>0</asrwt>
<pdfrwt beam="1">  1        2 0.14498483E-01 0.49472073E+03</pdfrwt>
<pdfrwt beam="2">  1       -2 0.86127450E-01 0.49472073E+03</pdfrwt>
<totfact> 0.49306036E+02</totfact>
</mgrwt>
</event>
<event>
 4    1  0.2679255E-004  0.5523969E+03  0.7818608E-02  0.1000941E+00
         -2   -1    0    0    0  501 -0.00000000000E+00  0.00000000000E+00  0.70153056062E+03  0.70153056063E+03  0.25500000000E-02 0. -1.
          2   -1    0    0  501    0  0.00000000000E+00 -0.00000000000E+00 -0.10874163940E+03  0.10874163943E+03  0.25500000000E-02 0.  1.
    5000001    1    1    2    0    0 -0.15876155663E+03 -0.18546451349E+03  0.26186111266E+03  0.37987176778E+03  0.12700000000E+03 0.  0.
   -5000001    1    1    2    0    0  0.15876155663E+03  0.18546451349E+03  0.33092780856E+03  0.43040043228E+03  0.12700000000E+03 0.  0.
<mgrwt>
<rscale>  0 0.55239690E+03</rscale>
<asrwt>0</asrwt>
<pdfrwt beam="1">  1        2 0.15534520E-01 0.55239690E+03</pdfrwt>
<pdfrwt beam="2">  1       -2 0.10021865E+00 0.55239690E+03</pdfrwt>
<totfact> 0.31943063E+02</totfact>
</mgrwt>
</event>
<event>
 4    1  0.2679255E-004  0.3618917E+03  0.7818608E-02  0.1057837E+00
          2   -1    0    0  501    0  0.00000000000E+00  0.00000000000E+00  0.44845639118E+03  0.44845639119E+03  0.25500000000E-02 0.  1.
         -2   -1    0    0    0  501 -0.00000000000E+00 -0.00000000000E+00 -0.73009115156E+02  0.73009115201E+02  0.25500000000E-02 0. -1.
    5000001    1    1    2    0    0  0.65936104935E+02 -0.46057517216E+02  0.42598815584E+02  0.15624507645E+03  0.12700000000E+03 0.  0.
   -5000001    1    1    2    0    0 -0.65936104935E+02  0.46057517216E+02  0.33284846044E+03  0.36522042994E+03  0.12700000000E+03 0.  0.
<mgrwt>
<rscale>  0 0.36189172E+03</rscale>
<asrwt>0</asrwt>
<pdfrwt beam="1">  1        2 0.64065203E-01 0.36189172E+03</pdfrwt>
<pdfrwt beam="2">  1       -2 0.10429873E-01 0.36189172E+03</pdfrwt>
<totfact> 0.47600615E+03</totfact>
</mgrwt>
</event>
<event>
 4    1  0.2679255E-004  0.3874139E+03  0.7818608E-02  0.1048227E+00
         -2   -1    0    0    0  501 -0.00000000000E+00  0.00000000000E+00  0.10675865247E+02  0.10675865551E+02  0.25500000000E-02 0. -1.
          2   -1    0    0  501    0  0.00000000000E+00 -0.00000000000E+00 -0.35146925294E+04  0.35146925294E+04  0.25500000000E-02 0.  1.
    5000001    1    1    2    0    0  0.47180640985E+02  0.10900847345E+03 -0.25286664612E+04  0.25346384223E+04  0.12700000000E+03 0.  0.
   -5000001    1    1    2    0    0 -0.47180640985E+02 -0.10900847345E+03 -0.97535020295E+03  0.99072997257E+03  0.12700000000E+03 0.  0.
<mgrwt>
<rscale>  0 0.38741391E+03</rscale>
<asrwt>0</asrwt>
<pdfrwt beam="1">  1        2 0.50209819E+00 0.38741391E+03</pdfrwt>
<pdfrwt beam="2">  1       -2 0.15251259E-02 0.38741391E+03</pdfrwt>
<totfact> 0.16321843E+03</totfact>
</mgrwt>
</event>
<event>
 4    1  0.2679255E-004  0.4492965E+03  0.7818608E-02  0.1027932E+00
         -2   -1    0    0    0  501 -0.00000000000E+00  0.00000000000E+00  0.19359350195E+03  0.19359350197E+03  0.25500000000E-02 0. -1.
          2   -1    0    0  501    0  0.00000000000E+00 -0.00000000000E+00 -0.26068461288E+03  0.26068461289E+03  0.25500000000E-02 0.  1.
    5000001    1    1    2    0    0  0.19346085372E+02  0.10499340110E+03 -0.18668429847E+03  0.24975570582E+03  0.12700000000E+03 0.  0.
   -5000001    1    1    2    0    0 -0.19346085372E+02 -0.10499340110E+03  0.11959318754E+03  0.20452240904E+03  0.12700000000E+03 0.  0.
<mgrwt>
<rscale>  0 0.44929655E+03</rscale>
<asrwt>0</asrwt>
<pdfrwt beam="1">  1        2 0.37240659E-01 0.44929655E+03</pdfrwt>
<pdfrwt beam="2">  1       -2 0.27656214E-01 0.44929655E+03</pdfrwt>
<totfact> 0.16523454E+03</totfact>
</mgrwt>
</event>
<event>
 4    1  0.2679255E-004  0.6887000E+03  0.7818608E-02  0.9736754E-01
          2   -1    0    0  501    0  0.00000000000E+00  0.00000000000E+00  0.16799772115E+04  0.16799772115E+04  0.25500000000E-02 0.  1.
         -2   -1    0    0    0  501 -0.00000000000E+00 -0.00000000000E+00 -0.70582467137E+02  0.70582467183E+02  0.25500000000E-02 0. -1.
    5000001    1    1    2    0    0  0.30978555271E+03 -0.64801498271E+02  0.92611111657E+03  0.98690279313E+03  0.12700000000E+03 0.  0.
   -5000001    1    1    2    0    0 -0.30978555271E+03  0.64801498271E+02  0.68328362775E+03  0.76365688551E+03  0.12700000000E+03 0.  0.
<mgrwt>
<rscale>  0 0.68870004E+03</rscale>
<asrwt>0</asrwt>
<pdfrwt beam="1">  1        2 0.23999673E+00 0.68870004E+03</pdfrwt>
<pdfrwt beam="2">  1       -2 0.10083210E-01 0.68870004E+03</pdfrwt>
<totfact> 0.80834453E+02</totfact>
</mgrwt>
</event>
<event>
 4    1  0.2679255E-004  0.4053686E+03  0.7818608E-02  0.1041936E+00
         -2   -1    0    0    0  501 -0.00000000000E+00  0.00000000000E+00  0.32901619223E+03  0.32901619224E+03  0.25500000000E-02 0. -1.
          2   -1    0    0  501    0  0.00000000000E+00 -0.00000000000E+00 -0.12485989456E+03  0.12485989458E+03  0.25500000000E-02 0.  1.
    5000001    1    1    2    0    0 -0.34219640236E+02  0.15038857771E+03  0.63874527793E+02  0.20975381614E+03  0.12700000000E+03 0.  0.
   -5000001    1    1    2    0    0  0.34219640236E+02 -0.15038857771E+03  0.14028176989E+03  0.24412227069E+03  0.12700000000E+03 0.  0.
<mgrwt>
<rscale>  0 0.40536861E+03</rscale>
<asrwt>0</asrwt>
<pdfrwt beam="1">  1        2 0.17837128E-01 0.40536861E+03</pdfrwt>
<pdfrwt beam="2">  1       -2 0.47002313E-01 0.40536861E+03</pdfrwt>
<totfact> 0.13902497E+03</totfact>
</mgrwt>
</event>
<event>
 4    1  0.2679255E-004  0.3371599E+03  0.7818608E-02  0.1068012E+00
          2   -1    0    0  501    0  0.00000000000E+00  0.00000000000E+00  0.15459565294E+03  0.15459565296E+03  0.25500000000E-02 0.  1.
         -2   -1    0    0    0  501 -0.00000000000E+00 -0.00000000000E+00 -0.18382921566E+03  0.18382921568E+03  0.25500000000E-02 0. -1.
    5000001    1    1    2    0    0  0.76884485319E+02  0.69692621437E+02 -0.53774839536E+02  0.17259495628E+03  0.12700000000E+03 0.  0.
   -5000001    1    1    2    0    0 -0.76884485319E+02 -0.69692621437E+02  0.24541276809E+02  0.16582991236E+03  0.12700000000E+03 0.  0.
<mgrwt>
<rscale>  0 0.33715989E+03</rscale>
<asrwt>0</asrwt>
<pdfrwt beam="1">  1        2 0.22085093E-01 0.33715989E+03</pdfrwt>
<pdfrwt beam="2">  1       -2 0.26261316E-01 0.33715989E+03</pdfrwt>
<totfact> 0.32347546E+03</totfact>
</mgrwt>
</event>
<event>
 4    1  0.2679255E-004  0.6226774E+03  0.7818608E-02  0.9859443E-01
         -2   -1    0    0    0  501 -0.00000000000E+00  0.00000000000E+00  0.10841242254E+03  0.10841242257E+03  0.25500000000E-02 0.  1.
          2   -1    0    0  501    0  0.00000000000E+00 -0.00000000000E+00 -0.89410230747E+03  0.89410230747E+03  0.25500000000E-02 0. -1.
    5000001    1    1    2    0    0 -0.16882086154E+03  0.21847357114E+03 -0.50170344213E+03  0.58657184421E+03  0.12700000000E+03 0.  0.
   -5000001    1    1    2    0    0  0.16882086154E+03 -0.21847357114E+03 -0.28398644280E+03  0.41594288582E+03  0.12700000000E+03 0.  0.
<mgrwt>
<rscale>  0 0.62267744E+03</rscale>
<asrwt>0</asrwt>
<pdfrwt beam="1">  1        2 0.12772890E+00 0.62267744E+03</pdfrwt>
<pdfrwt beam="2">  1       -2 0.15487489E-01 0.62267744E+03</pdfrwt>
<totfact> 0.10925482E+03</totfact>
</mgrwt>
</event>
<event>
 4    1  0.2679255E-004  0.5229508E+03  0.7818608E-02  0.1007956E+00
          2   -1    0    0  501    0  0.00000000000E+00  0.00000000000E+00  0.14719839406E+04  0.14719839406E+04  0.25500000000E-02 0.  1.
         -2   -1    0    0    0  501 -0.00000000000E+00 -0.00000000000E+00 -0.46447101583E+02  0.46447101653E+02  0.25500000000E-02 0. -1.
    5000001    1    1    2    0    0  0.46253506569E+02  0.22028397085E+03  0.59750045657E+03  0.65099939346E+03  0.12700000000E+03 0.  0.
   -5000001    1    1    2    0    0 -0.46253506569E+02 -0.22028397085E+03  0.82803638247E+03  0.86743164882E+03  0.12700000000E+03 0.  0.
<mgrwt>
<rscale>  0 0.52295081E+03</rscale>
<asrwt>0</asrwt>
<pdfrwt beam="1">  1        2 0.21028336E+00 0.52295081E+03</pdfrwt>
<pdfrwt beam="2">  1       -2 0.66353021E-02 0.52295081E+03</pdfrwt>
<totfact> 0.20320199E+03</totfact>
</mgrwt>
</event>
<event>
 4    1  0.2679255E-004  0.5286787E+03  0.7818608E-02  0.1006553E+00
         -2   -1    0    0    0  501 -0.00000000000E+00  0.00000000000E+00  0.73272799978E+02  0.73272800022E+02  0.25500000000E-02 0. -1.
          2   -1    0    0  501    0  0.00000000000E+00 -0.00000000000E+00 -0.95363211146E+03  0.95363211146E+03  0.25500000000E-02 0.  1.
    5000001    1    1    2    0    0  0.20875123512E+03 -0.84499562727E+02 -0.54708291928E+03  0.60509997095E+03  0.12700000000E+03 0.  0.
   -5000001    1    1    2    0    0 -0.20875123512E+03  0.84499562727E+02 -0.33327639220E+03  0.42180494054E+03  0.12700000000E+03 0.  0.
<mgrwt>
<rscale>  0 0.52867871E+03</rscale>
<asrwt>0</asrwt>
<pdfrwt beam="1">  1        2 0.13623315E+00 0.52867871E+03</pdfrwt>
<pdfrwt beam="2">  1       -2 0.10467543E-01 0.52867871E+03</pdfrwt>
<totfact> 0.19176605E+03</totfact>
</mgrwt>
</event>
<event>
 4    1  0.2679255E-004  0.3860237E+03  0.7818608E-02  0.1048730E+00
          2   -1    0    0  501    0  0.00000000000E+00  0.00000000000E+00  0.14890794448E+04  0.14890794448E+04  0.25500000000E-02 0.  1.
         -2   -1    0    0    0  501 -0.00000000000E+00 -0.00000000000E+00 -0.25017855401E+02  0.25017855531E+02  0.25500000000E-02 0. -1.
    5000001    1    1    2    0    0  0.43719763281E+02 -0.12688472802E+03  0.51317460185E+03  0.54542490216E+03  0.12700000000E+03 0.  0.
   -5000001    1    1    2    0    0 -0.43719763281E+02  0.12688472802E+03  0.95088698755E+03  0.96867239818E+03  0.12700000000E+03 0.  0.
<mgrwt>
<rscale>  0 0.38602370E+03</rscale>
<asrwt>0</asrwt>
<pdfrwt beam="1">  1        2 0.21272564E+00 0.38602370E+03</pdfrwt>
<pdfrwt beam="2">  1       -2 0.35739792E-02 0.38602370E+03</pdfrwt>
<totfact> 0.51661049E+03</totfact>
</mgrwt>
</event>
<event>
 4    1  0.2679255E-004  0.3944382E+03  0.7818608E-02  0.1045723E+00
         -2   -1    0    0    0  501 -0.00000000000E+00  0.00000000000E+00  0.81703578779E+02  0.81703578819E+02  0.25500000000E-02 0. -1.
          2   -1    0    0  501    0  0.00000000000E+00 -0.00000000000E+00 -0.47605461382E+03  0.47605461382E+03  0.25500000000E-02 0.  1.
    5000001    1    1    2    0    0  0.14122339273E+03 -0.53068361989E+02 -0.19369223784E+03  0.27641631771E+03  0.12700000000E+03 0.  0.
   -5000001    1    1    2    0    0 -0.14122339273E+03  0.53068361989E+02 -0.20065879720E+03  0.28134187493E+03  0.12700000000E+03 0.  0.
<mgrwt>
<rscale>  0 0.39443816E+03</rscale>
<asrwt>0</asrwt>
<pdfrwt beam="1">  1        2 0.68007800E-01 0.39443816E+03</pdfrwt>
<pdfrwt beam="2">  1       -2 0.11671940E-01 0.39443816E+03</pdfrwt>
<totfact> 0.37214482E+03</totfact>
</mgrwt>
</event>
<event>
 4    1  0.2679255E-004  0.3613019E+03  0.7818608E-02  0.1058070E+00
         -2   -1    0    0    0  501 -0.00000000000E+00  0.00000000000E+00  0.22703510762E+02  0.22703510906E+02  0.25500000000E-02 0. -1.
          2   -1    0    0  501    0  0.00000000000E+00 -0.00000000000E+00 -0.14374324646E+04  0.14374324646E+04  0.25500000000E-02 0.  1.
    5000001    1    1    2    0    0 -0.28405824274E+01 -0.12466046610E+03 -0.83241457302E+03  0.85122930053E+03  0.12700000000E+03 0.  0.
   -5000001    1    1    2    0    0  0.28405824274E+01  0.12466046610E+03 -0.58231438083E+03  0.60890667499E+03  0.12700000000E+03 0.  0.
<mgrwt>
<rscale>  0 0.36130189E+03</rscale>
<asrwt>0</asrwt>
<pdfrwt beam="1">  1        2 0.20534744E+00 0.36130189E+03</pdfrwt>
<pdfrwt beam="2">  1       -2 0.32433596E-02 0.36130189E+03</pdfrwt>
<totfact> 0.63545862E+03</totfact>
</mgrwt>
</event>
<event>
 4    1  0.2679255E-004  0.3615666E+03  0.7818608E-02  0.1057965E+00
          2   -1    0    0  501    0  0.00000000000E+00  0.00000000000E+00  0.39564054952E+03  0.39564054952E+03  0.25500000000E-02 0.  1.
         -2   -1    0    0    0  501 -0.00000000000E+00 -0.00000000000E+00 -0.82606810057E+02  0.82606810097E+02  0.25500000000E-02 0. -1.
    5000001    1    1    2    0    0 -0.13677896095E+02 -0.10974273898E+03  0.24348485262E+03  0.29604801478E+03  0.12700000000E+03 0.  0.
   -5000001    1    1    2    0    0  0.13677896095E+02  0.10974273898E+03  0.69548886839E+02  0.18219934484E+03  0.12700000000E+03 0.  0.
<mgrwt>
<rscale>  0 0.36156661E+03</rscale>
<asrwt>0</asrwt>
<pdfrwt beam="1">  1        2 0.56520078E-01 0.36156661E+03</pdfrwt>
<pdfrwt beam="2">  1       -2 0.11800973E-01 0.36156661E+03</pdfrwt>
<totfact> 0.44736836E+03</totfact>
</mgrwt>
</event>
<event>
 4    1  0.2679255E-004  0.7592166E+03  0.7818608E-02  0.9621001E-01
         -2   -1    0    0    0  501 -0.00000000000E+00  0.00000000000E+00  0.14922840128E+03  0.14922840130E+03  0.25500000000E-02 0. -1.
          2   -1    0    0  501    0  0.00000000000E+00 -0.00000000000E+00 -0.96565027379E+03  0.96565027380E+03  0.25500000000E-02 0.  1.
    5000001    1    1    2    0    0 -0.29514035496E+03  0.18345969991E+03 -0.28353747326E+03  0.46614138344E+03  0.12700000000E+03 0.  0.
   -5000001    1    1    2    0    0  0.29514035496E+03 -0.18345969991E+03 -0.53288439925E+03  0.64873729166E+03  0.12700000000E+03 0.  0.
<mgrwt>
<rscale>  0 0.75921656E+03</rscale>
<asrwt>0</asrwt>
<pdfrwt beam="1">  1        2 0.13795004E+00 0.75921656E+03</pdfrwt>
<pdfrwt beam="2">  1       -2 0.21318344E-01 0.75921656E+03</pdfrwt>
<totfact> 0.56445677E+02</totfact>
</mgrwt>
</event>
<event>
 4    1  0.2679255E-004  0.4070701E+03  0.7818608E-02  0.1041359E+00
         -2   -1    0    0    0  501 -0.00000000000E+00  0.00000000000E+00  0.23956866977E+03  0.23956866978E+03  0.25500000000E-02 0. -1.
          2   -1    0    0  501    0  0.00000000000E+00 -0.00000000000E+00 -0.17292126711E+03  0.17292126713E+03  0.25500000000E-02 0.  1.
    5000001    1    1    2    0    0 -0.80330760700E+02 -0.64986236088E+02  0.15585210734E+03  0.22604229993E+03  0.12700000000E+03 0.  0.
   -5000001    1    1    2    0    0  0.80330760700E+02  0.64986236088E+02 -0.89204704686E+02  0.18644763698E+03  0.12700000000E+03 0.  0.
<mgrwt>
<rscale>  0 0.40707011E+03</rscale>
<asrwt>0</asrwt>
<pdfrwt beam="1">  1        2 0.24703038E-01 0.40707011E+03</pdfrwt>
<pdfrwt beam="2">  1       -2 0.34224095E-01 0.40707011E+03</pdfrwt>
<totfact> 0.17608903E+03</totfact>
</mgrwt>
</event>
<event>
 4    1  0.2679255E-004  0.3407782E+03  0.7818608E-02  0.1066465E+00
          2   -1    0    0  501    0  0.00000000000E+00  0.00000000000E+00  0.31308705539E+04  0.31308705539E+04  0.25500000000E-02 0.  1.
         -2   -1    0    0    0  501 -0.00000000000E+00 -0.00000000000E+00 -0.92729601206E+01  0.92729604712E+01  0.25500000000E-02 0. -1.
    5000001    1    1    2    0    0  0.92181365018E+02  0.97351877419E+01  0.21658329256E+04  0.21715325094E+04  0.12700000000E+03 0.  0.
   -5000001    1    1    2    0    0 -0.92181365018E+02 -0.97351877419E+01  0.95576466814E+03  0.96861100490E+03  0.12700000000E+03 0.  0.
<mgrwt>
<rscale>  0 0.34077816E+03</rscale>
<asrwt>0</asrwt>
<pdfrwt beam="1">  1        2 0.44726654E+00 0.34077816E+03</pdfrwt>
<pdfrwt beam="2">  1       -2 0.13247106E-02 0.34077816E+03</pdfrwt>
<totfact> 0.33257607E+03</totfact>
</mgrwt>
</event>
<event>
 4    1  0.2679255E-004  0.3714203E+03  0.7818608E-02  0.1054151E+00
         -2   -1    0    0    0  501 -0.00000000000E+00  0.00000000000E+00  0.51090495553E+02  0.51090495616E+02  0.25500000000E-02 0. -1.
          2   -1    0    0  501    0  0.00000000000E+00 -0.00000000000E+00 -0.67504248159E+03  0.67504248160E+03  0.25500000000E-02 0.  1.
    5000001    1    1    2    0    0  0.73934086913E+02 -0.10838138588E+03 -0.37817233177E+03  0.41994771881E+03  0.12700000000E+03 0.  0.
   -5000001    1    1    2    0    0 -0.73934086913E+02  0.10838138588E+03 -0.24577965427E+03  0.30618525841E+03  0.12700000000E+03 0.  0.
<mgrwt>
<rscale>  0 0.37142027E+03</rscale>
<asrwt>0</asrwt>
<pdfrwt beam="1">  1        2 0.96434635E-01 0.37142027E+03</pdfrwt>
<pdfrwt beam="2">  1       -2 0.72986426E-02 0.37142027E+03</pdfrwt>
<totfact> 0.52631218E+03</totfact>
</mgrwt>
</event>
<event>
 4    1  0.2679255E-004  0.2730856E+03  0.7818608E-02  0.1099527E+00
         -2   -1    0    0    0  501 -0.00000000000E+00  0.00000000000E+00  0.76363122784E+02  0.76363122826E+02  0.25500000000E-02 0. -1.
          2   -1    0    0  501    0  0.00000000000E+00 -0.00000000000E+00 -0.24414833785E+03  0.24414833787E+03  0.25500000000E-02 0.  1.
    5000001    1    1    2    0    0  0.25600602592E+02  0.42112619368E+01 -0.33523235175E+02  0.13388776224E+03  0.12700000000E+03 0.  0.
   -5000001    1    1    2    0    0 -0.25600602592E+02 -0.42112619368E+01 -0.13426197989E+03  0.18662369846E+03  0.12700000000E+03 0.  0.
<mgrwt>
<rscale>  0 0.27308555E+03</rscale>
<asrwt>0</asrwt>
<pdfrwt beam="1">  1        2 0.34878334E-01 0.27308555E+03</pdfrwt>
<pdfrwt beam="2">  1       -2 0.10909018E-01 0.27308555E+03</pdfrwt>
<totfact> 0.84900690E+03</totfact>
</mgrwt>
</event>
<event>
 4    1  0.2679255E-004  0.2827395E+03  0.7818608E-02  0.1094202E+00
         -2   -1    0    0    0  501 -0.00000000000E+00  0.00000000000E+00  0.15311291544E+02  0.15311291757E+02  0.25500000000E-02 0.  1.
          2   -1    0    0  501    0  0.00000000000E+00 -0.00000000000E+00 -0.13052728145E+04  0.13052728145E+04  0.25500000000E-02 0. -1.
    5000001    1    1    2    0    0 -0.22012655073E+02  0.38109933656E+02 -0.44034935375E+03  0.46040577470E+03  0.12700000000E+03 0.  0.
   -5000001    1    1    2    0    0  0.22012655073E+02 -0.38109933656E+02 -0.84961216919E+03  0.86017833155E+03  0.12700000000E+03 0.  0.
<mgrwt>
<rscale>  0 0.28273955E+03</rscale>
<asrwt>0</asrwt>
<pdfrwt beam="1">  1        2 0.18646747E+00 0.28273955E+03</pdfrwt>
<pdfrwt beam="2">  1       -2 0.21873282E-02 0.28273955E+03</pdfrwt>
<totfact> 0.13322492E+04</totfact>
</mgrwt>
</event>
<event>
 4    1  0.2679255E-004  0.3359751E+03  0.7818608E-02  0.1068523E+00
         -2   -1    0    0    0  501 -0.00000000000E+00  0.00000000000E+00  0.11032151944E+02  0.11032152238E+02  0.25500000000E-02 0. -1.
          2   -1    0    0  501    0  0.00000000000E+00 -0.00000000000E+00 -0.25579614732E+04  0.25579614732E+04  0.25500000000E-02 0.  1.
    5000001    1    1    2    0    0  0.66215426278E+02  0.66750194057E+02 -0.17094256461E+04  0.17167134620E+04  0.12700000000E+03 0.  0.
   -5000001    1    1    2    0    0 -0.66215426278E+02 -0.66750194057E+02 -0.83750367514E+03  0.85228016342E+03  0.12700000000E+03 0.  0.
<mgrwt>
<rscale>  0 0.33597512E+03</rscale>
<asrwt>0</asrwt>
<pdfrwt beam="1">  1        2 0.36542269E+00 0.33597512E+03</pdfrwt>
<pdfrwt beam="2">  1       -2 0.15760234E-02 0.33597512E+03</pdfrwt>
<totfact> 0.51397756E+03</totfact>
</mgrwt>
</event>
<event>
 4    1  0.2679255E-004  0.3870251E+03  0.7818608E-02  0.1048367E+00
         -2   -1    0    0    0  501 -0.00000000000E+00  0.00000000000E+00  0.16376658279E+02  0.16376658478E+02  0.25500000000E-02 0. -1.
          2   -1    0    0  501    0  0.00000000000E+00 -0.00000000000E+00 -0.22866142506E+04  0.22866142506E+04  0.25500000000E-02 0.  1.
    5000001    1    1    2    0    0 -0.16171419232E+02  0.12772336853E+03 -0.15449402145E+04  0.15554883606E+04  0.12700000000E+03 0.  0.
   -5000001    1    1    2    0    0  0.16171419232E+02 -0.12772336853E+03 -0.72529737780E+03  0.74750254843E+03  0.12700000000E+03 0.  0.
<mgrwt>
<rscale>  0 0.38702507E+03</rscale>
<asrwt>0</asrwt>
<pdfrwt beam="1">  1        2 0.32665898E+00 0.38702507E+03</pdfrwt>
<pdfrwt beam="2">  1       -2 0.23395241E-02 0.38702507E+03</pdfrwt>
<totfact> 0.39087420E+03</totfact>
</mgrwt>
</event>
<event>
 4    1  0.2679255E-004  0.3625763E+03  0.7818608E-02  0.1057568E+00
         -2   -1    0    0    0  501 -0.00000000000E+00  0.00000000000E+00  0.80507458269E+02  0.80507458310E+02  0.25500000000E-02 0.  1.
          2   -1    0    0  501    0  0.00000000000E+00 -0.00000000000E+00 -0.40822792813E+03  0.40822792814E+03  0.25500000000E-02 0. -1.
    5000001    1    1    2    0    0  0.12433764555E+03  0.15983614324E+02 -0.12078759722E+03  0.21548542798E+03  0.12700000000E+03 0.  0.
   -5000001    1    1    2    0    0 -0.12433764555E+03 -0.15983614324E+02 -0.20693287263E+03  0.27324995847E+03  0.12700000000E+03 0.  0.
<mgrwt>
<rscale>  0 0.36257630E+03</rscale>
<asrwt>0</asrwt>
<pdfrwt beam="1">  1        2 0.58318274E-01 0.36257630E+03</pdfrwt>
<pdfrwt beam="2">  1       -2 0.11501066E-01 0.36257630E+03</pdfrwt>
<totfact> 0.45077050E+03</totfact>
</mgrwt>
</event>
<event>
 4    1  0.2679255E-004  0.4366585E+03  0.7818608E-02  0.1031777E+00
         -2   -1    0    0    0  501 -0.00000000000E+00  0.00000000000E+00  0.15369834930E+03  0.15369834932E+03  0.25500000000E-02 0. -1.
          2   -1    0    0  501    0  0.00000000000E+00 -0.00000000000E+00 -0.31013771813E+03  0.31013771815E+03  0.25500000000E-02 0.  1.
    5000001    1    1    2    0    0  0.81025069054E+02 -0.13708223650E+03 -0.16173940270E+03  0.26008697731E+03  0.12700000000E+03 0.  0.
   -5000001    1    1    2    0    0 -0.81025069054E+02  0.13708223650E+03  0.53000338620E+01  0.20374909015E+03  0.12700000000E+03 0.  0.
<mgrwt>
<rscale>  0 0.43665847E+03</rscale>
<asrwt>0</asrwt>
<pdfrwt beam="1">  1        2 0.44305388E-01 0.43665847E+03</pdfrwt>
<pdfrwt beam="2">  1       -2 0.21956907E-01 0.43665847E+03</pdfrwt>
<totfact> 0.20596370E+03</totfact>
</mgrwt>
</event>
<event>
 4    1  0.2679255E-004  0.5594264E+03  0.7818608E-02  0.9993353E-01
          2   -1    0    0  501    0  0.00000000000E+00  0.00000000000E+00  0.33772677183E+03  0.33772677184E+03  0.25500000000E-02 0.  1.
         -2   -1    0    0    0  501 -0.00000000000E+00 -0.00000000000E+00 -0.23166497114E+03  0.23166497115E+03  0.25500000000E-02 0. -1.
    5000001    1    1    2    0    0  0.10681153352E+03 -0.17107808255E+03 -0.95980792004E+02  0.25693914933E+03  0.12700000000E+03 0.  0.
   -5000001    1    1    2    0    0 -0.10681153352E+03  0.17107808255E+03  0.20204259270E+03  0.31245259366E+03  0.12700000000E+03 0.  0.
<mgrwt>
<rscale>  0 0.55942636E+03</rscale>
<asrwt>0</asrwt>
<pdfrwt beam="1">  1        2 0.48246682E-01 0.55942636E+03</pdfrwt>
<pdfrwt beam="2">  1       -2 0.33094996E-01 0.55942636E+03</pdfrwt>
<totfact> 0.89332165E+02</totfact>
</mgrwt>
</event>
<event>
 4    1  0.2679255E-004  0.4479984E+03  0.7818608E-02  0.1028321E+00
          2   -1    0    0  501    0  0.00000000000E+00  0.00000000000E+00  0.16004917580E+04  0.16004917580E+04  0.25500000000E-02 0.  1.
         -2   -1    0    0    0  501 -0.00000000000E+00 -0.00000000000E+00 -0.31350145224E+02  0.31350145328E+02  0.25500000000E-02 0. -1.
    5000001    1    1    2    0    0  0.10423334245E+03  0.14709179143E+03  0.92779466424E+03  0.95364171667E+03  0.12700000000E+03 0.  0.
   -5000001    1    1    2    0    0 -0.10423334245E+03 -0.14709179143E+03  0.64134694852E+03  0.67820018665E+03  0.12700000000E+03 0.  0.
<mgrwt>
<rscale>  0 0.44799843E+03</rscale>
<asrwt>0</asrwt>
<pdfrwt beam="1">  1        2 0.22864163E+00 0.44799843E+03</pdfrwt>
<pdfrwt beam="2">  1       -2 0.44785931E-02 0.44799843E+03</pdfrwt>
<totfact> 0.32147074E+03</totfact>
</mgrwt>
</event>
<event>
 4    1  0.2679255E-004  0.5382475E+03  0.7818608E-02  0.1004251E+00
         -2   -1    0    0    0  501 -0.00000000000E+00  0.00000000000E+00  0.97649979230E+02  0.97649979264E+02  0.25500000000E-02 0. -1.
          2   -1    0    0  501    0  0.00000000000E+00 -0.00000000000E+00 -0.74170626032E+03  0.74170626032E+03  0.25500000000E-02 0.  1.
    5000001    1    1    2    0    0 -0.17660224971E+03 -0.15211659895E+03 -0.39125650695E+03  0.47279854960E+03  0.12700000000E+03 0.  0.
   -5000001    1    1    2    0    0  0.17660224971E+03  0.15211659895E+03 -0.25279977414E+03  0.36655768998E+03  0.12700000000E+03 0.  0.
<mgrwt>
<rscale>  0 0.53824753E+03</rscale>
<asrwt>0</asrwt>
<pdfrwt beam="1">  1        2 0.10595803E+00 0.53824753E+03</pdfrwt>
<pdfrwt beam="2">  1       -2 0.13949997E-01 0.53824753E+03</pdfrwt>
<totfact> 0.16575805E+03</totfact>
</mgrwt>
</event>
<event>
 4    1  0.2679255E-004  0.3673592E+03  0.7818608E-02  0.1055707E+00
          2   -1    0    0  501    0  0.00000000000E+00  0.00000000000E+00  0.35269356155E+03  0.35269356156E+03  0.25500000000E-02 0.  1.
         -2   -1    0    0    0  501 -0.00000000000E+00 -0.00000000000E+00 -0.95658688684E+02  0.95658688717E+02  0.25500000000E-02 0. -1.
    5000001    1    1    2    0    0 -0.25654693088E+02 -0.81212119589E+02  0.25271603189E+03  0.29537766405E+03  0.12700000000E+03 0.  0.
   -5000001    1    1    2    0    0  0.25654693088E+02  0.81212119589E+02  0.43188409825E+01  0.15297458623E+03  0.12700000000E+03 0.  0.
<mgrwt>
<rscale>  0 0.36735924E+03</rscale>
<asrwt>0</asrwt>
<pdfrwt beam="1">  1        2 0.50384795E-01 0.36735924E+03</pdfrwt>
<pdfrwt beam="2">  1       -2 0.13665527E-01 0.36735924E+03</pdfrwt>
<totfact> 0.39905837E+03</totfact>
</mgrwt>
</event>
<event>
 4    1  0.2679255E-004  0.2679645E+03  0.7818608E-02  0.1102450E+00
          2   -1    0    0  501    0  0.00000000000E+00  0.00000000000E+00  0.24141363245E+03  0.24141363246E+03  0.25500000000E-02 0.  1.
         -2   -1    0    0    0  501 -0.00000000000E+00 -0.00000000000E+00 -0.74358856366E+02  0.74358856410E+02  0.25500000000E-02 0. -1.
    5000001    1    1    2    0    0 -0.33667713342E+02 -0.48477703281E+01  0.53133826060E+02  0.14180697892E+03  0.12700000000E+03 0.  0.
   -5000001    1    1    2    0    0  0.33667713342E+02  0.48477703281E+01  0.11392095002E+03  0.17396550995E+03  0.12700000000E+03 0.  0.
<mgrwt>
<rscale>  0 0.26796449E+03</rscale>
<asrwt>0</asrwt>
<pdfrwt beam="1">  1        2 0.34487663E-01 0.26796449E+03</pdfrwt>
<pdfrwt beam="2">  1       -2 0.10622693E-01 0.26796449E+03</pdfrwt>
<totfact> 0.89605032E+03</totfact>
</mgrwt>
</event>
<event>
 4    1  0.2679255E-004  0.5344371E+03  0.7818608E-02  0.1005162E+00
         -2   -1    0    0    0  501 -0.00000000000E+00  0.00000000000E+00  0.30879746599E+02  0.30879746704E+02  0.25500000000E-02 0. -1.
          2   -1    0    0  501    0  0.00000000000E+00 -0.00000000000E+00 -0.23123814201E+04  0.23123814201E+04  0.25500000000E-02 0.  1.
    5000001    1    1    2    0    0  0.22913669239E+03 -0.52412191812E+02 -0.11631466867E+04  0.11934361635E+04  0.12700000000E+03 0.  0.
   -5000001    1    1    2    0    0 -0.22913669239E+03  0.52412191812E+02 -0.11183549868E+04  0.11498250033E+04  0.12700000000E+03 0.  0.
<mgrwt>
<rscale>  0 0.53443710E+03</rscale>
<asrwt>0</asrwt>
<pdfrwt beam="1">  1        2 0.33034009E+00 0.53443710E+03</pdfrwt>
<pdfrwt beam="2">  1       -2 0.44113938E-02 0.53443710E+03</pdfrwt>
<totfact> 0.14420004E+03</totfact>
</mgrwt>
</event>
<event>
 4    1  0.2679255E-004  0.3283665E+03  0.7818608E-02  0.1071862E+00
          2   -1    0    0  501    0  0.00000000000E+00  0.00000000000E+00  0.75001337551E+02  0.75001337595E+02  0.25500000000E-02 0.  1.
         -2   -1    0    0    0  501 -0.00000000000E+00 -0.00000000000E+00 -0.35940882764E+03  0.35940882765E+03  0.25500000000E-02 0. -1.
    5000001    1    1    2    0    0  0.40441607075E+02  0.95805781311E+02 -0.14695004991E+03  0.22031247918E+03  0.12700000000E+03 0.  0.
   -5000001    1    1    2    0    0 -0.40441607075E+02 -0.95805781311E+02 -0.13745744018E+03  0.21409768606E+03  0.12700000000E+03 0.  0.
<mgrwt>
<rscale>  0 0.32836652E+03</rscale>
<asrwt>0</asrwt>
<pdfrwt beam="1">  1        2 0.10714477E-01 0.32836652E+03</pdfrwt>
<pdfrwt beam="2">  1       -2 0.51344117E-01 0.32836652E+03</pdfrwt>
<totfact> 0.21484590E+03</totfact>
</mgrwt>
</event>
<event>
 4    1  0.2679255E-004  0.9944612E+03  0.7818608E-02  0.9314641E-01
          2   -1    0    0  501    0  0.00000000000E+00  0.00000000000E+00  0.81203007823E+03  0.81203007824E+03  0.25500000000E-02 0.  1.
         -2   -1    0    0    0  501 -0.00000000000E+00 -0.00000000000E+00 -0.30446932508E+03  0.30446932509E+03  0.25500000000E-02 0. -1.
    5000001    1    1    2    0    0 -0.89395630823E+02 -0.45393614428E+03  0.40042147397E+03  0.62491276088E+03  0.12700000000E+03 0.  0.
   -5000001    1    1    2    0    0  0.89395630823E+02  0.45393614428E+03  0.10713927918E+03  0.49158664245E+03  0.12700000000E+03 0.  0.
<mgrwt>
<rscale>  0 0.99446116E+03</rscale>
<asrwt>0</asrwt>
<pdfrwt beam="1">  1        2 0.11600429E+00 0.99446116E+03</pdfrwt>
<pdfrwt beam="2">  1       -2 0.43495619E-01 0.99446116E+03</pdfrwt>
<totfact> 0.18641392E+02</totfact>
</mgrwt>
</event>
<event>
 4    1  0.2679255E-004  0.3009001E+03  0.7818608E-02  0.1084792E+00
          2   -1    0    0  501    0  0.00000000000E+00  0.00000000000E+00  0.37419282669E+03  0.37419282670E+03  0.25500000000E-02 0.  1.
         -2   -1    0    0    0  501 -0.00000000000E+00 -0.00000000000E+00 -0.60490777754E+02  0.60490777808E+02  0.25500000000E-02 0. -1.
    5000001    1    1    2    0    0  0.60891404191E+02  0.49998834132E+02  0.18181265925E+03  0.23535609102E+03  0.12700000000E+03 0.  0.
   -5000001    1    1    2    0    0 -0.60891404191E+02 -0.49998834132E+02  0.13188938968E+03  0.19932751348E+03  0.12700000000E+03 0.  0.
<mgrwt>
<rscale>  0 0.30090008E+03</rscale>
<asrwt>0</asrwt>
<pdfrwt beam="1">  1        2 0.53456117E-01 0.30090008E+03</pdfrwt>
<pdfrwt beam="2">  1       -2 0.86415398E-02 0.30090008E+03</pdfrwt>
<totfact> 0.77791300E+03</totfact>
</mgrwt>
</event>
<event>
 4    1  0.2679255E-004  0.5937907E+03  0.7818608E-02  0.9918373E-01
          2   -1    0    0  501    0  0.00000000000E+00  0.00000000000E+00  0.16154347454E+04  0.16154347454E+04  0.25500000000E-02 0.  1.
         -2   -1    0    0    0  501 -0.00000000000E+00 -0.00000000000E+00 -0.54565408036E+02  0.54565408096E+02  0.25500000000E-02 0. -1.
    5000001    1    1    2    0    0  0.24861182533E+03 -0.20549089603E+02  0.10586778723E+04  0.10950607025E+04  0.12700000000E+03 0.  0.
   -5000001    1    1    2    0    0 -0.24861182533E+03  0.20549089603E+02  0.50219146510E+03  0.57493945107E+03  0.12700000000E+03 0.  0.
<mgrwt>
<rscale>  0 0.59379072E+03</rscale>
<asrwt>0</asrwt>
<pdfrwt beam="1">  1        2 0.23077638E+00 0.59379072E+03</pdfrwt>
<pdfrwt beam="2">  1       -2 0.77950586E-02 0.59379072E+03</pdfrwt>
<totfact> 0.13251915E+03</totfact>
</mgrwt>
</event>
<event>
 4    1  0.2679255E-004  0.3144053E+03  0.7818608E-02  0.1078253E+00
          2   -1    0    0  501    0  0.00000000000E+00  0.00000000000E+00  0.47042994074E+03  0.47042994074E+03  0.25500000000E-02 0.  1.
         -2   -1    0    0    0  501 -0.00000000000E+00 -0.00000000000E+00 -0.52532092464E+02  0.52532092526E+02  0.25500000000E-02 0. -1.
    5000001    1    1    2    0    0  0.91418063704E+02  0.13113159943E+02  0.19667491144E+03  0.25167287920E+03  0.12700000000E+03 0.  0.
   -5000001    1    1    2    0    0 -0.91418063704E+02 -0.13113159943E+02  0.22122293683E+03  0.27128915407E+03  0.12700000000E+03 0.  0.
<mgrwt>
<rscale>  0 0.31440527E+03</rscale>
<asrwt>0</asrwt>
<pdfrwt beam="1">  1        2 0.67204274E-01 0.31440527E+03</pdfrwt>
<pdfrwt beam="2">  1       -2 0.75045850E-02 0.31440527E+03</pdfrwt>
<totfact> 0.75723185E+03</totfact>
</mgrwt>
</event>
<event>
 4    1  0.2679255E-004  0.3843114E+03  0.7818608E-02  0.1049352E+00
          2   -1    0    0  501    0  0.00000000000E+00  0.00000000000E+00  0.20253647168E+04  0.20253647168E+04  0.25500000000E-02 0.  1.
         -2   -1    0    0    0  501 -0.00000000000E+00 -0.00000000000E+00 -0.18230700065E+02  0.18230700244E+02  0.25500000000E-02 0. -1.
    5000001    1    1    2    0    0  0.12085199094E+03  0.59311895991E+02  0.72871022346E+03  0.75184486065E+03  0.12700000000E+03 0.  0.
   -5000001    1    1    2    0    0 -0.12085199094E+03 -0.59311895991E+02  0.12784237933E+04  0.12917505564E+04  0.12700000000E+03 0.  0.
<mgrwt>
<rscale>  0 0.38431142E+03</rscale>
<asrwt>0</asrwt>
<pdfrwt beam="1">  1        2 0.28933764E+00 0.38431142E+03</pdfrwt>
<pdfrwt beam="2">  1       -2 0.26043873E-02 0.38431142E+03</pdfrwt>
<totfact> 0.44861480E+03</totfact>
</mgrwt>
</event>
<event>
 4    1  0.2679255E-004  0.3798436E+03  0.7818608E-02  0.1050992E+00
         -2   -1    0    0    0  501 -0.00000000000E+00  0.00000000000E+00  0.39661404150E+02  0.39661404232E+02  0.25500000000E-02 0. -1.
          2   -1    0    0  501    0  0.00000000000E+00 -0.00000000000E+00 -0.90945553984E+03  0.90945553984E+03  0.25500000000E-02 0.  1.
    5000001    1    1    2    0    0 -0.45840087097E+02 -0.13229310150E+03 -0.38892460196E+03  0.43242817241E+03  0.12700000000E+03 0.  0.
   -5000001    1    1    2    0    0  0.45840087097E+02  0.13229310150E+03 -0.48086953373E+03  0.51668877166E+03  0.12700000000E+03 0.  0.
<mgrwt>
<rscale>  0 0.37984357E+03</rscale>
<asrwt>0</asrwt>
<pdfrwt beam="1">  1        2 0.12992221E+00 0.37984357E+03</pdfrwt>
<pdfrwt beam="2">  1       -2 0.56659155E-02 0.37984357E+03</pdfrwt>
<totfact> 0.53788116E+03</totfact>
</mgrwt>
</event>
<event>
 4    1  0.2679255E-004  0.3568830E+03  0.7818608E-02  0.1059825E+00
         -2   -1    0    0    0  501 -0.00000000000E+00  0.00000000000E+00  0.97034180324E+03  0.97034180325E+03  0.25500000000E-02 0. -1.
          2   -1    0    0  501    0  0.00000000000E+00 -0.00000000000E+00 -0.32814590988E+02  0.32814591087E+02  0.25500000000E-02 0.  1.
    5000001    1    1    2    0    0  0.16681341498E+02  0.44986641291E+02  0.79427193028E+03  0.80579089364E+03  0.12700000000E+03 0.  0.
   -5000001    1    1    2    0    0 -0.16681341498E+02 -0.44986641291E+02  0.14325528198E+03  0.19736550069E+03  0.12700000000E+03 0.  0.
<mgrwt>
<rscale>  0 0.35688300E+03</rscale>
<asrwt>0</asrwt>
<pdfrwt beam="1">  1        2 0.46877993E-02 0.35688300E+03</pdfrwt>
<pdfrwt beam="2">  1       -2 0.13862024E+00 0.35688300E+03</pdfrwt>
<totfact> 0.66896693E+02</totfact>
</mgrwt>
</event>
<event>
 4    1  0.2679255E-004  0.3165637E+03  0.7818608E-02  0.1077242E+00
         -2   -1    0    0    0  501 -0.00000000000E+00  0.00000000000E+00  0.21982027989E+02  0.21982028137E+02  0.25500000000E-02 0. -1.
          2   -1    0    0  501    0  0.00000000000E+00 -0.00000000000E+00 -0.11397105352E+04  0.11397105352E+04  0.25500000000E-02 0.  1.
    5000001    1    1    2    0    0 -0.50034929490E+02  0.78172529575E+02 -0.49428277801E+03  0.51870888096E+03  0.12700000000E+03 0.  0.
   -5000001    1    1    2    0    0  0.50034929490E+02 -0.78172529575E+02 -0.62344572921E+03  0.64298368239E+03  0.12700000000E+03 0.  0.
<mgrwt>
<rscale>  0 0.31656373E+03</rscale>
<asrwt>0</asrwt>
<pdfrwt beam="1">  1        2 0.16281575E+00 0.31656373E+03</pdfrwt>
<pdfrwt beam="2">  1       -2 0.31402904E-02 0.31656373E+03</pdfrwt>
<totfact> 0.95984853E+03</totfact>
</mgrwt>
</event>
<event>
 4    1  0.2679255E-004  0.3511862E+03  0.7818608E-02  0.1062129E+00
          2   -1    0    0  501    0  0.00000000000E+00  0.00000000000E+00  0.46075169383E+02  0.46075169453E+02  0.25500000000E-02 0.  1.
         -2   -1    0    0    0  501 -0.00000000000E+00 -0.00000000000E+00 -0.66918773647E+03  0.66918773648E+03  0.25500000000E-02 0. -1.
    5000001    1    1    2    0    0 -0.87108953455E+02 -0.84122283916E+02 -0.32434217387E+03  0.36877008308E+03  0.12700000000E+03 0.  0.
   -5000001    1    1    2    0    0  0.87108953455E+02  0.84122283916E+02 -0.29877039322E+03  0.34649282285E+03  0.12700000000E+03 0.  0.
<mgrwt>
<rscale>  0 0.35118621E+03</rscale>
<asrwt>0</asrwt>
<pdfrwt beam="1">  1        2 0.65821675E-02 0.35118621E+03</pdfrwt>
<pdfrwt beam="2">  1       -2 0.95598242E-01 0.35118621E+03</pdfrwt>
<totfact> 0.10484850E+03</totfact>
</mgrwt>
</event>
<event>
 4    1  0.2679255E-004  0.3379701E+03  0.7818608E-02  0.1067664E+00
         -2   -1    0    0    0  501 -0.00000000000E+00  0.00000000000E+00  0.31259948335E+03  0.31259948336E+03  0.25500000000E-02 0. -1.
          2   -1    0    0  501    0  0.00000000000E+00 -0.00000000000E+00 -0.91349928620E+02  0.91349928655E+02  0.25500000000E-02 0.  1.
    5000001    1    1    2    0    0  0.47007880461E+02  0.95441315875E+02  0.15041249120E+03  0.22376707334E+03  0.12700000000E+03 0.  0.
   -5000001    1    1    2    0    0 -0.47007880461E+02 -0.95441315875E+02  0.70837063529E+02  0.18018233868E+03  0.12700000000E+03 0.  0.
<mgrwt>
<rscale>  0 0.33797006E+03</rscale>
<asrwt>0</asrwt>
<pdfrwt beam="1">  1        2 0.13049990E-01 0.33797006E+03</pdfrwt>
<pdfrwt beam="2">  1       -2 0.44657070E-01 0.33797006E+03</pdfrwt>
<totfact> 0.22270200E+03</totfact>
</mgrwt>
</event>
<event>
 4    1  0.2679255E-004  0.4473454E+03  0.7818608E-02  0.1028517E+00
          2   -1    0    0  501    0  0.00000000000E+00  0.00000000000E+00  0.79597987493E+03  0.79597987494E+03  0.25500000000E-02 0.  1.
         -2   -1    0    0    0  501 -0.00000000000E+00 -0.00000000000E+00 -0.62852680971E+02  0.62852681022E+02  0.25500000000E-02 0. -1.
    5000001    1    1    2    0    0  0.14023676896E+03  0.10507771964E+03  0.25808332237E+03  0.33681401370E+03  0.12700000000E+03 0.  0.
   -5000001    1    1    2    0    0 -0.14023676896E+03 -0.10507771964E+03  0.47504387159E+03  0.52201854226E+03  0.12700000000E+03 0.  0.
<mgrwt>
<rscale>  0 0.44734537E+03</rscale>
<asrwt>0</asrwt>
<pdfrwt beam="1">  1        2 0.11371140E+00 0.44734537E+03</pdfrwt>
<pdfrwt beam="2">  1       -2 0.89789553E-02 0.44734537E+03</pdfrwt>
<totfact> 0.31093521E+03</totfact>
</mgrwt>
</event>
<event>
 4    1  0.2679255E-004  0.2587732E+03  0.7818608E-02  0.1107883E+00
         -2   -1    0    0    0  501 -0.00000000000E+00  0.00000000000E+00  0.28601463942E+02  0.28601464056E+02  0.25500000000E-02 0. -1.
          2   -1    0    0  501    0  0.00000000000E+00 -0.00000000000E+00 -0.58531576776E+03  0.58531576777E+03  0.25500000000E-02 0.  1.
    5000001    1    1    2    0    0 -0.20261542466E+02 -0.93329366381E+01 -0.25299848655E+03  0.28396279334E+03  0.12700000000E+03 0.  0.
   -5000001    1    1    2    0    0  0.20261542466E+02  0.93329366381E+01 -0.30371581727E+03  0.32995443848E+03  0.12700000000E+03 0.  0.
<mgrwt>
<rscale>  0 0.25877317E+03</rscale>
<asrwt>0</asrwt>
<pdfrwt beam="1">  1        2 0.83616531E-01 0.25877317E+03</pdfrwt>
<pdfrwt beam="2">  1       -2 0.40859238E-02 0.25877317E+03</pdfrwt>
<totfact> 0.14923844E+04</totfact>
</mgrwt>
</event>
<event>
 4    1  0.2679255E-004  0.2787984E+03  0.7818608E-02  0.1096347E+00
         -2   -1    0    0    0  501 -0.00000000000E+00  0.00000000000E+00  0.47135190201E+03  0.47135190202E+03  0.25500000000E-02 0. -1.
          2   -1    0    0  501    0  0.00000000000E+00 -0.00000000000E+00 -0.41226391584E+02  0.41226391663E+02  0.25500000000E-02 0.  1.
    5000001    1    1    2    0    0 -0.32605755345E+02 -0.46521199595E+02  0.23106752958E+03  0.26971941072E+03  0.12700000000E+03 0.  0.
   -5000001    1    1    2    0    0  0.32605755345E+02  0.46521199595E+02  0.19905798084E+03  0.24285888295E+03  0.12700000000E+03 0.  0.
<mgrwt>
<rscale>  0 0.27879841E+03</rscale>
<asrwt>0</asrwt>
<pdfrwt beam="1">  1        2 0.58894852E-02 0.27879841E+03</pdfrwt>
<pdfrwt beam="2">  1       -2 0.67335979E-01 0.27879841E+03</pdfrwt>
<totfact> 0.26192091E+03</totfact>
</mgrwt>
</event>
<event>
 4    1  0.2679255E-004  0.3872510E+03  0.7818608E-02  0.1048286E+00
          2   -1    0    0  501    0  0.00000000000E+00  0.00000000000E+00  0.17942904127E+03  0.17942904128E+03  0.25500000000E-02 0.  1.
         -2   -1    0    0    0  501 -0.00000000000E+00 -0.00000000000E+00 -0.20894519059E+03  0.20894519061E+03  0.25500000000E-02 0. -1.
    5000001    1    1    2    0    0  0.86885012359E+02 -0.11736299326E+03 -0.85144512898E+01  0.19371260527E+03  0.12700000000E+03 0.  0.
   -5000001    1    1    2    0    0 -0.86885012359E+02  0.11736299326E+03 -0.21001698033E+02  0.19466162662E+03  0.12700000000E+03 0.  0.
<mgrwt>
<rscale>  0 0.38725101E+03</rscale>
<asrwt>0</asrwt>
<pdfrwt beam="1">  1        2 0.25632720E-01 0.38725101E+03</pdfrwt>
<pdfrwt beam="2">  1       -2 0.29849313E-01 0.38725101E+03</pdfrwt>
<totfact> 0.21737525E+03</totfact>
</mgrwt>
</event>
<event>
 4    1  0.2679255E-004  0.3873108E+03  0.7818608E-02  0.1048264E+00
          2   -1    0    0  501    0  0.00000000000E+00  0.00000000000E+00  0.10146888626E+03  0.10146888629E+03  0.25500000000E-02 0.  1.
         -2   -1    0    0    0  501 -0.00000000000E+00 -0.00000000000E+00 -0.36959528624E+03  0.36959528625E+03  0.25500000000E-02 0. -1.
    5000001    1    1    2    0    0 -0.10007272032E+03 -0.87160703008E+02 -0.20866050761E+03  0.27799234690E+03  0.12700000000E+03 0.  0.
   -5000001    1    1    2    0    0  0.10007272032E+03  0.87160703008E+02 -0.59465892374E+02  0.19307182564E+03  0.12700000000E+03 0.  0.
<mgrwt>
<rscale>  0 0.38731084E+03</rscale>
<asrwt>0</asrwt>
<pdfrwt beam="1">  1        2 0.14495555E-01 0.38731084E+03</pdfrwt>
<pdfrwt beam="2">  1       -2 0.52799326E-01 0.38731084E+03</pdfrwt>
<totfact> 0.14075885E+03</totfact>
</mgrwt>
</event>
<event>
 4    1  0.2679255E-004  0.2691818E+03  0.7818608E-02  0.1101749E+00
         -2   -1    0    0    0  501 -0.00000000000E+00  0.00000000000E+00  0.92360129454E+03  0.92360129455E+03  0.25500000000E-02 0. -1.
          2   -1    0    0  501    0  0.00000000000E+00 -0.00000000000E+00 -0.19613133681E+02  0.19613133846E+02  0.25500000000E-02 0.  1.
    5000001    1    1    2    0    0  0.30192055412E+02 -0.29960787344E+02  0.40544133094E+03  0.42699049384E+03  0.12700000000E+03 0.  0.
   -5000001    1    1    2    0    0 -0.30192055412E+02  0.29960787344E+02  0.49854682992E+03  0.51622393456E+03  0.12700000000E+03 0.  0.
<mgrwt>
<rscale>  0 0.26918184E+03</rscale>
<asrwt>0</asrwt>
<pdfrwt beam="1">  1        2 0.28018765E-02 0.26918184E+03</pdfrwt>
<pdfrwt beam="2">  1       -2 0.13194303E+00 0.26918184E+03</pdfrwt>
<totfact> 0.15108208E+03</totfact>
</mgrwt>
</event>
<event>
 4    1  0.2679255E-004  0.2979935E+03  0.7818608E-02  0.1086248E+00
          2   -1    0    0  501    0  0.00000000000E+00  0.00000000000E+00  0.32100678060E+03  0.32100678061E+03  0.25500000000E-02 0.  1.
         -2   -1    0    0    0  501 -0.00000000000E+00 -0.00000000000E+00 -0.69157495659E+02  0.69157495706E+02  0.25500000000E-02 0. -1.
    5000001    1    1    2    0    0 -0.71493604093E+02 -0.21716798182E+02  0.96999069924E+02  0.17641081122E+03  0.12700000000E+03 0.  0.
   -5000001    1    1    2    0    0  0.71493604093E+02  0.21716798182E+02  0.15485021502E+03  0.21375346510E+03  0.12700000000E+03 0.  0.
<mgrwt>
<rscale>  0 0.29799346E+03</rscale>
<asrwt>0</asrwt>
<pdfrwt beam="1">  1        2 0.45858112E-01 0.29799346E+03</pdfrwt>
<pdfrwt beam="2">  1       -2 0.98796421E-02 0.29799346E+03</pdfrwt>
<totfact> 0.74240289E+03</totfact>
</mgrwt>
</event>
<event>
 4    1  0.2679255E-004  0.5480334E+03  0.7818608E-02  0.1001950E+00
         -2   -1    0    0    0  501 -0.00000000000E+00  0.00000000000E+00  0.32235283849E+03  0.32235283850E+03  0.25500000000E-02 0. -1.
          2   -1    0    0  501    0  0.00000000000E+00 -0.00000000000E+00 -0.23292847445E+03  0.23292847446E+03  0.25500000000E-02 0.  1.
    5000001    1    1    2    0    0  0.46543339317E+02 -0.19756867549E+03 -0.90303617995E+02  0.25589725945E+03  0.12700000000E+03 0.  0.
   -5000001    1    1    2    0    0 -0.46543339317E+02  0.19756867549E+03  0.17972798204E+03  0.29938405351E+03  0.12700000000E+03 0.  0.
<mgrwt>
<rscale>  0 0.54803341E+03</rscale>
<asrwt>0</asrwt>
<pdfrwt beam="1">  1        2 0.33275496E-01 0.54803341E+03</pdfrwt>
<pdfrwt beam="2">  1       -2 0.46050406E-01 0.54803341E+03</pdfrwt>
<totfact> 0.71172773E+02</totfact>
</mgrwt>
</event>
<event>
 4    1  0.2679255E-004  0.2806018E+03  0.7818608E-02  0.1095361E+00
          2   -1    0    0  501    0  0.00000000000E+00  0.00000000000E+00  0.31671086240E+04  0.31671086240E+04  0.25500000000E-02 0.  1.
         -2   -1    0    0    0  501 -0.00000000000E+00 -0.00000000000E+00 -0.62152406261E+01  0.62152411492E+01  0.25500000000E-02 0. -1.
    5000001    1    1    2    0    0  0.52073216224E+02 -0.54197138444E+01  0.12577240347E+04  0.12652034385E+04  0.12700000000E+03 0.  0.
   -5000001    1    1    2    0    0 -0.52073216224E+02  0.54197138444E+01  0.19031693487E+04  0.19081204267E+04  0.12700000000E+03 0.  0.
<mgrwt>
<rscale>  0 0.28060180E+03</rscale>
<asrwt>0</asrwt>
<pdfrwt beam="1">  1        2 0.45244293E+00 0.28060180E+03</pdfrwt>
<pdfrwt beam="2">  1       -2 0.88789384E-03 0.28060180E+03</pdfrwt>
<totfact> 0.57199654E+03</totfact>
</mgrwt>
</event>
<event>
 4    1  0.2679255E-004  0.3008940E+03  0.7818608E-02  0.1084795E+00
         -2   -1    0    0    0  501 -0.00000000000E+00  0.00000000000E+00  0.13647559048E+03  0.13647559051E+03  0.25500000000E-02 0. -1.
          2   -1    0    0  501    0  0.00000000000E+00 -0.00000000000E+00 -0.16584874290E+03  0.16584874292E+03  0.25500000000E-02 0.  1.
    5000001    1    1    2    0    0 -0.54986706273E+02  0.56568907506E+02  0.21779039942E+01  0.14952365174E+03  0.12700000000E+03 0.  0.
   -5000001    1    1    2    0    0  0.54986706273E+02 -0.56568907506E+02 -0.31551056411E+02  0.15280068169E+03  0.12700000000E+03 0.  0.
<mgrwt>
<rscale>  0 0.30089404E+03</rscale>
<asrwt>0</asrwt>
<pdfrwt beam="1">  1        2 0.23692678E-01 0.30089404E+03</pdfrwt>
<pdfrwt beam="2">  1       -2 0.19496513E-01 0.30089404E+03</pdfrwt>
<totfact> 0.50084019E+03</totfact>
</mgrwt>
</event>
<event>
 4    1  0.2679255E-004  0.4710691E+03  0.7818608E-02  0.1021619E+00
         -2   -1    0    0    0  501 -0.00000000000E+00  0.00000000000E+00  0.26603279935E+02  0.26603280057E+02  0.25500000000E-02 0. -1.
          2   -1    0    0  501    0  0.00000000000E+00 -0.00000000000E+00 -0.20853260950E+04  0.20853260950E+04  0.25500000000E-02 0.  1.
    5000001    1    1    2    0    0 -0.95967896343E+02  0.17215609197E+03 -0.92911678648E+03  0.95824556355E+03  0.12700000000E+03 0.  0.
   -5000001    1    1    2    0    0  0.95967896343E+02 -0.17215609197E+03 -0.11296060285E+04  0.11536838115E+04  0.12700000000E+03 0.  0.
<mgrwt>
<rscale>  0 0.47106906E+03</rscale>
<asrwt>0</asrwt>
<pdfrwt beam="1">  1        2 0.29790362E+00 0.47106906E+03</pdfrwt>
<pdfrwt beam="2">  1       -2 0.38004699E-02 0.47106906E+03</pdfrwt>
<totfact> 0.23617280E+03</totfact>
</mgrwt>
</event>
<event>
 4    1  0.2679255E-004  0.4864286E+03  0.7818608E-02  0.1017383E+00
          2   -1    0    0  501    0  0.00000000000E+00  0.00000000000E+00  0.72756765446E+03  0.72756765446E+03  0.25500000000E-02 0.  1.
         -2   -1    0    0    0  501 -0.00000000000E+00 -0.00000000000E+00 -0.81302677941E+02  0.81302677981E+02  0.25500000000E-02 0. -1.
    5000001    1    1    2    0    0 -0.16566113094E+03  0.25337786488E+02  0.52637498671E+03  0.56682028930E+03  0.12700000000E+03 0.  0.
   -5000001    1    1    2    0    0  0.16566113094E+03 -0.25337786488E+02  0.11988998981E+03  0.24205004314E+03  0.12700000000E+03 0.  0.
<mgrwt>
<rscale>  0 0.48642861E+03</rscale>
<asrwt>0</asrwt>
<pdfrwt beam="1">  1        2 0.10393824E+00 0.48642861E+03</pdfrwt>
<pdfrwt beam="2">  1       -2 0.11614668E-01 0.48642861E+03</pdfrwt>
<totfact> 0.22963041E+03</totfact>
</mgrwt>
</event>
<event>
 4    1  0.2679255E-004  0.5197823E+03  0.7818608E-02  0.1008741E+00
         -2   -1    0    0    0  501 -0.00000000000E+00  0.00000000000E+00  0.26747678054E+03  0.26747678055E+03  0.25500000000E-02 0. -1.
          2   -1    0    0  501    0  0.00000000000E+00 -0.00000000000E+00 -0.25252065562E+03  0.25252065563E+03  0.25500000000E-02 0.  1.
    5000001    1    1    2    0    0  0.84439633843E+02  0.16019662056E+03  0.14399480232E+03  0.26392520171E+03  0.12700000000E+03 0.  0.
   -5000001    1    1    2    0    0 -0.84439633843E+02 -0.16019662056E+03 -0.12903867740E+03  0.25607223447E+03  0.12700000000E+03 0.  0.
<mgrwt>
<rscale>  0 0.51978231E+03</rscale>
<asrwt>0</asrwt>
<pdfrwt beam="1">  1        2 0.36074379E-01 0.51978231E+03</pdfrwt>
<pdfrwt beam="2">  1       -2 0.38210969E-01 0.51978231E+03</pdfrwt>
<totfact> 0.93722253E+02</totfact>
</mgrwt>
</event>
<event>
 4    1  0.2679255E-004  0.3348708E+03  0.7818608E-02  0.1069002E+00
         -2   -1    0    0    0  501 -0.00000000000E+00  0.00000000000E+00  0.10819806702E+02  0.10819807003E+02  0.25500000000E-02 0. -1.
          2   -1    0    0  501    0  0.00000000000E+00 -0.00000000000E+00 -0.25910462400E+04  0.25910462400E+04  0.25500000000E-02 0.  1.
    5000001    1    1    2    0    0 -0.10871249458E+03  0.22045364583E+01 -0.12196035945E+04  0.12310098270E+04  0.12700000000E+03 0.  0.
   -5000001    1    1    2    0    0  0.10871249458E+03 -0.22045364583E+01 -0.13606228387E+04  0.13708562199E+04  0.12700000000E+03 0.  0.
<mgrwt>
<rscale>  0 0.33487084E+03</rscale>
<asrwt>0</asrwt>
<pdfrwt beam="1">  1        2 0.37014907E+00 0.33487084E+03</pdfrwt>
<pdfrwt beam="2">  1       -2 0.15456883E-02 0.33487084E+03</pdfrwt>
<totfact> 0.50890289E+03</totfact>
</mgrwt>
</event>
<event>
 4    1  0.2679255E-004  0.4572833E+03  0.7818608E-02  0.1025572E+00
         -2   -1    0    0    0  501 -0.00000000000E+00  0.00000000000E+00  0.34532505417E+02  0.34532505511E+02  0.25500000000E-02 0. -1.
          2   -1    0    0  501    0  0.00000000000E+00 -0.00000000000E+00 -0.15138492106E+04  0.15138492106E+04  0.25500000000E-02 0.  1.
    5000001    1    1    2    0    0  0.17915737642E+03 -0.38511573028E+01 -0.95476706354E+03  0.97970472213E+03  0.12700000000E+03 0.  0.
   -5000001    1    1    2    0    0 -0.17915737642E+03  0.38511573028E+01 -0.52454964160E+03  0.56867699394E+03  0.12700000000E+03 0.  0.
<mgrwt>
<rscale>  0 0.45728331E+03</rscale>
<asrwt>0</asrwt>
<pdfrwt beam="1">  1        2 0.21626413E+00 0.45728331E+03</pdfrwt>
<pdfrwt beam="2">  1       -2 0.49332160E-02 0.45728331E+03</pdfrwt>
<totfact> 0.30682205E+03</totfact>
</mgrwt>
</event>
<event>
 4    1  0.2679255E-004  0.3790167E+03  0.7818608E-02  0.1051298E+00
          2   -1    0    0  501    0  0.00000000000E+00  0.00000000000E+00  0.16711636209E+04  0.16711636209E+04  0.25500000000E-02 0.  1.
         -2   -1    0    0    0  501 -0.00000000000E+00 -0.00000000000E+00 -0.21490060737E+02  0.21490060889E+02  0.25500000000E-02 0. -1.
    5000001    1    1    2    0    0  0.13174885246E+03  0.42031783715E+02  0.71010752705E+03  0.73451081063E+03  0.12700000000E+03 0.  0.
   -5000001    1    1    2    0    0 -0.13174885246E+03 -0.42031783715E+02  0.93956603314E+03  0.95814287118E+03  0.12700000000E+03 0.  0.
<mgrwt>
<rscale>  0 0.37901666E+03</rscale>
<asrwt>0</asrwt>
<pdfrwt beam="1">  1        2 0.23873768E+00 0.37901666E+03</pdfrwt>
<pdfrwt beam="2">  1       -2 0.30700084E-02 0.37901666E+03</pdfrwt>
<totfact> 0.52532991E+03</totfact>
</mgrwt>
</event>
<event>
 4    1  0.2679255E-004  0.5057201E+03  0.7818608E-02  0.1012297E+00
          2   -1    0    0  501    0  0.00000000000E+00  0.00000000000E+00  0.18098365519E+03  0.18098365521E+03  0.25500000000E-02 0.  1.
         -2   -1    0    0    0  501 -0.00000000000E+00 -0.00000000000E+00 -0.35328170247E+03  0.35328170247E+03  0.25500000000E-02 0. -1.
    5000001    1    1    2    0    0 -0.57435028350E+02  0.78717578979E+02  0.12063899414E+03  0.20044452257E+03  0.12700000000E+03 0.  0.
   -5000001    1    1    2    0    0  0.57435028350E+02 -0.78717578979E+02 -0.29293704141E+03  0.33382083511E+03  0.12700000000E+03 0.  0.
<mgrwt>
<rscale>  0 0.50572014E+03</rscale>
<asrwt>0</asrwt>
<pdfrwt beam="1">  1        2 0.25854808E-01 0.50572014E+03</pdfrwt>
<pdfrwt beam="2">  1       -2 0.50468814E-01 0.50572014E+03</pdfrwt>
<totfact> 0.78631743E+02</totfact>
</mgrwt>
</event>
<event>
 4    1  0.2679255E-004  0.1388452E+04  0.7818608E-02  0.8962220E-01
          2   -1    0    0  501    0  0.00000000000E+00  0.00000000000E+00  0.60049965570E+03  0.60049965571E+03  0.25500000000E-02 0.  1.
         -2   -1    0    0    0  501 -0.00000000000E+00 -0.00000000000E+00 -0.80258110787E+03  0.80258110787E+03  0.25500000000E-02 0. -1.
    5000001    1    1    2    0    0  0.61474609398E+03 -0.23195288100E+03 -0.28766400672E+03  0.72841916492E+03  0.12700000000E+03 0.  0.
   -5000001    1    1    2    0    0 -0.61474609398E+03  0.23195288100E+03  0.85582554558E+02  0.67466159866E+03  0.12700000000E+03 0.  0.
<mgrwt>
<rscale>  0 0.13884519E+04</rscale>
<asrwt>0</asrwt>
<pdfrwt beam="1">  1        2 0.85785665E-01 0.13884519E+04</pdfrwt>
<pdfrwt beam="2">  1       -2 0.11465444E+00 0.13884519E+04</pdfrwt>
<totfact> 0.31415701E+01</totfact>
</mgrwt>
</event>
<event>
 4    1  0.2679255E-004  0.4109276E+03  0.7818608E-02  0.1040060E+00
          2   -1    0    0  501    0  0.00000000000E+00  0.00000000000E+00  0.64984049741E+03  0.64984049742E+03  0.25500000000E-02 0.  1.
         -2   -1    0    0    0  501 -0.00000000000E+00 -0.00000000000E+00 -0.64962672136E+02  0.64962672186E+02  0.25500000000E-02 0. -1.
    5000001    1    1    2    0    0 -0.10382161330E+03 -0.12126760145E+03  0.33510482816E+03  0.39231238115E+03  0.12700000000E+03 0.  0.
   -5000001    1    1    2    0    0  0.10382161330E+03  0.12126760145E+03  0.24977299712E+03  0.32249078845E+03  0.12700000000E+03 0.  0.
<mgrwt>
<rscale>  0 0.41092761E+03</rscale>
<asrwt>0</asrwt>
<pdfrwt beam="1">  1        2 0.92834357E-01 0.41092761E+03</pdfrwt>
<pdfrwt beam="2">  1       -2 0.92803817E-02 0.41092761E+03</pdfrwt>
<totfact> 0.37738317E+03</totfact>
</mgrwt>
</event>
<event>
 4    1  0.2679255E-004  0.3738616E+03  0.7818608E-02  0.1053226E+00
         -2   -1    0    0    0  501 -0.00000000000E+00  0.00000000000E+00  0.39671789246E+02  0.39671789328E+02  0.25500000000E-02 0. -1.
          2   -1    0    0  501    0  0.00000000000E+00 -0.00000000000E+00 -0.88080536396E+03  0.88080536397E+03  0.25500000000E-02 0.  1.
    5000001    1    1    2    0    0  0.52552803893E+02  0.43903563070E+02 -0.71317962444E+03  0.72762868055E+03  0.12700000000E+03 0.  0.
   -5000001    1    1    2    0    0 -0.52552803893E+02 -0.43903563070E+02 -0.12795395028E+03  0.19284847274E+03  0.12700000000E+03 0.  0.
<mgrwt>
<rscale>  0 0.37386160E+03</rscale>
<asrwt>0</asrwt>
<pdfrwt beam="1">  1        2 0.12582933E+00 0.37386160E+03</pdfrwt>
<pdfrwt beam="2">  1       -2 0.56673990E-02 0.37386160E+03</pdfrwt>
<totfact> 0.56053801E+03</totfact>
</mgrwt>
</event>
<event>
 4    1  0.2679255E-004  0.4035338E+03  0.7818608E-02  0.1042563E+00
         -2   -1    0    0    0  501 -0.00000000000E+00  0.00000000000E+00  0.25580805940E+02  0.25580806067E+02  0.25500000000E-02 0. -1.
          2   -1    0    0  501    0  0.00000000000E+00 -0.00000000000E+00 -0.15914226808E+04  0.15914226808E+04  0.25500000000E-02 0.  1.
    5000001    1    1    2    0    0  0.15805794435E+01 -0.14594537221E+03 -0.10123545682E+04  0.10306761478E+04  0.12700000000E+03 0.  0.
   -5000001    1    1    2    0    0 -0.15805794435E+01  0.14594537221E+03 -0.55348730665E+03  0.58632733906E+03  0.12700000000E+03 0.  0.
<mgrwt>
<rscale>  0 0.40353376E+03</rscale>
<asrwt>0</asrwt>
<pdfrwt beam="1">  1        2 0.22734604E+00 0.40353376E+03</pdfrwt>
<pdfrwt beam="2">  1       -2 0.36544018E-02 0.40353376E+03</pdfrwt>
<totfact> 0.44303138E+03</totfact>
</mgrwt>
</event>
<event>
 4    1  0.2679255E-004  0.4184555E+03  0.7818608E-02  0.1037570E+00
         -2   -1    0    0    0  501 -0.00000000000E+00  0.00000000000E+00  0.90920320140E+03  0.90920320141E+03  0.25500000000E-02 0. -1.
          2   -1    0    0  501    0  0.00000000000E+00 -0.00000000000E+00 -0.48147935703E+02  0.48147935770E+02  0.25500000000E-02 0.  1.
    5000001    1    1    2    0    0  0.12557279322E+03 -0.73748363502E+02  0.61412305151E+03  0.64380390641E+03  0.12700000000E+03 0.  0.
   -5000001    1    1    2    0    0 -0.12557279322E+03  0.73748363502E+02  0.24693221420E+03  0.31354723077E+03  0.12700000000E+03 0.  0.
<mgrwt>
<rscale>  0 0.41845553E+03</rscale>
<asrwt>0</asrwt>
<pdfrwt beam="1">  1        2 0.68782768E-02 0.41845553E+03</pdfrwt>
<pdfrwt beam="2">  1       -2 0.12988617E+00 0.41845553E+03</pdfrwt>
<totfact> 0.47493132E+02</totfact>
</mgrwt>
</event>
<event>
 4    1  0.2679255E-004  0.3225454E+03  0.7818608E-02  0.1074484E+00
         -2   -1    0    0    0  501 -0.00000000000E+00  0.00000000000E+00  0.19402666128E+03  0.19402666130E+03  0.25500000000E-02 0. -1.
          2   -1    0    0  501    0  0.00000000000E+00 -0.00000000000E+00 -0.13404795422E+03  0.13404795425E+03  0.25500000000E-02 0.  1.
    5000001    1    1    2    0    0 -0.96046414425E+01  0.94916242132E+02  0.16087998644E+01  0.15884876580E+03  0.12700000000E+03 0.  0.
   -5000001    1    1    2    0    0  0.96046414425E+01 -0.94916242132E+02  0.58369907197E+02  0.16922584975E+03  0.12700000000E+03 0.  0.
<mgrwt>
<rscale>  0 0.32254536E+03</rscale>
<asrwt>0</asrwt>
<pdfrwt beam="1">  1        2 0.19149708E-01 0.32254536E+03</pdfrwt>
<pdfrwt beam="2">  1       -2 0.27718094E-01 0.32254536E+03</pdfrwt>
<totfact> 0.34545944E+03</totfact>
</mgrwt>
</event>
<event>
 4    1  0.2679255E-004  0.5316415E+03  0.7818608E-02  0.1005835E+00
          2   -1    0    0  501    0  0.00000000000E+00  0.00000000000E+00  0.12057952311E+04  0.12057952311E+04  0.25500000000E-02 0. -1.
         -2   -1    0    0    0  501 -0.00000000000E+00 -0.00000000000E+00 -0.58600883772E+02  0.58600883827E+02  0.25500000000E-02 0.  1.
    5000001    1    1    2    0    0 -0.21883368219E+03  0.51805520365E+02  0.42394121972E+03  0.49641429289E+03  0.12700000000E+03 0.  0.
   -5000001    1    1    2    0    0  0.21883368219E+03 -0.51805520365E+02  0.72325312765E+03  0.76798182209E+03  0.12700000000E+03 0.  0.
<mgrwt>
<rscale>  0 0.53164148E+03</rscale>
<asrwt>0</asrwt>
<pdfrwt beam="1">  1        2 0.17225645E+00 0.53164148E+03</pdfrwt>
<pdfrwt beam="2">  1       -2 0.83715556E-02 0.53164148E+03</pdfrwt>
<totfact> 0.19546614E+03</totfact>
</mgrwt>
</event>
<event>
 4    1  0.2679255E-004  0.5316131E+03  0.7818608E-02  0.1005842E+00
         -2   -1    0    0    0  501 -0.00000000000E+00  0.00000000000E+00  0.45809150624E+02  0.45809150695E+02  0.25500000000E-02 0. -1.
          2   -1    0    0  501    0  0.00000000000E+00 -0.00000000000E+00 -0.15423366927E+04  0.15423366927E+04  0.25500000000E-02 0.  1.
    5000001    1    1    2    0    0  0.73800283958E+02 -0.20242688479E+03 -0.47938023503E+03  0.54070096665E+03  0.12700000000E+03 0.  0.
   -5000001    1    1    2    0    0 -0.73800283958E+02  0.20242688479E+03 -0.10171473070E+04  0.10474448767E+04  0.12700000000E+03 0.  0.
<mgrwt>
<rscale>  0 0.53161314E+03</rscale>
<asrwt>0</asrwt>
<pdfrwt beam="1">  1        2 0.22033378E+00 0.53161314E+03</pdfrwt>
<pdfrwt beam="2">  1       -2 0.65441653E-02 0.53161314E+03</pdfrwt>
<totfact> 0.19089897E+03</totfact>
</mgrwt>
</event>
<event>
 4    1  0.2679255E-004  0.3136008E+03  0.7818608E-02  0.1078633E+00
         -2   -1    0    0    0  501 -0.00000000000E+00  0.00000000000E+00  0.10103403724E+02  0.10103404045E+02  0.25500000000E-02 0. -1.
          2   -1    0    0  501    0  0.00000000000E+00 -0.00000000000E+00 -0.24334742561E+04  0.24334742561E+04  0.25500000000E-02 0.  1.
    5000001    1    1    2    0    0  0.89048279886E+02 -0.74835727755E+00 -0.13905991458E+04  0.13992230489E+04  0.12700000000E+03 0.  0.
   -5000001    1    1    2    0    0 -0.89048279886E+02  0.74835727755E+00 -0.10327717065E+04  0.10443546112E+04  0.12700000000E+03 0.  0.
<mgrwt>
<rscale>  0 0.31360085E+03</rscale>
<asrwt>0</asrwt>
<pdfrwt beam="1">  1        2 0.34763880E+00 0.31360085E+03</pdfrwt>
<pdfrwt beam="2">  1       -2 0.14433450E-02 0.31360085E+03</pdfrwt>
<totfact> 0.67571198E+03</totfact>
</mgrwt>
</event>
<event>
 4    1  0.2679255E-004  0.3033126E+03  0.7818608E-02  0.1083596E+00
         -2   -1    0    0    0  501 -0.00000000000E+00  0.00000000000E+00  0.11496841945E+02  0.11496842228E+02  0.25500000000E-02 0. -1.
          2   -1    0    0  501    0  0.00000000000E+00 -0.00000000000E+00 -0.20005176775E+04  0.20005176775E+04  0.25500000000E-02 0.  1.
    5000001    1    1    2    0    0 -0.54244182735E+02 -0.59174556454E+02 -0.85750459752E+03  0.87056716815E+03  0.12700000000E+03 0.  0.
   -5000001    1    1    2    0    0  0.54244182735E+02  0.59174556454E+02 -0.11315162380E+04  0.11414473516E+04  0.12700000000E+03 0.  0.
<mgrwt>
<rscale>  0 0.30331262E+03</rscale>
<asrwt>0</asrwt>
<pdfrwt beam="1">  1        2 0.28578802E+00 0.30331262E+03</pdfrwt>
<pdfrwt beam="2">  1       -2 0.16424073E-02 0.30331262E+03</pdfrwt>
<totfact> 0.91326770E+03</totfact>
</mgrwt>
</event>
<event>
 4    1  0.2679255E-004  0.4366181E+03  0.7818608E-02  0.1031790E+00
         -2   -1    0    0    0  501 -0.00000000000E+00  0.00000000000E+00  0.31761444798E+03  0.31761444799E+03  0.25500000000E-02 0. -1.
          2   -1    0    0  501    0  0.00000000000E+00 -0.00000000000E+00 -0.15005251226E+03  0.15005251228E+03  0.25500000000E-02 0.  1.
    5000001    1    1    2    0    0 -0.14978049063E+02 -0.10026988914E+03  0.23992638767E+03  0.28977933695E+03  0.12700000000E+03 0.  0.
   -5000001    1    1    2    0    0  0.14978049063E+02  0.10026988914E+03 -0.72364451951E+02  0.17788762331E+03  0.12700000000E+03 0.  0.
<mgrwt>
<rscale>  0 0.43661812E+03</rscale>
<asrwt>0</asrwt>
<pdfrwt beam="1">  1        2 0.21436073E-01 0.43661812E+03</pdfrwt>
<pdfrwt beam="2">  1       -2 0.45373492E-01 0.43661812E+03</pdfrwt>
<totfact> 0.12046554E+03</totfact>
</mgrwt>
</event>
<event>
 4    1  0.2679255E-004  0.4691500E+03  0.7818608E-02  0.1022160E+00
         -2   -1    0    0    0  501 -0.00000000000E+00  0.00000000000E+00  0.45892216728E+02  0.45892216799E+02  0.25500000000E-02 0. -1.
          2   -1    0    0  501    0  0.00000000000E+00 -0.00000000000E+00 -0.11990145938E+04  0.11990145938E+04  0.25500000000E-02 0.  1.
    5000001    1    1    2    0    0 -0.19324685425E+03 -0.38080896752E+02 -0.60335222144E+03  0.64726919013E+03  0.12700000000E+03 0.  0.
   -5000001    1    1    2    0    0  0.19324685425E+03  0.38080896752E+02 -0.54977015562E+03  0.59763762046E+03  0.12700000000E+03 0.  0.
<mgrwt>
<rscale>  0 0.46915003E+03</rscale>
<asrwt>0</asrwt>
<pdfrwt beam="1">  1        2 0.17128778E+00 0.46915003E+03</pdfrwt>
<pdfrwt beam="2">  1       -2 0.65560317E-02 0.46915003E+03</pdfrwt>
<totfact> 0.29023507E+03</totfact>
</mgrwt>
</event>
<event>
 4    1  0.2679255E-004  0.2798473E+03  0.7818608E-02  0.1095772E+00
          2   -1    0    0  501    0  0.00000000000E+00  0.00000000000E+00  0.73698674283E+03  0.73698674283E+03  0.25500000000E-02 0.  1.
         -2   -1    0    0    0  501 -0.00000000000E+00 -0.00000000000E+00 -0.26565779299E+02  0.26565779421E+02  0.25500000000E-02 0. -1.
    5000001    1    1    2    0    0 -0.46743427880E+02 -0.18405120421E+02  0.43823512977E+03  0.45902366548E+03  0.12700000000E+03 0.  0.
   -5000001    1    1    2    0    0  0.46743427880E+02  0.18405120421E+02  0.27218583376E+03  0.30452885677E+03  0.12700000000E+03 0.  0.
<mgrwt>
<rscale>  0 0.27984730E+03</rscale>
<asrwt>0</asrwt>
<pdfrwt beam="1">  1        2 0.10528384E+00 0.27984730E+03</pdfrwt>
<pdfrwt beam="2">  1       -2 0.37951107E-02 0.27984730E+03</pdfrwt>
<totfact> 0.12787782E+04</totfact>
</mgrwt>
</event>
<event>
 4    1  0.2679255E-004  0.1038495E+04  0.7818608E-02  0.9267303E-01
         -2   -1    0    0    0  501 -0.00000000000E+00  0.00000000000E+00  0.25555049099E+03  0.25555049100E+03  0.25500000000E-02 0. -1.
          2   -1    0    0  501    0  0.00000000000E+00 -0.00000000000E+00 -0.10550481837E+04  0.10550481837E+04  0.25500000000E-02 0.  1.
    5000001    1    1    2    0    0 -0.32645853213E+03  0.10708413625E+03  0.64712685468E+02  0.37196628489E+03  0.12700000000E+03 0.  0.
   -5000001    1    1    2    0    0  0.32645853213E+03 -0.10708413625E+03 -0.86421037816E+03  0.93863238979E+03  0.12700000000E+03 0.  0.
<mgrwt>
<rscale>  0 0.10384952E+04</rscale>
<asrwt>0</asrwt>
<pdfrwt beam="1">  1        2 0.15072117E+00 0.10384952E+04</pdfrwt>
<pdfrwt beam="2">  1       -2 0.36507214E-01 0.10384952E+04</pdfrwt>
<totfact> 0.18259358E+02</totfact>
</mgrwt>
</event>
<event>
 4    1  0.2679255E-004  0.3428414E+03  0.7818608E-02  0.1065592E+00
          2   -1    0    0  501    0  0.00000000000E+00  0.00000000000E+00  0.21792170253E+03  0.21792170255E+03  0.25500000000E-02 0.  1.
         -2   -1    0    0    0  501 -0.00000000000E+00 -0.00000000000E+00 -0.13484223817E+03  0.13484223819E+03  0.25500000000E-02 0. -1.
    5000001    1    1    2    0    0 -0.92421866093E+02 -0.60627464330E+02  0.74699129902E+02  0.18419134282E+03  0.12700000000E+03 0.  0.
   -5000001    1    1    2    0    0  0.92421866093E+02  0.60627464330E+02  0.83803344621E+01  0.16857259792E+03  0.12700000000E+03 0.  0.
<mgrwt>
<rscale>  0 0.34284136E+03</rscale>
<asrwt>0</asrwt>
<pdfrwt beam="1">  1        2 0.31131671E-01 0.34284136E+03</pdfrwt>
<pdfrwt beam="2">  1       -2 0.19263177E-01 0.34284136E+03</pdfrwt>
<totfact> 0.37862495E+03</totfact>
</mgrwt>
</event>
<event>
 4    1  0.2679255E-004  0.3338184E+03  0.7818608E-02  0.1069460E+00
          2   -1    0    0  501    0  0.00000000000E+00  0.00000000000E+00  0.11197552319E+04  0.11197552319E+04  0.25500000000E-02 0.  1.
         -2   -1    0    0    0  501 -0.00000000000E+00 -0.00000000000E+00 -0.24879257328E+02  0.24879257459E+02  0.25500000000E-02 0. -1.
    5000001    1    1    2    0    0 -0.49232558118E+02 -0.81085279921E+02  0.36824611025E+03  0.40091503478E+03  0.12700000000E+03 0.  0.
   -5000001    1    1    2    0    0  0.49232558118E+02  0.81085279921E+02  0.72662986431E+03  0.74371945457E+03  0.12700000000E+03 0.  0.
<mgrwt>
<rscale>  0 0.33381839E+03</rscale>
<asrwt>0</asrwt>
<pdfrwt beam="1">  1        2 0.15996502E+00 0.33381839E+03</pdfrwt>
<pdfrwt beam="2">  1       -2 0.35541799E-02 0.33381839E+03</pdfrwt>
<totfact> 0.81890701E+03</totfact>
</mgrwt>
</event>
<event>
 4    1  0.2679255E-004  0.4133814E+03  0.7818608E-02  0.1039242E+00
         -2   -1    0    0    0  501 -0.00000000000E+00  0.00000000000E+00  0.35069243890E+03  0.35069243891E+03  0.25500000000E-02 0. -1.
          2   -1    0    0  501    0  0.00000000000E+00 -0.00000000000E+00 -0.12181913063E+03  0.12181913065E+03  0.25500000000E-02 0.  1.
    5000001    1    1    2    0    0 -0.13043014608E+03 -0.78029222199E+02  0.18197732657E+03  0.26897087186E+03  0.12700000000E+03 0.  0.
   -5000001    1    1    2    0    0  0.13043014608E+03  0.78029222199E+02  0.46895981710E+02  0.20354069771E+03  0.12700000000E+03 0.  0.
<mgrwt>
<rscale>  0 0.41338141E+03</rscale>
<asrwt>0</asrwt>
<pdfrwt beam="1">  1        2 0.17402733E-01 0.41338141E+03</pdfrwt>
<pdfrwt beam="2">  1       -2 0.50098921E-01 0.41338141E+03</pdfrwt>
<totfact> 0.12600110E+03</totfact>
</mgrwt>
</event>
<event>
 4    1  0.2679255E-004  0.4811809E+03  0.7818608E-02  0.1018811E+00
         -2   -1    0    0    0  501 -0.00000000000E+00  0.00000000000E+00  0.36335623886E+03  0.36335623887E+03  0.25500000000E-02 0. -1.
          2   -1    0    0  501    0  0.00000000000E+00 -0.00000000000E+00 -0.15930308384E+03  0.15930308386E+03  0.25500000000E-02 0.  1.
    5000001    1    1    2    0    0  0.63236967829E+02  0.16352791173E+03 -0.11970115018E+02  0.21682383556E+03  0.12700000000E+03 0.  0.
   -5000001    1    1    2    0    0 -0.63236967829E+02 -0.16352791173E+03  0.21602327003E+03  0.30583548717E+03  0.12700000000E+03 0.  0.
<mgrwt>
<rscale>  0 0.48118092E+03</rscale>
<asrwt>0</asrwt>
<pdfrwt beam="1">  1        2 0.22757583E-01 0.48118092E+03</pdfrwt>
<pdfrwt beam="2">  1       -2 0.51908034E-01 0.48118092E+03</pdfrwt>
<totfact> 0.85912993E+02</totfact>
</mgrwt>
</event>
<event>
 4    1  0.2679255E-004  0.3968677E+03  0.7818608E-02  0.1044870E+00
          2   -1    0    0  501    0  0.00000000000E+00  0.00000000000E+00  0.10094468401E+04  0.10094468401E+04  0.25500000000E-02 0.  1.
         -2   -1    0    0    0  501 -0.00000000000E+00 -0.00000000000E+00 -0.39007496981E+02  0.39007497064E+02  0.25500000000E-02 0. -1.
    5000001    1    1    2    0    0  0.82501898364E+02 -0.12090728877E+03  0.59798124457E+03  0.62859820598E+03  0.12700000000E+03 0.  0.
   -5000001    1    1    2    0    0 -0.82501898364E+02  0.12090728877E+03  0.37245809850E+03  0.41985613114E+03  0.12700000000E+03 0.  0.
<mgrwt>
<rscale>  0 0.39686771E+03</rscale>
<asrwt>0</asrwt>
<pdfrwt beam="1">  1        2 0.14420669E+00 0.39686771E+03</pdfrwt>
<pdfrwt beam="2">  1       -2 0.55724994E-02 0.39686771E+03</pdfrwt>
<totfact> 0.47957916E+03</totfact>
</mgrwt>
</event>
<event>
 4    1  0.2679255E-004  0.1332393E+04  0.7818608E-02  0.9004265E-01
         -2   -1    0    0    0  501 -0.00000000000E+00  0.00000000000E+00  0.89094284807E+03  0.89094284808E+03  0.25500000000E-02 0. -1.
          2   -1    0    0  501    0  0.00000000000E+00 -0.00000000000E+00 -0.49814371500E+03  0.49814371501E+03  0.25500000000E-02 0.  1.
    5000001    1    1    2    0    0 -0.54414805972E+02  0.64314103274E+03  0.86573815065E+02  0.66348729042E+03  0.12700000000E+03 0.  0.
   -5000001    1    1    2    0    0  0.54414805972E+02 -0.64314103274E+03  0.30622531801E+03  0.72559927266E+03  0.12700000000E+03 0.  0.
<mgrwt>
<rscale>  0 0.13323927E+04</rscale>
<asrwt>0</asrwt>
<pdfrwt beam="1">  1        2 0.71163387E-01 0.13323927E+04</pdfrwt>
<pdfrwt beam="2">  1       -2 0.12727755E+00 0.13323927E+04</pdfrwt>
<totfact> 0.30246922E+01</totfact>
</mgrwt>
</event>
<event>
 4    1  0.2679255E-004  0.4034852E+03  0.7818608E-02  0.1042580E+00
          2   -1    0    0  501    0  0.00000000000E+00  0.00000000000E+00  0.53959627268E+03  0.53959627268E+03  0.25500000000E-02 0.  1.
         -2   -1    0    0    0  501 -0.00000000000E+00 -0.00000000000E+00 -0.75426889266E+02  0.75426889309E+02  0.25500000000E-02 0. -1.
    5000001    1    1    2    0    0 -0.75022311316E+02 -0.68858274560E+02  0.50438066594E+02  0.17041950514E+03  0.12700000000E+03 0.  0.
   -5000001    1    1    2    0    0  0.75022311316E+02  0.68858274560E+02  0.41373131682E+03  0.44460365685E+03  0.12700000000E+03 0.  0.
<mgrwt>
<rscale>  0 0.40348516E+03</rscale>
<asrwt>0</asrwt>
<pdfrwt beam="1">  1        2 0.77085184E-01 0.40348516E+03</pdfrwt>
<pdfrwt beam="2">  1       -2 0.10775270E-01 0.40348516E+03</pdfrwt>
<totfact> 0.36809523E+03</totfact>
</mgrwt>
</event>
<event>
 4    1  0.2679255E-004  0.3676460E+03  0.7818608E-02  0.1055597E+00
         -2   -1    0    0    0  501 -0.00000000000E+00  0.00000000000E+00  0.11782793773E+03  0.11782793776E+03  0.25500000000E-02 0. -1.
          2   -1    0    0  501    0  0.00000000000E+00 -0.00000000000E+00 -0.28678161915E+03  0.28678161916E+03  0.25500000000E-02 0.  1.
    5000001    1    1    2    0    0  0.10691839573E+03  0.60104403815E+02 -0.14078546481E+03  0.22581769152E+03  0.12700000000E+03 0.  0.
   -5000001    1    1    2    0    0 -0.10691839573E+03 -0.60104403815E+02 -0.28168216605E+02  0.17879186539E+03  0.12700000000E+03 0.  0.
<mgrwt>
<rscale>  0 0.36764595E+03</rscale>
<asrwt>0</asrwt>
<pdfrwt beam="1">  1        2 0.40968802E-01 0.36764595E+03</pdfrwt>
<pdfrwt beam="2">  1       -2 0.16832563E-01 0.36764595E+03</pdfrwt>
<totfact> 0.35306382E+03</totfact>
</mgrwt>
</event>
<event>
 4    1  0.2679255E-004  0.5612014E+03  0.7818608E-02  0.9989340E-01
          2   -1    0    0  501    0  0.00000000000E+00  0.00000000000E+00  0.12328709458E+03  0.12328709460E+03  0.25500000000E-02 0.  1.
         -2   -1    0    0    0  501 -0.00000000000E+00 -0.00000000000E+00 -0.63864547596E+03  0.63864547596E+03  0.25500000000E-02 0. -1.
    5000001    1    1    2    0    0  0.41635095071E+02 -0.23671113175E+03 -0.16320463059E+03  0.31706528110E+03  0.12700000000E+03 0.  0.
   -5000001    1    1    2    0    0 -0.41635095071E+02  0.23671113175E+03 -0.35215375079E+03  0.44486728946E+03  0.12700000000E+03 0.  0.
<mgrwt>
<rscale>  0 0.56120137E+03</rscale>
<asrwt>0</asrwt>
<pdfrwt beam="1">  1        2 0.17612442E-01 0.56120137E+03</pdfrwt>
<pdfrwt beam="2">  1       -2 0.91235066E-01 0.56120137E+03</pdfrwt>
<totfact> 0.34200617E+02</totfact>
</mgrwt>
</event>
<event>
 4    1  0.2679255E-004  0.2919682E+03  0.7818608E-02  0.1089326E+00
          2   -1    0    0  501    0  0.00000000000E+00  0.00000000000E+00  0.26051462128E+04  0.26051462128E+04  0.25500000000E-02 0. -1.
         -2   -1    0    0    0  501 -0.00000000000E+00 -0.00000000000E+00 -0.81804820538E+01  0.81804824513E+01  0.25500000000E-02 0.  1.
    5000001    1    1    2    0    0 -0.64570685895E+02 -0.23384397497E+02  0.14917333126E+04  0.14987039333E+04  0.12700000000E+03 0.  0.
   -5000001    1    1    2    0    0  0.64570685895E+02  0.23384397497E+02  0.11052324181E+04  0.11146227620E+04  0.12700000000E+03 0.  0.
<mgrwt>
<rscale>  0 0.29196817E+03</rscale>
<asrwt>0</asrwt>
<pdfrwt beam="1">  1        2 0.37216374E+00 0.29196817E+03</pdfrwt>
<pdfrwt beam="2">  1       -2 0.11686403E-02 0.29196817E+03</pdfrwt>
<totfact> 0.75465656E+03</totfact>
</mgrwt>
</event>
<event>
 4    1  0.2679255E-004  0.4521770E+03  0.7818608E-02  0.1027075E+00
         -2   -1    0    0    0  501 -0.00000000000E+00  0.00000000000E+00  0.46588928087E+02  0.46588928157E+02  0.25500000000E-02 0. -1.
          2   -1    0    0  501    0  0.00000000000E+00 -0.00000000000E+00 -0.10971705352E+04  0.10971705352E+04  0.25500000000E-02 0.  1.
    5000001    1    1    2    0    0 -0.12278617485E+03 -0.13839672428E+03 -0.59488064838E+03  0.63580034904E+03  0.12700000000E+03 0.  0.
   -5000001    1    1    2    0    0  0.12278617485E+03  0.13839672428E+03 -0.45570095870E+03  0.50795911429E+03  0.12700000000E+03 0.  0.
<mgrwt>
<rscale>  0 0.45217695E+03</rscale>
<asrwt>0</asrwt>
<pdfrwt beam="1">  1        2 0.15673863E+00 0.45217695E+03</pdfrwt>
<pdfrwt beam="2">  1       -2 0.66555619E-02 0.45217695E+03</pdfrwt>
<totfact> 0.32363280E+03</totfact>
</mgrwt>
</event>
<event>
 4    1  0.2679255E-004  0.5501729E+03  0.7818608E-02  0.1001454E+00
          2   -1    0    0  501    0  0.00000000000E+00  0.00000000000E+00  0.12832046303E+04  0.12832046303E+04  0.25500000000E-02 0.  1.
         -2   -1    0    0    0  501 -0.00000000000E+00 -0.00000000000E+00 -0.58971542157E+02  0.58971542213E+02  0.25500000000E-02 0. -1.
    5000001    1    1    2    0    0  0.17465610889E+03  0.28434576236E+02  0.20222602058E+03  0.29721649499E+03  0.12700000000E+03 0.  0.
   -5000001    1    1    2    0    0 -0.17465610889E+03 -0.28434576236E+02  0.10220070676E+04  0.10449596775E+04  0.12700000000E+03 0.  0.
<mgrwt>
<rscale>  0 0.55017290E+03</rscale>
<asrwt>0</asrwt>
<pdfrwt beam="1">  1        2 0.18331495E+00 0.55017290E+03</pdfrwt>
<pdfrwt beam="2">  1       -2 0.84245061E-02 0.55017290E+03</pdfrwt>
<totfact> 0.17536343E+03</totfact>
</mgrwt>
</event>
<event>
 4    1  0.2679255E-004  0.5407442E+03  0.7818608E-02  0.1003659E+00
          2   -1    0    0  501    0  0.00000000000E+00  0.00000000000E+00  0.26843517173E+03  0.26843517174E+03  0.25500000000E-02 0.  1.
         -2   -1    0    0    0  501 -0.00000000000E+00 -0.00000000000E+00 -0.27232300409E+03  0.27232300410E+03  0.25500000000E-02 0. -1.
    5000001    1    1    2    0    0  0.14626461696E+03 -0.81567463035E+02 -0.17202324596E+03  0.27160188945E+03  0.12700000000E+03 0.  0.
   -5000001    1    1    2    0    0 -0.14626461696E+03  0.81567463035E+02  0.16813541361E+03  0.26915628640E+03  0.12700000000E+03 0.  0.
<mgrwt>
<rscale>  0 0.54074420E+03</rscale>
<asrwt>0</asrwt>
<pdfrwt beam="1">  1        2 0.38347882E-01 0.54074420E+03</pdfrwt>
<pdfrwt beam="2">  1       -2 0.38903286E-01 0.54074420E+03</pdfrwt>
<totfact> 0.84617433E+02</totfact>
</mgrwt>
</event>
<event>
 4    1  0.2679255E-004  0.3388450E+03  0.7818608E-02  0.1067289E+00
          2   -1    0    0  501    0  0.00000000000E+00  0.00000000000E+00  0.11960762619E+04  0.11960762619E+04  0.25500000000E-02 0.  1.
         -2   -1    0    0    0  501 -0.00000000000E+00 -0.00000000000E+00 -0.23998452089E+02  0.23998452224E+02  0.25500000000E-02 0. -1.
    5000001    1    1    2    0    0 -0.90680290782E+02  0.65701899749E+02  0.60743928295E+03  0.63059585888E+03  0.12700000000E+03 0.  0.
   -5000001    1    1    2    0    0  0.90680290782E+02 -0.65701899749E+02  0.56463852687E+03  0.58947885526E+03  0.12700000000E+03 0.  0.
<mgrwt>
<rscale>  0 0.33884497E+03</rscale>
<asrwt>0</asrwt>
<pdfrwt beam="1">  1        2 0.17086807E+00 0.33884497E+03</pdfrwt>
<pdfrwt beam="2">  1       -2 0.34283497E-02 0.33884497E+03</pdfrwt>
<totfact> 0.78436997E+03</totfact>
</mgrwt>
</event>
<event>
 4    1  0.2679255E-004  0.9870198E+03  0.7818608E-02  0.9322897E-01
         -2   -1    0    0    0  501 -0.00000000000E+00  0.00000000000E+00  0.12912158169E+03  0.12912158171E+03  0.25500000000E-02 0. -1.
          2   -1    0    0  501    0  0.00000000000E+00 -0.00000000000E+00 -0.18862224279E+04  0.18862224279E+04  0.25500000000E-02 0.  1.
    5000001    1    1    2    0    0 -0.41181868636E+03 -0.20977710390E+03 -0.63849687393E+03  0.79837855793E+03  0.12700000000E+03 0.  0.
   -5000001    1    1    2    0    0  0.41181868636E+03  0.20977710390E+03 -0.11186039723E+04  0.12169654516E+04  0.12700000000E+03 0.  0.
<mgrwt>
<rscale>  0 0.98701980E+03</rscale>
<asrwt>0</asrwt>
<pdfrwt beam="1">  1        2 0.26946033E+00 0.98701980E+03</pdfrwt>
<pdfrwt beam="2">  1       -2 0.18445941E-01 0.98701980E+03</pdfrwt>
<totfact> 0.22607166E+02</totfact>
</mgrwt>
</event>
<event>
 4    1  0.2679255E-004  0.3247627E+03  0.7818608E-02  0.1073478E+00
         -2   -1    0    0    0  501 -0.00000000000E+00  0.00000000000E+00  0.11218460011E+02  0.11218460301E+02  0.25500000000E-02 0. -1.
          2   -1    0    0  501    0  0.00000000000E+00 -0.00000000000E+00 -0.23503858343E+04  0.23503858343E+04  0.25500000000E-02 0.  1.
    5000001    1    1    2    0    0 -0.91284687037E+02 -0.42614032000E+02 -0.12385162138E+04  0.12490797659E+04  0.12700000000E+03 0.  0.
   -5000001    1    1    2    0    0  0.91284687037E+02  0.42614032000E+02 -0.11006511605E+04  0.11125245287E+04  0.12700000000E+03 0.  0.
<mgrwt>
<rscale>  0 0.32476274E+03</rscale>
<asrwt>0</asrwt>
<pdfrwt beam="1">  1        2 0.33576909E+00 0.32476274E+03</pdfrwt>
<pdfrwt beam="2">  1       -2 0.16026387E-02 0.32476274E+03</pdfrwt>
<totfact> 0.63719221E+03</totfact>
</mgrwt>
</event>
<event>
 4    1  0.2679255E-004  0.4330999E+03  0.7818608E-02  0.1032885E+00
          2   -1    0    0  501    0  0.00000000000E+00  0.00000000000E+00  0.24930585613E+03  0.24930585614E+03  0.25500000000E-02 0.  1.
         -2   -1    0    0    0  501 -0.00000000000E+00 -0.00000000000E+00 -0.18809777024E+03  0.18809777026E+03  0.25500000000E-02 0. -1.
    5000001    1    1    2    0    0  0.57654706750E+02 -0.16533490052E+03  0.20246346058E+02  0.21725240866E+03  0.12700000000E+03 0.  0.
   -5000001    1    1    2    0    0 -0.57654706750E+02  0.16533490052E+03  0.40961739824E+02  0.22015121774E+03  0.12700000000E+03 0.  0.
<mgrwt>
<rscale>  0 0.43309988E+03</rscale>
<asrwt>0</asrwt>
<pdfrwt beam="1">  1        2 0.35615123E-01 0.43309988E+03</pdfrwt>
<pdfrwt beam="2">  1       -2 0.26871110E-01 0.43309988E+03</pdfrwt>
<totfact> 0.18276505E+03</totfact>
</mgrwt>
</event>
<event>
 4    1  0.2679255E-004  0.3799234E+03  0.7818608E-02  0.1050962E+00
         -2   -1    0    0    0  501 -0.00000000000E+00  0.00000000000E+00  0.21357120012E+02  0.21357120164E+02  0.25500000000E-02 0. -1.
          2   -1    0    0  501    0  0.00000000000E+00 -0.00000000000E+00 -0.16896211845E+04  0.16896211845E+04  0.25500000000E-02 0.  1.
    5000001    1    1    2    0    0  0.10643171323E+03 -0.89632938169E+02 -0.72431081084E+03  0.74840959634E+03  0.12700000000E+03 0.  0.
   -5000001    1    1    2    0    0 -0.10643171323E+03  0.89632938169E+02 -0.94395325364E+03  0.96256870832E+03  0.12700000000E+03 0.  0.
<mgrwt>
<rscale>  0 0.37992337E+03</rscale>
<asrwt>0</asrwt>
<pdfrwt beam="1">  1        2 0.24137437E+00 0.37992337E+03</pdfrwt>
<pdfrwt beam="2">  1       -2 0.30510182E-02 0.37992337E+03</pdfrwt>
<totfact> 0.51909600E+03</totfact>
</mgrwt>
</event>
<event>
 4    1  0.2679255E-004  0.7148823E+03  0.7818608E-02  0.9692115E-01
         -2   -1    0    0    0  501 -0.00000000000E+00  0.00000000000E+00  0.10728434659E+03  0.10728434662E+03  0.25500000000E-02 0. -1.
          2   -1    0    0  501    0  0.00000000000E+00 -0.00000000000E+00 -0.11908930831E+04  0.11908930831E+04  0.25500000000E-02 0.  1.
    5000001    1    1    2    0    0 -0.10712170202E+03 -0.30792864905E+03 -0.67450504687E+03  0.75985601939E+03  0.12700000000E+03 0.  0.
   -5000001    1    1    2    0    0  0.10712170202E+03  0.30792864905E+03 -0.40910368967E+03  0.53832141036E+03  0.12700000000E+03 0.  0.
<mgrwt>
<rscale>  0 0.71488233E+03</rscale>
<asrwt>0</asrwt>
<pdfrwt beam="1">  1        2 0.17012758E+00 0.71488233E+03</pdfrwt>
<pdfrwt beam="2">  1       -2 0.15326336E-01 0.71488233E+03</pdfrwt>
<totfact> 0.73505733E+02</totfact>
</mgrwt>
</event>
<event>
 4    1  0.2679255E-004  0.4489216E+03  0.7818608E-02  0.1028044E+00
         -2   -1    0    0    0  501 -0.00000000000E+00  0.00000000000E+00  0.32091396935E+02  0.32091397036E+02  0.25500000000E-02 0. -1.
          2   -1    0    0  501    0  0.00000000000E+00 -0.00000000000E+00 -0.15699738571E+04  0.15699738571E+04  0.25500000000E-02 0.  1.
    5000001    1    1    2    0    0 -0.83845730818E+02  0.12804864434E+03 -0.39760646910E+03  0.44457447763E+03  0.12700000000E+03 0.  0.
   -5000001    1    1    2    0    0  0.83845730818E+02 -0.12804864434E+03 -0.11402759910E+04  0.11574907765E+04  0.12700000000E+03 0.  0.
<mgrwt>
<rscale>  0 0.44892162E+03</rscale>
<asrwt>0</asrwt>
<pdfrwt beam="1">  1        2 0.22428193E+00 0.44892162E+03</pdfrwt>
<pdfrwt beam="2">  1       -2 0.45844863E-02 0.44892162E+03</pdfrwt>
<totfact> 0.32144981E+03</totfact>
</mgrwt>
</event>
<event>
 4    1  0.2679255E-004  0.2838562E+03  0.7818608E-02  0.1093601E+00
         -2   -1    0    0    0  501 -0.00000000000E+00  0.00000000000E+00  0.36224670418E+02  0.36224670508E+02  0.25500000000E-02 0. -1.
          2   -1    0    0  501    0  0.00000000000E+00 -0.00000000000E+00 -0.55607366828E+03  0.55607366829E+03  0.25500000000E-02 0.  1.
    5000001    1    1    2    0    0 -0.28001931453E+02  0.25013631982E+02 -0.15342956623E+03  0.20268059045E+03  0.12700000000E+03 0.  0.
   -5000001    1    1    2    0    0  0.28001931453E+02 -0.25013631982E+02 -0.36641943163E+03  0.38961774835E+03  0.12700000000E+03 0.  0.
<mgrwt>
<rscale>  0 0.28385620E+03</rscale>
<asrwt>0</asrwt>
<pdfrwt beam="1">  1        2 0.79439090E-01 0.28385620E+03</pdfrwt>
<pdfrwt beam="2">  1       -2 0.51749533E-02 0.28385620E+03</pdfrwt>
<totfact> 0.11105652E+04</totfact>
</mgrwt>
</event>
<event>
 4    1  0.2679255E-004  0.4744978E+03  0.7818608E-02  0.1020658E+00
          2   -1    0    0  501    0  0.00000000000E+00  0.00000000000E+00  0.75223804782E+03  0.75223804783E+03  0.25500000000E-02 0.  1.
         -2   -1    0    0    0  501 -0.00000000000E+00 -0.00000000000E+00 -0.74826109617E+02  0.74826109660E+02  0.25500000000E-02 0. -1.
    5000001    1    1    2    0    0 -0.15088191448E+03 -0.52206488390E+02  0.12761082585E+03  0.24063331527E+03  0.12700000000E+03 0.  0.
   -5000001    1    1    2    0    0  0.15088191448E+03  0.52206488390E+02  0.54980111236E+03  0.58643084221E+03  0.12700000000E+03 0.  0.
<mgrwt>
<rscale>  0 0.47449783E+03</rscale>
<asrwt>0</asrwt>
<pdfrwt beam="1">  1        2 0.10746259E+00 0.47449783E+03</pdfrwt>
<pdfrwt beam="2">  1       -2 0.10689443E-01 0.47449783E+03</pdfrwt>
<totfact> 0.25220545E+03</totfact>
</mgrwt>
</event>
<event>
 4    1  0.2679255E-004  0.2998404E+03  0.7818608E-02  0.1085320E+00
         -2   -1    0    0    0  501 -0.00000000000E+00  0.00000000000E+00  0.35816839275E+02  0.35816839366E+02  0.25500000000E-02 0. -1.
          2   -1    0    0  501    0  0.00000000000E+00 -0.00000000000E+00 -0.62752776674E+03  0.62752776674E+03  0.25500000000E-02 0.  1.
    5000001    1    1    2    0    0  0.12806195619E+02  0.73528025551E+02 -0.35751120466E+03  0.38666992467E+03  0.12700000000E+03 0.  0.
   -5000001    1    1    2    0    0 -0.12806195619E+02 -0.73528025551E+02 -0.23419972280E+03  0.27667468144E+03  0.12700000000E+03 0.  0.
<mgrwt>
<rscale>  0 0.29984037E+03</rscale>
<asrwt>0</asrwt>
<pdfrwt beam="1">  1        2 0.89646817E-01 0.29984037E+03</pdfrwt>
<pdfrwt beam="2">  1       -2 0.51166917E-02 0.29984037E+03</pdfrwt>
<totfact> 0.98630316E+03</totfact>
</mgrwt>
</event>
<event>
 4    1  0.2679255E-004  0.4276433E+03  0.7818608E-02  0.1034607E+00
         -2   -1    0    0    0  501 -0.00000000000E+00  0.00000000000E+00  0.17173869729E+02  0.17173869918E+02  0.25500000000E-02 0. -1.
          2   -1    0    0  501    0  0.00000000000E+00 -0.00000000000E+00 -0.26621665875E+04  0.26621665875E+04  0.25500000000E-02 0.  1.
    5000001    1    1    2    0    0 -0.43498123981E+02 -0.16582284781E+03 -0.12335814420E+04  0.12518951544E+04  0.12700000000E+03 0.  0.
   -5000001    1    1    2    0    0  0.43498123981E+02  0.16582284781E+03 -0.14114112757E+04  0.14274453029E+04  0.12700000000E+03 0.  0.
<mgrwt>
<rscale>  0 0.42764332E+03</rscale>
<asrwt>0</asrwt>
<pdfrwt beam="1">  1        2 0.38030925E+00 0.42764332E+03</pdfrwt>
<pdfrwt beam="2">  1       -2 0.24534117E-02 0.42764332E+03</pdfrwt>
<totfact> 0.23463550E+03</totfact>
</mgrwt>
</event>
<event>
 4    1  0.2679255E-004  0.5229306E+03  0.7818608E-02  0.1007961E+00
          2   -1    0    0  501    0  0.00000000000E+00  0.00000000000E+00  0.27654196325E+03  0.27654196326E+03  0.25500000000E-02 0.  1.
         -2   -1    0    0    0  501 -0.00000000000E+00 -0.00000000000E+00 -0.24721062170E+03  0.24721062171E+03  0.25500000000E-02 0. -1.
    5000001    1    1    2    0    0 -0.10482553946E+03  0.99485097206E+02  0.19200168389E+03  0.27180751444E+03  0.12700000000E+03 0.  0.
   -5000001    1    1    2    0    0  0.10482553946E+03 -0.99485097206E+02 -0.16267034234E+03  0.25194507053E+03  0.12700000000E+03 0.  0.
<mgrwt>
<rscale>  0 0.52293063E+03</rscale>
<asrwt>0</asrwt>
<pdfrwt beam="1">  1        2 0.39505995E-01 0.52293063E+03</pdfrwt>
<pdfrwt beam="2">  1       -2 0.35315803E-01 0.52293063E+03</pdfrwt>
<totfact> 0.98509976E+02</totfact>
</mgrwt>
</event>
<event>
 4    1  0.2679255E-004  0.5056248E+03  0.7818608E-02  0.1012321E+00
         -2   -1    0    0    0  501 -0.00000000000E+00  0.00000000000E+00  0.24885105458E+02  0.24885105589E+02  0.25500000000E-02 0. -1.
          2   -1    0    0  501    0  0.00000000000E+00 -0.00000000000E+00 -0.25683681229E+04  0.25683681229E+04  0.25500000000E-02 0.  1.
    5000001    1    1    2    0    0  0.18725658584E+03  0.70354829767E+02 -0.81964109112E+03  0.85320299417E+03  0.12700000000E+03 0.  0.
   -5000001    1    1    2    0    0 -0.18725658584E+03 -0.70354829767E+02 -0.17238419263E+04  0.17400502343E+04  0.12700000000E+03 0.  0.
<mgrwt>
<rscale>  0 0.50562481E+03</rscale>
<asrwt>0</asrwt>
<pdfrwt beam="1">  1        2 0.36690956E+00 0.50562481E+03</pdfrwt>
<pdfrwt beam="2">  1       -2 0.35550167E-02 0.50562481E+03</pdfrwt>
<totfact> 0.14896123E+03</totfact>
</mgrwt>
</event>
<event>
 4    1  0.2679255E-004  0.3976757E+03  0.7818608E-02  0.1044587E+00
         -2   -1    0    0    0  501 -0.00000000000E+00  0.00000000000E+00  0.12015460360E+03  0.12015460363E+03  0.25500000000E-02 0. -1.
          2   -1    0    0  501    0  0.00000000000E+00 -0.00000000000E+00 -0.32904681089E+03  0.32904681090E+03  0.25500000000E-02 0.  1.
    5000001    1    1    2    0    0 -0.33467381972E+01 -0.84359912461E+02 -0.24856973065E+03  0.29162254111E+03  0.12700000000E+03 0.  0.
   -5000001    1    1    2    0    0  0.33467381972E+01  0.84359912461E+02  0.39677523367E+02  0.15757887342E+03  0.12700000000E+03 0.  0.
<mgrwt>
<rscale>  0 0.39767569E+03</rscale>
<asrwt>0</asrwt>
<pdfrwt beam="1">  1        2 0.47006687E-01 0.39767569E+03</pdfrwt>
<pdfrwt beam="2">  1       -2 0.17164944E-01 0.39767569E+03</pdfrwt>
<totfact> 0.29458810E+03</totfact>
</mgrwt>
</event>
<event>
 4    1  0.2679255E-004  0.3794230E+03  0.7818608E-02  0.1051147E+00
         -2   -1    0    0    0  501 -0.00000000000E+00  0.00000000000E+00  0.71169348639E+03  0.71169348640E+03  0.25500000000E-02 0. -1.
          2   -1    0    0  501    0  0.00000000000E+00 -0.00000000000E+00 -0.50570157888E+02  0.50570157952E+02  0.25500000000E-02 0.  1.
    5000001    1    1    2    0    0 -0.83602859489E+02 -0.38254134104E+02  0.54514619252E+03  0.56724438130E+03  0.12700000000E+03 0.  0.
   -5000001    1    1    2    0    0  0.83602859489E+02  0.38254134104E+02  0.11597713598E+03  0.19501926305E+03  0.12700000000E+03 0.  0.
<mgrwt>
<rscale>  0 0.37942299E+03</rscale>
<asrwt>0</asrwt>
<pdfrwt beam="1">  1        2 0.72243090E-02 0.37942299E+03</pdfrwt>
<pdfrwt beam="2">  1       -2 0.10167049E+00 0.37942299E+03</pdfrwt>
<totfact> 0.80565543E+02</totfact>
</mgrwt>
</event>
<event>
 4    1  0.2679255E-004  0.4797728E+03  0.7818608E-02  0.1019198E+00
          2   -1    0    0  501    0  0.00000000000E+00  0.00000000000E+00  0.43027633812E+04  0.43027633812E+04  0.25500000000E-02 0.  1.
         -2   -1    0    0    0  501 -0.00000000000E+00 -0.00000000000E+00 -0.13374075140E+02  0.13374075383E+02  0.25500000000E-02 0. -1.
    5000001    1    1    2    0    0  0.33128264054E+02  0.13944064646E+03  0.84489601220E+03  0.86632525485E+03  0.12700000000E+03 0.  0.
   -5000001    1    1    2    0    0 -0.33128264054E+02 -0.13944064646E+03  0.34444932938E+04  0.34498122017E+04  0.12700000000E+03 0.  0.
<mgrwt>
<rscale>  0 0.47977278E+03</rscale>
<asrwt>0</asrwt>
<pdfrwt beam="1">  1        2 0.61467939E+00 0.47977278E+03</pdfrwt>
<pdfrwt beam="2">  1       -2 0.19105856E-02 0.47977278E+03</pdfrwt>
<totfact> 0.35500037E+02</totfact>
</mgrwt>
</event>
<event>
 4    1  0.2679255E-004  0.5885687E+03  0.7818608E-02  0.9929410E-01
          2   -1    0    0  501    0  0.00000000000E+00  0.00000000000E+00  0.13622439219E+04  0.13622439219E+04  0.25500000000E-02 0.  1.
         -2   -1    0    0    0  501 -0.00000000000E+00 -0.00000000000E+00 -0.63573984999E+02  0.63573985050E+02  0.25500000000E-02 0. -1.
    5000001    1    1    2    0    0 -0.17329141518E+03  0.12511511844E+03  0.10307608373E+04  0.10603209944E+04  0.12700000000E+03 0.  0.
   -5000001    1    1    2    0    0  0.17329141518E+03 -0.12511511844E+03  0.26790909958E+03  0.36549691254E+03  0.12700000000E+03 0.  0.
<mgrwt>
<rscale>  0 0.58856869E+03</rscale>
<asrwt>0</asrwt>
<pdfrwt beam="1">  1        2 0.19460627E+00 0.58856869E+03</pdfrwt>
<pdfrwt beam="2">  1       -2 0.90819982E-02 0.58856869E+03</pdfrwt>
<totfact> 0.14078711E+03</totfact>
</mgrwt>
</event>
<event>
 4    1  0.2679255E-004  0.2879895E+03  0.7818608E-02  0.1091404E+00
         -2   -1    0    0    0  501 -0.00000000000E+00  0.00000000000E+00  0.50293899691E+03  0.50293899691E+03  0.25500000000E-02 0. -1.
          2   -1    0    0  501    0  0.00000000000E+00 -0.00000000000E+00 -0.41226651895E+02  0.41226651974E+02  0.25500000000E-02 0.  1.
    5000001    1    1    2    0    0 -0.61219379833E+02  0.23359200089E+02  0.26423338187E+03  0.30040263779E+03  0.12700000000E+03 0.  0.
   -5000001    1    1    2    0    0  0.61219379833E+02 -0.23359200089E+02  0.19747896314E+03  0.24376301110E+03  0.12700000000E+03 0.  0.
<mgrwt>
<rscale>  0 0.28798952E+03</rscale>
<asrwt>0</asrwt>
<pdfrwt beam="1">  1        2 0.58895220E-02 0.28798952E+03</pdfrwt>
<pdfrwt beam="2">  1       -2 0.71848425E-01 0.28798952E+03</pdfrwt>
<totfact> 0.22819426E+03</totfact>
</mgrwt>
</event>
<event>
 4    1  0.2679255E-004  0.2834452E+03  0.7818608E-02  0.1093822E+00
         -2   -1    0    0    0  501 -0.00000000000E+00  0.00000000000E+00  0.31262158952E+02  0.31262159056E+02  0.25500000000E-02 0. -1.
          2   -1    0    0  501    0  0.00000000000E+00 -0.00000000000E+00 -0.64247939483E+03  0.64247939484E+03  0.25500000000E-02 0.  1.
    5000001    1    1    2    0    0 -0.30659583792E+02  0.25625941855E+02 -0.19014560220E+03  0.23212291789E+03  0.12700000000E+03 0.  0.
   -5000001    1    1    2    0    0  0.30659583792E+02 -0.25625941855E+02 -0.42107163368E+03  0.44161863600E+03  0.12700000000E+03 0.  0.
<mgrwt>
<rscale>  0 0.28344518E+03</rscale>
<asrwt>0</asrwt>
<pdfrwt beam="1">  1        2 0.91782762E-01 0.28344518E+03</pdfrwt>
<pdfrwt beam="2">  1       -2 0.44660231E-02 0.28344518E+03</pdfrwt>
<totfact> 0.11774971E+04</totfact>
</mgrwt>
</event>
<event>
 4    1  0.2679255E-004  0.6825287E+03  0.7818608E-02  0.9747586E-01
         -2   -1    0    0    0  501 -0.00000000000E+00  0.00000000000E+00  0.68061948223E+02  0.68061948270E+02  0.25500000000E-02 0. -1.
          2   -1    0    0  501    0  0.00000000000E+00 -0.00000000000E+00 -0.17111081275E+04  0.17111081275E+04  0.25500000000E-02 0.  1.
    5000001    1    1    2    0    0  0.20955161260E+03  0.23183860299E+03 -0.95625202090E+03  0.10140058894E+04  0.12700000000E+03 0.  0.
   -5000001    1    1    2    0    0 -0.20955161260E+03 -0.23183860299E+03 -0.68679415835E+03  0.76516418638E+03  0.12700000000E+03 0.  0.
<mgrwt>
<rscale>  0 0.68252869E+03</rscale>
<asrwt>0</asrwt>
<pdfrwt beam="1">  1        2 0.24444399E+00 0.68252869E+03</pdfrwt>
<pdfrwt beam="2">  1       -2 0.97231366E-02 0.68252869E+03</pdfrwt>
<totfact> 0.82692113E+02</totfact>
</mgrwt>
</event>
<event>
 4    1  0.2679255E-004  0.4940509E+03  0.7818608E-02  0.1015343E+00
         -2   -1    0    0    0  501 -0.00000000000E+00  0.00000000000E+00  0.53603485083E+02  0.53603485144E+02  0.25500000000E-02 0. -1.
          2   -1    0    0  501    0  0.00000000000E+00 -0.00000000000E+00 -0.11383882311E+04  0.11383882311E+04  0.25500000000E-02 0.  1.
    5000001    1    1    2    0    0 -0.84961127606E+02  0.14767256403E+03 -0.84630511054E+03  0.87257487902E+03  0.12700000000E+03 0.  0.
   -5000001    1    1    2    0    0  0.84961127606E+02 -0.14767256403E+03 -0.23847963550E+03  0.31941683725E+03  0.12700000000E+03 0.  0.
<mgrwt>
<rscale>  0 0.49405091E+03</rscale>
<asrwt>0</asrwt>
<pdfrwt beam="1">  1        2 0.16262687E+00 0.49405091E+03</pdfrwt>
<pdfrwt beam="2">  1       -2 0.76576414E-02 0.49405091E+03</pdfrwt>
<totfact> 0.24584330E+03</totfact>
</mgrwt>
</event>
<event>
 4    1  0.2679255E-004  0.3265351E+03  0.7818608E-02  0.1072680E+00
          2   -1    0    0  501    0  0.00000000000E+00  0.00000000000E+00  0.43164766275E+03  0.43164766276E+03  0.25500000000E-02 0. -1.
         -2   -1    0    0    0  501 -0.00000000000E+00 -0.00000000000E+00 -0.61754740230E+02  0.61754740282E+02  0.25500000000E-02 0.  1.
    5000001    1    1    2    0    0  0.22655015363E+02  0.99943538598E+02  0.19255108293E+03  0.25240221902E+03  0.12700000000E+03 0.  0.
   -5000001    1    1    2    0    0 -0.22655015363E+02 -0.99943538598E+02  0.17734183959E+03  0.24100018402E+03  0.12700000000E+03 0.  0.
<mgrwt>
<rscale>  0 0.32653508E+03</rscale>
<asrwt>0</asrwt>
<pdfrwt beam="1">  1        2 0.61663951E-01 0.32653508E+03</pdfrwt>
<pdfrwt beam="2">  1       -2 0.88221059E-02 0.32653508E+03</pdfrwt>
<totfact> 0.64636077E+03</totfact>
</mgrwt>
</event>
<event>
 4    1  0.2679255E-004  0.7859351E+03  0.7818608E-02  0.9580602E-01
         -2   -1    0    0    0  501 -0.00000000000E+00  0.00000000000E+00  0.36645740471E+02  0.36645740560E+02  0.25500000000E-02 0. -1.
          2   -1    0    0  501    0  0.00000000000E+00 -0.00000000000E+00 -0.42139546287E+04  0.42139546287E+04  0.25500000000E-02 0.  1.
    5000001    1    1    2    0    0  0.34505642903E+03  0.11434796492E+03 -0.25129620927E+04  0.25422916583E+04  0.12700000000E+03 0.  0.
   -5000001    1    1    2    0    0 -0.34505642903E+03 -0.11434796492E+03 -0.16643467955E+04  0.17083087109E+04  0.12700000000E+03 0.  0.
<mgrwt>
<rscale>  0 0.78593508E+03</rscale>
<asrwt>0</asrwt>
<pdfrwt beam="1">  1        2 0.60199321E+00 0.78593508E+03</pdfrwt>
<pdfrwt beam="2">  1       -2 0.52351085E-02 0.78593508E+03</pdfrwt>
<totfact> 0.84228758E+01</totfact>
</mgrwt>
</event>
<event>
 4    1  0.2679255E-004  0.5946975E+03  0.7818608E-02  0.9916469E-01
          2   -1    0    0  501    0  0.00000000000E+00  0.00000000000E+00  0.18674680308E+04  0.18674680308E+04  0.25500000000E-02 0.  1.
         -2   -1    0    0    0  501 -0.00000000000E+00 -0.00000000000E+00 -0.47345535710E+02  0.47345535779E+02  0.25500000000E-02 0. -1.
    5000001    1    1    2    0    0 -0.18716513256E+03 -0.19155478721E+03  0.98647673746E+03  0.10300433859E+04  0.12700000000E+03 0.  0.
   -5000001    1    1    2    0    0  0.18716513256E+03  0.19155478721E+03  0.83364575759E+03  0.88477018061E+03  0.12700000000E+03 0.  0.
<mgrwt>
<rscale>  0 0.59469748E+03</rscale>
<asrwt>0</asrwt>
<pdfrwt beam="1">  1        2 0.26678111E+00 0.59469748E+03</pdfrwt>
<pdfrwt beam="2">  1       -2 0.67636488E-02 0.59469748E+03</pdfrwt>
<totfact> 0.12360499E+03</totfact>
</mgrwt>
</event>
<event>
 4    1  0.2679255E-004  0.5325220E+03  0.7818608E-02  0.1005622E+00
          2   -1    0    0  501    0  0.00000000000E+00  0.00000000000E+00  0.73312284804E+03  0.73312284805E+03  0.25500000000E-02 0.  1.
         -2   -1    0    0    0  501 -0.00000000000E+00 -0.00000000000E+00 -0.96702652684E+02  0.96702652718E+02  0.25500000000E-02 0. -1.
    5000001    1    1    2    0    0  0.22620621560E+03 -0.50554418236E+01  0.41133184352E+03  0.48633084928E+03  0.12700000000E+03 0.  0.
   -5000001    1    1    2    0    0 -0.22620621560E+03  0.50554418236E+01  0.22508835184E+03  0.34349465149E+03  0.12700000000E+03 0.  0.
<mgrwt>
<rscale>  0 0.53252202E+03</rscale>
<asrwt>0</asrwt>
<pdfrwt beam="1">  1        2 0.10473184E+00 0.53252202E+03</pdfrwt>
<pdfrwt beam="2">  1       -2 0.13814664E-01 0.53252202E+03</pdfrwt>
<totfact> 0.17092115E+03</totfact>
</mgrwt>
</event>
<event>
 4    1  0.2679255E-004  0.4676091E+03  0.7818608E-02  0.1022597E+00
         -2   -1    0    0    0  501 -0.00000000000E+00  0.00000000000E+00  0.23797538979E+03  0.23797538980E+03  0.25500000000E-02 0. -1.
          2   -1    0    0  501    0  0.00000000000E+00 -0.00000000000E+00 -0.22970683651E+03  0.22970683652E+03  0.25500000000E-02 0.  1.
    5000001    1    1    2    0    0 -0.15923266859E+03 -0.86054132994E+02  0.80141007767E+02  0.23518490104E+03  0.12700000000E+03 0.  0.
   -5000001    1    1    2    0    0  0.15923266859E+03  0.86054132994E+02 -0.71872454488E+02  0.23249732529E+03  0.12700000000E+03 0.  0.
<mgrwt>
<rscale>  0 0.46760913E+03</rscale>
<asrwt>0</asrwt>
<pdfrwt beam="1">  1        2 0.32815262E-01 0.46760913E+03</pdfrwt>
<pdfrwt beam="2">  1       -2 0.33996484E-01 0.46760913E+03</pdfrwt>
<totfact> 0.12989940E+03</totfact>
</mgrwt>
</event>
<event>
 4    1  0.2679255E-004  0.8270898E+03  0.7818608E-02  0.9521613E-01
          2   -1    0    0  501    0  0.00000000000E+00  0.00000000000E+00  0.29758618204E+04  0.29758618204E+04  0.25500000000E-02 0.  1.
         -2   -1    0    0    0  501 -0.00000000000E+00 -0.00000000000E+00 -0.57468860212E+02  0.57468860269E+02  0.25500000000E-02 0. -1.
    5000001    1    1    2    0    0 -0.35912137174E+03 -0.13681174315E+03  0.11478977987E+04  0.12171622607E+04  0.12700000000E+03 0.  0.
   -5000001    1    1    2    0    0  0.35912137174E+03  0.13681174315E+03  0.17704951615E+04  0.18161684200E+04  0.12700000000E+03 0.  0.
<mgrwt>
<rscale>  0 0.82708981E+03</rscale>
<asrwt>0</asrwt>
<pdfrwt beam="1">  1        2 0.42512316E+00 0.82708981E+03</pdfrwt>
<pdfrwt beam="2">  1       -2 0.82098364E-02 0.82708981E+03</pdfrwt>
<totfact> 0.23863545E+02</totfact>
</mgrwt>
</event>
<event>
 4    1  0.2679255E-004  0.4310270E+03  0.7818608E-02  0.1033536E+00
         -2   -1    0    0    0  501 -0.00000000000E+00  0.00000000000E+00  0.11610222942E+03  0.11610222944E+03  0.25500000000E-02 0. -1.
          2   -1    0    0  501    0  0.00000000000E+00 -0.00000000000E+00 -0.40004459224E+03  0.40004459225E+03  0.25500000000E-02 0.  1.
    5000001    1    1    2    0    0 -0.14423335331E+03  0.75073382005E+02 -0.67401675209E+02  0.21705128130E+03  0.12700000000E+03 0.  0.
   -5000001    1    1    2    0    0  0.14423335331E+03 -0.75073382005E+02 -0.21654068761E+03  0.29909554039E+03  0.12700000000E+03 0.  0.
<mgrwt>
<rscale>  0 0.43102700E+03</rscale>
<asrwt>0</asrwt>
<pdfrwt beam="1">  1        2 0.57149227E-01 0.43102700E+03</pdfrwt>
<pdfrwt beam="2">  1       -2 0.16586033E-01 0.43102700E+03</pdfrwt>
<totfact> 0.25239920E+03</totfact>
</mgrwt>
</event>
<event>
 4    1  0.2679255E-004  0.4866014E+03  0.7818608E-02  0.1017337E+00
          2   -1    0    0  501    0  0.00000000000E+00  0.00000000000E+00  0.18415855657E+03  0.18415855659E+03  0.25500000000E-02 0.  1.
         -2   -1    0    0    0  501 -0.00000000000E+00 -0.00000000000E+00 -0.32143620050E+03  0.32143620051E+03  0.25500000000E-02 0. -1.
    5000001    1    1    2    0    0  0.11189513825E+03  0.15899973781E+03 -0.14402985104E+03  0.27326733537E+03  0.12700000000E+03 0.  0.
   -5000001    1    1    2    0    0 -0.11189513825E+03 -0.15899973781E+03  0.67522071157E+01  0.23232742173E+03  0.12700000000E+03 0.  0.
<mgrwt>
<rscale>  0 0.48660138E+03</rscale>
<asrwt>0</asrwt>
<pdfrwt beam="1">  1        2 0.26308365E-01 0.48660138E+03</pdfrwt>
<pdfrwt beam="2">  1       -2 0.45919457E-01 0.48660138E+03</pdfrwt>
<totfact> 0.93165361E+02</totfact>
</mgrwt>
</event>
<event>
 4    1  0.2679255E-004  0.4787146E+03  0.7818608E-02  0.1019489E+00
         -2   -1    0    0    0  501 -0.00000000000E+00  0.00000000000E+00  0.17401566983E+03  0.17401566985E+03  0.25500000000E-02 0. -1.
          2   -1    0    0  501    0  0.00000000000E+00 -0.00000000000E+00 -0.32923417639E+03  0.32923417640E+03  0.25500000000E-02 0.  1.
    5000001    1    1    2    0    0 -0.12307961552E+03  0.12392744792E+03 -0.18612937530E+03  0.28509603374E+03  0.12700000000E+03 0.  0.
   -5000001    1    1    2    0    0  0.12307961552E+03 -0.12392744792E+03  0.30910868739E+02  0.21815381251E+03  0.12700000000E+03 0.  0.
<mgrwt>
<rscale>  0 0.47871455E+03</rscale>
<asrwt>0</asrwt>
<pdfrwt beam="1">  1        2 0.47033454E-01 0.47871455E+03</pdfrwt>
<pdfrwt beam="2">  1       -2 0.24859381E-01 0.47871455E+03</pdfrwt>
<totfact> 0.15502534E+03</totfact>
</mgrwt>
</event>
<event>
 4    1  0.2679255E-004  0.4994352E+03  0.7818608E-02  0.1013926E+00
          2   -1    0    0  501    0  0.00000000000E+00  0.00000000000E+00  0.29792924238E+04  0.29792924238E+04  0.25500000000E-02 0.  1.
         -2   -1    0    0    0  501 -0.00000000000E+00 -0.00000000000E+00 -0.20930770697E+02  0.20930770853E+02  0.25500000000E-02 0. -1.
    5000001    1    1    2    0    0  0.93852464687E+01  0.15501389802E+03  0.23724724657E+04  0.23809393087E+04  0.12700000000E+03 0.  0.
   -5000001    1    1    2    0    0 -0.93852464687E+01 -0.15501389802E+03  0.58588918745E+03  0.61928388596E+03  0.12700000000E+03 0.  0.
<mgrwt>
<rscale>  0 0.49943523E+03</rscale>
<asrwt>0</asrwt>
<pdfrwt beam="1">  1        2 0.42561326E+00 0.49943523E+03</pdfrwt>
<pdfrwt beam="2">  1       -2 0.29901097E-02 0.49943523E+03</pdfrwt>
<totfact> 0.11790054E+03</totfact>
</mgrwt>
</event>
<event>
 4    1  0.2679255E-004  0.5940941E+03  0.7818608E-02  0.9917735E-01
         -2   -1    0    0    0  501 -0.00000000000E+00  0.00000000000E+00  0.32930070486E+02  0.32930070585E+02  0.25500000000E-02 0. -1.
          2   -1    0    0  501    0  0.00000000000E+00 -0.00000000000E+00 -0.26795252410E+04  0.26795252410E+04  0.25500000000E-02 0.  1.
    5000001    1    1    2    0    0 -0.14773781052E+03 -0.17659480540E+03 -0.69237522644E+03  0.74062449335E+03  0.12700000000E+03 0.  0.
   -5000001    1    1    2    0    0  0.14773781052E+03  0.17659480540E+03 -0.19542199441E+04  0.19718308182E+04  0.12700000000E+03 0.  0.
<mgrwt>
<rscale>  0 0.59409412E+03</rscale>
<asrwt>0</asrwt>
<pdfrwt beam="1">  1        2 0.38278918E+00 0.59409412E+03</pdfrwt>
<pdfrwt beam="2">  1       -2 0.47042975E-02 0.59409412E+03</pdfrwt>
<totfact> 0.84316917E+02</totfact>
</mgrwt>
</event>
<event>
 4    1  0.2679255E-004  0.8922316E+03  0.7818608E-02  0.9435345E-01
         -2   -1    0    0    0  501 -0.00000000000E+00  0.00000000000E+00  0.39957701283E+03  0.39957701284E+03  0.25500000000E-02 0. -1.
          2   -1    0    0  501    0  0.00000000000E+00 -0.00000000000E+00 -0.49807501805E+03  0.49807501806E+03  0.25500000000E-02 0.  1.
    5000001    1    1    2    0    0 -0.41360298679E+03  0.10850144552E+03 -0.56386715105E+02  0.44960922589E+03  0.12700000000E+03 0.  0.
   -5000001    1    1    2    0    0  0.41360298679E+03 -0.10850144552E+03 -0.42111290116E+02  0.44804280501E+03  0.12700000000E+03 0.  0.
<mgrwt>
<rscale>  0 0.89223165E+03</rscale>
<asrwt>0</asrwt>
<pdfrwt beam="1">  1        2 0.71153574E-01 0.89223165E+03</pdfrwt>
<pdfrwt beam="2">  1       -2 0.57082431E-01 0.89223165E+03</pdfrwt>
<totfact> 0.19472798E+02</totfact>
</mgrwt>
</event>
<event>
 4    1  0.2679255E-004  0.2826073E+03  0.7818608E-02  0.1094273E+00
         -2   -1    0    0    0  501 -0.00000000000E+00  0.00000000000E+00  0.15742694544E+02  0.15742694750E+02  0.25500000000E-02 0. -1.
          2   -1    0    0  501    0  0.00000000000E+00 -0.00000000000E+00 -0.12683163536E+04  0.12683163536E+04  0.25500000000E-02 0.  1.
    5000001    1    1    2    0    0  0.12387188571E+01  0.61534793751E+02 -0.65830298618E+03  0.67326063815E+03  0.12700000000E+03 0.  0.
   -5000001    1    1    2    0    0 -0.12387188571E+01 -0.61534793751E+02 -0.59427067283E+03  0.61079841016E+03  0.12700000000E+03 0.  0.
<mgrwt>
<rscale>  0 0.28260727E+03</rscale>
<asrwt>0</asrwt>
<pdfrwt beam="1">  1        2 0.18118799E+00 0.28260727E+03</pdfrwt>
<pdfrwt beam="2">  1       -2 0.22489572E-02 0.28260727E+03</pdfrwt>
<totfact> 0.13375936E+04</totfact>
</mgrwt>
</event>
<event>
 4    1  0.2679255E-004  0.3144050E+03  0.7818608E-02  0.1078253E+00
         -2   -1    0    0    0  501 -0.00000000000E+00  0.00000000000E+00  0.10080685927E+02  0.10080686250E+02  0.25500000000E-02 0. -1.
          2   -1    0    0  501    0  0.00000000000E+00 -0.00000000000E+00 -0.24514832698E+04  0.24514832699E+04  0.25500000000E-02 0.  1.
    5000001    1    1    2    0    0 -0.82347328207E+02 -0.13456885406E+02 -0.90543673635E+03  0.91809958815E+03  0.12700000000E+03 0.  0.
   -5000001    1    1    2    0    0  0.82347328207E+02  0.13456885406E+02 -0.15359658476E+04  0.15434643680E+04  0.12700000000E+03 0.  0.
<mgrwt>
<rscale>  0 0.31440505E+03</rscale>
<asrwt>0</asrwt>
<pdfrwt beam="1">  1        2 0.35021152E+00 0.31440505E+03</pdfrwt>
<pdfrwt beam="2">  1       -2 0.14400996E-02 0.31440505E+03</pdfrwt>
<totfact> 0.66405516E+03</totfact>
</mgrwt>
</event>
<event>
 4    1  0.2679255E-004  0.6486531E+03  0.7818608E-02  0.9809310E-01
          2   -1    0    0  501    0  0.00000000000E+00  0.00000000000E+00  0.61303185063E+03  0.61303185064E+03  0.25500000000E-02 0.  1.
         -2   -1    0    0    0  501 -0.00000000000E+00 -0.00000000000E+00 -0.17158605196E+03  0.17158605198E+03  0.25500000000E-02 0. -1.
    5000001    1    1    2    0    0  0.24226017784E+03  0.16731866917E+03  0.16179629329E+03  0.35915535822E+03  0.12700000000E+03 0.  0.
   -5000001    1    1    2    0    0 -0.24226017784E+03 -0.16731866917E+03  0.27964950539E+03  0.42546254439E+03  0.12700000000E+03 0.  0.
<mgrwt>
<rscale>  0 0.64865311E+03</rscale>
<asrwt>0</asrwt>
<pdfrwt beam="1">  1        2 0.87575981E-01 0.64865311E+03</pdfrwt>
<pdfrwt beam="2">  1       -2 0.24512293E-01 0.64865311E+03</pdfrwt>
<totfact> 0.78813366E+02</totfact>
</mgrwt>
</event>
<event>
 4    1  0.2679255E-004  0.3181328E+03  0.7818608E-02  0.1076512E+00
         -2   -1    0    0    0  501 -0.00000000000E+00  0.00000000000E+00  0.82955359392E+02  0.82955359431E+02  0.25500000000E-02 0. -1.
          2   -1    0    0  501    0  0.00000000000E+00 -0.00000000000E+00 -0.30500877672E+03  0.30500877673E+03  0.25500000000E-02 0.  1.
    5000001    1    1    2    0    0  0.51363494438E+01  0.61564480089E+02 -0.20028027688E+03  0.24506684109E+03  0.12700000000E+03 0.  0.
   -5000001    1    1    2    0    0 -0.51363494438E+01 -0.61564480089E+02 -0.21773140447E+02  0.14289729507E+03  0.12700000000E+03 0.  0.
<mgrwt>
<rscale>  0 0.31813276E+03</rscale>
<asrwt>0</asrwt>
<pdfrwt beam="1">  1        2 0.43572682E-01 0.31813276E+03</pdfrwt>
<pdfrwt beam="2">  1       -2 0.11850766E-01 0.31813276E+03</pdfrwt>
<totfact> 0.58721094E+03</totfact>
</mgrwt>
</event>
<event>
 4    1  0.2679255E-004  0.3626848E+03  0.7818608E-02  0.1057526E+00
         -2   -1    0    0    0  501 -0.00000000000E+00  0.00000000000E+00  0.11069420503E+03  0.11069420506E+03  0.25500000000E-02 0. -1.
          2   -1    0    0  501    0  0.00000000000E+00 -0.00000000000E+00 -0.29708033475E+03  0.29708033476E+03  0.25500000000E-02 0.  1.
    5000001    1    1    2    0    0  0.95818370369E+02 -0.58615536699E+02 -0.16552752790E+03  0.23695000260E+03  0.12700000000E+03 0.  0.
   -5000001    1    1    2    0    0 -0.95818370369E+02  0.58615536699E+02 -0.20858601823E+02  0.17082453721E+03  0.12700000000E+03 0.  0.
<mgrwt>
<rscale>  0 0.36268483E+03</rscale>
<asrwt>0</asrwt>
<pdfrwt beam="1">  1        2 0.42440048E-01 0.36268483E+03</pdfrwt>
<pdfrwt beam="2">  1       -2 0.15813458E-01 0.36268483E+03</pdfrwt>
<totfact> 0.37723857E+03</totfact>
</mgrwt>
</event>
<event>
 4    1  0.2679255E-004  0.2981535E+03  0.7818608E-02  0.1086167E+00
          2   -1    0    0  501    0  0.00000000000E+00  0.00000000000E+00  0.35004916944E+03  0.35004916945E+03  0.25500000000E-02 0.  1.
         -2   -1    0    0    0  501 -0.00000000000E+00 -0.00000000000E+00 -0.63487876289E+02  0.63487876340E+02  0.25500000000E-02 0. -1.
    5000001    1    1    2    0    0  0.38793520604E+02 -0.45910622672E+02  0.21238239304E+03  0.25465271133E+03  0.12700000000E+03 0.  0.
   -5000001    1    1    2    0    0 -0.38793520604E+02  0.45910622672E+02  0.74178900115E+02  0.15888433446E+03  0.12700000000E+03 0.  0.
<mgrwt>
<rscale>  0 0.29815351E+03</rscale>
<asrwt>0</asrwt>
<pdfrwt beam="1">  1        2 0.50007023E-01 0.29815351E+03</pdfrwt>
<pdfrwt beam="2">  1       -2 0.90696969E-02 0.29815351E+03</pdfrwt>
<totfact> 0.77441493E+03</totfact>
</mgrwt>
</event>
<event>
 4    1  0.2679255E-004  0.1100914E+04  0.7818608E-02  0.9204301E-01
          2   -1    0    0  501    0  0.00000000000E+00  0.00000000000E+00  0.80517804036E+03  0.80517804036E+03  0.25500000000E-02 0.  1.
         -2   -1    0    0    0  501 -0.00000000000E+00 -0.00000000000E+00 -0.37631797193E+03  0.37631797194E+03  0.25500000000E-02 0. -1.
    5000001    1    1    2    0    0  0.13718567644E+03  0.51500017764E+03  0.15734981177E+03  0.57002899580E+03  0.12700000000E+03 0.  0.
   -5000001    1    1    2    0    0 -0.13718567644E+03 -0.51500017764E+03  0.27151025666E+03  0.61146701650E+03  0.12700000000E+03 0.  0.
<mgrwt>
<rscale>  0 0.11009141E+04</rscale>
<asrwt>0</asrwt>
<pdfrwt beam="1">  1        2 0.11502543E+00 0.11009141E+04</pdfrwt>
<pdfrwt beam="2">  1       -2 0.53759710E-01 0.11009141E+04</pdfrwt>
<totfact> 0.12201494E+02</totfact>
</mgrwt>
</event>
<event>
 4    1  0.2679255E-004  0.3920000E+03  0.7818608E-02  0.1046586E+00
         -2   -1    0    0    0  501 -0.00000000000E+00  0.00000000000E+00  0.78609469091E+02  0.78609469132E+02  0.25500000000E-02 0. -1.
          2   -1    0    0  501    0  0.00000000000E+00 -0.00000000000E+00 -0.48869423395E+03  0.48869423396E+03  0.25500000000E-02 0.  1.
    5000001    1    1    2    0    0  0.65698166661E+02 -0.13359931127E+03 -0.22102525006E+03  0.29520532895E+03  0.12700000000E+03 0.  0.
   -5000001    1    1    2    0    0 -0.65698166661E+02  0.13359931127E+03 -0.18905951479E+03  0.27209837414E+03  0.12700000000E+03 0.  0.
<mgrwt>
<rscale>  0 0.39199997E+03</rscale>
<asrwt>0</asrwt>
<pdfrwt beam="1">  1        2 0.69813460E-01 0.39199997E+03</pdfrwt>
<pdfrwt beam="2">  1       -2 0.11229924E-01 0.39199997E+03</pdfrwt>
<totfact> 0.38474152E+03</totfact>
</mgrwt>
</event>
<event>
 4    1  0.2679255E-004  0.3509589E+03  0.7818608E-02  0.1062222E+00
          2   -1    0    0  501    0  0.00000000000E+00  0.00000000000E+00  0.31075734907E+04  0.31075734907E+04  0.25500000000E-02 0.  1.
         -2   -1    0    0    0  501 -0.00000000000E+00 -0.00000000000E+00 -0.99090294702E+01  0.99090297983E+01  0.25500000000E-02 0. -1.
    5000001    1    1    2    0    0  0.57927021367E+02 -0.10516841168E+03  0.14089173388E+04  0.14197158175E+04  0.12700000000E+03 0.  0.
   -5000001    1    1    2    0    0 -0.57927021367E+02  0.10516841168E+03  0.16887471224E+04  0.16977667030E+04  0.12700000000E+03 0.  0.
<mgrwt>
<rscale>  0 0.35095890E+03</rscale>
<asrwt>0</asrwt>
<pdfrwt beam="1">  1        2 0.44393925E+00 0.35095890E+03</pdfrwt>
<pdfrwt beam="2">  1       -2 0.14155751E-02 0.35095890E+03</pdfrwt>
<totfact> 0.31038912E+03</totfact>
</mgrwt>
</event>
<event>
 4    1  0.2679255E-004  0.2776320E+03  0.7818608E-02  0.1096989E+00
         -2   -1    0    0    0  501 -0.00000000000E+00  0.00000000000E+00  0.18123404290E+02  0.18123404469E+02  0.25500000000E-02 0. -1.
          2   -1    0    0  501    0  0.00000000000E+00 -0.00000000000E+00 -0.10632595162E+04  0.10632595162E+04  0.25500000000E-02 0.  1.
    5000001    1    1    2    0    0  0.92065092478E+01 -0.42936293528E+02 -0.65820195194E+03  0.67177905196E+03  0.12700000000E+03 0.  0.
   -5000001    1    1    2    0    0 -0.92065092478E+01  0.42936293528E+02 -0.38693416001E+03  0.40960386875E+03  0.12700000000E+03 0.  0.
<mgrwt>
<rscale>  0 0.27763200E+03</rscale>
<asrwt>0</asrwt>
<pdfrwt beam="1">  1        2 0.15189418E+00 0.27763200E+03</pdfrwt>
<pdfrwt beam="2">  1       -2 0.25890584E-02 0.27763200E+03</pdfrwt>
<totfact> 0.14076100E+04</totfact>
</mgrwt>
</event>
<event>
 4    1  0.2679255E-004  0.5948955E+03  0.7818608E-02  0.9916053E-01
          2   -1    0    0  501    0  0.00000000000E+00  0.00000000000E+00  0.16671227097E+03  0.16671227099E+03  0.25500000000E-02 0.  1.
         -2   -1    0    0    0  501 -0.00000000000E+00 -0.00000000000E+00 -0.53070579505E+03  0.53070579506E+03  0.25500000000E-02 0. -1.
    5000001    1    1    2    0    0 -0.18938179665E+03 -0.60982350830E+02 -0.39419254529E+03  0.45945736993E+03  0.12700000000E+03 0.  0.
   -5000001    1    1    2    0    0  0.18938179665E+03  0.60982350830E+02  0.30199021203E+02  0.23796069612E+03  0.12700000000E+03 0.  0.
<mgrwt>
<rscale>  0 0.59489551E+03</rscale>
<asrwt>0</asrwt>
<pdfrwt beam="1">  1        2 0.23816039E-01 0.59489551E+03</pdfrwt>
<pdfrwt beam="2">  1       -2 0.75815113E-01 0.59489551E+03</pdfrwt>
<totfact> 0.36490035E+02</totfact>
</mgrwt>
</event>
<event>
 4    1  0.2679255E-004  0.2971812E+03  0.7818608E-02  0.1086658E+00
         -2   -1    0    0    0  501 -0.00000000000E+00  0.00000000000E+00  0.22748301672E+03  0.22748301674E+03  0.25500000000E-02 0. -1.
          2   -1    0    0  501    0  0.00000000000E+00 -0.00000000000E+00 -0.97058556607E+02  0.97058556640E+02  0.25500000000E-02 0.  1.
    5000001    1    1    2    0    0 -0.59425216068E+02 -0.39411979144E+02  0.33084081439E+02  0.14935935474E+03  0.12700000000E+03 0.  0.
   -5000001    1    1    2    0    0  0.59425216068E+02  0.39411979144E+02  0.97340378678E+02  0.17518221864E+03  0.12700000000E+03 0.  0.
<mgrwt>
<rscale>  0 0.29718125E+03</rscale>
<asrwt>0</asrwt>
<pdfrwt beam="1">  1        2 0.13865508E-01 0.29718125E+03</pdfrwt>
<pdfrwt beam="2">  1       -2 0.32497574E-01 0.29718125E+03</pdfrwt>
<totfact> 0.37735845E+03</totfact>
</mgrwt>
</event>
<event>
 4    1  0.2679255E-004  0.4924973E+03  0.7818608E-02  0.1015756E+00
         -2   -1    0    0    0  501 -0.00000000000E+00  0.00000000000E+00  0.67384123965E+02  0.67384124013E+02  0.25500000000E-02 0. -1.
          2   -1    0    0  501    0  0.00000000000E+00 -0.00000000000E+00 -0.89989141967E+03  0.89989141967E+03  0.25500000000E-02 0.  1.
    5000001    1    1    2    0    0 -0.47645095043E+02 -0.16451501786E+03 -0.65818855391E+03  0.69186445109E+03  0.12700000000E+03 0.  0.
   -5000001    1    1    2    0    0  0.47645095043E+02  0.16451501786E+03 -0.17431874179E+03  0.27541109259E+03  0.12700000000E+03 0.  0.
<mgrwt>
<rscale>  0 0.49249729E+03</rscale>
<asrwt>0</asrwt>
<pdfrwt beam="1">  1        2 0.12855591E+00 0.49249729E+03</pdfrwt>
<pdfrwt beam="2">  1       -2 0.96263039E-02 0.49249729E+03</pdfrwt>
<totfact> 0.23741998E+03</totfact>
</mgrwt>
</event>
<event>
 4    1  0.2679255E-004  0.4115728E+03  0.7818608E-02  0.1039845E+00
         -2   -1    0    0    0  501 -0.00000000000E+00  0.00000000000E+00  0.78201396253E+02  0.78201396295E+02  0.25500000000E-02 0. -1.
          2   -1    0    0  501    0  0.00000000000E+00 -0.00000000000E+00 -0.54152530625E+03  0.54152530626E+03  0.25500000000E-02 0.  1.
    5000001    1    1    2    0    0 -0.97851403476E+02 -0.12150400904E+03 -0.29696568919E+03  0.35868613290E+03  0.12700000000E+03 0.  0.
   -5000001    1    1    2    0    0  0.97851403476E+02  0.12150400904E+03 -0.16635822081E+03  0.26104056965E+03  0.12700000000E+03 0.  0.
<mgrwt>
<rscale>  0 0.41157276E+03</rscale>
<asrwt>0</asrwt>
<pdfrwt beam="1">  1        2 0.77360756E-01 0.41157276E+03</pdfrwt>
<pdfrwt beam="2">  1       -2 0.11171628E-01 0.41157276E+03</pdfrwt>
<totfact> 0.34590452E+03</totfact>
</mgrwt>
</event>
<event>
 4    1  0.2679255E-004  0.3981674E+03  0.7818608E-02  0.1044416E+00
          2   -1    0    0  501    0  0.00000000000E+00  0.00000000000E+00  0.22705836340E+03  0.22705836342E+03  0.25500000000E-02 0.  1.
         -2   -1    0    0    0  501 -0.00000000000E+00 -0.00000000000E+00 -0.17455568067E+03  0.17455568069E+03  0.25500000000E-02 0. -1.
    5000001    1    1    2    0    0  0.45717952406E+02  0.14122319531E+03 -0.12436969084E+02  0.19574933018E+03  0.12700000000E+03 0.  0.
   -5000001    1    1    2    0    0 -0.45717952406E+02 -0.14122319531E+03  0.64939651816E+02  0.20586471393E+03  0.12700000000E+03 0.  0.
<mgrwt>
<rscale>  0 0.39816744E+03</rscale>
<asrwt>0</asrwt>
<pdfrwt beam="1">  1        2 0.32436909E-01 0.39816744E+03</pdfrwt>
<pdfrwt beam="2">  1       -2 0.24936526E-01 0.39816744E+03</pdfrwt>
<totfact> 0.23136077E+03</totfact>
</mgrwt>
</event>
<event>
 4    1  0.2679255E-004  0.3554921E+03  0.7818608E-02  0.1060383E+00
          2   -1    0    0  501    0  0.00000000000E+00  0.00000000000E+00  0.20616668969E+04  0.20616668969E+04  0.25500000000E-02 0.  1.
         -2   -1    0    0    0  501 -0.00000000000E+00 -0.00000000000E+00 -0.15324323292E+02  0.15324323504E+02  0.25500000000E-02 0. -1.
    5000001    1    1    2    0    0  0.21331173636E+02 -0.11802912936E+03  0.12150674797E+04  0.12275601308E+04  0.12700000000E+03 0.  0.
   -5000001    1    1    2    0    0 -0.21331173636E+02  0.11802912936E+03  0.83127509389E+03  0.84943108965E+03  0.12700000000E+03 0.  0.
<mgrwt>
<rscale>  0 0.35549205E+03</rscale>
<asrwt>0</asrwt>
<pdfrwt beam="1">  1        2 0.29452381E+00 0.35549205E+03</pdfrwt>
<pdfrwt beam="2">  1       -2 0.21891893E-02 0.35549205E+03</pdfrwt>
<totfact> 0.55787610E+03</totfact>
</mgrwt>
</event>
<event>
 4    1  0.2679255E-004  0.2997790E+03  0.7818608E-02  0.1085351E+00
         -2   -1    0    0    0  501 -0.00000000000E+00  0.00000000000E+00  0.20081397558E+03  0.20081397559E+03  0.25500000000E-02 0. -1.
          2   -1    0    0  501    0  0.00000000000E+00 -0.00000000000E+00 -0.11187899717E+03  0.11187899720E+03  0.25500000000E-02 0.  1.
    5000001    1    1    2    0    0  0.74463440362E+02 -0.20698961811E+02  0.24550013983E+02  0.15068163178E+03  0.12700000000E+03 0.  0.
   -5000001    1    1    2    0    0 -0.74463440362E+02  0.20698961811E+02  0.64384964423E+02  0.16201134101E+03  0.12700000000E+03 0.  0.
<mgrwt>
<rscale>  0 0.29977903E+03</rscale>
<asrwt>0</asrwt>
<pdfrwt beam="1">  1        2 0.15982714E-01 0.29977903E+03</pdfrwt>
<pdfrwt beam="2">  1       -2 0.28687710E-01 0.29977903E+03</pdfrwt>
<totfact> 0.40020823E+03</totfact>
</mgrwt>
</event>
<event>
 4    1  0.2679255E-004  0.5432703E+03  0.7818608E-02  0.1003064E+00
          2   -1    0    0  501    0  0.00000000000E+00  0.00000000000E+00  0.15625772802E+04  0.15625772802E+04  0.25500000000E-02 0.  1.
         -2   -1    0    0    0  501 -0.00000000000E+00 -0.00000000000E+00 -0.47220488318E+02  0.47220488387E+02  0.25500000000E-02 0. -1.
    5000001    1    1    2    0    0 -0.61704382346E+01  0.23956129061E+03  0.71283997455E+03  0.76269096992E+03  0.12700000000E+03 0.  0.
   -5000001    1    1    2    0    0  0.61704382346E+01 -0.23956129061E+03  0.80251681733E+03  0.84710679868E+03  0.12700000000E+03 0.  0.
<mgrwt>
<rscale>  0 0.54327033E+03</rscale>
<asrwt>0</asrwt>
<pdfrwt beam="1">  1        2 0.22322531E+00 0.54327033E+03</pdfrwt>
<pdfrwt beam="2">  1       -2 0.67457846E-02 0.54327033E+03</pdfrwt>
<totfact> 0.17763226E+03</totfact>
</mgrwt>
</event>
<event>
 4    1  0.2679255E-004  0.3128832E+03  0.7818608E-02  0.1078972E+00
         -2   -1    0    0    0  501 -0.00000000000E+00  0.00000000000E+00  0.25361406570E+02  0.25361406698E+02  0.25500000000E-02 0. -1.
          2   -1    0    0  501    0  0.00000000000E+00 -0.00000000000E+00 -0.96500825965E+03  0.96500825965E+03  0.25500000000E-02 0.  1.
    5000001    1    1    2    0    0 -0.39698627777E+02  0.60449740264E+02 -0.64648059322E+03  0.66279431919E+03  0.12700000000E+03 0.  0.
   -5000001    1    1    2    0    0  0.39698627777E+02 -0.60449740264E+02 -0.29316625986E+03  0.32757534716E+03  0.12700000000E+03 0.  0.
<mgrwt>
<rscale>  0 0.31288315E+03</rscale>
<asrwt>0</asrwt>
<pdfrwt beam="1">  1        2 0.13785830E+00 0.31288315E+03</pdfrwt>
<pdfrwt beam="2">  1       -2 0.36230587E-02 0.31288315E+03</pdfrwt>
<totfact> 0.97754350E+03</totfact>
</mgrwt>
</event>
<event>
 4    1  0.2679255E-004  0.4882338E+03  0.7818608E-02  0.1016897E+00
          2   -1    0    0  501    0  0.00000000000E+00  0.00000000000E+00  0.19016988761E+04  0.19016988761E+04  0.25500000000E-02 0.  1.
         -2   -1    0    0    0  501 -0.00000000000E+00 -0.00000000000E+00 -0.31336753803E+02  0.31336753907E+02  0.25500000000E-02 0. -1.
    5000001    1    1    2    0    0 -0.18612726807E+03  0.93872722937E+02  0.92355574262E+03  0.95526941632E+03  0.12700000000E+03 0.  0.
   -5000001    1    1    2    0    0  0.18612726807E+03 -0.93872722937E+02  0.94680637967E+03  0.97776621368E+03  0.12700000000E+03 0.  0.
<mgrwt>
<rscale>  0 0.48823384E+03</rscale>
<asrwt>0</asrwt>
<pdfrwt beam="1">  1        2 0.27167127E+00 0.48823384E+03</pdfrwt>
<pdfrwt beam="2">  1       -2 0.44766790E-02 0.48823384E+03</pdfrwt>
<totfact> 0.22679471E+03</totfact>
</mgrwt>
</event>
<event>
 4    1  0.2679255E-004  0.3283932E+03  0.7818608E-02  0.1071850E+00
          2   -1    0    0  501    0  0.00000000000E+00  0.00000000000E+00  0.25185145479E+04  0.25185145479E+04  0.25500000000E-02 0.  1.
         -2   -1    0    0    0  501 -0.00000000000E+00 -0.00000000000E+00 -0.10704928853E+02  0.10704929157E+02  0.25500000000E-02 0. -1.
    5000001    1    1    2    0    0  0.59622551435E+02  0.83721796185E+02  0.13798314382E+04  0.13894703975E+04  0.12700000000E+03 0.  0.
   -5000001    1    1    2    0    0 -0.59622551435E+02 -0.83721796185E+02  0.11279781809E+04  0.11397490796E+04  0.12700000000E+03 0.  0.
<mgrwt>
<rscale>  0 0.32839318E+03</rscale>
<asrwt>0</asrwt>
<pdfrwt beam="1">  1        2 0.35978742E+00 0.32839318E+03</pdfrwt>
<pdfrwt beam="2">  1       -2 0.15292772E-02 0.32839318E+03</pdfrwt>
<totfact> 0.56256493E+03</totfact>
</mgrwt>
</event>
<event>
 4    1  0.2679255E-004  0.4210280E+03  0.7818608E-02  0.1036732E+00
         -2   -1    0    0    0  501 -0.00000000000E+00  0.00000000000E+00  0.15039359352E+03  0.15039359354E+03  0.25500000000E-02 0. -1.
          2   -1    0    0  501    0  0.00000000000E+00 -0.00000000000E+00 -0.29466771592E+03  0.29466771593E+03  0.25500000000E-02 0.  1.
    5000001    1    1    2    0    0 -0.68581415837E+02 -0.12577860871E+03  0.20401248931E+02  0.19253280231E+03  0.12700000000E+03 0.  0.
   -5000001    1    1    2    0    0  0.68581415837E+02  0.12577860871E+03 -0.16467537133E+03  0.25252850717E+03  0.12700000000E+03 0.  0.
<mgrwt>
<rscale>  0 0.42102796E+03</rscale>
<asrwt>0</asrwt>
<pdfrwt beam="1">  1        2 0.42095388E-01 0.42102796E+03</pdfrwt>
<pdfrwt beam="2">  1       -2 0.21484799E-01 0.42102796E+03</pdfrwt>
<totfact> 0.22614030E+03</totfact>
</mgrwt>
</event>
<event>
 4    1  0.2679255E-004  0.7910949E+03  0.7818608E-02  0.9572997E-01
         -2   -1    0    0    0  501 -0.00000000000E+00  0.00000000000E+00  0.44395756731E+03  0.44395756732E+03  0.25500000000E-02 0. -1.
          2   -1    0    0  501    0  0.00000000000E+00 -0.00000000000E+00 -0.35241606964E+03  0.35241606965E+03  0.25500000000E-02 0.  1.
    5000001    1    1    2    0    0  0.19152761166E+03  0.21970905575E+03  0.28265751329E+03  0.42541646069E+03  0.12700000000E+03 0.  0.
   -5000001    1    1    2    0    0 -0.19152761166E+03 -0.21970905575E+03 -0.19111601562E+03  0.37095717628E+03  0.12700000000E+03 0.  0.
<mgrwt>
<rscale>  0 0.79109489E+03</rscale>
<asrwt>0</asrwt>
<pdfrwt beam="1">  1        2 0.50345153E-01 0.79109489E+03</pdfrwt>
<pdfrwt beam="2">  1       -2 0.63422510E-01 0.79109489E+03</pdfrwt>
<totfact> 0.23104727E+02</totfact>
</mgrwt>
</event>
<event>
 4    1  0.2679255E-004  0.3911663E+03  0.7818608E-02  0.1046882E+00
         -2   -1    0    0    0  501 -0.00000000000E+00  0.00000000000E+00  0.14091459398E+03  0.14091459400E+03  0.25500000000E-02 0. -1.
          2   -1    0    0  501    0  0.00000000000E+00 -0.00000000000E+00 -0.27146069675E+03  0.27146069676E+03  0.25500000000E-02 0.  1.
    5000001    1    1    2    0    0  0.84526442186E+02 -0.58285241240E+02 -0.17872730904E+03  0.24210398545E+03  0.12700000000E+03 0.  0.
   -5000001    1    1    2    0    0 -0.84526442186E+02  0.58285241240E+02  0.48181206273E+02  0.17027130531E+03  0.12700000000E+03 0.  0.
<mgrwt>
<rscale>  0 0.39116633E+03</rscale>
<asrwt>0</asrwt>
<pdfrwt beam="1">  1        2 0.38780099E-01 0.39116633E+03</pdfrwt>
<pdfrwt beam="2">  1       -2 0.20130656E-01 0.39116633E+03</pdfrwt>
<totfact> 0.27660122E+03</totfact>
</mgrwt>
</event>
<event>
 4    1  0.2679255E-004  0.2631940E+03  0.7818608E-02  0.1105239E+00
          2   -1    0    0  501    0  0.00000000000E+00  0.00000000000E+00  0.39354596243E+04  0.39354596243E+04  0.25500000000E-02 0. -1.
         -2   -1    0    0    0  501 -0.00000000000E+00 -0.00000000000E+00 -0.44004448647E+01  0.44004456035E+01  0.25500000000E-02 0.  1.
    5000001    1    1    2    0    0  0.77122023001E+01  0.23754616071E+02  0.23213530964E+04  0.23249587002E+04  0.12700000000E+03 0.  0.
   -5000001    1    1    2    0    0 -0.77122023001E+01 -0.23754616071E+02  0.16097060831E+04  0.16149013697E+04  0.12700000000E+03 0.  0.
<mgrwt>
<rscale>  0 0.26319403E+03</rscale>
<asrwt>0</asrwt>
<pdfrwt beam="1">  1        2 0.56221178E+00 0.26319403E+03</pdfrwt>
<pdfrwt beam="2">  1       -2 0.62863139E-03 0.26319403E+03</pdfrwt>
<totfact> 0.33360942E+03</totfact>
</mgrwt>
</event>
<event>
 4    1  0.2679255E-004  0.2844615E+03  0.7818608E-02  0.1093277E+00
         -2   -1    0    0    0  501 -0.00000000000E+00  0.00000000000E+00  0.24179456476E+02  0.24179456610E+02  0.25500000000E-02 0. -1.
          2   -1    0    0  501    0  0.00000000000E+00 -0.00000000000E+00 -0.83664333012E+03  0.83664333013E+03  0.25500000000E-02 0.  1.
    5000001    1    1    2    0    0  0.46767467389E+01  0.56719878144E+02 -0.31740714160E+03  0.34657655731E+03  0.12700000000E+03 0.  0.
   -5000001    1    1    2    0    0 -0.46767467389E+01 -0.56719878144E+02 -0.49505673205E+03  0.51424622943E+03  0.12700000000E+03 0.  0.
<mgrwt>
<rscale>  0 0.28446146E+03</rscale>
<asrwt>0</asrwt>
<pdfrwt beam="1">  1        2 0.11952046E+00 0.28446146E+03</pdfrwt>
<pdfrwt beam="2">  1       -2 0.34542086E-02 0.28446146E+03</pdfrwt>
<totfact> 0.12603449E+04</totfact>
</mgrwt>
</event>
<event>
 4    1  0.2679255E-004  0.4817006E+03  0.7818608E-02  0.1018669E+00
          2   -1    0    0  501    0  0.00000000000E+00  0.00000000000E+00  0.24958722654E+03  0.24958722656E+03  0.25500000000E-02 0.  1.
         -2   -1    0    0    0  501 -0.00000000000E+00 -0.00000000000E+00 -0.23241922582E+03  0.23241922584E+03  0.25500000000E-02 0. -1.
    5000001    1    1    2    0    0 -0.14208258054E+03 -0.51170774732E+02  0.14678020351E+03  0.24592546843E+03  0.12700000000E+03 0.  0.
   -5000001    1    1    2    0    0  0.14208258054E+03  0.51170774732E+02 -0.12961220278E+03  0.23608098397E+03  0.12700000000E+03 0.  0.
<mgrwt>
<rscale>  0 0.48170061E+03</rscale>
<asrwt>0</asrwt>
<pdfrwt beam="1">  1        2 0.35655318E-01 0.48170061E+03</pdfrwt>
<pdfrwt beam="2">  1       -2 0.33202747E-01 0.48170061E+03</pdfrwt>
<totfact> 0.12387862E+03</totfact>
</mgrwt>
</event>
<event>
 4    1  0.2679255E-004  0.3756088E+03  0.7818608E-02  0.1052569E+00
         -2   -1    0    0    0  501 -0.00000000000E+00  0.00000000000E+00  0.17640700174E+03  0.17640700176E+03  0.25500000000E-02 0. -1.
          2   -1    0    0  501    0  0.00000000000E+00 -0.00000000000E+00 -0.19993815442E+03  0.19993815443E+03  0.25500000000E-02 0.  1.
    5000001    1    1    2    0    0  0.29817396126E+02  0.11760946033E+03  0.54851067847E+02  0.18400734201E+03  0.12700000000E+03 0.  0.
   -5000001    1    1    2    0    0 -0.29817396126E+02 -0.11760946033E+03 -0.78382220520E+02  0.19233781418E+03  0.12700000000E+03 0.  0.
<mgrwt>
<rscale>  0 0.37560879E+03</rscale>
<asrwt>0</asrwt>
<pdfrwt beam="1">  1        2 0.28562593E-01 0.37560879E+03</pdfrwt>
<pdfrwt beam="2">  1       -2 0.25201000E-01 0.37560879E+03</pdfrwt>
<totfact> 0.26117757E+03</totfact>
</mgrwt>
</event>
<event>
 4    1  0.2679255E-004  0.6423048E+03  0.7818608E-02  0.9821327E-01
          2   -1    0    0  501    0  0.00000000000E+00  0.00000000000E+00  0.71301976685E+03  0.71301976686E+03  0.25500000000E-02 0.  1.
         -2   -1    0    0    0  501 -0.00000000000E+00 -0.00000000000E+00 -0.14465077785E+03  0.14465077787E+03  0.25500000000E-02 0. -1.
    5000001    1    1    2    0    0 -0.11961961921E+03  0.23099672072E+03  0.46988996257E+03  0.55190027650E+03  0.12700000000E+03 0.  0.
   -5000001    1    1    2    0    0  0.11961961921E+03 -0.23099672072E+03  0.98479026435E+02  0.30577026822E+03  0.12700000000E+03 0.  0.
<mgrwt>
<rscale>  0 0.64230480E+03</rscale>
<asrwt>0</asrwt>
<pdfrwt beam="1">  1        2 0.10185997E+00 0.64230480E+03</pdfrwt>
<pdfrwt beam="2">  1       -2 0.20664397E-01 0.64230480E+03</pdfrwt>
<totfact> 0.88875819E+02</totfact>
</mgrwt>
</event>
<event>
 4    1  0.2679255E-004  0.6689147E+03  0.7818608E-02  0.9771920E-01
         -2   -1    0    0    0  501 -0.00000000000E+00  0.00000000000E+00  0.14889857363E+03  0.14889857366E+03  0.25500000000E-02 0. -1.
          2   -1    0    0  501    0  0.00000000000E+00 -0.00000000000E+00 -0.75126122305E+03  0.75126122306E+03  0.25500000000E-02 0.  1.
    5000001    1    1    2    0    0 -0.12274373728E+02 -0.30864401037E+03 -0.32528927120E+03  0.46621228571E+03  0.12700000000E+03 0.  0.
   -5000001    1    1    2    0    0  0.12274373728E+02  0.30864401037E+03 -0.27707337822E+03  0.43394751100E+03  0.12700000000E+03 0.  0.
<mgrwt>
<rscale>  0 0.66891472E+03</rscale>
<asrwt>0</asrwt>
<pdfrwt beam="1">  1        2 0.10732303E+00 0.66891472E+03</pdfrwt>
<pdfrwt beam="2">  1       -2 0.21271225E-01 0.66891472E+03</pdfrwt>
<totfact> 0.79110130E+02</totfact>
</mgrwt>
</event>
<event>
 4    1  0.2679255E-004  0.3963822E+03  0.7818608E-02  0.1045040E+00
         -2   -1    0    0    0  501 -0.00000000000E+00  0.00000000000E+00  0.10847720829E+02  0.10847721129E+02  0.25500000000E-02 0. -1.
          2   -1    0    0  501    0  0.00000000000E+00 -0.00000000000E+00 -0.36210110369E+04  0.36210110369E+04  0.25500000000E-02 0.  1.
    5000001    1    1    2    0    0  0.55882699649E+02 -0.13021999634E+03 -0.12973596794E+04  0.13112403522E+04  0.12700000000E+03 0.  0.
   -5000001    1    1    2    0    0 -0.55882699649E+02  0.13021999634E+03 -0.23128036367E+04  0.23206184058E+04  0.12700000000E+03 0.  0.
<mgrwt>
<rscale>  0 0.39638223E+03</rscale>
<asrwt>0</asrwt>
<pdfrwt beam="1">  1        2 0.51728652E+00 0.39638223E+03</pdfrwt>
<pdfrwt beam="2">  1       -2 0.15496767E-02 0.39638223E+03</pdfrwt>
<totfact> 0.13766013E+03</totfact>
</mgrwt>
</event>
<event>
 4    1  0.2679255E-004  0.7173848E+03  0.7818608E-02  0.9687955E-01
          2   -1    0    0  501    0  0.00000000000E+00  0.00000000000E+00  0.55016393889E+03  0.55016393890E+03  0.25500000000E-02 0.  1.
         -2   -1    0    0    0  501 -0.00000000000E+00 -0.00000000000E+00 -0.23385801462E+03  0.23385801464E+03  0.25500000000E-02 0. -1.
    5000001    1    1    2    0    0 -0.10392230482E+03  0.29106680587E+03  0.30069650266E+03  0.44951876227E+03  0.12700000000E+03 0.  0.
   -5000001    1    1    2    0    0  0.10392230482E+03 -0.29106680587E+03  0.15609421604E+02  0.33450319126E+03  0.12700000000E+03 0.  0.
<mgrwt>
<rscale>  0 0.71738482E+03</rscale>
<asrwt>0</asrwt>
<pdfrwt beam="1">  1        2 0.78594848E-01 0.71738482E+03</pdfrwt>
<pdfrwt beam="2">  1       -2 0.33408288E-01 0.71738482E+03</pdfrwt>
<totfact> 0.50565918E+02</totfact>
</mgrwt>
</event>
<event>
 4    1  0.2679255E-004  0.3435769E+03  0.7818608E-02  0.1065283E+00
         -2   -1    0    0    0  501 -0.00000000000E+00  0.00000000000E+00  0.18048729413E+02  0.18048729593E+02  0.25500000000E-02 0. -1.
          2   -1    0    0  501    0  0.00000000000E+00 -0.00000000000E+00 -0.16350888421E+04  0.16350888421E+04  0.25500000000E-02 0.  1.
    5000001    1    1    2    0    0  0.10305449767E+03  0.29990037536E+02 -0.60086142886E+03  0.62344453525E+03  0.12700000000E+03 0.  0.
   -5000001    1    1    2    0    0 -0.10305449767E+03 -0.29990037536E+02 -0.10161786838E+04  0.10296930364E+04  0.12700000000E+03 0.  0.
<mgrwt>
<rscale>  0 0.34357693E+03</rscale>
<asrwt>0</asrwt>
<pdfrwt beam="1">  1        2 0.23358403E+00 0.34357693E+03</pdfrwt>
<pdfrwt beam="2">  1       -2 0.25783910E-02 0.34357693E+03</pdfrwt>
<totfact> 0.71067688E+03</totfact>
</mgrwt>
</event>
<event>
 4    1  0.2679255E-004  0.2844259E+03  0.7818608E-02  0.1093296E+00
          2   -1    0    0  501    0  0.00000000000E+00  0.00000000000E+00  0.21058367835E+03  0.21058367836E+03  0.25500000000E-02 0.  1.
         -2   -1    0    0    0  501 -0.00000000000E+00 -0.00000000000E+00 -0.96040299286E+02  0.96040299320E+02  0.25500000000E-02 0. -1.
    5000001    1    1    2    0    0  0.31934335667E+02 -0.55415333552E+02  0.54895458193E+02  0.15242431669E+03  0.12700000000E+03 0.  0.
   -5000001    1    1    2    0    0 -0.31934335667E+02  0.55415333552E+02  0.59647920868E+02  0.15419966100E+03  0.12700000000E+03 0.  0.
<mgrwt>
<rscale>  0 0.28442587E+03</rscale>
<asrwt>0</asrwt>
<pdfrwt beam="1">  1        2 0.30083382E-01 0.28442587E+03</pdfrwt>
<pdfrwt beam="2">  1       -2 0.13720043E-01 0.28442587E+03</pdfrwt>
<totfact> 0.68957155E+03</totfact>
</mgrwt>
</event>
<event>
 4    1  0.2679255E-004  0.3139863E+03  0.7818608E-02  0.1078451E+00
          2   -1    0    0  501    0  0.00000000000E+00  0.00000000000E+00  0.82276260386E+02  0.82276260425E+02  0.25500000000E-02 0.  1.
         -2   -1    0    0    0  501 -0.00000000000E+00 -0.00000000000E+00 -0.29956212640E+03  0.29956212641E+03  0.25500000000E-02 0. -1.
    5000001    1    1    2    0    0  0.25139320699E+02 -0.88401991031E+02 -0.98399217934E+02  0.18508998772E+03  0.12700000000E+03 0.  0.
   -5000001    1    1    2    0    0 -0.25139320699E+02  0.88401991031E+02 -0.11888664808E+03  0.19674839912E+03  0.12700000000E+03 0.  0.
<mgrwt>
<rscale>  0 0.31398632E+03</rscale>
<asrwt>0</asrwt>
<pdfrwt beam="1">  1        2 0.11753752E-01 0.31398632E+03</pdfrwt>
<pdfrwt beam="2">  1       -2 0.42794589E-01 0.31398632E+03</pdfrwt>
<totfact> 0.27442302E+03</totfact>
</mgrwt>
</event>
<event>
 4    1  0.2679255E-004  0.3296421E+03  0.7818608E-02  0.1071295E+00
          2   -1    0    0  501    0  0.00000000000E+00  0.00000000000E+00  0.21254908077E+03  0.21254908078E+03  0.25500000000E-02 0.  1.
         -2   -1    0    0    0  501 -0.00000000000E+00 -0.00000000000E+00 -0.12781035250E+03  0.12781035252E+03  0.25500000000E-02 0. -1.
    5000001    1    1    2    0    0 -0.87892820663E+02 -0.54748116792E+02  0.60679176564E+02  0.17473828054E+03  0.12700000000E+03 0.  0.
   -5000001    1    1    2    0    0  0.87892820663E+02  0.54748116792E+02  0.24059551706E+02  0.16562115277E+03  0.12700000000E+03 0.  0.
<mgrwt>
<rscale>  0 0.32964207E+03</rscale>
<asrwt>0</asrwt>
<pdfrwt beam="1">  1        2 0.30364154E-01 0.32964207E+03</pdfrwt>
<pdfrwt beam="2">  1       -2 0.18258622E-01 0.32964207E+03</pdfrwt>
<totfact> 0.42594126E+03</totfact>
</mgrwt>
</event>
<event>
 4    1  0.2679255E-004  0.2591599E+03  0.7818608E-02  0.1107649E+00
          2   -1    0    0  501    0  0.00000000000E+00  0.00000000000E+00  0.25725075208E+04  0.25725075208E+04  0.25500000000E-02 0.  1.
         -2   -1    0    0    0  501 -0.00000000000E+00 -0.00000000000E+00 -0.65270817636E+01  0.65270822617E+01  0.25500000000E-02 0. -1.
    5000001    1    1    2    0    0  0.14519467398E+02 -0.16362151155E+02  0.14177708946E+04  0.14236157644E+04  0.12700000000E+03 0.  0.
   -5000001    1    1    2    0    0 -0.14519467398E+02  0.16362151155E+02  0.11482095444E+04  0.11554188387E+04  0.12700000000E+03 0.  0.
<mgrwt>
<rscale>  0 0.25915993E+03</rscale>
<asrwt>0</asrwt>
<pdfrwt beam="1">  1        2 0.36750098E+00 0.25915993E+03</pdfrwt>
<pdfrwt beam="2">  1       -2 0.93244052E-03 0.25915993E+03</pdfrwt>
<totfact> 0.10877096E+04</totfact>
</mgrwt>
</event>
<event>
 4    1  0.2679255E-004  0.4743987E+03  0.7818608E-02  0.1020686E+00
          2   -1    0    0  501    0  0.00000000000E+00  0.00000000000E+00  0.62898619269E+03  0.62898619270E+03  0.25500000000E-02 0.  1.
         -2   -1    0    0    0  501 -0.00000000000E+00 -0.00000000000E+00 -0.89451147198E+02  0.89451147234E+02  0.25500000000E-02 0. -1.
    5000001    1    1    2    0    0  0.10178534651E+03 -0.18564757298E+02  0.99683375041E+01  0.16411360312E+03  0.12700000000E+03 0.  0.
   -5000001    1    1    2    0    0 -0.10178534651E+03  0.18564757298E+02  0.52956670799E+03  0.55432373681E+03  0.12700000000E+03 0.  0.
<mgrwt>
<rscale>  0 0.47439872E+03</rscale>
<asrwt>0</asrwt>
<pdfrwt beam="1">  1        2 0.89855171E-01 0.47439872E+03</pdfrwt>
<pdfrwt beam="2">  1       -2 0.12778735E-01 0.47439872E+03</pdfrwt>
<totfact> 0.23388178E+03</totfact>
</mgrwt>
</event>
<event>
 4    1  0.2679255E-004  0.2979594E+03  0.7818608E-02  0.1086265E+00
          2   -1    0    0  501    0  0.00000000000E+00  0.00000000000E+00  0.14170001655E+03  0.14170001657E+03  0.25500000000E-02 0.  1.
         -2   -1    0    0    0  501 -0.00000000000E+00 -0.00000000000E+00 -0.15663338676E+03  0.15663338678E+03  0.25500000000E-02 0. -1.
    5000001    1    1    2    0    0 -0.25332623914E+02  0.29129350823E+02  0.60262084605E+02  0.14577647188E+03  0.12700000000E+03 0.  0.
   -5000001    1    1    2    0    0  0.25332623914E+02 -0.29129350823E+02 -0.75195454813E+02  0.15255693147E+03  0.12700000000E+03 0.  0.
<mgrwt>
<rscale>  0 0.29795942E+03</rscale>
<asrwt>0</asrwt>
<pdfrwt beam="1">  1        2 0.20242860E-01 0.29795942E+03</pdfrwt>
<pdfrwt beam="2">  1       -2 0.22376198E-01 0.29795942E+03</pdfrwt>
<totfact> 0.47215200E+03</totfact>
</mgrwt>
</event>
<event>
 4    1  0.2679255E-004  0.3620661E+03  0.7818608E-02  0.1057769E+00
          2   -1    0    0  501    0  0.00000000000E+00  0.00000000000E+00  0.69124059922E+03  0.69124059923E+03  0.25500000000E-02 0.  1.
         -2   -1    0    0    0  501 -0.00000000000E+00 -0.00000000000E+00 -0.47411813329E+02  0.47411813397E+02  0.25500000000E-02 0. -1.
    5000001    1    1    2    0    0  0.49182596977E+02 -0.11488399127E+03  0.38728406821E+03  0.42630412711E+03  0.12700000000E+03 0.  0.
   -5000001    1    1    2    0    0 -0.49182596977E+02  0.11488399127E+03  0.25654471768E+03  0.31234828552E+03  0.12700000000E+03 0.  0.
<mgrwt>
<rscale>  0 0.36206613E+03</rscale>
<asrwt>0</asrwt>
<pdfrwt beam="1">  1        2 0.98748651E-01 0.36206613E+03</pdfrwt>
<pdfrwt beam="2">  1       -2 0.67731166E-02 0.36206613E+03</pdfrwt>
<totfact> 0.57462440E+03</totfact>
</mgrwt>
</event>
<event>
 4    1  0.2679255E-004  0.3971892E+03  0.7818608E-02  0.1044757E+00
          2   -1    0    0  501    0  0.00000000000E+00  0.00000000000E+00  0.83499808064E+03  0.83499808064E+03  0.25500000000E-02 0.  1.
         -2   -1    0    0    0  501 -0.00000000000E+00 -0.00000000000E+00 -0.47233413258E+02  0.47233413327E+02  0.25500000000E-02 0. -1.
    5000001    1    1    2    0    0  0.12112128461E+03  0.88950505938E+02  0.45382358535E+03  0.49463866075E+03  0.12700000000E+03 0.  0.
   -5000001    1    1    2    0    0 -0.12112128461E+03 -0.88950505938E+02  0.33394108203E+03  0.38759283321E+03  0.12700000000E+03 0.  0.
<mgrwt>
<rscale>  0 0.39718917E+03</rscale>
<asrwt>0</asrwt>
<pdfrwt beam="1">  1        2 0.11928543E+00 0.39718917E+03</pdfrwt>
<pdfrwt beam="2">  1       -2 0.67476312E-02 0.39718917E+03</pdfrwt>
<totfact> 0.45858885E+03</totfact>
</mgrwt>
</event>
<event>
 4    1  0.2679255E-004  0.7322408E+03  0.7818608E-02  0.9663631E-01
          2   -1    0    0  501    0  0.00000000000E+00  0.00000000000E+00  0.15744597259E+04  0.15744597259E+04  0.25500000000E-02 0.  1.
         -2   -1    0    0    0  501 -0.00000000000E+00 -0.00000000000E+00 -0.85136589889E+02  0.85136589927E+02  0.25500000000E-02 0. -1.
    5000001    1    1    2    0    0  0.22904678445E+03  0.71363601907E+02  0.13014919952E+04  0.13294982537E+04  0.12700000000E+03 0.  0.
   -5000001    1    1    2    0    0 -0.22904678445E+03 -0.71363601907E+02  0.18783114086E+03  0.33009806213E+03  0.12700000000E+03 0.  0.
<mgrwt>
<rscale>  0 0.73224076E+03</rscale>
<asrwt>0</asrwt>
<pdfrwt beam="1">  1        2 0.22492280E+00 0.73224076E+03</pdfrwt>
<pdfrwt beam="2">  1       -2 0.12162371E-01 0.73224076E+03</pdfrwt>
<totfact> 0.67218802E+02</totfact>
</mgrwt>
</event>
<event>
 4    1  0.2679255E-004  0.6854152E+03  0.7818608E-02  0.9742504E-01
         -2   -1    0    0    0  501 -0.00000000000E+00  0.00000000000E+00  0.45543984587E+02  0.45543984658E+02  0.25500000000E-02 0. -1.
          2   -1    0    0  501    0  0.00000000000E+00 -0.00000000000E+00 -0.25787925283E+04  0.25787925283E+04  0.25500000000E-02 0.  1.
    5000001    1    1    2    0    0 -0.96298434124E+02 -0.30282611396E+03 -0.11957709355E+04  0.12437741652E+04  0.12700000000E+03 0.  0.
   -5000001    1    1    2    0    0  0.96298434124E+02  0.30282611396E+03 -0.13374776082E+04  0.13805623478E+04  0.12700000000E+03 0.  0.
<mgrwt>
<rscale>  0 0.68541517E+03</rscale>
<asrwt>0</asrwt>
<pdfrwt beam="1">  1        2 0.36839884E+00 0.68541517E+03</pdfrwt>
<pdfrwt beam="2">  1       -2 0.65062851E-02 0.68541517E+03</pdfrwt>
<totfact> 0.56914159E+02</totfact>
</mgrwt>
</event>
<event>
 4    1  0.2679255E-004  0.1046463E+04  0.7818608E-02  0.9259003E-01
          2   -1    0    0  501    0  0.00000000000E+00  0.00000000000E+00  0.99792987879E+03  0.99792987879E+03  0.25500000000E-02 0.  1.
         -2   -1    0    0    0  501 -0.00000000000E+00 -0.00000000000E+00 -0.27433919064E+03  0.27433919065E+03  0.25500000000E-02 0. -1.
    5000001    1    1    2    0    0  0.25603164286E+02  0.48425002492E+03  0.17947426312E+03  0.53244118903E+03  0.12700000000E+03 0.  0.
   -5000001    1    1    2    0    0 -0.25603164286E+02 -0.48425002492E+03  0.54411642502E+03  0.73982788041E+03  0.12700000000E+03 0.  0.
<mgrwt>
<rscale>  0 0.10464631E+04</rscale>
<asrwt>0</asrwt>
<pdfrwt beam="1">  1        2 0.14256141E+00 0.10464631E+04</pdfrwt>
<pdfrwt beam="2">  1       -2 0.39191313E-01 0.10464631E+04</pdfrwt>
<totfact> 0.17241614E+02</totfact>
</mgrwt>
</event>
<event>
 4    1  0.2679255E-004  0.3267203E+03  0.7818608E-02  0.1072597E+00
         -2   -1    0    0    0  501 -0.00000000000E+00  0.00000000000E+00  0.39365234792E+03  0.39365234792E+03  0.25500000000E-02 0. -1.
          2   -1    0    0  501    0  0.00000000000E+00 -0.00000000000E+00 -0.67792148747E+02  0.67792148795E+02  0.25500000000E-02 0.  1.
    5000001    1    1    2    0    0 -0.72088989689E+02 -0.71565522924E+02  0.18476875538E+03  0.24614414369E+03  0.12700000000E+03 0.  0.
   -5000001    1    1    2    0    0  0.72088989689E+02  0.71565522924E+02  0.14109144378E+03  0.21530035303E+03  0.12700000000E+03 0.  0.
<mgrwt>
<rscale>  0 0.32672030E+03</rscale>
<asrwt>0</asrwt>
<pdfrwt beam="1">  1        2 0.96845928E-02 0.32672030E+03</pdfrwt>
<pdfrwt beam="2">  1       -2 0.56236049E-01 0.32672030E+03</pdfrwt>
<totfact> 0.20251893E+03</totfact>
</mgrwt>
</event>
<event>
 4    1  0.2679255E-004  0.3812896E+03  0.7818608E-02  0.1050458E+00
         -2   -1    0    0    0  501 -0.00000000000E+00  0.00000000000E+00  0.11392869473E+02  0.11392869758E+02  0.25500000000E-02 0. -1.
          2   -1    0    0  501    0  0.00000000000E+00 -0.00000000000E+00 -0.31901923633E+04  0.31901923633E+04  0.25500000000E-02 0.  1.
    5000001    1    1    2    0    0 -0.13141271388E+03  0.52547711178E+02 -0.14749198780E+04  0.14871275029E+04  0.12700000000E+03 0.  0.
   -5000001    1    1    2    0    0  0.13141271388E+03 -0.52547711178E+02 -0.17038796158E+04  0.17144577302E+04  0.12700000000E+03 0.  0.
<mgrwt>
<rscale>  0 0.38128963E+03</rscale>
<asrwt>0</asrwt>
<pdfrwt beam="1">  1        2 0.45574119E+00 0.38128963E+03</pdfrwt>
<pdfrwt beam="2">  1       -2 0.16275548E-02 0.38128963E+03</pdfrwt>
<totfact> 0.22705298E+03</totfact>
</mgrwt>
</event>
<event>
 4    1  0.2679255E-004  0.3094835E+03  0.7818608E-02  0.1080594E+00
         -2   -1    0    0    0  501 -0.00000000000E+00  0.00000000000E+00  0.27407805537E+02  0.27407805655E+02  0.25500000000E-02 0. -1.
          2   -1    0    0  501    0  0.00000000000E+00 -0.00000000000E+00 -0.87365637181E+03  0.87365637181E+03  0.25500000000E-02 0.  1.
    5000001    1    1    2    0    0 -0.69870480922E+02  0.14207576944E+02 -0.57531201814E+03  0.59346158896E+03  0.12700000000E+03 0.  0.
   -5000001    1    1    2    0    0  0.69870480922E+02 -0.14207576944E+02 -0.27093654813E+03  0.30760258851E+03  0.12700000000E+03 0.  0.
<mgrwt>
<rscale>  0 0.30948347E+03</rscale>
<asrwt>0</asrwt>
<pdfrwt beam="1">  1        2 0.12480804E+00 0.30948347E+03</pdfrwt>
<pdfrwt beam="2">  1       -2 0.39154013E-02 0.30948347E+03</pdfrwt>
<totfact> 0.99086477E+03</totfact>
</mgrwt>
</event>
<event>
 4    1  0.2679255E-004  0.2893465E+03  0.7818608E-02  0.1090691E+00
         -2   -1    0    0    0  501 -0.00000000000E+00  0.00000000000E+00  0.63422838700E+02  0.63422838751E+02  0.25500000000E-02 0. -1.
          2   -1    0    0  501    0  0.00000000000E+00 -0.00000000000E+00 -0.33001285417E+03  0.33001285418E+03  0.25500000000E-02 0.  1.
    5000001    1    1    2    0    0 -0.58484911062E+02  0.29481500537E+02 -0.16405362022E+03  0.21755972514E+03  0.12700000000E+03 0.  0.
   -5000001    1    1    2    0    0  0.58484911062E+02 -0.29481500537E+02 -0.10253639525E+03  0.17587596779E+03  0.12700000000E+03 0.  0.
<mgrwt>
<rscale>  0 0.28934652E+03</rscale>
<asrwt>0</asrwt>
<pdfrwt beam="1">  1        2 0.47144692E-01 0.28934652E+03</pdfrwt>
<pdfrwt beam="2">  1       -2 0.90604058E-02 0.28934652E+03</pdfrwt>
<totfact> 0.82566825E+03</totfact>
</mgrwt>
</event>
<event>
 4    1  0.2679255E-004  0.4073598E+03  0.7818608E-02  0.1041261E+00
          2   -1    0    0  501    0  0.00000000000E+00  0.00000000000E+00  0.33766151081E+04  0.33766151081E+04  0.25500000000E-02 0. -1.
         -2   -1    0    0    0  501 -0.00000000000E+00 -0.00000000000E+00 -0.12286122746E+02  0.12286123011E+02  0.25500000000E-02 0.  1.
    5000001    1    1    2    0    0 -0.12063294844E+03 -0.51580599125E+02  0.93142366091E+03  0.94915325557E+03  0.12700000000E+03 0.  0.
   -5000001    1    1    2    0    0  0.12063294844E+03  0.51580599125E+02  0.24329053245E+04  0.24397479756E+04  0.12700000000E+03 0.  0.
<mgrwt>
<rscale>  0 0.40735983E+03</rscale>
<asrwt>0</asrwt>
<pdfrwt beam="1">  1        2 0.48237332E+00 0.40735983E+03</pdfrwt>
<pdfrwt beam="2">  1       -2 0.17551614E-02 0.40735983E+03</pdfrwt>
<totfact> 0.15904671E+03</totfact>
</mgrwt>
</event>
<event>
 4    1  0.2679255E-004  0.4371766E+03  0.7818608E-02  0.1031617E+00
          2   -1    0    0  501    0  0.00000000000E+00  0.00000000000E+00  0.27339179764E+03  0.27339179766E+03  0.25500000000E-02 0.  1.
         -2   -1    0    0    0  501 -0.00000000000E+00 -0.00000000000E+00 -0.17477056295E+03  0.17477056297E+03  0.25500000000E-02 0. -1.
    5000001    1    1    2    0    0 -0.13806107512E+03  0.10910939258E+03  0.22458531594E+02  0.21817219267E+03  0.12700000000E+03 0.  0.
   -5000001    1    1    2    0    0  0.13806107512E+03 -0.10910939258E+03  0.76162703103E+02  0.22999016795E+03  0.12700000000E+03 0.  0.
<mgrwt>
<rscale>  0 0.43717657E+03</rscale>
<asrwt>0</asrwt>
<pdfrwt beam="1">  1        2 0.39055971E-01 0.43717657E+03</pdfrwt>
<pdfrwt beam="2">  1       -2 0.24967223E-01 0.43717657E+03</pdfrwt>
<totfact> 0.18841901E+03</totfact>
</mgrwt>
</event>
<event>
 4    1  0.2679255E-004  0.4277172E+03  0.7818608E-02  0.1034584E+00
          2   -1    0    0  501    0  0.00000000000E+00  0.00000000000E+00  0.58573380297E+03  0.58573380298E+03  0.25500000000E-02 0.  1.
         -2   -1    0    0    0  501 -0.00000000000E+00 -0.00000000000E+00 -0.78082388219E+02  0.78082388260E+02  0.25500000000E-02 0. -1.
    5000001    1    1    2    0    0 -0.13945516142E+03  0.72773735469E+02  0.14559973783E+03  0.24914261433E+03  0.12700000000E+03 0.  0.
   -5000001    1    1    2    0    0  0.13945516142E+03 -0.72773735469E+02  0.36205167692E+03  0.41467357691E+03  0.12700000000E+03 0.  0.
<mgrwt>
<rscale>  0 0.42771717E+03</rscale>
<asrwt>0</asrwt>
<pdfrwt beam="1">  1        2 0.83676259E-01 0.42771717E+03</pdfrwt>
<pdfrwt beam="2">  1       -2 0.11154627E-01 0.42771717E+03</pdfrwt>
<totfact> 0.31708053E+03</totfact>
</mgrwt>
</event>
<event>
 4    1  0.2679255E-004  0.5516606E+03  0.7818608E-02  0.1001110E+00
         -2   -1    0    0    0  501 -0.00000000000E+00  0.00000000000E+00  0.14745051446E+03  0.14745051448E+03  0.25500000000E-02 0. -1.
          2   -1    0    0  501    0  0.00000000000E+00 -0.00000000000E+00 -0.51598564097E+03  0.51598564098E+03  0.25500000000E-02 0.  1.
    5000001    1    1    2    0    0 -0.17296543699E+03 -0.15988347222E+03 -0.10383075206E+03  0.28703587260E+03  0.12700000000E+03 0.  0.
   -5000001    1    1    2    0    0  0.17296543699E+03  0.15988347222E+03 -0.26470437446E+03  0.37640028286E+03  0.12700000000E+03 0.  0.
<mgrwt>
<rscale>  0 0.55166058E+03</rscale>
<asrwt>0</asrwt>
<pdfrwt beam="1">  1        2 0.73712233E-01 0.55166058E+03</pdfrwt>
<pdfrwt beam="2">  1       -2 0.21064360E-01 0.55166058E+03</pdfrwt>
<totfact> 0.12609449E+03</totfact>
</mgrwt>
</event>
<event>
 4    1  0.2679255E-004  0.4232819E+03  0.7818608E-02  0.1036003E+00
         -2   -1    0    0    0  501 -0.00000000000E+00  0.00000000000E+00  0.49516634179E+02  0.49516634244E+02  0.25500000000E-02 0. -1.
          2   -1    0    0  501    0  0.00000000000E+00 -0.00000000000E+00 -0.90458280132E+03  0.90458280132E+03  0.25500000000E-02 0.  1.
    5000001    1    1    2    0    0  0.16060483096E+03  0.69925148611E+00 -0.30680981901E+03  0.36885724301E+03  0.12700000000E+03 0.  0.
   -5000001    1    1    2    0    0 -0.16060483096E+03 -0.69925148611E+00 -0.54825634813E+03  0.58524219256E+03  0.12700000000E+03 0.  0.
<mgrwt>
<rscale>  0 0.42328192E+03</rscale>
<asrwt>0</asrwt>
<pdfrwt beam="1">  1        2 0.12922610E+00 0.42328192E+03</pdfrwt>
<pdfrwt beam="2">  1       -2 0.70738054E-02 0.42328192E+03</pdfrwt>
<totfact> 0.38417731E+03</totfact>
</mgrwt>
</event>
<event>
 4    1  0.2679255E-004  0.3020358E+03  0.7818608E-02  0.1084227E+00
         -2   -1    0    0    0  501 -0.00000000000E+00  0.00000000000E+00  0.61533980951E+02  0.61533981004E+02  0.25500000000E-02 0. -1.
          2   -1    0    0  501    0  0.00000000000E+00 -0.00000000000E+00 -0.37063101606E+03  0.37063101607E+03  0.25500000000E-02 0.  1.
    5000001    1    1    2    0    0 -0.54055624911E+02  0.45062910385E+02 -0.95125980755E+02  0.17358176371E+03  0.12700000000E+03 0.  0.
   -5000001    1    1    2    0    0  0.54055624911E+02 -0.45062910385E+02 -0.21397105436E+03  0.25858323337E+03  0.12700000000E+03 0.  0.
<mgrwt>
<rscale>  0 0.30203577E+03</rscale>
<asrwt>0</asrwt>
<pdfrwt beam="1">  1        2 0.52947287E-01 0.30203577E+03</pdfrwt>
<pdfrwt beam="2">  1       -2 0.87905689E-02 0.30203577E+03</pdfrwt>
<totfact> 0.76521736E+03</totfact>
</mgrwt>
</event>
<event>
 4    1  0.2679255E-004  0.3626805E+03  0.7818608E-02  0.1057528E+00
          2   -1    0    0  501    0  0.00000000000E+00  0.00000000000E+00  0.16969192083E+04  0.16969192083E+04  0.25500000000E-02 0.  1.
         -2   -1    0    0    0  501 -0.00000000000E+00 -0.00000000000E+00 -0.19378814340E+02  0.19378814508E+02  0.25500000000E-02 0. -1.
    5000001    1    1    2    0    0 -0.95703174881E+02 -0.54170540371E+02  0.11618742607E+04  0.11739567040E+04  0.12700000000E+03 0.  0.
   -5000001    1    1    2    0    0  0.95703174881E+02  0.54170540371E+02  0.51566613327E+03  0.54234131885E+03  0.12700000000E+03 0.  0.
<mgrwt>
<rscale>  0 0.36268048E+03</rscale>
<asrwt>0</asrwt>
<pdfrwt beam="1">  1        2 0.24241705E+00 0.36268048E+03</pdfrwt>
<pdfrwt beam="2">  1       -2 0.27684018E-02 0.36268048E+03</pdfrwt>
<totfact> 0.59543328E+03</totfact>
</mgrwt>
</event>
<event>
 4    1  0.2679255E-004  0.7842075E+03  0.7818608E-02  0.9583162E-01
         -2   -1    0    0    0  501 -0.00000000000E+00  0.00000000000E+00  0.14402949474E+03  0.14402949477E+03  0.25500000000E-02 0. -1.
          2   -1    0    0  501    0  0.00000000000E+00 -0.00000000000E+00 -0.10674574788E+04  0.10674574788E+04  0.25500000000E-02 0.  1.
    5000001    1    1    2    0    0  0.10662105121E+03  0.27308063986E+03 -0.11053449810E+03  0.33806502288E+03  0.12700000000E+03 0.  0.
   -5000001    1    1    2    0    0 -0.10662105121E+03 -0.27308063986E+03 -0.81289348596E+03  0.87342195069E+03  0.12700000000E+03 0.  0.
<mgrwt>
<rscale>  0 0.78420753E+03</rscale>
<asrwt>0</asrwt>
<pdfrwt beam="1">  1        2 0.15249392E+00 0.78420753E+03</pdfrwt>
<pdfrwt beam="2">  1       -2 0.20575643E-01 0.78420753E+03</pdfrwt>
<totfact> 0.52028056E+02</totfact>
</mgrwt>
</event>
<event>
 4    1  0.2679255E-004  0.8229375E+03  0.7818608E-02  0.9527397E-01
         -2   -1    0    0    0  501 -0.00000000000E+00  0.00000000000E+00  0.20957150887E+03  0.20957150888E+03  0.25500000000E-02 0.  1.
          2   -1    0    0  501    0  0.00000000000E+00 -0.00000000000E+00 -0.80786990058E+03  0.80786990058E+03  0.25500000000E-02 0. -1.
    5000001    1    1    2    0    0  0.21520961682E+02 -0.25475904209E+03  0.67220876800E+02  0.29327967471E+03  0.12700000000E+03 0.  0.
   -5000001    1    1    2    0    0 -0.21520961682E+02  0.25475904209E+03 -0.66551926851E+03  0.72416173475E+03  0.12700000000E+03 0.  0.
<mgrwt>
<rscale>  0 0.82293746E+03</rscale>
<asrwt>0</asrwt>
<pdfrwt beam="1">  1        2 0.11540998E+00 0.82293746E+03</pdfrwt>
<pdfrwt beam="2">  1       -2 0.29938787E-01 0.82293746E+03</pdfrwt>
<totfact> 0.38708471E+02</totfact>
</mgrwt>
</event>
<event>
 4    1  0.2679255E-004  0.3087827E+03  0.7818608E-02  0.1080931E+00
          2   -1    0    0  501    0  0.00000000000E+00  0.00000000000E+00  0.27001532245E+03  0.27001532246E+03  0.25500000000E-02 0.  1.
         -2   -1    0    0    0  501 -0.00000000000E+00 -0.00000000000E+00 -0.88279045402E+02  0.88279045439E+02  0.25500000000E-02 0. -1.
    5000001    1    1    2    0    0 -0.25387154886E+02 -0.53497911043E+02  0.16607745106E+03  0.21729531489E+03  0.12700000000E+03 0.  0.
   -5000001    1    1    2    0    0  0.25387154886E+02  0.53497911043E+02  0.15658825980E+02  0.14099905301E+03  0.12700000000E+03 0.  0.
<mgrwt>
<rscale>  0 0.30878274E+03</rscale>
<asrwt>0</asrwt>
<pdfrwt beam="1">  1        2 0.38573617E-01 0.30878274E+03</pdfrwt>
<pdfrwt beam="2">  1       -2 0.12611292E-01 0.30878274E+03</pdfrwt>
<totfact> 0.60506695E+03</totfact>
</mgrwt>
</event>
<event>
 4    1  0.2679255E-004  0.4019172E+03  0.7818608E-02  0.1043118E+00
          2   -1    0    0  501    0  0.00000000000E+00  0.00000000000E+00  0.17514109589E+04  0.17514109589E+04  0.25500000000E-02 0.  1.
         -2   -1    0    0    0  501 -0.00000000000E+00 -0.00000000000E+00 -0.23058185639E+02  0.23058185780E+02  0.25500000000E-02 0. -1.
    5000001    1    1    2    0    0  0.20442975573E+02 -0.13695837159E+03  0.11788477575E+04  0.11937280034E+04  0.12700000000E+03 0.  0.
   -5000001    1    1    2    0    0 -0.20442975573E+02  0.13695837159E+03  0.54950501570E+03  0.58074114120E+03  0.12700000000E+03 0.  0.
<mgrwt>
<rscale>  0 0.40191720E+03</rscale>
<asrwt>0</asrwt>
<pdfrwt beam="1">  1        2 0.25020160E+00 0.40191720E+03</pdfrwt>
<pdfrwt beam="2">  1       -2 0.32940260E-02 0.40191720E+03</pdfrwt>
<totfact> 0.43077733E+03</totfact>
</mgrwt>
</event>
<event>
 4    1  0.2679255E-004  0.3450971E+03  0.7818608E-02  0.1064646E+00
          2   -1    0    0  501    0  0.00000000000E+00  0.00000000000E+00  0.43280497298E+03  0.43280497299E+03  0.25500000000E-02 0.  1.
         -2   -1    0    0    0  501 -0.00000000000E+00 -0.00000000000E+00 -0.68790790218E+02  0.68790790265E+02  0.25500000000E-02 0. -1.
    5000001    1    1    2    0    0  0.35397778306E+02  0.67679812366E+02  0.53552319036E+02  0.15757668160E+03  0.12700000000E+03 0.  0.
   -5000001    1    1    2    0    0 -0.35397778306E+02 -0.67679812366E+02  0.31046186373E+03  0.34401908165E+03  0.12700000000E+03 0.  0.
<mgrwt>
<rscale>  0 0.34509707E+03</rscale>
<asrwt>0</asrwt>
<pdfrwt beam="1">  1        2 0.61829282E-01 0.34509707E+03</pdfrwt>
<pdfrwt beam="2">  1       -2 0.98272557E-02 0.34509707E+03</pdfrwt>
<totfact> 0.54382454E+03</totfact>
</mgrwt>
</event>
<event>
 4    1  0.2679255E-004  0.3098295E+03  0.7818608E-02  0.1080428E+00
          2   -1    0    0  501    0  0.00000000000E+00  0.00000000000E+00  0.18824844502E+04  0.18824844502E+04  0.25500000000E-02 0.  1.
         -2   -1    0    0    0  501 -0.00000000000E+00 -0.00000000000E+00 -0.12748354035E+02  0.12748354290E+02  0.25500000000E-02 0. -1.
    5000001    1    1    2    0    0 -0.10168840664E+02  0.60386314982E+02  0.54224949288E+03  0.56027977376E+03  0.12700000000E+03 0.  0.
   -5000001    1    1    2    0    0  0.10168840664E+02 -0.60386314982E+02  0.13274866033E+04  0.13349530308E+04  0.12700000000E+03 0.  0.
<mgrwt>
<rscale>  0 0.30982949E+03</rscale>
<asrwt>0</asrwt>
<pdfrwt beam="1">  1        2 0.26892633E+00 0.30982949E+03</pdfrwt>
<pdfrwt beam="2">  1       -2 0.18211936E-02 0.30982949E+03</pdfrwt>
<totfact> 0.89638383E+03</totfact>
</mgrwt>
</event>
<event>
 4    1  0.2679255E-004  0.4274743E+03  0.7818608E-02  0.1034661E+00
         -2   -1    0    0    0  501 -0.00000000000E+00  0.00000000000E+00  0.51320279187E+02  0.51320279250E+02  0.25500000000E-02 0. -1.
          2   -1    0    0  501    0  0.00000000000E+00 -0.00000000000E+00 -0.89016623554E+03  0.89016623554E+03  0.25500000000E-02 0.  1.
    5000001    1    1    2    0    0 -0.12250829633E+03  0.11012346827E+03 -0.31109699360E+03  0.37422693698E+03  0.12700000000E+03 0.  0.
   -5000001    1    1    2    0    0  0.12250829633E+03 -0.11012346827E+03 -0.52774896276E+03  0.56725957782E+03  0.12700000000E+03 0.  0.
<mgrwt>
<rscale>  0 0.42747435E+03</rscale>
<asrwt>0</asrwt>
<pdfrwt beam="1">  1        2 0.12716660E+00 0.42747435E+03</pdfrwt>
<pdfrwt beam="2">  1       -2 0.73314690E-02 0.42747435E+03</pdfrwt>
<totfact> 0.37100733E+03</totfact>
</mgrwt>
</event>
<event>
 4    1  0.2679255E-004  0.4058907E+03  0.7818608E-02  0.1041759E+00
          2   -1    0    0  501    0  0.00000000000E+00  0.00000000000E+00  0.18505509260E+04  0.18505509260E+04  0.25500000000E-02 0.  1.
         -2   -1    0    0    0  501 -0.00000000000E+00 -0.00000000000E+00 -0.22256519380E+02  0.22256519527E+02  0.25500000000E-02 0. -1.
    5000001    1    1    2    0    0 -0.11528069224E+03  0.10629439324E+03  0.81414994453E+03  0.83878320692E+03  0.12700000000E+03 0.  0.
   -5000001    1    1    2    0    0  0.11528069224E+03 -0.10629439324E+03  0.10141444621E+04  0.10340242386E+04  0.12700000000E+03 0.  0.
<mgrwt>
<rscale>  0 0.40589074E+03</rscale>
<asrwt>0</asrwt>
<pdfrwt beam="1">  1        2 0.26436441E+00 0.40589074E+03</pdfrwt>
<pdfrwt beam="2">  1       -2 0.31795029E-02 0.40589074E+03</pdfrwt>
<totfact> 0.40559751E+03</totfact>
</mgrwt>
</event>
<event>
 4    1  0.2679255E-004  0.9634164E+03  0.7818608E-02  0.9349605E-01
          2   -1    0    0  501    0  0.00000000000E+00  0.00000000000E+00  0.16299997898E+04  0.16299997898E+04  0.25500000000E-02 0.  1.
         -2   -1    0    0    0  501 -0.00000000000E+00 -0.00000000000E+00 -0.14235756062E+03  0.14235756065E+03  0.25500000000E-02 0. -1.
    5000001    1    1    2    0    0  0.25188122527E+03  0.37647710935E+03  0.93442456572E+03  0.10461631969E+04  0.12700000000E+03 0.  0.
   -5000001    1    1    2    0    0 -0.25188122527E+03 -0.37647710935E+03  0.55321766350E+03  0.72619415359E+03  0.12700000000E+03 0.  0.
<mgrwt>
<rscale>  0 0.96341641E+03</rscale>
<asrwt>0</asrwt>
<pdfrwt beam="1">  1        2 0.23285713E+00 0.96341641E+03</pdfrwt>
<pdfrwt beam="2">  1       -2 0.20336793E-01 0.96341641E+03</pdfrwt>
<totfact> 0.25862736E+02</totfact>
</mgrwt>
</event>
<event>
 4    1  0.2679255E-004  0.1502091E+04  0.7818608E-02  0.8883063E-01
         -2   -1    0    0    0  501 -0.00000000000E+00  0.00000000000E+00  0.19887842759E+03  0.19887842761E+03  0.25500000000E-02 0. -1.
          2   -1    0    0  501    0  0.00000000000E+00 -0.00000000000E+00 -0.28362534685E+04  0.28362534685E+04  0.25500000000E-02 0.  1.
    5000001    1    1    2    0    0  0.13140903611E+03 -0.50566949413E+03 -0.25913036012E+03  0.59686473811E+03  0.12700000000E+03 0.  0.
   -5000001    1    1    2    0    0 -0.13140903611E+03  0.50566949413E+03 -0.23782446807E+04  0.24382671580E+04  0.12700000000E+03 0.  0.
<mgrwt>
<rscale>  0 0.15020914E+04</rscale>
<asrwt>0</asrwt>
<pdfrwt beam="1">  1        2 0.40517904E+00 0.15020914E+04</pdfrwt>
<pdfrwt beam="2">  1       -2 0.28411206E-01 0.15020914E+04</pdfrwt>
<totfact> 0.32028489E+01</totfact>
</mgrwt>
</event>
<event>
 4    1  0.2679255E-004  0.4231790E+03  0.7818608E-02  0.1036037E+00
          2   -1    0    0  501    0  0.00000000000E+00  0.00000000000E+00  0.73062160315E+03  0.73062160315E+03  0.25500000000E-02 0.  1.
         -2   -1    0    0    0  501 -0.00000000000E+00 -0.00000000000E+00 -0.61276744869E+02  0.61276744922E+02  0.25500000000E-02 0. -1.
    5000001    1    1    2    0    0 -0.11596416915E+03  0.27911300850E+02  0.11000330498E+03  0.20604964535E+03  0.12700000000E+03 0.  0.
   -5000001    1    1    2    0    0  0.11596416915E+03 -0.27911300850E+02  0.55934155330E+03  0.58584870273E+03  0.12700000000E+03 0.  0.
<mgrwt>
<rscale>  0 0.42317899E+03</rscale>
<asrwt>0</asrwt>
<pdfrwt beam="1">  1        2 0.10437451E+00 0.42317899E+03</pdfrwt>
<pdfrwt beam="2">  1       -2 0.87538214E-02 0.42317899E+03</pdfrwt>
<totfact> 0.35991681E+03</totfact>
</mgrwt>
</event>
<event>
 4    1  0.2679255E-004  0.8962663E+03  0.7818608E-02  0.9430261E-01
          2   -1    0    0  501    0  0.00000000000E+00  0.00000000000E+00  0.27352202153E+04  0.27352202153E+04  0.25500000000E-02 0.  1.
         -2   -1    0    0    0  501 -0.00000000000E+00 -0.00000000000E+00 -0.73421261155E+02  0.73421261200E+02  0.25500000000E-02 0. -1.
    5000001    1    1    2    0    0  0.37316382884E+03 -0.92696836230E+02  0.19324611714E+04  0.19744313424E+04  0.12700000000E+03 0.  0.
   -5000001    1    1    2    0    0 -0.37316382884E+03  0.92696836230E+02  0.72933778269E+03  0.83421013411E+03  0.12700000000E+03 0.  0.
<mgrwt>
<rscale>  0 0.89626629E+03</rscale>
<asrwt>0</asrwt>
<pdfrwt beam="1">  1        2 0.39074575E+00 0.89626629E+03</pdfrwt>
<pdfrwt beam="2">  1       -2 0.10488752E-01 0.89626629E+03</pdfrwt>
<totfact> 0.21485977E+02</totfact>
</mgrwt>
</event>
<event>
 4    1  0.2679255E-004  0.6186992E+03  0.7818608E-02  0.9867353E-01
          2   -1    0    0  501    0  0.00000000000E+00  0.00000000000E+00  0.83698497508E+03  0.83698497508E+03  0.25500000000E-02 0.  1.
         -2   -1    0    0    0  501 -0.00000000000E+00 -0.00000000000E+00 -0.11433560986E+03  0.11433560989E+03  0.25500000000E-02 0. -1.
    5000001    1    1    2    0    0 -0.23350343234E+03  0.14094654497E+03  0.47197314051E+03  0.55971191413E+03  0.12700000000E+03 0.  0.
   -5000001    1    1    2    0    0  0.23350343234E+03 -0.14094654497E+03  0.25067622470E+03  0.39160867085E+03  0.12700000000E+03 0.  0.
<mgrwt>
<rscale>  0 0.61869924E+03</rscale>
<asrwt>0</asrwt>
<pdfrwt beam="1">  1        2 0.11956928E+00 0.61869924E+03</pdfrwt>
<pdfrwt beam="2">  1       -2 0.16333658E-01 0.61869924E+03</pdfrwt>
<totfact> 0.10891760E+03</totfact>
</mgrwt>
</event>
<event>
 4    1  0.2679255E-004  0.3049643E+03  0.7818608E-02  0.1082785E+00
          2   -1    0    0  501    0  0.00000000000E+00  0.00000000000E+00  0.58437116552E+03  0.58437116552E+03  0.25500000000E-02 0.  1.
         -2   -1    0    0    0  501 -0.00000000000E+00 -0.00000000000E+00 -0.39787733580E+02  0.39787733662E+02  0.25500000000E-02 0. -1.
    5000001    1    1    2    0    0 -0.70625122750E+02 -0.42252614072E+02  0.23407811921E+03  0.27873779301E+03  0.12700000000E+03 0.  0.
   -5000001    1    1    2    0    0  0.70625122750E+02  0.42252614072E+02  0.31050531273E+03  0.34542110618E+03  0.12700000000E+03 0.  0.
<mgrwt>
<rscale>  0 0.30496429E+03</rscale>
<asrwt>0</asrwt>
<pdfrwt beam="1">  1        2 0.83481594E-01 0.30496429E+03</pdfrwt>
<pdfrwt beam="2">  1       -2 0.56839620E-02 0.30496429E+03</pdfrwt>
<totfact> 0.91196694E+03</totfact>
</mgrwt>
</event>
<event>
 4    1  0.2679255E-004  0.3676006E+03  0.7818608E-02  0.1055614E+00
          2   -1    0    0  501    0  0.00000000000E+00  0.00000000000E+00  0.20274693601E+03  0.20274693603E+03  0.25500000000E-02 0.  1.
         -2   -1    0    0    0  501 -0.00000000000E+00 -0.00000000000E+00 -0.16662418997E+03  0.16662418999E+03  0.25500000000E-02 0. -1.
    5000001    1    1    2    0    0  0.50930078760E+02  0.10759195015E+03  0.77368053180E+02  0.19048547533E+03  0.12700000000E+03 0.  0.
   -5000001    1    1    2    0    0 -0.50930078760E+02 -0.10759195015E+03 -0.41245307141E+02  0.17888565069E+03  0.12700000000E+03 0.  0.
<mgrwt>
<rscale>  0 0.36760057E+03</rscale>
<asrwt>0</asrwt>
<pdfrwt beam="1">  1        2 0.28963848E-01 0.36760057E+03</pdfrwt>
<pdfrwt beam="2">  1       -2 0.23803456E-01 0.36760057E+03</pdfrwt>
<totfact> 0.28438807E+03</totfact>
</mgrwt>
</event>
<event>
 4    1  0.2679255E-004  0.5567552E+03  0.7818608E-02  0.9999423E-01
         -2   -1    0    0    0  501 -0.00000000000E+00  0.00000000000E+00  0.39276707826E+02  0.39276707909E+02  0.25500000000E-02 0. -1.
          2   -1    0    0  501    0  0.00000000000E+00 -0.00000000000E+00 -0.19730291670E+04  0.19730291670E+04  0.25500000000E-02 0.  1.
    5000001    1    1    2    0    0  0.54983681551E+02 -0.15393936358E+03 -0.16396161750E+04  0.16526314575E+04  0.12700000000E+03 0.  0.
   -5000001    1    1    2    0    0 -0.54983681551E+02  0.15393936358E+03 -0.29413628418E+03  0.35967441745E+03  0.12700000000E+03 0.  0.
<mgrwt>
<rscale>  0 0.55675521E+03</rscale>
<asrwt>0</asrwt>
<pdfrwt beam="1">  1        2 0.28186125E+00 0.55675521E+03</pdfrwt>
<pdfrwt beam="2">  1       -2 0.56109595E-02 0.55675521E+03</pdfrwt>
<totfact> 0.14689380E+03</totfact>
</mgrwt>
</event>
<event>
 4    1  0.2679255E-004  0.3738095E+03  0.7818608E-02  0.1053246E+00
         -2   -1    0    0    0  501 -0.00000000000E+00  0.00000000000E+00  0.23950460914E+02  0.23950461049E+02  0.25500000000E-02 0. -1.
          2   -1    0    0  501    0  0.00000000000E+00 -0.00000000000E+00 -0.14585684114E+04  0.14585684114E+04  0.25500000000E-02 0.  1.
    5000001    1    1    2    0    0  0.12764687757E+03  0.16056295960E+02 -0.52906694625E+03  0.55909960079E+03  0.12700000000E+03 0.  0.
   -5000001    1    1    2    0    0 -0.12764687757E+03 -0.16056295960E+02 -0.90555100423E+03  0.92341927165E+03  0.12700000000E+03 0.  0.
<mgrwt>
<rscale>  0 0.37380950E+03</rscale>
<asrwt>0</asrwt>
<pdfrwt beam="1">  1        2 0.20836686E+00 0.37380950E+03</pdfrwt>
<pdfrwt beam="2">  1       -2 0.34214953E-02 0.37380950E+03</pdfrwt>
<totfact> 0.57194022E+03</totfact>
</mgrwt>
</event>
<event>
 4    1  0.2679255E-004  0.3778325E+03  0.7818608E-02  0.1051738E+00
          2   -1    0    0  501    0  0.00000000000E+00  0.00000000000E+00  0.67344999912E+03  0.67344999912E+03  0.25500000000E-02 0.  1.
         -2   -1    0    0    0  501 -0.00000000000E+00 -0.00000000000E+00 -0.52994790917E+02  0.52994790979E+02  0.25500000000E-02 0. -1.
    5000001    1    1    2    0    0 -0.11090903990E+03 -0.68847347482E+01  0.14694683509E+03  0.22376457952E+03  0.12700000000E+03 0.  0.
   -5000001    1    1    2    0    0  0.11090903990E+03  0.68847347482E+01  0.47350837311E+03  0.50268021058E+03  0.12700000000E+03 0.  0.
<mgrwt>
<rscale>  0 0.37783246E+03</rscale>
<asrwt>0</asrwt>
<pdfrwt beam="1">  1        2 0.96207145E-01 0.37783246E+03</pdfrwt>
<pdfrwt beam="2">  1       -2 0.75706843E-02 0.37783246E+03</pdfrwt>
<totfact> 0.49854520E+03</totfact>
</mgrwt>
</event>
<event>
 4    1  0.2679255E-004  0.4961028E+03  0.7818608E-02  0.1014801E+00
          2   -1    0    0  501    0  0.00000000000E+00  0.00000000000E+00  0.24171719292E+04  0.24171719292E+04  0.25500000000E-02 0.  1.
         -2   -1    0    0    0  501 -0.00000000000E+00 -0.00000000000E+00 -0.25455159240E+02  0.25455159368E+02  0.25500000000E-02 0. -1.
    5000001    1    1    2    0    0  0.16439309719E+03 -0.13546992138E+03  0.11720886547E+04  0.11980392332E+04  0.12700000000E+03 0.  0.
   -5000001    1    1    2    0    0 -0.16439309719E+03  0.13546992138E+03  0.12196281153E+04  0.12445878553E+04  0.12700000000E+03 0.  0.
<mgrwt>
<rscale>  0 0.49610280E+03</rscale>
<asrwt>0</asrwt>
<pdfrwt beam="1">  1        2 0.34531041E+00 0.49610280E+03</pdfrwt>
<pdfrwt beam="2">  1       -2 0.36364499E-02 0.49610280E+03</pdfrwt>
<totfact> 0.17196470E+03</totfact>
</mgrwt>
</event>
<event>
 4    1  0.2679255E-004  0.4386324E+03  0.7818608E-02  0.1031167E+00
         -2   -1    0    0    0  501 -0.00000000000E+00  0.00000000000E+00  0.43022161144E+02  0.43022161220E+02  0.25500000000E-02 0.  1.
          2   -1    0    0  501    0  0.00000000000E+00 -0.00000000000E+00 -0.11180190329E+04  0.11180190329E+04  0.25500000000E-02 0. -1.
    5000001    1    1    2    0    0  0.65557567489E+01 -0.16565249208E+03 -0.36019440202E+03  0.41635649788E+03  0.12700000000E+03 0.  0.
   -5000001    1    1    2    0    0 -0.65557567489E+01  0.16565249208E+03 -0.71480246976E+03  0.74468469627E+03  0.12700000000E+03 0.  0.
<mgrwt>
<rscale>  0 0.43863240E+03</rscale>
<asrwt>0</asrwt>
<pdfrwt beam="1">  1        2 0.15971699E+00 0.43863240E+03</pdfrwt>
<pdfrwt beam="2">  1       -2 0.61460237E-02 0.43863240E+03</pdfrwt>
<totfact> 0.35647143E+03</totfact>
</mgrwt>
</event>
<event>
 4    1  0.2679255E-004  0.3206861E+03  0.7818608E-02  0.1075334E+00
         -2   -1    0    0    0  501 -0.00000000000E+00  0.00000000000E+00  0.21382215947E+02  0.21382216099E+02  0.25500000000E-02 0. -1.
          2   -1    0    0  501    0  0.00000000000E+00 -0.00000000000E+00 -0.12023957762E+04  0.12023957762E+04  0.25500000000E-02 0.  1.
    5000001    1    1    2    0    0 -0.37779847300E+02  0.90053554986E+02 -0.61579896790E+03  0.63629735854E+03  0.12700000000E+03 0.  0.
   -5000001    1    1    2    0    0  0.37779847300E+02 -0.90053554986E+02 -0.56521459237E+03  0.58748063377E+03  0.12700000000E+03 0.  0.
<mgrwt>
<rscale>  0 0.32068605E+03</rscale>
<asrwt>0</asrwt>
<pdfrwt beam="1">  1        2 0.17177078E+00 0.32068605E+03</pdfrwt>
<pdfrwt beam="2">  1       -2 0.30546031E-02 0.32068605E+03</pdfrwt>
<totfact> 0.92413272E+03</totfact>
</mgrwt>
</event>
<event>
 4    1  0.2679255E-004  0.3941989E+03  0.7818608E-02  0.1045807E+00
          2   -1    0    0  501    0  0.00000000000E+00  0.00000000000E+00  0.82679057407E+03  0.82679057408E+03  0.25500000000E-02 0.  1.
         -2   -1    0    0    0  501 -0.00000000000E+00 -0.00000000000E+00 -0.46986731259E+02  0.46986731328E+02  0.25500000000E-02 0. -1.
    5000001    1    1    2    0    0  0.13525578397E+03  0.65745623079E+02  0.41235112008E+03  0.45692347312E+03  0.12700000000E+03 0.  0.
   -5000001    1    1    2    0    0 -0.13525578397E+03 -0.65745623079E+02  0.36745272273E+03  0.41685383229E+03  0.12700000000E+03 0.  0.
<mgrwt>
<rscale>  0 0.39419887E+03</rscale>
<asrwt>0</asrwt>
<pdfrwt beam="1">  1        2 0.11811294E+00 0.39419887E+03</pdfrwt>
<pdfrwt beam="2">  1       -2 0.67123900E-02 0.39419887E+03</pdfrwt>
<totfact> 0.46815333E+03</totfact>
</mgrwt>
</event>
<event>
 4    1  0.2679255E-004  0.4425721E+03  0.7818608E-02  0.1029961E+00
         -2   -1    0    0    0  501 -0.00000000000E+00  0.00000000000E+00  0.26593287904E+02  0.26593288026E+02  0.25500000000E-02 0. -1.
          2   -1    0    0  501    0  0.00000000000E+00 -0.00000000000E+00 -0.18413483771E+04  0.18413483771E+04  0.25500000000E-02 0.  1.
    5000001    1    1    2    0    0 -0.72382658443E+02 -0.39626935372E+02 -0.15883158387E+04  0.15955205253E+04  0.12700000000E+03 0.  0.
   -5000001    1    1    2    0    0  0.72382658443E+02  0.39626935372E+02 -0.22643925051E+03  0.27242113982E+03  0.12700000000E+03 0.  0.
<mgrwt>
<rscale>  0 0.44257206E+03</rscale>
<asrwt>0</asrwt>
<pdfrwt beam="1">  1        2 0.26304969E+00 0.44257206E+03</pdfrwt>
<pdfrwt beam="2">  1       -2 0.37990423E-02 0.44257206E+03</pdfrwt>
<totfact> 0.31281163E+03</totfact>
</mgrwt>
</event>
<event>
 4    1  0.2679255E-004  0.1823415E+04  0.7818608E-02  0.8693946E-01
         -2   -1    0    0    0  501 -0.00000000000E+00  0.00000000000E+00  0.30447578094E+03  0.30447578095E+03  0.25500000000E-02 0. -1.
          2   -1    0    0  501    0  0.00000000000E+00 -0.00000000000E+00 -0.27299732629E+04  0.27299732629E+04  0.25500000000E-02 0.  1.
    5000001    1    1    2    0    0 -0.69133376246E+03  0.37892120998E+01 -0.24649816147E+03  0.74488057623E+03  0.12700000000E+03 0.  0.
   -5000001    1    1    2    0    0  0.69133376246E+03 -0.37892120998E+01 -0.21789993205E+04  0.22895684676E+04  0.12700000000E+03 0.  0.
<mgrwt>
<rscale>  0 0.18234152E+04</rscale>
<asrwt>0</asrwt>
<pdfrwt beam="1">  1        2 0.38999617E+00 0.18234152E+04</pdfrwt>
<pdfrwt beam="2">  1       -2 0.43496542E-01 0.18234152E+04</pdfrwt>
<totfact> 0.15747509E+01</totfact>
</mgrwt>
</event>
<event>
 4    1  0.2679255E-004  0.4187524E+03  0.7818608E-02  0.1037473E+00
         -2   -1    0    0    0  501 -0.00000000000E+00  0.00000000000E+00  0.17797254512E+02  0.17797254694E+02  0.25500000000E-02 0.  1.
          2   -1    0    0  501    0  0.00000000000E+00 -0.00000000000E+00 -0.24632106595E+04  0.24632106595E+04  0.25500000000E-02 0. -1.
    5000001    1    1    2    0    0 -0.13149572361E+03  0.13318259623E+02 -0.18222763415E+04  0.18314716940E+04  0.12700000000E+03 0.  0.
   -5000001    1    1    2    0    0  0.13149572361E+03 -0.13318259623E+02 -0.62313706347E+03  0.64953622011E+03  0.12700000000E+03 0.  0.
<mgrwt>
<rscale>  0 0.41875237E+03</rscale>
<asrwt>0</asrwt>
<pdfrwt beam="1">  1        2 0.35188702E+00 0.41875237E+03</pdfrwt>
<pdfrwt beam="2">  1       -2 0.25424665E-02 0.41875237E+03</pdfrwt>
<totfact> 0.28111669E+03</totfact>
</mgrwt>
</event>
<event>
 4    1  0.2679255E-004  0.3842270E+03  0.7818608E-02  0.1049382E+00
         -2   -1    0    0    0  501 -0.00000000000E+00  0.00000000000E+00  0.11358387521E+03  0.11358387524E+03  0.25500000000E-02 0. -1.
          2   -1    0    0  501    0  0.00000000000E+00 -0.00000000000E+00 -0.32493701358E+03  0.32493701359E+03  0.25500000000E-02 0.  1.
    5000001    1    1    2    0    0 -0.15311150004E+02 -0.33815720329E+02  0.53291804682E+02  0.14264273799E+03  0.12700000000E+03 0.  0.
   -5000001    1    1    2    0    0  0.15311150004E+02  0.33815720329E+02 -0.26464494305E+03  0.29587815083E+03  0.12700000000E+03 0.  0.
<mgrwt>
<rscale>  0 0.38422704E+03</rscale>
<asrwt>0</asrwt>
<pdfrwt beam="1">  1        2 0.46419573E-01 0.38422704E+03</pdfrwt>
<pdfrwt beam="2">  1       -2 0.16226268E-01 0.38422704E+03</pdfrwt>
<totfact> 0.32814449E+03</totfact>
</mgrwt>
</event>
<event>
 4    1  0.2679255E-004  0.3217911E+03  0.7818608E-02  0.1074828E+00
          2   -1    0    0  501    0  0.00000000000E+00  0.00000000000E+00  0.35898946812E+04  0.35898946812E+04  0.25500000000E-02 0.  1.
         -2   -1    0    0    0  501 -0.00000000000E+00 -0.00000000000E+00 -0.72111813662E+01  0.72111818171E+01  0.25500000000E-02 0. -1.
    5000001    1    1    2    0    0 -0.30739279283E+02 -0.91207277915E+02  0.15427107912E+04  0.15509188426E+04  0.12700000000E+03 0.  0.
   -5000001    1    1    2    0    0  0.30739279283E+02  0.91207277915E+02  0.20399727086E+04  0.20461870204E+04  0.12700000000E+03 0.  0.
<mgrwt>
<rscale>  0 0.32179113E+03</rscale>
<asrwt>0</asrwt>
<pdfrwt beam="1">  1        2 0.51284172E+00 0.32179113E+03</pdfrwt>
<pdfrwt beam="2">  1       -2 0.10301696E-02 0.32179113E+03</pdfrwt>
<totfact> 0.26414658E+03</totfact>
</mgrwt>
</event>
<event>
 4    1  0.2679255E-004  0.4355841E+03  0.7818608E-02  0.1032110E+00
         -2   -1    0    0    0  501 -0.00000000000E+00  0.00000000000E+00  0.36573237259E+02  0.36573237348E+02  0.25500000000E-02 0. -1.
          2   -1    0    0  501    0  0.00000000000E+00 -0.00000000000E+00 -0.12969420653E+04  0.12969420653E+04  0.25500000000E-02 0.  1.
    5000001    1    1    2    0    0  0.23297019709E+02 -0.16695818663E+03 -0.46570254915E+03  0.51129800655E+03  0.12700000000E+03 0.  0.
   -5000001    1    1    2    0    0 -0.23297019709E+02  0.16695818663E+03 -0.79466627893E+03  0.82221729615E+03  0.12700000000E+03 0.  0.
<mgrwt>
<rscale>  0 0.43558407E+03</rscale>
<asrwt>0</asrwt>
<pdfrwt beam="1">  1        2 0.18527741E+00 0.43558407E+03</pdfrwt>
<pdfrwt beam="2">  1       -2 0.52247490E-02 0.43558407E+03</pdfrwt>
<totfact> 0.36505604E+03</totfact>
</mgrwt>
</event>
<event>
 4    1  0.2679255E-004  0.3768302E+03  0.7818608E-02  0.1052112E+00
          2   -1    0    0  501    0  0.00000000000E+00  0.00000000000E+00  0.69598270231E+03  0.69598270232E+03  0.25500000000E-02 0.  1.
         -2   -1    0    0    0  501 -0.00000000000E+00 -0.00000000000E+00 -0.51007365232E+02  0.51007365296E+02  0.25500000000E-02 0. -1.
    5000001    1    1    2    0    0 -0.98782067222E+01  0.12838738430E+03  0.42720005939E+03  0.46390709216E+03  0.12700000000E+03 0.  0.
   -5000001    1    1    2    0    0  0.98782067222E+01 -0.12838738430E+03  0.21777527769E+03  0.28308297545E+03  0.12700000000E+03 0.  0.
<mgrwt>
<rscale>  0 0.37683017E+03</rscale>
<asrwt>0</asrwt>
<pdfrwt beam="1">  1        2 0.99426091E-01 0.37683017E+03</pdfrwt>
<pdfrwt beam="2">  1       -2 0.72867671E-02 0.37683017E+03</pdfrwt>
<totfact> 0.50889549E+03</totfact>
</mgrwt>
</event>
<event>
 4    1  0.2679255E-004  0.3439542E+03  0.7818608E-02  0.1065124E+00
         -2   -1    0    0    0  501 -0.00000000000E+00  0.00000000000E+00  0.88211439398E+01  0.88211443084E+01  0.25500000000E-02 0. -1.
          2   -1    0    0  501    0  0.00000000000E+00 -0.00000000000E+00 -0.33528677702E+04  0.33528677702E+04  0.25500000000E-02 0.  1.
    5000001    1    1    2    0    0  0.50991863368E+02 -0.84836883895E+02 -0.10815731773E+04  0.10934930292E+04  0.12700000000E+03 0.  0.
   -5000001    1    1    2    0    0 -0.50991863368E+02  0.84836883895E+02 -0.22624734490E+04  0.22681958853E+04  0.12700000000E+03 0.  0.
<mgrwt>
<rscale>  0 0.34395424E+03</rscale>
<asrwt>0</asrwt>
<pdfrwt beam="1">  1        2 0.47898030E+00 0.34395424E+03</pdfrwt>
<pdfrwt beam="2">  1       -2 0.12601656E-02 0.34395424E+03</pdfrwt>
<totfact> 0.26928849E+03</totfact>
</mgrwt>
</event>
<event>
 4    1  0.2679255E-004  0.3897932E+03  0.7818608E-02  0.1047372E+00
          2   -1    0    0  501    0  0.00000000000E+00  0.00000000000E+00  0.24385984809E+04  0.24385984809E+04  0.25500000000E-02 0.  1.
         -2   -1    0    0    0  501 -0.00000000000E+00 -0.00000000000E+00 -0.15576439750E+02  0.15576439958E+02  0.25500000000E-02 0. -1.
    5000001    1    1    2    0    0 -0.24254437424E+02  0.92291141012E+02  0.19224332662E+04  0.19289853798E+04  0.12700000000E+03 0.  0.
   -5000001    1    1    2    0    0  0.24254437424E+02 -0.92291141012E+02  0.50058877494E+03  0.52518954106E+03  0.12700000000E+03 0.  0.
<mgrwt>
<rscale>  0 0.38979319E+03</rscale>
<asrwt>0</asrwt>
<pdfrwt beam="1">  1        2 0.34837099E+00 0.38979319E+03</pdfrwt>
<pdfrwt beam="2">  1       -2 0.22252071E-02 0.38979319E+03</pdfrwt>
<totfact> 0.35351285E+03</totfact>
</mgrwt>
</event>
<event>
 4    1  0.2679255E-004  0.6352312E+03  0.7818608E-02  0.9834893E-01
         -2   -1    0    0    0  501 -0.00000000000E+00  0.00000000000E+00  0.70272715418E+02  0.70272715464E+02  0.25500000000E-02 0. -1.
          2   -1    0    0  501    0  0.00000000000E+00 -0.00000000000E+00 -0.14355453647E+04  0.14355453647E+04  0.25500000000E-02 0.  1.
    5000001    1    1    2    0    0  0.58465074345E+02 -0.23312535265E+03 -0.10720422052E+04  0.11059697485E+04  0.12700000000E+03 0.  0.
   -5000001    1    1    2    0    0 -0.58465074345E+02  0.23312535265E+03 -0.29323044409E+03  0.39984833163E+03  0.12700000000E+03 0.  0.
<mgrwt>
<rscale>  0 0.63523120E+03</rscale>
<asrwt>0</asrwt>
<pdfrwt beam="1">  1        2 0.20507789E+00 0.63523120E+03</pdfrwt>
<pdfrwt beam="2">  1       -2 0.10038960E-01 0.63523120E+03</pdfrwt>
<totfact> 0.10929686E+03</totfact>
</mgrwt>
</event>
<event>
 4    1  0.2679255E-004  0.3502454E+03  0.7818608E-02  0.1062514E+00
         -2   -1    0    0    0  501 -0.00000000000E+00  0.00000000000E+00  0.15156994710E+03  0.15156994712E+03  0.25500000000E-02 0. -1.
          2   -1    0    0  501    0  0.00000000000E+00 -0.00000000000E+00 -0.20233538230E+03  0.20233538232E+03  0.25500000000E-02 0.  1.
    5000001    1    1    2    0    0  0.93082871047E+02 -0.30009636051E+02 -0.96646022917E+02  0.18717492590E+03  0.12700000000E+03 0.  0.
   -5000001    1    1    2    0    0 -0.93082871047E+02  0.30009636051E+02  0.45880587717E+02  0.16673040355E+03  0.12700000000E+03 0.  0.
<mgrwt>
<rscale>  0 0.35024542E+03</rscale>
<asrwt>0</asrwt>
<pdfrwt beam="1">  1        2 0.28905054E-01 0.35024542E+03</pdfrwt>
<pdfrwt beam="2">  1       -2 0.21652850E-01 0.35024542E+03</pdfrwt>
<totfact> 0.33609609E+03</totfact>
</mgrwt>
</event>
<event>
 4    1  0.2679255E-004  0.5395876E+03  0.7818608E-02  0.1003933E+00
          2   -1    0    0  501    0  0.00000000000E+00  0.00000000000E+00  0.10440811196E+04  0.10440811196E+04  0.25500000000E-02 0.  1.
         -2   -1    0    0    0  501 -0.00000000000E+00 -0.00000000000E+00 -0.69715562591E+02  0.69715562638E+02  0.25500000000E-02 0. -1.
    5000001    1    1    2    0    0  0.41054907520E+02  0.20554015509E+03  0.72005328951E+03  0.76061685527E+03  0.12700000000E+03 0.  0.
   -5000001    1    1    2    0    0 -0.41054907520E+02 -0.20554015509E+03  0.25431226753E+03  0.35317982700E+03  0.12700000000E+03 0.  0.
<mgrwt>
<rscale>  0 0.53958763E+03</rscale>
<asrwt>0</asrwt>
<pdfrwt beam="1">  1        2 0.14915445E+00 0.53958763E+03</pdfrwt>
<pdfrwt beam="2">  1       -2 0.99593659E-02 0.53958763E+03</pdfrwt>
<totfact> 0.18314029E+03</totfact>
</mgrwt>
</event>
<event>
 4    1  0.2679255E-004  0.3473937E+03  0.7818608E-02  0.1063690E+00
         -2   -1    0    0    0  501 -0.00000000000E+00  0.00000000000E+00  0.37994850819E+03  0.37994850819E+03  0.25500000000E-02 0. -1.
          2   -1    0    0  501    0  0.00000000000E+00 -0.00000000000E+00 -0.79407068039E+02  0.79407068080E+02  0.25500000000E-02 0.  1.
    5000001    1    1    2    0    0  0.11157559468E+02 -0.11736193001E+03  0.13444276403E+03  0.21932207037E+03  0.12700000000E+03 0.  0.
   -5000001    1    1    2    0    0 -0.11157559468E+02  0.11736193001E+03  0.16609867612E+03  0.24003350591E+03  0.12700000000E+03 0.  0.
<mgrwt>
<rscale>  0 0.34739371E+03</rscale>
<asrwt>0</asrwt>
<pdfrwt beam="1">  1        2 0.11343867E-01 0.34739371E+03</pdfrwt>
<pdfrwt beam="2">  1       -2 0.54278359E-01 0.34739371E+03</pdfrwt>
<totfact> 0.17908696E+03</totfact>
</mgrwt>
</event>
<event>
 4    1  0.2679255E-004  0.3977466E+03  0.7818608E-02  0.1044563E+00
         -2   -1    0    0    0  501 -0.00000000000E+00  0.00000000000E+00  0.16462030653E+03  0.16462030655E+03  0.25500000000E-02 0. -1.
          2   -1    0    0  501    0  0.00000000000E+00 -0.00000000000E+00 -0.24025337587E+03  0.24025337589E+03  0.25500000000E-02 0.  1.
    5000001    1    1    2    0    0  0.10338811418E+03  0.31524888924E+02 -0.14810305346E+03  0.22303908899E+03  0.12700000000E+03 0.  0.
   -5000001    1    1    2    0    0 -0.10338811418E+03 -0.31524888924E+02  0.72469984116E+02  0.18183459344E+03  0.12700000000E+03 0.  0.
<mgrwt>
<rscale>  0 0.39774657E+03</rscale>
<asrwt>0</asrwt>
<pdfrwt beam="1">  1        2 0.34321911E-01 0.39774657E+03</pdfrwt>
<pdfrwt beam="2">  1       -2 0.23517187E-01 0.39774657E+03</pdfrwt>
<totfact> 0.24116883E+03</totfact>
</mgrwt>
</event>
<event>
 4    1  0.2679255E-004  0.4642327E+03  0.7818608E-02  0.1023561E+00
         -2   -1    0    0    0  501 -0.00000000000E+00  0.00000000000E+00  0.12459363509E+03  0.12459363511E+03  0.25500000000E-02 0. -1.
          2   -1    0    0  501    0  0.00000000000E+00 -0.00000000000E+00 -0.43242975075E+03  0.43242975075E+03  0.25500000000E-02 0.  1.
    5000001    1    1    2    0    0 -0.10874739045E+03  0.11594608207E+03 -0.28795867347E+03  0.35258855130E+03  0.12700000000E+03 0.  0.
   -5000001    1    1    2    0    0  0.10874739045E+03 -0.11594608207E+03 -0.19877442184E+02  0.20443483457E+03  0.12700000000E+03 0.  0.
<mgrwt>
<rscale>  0 0.46423268E+03</rscale>
<asrwt>0</asrwt>
<pdfrwt beam="1">  1        2 0.61775678E-01 0.46423268E+03</pdfrwt>
<pdfrwt beam="2">  1       -2 0.17799091E-01 0.46423268E+03</pdfrwt>
<totfact> 0.20562345E+03</totfact>
</mgrwt>
</event>
<event>
 4    1  0.2679255E-004  0.3474885E+03  0.7818608E-02  0.1063651E+00
          2   -1    0    0  501    0  0.00000000000E+00  0.00000000000E+00  0.18096021323E+04  0.18096021323E+04  0.25500000000E-02 0.  1.
         -2   -1    0    0    0  501 -0.00000000000E+00 -0.00000000000E+00 -0.16681602263E+02  0.16681602458E+02  0.25500000000E-02 0. -1.
    5000001    1    1    2    0    0  0.11014182824E+03 -0.13392263052E+02  0.67675779199E+03  0.69745299774E+03  0.12700000000E+03 0.  0.
   -5000001    1    1    2    0    0 -0.11014182824E+03  0.13392263052E+02  0.11161627380E+04  0.11288307370E+04  0.12700000000E+03 0.  0.
<mgrwt>
<rscale>  0 0.34748849E+03</rscale>
<asrwt>0</asrwt>
<pdfrwt beam="1">  1        2 0.25851459E+00 0.34748849E+03</pdfrwt>
<pdfrwt beam="2">  1       -2 0.23830861E-02 0.34748849E+03</pdfrwt>
<totfact> 0.65450880E+03</totfact>
</mgrwt>
</event>
<event>
 4    1  0.2679255E-004  0.5268628E+03  0.7818608E-02  0.1006996E+00
          2   -1    0    0  501    0  0.00000000000E+00  0.00000000000E+00  0.65818409770E+03  0.65818409770E+03  0.25500000000E-02 0.  1.
         -2   -1    0    0    0  501 -0.00000000000E+00 -0.00000000000E+00 -0.10543569122E+03  0.10543569125E+03  0.25500000000E-02 0. -1.
    5000001    1    1    2    0    0 -0.23044922296E+03 -0.96114165490E+01  0.26443366961E+03  0.37316670446E+03  0.12700000000E+03 0.  0.
   -5000001    1    1    2    0    0  0.23044922296E+03  0.96114165490E+01  0.28831473687E+03  0.39045308449E+03  0.12700000000E+03 0.  0.
<mgrwt>
<rscale>  0 0.52686277E+03</rscale>
<asrwt>0</asrwt>
<pdfrwt beam="1">  1        2 0.94026296E-01 0.52686277E+03</pdfrwt>
<pdfrwt beam="2">  1       -2 0.15062242E-01 0.52686277E+03</pdfrwt>
<totfact> 0.16864123E+03</totfact>
</mgrwt>
</event>
<event>
 4    1  0.2679255E-004  0.6107260E+03  0.7818608E-02  0.9883400E-01
         -2   -1    0    0    0  501 -0.00000000000E+00  0.00000000000E+00  0.27383831865E+02  0.27383831984E+02  0.25500000000E-02 0. -1.
          2   -1    0    0  501    0  0.00000000000E+00 -0.00000000000E+00 -0.34051686052E+04  0.34051686052E+04  0.25500000000E-02 0.  1.
    5000001    1    1    2    0    0 -0.23414889623E+03 -0.21876874470E+02 -0.25189936355E+04  0.25331328901E+04  0.12700000000E+03 0.  0.
   -5000001    1    1    2    0    0  0.23414889623E+03  0.21876874470E+02 -0.85879113783E+03  0.89941954707E+03  0.12700000000E+03 0.  0.
<mgrwt>
<rscale>  0 0.61072601E+03</rscale>
<asrwt>0</asrwt>
<pdfrwt beam="1">  1        2 0.48645239E+00 0.61072601E+03</pdfrwt>
<pdfrwt beam="2">  1       -2 0.39119781E-02 0.61072601E+03</pdfrwt>
<totfact> 0.44679857E+02</totfact>
</mgrwt>
</event>
<event>
 4    1  0.2679255E-004  0.4897884E+03  0.7818608E-02  0.1016479E+00
          2   -1    0    0  501    0  0.00000000000E+00  0.00000000000E+00  0.20532549320E+04  0.20532549320E+04  0.25500000000E-02 0.  1.
         -2   -1    0    0    0  501 -0.00000000000E+00 -0.00000000000E+00 -0.29208824471E+02  0.29208824582E+02  0.25500000000E-02 0. -1.
    5000001    1    1    2    0    0 -0.31895502402E+02 -0.16556621970E+03  0.15399040773E+04  0.15543046881E+04  0.12700000000E+03 0.  0.
   -5000001    1    1    2    0    0  0.31895502402E+02  0.16556621970E+03  0.48414203018E+03  0.52815906843E+03  0.12700000000E+03 0.  0.
<mgrwt>
<rscale>  0 0.48978837E+03</rscale>
<asrwt>0</asrwt>
<pdfrwt beam="1">  1        2 0.29332214E+00 0.48978837E+03</pdfrwt>
<pdfrwt beam="2">  1       -2 0.41726891E-02 0.48978837E+03</pdfrwt>
<totfact> 0.21226267E+03</totfact>
</mgrwt>
</event>
<event>
 4    1  0.2679255E-004  0.2636699E+03  0.7818608E-02  0.1104958E+00
         -2   -1    0    0    0  501 -0.00000000000E+00  0.00000000000E+00  0.14230188170E+02  0.14230188399E+02  0.25500000000E-02 0. -1.
          2   -1    0    0  501    0  0.00000000000E+00 -0.00000000000E+00 -0.12213793031E+04  0.12213793031E+04  0.25500000000E-02 0.  1.
    5000001    1    1    2    0    0 -0.16557750534E+02  0.76001676548E+01 -0.46147099679E+03  0.47897432346E+03  0.12700000000E+03 0.  0.
   -5000001    1    1    2    0    0  0.16557750534E+02 -0.76001676548E+01 -0.74567811814E+03  0.75663516804E+03  0.12700000000E+03 0.  0.
<mgrwt>
<rscale>  0 0.26366993E+03</rscale>
<asrwt>0</asrwt>
<pdfrwt beam="1">  1        2 0.17448269E+00 0.26366993E+03</pdfrwt>
<pdfrwt beam="2">  1       -2 0.20328848E-02 0.26366993E+03</pdfrwt>
<totfact> 0.16406793E+04</totfact>
</mgrwt>
</event>
<event>
 4    1  0.2679255E-004  0.3063737E+03  0.7818608E-02  0.1082097E+00
          2   -1    0    0  501    0  0.00000000000E+00  0.00000000000E+00  0.91183661758E+03  0.91183661758E+03  0.25500000000E-02 0.  1.
         -2   -1    0    0    0  501 -0.00000000000E+00 -0.00000000000E+00 -0.25735100006E+02  0.25735100132E+02  0.25500000000E-02 0. -1.
    5000001    1    1    2    0    0  0.55472798353E+02  0.60698816153E+02  0.36962906881E+03  0.39939482489E+03  0.12700000000E+03 0.  0.
   -5000001    1    1    2    0    0 -0.55472798353E+02 -0.60698816153E+02  0.51647244876E+03  0.53817689282E+03  0.12700000000E+03 0.  0.
<mgrwt>
<rscale>  0 0.30637367E+03</rscale>
<asrwt>0</asrwt>
<pdfrwt beam="1">  1        2 0.13026237E+00 0.30637367E+03</pdfrwt>
<pdfrwt beam="2">  1       -2 0.36764431E-02 0.30637367E+03</pdfrwt>
<totfact> 0.10302678E+04</totfact>
</mgrwt>
</event>
<event>
 4    1  0.2679255E-004  0.4187228E+03  0.7818608E-02  0.1037483E+00
          2   -1    0    0  501    0  0.00000000000E+00  0.00000000000E+00  0.15244611618E+03  0.15244611620E+03  0.25500000000E-02 0.  1.
         -2   -1    0    0    0  501 -0.00000000000E+00 -0.00000000000E+00 -0.28752583949E+03  0.28752583950E+03  0.25500000000E-02 0. -1.
    5000001    1    1    2    0    0 -0.36155558392E+02 -0.15149927939E+03 -0.58766332520E+01  0.20105419885E+03  0.12700000000E+03 0.  0.
   -5000001    1    1    2    0    0  0.36155558392E+02  0.15149927939E+03 -0.12920309006E+03  0.23891775685E+03  0.12700000000E+03 0.  0.
<mgrwt>
<rscale>  0 0.41872281E+03</rscale>
<asrwt>0</asrwt>
<pdfrwt beam="1">  1        2 0.21778017E-01 0.41872281E+03</pdfrwt>
<pdfrwt beam="2">  1       -2 0.41075120E-01 0.41872281E+03</pdfrwt>
<totfact> 0.14367060E+03</totfact>
</mgrwt>
</event>
<event>
 4    1  0.2679255E-004  0.3012844E+03  0.7818608E-02  0.1084600E+00
         -2   -1    0    0    0  501 -0.00000000000E+00  0.00000000000E+00  0.79201164378E+02  0.79201164419E+02  0.25500000000E-02 0. -1.
          2   -1    0    0  501    0  0.00000000000E+00 -0.00000000000E+00 -0.28652447369E+03  0.28652447370E+03  0.25500000000E-02 0.  1.
    5000001    1    1    2    0    0 -0.67312498140E+02  0.45016654558E+02 -0.10678027436E+03  0.18463070867E+03  0.12700000000E+03 0.  0.
   -5000001    1    1    2    0    0  0.67312498140E+02 -0.45016654558E+02 -0.10054303495E+03  0.18109492945E+03  0.12700000000E+03 0.  0.
<mgrwt>
<rscale>  0 0.30128440E+03</rscale>
<asrwt>0</asrwt>
<pdfrwt beam="1">  1        2 0.40932067E-01 0.30128440E+03</pdfrwt>
<pdfrwt beam="2">  1       -2 0.11314452E-01 0.30128440E+03</pdfrwt>
<totfact> 0.67579122E+03</totfact>
</mgrwt>
</event>
<event>
 4    1  0.2679255E-004  0.4290026E+03  0.7818608E-02  0.1034176E+00
         -2   -1    0    0    0  501 -0.00000000000E+00  0.00000000000E+00  0.48272590318E+02  0.48272590386E+02  0.25500000000E-02 0. -1.
          2   -1    0    0  501    0  0.00000000000E+00 -0.00000000000E+00 -0.95314540525E+03  0.95314540525E+03  0.25500000000E-02 0.  1.
    5000001    1    1    2    0    0  0.81996974376E+02  0.92873687383E+02 -0.73384007008E+03  0.75498296277E+03  0.12700000000E+03 0.  0.
   -5000001    1    1    2    0    0 -0.81996974376E+02 -0.92873687383E+02 -0.17103274485E+03  0.24643503287E+03  0.12700000000E+03 0.  0.
<mgrwt>
<rscale>  0 0.42900255E+03</rscale>
<asrwt>0</asrwt>
<pdfrwt beam="1">  1        2 0.13616362E+00 0.42900255E+03</pdfrwt>
<pdfrwt beam="2">  1       -2 0.68960849E-02 0.42900255E+03</pdfrwt>
<totfact> 0.37282883E+03</totfact>
</mgrwt>
</event>
<event>
 4    1  0.2679255E-004  0.3659146E+03  0.7818608E-02  0.1056266E+00
         -2   -1    0    0    0  501 -0.00000000000E+00  0.00000000000E+00  0.32623542460E+02  0.32623542560E+02  0.25500000000E-02 0. -1.
          2   -1    0    0  501    0  0.00000000000E+00 -0.00000000000E+00 -0.10260497673E+04  0.10260497673E+04  0.25500000000E-02 0.  1.
    5000001    1    1    2    0    0  0.61613289666E+02  0.54385683239E+02 -0.79445362469E+03  0.80872712443E+03  0.12700000000E+03 0.  0.
   -5000001    1    1    2    0    0 -0.61613289666E+02 -0.54385683239E+02 -0.19897260017E+03  0.24994618546E+03  0.12700000000E+03 0.  0.
<mgrwt>
<rscale>  0 0.36591463E+03</rscale>
<asrwt>0</asrwt>
<pdfrwt beam="1">  1        2 0.14657852E+00 0.36591463E+03</pdfrwt>
<pdfrwt beam="2">  1       -2 0.46605067E-02 0.36591463E+03</pdfrwt>
<totfact> 0.61603747E+03</totfact>
</mgrwt>
</event>
<event>
 4    1  0.2679255E-004  0.7869948E+03  0.7818608E-02  0.9579035E-01
         -2   -1    0    0    0  501 -0.00000000000E+00  0.00000000000E+00  0.37823008583E+02  0.37823008669E+02  0.25500000000E-02 0. -1.
          2   -1    0    0  501    0  0.00000000000E+00 -0.00000000000E+00 -0.40938102095E+04  0.40938102095E+04  0.25500000000E-02 0.  1.
    5000001    1    1    2    0    0 -0.28034903020E+03 -0.24118132102E+03 -0.22596564163E+04  0.22932379136E+04  0.12700000000E+03 0.  0.
   -5000001    1    1    2    0    0  0.28034903020E+03  0.24118132102E+03 -0.17963307846E+04  0.18383953046E+04  0.12700000000E+03 0.  0.
<mgrwt>
<rscale>  0 0.78699484E+03</rscale>
<asrwt>0</asrwt>
<pdfrwt beam="1">  1        2 0.58482975E+00 0.78699484E+03</pdfrwt>
<pdfrwt beam="2">  1       -2 0.54032896E-02 0.78699484E+03</pdfrwt>
<totfact> 0.97294214E+01</totfact>
</mgrwt>
</event>
<event>
 4    1  0.2679255E-004  0.4004155E+03  0.7818608E-02  0.1043636E+00
          2   -1    0    0  501    0  0.00000000000E+00  0.00000000000E+00  0.17619915253E+04  0.17619915253E+04  0.25500000000E-02 0.  1.
         -2   -1    0    0    0  501 -0.00000000000E+00 -0.00000000000E+00 -0.22748772664E+02  0.22748772807E+02  0.25500000000E-02 0. -1.
    5000001    1    1    2    0    0 -0.13748263666E+03  0.71057348501E+02  0.86125578552E+03  0.88421781833E+03  0.12700000000E+03 0.  0.
   -5000001    1    1    2    0    0  0.13748263666E+03 -0.71057348501E+02  0.87798696709E+03  0.90052247975E+03  0.12700000000E+03 0.  0.
<mgrwt>
<rscale>  0 0.40041551E+03</rscale>
<asrwt>0</asrwt>
<pdfrwt beam="1">  1        2 0.25171311E+00 0.40041551E+03</pdfrwt>
<pdfrwt beam="2">  1       -2 0.32498242E-02 0.40041551E+03</pdfrwt>
<totfact> 0.43434462E+03</totfact>
</mgrwt>
</event>
<event>
 4    1  0.2679255E-004  0.3276603E+03  0.7818608E-02  0.1072177E+00
          2   -1    0    0  501    0  0.00000000000E+00  0.00000000000E+00  0.28213812690E+03  0.28213812691E+03  0.25500000000E-02 0.  1.
         -2   -1    0    0    0  501 -0.00000000000E+00 -0.00000000000E+00 -0.95131827638E+02  0.95131827672E+02  0.25500000000E-02 0. -1.
    5000001    1    1    2    0    0  0.25983804217E+02  0.70053058079E+02  0.17596122435E+03  0.22950804235E+03  0.12700000000E+03 0.  0.
   -5000001    1    1    2    0    0 -0.25983804217E+02 -0.70053058079E+02  0.11045074912E+02  0.14776191224E+03  0.12700000000E+03 0.  0.
<mgrwt>
<rscale>  0 0.32766029E+03</rscale>
<asrwt>0</asrwt>
<pdfrwt beam="1">  1        2 0.40305448E-01 0.32766029E+03</pdfrwt>
<pdfrwt beam="2">  1       -2 0.13590261E-01 0.32766029E+03</pdfrwt>
<totfact> 0.51151332E+03</totfact>
</mgrwt>
</event>
<event>
 4    1  0.2679255E-004  0.3852570E+03  0.7818608E-02  0.1049008E+00
          2   -1    0    0  501    0  0.00000000000E+00  0.00000000000E+00  0.53336222630E+03  0.53336222631E+03  0.25500000000E-02 0.  1.
         -2   -1    0    0    0  501 -0.00000000000E+00 -0.00000000000E+00 -0.69569492112E+02  0.69569492158E+02  0.25500000000E-02 0. -1.
    5000001    1    1    2    0    0  0.72273322239E+02 -0.11428516651E+03  0.31309931613E+03  0.36392954559E+03  0.12700000000E+03 0.  0.
   -5000001    1    1    2    0    0 -0.72273322239E+02  0.11428516651E+03  0.15069341806E+03  0.23900217288E+03  0.12700000000E+03 0.  0.
<mgrwt>
<rscale>  0 0.38525700E+03</rscale>
<asrwt>0</asrwt>
<pdfrwt beam="1">  1        2 0.76194606E-01 0.38525700E+03</pdfrwt>
<pdfrwt beam="2">  1       -2 0.99384986E-02 0.38525700E+03</pdfrwt>
<totfact> 0.42440952E+03</totfact>
</mgrwt>
</event>
<event>
 4    1  0.2679255E-004  0.4449832E+03  0.7818608E-02  0.1029229E+00
         -2   -1    0    0    0  501 -0.00000000000E+00  0.00000000000E+00  0.21872080189E+02  0.21872080338E+02  0.25500000000E-02 0. -1.
          2   -1    0    0  501    0  0.00000000000E+00 -0.00000000000E+00 -0.22632743975E+04  0.22632743975E+04  0.25500000000E-02 0.  1.
    5000001    1    1    2    0    0  0.17692752518E+03 -0.33211721611E+01 -0.88767035787E+03  0.91400330612E+03  0.12700000000E+03 0.  0.
   -5000001    1    1    2    0    0 -0.17692752518E+03  0.33211721611E+01 -0.13537319595E+04  0.13711431717E+04  0.12700000000E+03 0.  0.
<mgrwt>
<rscale>  0 0.44498323E+03</rscale>
<asrwt>0</asrwt>
<pdfrwt beam="1">  1        2 0.32332477E+00 0.44498323E+03</pdfrwt>
<pdfrwt beam="2">  1       -2 0.31245843E-02 0.44498323E+03</pdfrwt>
<totfact> 0.25944062E+03</totfact>
</mgrwt>
</event>
<event>
 4    1  0.2679255E-004  0.3184625E+03  0.7818608E-02  0.1076359E+00
          2   -1    0    0  501    0  0.00000000000E+00  0.00000000000E+00  0.35316004261E+04  0.35316004261E+04  0.25500000000E-02 0.  1.
         -2   -1    0    0    0  501 -0.00000000000E+00 -0.00000000000E+00 -0.71793507082E+01  0.71793511611E+01  0.25500000000E-02 0. -1.
    5000001    1    1    2    0    0  0.26794963642E+02 -0.89711397350E+02  0.15240142110E+04  0.15321600504E+04  0.12700000000E+03 0.  0.
   -5000001    1    1    2    0    0 -0.26794963642E+02  0.89711397350E+02  0.20004068644E+04  0.20066197268E+04  0.12700000000E+03 0.  0.
<mgrwt>
<rscale>  0 0.31846255E+03</rscale>
<asrwt>0</asrwt>
<pdfrwt beam="1">  1        2 0.50451390E+00 0.31846255E+03</pdfrwt>
<pdfrwt beam="2">  1       -2 0.10256225E-02 0.31846255E+03</pdfrwt>
<totfact> 0.28787240E+03</totfact>
</mgrwt>
</event>
<event>
 4    1  0.2679255E-004  0.5633757E+03  0.7818608E-02  0.9984445E-01
         -2   -1    0    0    0  501 -0.00000000000E+00  0.00000000000E+00  0.34211618868E+02  0.34211618963E+02  0.25500000000E-02 0. -1.
          2   -1    0    0  501    0  0.00000000000E+00 -0.00000000000E+00 -0.23193301687E+04  0.23193301687E+04  0.25500000000E-02 0.  1.
    5000001    1    1    2    0    0  0.15701647854E+02  0.10495674028E+03 -0.20947941825E+04  0.21013219949E+04  0.12700000000E+03 0.  0.
   -5000001    1    1    2    0    0 -0.15701647854E+02 -0.10495674028E+03 -0.19032436731E+03  0.25221979278E+03  0.12700000000E+03 0.  0.
<mgrwt>
<rscale>  0 0.56337568E+03</rscale>
<asrwt>0</asrwt>
<pdfrwt beam="1">  1        2 0.33133278E+00 0.56337568E+03</pdfrwt>
<pdfrwt beam="2">  1       -2 0.48873756E-02 0.56337568E+03</pdfrwt>
<totfact> 0.12190001E+03</totfact>
</mgrwt>
</event>
<event>
 4    1  0.2679255E-004  0.5677348E+03  0.7818608E-02  0.9974704E-01
         -2   -1    0    0    0  501 -0.00000000000E+00  0.00000000000E+00  0.33420688940E+03  0.33420688941E+03  0.25500000000E-02 0. -1.
          2   -1    0    0  501    0  0.00000000000E+00 -0.00000000000E+00 -0.24111023852E+03  0.24111023853E+03  0.25500000000E-02 0.  1.
    5000001    1    1    2    0    0 -0.18003029208E+03  0.14563205287E+03 -0.58919053162E+02  0.27059204666E+03  0.12700000000E+03 0.  0.
   -5000001    1    1    2    0    0  0.18003029208E+03 -0.14563205287E+03  0.15201570404E+03  0.30472508129E+03  0.12700000000E+03 0.  0.
<mgrwt>
<rscale>  0 0.56773481E+03</rscale>
<asrwt>0</asrwt>
<pdfrwt beam="1">  1        2 0.34444320E-01 0.56773481E+03</pdfrwt>
<pdfrwt beam="2">  1       -2 0.47743841E-01 0.56773481E+03</pdfrwt>
<totfact> 0.63711312E+02</totfact>
</mgrwt>
</event>
<event>
 4    1  0.2679255E-004  0.4391411E+03  0.7818608E-02  0.1031011E+00
          2   -1    0    0  501    0  0.00000000000E+00  0.00000000000E+00  0.68491401292E+03  0.68491401292E+03  0.25500000000E-02 0.  1.
         -2   -1    0    0    0  501 -0.00000000000E+00 -0.00000000000E+00 -0.70390193750E+02  0.70390193796E+02  0.25500000000E-02 0. -1.
    5000001    1    1    2    0    0 -0.10005181224E+03  0.86557183068E+02  0.99583007696E+02  0.20868226205E+03  0.12700000000E+03 0.  0.
   -5000001    1    1    2    0    0  0.10005181224E+03 -0.86557183068E+02  0.51494081147E+03  0.54662194467E+03  0.12700000000E+03 0.  0.
<mgrwt>
<rscale>  0 0.43914112E+03</rscale>
<asrwt>0</asrwt>
<pdfrwt beam="1">  1        2 0.97844862E-01 0.43914112E+03</pdfrwt>
<pdfrwt beam="2">  1       -2 0.10055742E-01 0.43914112E+03</pdfrwt>
<totfact> 0.31193015E+03</totfact>
</mgrwt>
</event>
<event>
 4    1  0.2679255E-004  0.8313729E+03  0.7818608E-02  0.9515684E-01
         -2   -1    0    0    0  501 -0.00000000000E+00  0.00000000000E+00  0.23333157692E+03  0.23333157694E+03  0.25500000000E-02 0. -1.
          2   -1    0    0  501    0  0.00000000000E+00 -0.00000000000E+00 -0.74055651327E+03  0.74055651328E+03  0.25500000000E-02 0.  1.
    5000001    1    1    2    0    0  0.11095392070E+03  0.24524456829E+03 -0.59354790910E+03  0.66399080656E+03  0.12700000000E+03 0.  0.
   -5000001    1    1    2    0    0 -0.11095392070E+03 -0.24524456829E+03  0.86322972750E+02  0.30989728366E+03  0.12700000000E+03 0.  0.
<mgrwt>
<rscale>  0 0.83137289E+03</rscale>
<asrwt>0</asrwt>
<pdfrwt beam="1">  1        2 0.10579379E+00 0.83137289E+03</pdfrwt>
<pdfrwt beam="2">  1       -2 0.33333083E-01 0.83137289E+03</pdfrwt>
<totfact> 0.35360008E+02</totfact>
</mgrwt>
</event>
<event>
 4    1  0.2679255E-004  0.4678201E+03  0.7818608E-02  0.1022537E+00
         -2   -1    0    0    0  501 -0.00000000000E+00  0.00000000000E+00  0.37397368814E+03  0.37397368815E+03  0.25500000000E-02 0. -1.
          2   -1    0    0  501    0  0.00000000000E+00 -0.00000000000E+00 -0.14630414268E+03  0.14630414270E+03  0.25500000000E-02 0.  1.
    5000001    1    1    2    0    0 -0.36570594355E+02 -0.19199539154E+03  0.92005761435E+02  0.25058670931E+03  0.12700000000E+03 0.  0.
   -5000001    1    1    2    0    0  0.36570594355E+02  0.19199539154E+03  0.13566378403E+03  0.26969112155E+03  0.12700000000E+03 0.  0.
<mgrwt>
<rscale>  0 0.46782005E+03</rscale>
<asrwt>0</asrwt>
<pdfrwt beam="1">  1        2 0.20900592E-01 0.46782005E+03</pdfrwt>
<pdfrwt beam="2">  1       -2 0.53424812E-01 0.46782005E+03</pdfrwt>
<totfact> 0.89359391E+02</totfact>
</mgrwt>
</event>
<event>
 4    1  0.2679255E-004  0.3305544E+03  0.7818608E-02  0.1070892E+00
         -2   -1    0    0    0  501 -0.00000000000E+00  0.00000000000E+00  0.57434496154E+02  0.57434496210E+02  0.25500000000E-02 0. -1.
          2   -1    0    0  501    0  0.00000000000E+00 -0.00000000000E+00 -0.47561216868E+03  0.47561216869E+03  0.25500000000E-02 0.  1.
    5000001    1    1    2    0    0  0.76583336526E+02 -0.54674097731E+02 -0.13119450370E+03  0.20541485389E+03  0.12700000000E+03 0.  0.
   -5000001    1    1    2    0    0 -0.76583336526E+02  0.54674097731E+02 -0.28698316883E+03  0.32763181101E+03  0.12700000000E+03 0.  0.
<mgrwt>
<rscale>  0 0.33055435E+03</rscale>
<asrwt>0</asrwt>
<pdfrwt beam="1">  1        2 0.67944593E-01 0.33055435E+03</pdfrwt>
<pdfrwt beam="2">  1       -2 0.82049283E-02 0.33055435E+03</pdfrwt>
<totfact> 0.65156869E+03</totfact>
</mgrwt>
</event>
<event>
 4    1  0.2679255E-004  0.4382891E+03  0.7818608E-02  0.1031273E+00
          2   -1    0    0  501    0  0.00000000000E+00  0.00000000000E+00  0.49469459770E+03  0.49469459770E+03  0.25500000000E-02 0.  1.
         -2   -1    0    0    0  501 -0.00000000000E+00 -0.00000000000E+00 -0.97078744799E+02  0.97078744832E+02  0.25500000000E-02 0. -1.
    5000001    1    1    2    0    0  0.23182146936E+01  0.96487877501E+02 -0.40804435457E+01  0.15956482897E+03  0.12700000000E+03 0.  0.
   -5000001    1    1    2    0    0 -0.23182146936E+01 -0.96487877501E+02  0.40169629645E+03  0.43220851357E+03  0.12700000000E+03 0.  0.
<mgrwt>
<rscale>  0 0.43828909E+03</rscale>
<asrwt>0</asrwt>
<pdfrwt beam="1">  1        2 0.70670655E-01 0.43828909E+03</pdfrwt>
<pdfrwt beam="2">  1       -2 0.13868392E-01 0.43828909E+03</pdfrwt>
<totfact> 0.26904856E+03</totfact>
</mgrwt>
</event>
<event>
 4    1  0.2679255E-004  0.7280162E+03  0.7818608E-02  0.9670485E-01
          2   -1    0    0  501    0  0.00000000000E+00  0.00000000000E+00  0.11521965898E+04  0.11521965898E+04  0.25500000000E-02 0.  1.
         -2   -1    0    0    0  501 -0.00000000000E+00 -0.00000000000E+00 -0.11499937505E+03  0.11499937508E+03  0.25500000000E-02 0. -1.
    5000001    1    1    2    0    0 -0.86399526593E+02  0.19939922863E+03  0.60886468874E+02  0.25896156600E+03  0.12700000000E+03 0.  0.
   -5000001    1    1    2    0    0  0.86399526593E+02 -0.19939922863E+03  0.97631074589E+03  0.10082343989E+04  0.12700000000E+03 0.  0.
<mgrwt>
<rscale>  0 0.72801618E+03</rscale>
<asrwt>0</asrwt>
<pdfrwt beam="1">  1        2 0.16459951E+00 0.72801618E+03</pdfrwt>
<pdfrwt beam="2">  1       -2 0.16428482E-01 0.72801618E+03</pdfrwt>
<totfact> 0.68688746E+02</totfact>
</mgrwt>
</event>
<event>
 4    1  0.2679255E-004  0.5165820E+03  0.7818608E-02  0.1009539E+00
         -2   -1    0    0    0  501 -0.00000000000E+00  0.00000000000E+00  0.45457513953E+02  0.45457514025E+02  0.25500000000E-02 0. -1.
          2   -1    0    0  501    0  0.00000000000E+00 -0.00000000000E+00 -0.14676174059E+04  0.14676174059E+04  0.25500000000E-02 0.  1.
    5000001    1    1    2    0    0  0.13532705175E+03 -0.17840546881E+03 -0.64940935223E+03  0.69857242216E+03  0.12700000000E+03 0.  0.
   -5000001    1    1    2    0    0 -0.13532705175E+03  0.17840546881E+03 -0.77275053967E+03  0.81450249772E+03  0.12700000000E+03 0.  0.
<mgrwt>
<rscale>  0 0.51658199E+03</rscale>
<asrwt>0</asrwt>
<pdfrwt beam="1">  1        2 0.20965960E+00 0.51658199E+03</pdfrwt>
<pdfrwt beam="2">  1       -2 0.64939315E-02 0.51658199E+03</pdfrwt>
<totfact> 0.21132111E+03</totfact>
</mgrwt>
</event>
<event>
 4    1  0.2679255E-004  0.5421353E+03  0.7818608E-02  0.1003331E+00
         -2   -1    0    0    0  501 -0.00000000000E+00  0.00000000000E+00  0.57181520946E+02  0.57181521003E+02  0.25500000000E-02 0. -1.
          2   -1    0    0  501    0  0.00000000000E+00 -0.00000000000E+00 -0.12849896054E+04  0.12849896054E+04  0.25500000000E-02 0.  1.
    5000001    1    1    2    0    0  0.21439536686E+03  0.10626281551E+03 -0.59022235506E+03  0.64942173331E+03  0.12700000000E+03 0.  0.
   -5000001    1    1    2    0    0 -0.21439536686E+03 -0.10626281551E+03 -0.63758572935E+03  0.69274939305E+03  0.12700000000E+03 0.  0.
<mgrwt>
<rscale>  0 0.54213526E+03</rscale>
<asrwt>0</asrwt>
<pdfrwt beam="1">  1        2 0.18356993E+00 0.54213526E+03</pdfrwt>
<pdfrwt beam="2">  1       -2 0.81687895E-02 0.54213526E+03</pdfrwt>
<totfact> 0.18381683E+03</totfact>
</mgrwt>
</event>
<event>
 4    1  0.2679255E-004  0.4588015E+03  0.7818608E-02  0.1025129E+00
          2   -1    0    0  501    0  0.00000000000E+00  0.00000000000E+00  0.82353066444E+03  0.82353066444E+03  0.25500000000E-02 0.  1.
         -2   -1    0    0    0  501 -0.00000000000E+00 -0.00000000000E+00 -0.63901335528E+02  0.63901335578E+02  0.25500000000E-02 0. -1.
    5000001    1    1    2    0    0 -0.14610821311E+03 -0.12217591194E+03  0.40857869314E+03  0.46833760461E+03  0.12700000000E+03 0.  0.
   -5000001    1    1    2    0    0  0.14610821311E+03  0.12217591194E+03  0.35105063576E+03  0.41909439541E+03  0.12700000000E+03 0.  0.
<mgrwt>
<rscale>  0 0.45880152E+03</rscale>
<asrwt>0</asrwt>
<pdfrwt beam="1">  1        2 0.11764724E+00 0.45880152E+03</pdfrwt>
<pdfrwt beam="2">  1       -2 0.91287624E-02 0.45880152E+03</pdfrwt>
<totfact> 0.29007499E+03</totfact>
</mgrwt>
</event>
<event>
 4    1  0.2679255E-004  0.3121860E+03  0.7818608E-02  0.1079303E+00
          2   -1    0    0  501    0  0.00000000000E+00  0.00000000000E+00  0.19933167732E+04  0.19933167732E+04  0.25500000000E-02 0.  1.
         -2   -1    0    0    0  501 -0.00000000000E+00 -0.00000000000E+00 -0.12223361335E+02  0.12223361600E+02  0.25500000000E-02 0. -1.
    5000001    1    1    2    0    0  0.52990013172E+02 -0.72799116558E+02  0.91775797497E+03  0.93086860163E+03  0.12700000000E+03 0.  0.
   -5000001    1    1    2    0    0 -0.52990013172E+02  0.72799116558E+02  0.10633354369E+04  0.10746715332E+04  0.12700000000E+03 0.  0.
<mgrwt>
<rscale>  0 0.31218604E+03</rscale>
<asrwt>0</asrwt>
<pdfrwt beam="1">  1        2 0.28475924E+00 0.31218604E+03</pdfrwt>
<pdfrwt beam="2">  1       -2 0.17461963E-02 0.31218604E+03</pdfrwt>
<totfact> 0.84160955E+03</totfact>
</mgrwt>
</event>
<event>
 4    1  0.2679255E-004  0.4389971E+03  0.7818608E-02  0.1031055E+00
          2   -1    0    0  501    0  0.00000000000E+00  0.00000000000E+00  0.87500092281E+03  0.87500092282E+03  0.25500000000E-02 0.  1.
         -2   -1    0    0    0  501 -0.00000000000E+00 -0.00000000000E+00 -0.55062355944E+02  0.55062356003E+02  0.25500000000E-02 0. -1.
    5000001    1    1    2    0    0  0.87290718559E+02 -0.15484773999E+03  0.36487125593E+03  0.42527347146E+03  0.12700000000E+03 0.  0.
   -5000001    1    1    2    0    0 -0.87290718559E+02  0.15484773999E+03  0.45506731094E+03  0.50478980736E+03  0.12700000000E+03 0.  0.
<mgrwt>
<rscale>  0 0.43899709E+03</rscale>
<asrwt>0</asrwt>
<pdfrwt beam="1">  1        2 0.12500014E+00 0.43899709E+03</pdfrwt>
<pdfrwt beam="2">  1       -2 0.78660506E-02 0.43899709E+03</pdfrwt>
<totfact> 0.33970237E+03</totfact>
</mgrwt>
</event>
<event>
 4    1  0.2679255E-004  0.3564917E+03  0.7818608E-02  0.1059982E+00
         -2   -1    0    0    0  501 -0.00000000000E+00  0.00000000000E+00  0.17978714156E+02  0.17978714337E+02  0.25500000000E-02 0. -1.
          2   -1    0    0  501    0  0.00000000000E+00 -0.00000000000E+00 -0.17671774353E+04  0.17671774353E+04  0.25500000000E-02 0.  1.
    5000001    1    1    2    0    0  0.89811051811E+02  0.60179038941E+02 -0.55967804117E+03  0.58400004411E+03  0.12700000000E+03 0.  0.
   -5000001    1    1    2    0    0 -0.89811051811E+02 -0.60179038941E+02 -0.11895206799E+04  0.12011561055E+04  0.12700000000E+03 0.  0.
<mgrwt>
<rscale>  0 0.35649167E+03</rscale>
<asrwt>0</asrwt>
<pdfrwt beam="1">  1        2 0.25245381E+00 0.35649167E+03</pdfrwt>
<pdfrwt beam="2">  1       -2 0.25683889E-02 0.35649167E+03</pdfrwt>
<totfact> 0.61449419E+03</totfact>
</mgrwt>
</event>
<event>
 4    1  0.2679255E-004  0.3634939E+03  0.7818608E-02  0.1057209E+00
         -2   -1    0    0    0  501 -0.00000000000E+00  0.00000000000E+00  0.24655390635E+03  0.24655390637E+03  0.25500000000E-02 0. -1.
          2   -1    0    0  501    0  0.00000000000E+00 -0.00000000000E+00 -0.13397458318E+03  0.13397458320E+03  0.25500000000E-02 0.  1.
    5000001    1    1    2    0    0  0.10498283049E+03  0.15366831781E+01  0.13655890606E+03  0.21401189433E+03  0.12700000000E+03 0.  0.
   -5000001    1    1    2    0    0 -0.10498283049E+03 -0.15366831781E+01 -0.23979582880E+02  0.16651659523E+03  0.12700000000E+03 0.  0.
<mgrwt>
<rscale>  0 0.36349392E+03</rscale>
<asrwt>0</asrwt>
<pdfrwt beam="1">  1        2 0.19139226E-01 0.36349392E+03</pdfrwt>
<pdfrwt beam="2">  1       -2 0.35221986E-01 0.36349392E+03</pdfrwt>
<totfact> 0.22314280E+03</totfact>
</mgrwt>
</event>
<event>
 4    1  0.2679255E-004  0.3834889E+03  0.7818608E-02  0.1049652E+00
          2   -1    0    0  501    0  0.00000000000E+00  0.00000000000E+00  0.61520914552E+03  0.61520914552E+03  0.25500000000E-02 0. -1.
         -2   -1    0    0    0  501 -0.00000000000E+00 -0.00000000000E+00 -0.59761674659E+02  0.59761674713E+02  0.25500000000E-02 0.  1.
    5000001    1    1    2    0    0  0.97436839144E+01 -0.10305792687E+03  0.45303552367E+03  0.48175311247E+03  0.12700000000E+03 0.  0.
   -5000001    1    1    2    0    0 -0.97436839144E+01  0.10305792687E+03  0.10241194719E+03  0.19321770776E+03  0.12700000000E+03 0.  0.
<mgrwt>
<rscale>  0 0.38348887E+03</rscale>
<asrwt>0</asrwt>
<pdfrwt beam="1">  1        2 0.87887021E-01 0.38348887E+03</pdfrwt>
<pdfrwt beam="2">  1       -2 0.85373820E-02 0.38348887E+03</pdfrwt>
<totfact> 0.45894715E+03</totfact>
</mgrwt>
</event>
<event>
 4    1  0.2679255E-004  0.4446075E+03  0.7818608E-02  0.1029342E+00
          2   -1    0    0  501    0  0.00000000000E+00  0.00000000000E+00  0.16809216644E+04  0.16809216644E+04  0.25500000000E-02 0.  1.
         -2   -1    0    0    0  501 -0.00000000000E+00 -0.00000000000E+00 -0.29399912450E+02  0.29399912561E+02  0.25500000000E-02 0. -1.
    5000001    1    1    2    0    0 -0.91251684132E+02 -0.15514590556E+03  0.94070450969E+03  0.96615272935E+03  0.12700000000E+03 0.  0.
   -5000001    1    1    2    0    0  0.91251684132E+02  0.15514590556E+03  0.71081724223E+03  0.74416884759E+03  0.12700000000E+03 0.  0.
<mgrwt>
<rscale>  0 0.44460747E+03</rscale>
<asrwt>0</asrwt>
<pdfrwt beam="1">  1        2 0.24013161E+00 0.44460747E+03</pdfrwt>
<pdfrwt beam="2">  1       -2 0.41999885E-02 0.44460747E+03</pdfrwt>
<totfact> 0.32296979E+03</totfact>
</mgrwt>
</event>
<event>
 4    1  0.2679255E-004  0.3059937E+03  0.7818608E-02  0.1082282E+00
         -2   -1    0    0    0  501 -0.00000000000E+00  0.00000000000E+00  0.13591533839E+02  0.13591534078E+02  0.25500000000E-02 0.  1.
          2   -1    0    0  501    0  0.00000000000E+00 -0.00000000000E+00 -0.17222516046E+04  0.17222516046E+04  0.25500000000E-02 0. -1.
    5000001    1    1    2    0    0 -0.12682480335E+02  0.84136174957E+02 -0.81876740893E+03  0.83291584879E+03  0.12700000000E+03 0.  0.
   -5000001    1    1    2    0    0  0.12682480335E+02 -0.84136174957E+02 -0.88989266184E+03  0.90292728990E+03  0.12700000000E+03 0.  0.
<mgrwt>
<rscale>  0 0.30599373E+03</rscale>
<asrwt>0</asrwt>
<pdfrwt beam="1">  1        2 0.24603580E+00 0.30599373E+03</pdfrwt>
<pdfrwt beam="2">  1       -2 0.19416488E-02 0.30599373E+03</pdfrwt>
<totfact> 0.97786705E+03</totfact>
</mgrwt>
</event>
<event>
 4    1  0.2679255E-004  0.3328007E+03  0.7818608E-02  0.1069904E+00
         -2   -1    0    0    0  501 -0.00000000000E+00  0.00000000000E+00  0.33968250572E+02  0.33968250667E+02  0.25500000000E-02 0. -1.
          2   -1    0    0  501    0  0.00000000000E+00 -0.00000000000E+00 -0.81514579980E+03  0.81514579981E+03  0.25500000000E-02 0.  1.
    5000001    1    1    2    0    0 -0.53539809131E+02  0.27507032843E+02 -0.61789327577E+03  0.63367519145E+03  0.12700000000E+03 0.  0.
   -5000001    1    1    2    0    0  0.53539809131E+02 -0.27507032843E+02 -0.16328427346E+03  0.21543885902E+03  0.12700000000E+03 0.  0.
<mgrwt>
<rscale>  0 0.33280070E+03</rscale>
<asrwt>0</asrwt>
<pdfrwt beam="1">  1        2 0.11644939E+00 0.33280070E+03</pdfrwt>
<pdfrwt beam="2">  1       -2 0.48526077E-02 0.33280070E+03</pdfrwt>
<totfact> 0.78321010E+03</totfact>
</mgrwt>
</event>
<event>
 4    1  0.2679255E-004  0.3102045E+03  0.7818608E-02  0.1080248E+00
          2   -1    0    0  501    0  0.00000000000E+00  0.00000000000E+00  0.74425451368E+03  0.74425451368E+03  0.25500000000E-02 0.  1.
         -2   -1    0    0    0  501 -0.00000000000E+00 -0.00000000000E+00 -0.32323220372E+02  0.32323220473E+02  0.25500000000E-02 0. -1.
    5000001    1    1    2    0    0  0.70963105866E+02  0.15143345099E+02  0.48514450278E+03  0.50671419150E+03  0.12700000000E+03 0.  0.
   -5000001    1    1    2    0    0 -0.70963105866E+02 -0.15143345099E+02  0.22678679053E+03  0.26986354265E+03  0.12700000000E+03 0.  0.
<mgrwt>
<rscale>  0 0.31020447E+03</rscale>
<asrwt>0</asrwt>
<pdfrwt beam="1">  1        2 0.10632208E+00 0.31020447E+03</pdfrwt>
<pdfrwt beam="2">  1       -2 0.46176024E-02 0.31020447E+03</pdfrwt>
<totfact> 0.94315132E+03</totfact>
</mgrwt>
</event>
<event>
 4    1  0.2679255E-004  0.4290867E+03  0.7818608E-02  0.1034149E+00
          2   -1    0    0  501    0  0.00000000000E+00  0.00000000000E+00  0.38508127591E+03  0.38508127592E+03  0.25500000000E-02 0.  1.
         -2   -1    0    0    0  501 -0.00000000000E+00 -0.00000000000E+00 -0.11953024347E+03  0.11953024349E+03  0.25500000000E-02 0. -1.
    5000001    1    1    2    0    0 -0.17217532173E+03  0.11022647205E+02  0.14638978915E+03  0.25947024980E+03  0.12700000000E+03 0.  0.
   -5000001    1    1    2    0    0  0.17217532173E+03 -0.11022647205E+02  0.11916124330E+03  0.24514126961E+03  0.12700000000E+03 0.  0.
<mgrwt>
<rscale>  0 0.42908674E+03</rscale>
<asrwt>0</asrwt>
<pdfrwt beam="1">  1        2 0.55011611E-01 0.42908674E+03</pdfrwt>
<pdfrwt beam="2">  1       -2 0.17075749E-01 0.42908674E+03</pdfrwt>
<totfact> 0.25054376E+03</totfact>
</mgrwt>
</event>
<event>
 4    1  0.2679255E-004  0.3874630E+03  0.7818608E-02  0.1048209E+00
         -2   -1    0    0    0  501 -0.00000000000E+00  0.00000000000E+00  0.26061334090E+02  0.26061334215E+02  0.25500000000E-02 0. -1.
          2   -1    0    0  501    0  0.00000000000E+00 -0.00000000000E+00 -0.14401368755E+04  0.14401368755E+04  0.25500000000E-02 0.  1.
    5000001    1    1    2    0    0  0.45676018228E+02 -0.10590681268E+03 -0.36646178853E+03  0.40463044135E+03  0.12700000000E+03 0.  0.
   -5000001    1    1    2    0    0 -0.45676018228E+02  0.10590681268E+03 -0.10476137528E+04  0.10615677683E+04  0.12700000000E+03 0.  0.
<mgrwt>
<rscale>  0 0.38746297E+03</rscale>
<asrwt>0</asrwt>
<pdfrwt beam="1">  1        2 0.20573379E+00 0.38746297E+03</pdfrwt>
<pdfrwt beam="2">  1       -2 0.37230487E-02 0.38746297E+03</pdfrwt>
<totfact> 0.51468668E+03</totfact>
</mgrwt>
</event>
<event>
 4    1  0.2679255E-004  0.5105250E+03  0.7818608E-02  0.1011068E+00
          2   -1    0    0  501    0  0.00000000000E+00  0.00000000000E+00  0.12754168192E+04  0.12754168192E+04  0.25500000000E-02 0.  1.
         -2   -1    0    0    0  501 -0.00000000000E+00 -0.00000000000E+00 -0.51088361138E+02  0.51088361202E+02  0.25500000000E-02 0. -1.
    5000001    1    1    2    0    0 -0.21634518365E+03  0.33582792010E+02  0.52610886804E+03  0.58382581601E+03  0.12700000000E+03 0.  0.
   -5000001    1    1    2    0    0  0.21634518365E+03 -0.33582792010E+02  0.69821959005E+03  0.74267936442E+03  0.12700000000E+03 0.  0.
<mgrwt>
<rscale>  0 0.51052504E+03</rscale>
<asrwt>0</asrwt>
<pdfrwt beam="1">  1        2 0.18220240E+00 0.51052504E+03</pdfrwt>
<pdfrwt beam="2">  1       -2 0.72983376E-02 0.51052504E+03</pdfrwt>
<totfact> 0.22254229E+03</totfact>
</mgrwt>
</event>
<event>
 4    1  0.2679255E-004  0.3679347E+03  0.7818608E-02  0.1055485E+00
          2   -1    0    0  501    0  0.00000000000E+00  0.00000000000E+00  0.35395594530E+03  0.35395594531E+03  0.25500000000E-02 0.  1.
         -2   -1    0    0    0  501 -0.00000000000E+00 -0.00000000000E+00 -0.95616404409E+02  0.95616404443E+02  0.25500000000E-02 0. -1.
    5000001    1    1    2    0    0  0.23775594074E+02  0.11071174770E+03  0.43702517298E+02  0.17567378851E+03  0.12700000000E+03 0.  0.
   -5000001    1    1    2    0    0 -0.23775594074E+02 -0.11071174770E+03  0.21463702359E+03  0.27389856124E+03  0.12700000000E+03 0.  0.
<mgrwt>
<rscale>  0 0.36793475E+03</rscale>
<asrwt>0</asrwt>
<pdfrwt beam="1">  1        2 0.50565136E-01 0.36793475E+03</pdfrwt>
<pdfrwt beam="2">  1       -2 0.13659486E-01 0.36793475E+03</pdfrwt>
<totfact> 0.39781356E+03</totfact>
</mgrwt>
</event>
<event>
 4    1  0.2679255E-004  0.2830251E+03  0.7818608E-02  0.1094048E+00
         -2   -1    0    0    0  501 -0.00000000000E+00  0.00000000000E+00  0.28900761677E+02  0.28900761790E+02  0.25500000000E-02 0. -1.
          2   -1    0    0  501    0  0.00000000000E+00 -0.00000000000E+00 -0.69291582666E+03  0.69291582667E+03  0.25500000000E-02 0.  1.
    5000001    1    1    2    0    0  0.33553363443E+02 -0.33290493994E+01 -0.46598983187E+03  0.48416157858E+03  0.12700000000E+03 0.  0.
   -5000001    1    1    2    0    0 -0.33553363443E+02  0.33290493994E+01 -0.19802523311E+03  0.23765500987E+03  0.12700000000E+03 0.  0.
<mgrwt>
<rscale>  0 0.28302505E+03</rscale>
<asrwt>0</asrwt>
<pdfrwt beam="1">  1        2 0.98987965E-01 0.28302505E+03</pdfrwt>
<pdfrwt beam="2">  1       -2 0.41286807E-02 0.28302505E+03</pdfrwt>
<totfact> 0.12132536E+04</totfact>
</mgrwt>
</event>
<event>
 4    1  0.2679255E-004  0.3873824E+03  0.7818608E-02  0.1048238E+00
         -2   -1    0    0    0  501 -0.00000000000E+00  0.00000000000E+00  0.71402351192E+03  0.71402351192E+03  0.25500000000E-02 0. -1.
          2   -1    0    0  501    0  0.00000000000E+00 -0.00000000000E+00 -0.52542081918E+02  0.52542081980E+02  0.25500000000E-02 0.  1.
    5000001    1    1    2    0    0  0.56913511502E+02 -0.10854000813E+03  0.48864128671E+03  0.51953766777E+03  0.12700000000E+03 0.  0.
   -5000001    1    1    2    0    0 -0.56913511502E+02  0.10854000813E+03  0.17284014329E+03  0.24702792613E+03  0.12700000000E+03 0.  0.
<mgrwt>
<rscale>  0 0.38738240E+03</rscale>
<asrwt>0</asrwt>
<pdfrwt beam="1">  1        2 0.75060123E-02 0.38738240E+03</pdfrwt>
<pdfrwt beam="2">  1       -2 0.10200335E+00 0.38738240E+03</pdfrwt>
<totfact> 0.76101477E+02</totfact>
</mgrwt>
</event>
<event>
 4    1  0.2679255E-004  0.3783063E+03  0.7818608E-02  0.1051562E+00
         -2   -1    0    0    0  501 -0.00000000000E+00  0.00000000000E+00  0.37342336486E+02  0.37342336573E+02  0.25500000000E-02 0. -1.
          2   -1    0    0  501    0  0.00000000000E+00 -0.00000000000E+00 -0.95813282367E+03  0.95813282368E+03  0.25500000000E-02 0.  1.
    5000001    1    1    2    0    0 -0.22326345664E+02  0.11624236865E+03 -0.65799854907E+03  0.68051586650E+03  0.12700000000E+03 0.  0.
   -5000001    1    1    2    0    0  0.22326345664E+02 -0.11624236865E+03 -0.26279193812E+03  0.31495929375E+03  0.12700000000E+03 0.  0.
<mgrwt>
<rscale>  0 0.37830632E+03</rscale>
<asrwt>0</asrwt>
<pdfrwt beam="1">  1        2 0.13687610E+00 0.37830632E+03</pdfrwt>
<pdfrwt beam="2">  1       -2 0.53346201E-02 0.37830632E+03</pdfrwt>
<totfact> 0.55047984E+03</totfact>
</mgrwt>
</event>
<event>
 4    1  0.2679255E-004  0.6910650E+03  0.7818608E-02  0.9732635E-01
         -2   -1    0    0    0  501 -0.00000000000E+00  0.00000000000E+00  0.24957090415E+03  0.24957090416E+03  0.25500000000E-02 0. -1.
          2   -1    0    0  501    0  0.00000000000E+00 -0.00000000000E+00 -0.47839200175E+03  0.47839200176E+03  0.25500000000E-02 0.  1.
    5000001    1    1    2    0    0 -0.26444472876E+03 -0.79337517761E+02  0.58802161911E+02  0.30953537849E+03  0.12700000000E+03 0.  0.
   -5000001    1    1    2    0    0  0.26444472876E+03  0.79337517761E+02 -0.28762325952E+03  0.41842752742E+03  0.12700000000E+03 0.  0.
<mgrwt>
<rscale>  0 0.69106505E+03</rscale>
<asrwt>0</asrwt>
<pdfrwt beam="1">  1        2 0.68341714E-01 0.69106505E+03</pdfrwt>
<pdfrwt beam="2">  1       -2 0.35652987E-01 0.69106505E+03</pdfrwt>
<totfact> 0.52518825E+02</totfact>
</mgrwt>
</event>
<event>
 4    1  0.2679255E-004  0.3479281E+03  0.7818608E-02  0.1063469E+00
          2   -1    0    0  501    0  0.00000000000E+00  0.00000000000E+00  0.16027795833E+04  0.16027795833E+04  0.25500000000E-02 0. -1.
         -2   -1    0    0    0  501 -0.00000000000E+00 -0.00000000000E+00 -0.18881881656E+02  0.18881881828E+02  0.25500000000E-02 0.  1.
    5000001    1    1    2    0    0 -0.81561031486E+02 -0.67729535480E+02  0.10427301522E+04  0.10557720692E+04  0.12700000000E+03 0.  0.
   -5000001    1    1    2    0    0  0.81561031486E+02  0.67729535480E+02  0.54116754941E+03  0.56588939587E+03  0.12700000000E+03 0.  0.
<mgrwt>
<rscale>  0 0.34792812E+03</rscale>
<asrwt>0</asrwt>
<pdfrwt beam="1">  1        2 0.22896851E+00 0.34792812E+03</pdfrwt>
<pdfrwt beam="2">  1       -2 0.26974117E-02 0.34792812E+03</pdfrwt>
<totfact> 0.68975594E+03</totfact>
</mgrwt>
</event>
<event>
 4    1  0.2679255E-004  0.4803234E+03  0.7818608E-02  0.1019046E+00
         -2   -1    0    0    0  501 -0.00000000000E+00  0.00000000000E+00  0.34397861914E+03  0.34397861915E+03  0.25500000000E-02 0. -1.
          2   -1    0    0  501    0  0.00000000000E+00 -0.00000000000E+00 -0.16767796680E+03  0.16767796682E+03  0.25500000000E-02 0.  1.
    5000001    1    1    2    0    0  0.98105347518E+02 -0.13049091086E+03 -0.41860978383E+02  0.21103051566E+03  0.12700000000E+03 0.  0.
   -5000001    1    1    2    0    0 -0.98105347518E+02  0.13049091086E+03  0.21816163072E+03  0.30062607031E+03  0.12700000000E+03 0.  0.
<mgrwt>
<rscale>  0 0.48032337E+03</rscale>
<asrwt>0</asrwt>
<pdfrwt beam="1">  1        2 0.23953995E-01 0.48032337E+03</pdfrwt>
<pdfrwt beam="2">  1       -2 0.49139802E-01 0.48032337E+03</pdfrwt>
<totfact> 0.90513021E+02</totfact>
</mgrwt>
</event>
<event>
 4    1  0.2679255E-004  0.6329144E+03  0.7818608E-02  0.9839378E-01
          2   -1    0    0  501    0  0.00000000000E+00  0.00000000000E+00  0.12122748405E+03  0.12122748407E+03  0.25500000000E-02 0.  1.
         -2   -1    0    0    0  501 -0.00000000000E+00 -0.00000000000E+00 -0.82609292409E+03  0.82609292409E+03  0.25500000000E-02 0. -1.
    5000001    1    1    2    0    0 -0.24158613812E+03 -0.11331888663E+03 -0.52184531608E+03  0.59971373681E+03  0.12700000000E+03 0.  0.
   -5000001    1    1    2    0    0  0.24158613812E+03  0.11331888663E+03 -0.18302012396E+03  0.34760667136E+03  0.12700000000E+03 0.  0.
<mgrwt>
<rscale>  0 0.63291442E+03</rscale>
<asrwt>0</asrwt>
<pdfrwt beam="1">  1        2 0.17318213E-01 0.63291442E+03</pdfrwt>
<pdfrwt beam="2">  1       -2 0.11801327E+00 0.63291442E+03</pdfrwt>
<totfact> 0.18890014E+02</totfact>
</mgrwt>
</event>
<event>
 4    1  0.2679255E-004  0.2957150E+03  0.7818608E-02  0.1087402E+00
          2   -1    0    0  501    0  0.00000000000E+00  0.00000000000E+00  0.47070122918E+03  0.47070122919E+03  0.25500000000E-02 0.  1.
         -2   -1    0    0    0  501 -0.00000000000E+00 -0.00000000000E+00 -0.46445271413E+02  0.46445271483E+02  0.25500000000E-02 0. -1.
    5000001    1    1    2    0    0  0.70670488845E+01  0.71958333448E+02  0.25142353838E+03  0.29081048912E+03  0.12700000000E+03 0.  0.
   -5000001    1    1    2    0    0 -0.70670488845E+01 -0.71958333448E+02  0.17283241939E+03  0.22633601155E+03  0.12700000000E+03 0.  0.
<mgrwt>
<rscale>  0 0.29571504E+03</rscale>
<asrwt>0</asrwt>
<pdfrwt beam="1">  1        2 0.67243033E-01 0.29571504E+03</pdfrwt>
<pdfrwt beam="2">  1       -2 0.66350388E-02 0.29571504E+03</pdfrwt>
<totfact> 0.91435244E+03</totfact>
</mgrwt>
</event>
<event>
 4    1  0.2679255E-004  0.4148003E+03  0.7818608E-02  0.1038772E+00
         -2   -1    0    0    0  501 -0.00000000000E+00  0.00000000000E+00  0.65283955347E+02  0.65283955397E+02  0.25500000000E-02 0. -1.
          2   -1    0    0  501    0  0.00000000000E+00 -0.00000000000E+00 -0.65888824017E+03  0.65888824018E+03  0.25500000000E-02 0.  1.
    5000001    1    1    2    0    0 -0.15748957564E+03  0.26248716450E+02 -0.36198204541E+03  0.41551409453E+03  0.12700000000E+03 0.  0.
   -5000001    1    1    2    0    0  0.15748957564E+03 -0.26248716450E+02 -0.23162223941E+03  0.30865810105E+03  0.12700000000E+03 0.  0.
<mgrwt>
<rscale>  0 0.41480034E+03</rscale>
<asrwt>0</asrwt>
<pdfrwt beam="1">  1        2 0.94126888E-01 0.41480034E+03</pdfrwt>
<pdfrwt beam="2">  1       -2 0.93262797E-02 0.41480034E+03</pdfrwt>
<totfact> 0.36838558E+03</totfact>
</mgrwt>
</event>
<event>
 4    1  0.2679255E-004  0.7904830E+03  0.7818608E-02  0.9573896E-01
         -2   -1    0    0    0  501 -0.00000000000E+00  0.00000000000E+00  0.13037144196E+03  0.13037144198E+03  0.25500000000E-02 0. -1.
          2   -1    0    0  501    0  0.00000000000E+00 -0.00000000000E+00 -0.11982365549E+04  0.11982365549E+04  0.25500000000E-02 0.  1.
    5000001    1    1    2    0    0  0.11044964600E+03 -0.26239651237E+03 -0.94231021849E+03  0.99253644864E+03  0.12700000000E+03 0.  0.
   -5000001    1    1    2    0    0 -0.11044964600E+03  0.26239651237E+03 -0.12555489441E+03  0.33607154821E+03  0.12700000000E+03 0.  0.
<mgrwt>
<rscale>  0 0.79048296E+03</rscale>
<asrwt>0</asrwt>
<pdfrwt beam="1">  1        2 0.17117664E+00 0.79048296E+03</pdfrwt>
<pdfrwt beam="2">  1       -2 0.18624492E-01 0.79048296E+03</pdfrwt>
<totfact> 0.51977749E+02</totfact>
</mgrwt>
</event>
<event>
 4    1  0.2679255E-004  0.4090703E+03  0.7818608E-02  0.1040683E+00
         -2   -1    0    0    0  501 -0.00000000000E+00  0.00000000000E+00  0.95576257755E+02  0.95576257789E+02  0.25500000000E-02 0.  1.
          2   -1    0    0  501    0  0.00000000000E+00 -0.00000000000E+00 -0.43770933683E+03  0.43770933684E+03  0.25500000000E-02 0. -1.
    5000001    1    1    2    0    0 -0.12846067068E+03 -0.83092527674E+02 -0.10855766795E+03  0.22653979637E+03  0.12700000000E+03 0.  0.
   -5000001    1    1    2    0    0  0.12846067068E+03  0.83092527674E+02 -0.23357541113E+03  0.30674579826E+03  0.12700000000E+03 0.  0.
<mgrwt>
<rscale>  0 0.40907026E+03</rscale>
<asrwt>0</asrwt>
<pdfrwt beam="1">  1        2 0.62529904E-01 0.40907026E+03</pdfrwt>
<pdfrwt beam="2">  1       -2 0.13653751E-01 0.40907026E+03</pdfrwt>
<totfact> 0.31611987E+03</totfact>
</mgrwt>
</event>
<event>
 4    1  0.2679255E-004  0.6691921E+03  0.7818608E-02  0.9771418E-01
         -2   -1    0    0    0  501 -0.00000000000E+00  0.00000000000E+00  0.50957042568E+02  0.50957042631E+02  0.25500000000E-02 0. -1.
          2   -1    0    0  501    0  0.00000000000E+00 -0.00000000000E+00 -0.21970371558E+04  0.21970371558E+04  0.25500000000E-02 0.  1.
    5000001    1    1    2    0    0  0.20362831875E+03  0.14320583117E+03 -0.16911186349E+04  0.17140547365E+04  0.12700000000E+03 0.  0.
   -5000001    1    1    2    0    0 -0.20362831875E+03 -0.14320583117E+03 -0.45496147829E+03  0.53393946193E+03  0.12700000000E+03 0.  0.
<mgrwt>
<rscale>  0 0.66919210E+03</rscale>
<asrwt>0</asrwt>
<pdfrwt beam="1">  1        2 0.31386239E+00 0.66919210E+03</pdfrwt>
<pdfrwt beam="2">  1       -2 0.72795789E-02 0.66919210E+03</pdfrwt>
<totfact> 0.74769767E+02</totfact>
</mgrwt>
</event>
<event>
 4    1  0.2679255E-004  0.4389539E+03  0.7818608E-02  0.1031068E+00
          2   -1    0    0  501    0  0.00000000000E+00  0.00000000000E+00  0.86685648496E+03  0.86685648496E+03  0.25500000000E-02 0.  1.
         -2   -1    0    0    0  501 -0.00000000000E+00 -0.00000000000E+00 -0.55568754907E+02  0.55568754965E+02  0.25500000000E-02 0. -1.
    5000001    1    1    2    0    0 -0.99377024403E+02  0.11925204607E+03  0.59294475898E+03  0.62594674747E+03  0.12700000000E+03 0.  0.
   -5000001    1    1    2    0    0  0.99377024403E+02 -0.11925204607E+03  0.21834297108E+03  0.29647849246E+03  0.12700000000E+03 0.  0.
<mgrwt>
<rscale>  0 0.43895392E+03</rscale>
<asrwt>0</asrwt>
<pdfrwt beam="1">  1        2 0.12383664E+00 0.43895392E+03</pdfrwt>
<pdfrwt beam="2">  1       -2 0.79383934E-02 0.43895392E+03</pdfrwt>
<totfact> 0.33893035E+03</totfact>
</mgrwt>
</event>
<event>
 4    1  0.2679255E-004  0.3695944E+03  0.7818608E-02  0.1054848E+00
          2   -1    0    0  501    0  0.00000000000E+00  0.00000000000E+00  0.28164097665E+04  0.28164097665E+04  0.25500000000E-02 0.  1.
         -2   -1    0    0    0  501 -0.00000000000E+00 -0.00000000000E+00 -0.12125365671E+02  0.12125365939E+02  0.25500000000E-02 0. -1.
    5000001    1    1    2    0    0 -0.85720235382E+02  0.76258182942E+02  0.19355420613E+04  0.19430942695E+04  0.12700000000E+03 0.  0.
   -5000001    1    1    2    0    0  0.85720235382E+02 -0.76258182942E+02  0.86874233954E+03  0.88544086292E+03  0.12700000000E+03 0.  0.
<mgrwt>
<rscale>  0 0.36959437E+03</rscale>
<asrwt>0</asrwt>
<pdfrwt beam="1">  1        2 0.40234393E+00 0.36959437E+03</pdfrwt>
<pdfrwt beam="2">  1       -2 0.17321965E-02 0.36959437E+03</pdfrwt>
<totfact> 0.32888307E+03</totfact>
</mgrwt>
</event>
<event>
 4    1  0.2679255E-004  0.4004088E+03  0.7818608E-02  0.1043638E+00
          2   -1    0    0  501    0  0.00000000000E+00  0.00000000000E+00  0.96762677456E+03  0.96762677456E+03  0.25500000000E-02 0.  1.
         -2   -1    0    0    0  501 -0.00000000000E+00 -0.00000000000E+00 -0.41422796760E+02  0.41422796839E+02  0.25500000000E-02 0. -1.
    5000001    1    1    2    0    0 -0.17115523487E+02 -0.75496091663E+02  0.80082800649E+03  0.81452261908E+03  0.12700000000E+03 0.  0.
   -5000001    1    1    2    0    0  0.17115523487E+02  0.75496091663E+02  0.12537597131E+03  0.19452695233E+03  0.12700000000E+03 0.  0.
<mgrwt>
<rscale>  0 0.40040883E+03</rscale>
<asrwt>0</asrwt>
<pdfrwt beam="1">  1        2 0.13823240E+00 0.40040883E+03</pdfrwt>
<pdfrwt beam="2">  1       -2 0.59175422E-02 0.40040883E+03</pdfrwt>
<totfact> 0.46323635E+03</totfact>
</mgrwt>
</event>
<event>
 4    1  0.2679255E-004  0.5540440E+03  0.7818608E-02  0.1000562E+00
         -2   -1    0    0    0  501 -0.00000000000E+00  0.00000000000E+00  0.13912825625E+04  0.13912825625E+04  0.25500000000E-02 0. -1.
          2   -1    0    0  501    0  0.00000000000E+00 -0.00000000000E+00 -0.55158584863E+02  0.55158584922E+02  0.25500000000E-02 0.  1.
    5000001    1    1    2    0    0  0.10968797925E+03  0.16317090493E+03  0.28122057683E+03  0.36588278156E+03  0.12700000000E+03 0.  0.
   -5000001    1    1    2    0    0 -0.10968797925E+03 -0.16317090493E+03  0.10549034008E+04  0.10805583658E+04  0.12700000000E+03 0.  0.
<mgrwt>
<rscale>  0 0.55404396E+03</rscale>
<asrwt>0</asrwt>
<pdfrwt beam="1">  1        2 0.78797988E-02 0.55404396E+03</pdfrwt>
<pdfrwt beam="2">  1       -2 0.19875463E+00 0.55404396E+03</pdfrwt>
<totfact> 0.12576953E+02</totfact>
</mgrwt>
</event>
<event>
 4    1  0.2679255E-004  0.3106787E+03  0.7818608E-02  0.1080021E+00
         -2   -1    0    0    0  501 -0.00000000000E+00  0.00000000000E+00  0.21298784896E+03  0.21298784898E+03  0.25500000000E-02 0. -1.
          2   -1    0    0  501    0  0.00000000000E+00 -0.00000000000E+00 -0.11329433944E+03  0.11329433947E+03  0.25500000000E-02 0.  1.
    5000001    1    1    2    0    0  0.31478511349E+02 -0.44079513837E+02 -0.24914260845E+02  0.14029832718E+03  0.12700000000E+03 0.  0.
   -5000001    1    1    2    0    0 -0.31478511349E+02  0.44079513837E+02  0.12460777037E+03  0.18598386127E+03  0.12700000000E+03 0.  0.
<mgrwt>
<rscale>  0 0.31067873E+03</rscale>
<asrwt>0</asrwt>
<pdfrwt beam="1">  1        2 0.16184906E-01 0.31067873E+03</pdfrwt>
<pdfrwt beam="2">  1       -2 0.30426835E-01 0.31067873E+03</pdfrwt>
<totfact> 0.35471417E+03</totfact>
</mgrwt>
</event>
<event>
 4    1  0.2679255E-004  0.5253520E+03  0.7818608E-02  0.1007366E+00
          2   -1    0    0  501    0  0.00000000000E+00  0.00000000000E+00  0.42059595737E+03  0.42059595738E+03  0.25500000000E-02 0.  1.
         -2   -1    0    0    0  501 -0.00000000000E+00 -0.00000000000E+00 -0.16404981545E+03  0.16404981547E+03  0.25500000000E-02 0. -1.
    5000001    1    1    2    0    0  0.89839284150E+02 -0.20612956888E+03  0.74795395784E+02  0.26885655539E+03  0.12700000000E+03 0.  0.
   -5000001    1    1    2    0    0 -0.89839284150E+02  0.20612956888E+03  0.18175074614E+03  0.31578921746E+03  0.12700000000E+03 0.  0.
<mgrwt>
<rscale>  0 0.52535203E+03</rscale>
<asrwt>0</asrwt>
<pdfrwt beam="1">  1        2 0.60085135E-01 0.52535203E+03</pdfrwt>
<pdfrwt beam="2">  1       -2 0.23435688E-01 0.52535203E+03</pdfrwt>
<totfact> 0.13148065E+03</totfact>
</mgrwt>
</event>
<event>
 4    1  0.2679255E-004  0.3241752E+03  0.7818608E-02  0.1073744E+00
          2   -1    0    0  501    0  0.00000000000E+00  0.00000000000E+00  0.14318554916E+03  0.14318554918E+03  0.25500000000E-02 0.  1.
         -2   -1    0    0    0  501 -0.00000000000E+00 -0.00000000000E+00 -0.18348490696E+03  0.18348490697E+03  0.25500000000E-02 0. -1.
    5000001    1    1    2    0    0  0.13694308233E+01 -0.90803461898E+02 -0.64030738566E+02  0.16874856893E+03  0.12700000000E+03 0.  0.
   -5000001    1    1    2    0    0 -0.13694308233E+01  0.90803461898E+02  0.23731380771E+02  0.15792188723E+03  0.12700000000E+03 0.  0.
<mgrwt>
<rscale>  0 0.32417518E+03</rscale>
<asrwt>0</asrwt>
<pdfrwt beam="1">  1        2 0.20455079E-01 0.32417518E+03</pdfrwt>
<pdfrwt beam="2">  1       -2 0.26212129E-01 0.32417518E+03</pdfrwt>
<totfact> 0.35393748E+03</totfact>
</mgrwt>
</event>
<event>
 4    1  0.2679255E-004  0.8272206E+03  0.7818608E-02  0.9521431E-01
         -2   -1    0    0    0  501 -0.00000000000E+00  0.00000000000E+00  0.95436206317E+02  0.95436206351E+02  0.25500000000E-02 0. -1.
          2   -1    0    0  501    0  0.00000000000E+00 -0.00000000000E+00 -0.17925428266E+04  0.17925428266E+04  0.25500000000E-02 0.  1.
    5000001    1    1    2    0    0  0.35525337687E+03 -0.11384434870E+03 -0.11352452028E+04  0.12016972031E+04  0.12700000000E+03 0.  0.
   -5000001    1    1    2    0    0 -0.35525337687E+03  0.11384434870E+03 -0.56186141750E+03  0.68628182985E+03  0.12700000000E+03 0.  0.
<mgrwt>
<rscale>  0 0.82722062E+03</rscale>
<asrwt>0</asrwt>
<pdfrwt beam="1">  1        2 0.25607753E+00 0.82722062E+03</pdfrwt>
<pdfrwt beam="2">  1       -2 0.13633745E-01 0.82722062E+03</pdfrwt>
<totfact> 0.42703481E+02</totfact>
</mgrwt>
</event>
<event>
 4    1  0.2679255E-004  0.2676317E+03  0.7818608E-02  0.1102643E+00
          2   -1    0    0  501    0  0.00000000000E+00  0.00000000000E+00  0.60026748651E+03  0.60026748652E+03  0.25500000000E-02 0.  1.
         -2   -1    0    0    0  501 -0.00000000000E+00 -0.00000000000E+00 -0.29831181042E+02  0.29831181151E+02  0.25500000000E-02 0. -1.
    5000001    1    1    2    0    0  0.21716823719E+02 -0.26112357417E+02  0.22639651027E+03  0.26179735580E+03  0.12700000000E+03 0.  0.
   -5000001    1    1    2    0    0 -0.21716823719E+02  0.26112357417E+02  0.34403979520E+03  0.36830131186E+03  0.12700000000E+03 0.  0.
<mgrwt>
<rscale>  0 0.26763175E+03</rscale>
<asrwt>0</asrwt>
<pdfrwt beam="1">  1        2 0.85752492E-01 0.26763175E+03</pdfrwt>
<pdfrwt beam="2">  1       -2 0.42615976E-02 0.26763175E+03</pdfrwt>
<totfact> 0.13632866E+04</totfact>
</mgrwt>
</event>
<event>
 4    1  0.2679255E-004  0.3069899E+03  0.7818608E-02  0.1081798E+00
          2   -1    0    0  501    0  0.00000000000E+00  0.00000000000E+00  0.24594444953E+04  0.24594444953E+04  0.25500000000E-02 0.  1.
         -2   -1    0    0    0  501 -0.00000000000E+00 -0.00000000000E+00 -0.95796801807E+01  0.95796805201E+01  0.25500000000E-02 0. -1.
    5000001    1    1    2    0    0  0.30264117322E+02 -0.64642472079E+02  0.83611795573E+03  0.84871479419E+03  0.12700000000E+03 0.  0.
   -5000001    1    1    2    0    0 -0.30264117322E+02  0.64642472079E+02  0.16137468594E+04  0.16203093817E+04  0.12700000000E+03 0.  0.
<mgrwt>
<rscale>  0 0.30698985E+03</rscale>
<asrwt>0</asrwt>
<pdfrwt beam="1">  1        2 0.35134893E+00 0.30698985E+03</pdfrwt>
<pdfrwt beam="2">  1       -2 0.13685269E-02 0.30698985E+03</pdfrwt>
<totfact> 0.70908262E+03</totfact>
</mgrwt>
</event>
<event>
 4    1  0.2679255E-004  0.4303969E+03  0.7818608E-02  0.1033735E+00
          2   -1    0    0  501    0  0.00000000000E+00  0.00000000000E+00  0.22284363466E+03  0.22284363467E+03  0.25500000000E-02 0.  1.
         -2   -1    0    0    0  501 -0.00000000000E+00 -0.00000000000E+00 -0.20781556293E+03  0.20781556295E+03  0.25500000000E-02 0. -1.
    5000001    1    1    2    0    0 -0.16383147175E+03 -0.61999236731E+01  0.65013698150E+02  0.21733607877E+03  0.12700000000E+03 0.  0.
   -5000001    1    1    2    0    0  0.16383147175E+03  0.61999236731E+01 -0.49985626421E+02  0.21332311885E+03  0.12700000000E+03 0.  0.
<mgrwt>
<rscale>  0 0.43039691E+03</rscale>
<asrwt>0</asrwt>
<pdfrwt beam="1">  1        2 0.31834805E-01 0.43039691E+03</pdfrwt>
<pdfrwt beam="2">  1       -2 0.29687937E-01 0.43039691E+03</pdfrwt>
<totfact> 0.17259526E+03</totfact>
</mgrwt>
</event>
<event>
 4    1  0.2679255E-004  0.3084317E+03  0.7818608E-02  0.1081100E+00
         -2   -1    0    0    0  501 -0.00000000000E+00  0.00000000000E+00  0.30903245608E+03  0.30903245609E+03  0.25500000000E-02 0. -1.
          2   -1    0    0  501    0  0.00000000000E+00 -0.00000000000E+00 -0.76958040526E+02  0.76958040569E+02  0.25500000000E-02 0.  1.
    5000001    1    1    2    0    0 -0.87362572044E+02  0.25595871342E+01  0.12084546133E+03  0.19588618125E+03  0.12700000000E+03 0.  0.
   -5000001    1    1    2    0    0  0.87362572044E+02 -0.25595871342E+01  0.11122895423E+03  0.19010431542E+03  0.12700000000E+03 0.  0.
<mgrwt>
<rscale>  0 0.30843173E+03</rscale>
<asrwt>0</asrwt>
<pdfrwt beam="1">  1        2 0.10994006E-01 0.30843173E+03</pdfrwt>
<pdfrwt beam="2">  1       -2 0.44147493E-01 0.30843173E+03</pdfrwt>
<totfact> 0.28028507E+03</totfact>
</mgrwt>
</event>
<event>
 4    1  0.2679255E-004  0.5589563E+03  0.7818608E-02  0.9994419E-01
          2   -1    0    0  501    0  0.00000000000E+00  0.00000000000E+00  0.17966232836E+04  0.17966232836E+04  0.25500000000E-02 0.  1.
         -2   -1    0    0    0  501 -0.00000000000E+00 -0.00000000000E+00 -0.43474909891E+02  0.43474909966E+02  0.25500000000E-02 0. -1.
    5000001    1    1    2    0    0  0.11177093958E+03 -0.22172102496E+03  0.93602050364E+03  0.97668640775E+03  0.12700000000E+03 0.  0.
   -5000001    1    1    2    0    0 -0.11177093958E+03  0.22172102496E+03  0.81712787003E+03  0.86341178578E+03  0.12700000000E+03 0.  0.
<mgrwt>
<rscale>  0 0.55895630E+03</rscale>
<asrwt>0</asrwt>
<pdfrwt beam="1">  1        2 0.25666054E+00 0.55895630E+03</pdfrwt>
<pdfrwt beam="2">  1       -2 0.62106998E-02 0.55895630E+03</pdfrwt>
<totfact> 0.15368697E+03</totfact>
</mgrwt>
</event>
<event>
 4    1  0.2679255E-004  0.3258850E+03  0.7818608E-02  0.1072972E+00
         -2   -1    0    0    0  501 -0.00000000000E+00  0.00000000000E+00  0.46340338375E+03  0.46340338376E+03  0.25500000000E-02 0. -1.
          2   -1    0    0  501    0  0.00000000000E+00 -0.00000000000E+00 -0.57294037797E+02  0.57294037854E+02  0.25500000000E-02 0.  1.
    5000001    1    1    2    0    0  0.75478933480E+02 -0.42297343421E+02  0.11649137863E+03  0.19283510042E+03  0.12700000000E+03 0.  0.
   -5000001    1    1    2    0    0 -0.75478933480E+02  0.42297343421E+02  0.28961796732E+03  0.32786232119E+03  0.12700000000E+03 0.  0.
<mgrwt>
<rscale>  0 0.32588496E+03</rscale>
<asrwt>0</asrwt>
<pdfrwt beam="1">  1        2 0.81848631E-02 0.32588496E+03</pdfrwt>
<pdfrwt beam="2">  1       -2 0.66200479E-01 0.32588496E+03</pdfrwt>
<totfact> 0.17825001E+03</totfact>
</mgrwt>
</event>
<event>
 4    1  0.2679255E-004  0.7195943E+03  0.7818608E-02  0.9684298E-01
         -2   -1    0    0    0  501 -0.00000000000E+00  0.00000000000E+00  0.73650831423E+02  0.73650831468E+02  0.25500000000E-02 0. -1.
          2   -1    0    0  501    0  0.00000000000E+00 -0.00000000000E+00 -0.17576718173E+04  0.17576718173E+04  0.25500000000E-02 0.  1.
    5000001    1    1    2    0    0 -0.25954658720E+03  0.68238590923E+02 -0.13592283279E+04  0.13912769615E+04  0.12700000000E+03 0.  0.
   -5000001    1    1    2    0    0  0.25954658720E+03 -0.68238590923E+02 -0.32479265799E+03  0.44004568729E+03  0.12700000000E+03 0.  0.
<mgrwt>
<rscale>  0 0.71959430E+03</rscale>
<asrwt>0</asrwt>
<pdfrwt beam="1">  1        2 0.25109595E+00 0.71959430E+03</pdfrwt>
<pdfrwt beam="2">  1       -2 0.10521548E-01 0.71959430E+03</pdfrwt>
<totfact> 0.68721252E+02</totfact>
</mgrwt>
</event>
<event>
 4    1  0.2679255E-004  0.3823432E+03  0.7818608E-02  0.1050071E+00
         -2   -1    0    0    0  501 -0.00000000000E+00  0.00000000000E+00  0.60989320415E+03  0.60989320416E+03  0.25500000000E-02 0. -1.
          2   -1    0    0  501    0  0.00000000000E+00 -0.00000000000E+00 -0.59922915535E+02  0.59922915589E+02  0.25500000000E-02 0.  1.
    5000001    1    1    2    0    0  0.30487846836E+02 -0.11424094252E+03  0.13443004900E+03  0.21950157136E+03  0.12700000000E+03 0.  0.
   -5000001    1    1    2    0    0 -0.30487846836E+02  0.11424094252E+03  0.41554023962E+03  0.45031454839E+03  0.12700000000E+03 0.  0.
<mgrwt>
<rscale>  0 0.38234319E+03</rscale>
<asrwt>0</asrwt>
<pdfrwt beam="1">  1        2 0.85604167E-02 0.38234319E+03</pdfrwt>
<pdfrwt beam="2">  1       -2 0.87127599E-01 0.38234319E+03</pdfrwt>
<totfact> 0.92434593E+02</totfact>
</mgrwt>
</event>
<event>
 4    1  0.2679255E-004  0.5414995E+03  0.7818608E-02  0.1003481E+00
          2   -1    0    0  501    0  0.00000000000E+00  0.00000000000E+00  0.48310779717E+04  0.48310779717E+04  0.25500000000E-02 0.  1.
         -2   -1    0    0    0  501 -0.00000000000E+00 -0.00000000000E+00 -0.15173719356E+02  0.15173719570E+02  0.25500000000E-02 0. -1.
    5000001    1    1    2    0    0 -0.62960008200E+02 -0.23059904777E+03  0.23538539542E+04  0.23693664388E+04  0.12700000000E+03 0.  0.
   -5000001    1    1    2    0    0  0.62960008200E+02  0.23059904777E+03  0.24620502982E+04  0.24768852525E+04  0.12700000000E+03 0.  0.
<mgrwt>
<rscale>  0 0.54149948E+03</rscale>
<asrwt>0</asrwt>
<pdfrwt beam="1">  1        2 0.69015534E+00 0.54149948E+03</pdfrwt>
<pdfrwt beam="2">  1       -2 0.21676700E-02 0.54149948E+03</pdfrwt>
<totfact> 0.11082178E+02</totfact>
</mgrwt>
</event>
<event>
 4    1  0.2679255E-004  0.5735279E+03  0.7818608E-02  0.9961902E-01
         -2   -1    0    0    0  501 -0.00000000000E+00  0.00000000000E+00  0.40322463861E+02  0.40322463942E+02  0.25500000000E-02 0. -1.
          2   -1    0    0  501    0  0.00000000000E+00 -0.00000000000E+00 -0.20393980975E+04  0.20393980975E+04  0.25500000000E-02 0.  1.
    5000001    1    1    2    0    0 -0.19315219583E+03 -0.89971359129E+02 -0.47779560333E+03  0.53834956560E+03  0.12700000000E+03 0.  0.
   -5000001    1    1    2    0    0  0.19315219583E+03  0.89971359129E+02 -0.15212800303E+04  0.15413709958E+04  0.12700000000E+03 0.  0.
<mgrwt>
<rscale>  0 0.57352788E+03</rscale>
<asrwt>0</asrwt>
<pdfrwt beam="1">  1        2 0.29134252E+00 0.57352788E+03</pdfrwt>
<pdfrwt beam="2">  1       -2 0.57603533E-02 0.57352788E+03</pdfrwt>
<totfact> 0.13049058E+03</totfact>
</mgrwt>
</event>
<event>
 4    1  0.2679255E-004  0.1185897E+04  0.7818608E-02  0.9125291E-01
         -2   -1    0    0    0  501 -0.00000000000E+00  0.00000000000E+00  0.45608698842E+03  0.45608698843E+03  0.25500000000E-02 0. -1.
          2   -1    0    0  501    0  0.00000000000E+00 -0.00000000000E+00 -0.77087881785E+03  0.77087881786E+03  0.25500000000E-02 0.  1.
    5000001    1    1    2    0    0  0.51312485595E+03  0.20316563357E+03 -0.33922452698E+03  0.66013307155E+03  0.12700000000E+03 0.  0.
   -5000001    1    1    2    0    0 -0.51312485595E+03 -0.20316563357E+03  0.24432697545E+02  0.56683273473E+03  0.12700000000E+03 0.  0.
<mgrwt>
<rscale>  0 0.11858968E+04</rscale>
<asrwt>0</asrwt>
<pdfrwt beam="1">  1        2 0.11012555E+00 0.11858968E+04</pdfrwt>
<pdfrwt beam="2">  1       -2 0.65155284E-01 0.11858968E+04</pdfrwt>
<totfact> 0.85603782E+01</totfact>
</mgrwt>
</event>
<event>
 4    1  0.2679255E-004  0.7081953E+03  0.7818608E-02  0.9703319E-01
          2   -1    0    0  501    0  0.00000000000E+00  0.00000000000E+00  0.17823913685E+04  0.17823913685E+04  0.25500000000E-02 0.  1.
         -2   -1    0    0    0  501 -0.00000000000E+00 -0.00000000000E+00 -0.70346583816E+02  0.70346583863E+02  0.25500000000E-02 0. -1.
    5000001    1    1    2    0    0 -0.17789765525E+03  0.27212705450E+03  0.70002860929E+03  0.78222104508E+03  0.12700000000E+03 0.  0.
   -5000001    1    1    2    0    0  0.17789765525E+03 -0.27212705450E+03  0.10120161754E+04  0.10705169073E+04  0.12700000000E+03 0.  0.
<mgrwt>
<rscale>  0 0.70819529E+03</rscale>
<asrwt>0</asrwt>
<pdfrwt beam="1">  1        2 0.25462727E+00 0.70819529E+03</pdfrwt>
<pdfrwt beam="2">  1       -2 0.10049515E-01 0.70819529E+03</pdfrwt>
<totfact> 0.71990727E+02</totfact>
</mgrwt>
</event>
<event>
 4    1  0.2679255E-004  0.3099094E+03  0.7818608E-02  0.1080389E+00
         -2   -1    0    0    0  501 -0.00000000000E+00  0.00000000000E+00  0.54036368396E+02  0.54036368456E+02  0.25500000000E-02 0. -1.
          2   -1    0    0  501    0  0.00000000000E+00 -0.00000000000E+00 -0.44434809762E+03  0.44434809763E+03  0.25500000000E-02 0.  1.
    5000001    1    1    2    0    0 -0.12608160658E+02  0.76611926678E+02 -0.26439287369E+03  0.30341546546E+03  0.12700000000E+03 0.  0.
   -5000001    1    1    2    0    0  0.12608160658E+02 -0.76611926678E+02 -0.12591885554E+03  0.19496900063E+03  0.12700000000E+03 0.  0.
<mgrwt>
<rscale>  0 0.30990939E+03</rscale>
<asrwt>0</asrwt>
<pdfrwt beam="1">  1        2 0.63478297E-01 0.30990939E+03</pdfrwt>
<pdfrwt beam="2">  1       -2 0.77194815E-02 0.30990939E+03</pdfrwt>
<totfact> 0.77104755E+03</totfact>
</mgrwt>
</event>
<event>
 4    1  0.2679255E-004  0.3390633E+03  0.7818608E-02  0.1067196E+00
          2   -1    0    0  501    0  0.00000000000E+00  0.00000000000E+00  0.17097675526E+04  0.17097675526E+04  0.25500000000E-02 0.  1.
         -2   -1    0    0    0  501 -0.00000000000E+00 -0.00000000000E+00 -0.16809876534E+02  0.16809876728E+02  0.25500000000E-02 0. -1.
    5000001    1    1    2    0    0 -0.10651180776E+03  0.19983268409E+02  0.69646322486E+03  0.71619419140E+03  0.12700000000E+03 0.  0.
   -5000001    1    1    2    0    0  0.10651180776E+03 -0.19983268409E+02  0.99649445117E+03  0.10103832379E+04  0.12700000000E+03 0.  0.
<mgrwt>
<rscale>  0 0.33906331E+03</rscale>
<asrwt>0</asrwt>
<pdfrwt beam="1">  1        2 0.24425251E+00 0.33906331E+03</pdfrwt>
<pdfrwt beam="2">  1       -2 0.24014109E-02 0.33906331E+03</pdfrwt>
<totfact> 0.72502406E+03</totfact>
</mgrwt>
</event>
<event>
 4    1  0.2679255E-004  0.3340259E+03  0.7818608E-02  0.1069369E+00
          2   -1    0    0  501    0  0.00000000000E+00  0.00000000000E+00  0.13450362749E+04  0.13450362749E+04  0.25500000000E-02 0.  1.
         -2   -1    0    0    0  501 -0.00000000000E+00 -0.00000000000E+00 -0.20737976346E+02  0.20737976502E+02  0.25500000000E-02 0. -1.
    5000001    1    1    2    0    0 -0.40466550615E+02  0.68508617274E+02  0.96354197284E+03  0.97512722543E+03  0.12700000000E+03 0.  0.
   -5000001    1    1    2    0    0  0.40466550615E+02 -0.68508617274E+02  0.36075632576E+03  0.39064702602E+03  0.12700000000E+03 0.  0.
<mgrwt>
<rscale>  0 0.33402593E+03</rscale>
<asrwt>0</asrwt>
<pdfrwt beam="1">  1        2 0.19214808E+00 0.33402593E+03</pdfrwt>
<pdfrwt beam="2">  1       -2 0.29625675E-02 0.33402593E+03</pdfrwt>
<totfact> 0.81225709E+03</totfact>
</mgrwt>
</event>
<event>
 4    1  0.2679255E-004  0.6243766E+03  0.7818608E-02  0.9856084E-01
         -2   -1    0    0    0  501 -0.00000000000E+00  0.00000000000E+00  0.55852877585E+03  0.55852877585E+03  0.25500000000E-02 0. -1.
          2   -1    0    0  501    0  0.00000000000E+00 -0.00000000000E+00 -0.17449690868E+03  0.17449690870E+03  0.25500000000E-02 0.  1.
    5000001    1    1    2    0    0  0.17348745068E+03  0.13184283645E+03 -0.23989889800E+02  0.25334747656E+03  0.12700000000E+03 0.  0.
   -5000001    1    1    2    0    0 -0.17348745068E+03 -0.13184283645E+03  0.40802175697E+03  0.47967820800E+03  0.12700000000E+03 0.  0.
<mgrwt>
<rscale>  0 0.62437663E+03</rscale>
<asrwt>0</asrwt>
<pdfrwt beam="1">  1        2 0.24928130E-01 0.62437663E+03</pdfrwt>
<pdfrwt beam="2">  1       -2 0.79789826E-01 0.62437663E+03</pdfrwt>
<totfact> 0.30886521E+02</totfact>
</mgrwt>
</event>
<event>
 4    1  0.2679255E-004  0.3618180E+03  0.7818608E-02  0.1057866E+00
         -2   -1    0    0    0  501 -0.00000000000E+00  0.00000000000E+00  0.18175868496E+02  0.18175868675E+02  0.25500000000E-02 0. -1.
          2   -1    0    0  501    0  0.00000000000E+00 -0.00000000000E+00 -0.18006330730E+04  0.18006330730E+04  0.25500000000E-02 0.  1.
    5000001    1    1    2    0    0  0.62835288071E+02  0.67548455935E+02 -0.43914627233E+03  0.46635771230E+03  0.12700000000E+03 0.  0.
   -5000001    1    1    2    0    0 -0.62835288071E+02 -0.67548455935E+02 -0.13433109321E+04  0.13524512293E+04  0.12700000000E+03 0.  0.
<mgrwt>
<rscale>  0 0.36181802E+03</rscale>
<asrwt>0</asrwt>
<pdfrwt beam="1">  1        2 0.25723318E+00 0.36181802E+03</pdfrwt>
<pdfrwt beam="2">  1       -2 0.25965538E-02 0.36181802E+03</pdfrwt>
<totfact> 0.58195960E+03</totfact>
</mgrwt>
</event>
<event>
 4    1  0.2679255E-004  0.4650474E+03  0.7818608E-02  0.1023327E+00
          2   -1    0    0  501    0  0.00000000000E+00  0.00000000000E+00  0.16427573778E+04  0.16427573778E+04  0.25500000000E-02 0.  1.
         -2   -1    0    0    0  501 -0.00000000000E+00 -0.00000000000E+00 -0.32912506680E+02  0.32912506779E+02  0.25500000000E-02 0. -1.
    5000001    1    1    2    0    0  0.14469648034E+03  0.15567654049E+02  0.12713811943E+04  0.12859698926E+04  0.12700000000E+03 0.  0.
   -5000001    1    1    2    0    0 -0.14469648034E+03 -0.15567654049E+02  0.33846367678E+03  0.38969999201E+03  0.12700000000E+03 0.  0.
<mgrwt>
<rscale>  0 0.46504737E+03</rscale>
<asrwt>0</asrwt>
<pdfrwt beam="1">  1        2 0.23467961E+00 0.46504737E+03</pdfrwt>
<pdfrwt beam="2">  1       -2 0.47017871E-02 0.46504737E+03</pdfrwt>
<totfact> 0.28389651E+03</totfact>
</mgrwt>
</event>
<event>
 4    1  0.2679255E-004  0.2652842E+03  0.7818608E-02  0.1104009E+00
          2   -1    0    0  501    0  0.00000000000E+00  0.00000000000E+00  0.75820695810E+03  0.75820695811E+03  0.25500000000E-02 0.  1.
         -2   -1    0    0    0  501 -0.00000000000E+00 -0.00000000000E+00 -0.23204645576E+02  0.23204645717E+02  0.25500000000E-02 0. -1.
    5000001    1    1    2    0    0 -0.15148282038E+01  0.37933341286E+02  0.38183813102E+03  0.40419128069E+03  0.12700000000E+03 0.  0.
   -5000001    1    1    2    0    0  0.15148282038E+01 -0.37933341286E+02  0.35316418151E+03  0.37722032313E+03  0.12700000000E+03 0.  0.
<mgrwt>
<rscale>  0 0.26528418E+03</rscale>
<asrwt>0</asrwt>
<pdfrwt beam="1">  1        2 0.10831527E+00 0.26528418E+03</pdfrwt>
<pdfrwt beam="2">  1       -2 0.33149495E-02 0.26528418E+03</pdfrwt>
<totfact> 0.15094569E+04</totfact>
</mgrwt>
</event>
<event>
 4    1  0.2679255E-004  0.6146959E+03  0.7818608E-02  0.9875377E-01
         -2   -1    0    0    0  501 -0.00000000000E+00  0.00000000000E+00  0.11114542335E+03  0.11114542338E+03  0.25500000000E-02 0. -1.
          2   -1    0    0  501    0  0.00000000000E+00 -0.00000000000E+00 -0.84990233897E+03  0.84990233897E+03  0.25500000000E-02 0.  1.
    5000001    1    1    2    0    0 -0.81924625383E+02 -0.23190154557E+03 -0.57822541537E+03  0.64106442895E+03  0.12700000000E+03 0.  0.
   -5000001    1    1    2    0    0  0.81924625383E+02  0.23190154557E+03 -0.16053150025E+03  0.31998333340E+03  0.12700000000E+03 0.  0.
<mgrwt>
<rscale>  0 0.61469588E+03</rscale>
<asrwt>0</asrwt>
<pdfrwt beam="1">  1        2 0.12141462E+00 0.61469588E+03</pdfrwt>
<pdfrwt beam="2">  1       -2 0.15877918E-01 0.61469588E+03</pdfrwt>
<totfact> 0.11202543E+03</totfact>
</mgrwt>
</event>
<event>
 4    1  0.2679255E-004  0.3372016E+03  0.7818608E-02  0.1067994E+00
         -2   -1    0    0    0  501 -0.00000000000E+00  0.00000000000E+00  0.11615725734E+02  0.11615726014E+02  0.25500000000E-02 0. -1.
          2   -1    0    0  501    0  0.00000000000E+00 -0.00000000000E+00 -0.24472194547E+04  0.24472194547E+04  0.25500000000E-02 0.  1.
    5000001    1    1    2    0    0 -0.63058995488E+02  0.52660555996E+02 -0.67468326345E+03  0.69143045713E+03  0.12700000000E+03 0.  0.
   -5000001    1    1    2    0    0  0.63058995488E+02 -0.52660555996E+02 -0.17609204655E+04  0.17674047235E+04  0.12700000000E+03 0.  0.
<mgrwt>
<rscale>  0 0.33720160E+03</rscale>
<asrwt>0</asrwt>
<pdfrwt beam="1">  1        2 0.34960245E+00 0.33720160E+03</pdfrwt>
<pdfrwt beam="2">  1       -2 0.16593910E-02 0.33720160E+03</pdfrwt>
<totfact> 0.54156891E+03</totfact>
</mgrwt>
</event>
<event>
 4    1  0.2679255E-004  0.2967662E+03  0.7818608E-02  0.1086868E+00
         -2   -1    0    0    0  501 -0.00000000000E+00  0.00000000000E+00  0.57539291521E+02  0.57539291578E+02  0.25500000000E-02 0.  1.
          2   -1    0    0  501    0  0.00000000000E+00 -0.00000000000E+00 -0.38265227586E+03  0.38265227587E+03  0.25500000000E-02 0. -1.
    5000001    1    1    2    0    0 -0.20745602431E+02  0.33592837583E+02 -0.26015772941E+03  0.29218128436E+03  0.12700000000E+03 0.  0.
   -5000001    1    1    2    0    0  0.20745602431E+02 -0.33592837583E+02 -0.64955254929E+02  0.14801028309E+03  0.12700000000E+03 0.  0.
<mgrwt>
<rscale>  0 0.29676618E+03</rscale>
<asrwt>0</asrwt>
<pdfrwt beam="1">  1        2 0.54664609E-01 0.29676618E+03</pdfrwt>
<pdfrwt beam="2">  1       -2 0.82198990E-02 0.29676618E+03</pdfrwt>
<totfact> 0.82099386E+03</totfact>
</mgrwt>
</event>
<event>
 4    1  0.2679255E-004  0.4667819E+03  0.7818608E-02  0.1022832E+00
          2   -1    0    0  501    0  0.00000000000E+00  0.00000000000E+00  0.24215610091E+03  0.24215610093E+03  0.25500000000E-02 0.  1.
         -2   -1    0    0    0  501 -0.00000000000E+00 -0.00000000000E+00 -0.22494304923E+03  0.22494304924E+03  0.25500000000E-02 0. -1.
    5000001    1    1    2    0    0  0.14182812346E+03 -0.68250099840E+02  0.12517191832E+03  0.23784512160E+03  0.12700000000E+03 0.  0.
   -5000001    1    1    2    0    0 -0.14182812346E+03  0.68250099840E+02 -0.10795886663E+03  0.22925402857E+03  0.12700000000E+03 0.  0.
<mgrwt>
<rscale>  0 0.46678188E+03</rscale>
<asrwt>0</asrwt>
<pdfrwt beam="1">  1        2 0.34593729E-01 0.46678188E+03</pdfrwt>
<pdfrwt beam="2">  1       -2 0.32134721E-01 0.46678188E+03</pdfrwt>
<totfact> 0.13611373E+03</totfact>
</mgrwt>
</event>
<event>
 4    1  0.2679255E-004  0.3588743E+03  0.7818608E-02  0.1059030E+00
          2   -1    0    0  501    0  0.00000000000E+00  0.00000000000E+00  0.13863998525E+04  0.13863998525E+04  0.25500000000E-02 0.  1.
         -2   -1    0    0    0  501 -0.00000000000E+00 -0.00000000000E+00 -0.23223951470E+02  0.23223951610E+02  0.25500000000E-02 0. -1.
    5000001    1    1    2    0    0  0.10089757378E+03 -0.73463197305E+02  0.59450521468E+03  0.62059859171E+03  0.12700000000E+03 0.  0.
   -5000001    1    1    2    0    0 -0.10089757378E+03  0.73463197305E+02  0.76867068638E+03  0.78902521244E+03  0.12700000000E+03 0.  0.
<mgrwt>
<rscale>  0 0.35887426E+03</rscale>
<asrwt>0</asrwt>
<pdfrwt beam="1">  1        2 0.19805709E+00 0.35887426E+03</pdfrwt>
<pdfrwt beam="2">  1       -2 0.33177079E-02 0.35887426E+03</pdfrwt>
<totfact> 0.65273008E+03</totfact>
</mgrwt>
</event>
<event>
 4    1  0.2679255E-004  0.3418195E+03  0.7818608E-02  0.1066024E+00
         -2   -1    0    0    0  501 -0.00000000000E+00  0.00000000000E+00  0.76720825802E+02  0.76720825844E+02  0.25500000000E-02 0. -1.
          2   -1    0    0  501    0  0.00000000000E+00 -0.00000000000E+00 -0.38073300865E+03  0.38073300865E+03  0.25500000000E-02 0.  1.
    5000001    1    1    2    0    0  0.10121514380E+03 -0.11807697559E+01 -0.22326614677E+03  0.27608453750E+03  0.12700000000E+03 0.  0.
   -5000001    1    1    2    0    0 -0.10121514380E+03  0.11807697559E+01 -0.80746036071E+02  0.18136929700E+03  0.12700000000E+03 0.  0.
<mgrwt>
<rscale>  0 0.34181955E+03</rscale>
<asrwt>0</asrwt>
<pdfrwt beam="1">  1        2 0.54390429E-01 0.34181955E+03</pdfrwt>
<pdfrwt beam="2">  1       -2 0.10960118E-01 0.34181955E+03</pdfrwt>
<totfact> 0.52500844E+03</totfact>
</mgrwt>
</event>
<event>
 4    1  0.2679255E-004  0.2870991E+03  0.7818608E-02  0.1091874E+00
          2   -1    0    0  501    0  0.00000000000E+00  0.00000000000E+00  0.25821854416E+04  0.25821854416E+04  0.25500000000E-02 0.  1.
         -2   -1    0    0    0  501 -0.00000000000E+00 -0.00000000000E+00 -0.79802434003E+01  0.79802438077E+01  0.25500000000E-02 0. -1.
    5000001    1    1    2    0    0 -0.19271692863E+02 -0.53172665840E+02  0.96448607986E+03  0.97445427228E+03  0.12700000000E+03 0.  0.
   -5000001    1    1    2    0    0  0.19271692863E+02  0.53172665840E+02  0.16097191184E+04  0.16157114132E+04  0.12700000000E+03 0.  0.
<mgrwt>
<rscale>  0 0.28709907E+03</rscale>
<asrwt>0</asrwt>
<pdfrwt beam="1">  1        2 0.36888367E+00 0.28709907E+03</pdfrwt>
<pdfrwt beam="2">  1       -2 0.11400347E-02 0.28709907E+03</pdfrwt>
<totfact> 0.80356069E+03</totfact>
</mgrwt>
</event>
<event>
 4    1  0.2679255E-004  0.2757797E+03  0.7818608E-02  0.1098017E+00
         -2   -1    0    0    0  501 -0.00000000000E+00  0.00000000000E+00  0.19291120016E+02  0.19291120184E+02  0.25500000000E-02 0. -1.
          2   -1    0    0  501    0  0.00000000000E+00 -0.00000000000E+00 -0.98561434748E+03  0.98561434749E+03  0.25500000000E-02 0.  1.
    5000001    1    1    2    0    0  0.42930047164E+02 -0.26081338954E+02 -0.55243154808E+03  0.56906312523E+03  0.12700000000E+03 0.  0.
   -5000001    1    1    2    0    0 -0.42930047164E+02  0.26081338954E+02 -0.41389167939E+03  0.43584234243E+03  0.12700000000E+03 0.  0.
<mgrwt>
<rscale>  0 0.27577966E+03</rscale>
<asrwt>0</asrwt>
<pdfrwt beam="1">  1        2 0.14080202E+00 0.27577966E+03</pdfrwt>
<pdfrwt beam="2">  1       -2 0.27558749E-02 0.27577966E+03</pdfrwt>
<totfact> 0.14238100E+04</totfact>
</mgrwt>
</event>
<event>
 4    1  0.2679255E-004  0.3462042E+03  0.7818608E-02  0.1064184E+00
         -2   -1    0    0    0  501 -0.00000000000E+00  0.00000000000E+00  0.33201594392E+02  0.33201594490E+02  0.25500000000E-02 0.  1.
          2   -1    0    0  501    0  0.00000000000E+00 -0.00000000000E+00 -0.90249716553E+03  0.90249716553E+03  0.25500000000E-02 0. -1.
    5000001    1    1    2    0    0  0.10659028502E+03  0.45147428846E+02 -0.49105445975E+03  0.52025307460E+03  0.12700000000E+03 0.  0.
   -5000001    1    1    2    0    0 -0.10659028502E+03 -0.45147428846E+02 -0.37824111139E+03  0.41544568542E+03  0.12700000000E+03 0.  0.
<mgrwt>
<rscale>  0 0.34620425E+03</rscale>
<asrwt>0</asrwt>
<pdfrwt beam="1">  1        2 0.12892815E+00 0.34620425E+03</pdfrwt>
<pdfrwt beam="2">  1       -2 0.47430855E-02 0.34620425E+03</pdfrwt>
<totfact> 0.71239505E+03</totfact>
</mgrwt>
</event>
<event>
 4    1  0.2679255E-004  0.4711890E+03  0.7818608E-02  0.1021585E+00
          2   -1    0    0  501    0  0.00000000000E+00  0.00000000000E+00  0.27209060807E+03  0.27209060808E+03  0.25500000000E-02 0.  1.
         -2   -1    0    0    0  501 -0.00000000000E+00 -0.00000000000E+00 -0.20399370748E+03  0.20399370750E+03  0.25500000000E-02 0. -1.
    5000001    1    1    2    0    0  0.37016187635E+02  0.19328994396E+03  0.59700626267E+02  0.24171132651E+03  0.12700000000E+03 0.  0.
   -5000001    1    1    2    0    0 -0.37016187635E+02 -0.19328994396E+03  0.83962743152E+01  0.23437298907E+03  0.12700000000E+03 0.  0.
<mgrwt>
<rscale>  0 0.47118901E+03</rscale>
<asrwt>0</asrwt>
<pdfrwt beam="1">  1        2 0.38870087E-01 0.47118901E+03</pdfrwt>
<pdfrwt beam="2">  1       -2 0.29141958E-01 0.47118901E+03</pdfrwt>
<totfact> 0.14335372E+03</totfact>
</mgrwt>
</event>
<event>
 4    1  0.2679255E-004  0.3783528E+03  0.7818608E-02  0.1051544E+00
         -2   -1    0    0    0  501 -0.00000000000E+00  0.00000000000E+00  0.84921798607E+01  0.84921802436E+01  0.25500000000E-02 0. -1.
          2   -1    0    0  501    0  0.00000000000E+00 -0.00000000000E+00 -0.42141947915E+04  0.42141947915E+04  0.25500000000E-02 0.  1.
    5000001    1    1    2    0    0  0.77086043209E+02 -0.10249176557E+03 -0.27353675856E+04  0.27413156784E+04  0.12700000000E+03 0.  0.
   -5000001    1    1    2    0    0 -0.77086043209E+02  0.10249176557E+03 -0.14703350260E+04  0.14813712934E+04  0.12700000000E+03 0.  0.
<mgrwt>
<rscale>  0 0.37835275E+03</rscale>
<asrwt>0</asrwt>
<pdfrwt beam="1">  1        2 0.60202649E+00 0.37835275E+03</pdfrwt>
<pdfrwt beam="2">  1       -2 0.12131713E-02 0.37835275E+03</pdfrwt>
<totfact> 0.81892075E+02</totfact>
</mgrwt>
</event>
<event>
 4    1  0.2679255E-004  0.4072217E+03  0.7818608E-02  0.1041307E+00
         -2   -1    0    0    0  501 -0.00000000000E+00  0.00000000000E+00  0.25751561863E+03  0.25751561864E+03  0.25500000000E-02 0. -1.
          2   -1    0    0  501    0  0.00000000000E+00 -0.00000000000E+00 -0.16098975087E+03  0.16098975089E+03  0.25500000000E-02 0.  1.
    5000001    1    1    2    0    0 -0.12400374470E+03  0.51872112238E+02  0.13583393162E+03  0.22945043410E+03  0.12700000000E+03 0.  0.
   -5000001    1    1    2    0    0  0.12400374470E+03 -0.51872112238E+02 -0.39308063867E+02  0.18905493543E+03  0.12700000000E+03 0.  0.
<mgrwt>
<rscale>  0 0.40722169E+03</rscale>
<asrwt>0</asrwt>
<pdfrwt beam="1">  1        2 0.22998536E-01 0.40722169E+03</pdfrwt>
<pdfrwt beam="2">  1       -2 0.36787945E-01 0.40722169E+03</pdfrwt>
<totfact> 0.16668348E+03</totfact>
</mgrwt>
</event>
<event>
 4    1  0.2679255E-004  0.4276735E+03  0.7818608E-02  0.1034597E+00
         -2   -1    0    0    0  501 -0.00000000000E+00  0.00000000000E+00  0.24186562879E+03  0.24186562881E+03  0.25500000000E-02 0.  1.
          2   -1    0    0  501    0  0.00000000000E+00 -0.00000000000E+00 -0.18905605306E+03  0.18905605308E+03  0.25500000000E-02 0. -1.
    5000001    1    1    2    0    0  0.15501384926E+02  0.17115191172E+03  0.34458701417E+02  0.21644785036E+03  0.12700000000E+03 0.  0.
   -5000001    1    1    2    0    0 -0.15501384926E+02 -0.17115191172E+03  0.18350874319E+02  0.21447383153E+03  0.12700000000E+03 0.  0.
<mgrwt>
<rscale>  0 0.42767353E+03</rscale>
<asrwt>0</asrwt>
<pdfrwt beam="1">  1        2 0.27008007E-01 0.42767353E+03</pdfrwt>
<pdfrwt beam="2">  1       -2 0.34552233E-01 0.42767353E+03</pdfrwt>
<totfact> 0.15648179E+03</totfact>
</mgrwt>
</event>
<event>
 4    1  0.2679255E-004  0.6025583E+03  0.7818608E-02  0.9900113E-01
          2   -1    0    0  501    0  0.00000000000E+00  0.00000000000E+00  0.78370782983E+03  0.78370782983E+03  0.25500000000E-02 0.  1.
         -2   -1    0    0    0  501 -0.00000000000E+00 -0.00000000000E+00 -0.11582011039E+03  0.11582011042E+03  0.25500000000E-02 0. -1.
    5000001    1    1    2    0    0  0.25193659378E+02  0.24332839384E+03  0.51553640293E+03  0.58459405614E+03  0.12700000000E+03 0.  0.
   -5000001    1    1    2    0    0 -0.25193659378E+02 -0.24332839384E+03  0.15235131651E+03  0.31493388412E+03  0.12700000000E+03 0.  0.
<mgrwt>
<rscale>  0 0.60255830E+03</rscale>
<asrwt>0</asrwt>
<pdfrwt beam="1">  1        2 0.11195826E+00 0.60255830E+03</pdfrwt>
<pdfrwt beam="2">  1       -2 0.16545730E-01 0.60255830E+03</pdfrwt>
<totfact> 0.11597935E+03</totfact>
</mgrwt>
</event>
<event>
 4    1  0.2679255E-004  0.3144387E+03  0.7818608E-02  0.1078238E+00
          2   -1    0    0  501    0  0.00000000000E+00  0.00000000000E+00  0.17918422566E+04  0.17918422566E+04  0.25500000000E-02 0.  1.
         -2   -1    0    0    0  501 -0.00000000000E+00 -0.00000000000E+00 -0.13794697563E+02  0.13794697799E+02  0.25500000000E-02 0. -1.
    5000001    1    1    2    0    0  0.90539849928E+02  0.17031393983E+02  0.94684546874E+03  0.95975667462E+03  0.12700000000E+03 0.  0.
   -5000001    1    1    2    0    0 -0.90539849928E+02 -0.17031393983E+02  0.83120209027E+03  0.84588027975E+03  0.12700000000E+03 0.  0.
<mgrwt>
<rscale>  0 0.31443869E+03</rscale>
<asrwt>0</asrwt>
<pdfrwt beam="1">  1        2 0.25597728E+00 0.31443869E+03</pdfrwt>
<pdfrwt beam="2">  1       -2 0.19706725E-02 0.31443869E+03</pdfrwt>
<totfact> 0.88430859E+03</totfact>
</mgrwt>
</event>
<event>
 4    1  0.2679255E-004  0.5827168E+03  0.7818608E-02  0.9941927E-01
         -2   -1    0    0    0  501 -0.00000000000E+00  0.00000000000E+00  0.36367251995E+02  0.36367252085E+02  0.25500000000E-02 0. -1.
          2   -1    0    0  501    0  0.00000000000E+00 -0.00000000000E+00 -0.23342349150E+04  0.23342349150E+04  0.25500000000E-02 0.  1.
    5000001    1    1    2    0    0  0.18009816360E+03 -0.18722998262E+03 -0.10039387147E+04  0.10447546879E+04  0.12700000000E+03 0.  0.
   -5000001    1    1    2    0    0 -0.18009816360E+03  0.18722998262E+03 -0.12939289483E+04  0.13258474792E+04  0.12700000000E+03 0.  0.
<mgrwt>
<rscale>  0 0.58271677E+03</rscale>
<asrwt>0</asrwt>
<pdfrwt beam="1">  1        2 0.33346204E+00 0.58271677E+03</pdfrwt>
<pdfrwt beam="2">  1       -2 0.51953232E-02 0.58271677E+03</pdfrwt>
<totfact> 0.10883418E+03</totfact>
</mgrwt>
</event>
<event>
 4    1  0.2679255E-004  0.4426109E+03  0.7818608E-02  0.1029949E+00
         -2   -1    0    0    0  501 -0.00000000000E+00  0.00000000000E+00  0.54759820096E+02  0.54759820155E+02  0.25500000000E-02 0. -1.
          2   -1    0    0  501    0  0.00000000000E+00 -0.00000000000E+00 -0.89438044463E+03  0.89438044464E+03  0.25500000000E-02 0.  1.
    5000001    1    1    2    0    0  0.53532168166E+02 -0.16763220959E+03 -0.51281110763E+03  0.55683972813E+03  0.12700000000E+03 0.  0.
   -5000001    1    1    2    0    0 -0.53532168166E+02  0.16763220959E+03 -0.32680951691E+03  0.39230053666E+03  0.12700000000E+03 0.  0.
<mgrwt>
<rscale>  0 0.44261095E+03</rscale>
<asrwt>0</asrwt>
<pdfrwt beam="1">  1        2 0.12776863E+00 0.44261095E+03</pdfrwt>
<pdfrwt beam="2">  1       -2 0.78228320E-02 0.44261095E+03</pdfrwt>
<totfact> 0.33298118E+03</totfact>
</mgrwt>
</event>
<event>
 4    1  0.2679255E-004  0.3535271E+03  0.7818608E-02  0.1061177E+00
         -2   -1    0    0    0  501 -0.00000000000E+00  0.00000000000E+00  0.14383081512E+02  0.14383081738E+02  0.25500000000E-02 0. -1.
          2   -1    0    0  501    0  0.00000000000E+00 -0.00000000000E+00 -0.21723687038E+04  0.21723687038E+04  0.25500000000E-02 0.  1.
    5000001    1    1    2    0    0 -0.51775180395E+02  0.80553976619E+02 -0.60199501554E+03  0.62265288178E+03  0.12700000000E+03 0.  0.
   -5000001    1    1    2    0    0  0.51775180395E+02 -0.80553976619E+02 -0.15559906068E+04  0.15640989038E+04  0.12700000000E+03 0.  0.
<mgrwt>
<rscale>  0 0.35352712E+03</rscale>
<asrwt>0</asrwt>
<pdfrwt beam="1">  1        2 0.31033818E+00 0.35352712E+03</pdfrwt>
<pdfrwt beam="2">  1       -2 0.20547273E-02 0.35352712E+03</pdfrwt>
<totfact> 0.54055398E+03</totfact>
</mgrwt>
</event>
<event>
 4    1  0.2679255E-004  0.3616370E+03  0.7818608E-02  0.1057938E+00
         -2   -1    0    0    0  501 -0.00000000000E+00  0.00000000000E+00  0.13830295487E+02  0.13830295722E+02  0.25500000000E-02 0. -1.
          2   -1    0    0  501    0  0.00000000000E+00 -0.00000000000E+00 -0.23640364072E+04  0.23640364072E+04  0.25500000000E-02 0.  1.
    5000001    1    1    2    0    0 -0.30333039428E+02 -0.10943058226E+03 -0.77670487780E+03  0.79516954973E+03  0.12700000000E+03 0.  0.
   -5000001    1    1    2    0    0  0.30333039428E+02  0.10943058226E+03 -0.15735012340E+04  0.15826971532E+04  0.12700000000E+03 0.  0.
<mgrwt>
<rscale>  0 0.36163696E+03</rscale>
<asrwt>0</asrwt>
<pdfrwt beam="1">  1        2 0.33771923E+00 0.36163696E+03</pdfrwt>
<pdfrwt beam="2">  1       -2 0.19757580E-02 0.36163696E+03</pdfrwt>
<totfact> 0.46019997E+03</totfact>
</mgrwt>
</event>
<event>
 4    1  0.2679255E-004  0.3109460E+03  0.7818608E-02  0.1079893E+00
          2   -1    0    0  501    0  0.00000000000E+00  0.00000000000E+00  0.68209450197E+03  0.68209450198E+03  0.25500000000E-02 0.  1.
         -2   -1    0    0    0  501 -0.00000000000E+00 -0.00000000000E+00 -0.35437687537E+02  0.35437687629E+02  0.25500000000E-02 0. -1.
    5000001    1    1    2    0    0  0.87098610293E+02 -0.20844375560E+02  0.33420000522E+03  0.36856383355E+03  0.12700000000E+03 0.  0.
   -5000001    1    1    2    0    0 -0.87098610293E+02  0.20844375560E+02  0.31245680921E+03  0.34896835606E+03  0.12700000000E+03 0.  0.
<mgrwt>
<rscale>  0 0.31094599E+03</rscale>
<asrwt>0</asrwt>
<pdfrwt beam="1">  1        2 0.97442079E-01 0.31094599E+03</pdfrwt>
<pdfrwt beam="2">  1       -2 0.50625264E-02 0.31094599E+03</pdfrwt>
<totfact> 0.91036946E+03</totfact>
</mgrwt>
</event>
<event>
 4    1  0.2679255E-004  0.3066235E+03  0.7818608E-02  0.1081976E+00
         -2   -1    0    0    0  501 -0.00000000000E+00  0.00000000000E+00  0.85478353410E+02  0.85478353448E+02  0.25500000000E-02 0. -1.
          2   -1    0    0  501    0  0.00000000000E+00 -0.00000000000E+00 -0.27497592403E+03  0.27497592404E+03  0.25500000000E-02 0.  1.
    5000001    1    1    2    0    0 -0.73118526353E+02  0.15763954842E+02 -0.45142550730E+02  0.15414821133E+03  0.12700000000E+03 0.  0.
   -5000001    1    1    2    0    0  0.73118526353E+02 -0.15763954842E+02 -0.14435501989E+03  0.20630606616E+03  0.12700000000E+03 0.  0.
<mgrwt>
<rscale>  0 0.30662348E+03</rscale>
<asrwt>0</asrwt>
<pdfrwt beam="1">  1        2 0.39282274E-01 0.30662348E+03</pdfrwt>
<pdfrwt beam="2">  1       -2 0.12211193E-01 0.30662348E+03</pdfrwt>
<totfact> 0.62498843E+03</totfact>
</mgrwt>
</event>
<event>
 4    1  0.2679255E-004  0.3827785E+03  0.7818608E-02  0.1049912E+00
         -2   -1    0    0    0  501 -0.00000000000E+00  0.00000000000E+00  0.37617221132E+02  0.37617221219E+02  0.25500000000E-02 0. -1.
          2   -1    0    0  501    0  0.00000000000E+00 -0.00000000000E+00 -0.97375224876E+03  0.97375224876E+03  0.25500000000E-02 0.  1.
    5000001    1    1    2    0    0 -0.13498809113E+03 -0.64706105386E+01 -0.59304007588E+03  0.62136075282E+03  0.12700000000E+03 0.  0.
   -5000001    1    1    2    0    0  0.13498809113E+03  0.64706105386E+01 -0.34309495174E+03  0.39000871716E+03  0.12700000000E+03 0.  0.
<mgrwt>
<rscale>  0 0.38277855E+03</rscale>
<asrwt>0</asrwt>
<pdfrwt beam="1">  1        2 0.13910745E+00 0.38277855E+03</pdfrwt>
<pdfrwt beam="2">  1       -2 0.53738893E-02 0.38277855E+03</pdfrwt>
<totfact> 0.53260299E+03</totfact>
</mgrwt>
</event>
<event>
 4    1  0.2679255E-004  0.4353077E+03  0.7818608E-02  0.1032196E+00
          2   -1    0    0  501    0  0.00000000000E+00  0.00000000000E+00  0.17265350149E+04  0.17265350149E+04  0.25500000000E-02 0.  1.
         -2   -1    0    0    0  501 -0.00000000000E+00 -0.00000000000E+00 -0.27438306798E+02  0.27438306917E+02  0.25500000000E-02 0. -1.
    5000001    1    1    2    0    0  0.58892939563E+02 -0.13457436945E+03  0.12456805217E+04  0.12607250301E+04  0.12700000000E+03 0.  0.
   -5000001    1    1    2    0    0 -0.58892939563E+02  0.13457436945E+03  0.45341618636E+03  0.49324829173E+03  0.12700000000E+03 0.  0.
<mgrwt>
<rscale>  0 0.43530770E+03</rscale>
<asrwt>0</asrwt>
<pdfrwt beam="1">  1        2 0.24664798E+00 0.43530770E+03</pdfrwt>
<pdfrwt beam="2">  1       -2 0.39197563E-02 0.43530770E+03</pdfrwt>
<totfact> 0.34043764E+03</totfact>
</mgrwt>
</event>
<event>
 4    1  0.2679255E-004  0.3549541E+03  0.7818608E-02  0.1060600E+00
          2   -1    0    0  501    0  0.00000000000E+00  0.00000000000E+00  0.38092687242E+03  0.38092687243E+03  0.25500000000E-02 0.  1.
         -2   -1    0    0    0  501 -0.00000000000E+00 -0.00000000000E+00 -0.82688043789E+02  0.82688043828E+02  0.25500000000E-02 0. -1.
    5000001    1    1    2    0    0 -0.20833982994E+02  0.11667570008E+03  0.19660612308E+03  0.26235518190E+03  0.12700000000E+03 0.  0.
   -5000001    1    1    2    0    0  0.20833982994E+02 -0.11667570008E+03  0.10163270556E+03  0.20125973436E+03  0.12700000000E+03 0.  0.
<mgrwt>
<rscale>  0 0.35495407E+03</rscale>
<asrwt>0</asrwt>
<pdfrwt beam="1">  1        2 0.54418124E-01 0.35495407E+03</pdfrwt>
<pdfrwt beam="2">  1       -2 0.11812578E-01 0.35495407E+03</pdfrwt>
<totfact> 0.46531484E+03</totfact>
</mgrwt>
</event>
<event>
 4    1  0.2679255E-004  0.4112988E+03  0.7818608E-02  0.1039936E+00
          2   -1    0    0  501    0  0.00000000000E+00  0.00000000000E+00  0.12839833855E+03  0.12839833858E+03  0.25500000000E-02 0.  1.
         -2   -1    0    0    0  501 -0.00000000000E+00 -0.00000000000E+00 -0.32937874996E+03  0.32937874997E+03  0.25500000000E-02 0. -1.
    5000001    1    1    2    0    0 -0.12502961914E+03 -0.10152815231E+03 -0.11708526778E+03  0.23617436632E+03  0.12700000000E+03 0.  0.
   -5000001    1    1    2    0    0  0.12502961914E+03  0.10152815231E+03 -0.83895143633E+02  0.22160272223E+03  0.12700000000E+03 0.  0.
<mgrwt>
<rscale>  0 0.41129884E+03</rscale>
<asrwt>0</asrwt>
<pdfrwt beam="1">  1        2 0.18342620E-01 0.41129884E+03</pdfrwt>
<pdfrwt beam="2">  1       -2 0.47054107E-01 0.41129884E+03</pdfrwt>
<totfact> 0.13426749E+03</totfact>
</mgrwt>
</event>
<event>
 4    1  0.2679255E-004  0.5181556E+03  0.7818608E-02  0.1009146E+00
         -2   -1    0    0    0  501 -0.00000000000E+00  0.00000000000E+00  0.27654177192E+02  0.27654177310E+02  0.25500000000E-02 0. -1.
          2   -1    0    0  501    0  0.00000000000E+00 -0.00000000000E+00 -0.24271669398E+04  0.24271669398E+04  0.25500000000E-02 0.  1.
    5000001    1    1    2    0    0 -0.19227214094E+03  0.96156352497E+02 -0.15272240227E+04  0.15475001893E+04  0.12700000000E+03 0.  0.
   -5000001    1    1    2    0    0  0.19227214094E+03 -0.96156352497E+02 -0.87228873984E+03  0.90732092776E+03  0.12700000000E+03 0.  0.
<mgrwt>
<rscale>  0 0.51815559E+03</rscale>
<asrwt>0</asrwt>
<pdfrwt beam="1">  1        2 0.34673800E+00 0.51815559E+03</pdfrwt>
<pdfrwt beam="2">  1       -2 0.39505983E-02 0.51815559E+03</pdfrwt>
<totfact> 0.14956744E+03</totfact>
</mgrwt>
</event>
<event>
 4    1  0.2679255E-004  0.3477603E+03  0.7818608E-02  0.1063538E+00
         -2   -1    0    0    0  501 -0.00000000000E+00  0.00000000000E+00  0.55490304070E+02  0.55490304129E+02  0.25500000000E-02 0. -1.
          2   -1    0    0  501    0  0.00000000000E+00 -0.00000000000E+00 -0.54485747676E+03  0.54485747676E+03  0.25500000000E-02 0.  1.
    5000001    1    1    2    0    0 -0.10659442116E+02 -0.11337920025E+03 -0.18647693175E+03  0.25272734880E+03  0.12700000000E+03 0.  0.
   -5000001    1    1    2    0    0  0.10659442116E+02  0.11337920025E+03 -0.30289024094E+03  0.34762043210E+03  0.12700000000E+03 0.  0.
<mgrwt>
<rscale>  0 0.34776030E+03</rscale>
<asrwt>0</asrwt>
<pdfrwt beam="1">  1        2 0.77836779E-01 0.34776030E+03</pdfrwt>
<pdfrwt beam="2">  1       -2 0.79271866E-02 0.34776030E+03</pdfrwt>
<totfact> 0.59166834E+03</totfact>
</mgrwt>
</event>
<event>
 4    1  0.2679255E-004  0.4939671E+03  0.7818608E-02  0.1015366E+00
          2   -1    0    0  501    0  0.00000000000E+00  0.00000000000E+00  0.25005759020E+04  0.25005759020E+04  0.25500000000E-02 0.  1.
         -2   -1    0    0    0  501 -0.00000000000E+00 -0.00000000000E+00 -0.24394730669E+02  0.24394730803E+02  0.25500000000E-02 0. -1.
    5000001    1    1    2    0    0  0.11874803656E+03 -0.17210386206E+03  0.14115123355E+04  0.14325560753E+04  0.12700000000E+03 0.  0.
   -5000001    1    1    2    0    0 -0.11874803656E+03  0.17210386206E+03  0.10646688358E+04  0.10924145575E+04  0.12700000000E+03 0.  0.
<mgrwt>
<rscale>  0 0.49396711E+03</rscale>
<asrwt>0</asrwt>
<pdfrwt beam="1">  1        2 0.35722495E+00 0.49396711E+03</pdfrwt>
<pdfrwt beam="2">  1       -2 0.34849632E-02 0.49396711E+03</pdfrwt>
<totfact> 0.16643522E+03</totfact>
</mgrwt>
</event>
<event>
 4    1  0.2679255E-004  0.2861061E+03  0.7818608E-02  0.1092400E+00
          2   -1    0    0  501    0  0.00000000000E+00  0.00000000000E+00  0.86738909318E+03  0.86738909319E+03  0.25500000000E-02 0.  1.
         -2   -1    0    0    0  501 -0.00000000000E+00 -0.00000000000E+00 -0.23592851436E+02  0.23592851574E+02  0.25500000000E-02 0. -1.
    5000001    1    1    2    0    0 -0.55969017670E+01 -0.41621110584E+02  0.57981856163E+03  0.59504807080E+03  0.12700000000E+03 0.  0.
   -5000001    1    1    2    0    0  0.55969017670E+01  0.41621110584E+02  0.26397768011E+03  0.29593387395E+03  0.12700000000E+03 0.  0.
<mgrwt>
<rscale>  0 0.28610615E+03</rscale>
<asrwt>0</asrwt>
<pdfrwt beam="1">  1        2 0.12391270E+00 0.28610615E+03</pdfrwt>
<pdfrwt beam="2">  1       -2 0.33704082E-02 0.28610615E+03</pdfrwt>
<totfact> 0.12492311E+04</totfact>
</mgrwt>
</event>
<event>
 4    1  0.2679255E-004  0.3542261E+03  0.7818608E-02  0.1060894E+00
         -2   -1    0    0    0  501 -0.00000000000E+00  0.00000000000E+00  0.38007776812E+02  0.38007776898E+02  0.25500000000E-02 0. -1.
          2   -1    0    0  501    0  0.00000000000E+00 -0.00000000000E+00 -0.82533194177E+03  0.82533194177E+03  0.25500000000E-02 0.  1.
    5000001    1    1    2    0    0  0.81675655967E+02 -0.77428274650E+02 -0.27000929819E+03  0.31890448664E+03  0.12700000000E+03 0.  0.
   -5000001    1    1    2    0    0 -0.81675655967E+02  0.77428274650E+02 -0.51731486677E+03  0.54443523203E+03  0.12700000000E+03 0.  0.
<mgrwt>
<rscale>  0 0.35422610E+03</rscale>
<asrwt>0</asrwt>
<pdfrwt beam="1">  1        2 0.11790455E+00 0.35422610E+03</pdfrwt>
<pdfrwt beam="2">  1       -2 0.54296829E-02 0.35422610E+03</pdfrwt>
<totfact> 0.65017630E+03</totfact>
</mgrwt>
</event>
<event>
 4    1  0.2679255E-004  0.2807554E+03  0.7818608E-02  0.1095277E+00
          2   -1    0    0  501    0  0.00000000000E+00  0.00000000000E+00  0.50415627387E+02  0.50415627451E+02  0.25500000000E-02 0.  1.
         -2   -1    0    0    0  501 -0.00000000000E+00 -0.00000000000E+00 -0.39086874196E+03  0.39086874197E+03  0.25500000000E-02 0. -1.
    5000001    1    1    2    0    0  0.58072571184E+02 -0.79784136419E+01 -0.15157505539E+03  0.20625245701E+03  0.12700000000E+03 0.  0.
   -5000001    1    1    2    0    0 -0.58072571184E+02  0.79784136419E+01 -0.18887805919E+03  0.23503191241E+03  0.12700000000E+03 0.  0.
<mgrwt>
<rscale>  0 0.28075536E+03</rscale>
<asrwt>0</asrwt>
<pdfrwt beam="1">  1        2 0.72022327E-02 0.28075536E+03</pdfrwt>
<pdfrwt beam="2">  1       -2 0.55838390E-01 0.28075536E+03</pdfrwt>
<totfact> 0.29806000E+03</totfact>
</mgrwt>
</event>
<event>
 4    1  0.2679255E-004  0.3508011E+03  0.7818608E-02  0.1062287E+00
         -2   -1    0    0    0  501 -0.00000000000E+00  0.00000000000E+00  0.40107425389E+03  0.40107425389E+03  0.25500000000E-02 0. -1.
          2   -1    0    0  501    0  0.00000000000E+00 -0.00000000000E+00 -0.76707365856E+02  0.76707365898E+02  0.25500000000E-02 0.  1.
    5000001    1    1    2    0    0  0.32877126022E+02 -0.11315404742E+03  0.19952251791E+03  0.26424038112E+03  0.12700000000E+03 0.  0.
   -5000001    1    1    2    0    0 -0.32877126022E+02  0.11315404742E+03  0.12484437012E+03  0.21354123867E+03  0.12700000000E+03 0.  0.
<mgrwt>
<rscale>  0 0.35080108E+03</rscale>
<asrwt>0</asrwt>
<pdfrwt beam="1">  1        2 0.10958195E-01 0.35080108E+03</pdfrwt>
<pdfrwt beam="2">  1       -2 0.57296322E-01 0.35080108E+03</pdfrwt>
<totfact> 0.16731082E+03</totfact>
</mgrwt>
</event>
<event>
 4    1  0.2679255E-004  0.5786614E+03  0.7818608E-02  0.9950693E-01
         -2   -1    0    0    0  501 -0.00000000000E+00  0.00000000000E+00  0.78010267671E+02  0.78010267713E+02  0.25500000000E-02 0. -1.
          2   -1    0    0  501    0  0.00000000000E+00 -0.00000000000E+00 -0.10730926000E+04  0.10730926000E+04  0.25500000000E-02 0.  1.
    5000001    1    1    2    0    0 -0.19235547822E+03  0.38536181223E+02 -0.83686787491E+03  0.86888578496E+03  0.12700000000E+03 0.  0.
   -5000001    1    1    2    0    0  0.19235547822E+03 -0.38536181223E+02 -0.15821445745E+03  0.28221708278E+03  0.12700000000E+03 0.  0.
<mgrwt>
<rscale>  0 0.57866136E+03</rscale>
<asrwt>0</asrwt>
<pdfrwt beam="1">  1        2 0.15329893E+00 0.57866136E+03</pdfrwt>
<pdfrwt beam="2">  1       -2 0.11144325E-01 0.57866136E+03</pdfrwt>
<totfact> 0.14656490E+03</totfact>
</mgrwt>
</event>
<event>
 4    1  0.2679255E-004  0.5941006E+03  0.7818608E-02  0.9917722E-01
          2   -1    0    0  501    0  0.00000000000E+00  0.00000000000E+00  0.33855605781E+04  0.33855605781E+04  0.25500000000E-02 0.  1.
         -2   -1    0    0    0  501 -0.00000000000E+00 -0.00000000000E+00 -0.26063302117E+02  0.26063302241E+02  0.25500000000E-02 0. -1.
    5000001    1    1    2    0    0 -0.27281074346E+02 -0.26088847144E+03  0.20097720092E+04  0.20307928453E+04  0.12700000000E+03 0.  0.
   -5000001    1    1    2    0    0  0.27281074346E+02  0.26088847144E+03  0.13497252668E+04  0.13808310350E+04  0.12700000000E+03 0.  0.
<mgrwt>
<rscale>  0 0.59410063E+03</rscale>
<asrwt>0</asrwt>
<pdfrwt beam="1">  1        2 0.48365124E+00 0.59410063E+03</pdfrwt>
<pdfrwt beam="2">  1       -2 0.37233309E-02 0.59410063E+03</pdfrwt>
<totfact> 0.49572240E+02</totfact>
</mgrwt>
</event>
<event>
 4    1  0.2679255E-004  0.2952626E+03  0.7818608E-02  0.1087633E+00
          2   -1    0    0  501    0  0.00000000000E+00  0.00000000000E+00  0.32762284164E+04  0.32762284164E+04  0.25500000000E-02 0.  1.
         -2   -1    0    0    0  501 -0.00000000000E+00 -0.00000000000E+00 -0.66524660085E+01  0.66524664973E+01  0.25500000000E-02 0. -1.
    5000001    1    1    2    0    0 -0.39060959340E+02 -0.64291127272E+02  0.16639756913E+04  0.16705098649E+04  0.12700000000E+03 0.  0.
   -5000001    1    1    2    0    0  0.39060959340E+02  0.64291127272E+02  0.16056002591E+04  0.16123710180E+04  0.12700000000E+03 0.  0.
<mgrwt>
<rscale>  0 0.29526259E+03</rscale>
<asrwt>0</asrwt>
<pdfrwt beam="1">  1        2 0.46803427E+00 0.29526259E+03</pdfrwt>
<pdfrwt beam="2">  1       -2 0.95034900E-03 0.29526259E+03</pdfrwt>
<totfact> 0.45089438E+03</totfact>
</mgrwt>
</event>
<event>
 4    1  0.2679255E-004  0.3118383E+03  0.7818608E-02  0.1079468E+00
          2   -1    0    0  501    0  0.00000000000E+00  0.00000000000E+00  0.16949676685E+04  0.16949676685E+04  0.25500000000E-02 0.  1.
         -2   -1    0    0    0  501 -0.00000000000E+00 -0.00000000000E+00 -0.14342918434E+02  0.14342918660E+02  0.25500000000E-02 0. -1.
    5000001    1    1    2    0    0 -0.59359822796E+01 -0.89072685837E+02  0.76038837883E+03  0.77607259062E+03  0.12700000000E+03 0.  0.
   -5000001    1    1    2    0    0  0.59359822796E+01  0.89072685837E+02  0.92023637121E+03  0.93323799652E+03  0.12700000000E+03 0.  0.
<mgrwt>
<rscale>  0 0.31183831E+03</rscale>
<asrwt>0</asrwt>
<pdfrwt beam="1">  1        2 0.24213824E+00 0.31183831E+03</pdfrwt>
<pdfrwt beam="2">  1       -2 0.20489884E-02 0.31183831E+03</pdfrwt>
<totfact> 0.93201735E+03</totfact>
</mgrwt>
</event>
<event>
 4    1  0.2679255E-004  0.4129008E+03  0.7818608E-02  0.1039402E+00
         -2   -1    0    0    0  501 -0.00000000000E+00  0.00000000000E+00  0.65513947458E+03  0.65513947459E+03  0.25500000000E-02 0. -1.
          2   -1    0    0  501    0  0.00000000000E+00 -0.00000000000E+00 -0.65057547942E+02  0.65057547992E+02  0.25500000000E-02 0.  1.
    5000001    1    1    2    0    0 -0.41256412946E+02  0.11854269969E+03  0.11429298234E+03  0.21200554019E+03  0.12700000000E+03 0.  0.
   -5000001    1    1    2    0    0  0.41256412946E+02 -0.11854269969E+03  0.47578894430E+03  0.50819148239E+03  0.12700000000E+03 0.  0.
<mgrwt>
<rscale>  0 0.41290080E+03</rscale>
<asrwt>0</asrwt>
<pdfrwt beam="1">  1        2 0.92939353E-02 0.41290080E+03</pdfrwt>
<pdfrwt beam="2">  1       -2 0.93591355E-01 0.41290080E+03</pdfrwt>
<totfact> 0.70762164E+02</totfact>
</mgrwt>
</event>
<event>
 4    1  0.2679255E-004  0.3363661E+03  0.7818608E-02  0.1068354E+00
         -2   -1    0    0    0  501 -0.00000000000E+00  0.00000000000E+00  0.22513350899E+02  0.22513351044E+02  0.25500000000E-02 0. -1.
          2   -1    0    0  501    0  0.00000000000E+00 -0.00000000000E+00 -0.12563897564E+04  0.12563897564E+04  0.25500000000E-02 0.  1.
    5000001    1    1    2    0    0 -0.75775451104E+02  0.39160503523E+02 -0.35130440948E+03  0.38317000423E+03  0.12700000000E+03 0.  0.
   -5000001    1    1    2    0    0  0.75775451104E+02 -0.39160503523E+02 -0.88257199603E+03  0.89573310322E+03  0.12700000000E+03 0.  0.
<mgrwt>
<rscale>  0 0.33636613E+03</rscale>
<asrwt>0</asrwt>
<pdfrwt beam="1">  1        2 0.17948421E+00 0.33636613E+03</pdfrwt>
<pdfrwt beam="2">  1       -2 0.32161938E-02 0.33636613E+03</pdfrwt>
<totfact> 0.80055562E+03</totfact>
</mgrwt>
</event>
<event>
 4    1  0.2679255E-004  0.3272783E+03  0.7818608E-02  0.1072348E+00
          2   -1    0    0  501    0  0.00000000000E+00  0.00000000000E+00  0.15964409301E+04  0.15964409301E+04  0.25500000000E-02 0.  1.
         -2   -1    0    0    0  501 -0.00000000000E+00 -0.00000000000E+00 -0.16773418442E+02  0.16773418636E+02  0.25500000000E-02 0. -1.
    5000001    1    1    2    0    0 -0.66148242255E+02 -0.80470027829E+01  0.11782216415E+04  0.11869185232E+04  0.12700000000E+03 0.  0.
   -5000001    1    1    2    0    0  0.66148242255E+02  0.80470027829E+01  0.40144587014E+03  0.42629582552E+03  0.12700000000E+03 0.  0.
<mgrwt>
<rscale>  0 0.32727830E+03</rscale>
<asrwt>0</asrwt>
<pdfrwt beam="1">  1        2 0.22806296E+00 0.32727830E+03</pdfrwt>
<pdfrwt beam="2">  1       -2 0.23962030E-02 0.32727830E+03</pdfrwt>
<totfact> 0.82822718E+03</totfact>
</mgrwt>
</event>
<event>
 4    1  0.2679255E-004  0.3674574E+03  0.7818608E-02  0.1055669E+00
         -2   -1    0    0    0  501 -0.00000000000E+00  0.00000000000E+00  0.84900086899E+02  0.84900086938E+02  0.25500000000E-02 0. -1.
          2   -1    0    0  501    0  0.00000000000E+00 -0.00000000000E+00 -0.39759943248E+03  0.39759943249E+03  0.25500000000E-02 0.  1.
    5000001    1    1    2    0    0 -0.34906967321E+02  0.11666927079E+03 -0.86905301262E+02  0.19624409928E+03  0.12700000000E+03 0.  0.
   -5000001    1    1    2    0    0  0.34906967321E+02 -0.11666927079E+03 -0.22579404432E+03  0.28625542015E+03  0.12700000000E+03 0.  0.
<mgrwt>
<rscale>  0 0.36745735E+03</rscale>
<asrwt>0</asrwt>
<pdfrwt beam="1">  1        2 0.56799918E-01 0.36745735E+03</pdfrwt>
<pdfrwt beam="2">  1       -2 0.12128584E-01 0.36745735E+03</pdfrwt>
<totfact> 0.42574035E+03</totfact>
</mgrwt>
</event>
<event>
 4    1  0.2679255E-004  0.4652925E+03  0.7818608E-02  0.1023257E+00
          2   -1    0    0  501    0  0.00000000000E+00  0.00000000000E+00  0.10063186969E+04  0.10063186969E+04  0.25500000000E-02 0.  1.
         -2   -1    0    0    0  501 -0.00000000000E+00 -0.00000000000E+00 -0.53784422121E+02  0.53784422182E+02  0.25500000000E-02 0. -1.
    5000001    1    1    2    0    0 -0.15286271097E+03 -0.69987258533E+02  0.25152758404E+03  0.32811636700E+03  0.12700000000E+03 0.  0.
   -5000001    1    1    2    0    0  0.15286271097E+03  0.69987258533E+02  0.70100669075E+03  0.73198675209E+03  0.12700000000E+03 0.  0.
<mgrwt>
<rscale>  0 0.46529247E+03</rscale>
<asrwt>0</asrwt>
<pdfrwt beam="1">  1        2 0.14375980E+00 0.46529247E+03</pdfrwt>
<pdfrwt beam="2">  1       -2 0.76834895E-02 0.46529247E+03</pdfrwt>
<totfact> 0.29206406E+03</totfact>
</mgrwt>
</event>
<event>
 4    1  0.2679255E-004  0.3388439E+03  0.7818608E-02  0.1067289E+00
         -2   -1    0    0    0  501 -0.00000000000E+00  0.00000000000E+00  0.12827991644E+03  0.12827991646E+03  0.25500000000E-02 0. -1.
          2   -1    0    0  501    0  0.00000000000E+00 -0.00000000000E+00 -0.22375904950E+03  0.22375904951E+03  0.25500000000E-02 0.  1.
    5000001    1    1    2    0    0  0.60181677818E+02  0.88040347753E+02 -0.11721770025E+02  0.16625082577E+03  0.12700000000E+03 0.  0.
   -5000001    1    1    2    0    0 -0.60181677818E+02 -0.88040347753E+02 -0.83757363038E+02  0.18578814020E+03  0.12700000000E+03 0.  0.
<mgrwt>
<rscale>  0 0.33884387E+03</rscale>
<asrwt>0</asrwt>
<pdfrwt beam="1">  1        2 0.31965578E-01 0.33884387E+03</pdfrwt>
<pdfrwt beam="2">  1       -2 0.18325702E-01 0.33884387E+03</pdfrwt>
<totfact> 0.40030844E+03</totfact>
</mgrwt>
</event>
<event>
 4    1  0.2679255E-004  0.9784300E+03  0.7818608E-02  0.9332524E-01
         -2   -1    0    0    0  501 -0.00000000000E+00  0.00000000000E+00  0.51974995776E+03  0.51974995777E+03  0.25500000000E-02 0. -1.
          2   -1    0    0  501    0  0.00000000000E+00 -0.00000000000E+00 -0.46047392279E+03  0.46047392280E+03  0.25500000000E-02 0.  1.
    5000001    1    1    2    0    0 -0.26075485231E+03  0.38973871117E+03  0.87301744118E+02  0.49359897742E+03  0.12700000000E+03 0.  0.
   -5000001    1    1    2    0    0  0.26075485231E+03 -0.38973871117E+03 -0.28025709146E+02  0.48662490314E+03  0.12700000000E+03 0.  0.
<mgrwt>
<rscale>  0 0.97842997E+03</rscale>
<asrwt>0</asrwt>
<pdfrwt beam="1">  1        2 0.65781989E-01 0.97842997E+03</pdfrwt>
<pdfrwt beam="2">  1       -2 0.74249994E-01 0.97842997E+03</pdfrwt>
<totfact> 0.12050235E+02</totfact>
</mgrwt>
</event>
<event>
 4    1  0.2679255E-004  0.3315442E+03  0.7818608E-02  0.1070456E+00
          2   -1    0    0  501    0  0.00000000000E+00  0.00000000000E+00  0.75654765758E+03  0.75654765758E+03  0.25500000000E-02 0.  1.
         -2   -1    0    0    0  501 -0.00000000000E+00 -0.00000000000E+00 -0.36323405329E+02  0.36323405418E+02  0.25500000000E-02 0. -1.
    5000001    1    1    2    0    0 -0.20224792790E+01  0.80266846069E+02  0.52759093247E+03  0.54856909230E+03  0.12700000000E+03 0.  0.
   -5000001    1    1    2    0    0  0.20224792790E+01 -0.80266846069E+02  0.19263331978E+03  0.24430197071E+03  0.12700000000E+03 0.  0.
<mgrwt>
<rscale>  0 0.33154419E+03</rscale>
<asrwt>0</asrwt>
<pdfrwt beam="1">  1        2 0.10807824E+00 0.33154419E+03</pdfrwt>
<pdfrwt beam="2">  1       -2 0.51890579E-02 0.33154419E+03</pdfrwt>
<totfact> 0.77541349E+03</totfact>
</mgrwt>
</event>
<event>
 4    1  0.2679255E-004  0.3880888E+03  0.7818608E-02  0.1047984E+00
         -2   -1    0    0    0  501 -0.00000000000E+00  0.00000000000E+00  0.47272214924E+02  0.47272214993E+02  0.25500000000E-02 0. -1.
          2   -1    0    0  501    0  0.00000000000E+00 -0.00000000000E+00 -0.79651907580E+03  0.79651907580E+03  0.25500000000E-02 0.  1.
    5000001    1    1    2    0    0  0.10261996501E+03  0.54390703029E+02 -0.56951691791E+03  0.59495186829E+03  0.12700000000E+03 0.  0.
   -5000001    1    1    2    0    0 -0.10261996501E+03 -0.54390703029E+02 -0.17972994296E+03  0.24883942250E+03  0.12700000000E+03 0.  0.
<mgrwt>
<rscale>  0 0.38808876E+03</rscale>
<asrwt>0</asrwt>
<pdfrwt beam="1">  1        2 0.11378843E+00 0.38808876E+03</pdfrwt>
<pdfrwt beam="2">  1       -2 0.67531740E-02 0.38808876E+03</pdfrwt>
<totfact> 0.48599387E+03</totfact>
</mgrwt>
</event>
<event>
 4    1  0.2679255E-004  0.6353104E+03  0.7818608E-02  0.9834740E-01
         -2   -1    0    0    0  501 -0.00000000000E+00  0.00000000000E+00  0.62514057635E+03  0.62514057636E+03  0.25500000000E-02 0. -1.
          2   -1    0    0  501    0  0.00000000000E+00 -0.00000000000E+00 -0.16141142847E+03  0.16141142849E+03  0.25500000000E-02 0.  1.
    5000001    1    1    2    0    0 -0.19228315831E+03 -0.21259180280E+03  0.16864172047E+03  0.35600156948E+03  0.12700000000E+03 0.  0.
   -5000001    1    1    2    0    0  0.19228315831E+03  0.21259180280E+03  0.29508742741E+03  0.43055043537E+03  0.12700000000E+03 0.  0.
<mgrwt>
<rscale>  0 0.63531042E+03</rscale>
<asrwt>0</asrwt>
<pdfrwt beam="1">  1        2 0.23058775E-01 0.63531042E+03</pdfrwt>
<pdfrwt beam="2">  1       -2 0.89305799E-01 0.63531042E+03</pdfrwt>
<totfact> 0.26162586E+02</totfact>
</mgrwt>
</event>
<event>
 4    1  0.2679255E-004  0.1633836E+04  0.7818608E-02  0.8800027E-01
          2   -1    0    0  501    0  0.00000000000E+00  0.00000000000E+00  0.22375639837E+04  0.22375639837E+04  0.25500000000E-02 0.  1.
         -2   -1    0    0    0  501 -0.00000000000E+00 -0.00000000000E+00 -0.29825078303E+03  0.29825078304E+03  0.25500000000E-02 0. -1.
    5000001    1    1    2    0    0  0.16457852896E+03  0.77169986515E+03  0.12322232363E+04  0.14687102771E+04  0.12700000000E+03 0.  0.
   -5000001    1    1    2    0    0 -0.16457852896E+03 -0.77169986515E+03  0.70708996440E+03  0.10671044896E+04  0.12700000000E+03 0.  0.
<mgrwt>
<rscale>  0 0.16338362E+04</rscale>
<asrwt>0</asrwt>
<pdfrwt beam="1">  1        2 0.31965201E+00 0.16338362E+04</pdfrwt>
<pdfrwt beam="2">  1       -2 0.42607253E-01 0.16338362E+04</pdfrwt>
<totfact> 0.30272157E+01</totfact>
</mgrwt>
</event>
<event>
 4    1  0.2679255E-004  0.4303841E+03  0.7818608E-02  0.1033739E+00
         -2   -1    0    0    0  501 -0.00000000000E+00  0.00000000000E+00  0.14686351982E+02  0.14686352203E+02  0.25500000000E-02 0. -1.
          2   -1    0    0  501    0  0.00000000000E+00 -0.00000000000E+00 -0.31531049079E+04  0.31531049079E+04  0.25500000000E-02 0.  1.
    5000001    1    1    2    0    0  0.12775056368E+03 -0.11764445229E+03 -0.15378215918E+04  0.15527989799E+04  0.12700000000E+03 0.  0.
   -5000001    1    1    2    0    0 -0.12775056368E+03  0.11764445229E+03 -0.16005969642E+04  0.16149922803E+04  0.12700000000E+03 0.  0.
<mgrwt>
<rscale>  0 0.43038406E+03</rscale>
<asrwt>0</asrwt>
<pdfrwt beam="1">  1        2 0.45044313E+00 0.43038406E+03</pdfrwt>
<pdfrwt beam="2">  1       -2 0.20980523E-02 0.43038406E+03</pdfrwt>
<totfact> 0.16247203E+03</totfact>
</mgrwt>
</event>
<event>
 4    1  0.2679255E-004  0.2707611E+03  0.7818608E-02  0.1100845E+00
          2   -1    0    0  501    0  0.00000000000E+00  0.00000000000E+00  0.25981275113E+04  0.25981275113E+04  0.25500000000E-02 0.  1.
         -2   -1    0    0    0  501 -0.00000000000E+00 -0.00000000000E+00 -0.70542706086E+01  0.70542710695E+01  0.25500000000E-02 0. -1.
    5000001    1    1    2    0    0 -0.38971747361E+02 -0.22274733817E+02  0.14260283789E+04  0.14323759626E+04  0.12700000000E+03 0.  0.
   -5000001    1    1    2    0    0  0.38971747361E+02  0.22274733817E+02  0.11650448619E+04  0.11728058198E+04  0.12700000000E+03 0.  0.
<mgrwt>
<rscale>  0 0.27076111E+03</rscale>
<asrwt>0</asrwt>
<pdfrwt beam="1">  1        2 0.37116090E+00 0.27076111E+03</pdfrwt>
<pdfrwt beam="2">  1       -2 0.10077534E-02 0.27076111E+03</pdfrwt>
<totfact> 0.94371217E+03</totfact>
</mgrwt>
</event>
<event>
 4    1  0.2679255E-004  0.3491544E+03  0.7818608E-02  0.1062963E+00
          2   -1    0    0  501    0  0.00000000000E+00  0.00000000000E+00  0.18299679890E+03  0.18299679891E+03  0.25500000000E-02 0.  1.
         -2   -1    0    0    0  501 -0.00000000000E+00 -0.00000000000E+00 -0.16654502577E+03  0.16654502579E+03  0.25500000000E-02 0. -1.
    5000001    1    1    2    0    0  0.80528439159E+02 -0.88065457445E+02 -0.21708311389E+01  0.17428157337E+03  0.12700000000E+03 0.  0.
   -5000001    1    1    2    0    0 -0.80528439159E+02  0.88065457445E+02  0.18622604264E+02  0.17526025133E+03  0.12700000000E+03 0.  0.
<mgrwt>
<rscale>  0 0.34915444E+03</rscale>
<asrwt>0</asrwt>
<pdfrwt beam="1">  1        2 0.26142400E-01 0.34915444E+03</pdfrwt>
<pdfrwt beam="2">  1       -2 0.23792147E-01 0.34915444E+03</pdfrwt>
<totfact> 0.31876750E+03</totfact>
</mgrwt>
</event>
<event>
 4    1  0.2679255E-004  0.3358259E+03  0.7818608E-02  0.1068588E+00
          2   -1    0    0  501    0  0.00000000000E+00  0.00000000000E+00  0.49696448675E+03  0.49696448676E+03  0.25500000000E-02 0.  1.
         -2   -1    0    0    0  501 -0.00000000000E+00 -0.00000000000E+00 -0.56733963431E+02  0.56733963488E+02  0.25500000000E-02 0. -1.
    5000001    1    1    2    0    0  0.21253474038E+01  0.10524779284E+03  0.27183897887E+03  0.31797334076E+03  0.12700000000E+03 0.  0.
   -5000001    1    1    2    0    0 -0.21253474038E+01 -0.10524779284E+03  0.16839154445E+03  0.23572510948E+03  0.12700000000E+03 0.  0.
<mgrwt>
<rscale>  0 0.33582594E+03</rscale>
<asrwt>0</asrwt>
<pdfrwt beam="1">  1        2 0.70994930E-01 0.33582594E+03</pdfrwt>
<pdfrwt beam="2">  1       -2 0.81048515E-02 0.33582594E+03</pdfrwt>
<totfact> 0.63296592E+03</totfact>
</mgrwt>
</event>
<event>
 4    1  0.2679255E-004  0.6238030E+03  0.7818608E-02  0.9857217E-01
         -2   -1    0    0    0  501 -0.00000000000E+00  0.00000000000E+00  0.48379705794E+02  0.48379705861E+02  0.25500000000E-02 0. -1.
          2   -1    0    0  501    0  0.00000000000E+00 -0.00000000000E+00 -0.20108130660E+04  0.20108130660E+04  0.25500000000E-02 0.  1.
    5000001    1    1    2    0    0  0.24260407461E+03 -0.10012520309E+01 -0.14741193017E+04  0.14993380056E+04  0.12700000000E+03 0.  0.
   -5000001    1    1    2    0    0 -0.24260407461E+03  0.10012520309E+01 -0.48831405851E+03  0.55985476622E+03  0.12700000000E+03 0.  0.
<mgrwt>
<rscale>  0 0.62380300E+03</rscale>
<asrwt>0</asrwt>
<pdfrwt beam="1">  1        2 0.28725896E+00 0.62380300E+03</pdfrwt>
<pdfrwt beam="2">  1       -2 0.69113878E-02 0.62380300E+03</pdfrwt>
<totfact> 0.10103642E+03</totfact>
</mgrwt>
</event>
<event>
 4    1  0.2679255E-004  0.6528134E+03  0.7818608E-02  0.9801514E-01
         -2   -1    0    0    0  501 -0.00000000000E+00  0.00000000000E+00  0.18365438919E+04  0.18365438919E+04  0.25500000000E-02 0. -1.
          2   -1    0    0  501    0  0.00000000000E+00 -0.00000000000E+00 -0.58011855644E+02  0.58011855701E+02  0.25500000000E-02 0.  1.
    5000001    1    1    2    0    0 -0.11401314065E+03  0.27527799218E+03  0.10066269941E+04  0.10574515944E+04  0.12700000000E+03 0.  0.
   -5000001    1    1    2    0    0  0.11401314065E+03 -0.27527799218E+03  0.77190504212E+03  0.83710415318E+03  0.12700000000E+03 0.  0.
<mgrwt>
<rscale>  0 0.65281336E+03</rscale>
<asrwt>0</asrwt>
<pdfrwt beam="1">  1        2 0.82874094E-02 0.65281336E+03</pdfrwt>
<pdfrwt beam="2">  1       -2 0.26236337E+00 0.65281336E+03</pdfrwt>
<totfact> 0.47471799E+01</totfact>
</mgrwt>
</event>
<event>
 4    1  0.2679255E-004  0.5094472E+03  0.7818608E-02  0.1011342E+00
         -2   -1    0    0    0  501 -0.00000000000E+00  0.00000000000E+00  0.33322381695E+02  0.33322381793E+02  0.25500000000E-02 0. -1.
          2   -1    0    0  501    0  0.00000000000E+00 -0.00000000000E+00 -0.19471634776E+04  0.19471634776E+04  0.25500000000E-02 0.  1.
    5000001    1    1    2    0    0 -0.83158720738E+01 -0.19678998586E+03 -0.13448877860E+04  0.13651547931E+04  0.12700000000E+03 0.  0.
   -5000001    1    1    2    0    0  0.83158720738E+01  0.19678998586E+03 -0.56895330990E+03  0.61533106626E+03  0.12700000000E+03 0.  0.
<mgrwt>
<rscale>  0 0.50944725E+03</rscale>
<asrwt>0</asrwt>
<pdfrwt beam="1">  1        2 0.27816614E+00 0.50944725E+03</pdfrwt>
<pdfrwt beam="2">  1       -2 0.47603415E-02 0.50944725E+03</pdfrwt>
<totfact> 0.19566543E+03</totfact>
</mgrwt>
</event>
<event>
 4    1  0.2679255E-004  0.6655009E+03  0.7818608E-02  0.9778120E-01
         -2   -1    0    0    0  501 -0.00000000000E+00  0.00000000000E+00  0.91916904717E+03  0.91916904717E+03  0.25500000000E-02 0. -1.
          2   -1    0    0  501    0  0.00000000000E+00 -0.00000000000E+00 -0.12045973287E+03  0.12045973290E+03  0.25500000000E-02 0.  1.
    5000001    1    1    2    0    0  0.84375798273E+02  0.28376660012E+03  0.26911105516E+03  0.41975292576E+03  0.12700000000E+03 0.  0.
   -5000001    1    1    2    0    0 -0.84375798273E+02 -0.28376660012E+03  0.52959825913E+03  0.61987585430E+03  0.12700000000E+03 0.  0.
<mgrwt>
<rscale>  0 0.66550089E+03</rscale>
<asrwt>0</asrwt>
<pdfrwt beam="1">  1        2 0.17208534E-01 0.66550089E+03</pdfrwt>
<pdfrwt beam="2">  1       -2 0.13130986E+00 0.66550089E+03</pdfrwt>
<totfact> 0.14565657E+02</totfact>
</mgrwt>
</event>
<event>
 4    1  0.2679255E-004  0.4056196E+03  0.7818608E-02  0.1041851E+00
          2   -1    0    0  501    0  0.00000000000E+00  0.00000000000E+00  0.11635466849E+04  0.11635466849E+04  0.25500000000E-02 0.  1.
         -2   -1    0    0    0  501 -0.00000000000E+00 -0.00000000000E+00 -0.35350373972E+02  0.35350374064E+02  0.25500000000E-02 0. -1.
    5000001    1    1    2    0    0  0.57051427278E+02 -0.13808959966E+03  0.71708925659E+03  0.74341751715E+03  0.12700000000E+03 0.  0.
   -5000001    1    1    2    0    0 -0.57051427278E+02  0.13808959966E+03  0.41110705438E+03  0.45547954185E+03  0.12700000000E+03 0.  0.
<mgrwt>
<rscale>  0 0.40561958E+03</rscale>
<asrwt>0</asrwt>
<pdfrwt beam="1">  1        2 0.16622095E+00 0.40561958E+03</pdfrwt>
<pdfrwt beam="2">  1       -2 0.50500535E-02 0.40561958E+03</pdfrwt>
<totfact> 0.45496559E+03</totfact>
</mgrwt>
</event>
<event>
 4    1  0.2679255E-004  0.4274114E+03  0.7818608E-02  0.1034681E+00
         -2   -1    0    0    0  501 -0.00000000000E+00  0.00000000000E+00  0.52652404311E+02  0.52652404372E+02  0.25500000000E-02 0. -1.
          2   -1    0    0  501    0  0.00000000000E+00 -0.00000000000E+00 -0.86738901125E+03  0.86738901126E+03  0.25500000000E-02 0.  1.
    5000001    1    1    2    0    0  0.10319777137E+03  0.11123108621E+03 -0.58116888451E+03  0.61392866595E+03  0.12700000000E+03 0.  0.
   -5000001    1    1    2    0    0 -0.10319777137E+03 -0.11123108621E+03 -0.23356772244E+03  0.30611274968E+03  0.12700000000E+03 0.  0.
<mgrwt>
<rscale>  0 0.42741136E+03</rscale>
<asrwt>0</asrwt>
<pdfrwt beam="1">  1        2 0.12391271E+00 0.42741136E+03</pdfrwt>
<pdfrwt beam="2">  1       -2 0.75217726E-02 0.42741136E+03</pdfrwt>
<totfact> 0.36863213E+03</totfact>
</mgrwt>
</event>
<event>
 4    1  0.2679255E-004  0.7711188E+03  0.7818608E-02  0.9602789E-01
         -2   -1    0    0    0  501 -0.00000000000E+00  0.00000000000E+00  0.26575154602E+03  0.26575154603E+03  0.25500000000E-02 0. -1.
          2   -1    0    0  501    0  0.00000000000E+00 -0.00000000000E+00 -0.55937984402E+03  0.55937984403E+03  0.25500000000E-02 0.  1.
    5000001    1    1    2    0    0  0.34561606631E+03  0.79969772854E+02 -0.23427958584E+03  0.44369083178E+03  0.12700000000E+03 0.  0.
   -5000001    1    1    2    0    0 -0.34561606631E+03 -0.79969772854E+02 -0.59348712162E+02  0.38144055828E+03  0.12700000000E+03 0.  0.
<mgrwt>
<rscale>  0 0.77111882E+03</rscale>
<asrwt>0</asrwt>
<pdfrwt beam="1">  1        2 0.79911406E-01 0.77111882E+03</pdfrwt>
<pdfrwt beam="2">  1       -2 0.37964507E-01 0.77111882E+03</pdfrwt>
<totfact> 0.38797442E+02</totfact>
</mgrwt>
</event>
<event>
 4    1  0.2679255E-004  0.3877420E+03  0.7818608E-02  0.1048109E+00
          2   -1    0    0  501    0  0.00000000000E+00  0.00000000000E+00  0.53792222589E+03  0.53792222589E+03  0.25500000000E-02 0.  1.
         -2   -1    0    0    0  501 -0.00000000000E+00 -0.00000000000E+00 -0.69872477848E+02  0.69872477894E+02  0.25500000000E-02 0. -1.
    5000001    1    1    2    0    0  0.13724608880E+03  0.29486309699E+02  0.29961833995E+03  0.35440948208E+03  0.12700000000E+03 0.  0.
   -5000001    1    1    2    0    0 -0.13724608880E+03 -0.29486309699E+02  0.16843140809E+03  0.25338522171E+03  0.12700000000E+03 0.  0.
<mgrwt>
<rscale>  0 0.38774197E+03</rscale>
<asrwt>0</asrwt>
<pdfrwt beam="1">  1        2 0.76846031E-01 0.38774197E+03</pdfrwt>
<pdfrwt beam="2">  1       -2 0.99817827E-02 0.38774197E+03</pdfrwt>
<totfact> 0.41747191E+03</totfact>
</mgrwt>
</event>
<event>
 4    1  0.2679255E-004  0.3019633E+03  0.7818608E-02  0.1084263E+00
          2   -1    0    0  501    0  0.00000000000E+00  0.00000000000E+00  0.15082134093E+04  0.15082134093E+04  0.25500000000E-02 0.  1.
         -2   -1    0    0    0  501 -0.00000000000E+00 -0.00000000000E+00 -0.15114213389E+02  0.15114213604E+02  0.25500000000E-02 0. -1.
    5000001    1    1    2    0    0  0.79585631384E+02  0.13811708820E+02  0.80662727936E+03  0.82054933053E+03  0.12700000000E+03 0.  0.
   -5000001    1    1    2    0    0 -0.79585631384E+02 -0.13811708820E+02  0.68647191657E+03  0.70277829240E+03  0.12700000000E+03 0.  0.
<mgrwt>
<rscale>  0 0.30196331E+03</rscale>
<asrwt>0</asrwt>
<pdfrwt beam="1">  1        2 0.21545887E+00 0.30196331E+03</pdfrwt>
<pdfrwt beam="2">  1       -2 0.21591753E-02 0.30196331E+03</pdfrwt>
<totfact> 0.10691037E+04</totfact>
</mgrwt>
</event>
<event>
 4    1  0.2679255E-004  0.3358021E+03  0.7818608E-02  0.1068598E+00
          2   -1    0    0  501    0  0.00000000000E+00  0.00000000000E+00  0.64870178334E+03  0.64870178335E+03  0.25500000000E-02 0.  1.
         -2   -1    0    0    0  501 -0.00000000000E+00 -0.00000000000E+00 -0.43457195683E+02  0.43457195758E+02  0.25500000000E-02 0. -1.
    5000001    1    1    2    0    0  0.52638935757E+02  0.96092714170E+02  0.31819679871E+03  0.35969830411E+03  0.12700000000E+03 0.  0.
   -5000001    1    1    2    0    0 -0.52638935757E+02 -0.96092714170E+02  0.28704778895E+03  0.33246067499E+03  0.12700000000E+03 0.  0.
<mgrwt>
<rscale>  0 0.33580209E+03</rscale>
<asrwt>0</asrwt>
<pdfrwt beam="1">  1        2 0.92671676E-01 0.33580209E+03</pdfrwt>
<pdfrwt beam="2">  1       -2 0.62081713E-02 0.33580209E+03</pdfrwt>
<totfact> 0.70779794E+03</totfact>
</mgrwt>
</event>
<event>
 4    1  0.2679255E-004  0.3918282E+03  0.7818608E-02  0.1046647E+00
         -2   -1    0    0    0  501 -0.00000000000E+00  0.00000000000E+00  0.10032813988E+03  0.10032813991E+03  0.25500000000E-02 0. -1.
          2   -1    0    0  501    0  0.00000000000E+00 -0.00000000000E+00 -0.38256798810E+03  0.38256798810E+03  0.25500000000E-02 0.  1.
    5000001    1    1    2    0    0 -0.25338431080E+02  0.67062975450E+02  0.20104921134E+02  0.14721646178E+03  0.12700000000E+03 0.  0.
   -5000001    1    1    2    0    0  0.25338431080E+02 -0.67062975450E+02 -0.30234476935E+03  0.33567966623E+03  0.12700000000E+03 0.  0.
<mgrwt>
<rscale>  0 0.39182820E+03</rscale>
<asrwt>0</asrwt>
<pdfrwt beam="1">  1        2 0.54652569E-01 0.39182820E+03</pdfrwt>
<pdfrwt beam="2">  1       -2 0.14332592E-01 0.39182820E+03</pdfrwt>
<totfact> 0.33796724E+03</totfact>
</mgrwt>
</event>
<event>
 4    1  0.2679255E-004  0.6679152E+03  0.7818608E-02  0.9773731E-01
          2   -1    0    0  501    0  0.00000000000E+00  0.00000000000E+00  0.90624815020E+03  0.90624815020E+03  0.25500000000E-02 0.  1.
         -2   -1    0    0    0  501 -0.00000000000E+00 -0.00000000000E+00 -0.12306526790E+03  0.12306526792E+03  0.25500000000E-02 0. -1.
    5000001    1    1    2    0    0 -0.58071664190E+02  0.29670919517E+03  0.29424655650E+03  0.44058903833E+03  0.12700000000E+03 0.  0.
   -5000001    1    1    2    0    0  0.58071664190E+02 -0.29670919517E+03  0.48893632580E+03  0.58872437980E+03  0.12700000000E+03 0.  0.
<mgrwt>
<rscale>  0 0.66791518E+03</rscale>
<asrwt>0</asrwt>
<pdfrwt beam="1">  1        2 0.12946402E+00 0.66791518E+03</pdfrwt>
<pdfrwt beam="2">  1       -2 0.17580753E-01 0.66791518E+03</pdfrwt>
<totfact> 0.86359284E+02</totfact>
</mgrwt>
</event>
<event>
 4    1  0.2679255E-004  0.7342884E+03  0.7818608E-02  0.9660327E-01
         -2   -1    0    0    0  501 -0.00000000000E+00  0.00000000000E+00  0.35590584647E+03  0.35590584647E+03  0.25500000000E-02 0. -1.
          2   -1    0    0  501    0  0.00000000000E+00 -0.00000000000E+00 -0.37873739841E+03  0.37873739841E+03  0.25500000000E-02 0.  1.
    5000001    1    1    2    0    0  0.59473236132E+02  0.33930525334E+03 -0.12272703589E+02  0.36734825440E+03  0.12700000000E+03 0.  0.
   -5000001    1    1    2    0    0 -0.59473236132E+02 -0.33930525334E+03 -0.10558848352E+02  0.36729499049E+03  0.12700000000E+03 0.  0.
<mgrwt>
<rscale>  0 0.73428837E+03</rscale>
<asrwt>0</asrwt>
<pdfrwt beam="1">  1        2 0.54105343E-01 0.73428837E+03</pdfrwt>
<pdfrwt beam="2">  1       -2 0.50843692E-01 0.73428837E+03</pdfrwt>
<totfact> 0.33885036E+02</totfact>
</mgrwt>
</event>
<event>
 4    1  0.2679255E-004  0.2814197E+03  0.7818608E-02  0.1094916E+00
          2   -1    0    0  501    0  0.00000000000E+00  0.00000000000E+00  0.16974032405E+04  0.16974032405E+04  0.25500000000E-02 0.  1.
         -2   -1    0    0    0  501 -0.00000000000E+00 -0.00000000000E+00 -0.11664438344E+02  0.11664438622E+02  0.25500000000E-02 0. -1.
    5000001    1    1    2    0    0  0.49091281005E+02 -0.41027629951E+00  0.10584517054E+04  0.10671734324E+04  0.12700000000E+03 0.  0.
   -5000001    1    1    2    0    0 -0.49091281005E+02  0.41027629951E+00  0.62728709682E+03  0.64189424677E+03  0.12700000000E+03 0.  0.
<mgrwt>
<rscale>  0 0.28141966E+03</rscale>
<asrwt>0</asrwt>
<pdfrwt beam="1">  1        2 0.24248620E+00 0.28141966E+03</pdfrwt>
<pdfrwt beam="2">  1       -2 0.16663482E-02 0.28141966E+03</pdfrwt>
<totfact> 0.12574237E+04</totfact>
</mgrwt>
</event>
<event>
 4    1  0.2679255E-004  0.3041482E+03  0.7818608E-02  0.1083185E+00
          2   -1    0    0  501    0  0.00000000000E+00  0.00000000000E+00  0.26935277999E+02  0.26935278120E+02  0.25500000000E-02 0.  1.
         -2   -1    0    0    0  501 -0.00000000000E+00 -0.00000000000E+00 -0.85859636511E+03  0.85859636512E+03  0.25500000000E-02 0. -1.
    5000001    1    1    2    0    0  0.34247652191E+02 -0.72492980615E+02 -0.34635582877E+03  0.37751754137E+03  0.12700000000E+03 0.  0.
   -5000001    1    1    2    0    0 -0.34247652191E+02  0.72492980615E+02 -0.48530525835E+03  0.50801410187E+03  0.12700000000E+03 0.  0.
<mgrwt>
<rscale>  0 0.30414820E+03</rscale>
<asrwt>0</asrwt>
<pdfrwt beam="1">  1        2 0.38478974E-02 0.30414820E+03</pdfrwt>
<pdfrwt beam="2">  1       -2 0.12265661E+00 0.30414820E+03</pdfrwt>
<totfact> 0.11798336E+03</totfact>
</mgrwt>
</event>
<event>
 4    1  0.2679255E-004  0.3274984E+03  0.7818608E-02  0.1072249E+00
         -2   -1    0    0    0  501 -0.00000000000E+00  0.00000000000E+00  0.19101947206E+02  0.19101947377E+02  0.25500000000E-02 0. -1.
          2   -1    0    0  501    0  0.00000000000E+00 -0.00000000000E+00 -0.14037211601E+04  0.14037211601E+04  0.25500000000E-02 0.  1.
    5000001    1    1    2    0    0  0.23867024451E+01  0.98695972388E+02 -0.82538358970E+03  0.84091239821E+03  0.12700000000E+03 0.  0.
   -5000001    1    1    2    0    0 -0.23867024451E+01 -0.98695972388E+02 -0.55923562318E+03  0.58191070925E+03  0.12700000000E+03 0.  0.
<mgrwt>
<rscale>  0 0.32749844E+03</rscale>
<asrwt>0</asrwt>
<pdfrwt beam="1">  1        2 0.20053153E+00 0.32749844E+03</pdfrwt>
<pdfrwt beam="2">  1       -2 0.27288505E-02 0.32749844E+03</pdfrwt>
<totfact> 0.85554653E+03</totfact>
</mgrwt>
</event>
<event>
 4    1  0.2679255E-004  0.4308608E+03  0.7818608E-02  0.1033588E+00
          2   -1    0    0  501    0  0.00000000000E+00  0.00000000000E+00  0.23799055957E+03  0.23799055958E+03  0.25500000000E-02 0.  1.
         -2   -1    0    0    0  501 -0.00000000000E+00 -0.00000000000E+00 -0.19500879556E+03  0.19500879558E+03  0.25500000000E-02 0. -1.
    5000001    1    1    2    0    0 -0.79619060507E+02  0.13217564624E+03 -0.59355018981E+02  0.20847449372E+03  0.12700000000E+03 0.  0.
   -5000001    1    1    2    0    0  0.79619060507E+02 -0.13217564624E+03  0.10233678299E+03  0.22452486144E+03  0.12700000000E+03 0.  0.
<mgrwt>
<rscale>  0 0.43086078E+03</rscale>
<asrwt>0</asrwt>
<pdfrwt beam="1">  1        2 0.33998652E-01 0.43086078E+03</pdfrwt>
<pdfrwt beam="2">  1       -2 0.27858399E-01 0.43086078E+03</pdfrwt>
<totfact> 0.18021074E+03</totfact>
</mgrwt>
</event>
<event>
 4    1  0.2679255E-004  0.3869830E+03  0.7818608E-02  0.1048383E+00
          2   -1    0    0  501    0  0.00000000000E+00  0.00000000000E+00  0.18024390204E+04  0.18024390204E+04  0.25500000000E-02 0.  1.
         -2   -1    0    0    0  501 -0.00000000000E+00 -0.00000000000E+00 -0.20771277424E+02  0.20771277581E+02  0.25500000000E-02 0. -1.
    5000001    1    1    2    0    0 -0.11452028889E+03 -0.71802142454E+02  0.63108889754E+03  0.65777856519E+03  0.12700000000E+03 0.  0.
   -5000001    1    1    2    0    0  0.11452028889E+03  0.71802142454E+02  0.11505788454E+04  0.11654317328E+04  0.12700000000E+03 0.  0.
<mgrwt>
<rscale>  0 0.38698300E+03</rscale>
<asrwt>0</asrwt>
<pdfrwt beam="1">  1        2 0.25749122E+00 0.38698300E+03</pdfrwt>
<pdfrwt beam="2">  1       -2 0.29673261E-02 0.38698300E+03</pdfrwt>
<totfact> 0.47555605E+03</totfact>
</mgrwt>
</event>
<event>
 4    1  0.2679255E-004  0.5473555E+03  0.7818608E-02  0.1002108E+00
          2   -1    0    0  501    0  0.00000000000E+00  0.00000000000E+00  0.33989748265E+03  0.33989748266E+03  0.25500000000E-02 0.  1.
         -2   -1    0    0    0  501 -0.00000000000E+00 -0.00000000000E+00 -0.22035912281E+03  0.22035912282E+03  0.25500000000E-02 0. -1.
    5000001    1    1    2    0    0 -0.15450173464E+03 -0.17475472505E+03  0.12735976429E+03  0.29454967237E+03  0.12700000000E+03 0.  0.
   -5000001    1    1    2    0    0  0.15450173464E+03  0.17475472505E+03 -0.78214044531E+01  0.26570693311E+03  0.12700000000E+03 0.  0.
<mgrwt>
<rscale>  0 0.54735550E+03</rscale>
<asrwt>0</asrwt>
<pdfrwt beam="1">  1        2 0.48556783E-01 0.54735550E+03</pdfrwt>
<pdfrwt beam="2">  1       -2 0.31479875E-01 0.54735550E+03</pdfrwt>
<totfact> 0.97393394E+02</totfact>
</mgrwt>
</event>
<event>
 4    1  0.2679255E-004  0.3873562E+03  0.7818608E-02  0.1048248E+00
          2   -1    0    0  501    0  0.00000000000E+00  0.00000000000E+00  0.97909849152E+03  0.97909849153E+03  0.25500000000E-02 0.  1.
         -2   -1    0    0    0  501 -0.00000000000E+00 -0.00000000000E+00 -0.38311982586E+02  0.38311982671E+02  0.25500000000E-02 0. -1.
    5000001    1    1    2    0    0  0.12609239639E+03  0.74041220732E+02  0.47275657825E+03  0.51089057250E+03  0.12700000000E+03 0.  0.
   -5000001    1    1    2    0    0 -0.12609239639E+03 -0.74041220732E+02  0.46802993069E+03  0.50651990170E+03  0.12700000000E+03 0.  0.
<mgrwt>
<rscale>  0 0.38735619E+03</rscale>
<asrwt>0</asrwt>
<pdfrwt beam="1">  1        2 0.13987122E+00 0.38735619E+03</pdfrwt>
<pdfrwt beam="2">  1       -2 0.54731400E-02 0.38735619E+03</pdfrwt>
<totfact> 0.51404583E+03</totfact>
</mgrwt>
</event>
<event>
 4    1  0.2679255E-004  0.5053083E+03  0.7818608E-02  0.1012403E+00
          2   -1    0    0  501    0  0.00000000000E+00  0.00000000000E+00  0.12399335453E+04  0.12399335453E+04  0.25500000000E-02 0.  1.
         -2   -1    0    0    0  501 -0.00000000000E+00 -0.00000000000E+00 -0.51481879238E+02  0.51481879301E+02  0.25500000000E-02 0. -1.
    5000001    1    1    2    0    0 -0.21559823634E+03  0.16349690676E+02  0.51523874739E+03  0.57301821848E+03  0.12700000000E+03 0.  0.
   -5000001    1    1    2    0    0  0.21559823634E+03 -0.16349690676E+02  0.67321291864E+03  0.71839720609E+03  0.12700000000E+03 0.  0.
<mgrwt>
<rscale>  0 0.50530826E+03</rscale>
<asrwt>0</asrwt>
<pdfrwt beam="1">  1        2 0.17713334E+00 0.50530826E+03</pdfrwt>
<pdfrwt beam="2">  1       -2 0.73545552E-02 0.50530826E+03</pdfrwt>
<totfact> 0.22992607E+03</totfact>
</mgrwt>
</event>
<event>
 4    1  0.2679255E-004  0.6052904E+03  0.7818608E-02  0.9894491E-01
         -2   -1    0    0    0  501 -0.00000000000E+00  0.00000000000E+00  0.19605114411E+03  0.19605114413E+03  0.25500000000E-02 0. -1.
          2   -1    0    0  501    0  0.00000000000E+00 -0.00000000000E+00 -0.46719499241E+03  0.46719499242E+03  0.25500000000E-02 0.  1.
    5000001    1    1    2    0    0  0.19191909119E+03 -0.12614281248E+03  0.29592574709E+02  0.26410162283E+03  0.12700000000E+03 0.  0.
   -5000001    1    1    2    0    0 -0.19191909119E+03  0.12614281248E+03 -0.30073642301E+03  0.39914451371E+03  0.12700000000E+03 0.  0.
<mgrwt>
<rscale>  0 0.60529039E+03</rscale>
<asrwt>0</asrwt>
<pdfrwt beam="1">  1        2 0.66742141E-01 0.60529039E+03</pdfrwt>
<pdfrwt beam="2">  1       -2 0.28007306E-01 0.60529039E+03</pdfrwt>
<totfact> 0.84776294E+02</totfact>
</mgrwt>
</event>
<event>
 4    1  0.2679255E-004  0.4361748E+03  0.7818608E-02  0.1031927E+00
         -2   -1    0    0    0  501 -0.00000000000E+00  0.00000000000E+00  0.11574348191E+02  0.11574348472E+02  0.25500000000E-02 0. -1.
          2   -1    0    0  501    0  0.00000000000E+00 -0.00000000000E+00 -0.41092697096E+04  0.41092697096E+04  0.25500000000E-02 0.  1.
    5000001    1    1    2    0    0  0.15593479667E+03 -0.82782697698E+02 -0.18952004993E+04  0.19076379553E+04  0.12700000000E+03 0.  0.
   -5000001    1    1    2    0    0 -0.15593479667E+03  0.82782697698E+02 -0.22024948621E+04  0.22132061028E+04  0.12700000000E+03 0.  0.
<mgrwt>
<rscale>  0 0.43617482E+03</rscale>
<asrwt>0</asrwt>
<pdfrwt beam="1">  1        2 0.58703760E+00 0.43617482E+03</pdfrwt>
<pdfrwt beam="2">  1       -2 0.16534810E-02 0.43617482E+03</pdfrwt>
<totfact> 0.60620432E+02</totfact>
</mgrwt>
</event>
<event>
 4    1  0.2679255E-004  0.3702697E+03  0.7818608E-02  0.1054590E+00
         -2   -1    0    0    0  501 -0.00000000000E+00  0.00000000000E+00  0.22877421097E+03  0.22877421099E+03  0.25500000000E-02 0. -1.
          2   -1    0    0  501    0  0.00000000000E+00 -0.00000000000E+00 -0.14981985743E+03  0.14981985745E+03  0.25500000000E-02 0.  1.
    5000001    1    1    2    0    0 -0.12438145152E+03  0.19563980916E+02  0.88432862751E+02  0.19950655640E+03  0.12700000000E+03 0.  0.
   -5000001    1    1    2    0    0  0.12438145152E+03 -0.19563980916E+02 -0.94785092047E+01  0.17908751204E+03  0.12700000000E+03 0.  0.
<mgrwt>
<rscale>  0 0.37026974E+03</rscale>
<asrwt>0</asrwt>
<pdfrwt beam="1">  1        2 0.21402837E-01 0.37026974E+03</pdfrwt>
<pdfrwt beam="2">  1       -2 0.32682030E-01 0.37026974E+03</pdfrwt>
<totfact> 0.22562070E+03</totfact>
</mgrwt>
</event>
<event>
 4    1  0.2679255E-004  0.4550200E+03  0.7818608E-02  0.1026236E+00
         -2   -1    0    0    0  501 -0.00000000000E+00  0.00000000000E+00  0.12886817803E+02  0.12886818056E+02  0.25500000000E-02 0.  1.
          2   -1    0    0  501    0  0.00000000000E+00 -0.00000000000E+00 -0.40165695094E+04  0.40165695094E+04  0.25500000000E-02 0. -1.
    5000001    1    1    2    0    0 -0.16786964915E+03  0.67087022589E+02 -0.24828956629E+04  0.24927055102E+04  0.12700000000E+03 0.  0.
   -5000001    1    1    2    0    0  0.16786964915E+03 -0.67087022589E+02 -0.15207870287E+04  0.15367508173E+04  0.12700000000E+03 0.  0.
<mgrwt>
<rscale>  0 0.45502000E+03</rscale>
<asrwt>0</asrwt>
<pdfrwt beam="1">  1        2 0.57379484E+00 0.45502000E+03</pdfrwt>
<pdfrwt beam="2">  1       -2 0.18409766E-02 0.45502000E+03</pdfrwt>
<totfact> 0.59468849E+02</totfact>
</mgrwt>
</event>
<event>
 4    1  0.2679255E-004  0.4832857E+03  0.7818608E-02  0.1018236E+00
         -2   -1    0    0    0  501 -0.00000000000E+00  0.00000000000E+00  0.40436954249E+02  0.40436954329E+02  0.25500000000E-02 0. -1.
          2   -1    0    0  501    0  0.00000000000E+00 -0.00000000000E+00 -0.14440075485E+04  0.14440075485E+04  0.25500000000E-02 0.  1.
    5000001    1    1    2    0    0 -0.19793121384E+02  0.20227429081E+03 -0.60683407537E+03  0.65244405998E+03  0.12700000000E+03 0.  0.
   -5000001    1    1    2    0    0  0.19793121384E+02 -0.20227429081E+03 -0.79673651887E+03  0.83200044284E+03  0.12700000000E+03 0.  0.
<mgrwt>
<rscale>  0 0.48328570E+03</rscale>
<asrwt>0</asrwt>
<pdfrwt beam="1">  1        2 0.20628676E+00 0.48328570E+03</pdfrwt>
<pdfrwt beam="2">  1       -2 0.57767087E-02 0.48328570E+03</pdfrwt>
<totfact> 0.26114202E+03</totfact>
</mgrwt>
</event>
<event>
 4    1  0.2679255E-004  0.3729897E+03  0.7818608E-02  0.1053556E+00
         -2   -1    0    0    0  501 -0.00000000000E+00  0.00000000000E+00  0.15074055921E+03  0.15074055923E+03  0.25500000000E-02 0. -1.
          2   -1    0    0  501    0  0.00000000000E+00 -0.00000000000E+00 -0.23072977944E+03  0.23072977946E+03  0.25500000000E-02 0.  1.
    5000001    1    1    2    0    0 -0.75998880270E+02 -0.75071253750E+02  0.47027090952E+02  0.17248788429E+03  0.12700000000E+03 0.  0.
   -5000001    1    1    2    0    0  0.75998880270E+02  0.75071253750E+02 -0.12701631118E+03  0.20898245440E+03  0.12700000000E+03 0.  0.
<mgrwt>
<rscale>  0 0.37298974E+03</rscale>
<asrwt>0</asrwt>
<pdfrwt beam="1">  1        2 0.32961397E-01 0.37298974E+03</pdfrwt>
<pdfrwt beam="2">  1       -2 0.21534366E-01 0.37298974E+03</pdfrwt>
<totfact> 0.29387449E+03</totfact>
</mgrwt>
</event>
<event>
 4    1  0.2679255E-004  0.5290853E+03  0.7818608E-02  0.1006454E+00
          2   -1    0    0  501    0  0.00000000000E+00  0.00000000000E+00  0.99088346832E+03  0.99088346832E+03  0.25500000000E-02 0.  1.
         -2   -1    0    0    0  501 -0.00000000000E+00 -0.00000000000E+00 -0.70626677989E+02  0.70626678035E+02  0.25500000000E-02 0. -1.
    5000001    1    1    2    0    0 -0.20030432476E+03 -0.11703309118E+03  0.44821814619E+03  0.52042970084E+03  0.12700000000E+03 0.  0.
   -5000001    1    1    2    0    0  0.20030432476E+03  0.11703309118E+03  0.47203864414E+03  0.54108044551E+03  0.12700000000E+03 0.  0.
<mgrwt>
<rscale>  0 0.52908528E+03</rscale>
<asrwt>0</asrwt>
<pdfrwt beam="1">  1        2 0.14155478E+00 0.52908528E+03</pdfrwt>
<pdfrwt beam="2">  1       -2 0.10089526E-01 0.52908528E+03</pdfrwt>
<totfact> 0.19306910E+03</totfact>
</mgrwt>
</event>
<event>
 4    1  0.2679255E-004  0.2819214E+03  0.7818608E-02  0.1094644E+00
          2   -1    0    0  501    0  0.00000000000E+00  0.00000000000E+00  0.12601299225E+03  0.12601299228E+03  0.25500000000E-02 0.  1.
         -2   -1    0    0    0  501 -0.00000000000E+00 -0.00000000000E+00 -0.15768154356E+03  0.15768154358E+03  0.25500000000E-02 0. -1.
    5000001    1    1    2    0    0  0.25469994138E+02 -0.52369668497E+02 -0.34650012725E+02  0.14394765077E+03  0.12700000000E+03 0.  0.
   -5000001    1    1    2    0    0 -0.25469994138E+02  0.52369668497E+02  0.29814614224E+01  0.13974688509E+03  0.12700000000E+03 0.  0.
<mgrwt>
<rscale>  0 0.28192143E+03</rscale>
<asrwt>0</asrwt>
<pdfrwt beam="1">  1        2 0.18001856E-01 0.28192143E+03</pdfrwt>
<pdfrwt beam="2">  1       -2 0.22525935E-01 0.28192143E+03</pdfrwt>
<totfact> 0.53336185E+03</totfact>
</mgrwt>
</event>
<event>
 4    1  0.2679255E-004  0.5509028E+03  0.7818608E-02  0.1001285E+00
          2   -1    0    0  501    0  0.00000000000E+00  0.00000000000E+00  0.22923317077E+03  0.22923317079E+03  0.25500000000E-02 0.  1.
         -2   -1    0    0    0  501 -0.00000000000E+00 -0.00000000000E+00 -0.33098825058E+03  0.33098825059E+03  0.25500000000E-02 0. -1.
    5000001    1    1    2    0    0 -0.11258309676E+03 -0.16379456393E+03  0.93799401657E+02  0.25383250501E+03  0.12700000000E+03 0.  0.
   -5000001    1    1    2    0    0  0.11258309676E+03  0.16379456393E+03 -0.19555448146E+03  0.30638891636E+03  0.12700000000E+03 0.  0.
<mgrwt>
<rscale>  0 0.55090285E+03</rscale>
<asrwt>0</asrwt>
<pdfrwt beam="1">  1        2 0.32747596E-01 0.55090285E+03</pdfrwt>
<pdfrwt beam="2">  1       -2 0.47284036E-01 0.55090285E+03</pdfrwt>
<totfact> 0.68727213E+02</totfact>
</mgrwt>
</event>
<event>
 4    1  0.2679255E-004  0.6322643E+03  0.7818608E-02  0.9840640E-01
          2   -1    0    0  501    0  0.00000000000E+00  0.00000000000E+00  0.23752898075E+04  0.23752898075E+04  0.25500000000E-02 0.  1.
         -2   -1    0    0    0  501 -0.00000000000E+00 -0.00000000000E+00 -0.42074673722E+02  0.42074673799E+02  0.25500000000E-02 0. -1.
    5000001    1    1    2    0    0  0.17204891063E+03  0.63779881984E+02  0.31046989954E+03  0.38234704068E+03  0.12700000000E+03 0.  0.
   -5000001    1    1    2    0    0 -0.17204891063E+03 -0.63779881984E+02  0.20227452343E+04  0.20350174407E+04  0.12700000000E+03 0.  0.
<mgrwt>
<rscale>  0 0.63226432E+03</rscale>
<asrwt>0</asrwt>
<pdfrwt beam="1">  1        2 0.33932713E+00 0.63226432E+03</pdfrwt>
<pdfrwt beam="2">  1       -2 0.60106674E-02 0.63226432E+03</pdfrwt>
<totfact> 0.82348635E+02</totfact>
</mgrwt>
</event>
<event>
 4    1  0.2679255E-004  0.3681247E+03  0.7818608E-02  0.1055412E+00
          2   -1    0    0  501    0  0.00000000000E+00  0.00000000000E+00  0.41301764379E+03  0.41301764380E+03  0.25500000000E-02 0.  1.
         -2   -1    0    0    0  501 -0.00000000000E+00 -0.00000000000E+00 -0.82027833501E+02  0.82027833541E+02  0.25500000000E-02 0. -1.
    5000001    1    1    2    0    0 -0.11126266526E+03  0.73236463767E+02  0.16904832930E+03  0.24989857532E+03  0.12700000000E+03 0.  0.
   -5000001    1    1    2    0    0  0.11126266526E+03 -0.73236463767E+02  0.16194148098E+03  0.24514690202E+03  0.12700000000E+03 0.  0.
<mgrwt>
<rscale>  0 0.36812467E+03</rscale>
<asrwt>0</asrwt>
<pdfrwt beam="1">  1        2 0.59002521E-01 0.36812467E+03</pdfrwt>
<pdfrwt beam="2">  1       -2 0.11718262E-01 0.36812467E+03</pdfrwt>
<totfact> 0.43190364E+03</totfact>
</mgrwt>
</event>
<event>
 4    1  0.2679255E-004  0.9524695E+03  0.7818608E-02  0.9362269E-01
          2   -1    0    0  501    0  0.00000000000E+00  0.00000000000E+00  0.14159332888E+04  0.14159332888E+04  0.25500000000E-02 0.  1.
         -2   -1    0    0    0  501 -0.00000000000E+00 -0.00000000000E+00 -0.16017669766E+03  0.16017669768E+03  0.25500000000E-02 0. -1.
    5000001    1    1    2    0    0  0.11145158769E+03  0.33761068405E+03  0.14751807991E+03  0.40533074678E+03  0.12700000000E+03 0.  0.
   -5000001    1    1    2    0    0 -0.11145158769E+03 -0.33761068405E+03  0.11082385112E+04  0.11707792397E+04  0.12700000000E+03 0.  0.
<mgrwt>
<rscale>  0 0.95246946E+03</rscale>
<asrwt>0</asrwt>
<pdfrwt beam="1">  1        2 0.20227619E+00 0.95246946E+03</pdfrwt>
<pdfrwt beam="2">  1       -2 0.22882385E-01 0.95246946E+03</pdfrwt>
<totfact> 0.27235506E+02</totfact>
</mgrwt>
</event>
<event>
 4    1  0.2679255E-004  0.4897709E+03  0.7818608E-02  0.1016484E+00
         -2   -1    0    0    0  501 -0.00000000000E+00  0.00000000000E+00  0.47054474603E+02  0.47054474672E+02  0.25500000000E-02 0. -1.
          2   -1    0    0  501    0  0.00000000000E+00 -0.00000000000E+00 -0.12744563857E+04  0.12744563857E+04  0.25500000000E-02 0.  1.
    5000001    1    1    2    0    0 -0.18588478162E+03 -0.94073390989E+02 -0.55730095300E+03  0.60837184940E+03  0.12700000000E+03 0.  0.
   -5000001    1    1    2    0    0  0.18588478162E+03  0.94073390989E+02 -0.67010095812E+03  0.71313901099E+03  0.12700000000E+03 0.  0.
<mgrwt>
<rscale>  0 0.48977087E+03</rscale>
<asrwt>0</asrwt>
<pdfrwt beam="1">  1        2 0.18206518E+00 0.48977087E+03</pdfrwt>
<pdfrwt beam="2">  1       -2 0.67220686E-02 0.48977087E+03</pdfrwt>
<totfact> 0.25366194E+03</totfact>
</mgrwt>
</event>
<event>
 4    1  0.2679255E-004  0.4614395E+03  0.7818608E-02  0.1024365E+00
         -2   -1    0    0    0  501 -0.00000000000E+00  0.00000000000E+00  0.30027036768E+02  0.30027036877E+02  0.25500000000E-02 0.  1.
          2   -1    0    0  501    0  0.00000000000E+00 -0.00000000000E+00 -0.17727894630E+04  0.17727894630E+04  0.25500000000E-02 0. -1.
    5000001    1    1    2    0    0  0.47547371222E+02 -0.15943289127E+03 -0.12506365093E+04  0.12680300777E+04  0.12700000000E+03 0.  0.
   -5000001    1    1    2    0    0 -0.47547371222E+02  0.15943289127E+03 -0.49212591692E+03  0.53478642226E+03  0.12700000000E+03 0.  0.
<mgrwt>
<rscale>  0 0.46143955E+03</rscale>
<asrwt>0</asrwt>
<pdfrwt beam="1">  1        2 0.25325557E+00 0.46143955E+03</pdfrwt>
<pdfrwt beam="2">  1       -2 0.42895778E-02 0.46143955E+03</pdfrwt>
<totfact> 0.28109851E+03</totfact>
</mgrwt>
</event>
<event>
 4    1  0.2679255E-004  0.3633502E+03  0.7818608E-02  0.1057265E+00
         -2   -1    0    0    0  501 -0.00000000000E+00  0.00000000000E+00  0.18325605268E+03  0.18325605270E+03  0.25500000000E-02 0. -1.
          2   -1    0    0  501    0  0.00000000000E+00 -0.00000000000E+00 -0.18010777586E+03  0.18010777588E+03  0.25500000000E-02 0.  1.
    5000001    1    1    2    0    0  0.12800419124E+03  0.16817207740E+02 -0.12881459286E+02  0.18155666731E+03  0.12700000000E+03 0.  0.
   -5000001    1    1    2    0    0 -0.12800419124E+03 -0.16817207740E+02  0.16029736101E+02  0.18180716127E+03  0.12700000000E+03 0.  0.
<mgrwt>
<rscale>  0 0.36335019E+03</rscale>
<asrwt>0</asrwt>
<pdfrwt beam="1">  1        2 0.25729682E-01 0.36335019E+03</pdfrwt>
<pdfrwt beam="2">  1       -2 0.26179436E-01 0.36335019E+03</pdfrwt>
<totfact> 0.27409169E+03</totfact>
</mgrwt>
</event>
<event>
 4    1  0.2679255E-004  0.2889722E+03  0.7818608E-02  0.1090887E+00
          2   -1    0    0  501    0  0.00000000000E+00  0.00000000000E+00  0.22978975146E+04  0.22978975146E+04  0.25500000000E-02 0.  1.
         -2   -1    0    0    0  501 -0.00000000000E+00 -0.00000000000E+00 -0.90849257182E+01  0.90849260760E+01  0.25500000000E-02 0. -1.
    5000001    1    1    2    0    0 -0.72665447558E+01 -0.67102900610E+02  0.12549200355E+04  0.12631345524E+04  0.12700000000E+03 0.  0.
   -5000001    1    1    2    0    0  0.72665447558E+01  0.67102900610E+02  0.10338925534E+04  0.10438478883E+04  0.12700000000E+03 0.  0.
<mgrwt>
<rscale>  0 0.28897217E+03</rscale>
<asrwt>0</asrwt>
<pdfrwt beam="1">  1        2 0.32827110E+00 0.28897217E+03</pdfrwt>
<pdfrwt beam="2">  1       -2 0.12978465E-02 0.28897217E+03</pdfrwt>
<totfact> 0.92127239E+03</totfact>
</mgrwt>
</event>
<event>
 4    1  0.2679255E-004  0.3297272E+03  0.7818608E-02  0.1071258E+00
         -2   -1    0    0    0  501 -0.00000000000E+00  0.00000000000E+00  0.27196263734E+03  0.27196263736E+03  0.25500000000E-02 0. -1.
          2   -1    0    0  501    0  0.00000000000E+00 -0.00000000000E+00 -0.99940244225E+02  0.99940244257E+02  0.25500000000E-02 0.  1.
    5000001    1    1    2    0    0 -0.10087237533E+03  0.29524579539E+02  0.88288208591E+02  0.18700466486E+03  0.12700000000E+03 0.  0.
   -5000001    1    1    2    0    0  0.10087237533E+03 -0.29524579539E+02  0.83734184528E+02  0.18489821676E+03  0.12700000000E+03 0.  0.
<mgrwt>
<rscale>  0 0.32972724E+03</rscale>
<asrwt>0</asrwt>
<pdfrwt beam="1">  1        2 0.14277178E-01 0.32972724E+03</pdfrwt>
<pdfrwt beam="2">  1       -2 0.38851805E-01 0.32972724E+03</pdfrwt>
<totfact> 0.26140356E+03</totfact>
</mgrwt>
</event>
<event>
 4    1  0.2679255E-004  0.5355013E+03  0.7818608E-02  0.1004907E+00
          2   -1    0    0  501    0  0.00000000000E+00  0.00000000000E+00  0.57884721859E+03  0.57884721860E+03  0.25500000000E-02 0.  1.
         -2   -1    0    0    0  501 -0.00000000000E+00 -0.00000000000E+00 -0.12385030621E+03  0.12385030624E+03  0.25500000000E-02 0. -1.
    5000001    1    1    2    0    0 -0.23457122667E+03 -0.66086667082E+01  0.19833074581E+03  0.33246265894E+03  0.12700000000E+03 0.  0.
   -5000001    1    1    2    0    0  0.23457122667E+03  0.66086667082E+01  0.25666616657E+03  0.37023486589E+03  0.12700000000E+03 0.  0.
<mgrwt>
<rscale>  0 0.53550128E+03</rscale>
<asrwt>0</asrwt>
<pdfrwt beam="1">  1        2 0.82692461E-01 0.53550128E+03</pdfrwt>
<pdfrwt beam="2">  1       -2 0.17692901E-01 0.53550128E+03</pdfrwt>
<totfact> 0.14937869E+03</totfact>
</mgrwt>
</event>
<event>
 4    1  0.2679255E-004  0.3268264E+03  0.7818608E-02  0.1072550E+00
          2   -1    0    0  501    0  0.00000000000E+00  0.00000000000E+00  0.13702766188E+04  0.13702766188E+04  0.25500000000E-02 0.  1.
         -2   -1    0    0    0  501 -0.00000000000E+00 -0.00000000000E+00 -0.19487947449E+02  0.19487947616E+02  0.25500000000E-02 0. -1.
    5000001    1    1    2    0    0 -0.22437818395E+02  0.93314215471E+02  0.51835364345E+03  0.54224579130E+03  0.12700000000E+03 0.  0.
   -5000001    1    1    2    0    0  0.22437818395E+02 -0.93314215471E+02  0.83243502786E+03  0.84751877508E+03  0.12700000000E+03 0.  0.
<mgrwt>
<rscale>  0 0.32682643E+03</rscale>
<asrwt>0</asrwt>
<pdfrwt beam="1">  1        2 0.19575378E+00 0.32682643E+03</pdfrwt>
<pdfrwt beam="2">  1       -2 0.27839928E-02 0.32682643E+03</pdfrwt>
<totfact> 0.86426431E+03</totfact>
</mgrwt>
</event>
<event>
 4    1  0.2679255E-004  0.3643375E+03  0.7818608E-02  0.1056879E+00
          2   -1    0    0  501    0  0.00000000000E+00  0.00000000000E+00  0.44837066342E+04  0.44837066342E+04  0.25500000000E-02 0.  1.
         -2   -1    0    0    0  501 -0.00000000000E+00 -0.00000000000E+00 -0.74013424501E+01  0.74013428893E+01  0.25500000000E-02 0. -1.
    5000001    1    1    2    0    0  0.10087351180E+03  0.71139698358E+02  0.17122558600E+04  0.17213905577E+04  0.12700000000E+03 0.  0.
   -5000001    1    1    2    0    0 -0.10087351180E+03 -0.71139698358E+02  0.27640494318E+04  0.27697174194E+04  0.12700000000E+03 0.  0.
<mgrwt>
<rscale>  0 0.36433748E+03</rscale>
<asrwt>0</asrwt>
<pdfrwt beam="1">  1        2 0.64053066E+00 0.36433748E+03</pdfrwt>
<pdfrwt beam="2">  1       -2 0.10573328E-02 0.36433748E+03</pdfrwt>
<totfact> 0.63940491E+02</totfact>
</mgrwt>
</event>
<event>
 4    1  0.2679255E-004  0.3686463E+03  0.7818608E-02  0.1055212E+00
          2   -1    0    0  501    0  0.00000000000E+00  0.00000000000E+00  0.67972695907E+03  0.67972695907E+03  0.25500000000E-02 0.  1.
         -2   -1    0    0    0  501 -0.00000000000E+00 -0.00000000000E+00 -0.49983342633E+02  0.49983342698E+02  0.25500000000E-02 0. -1.
    5000001    1    1    2    0    0  0.99779885981E+00 -0.13356472897E+03  0.31023254569E+03  0.36085144427E+03  0.12700000000E+03 0.  0.
   -5000001    1    1    2    0    0 -0.99779885981E+00  0.13356472897E+03  0.31951107075E+03  0.36885885750E+03  0.12700000000E+03 0.  0.
<mgrwt>
<rscale>  0 0.36864631E+03</rscale>
<asrwt>0</asrwt>
<pdfrwt beam="1">  1        2 0.97103844E-01 0.36864631E+03</pdfrwt>
<pdfrwt beam="2">  1       -2 0.71404780E-02 0.36864631E+03</pdfrwt>
<totfact> 0.54010820E+03</totfact>
</mgrwt>
</event>
<event>
 4    1  0.2679255E-004  0.4424637E+03  0.7818608E-02  0.1029994E+00
          2   -1    0    0  501    0  0.00000000000E+00  0.00000000000E+00  0.48789153497E+03  0.48789153498E+03  0.25500000000E-02 0.  1.
         -2   -1    0    0    0  501 -0.00000000000E+00 -0.00000000000E+00 -0.10031641541E+03  0.10031641544E+03  0.25500000000E-02 0. -1.
    5000001    1    1    2    0    0  0.18086709377E+03  0.97449429690E+01  0.19721841935E+03  0.29636459717E+03  0.12700000000E+03 0.  0.
   -5000001    1    1    2    0    0 -0.18086709377E+03 -0.97449429690E+01  0.19035670021E+03  0.29184335325E+03  0.12700000000E+03 0.  0.
<mgrwt>
<rscale>  0 0.44246369E+03</rscale>
<asrwt>0</asrwt>
<pdfrwt beam="1">  1        2 0.69698789E-01 0.44246369E+03</pdfrwt>
<pdfrwt beam="2">  1       -2 0.14330917E-01 0.44246369E+03</pdfrwt>
<totfact> 0.25880379E+03</totfact>
</mgrwt>
</event>
<event>
 4    1  0.2679255E-004  0.3132901E+03  0.7818608E-02  0.1078779E+00
         -2   -1    0    0    0  501 -0.00000000000E+00  0.00000000000E+00  0.64964205903E+01  0.64964210908E+01  0.25500000000E-02 0. -1.
          2   -1    0    0  501    0  0.00000000000E+00 -0.00000000000E+00 -0.37771073070E+04  0.37771073070E+04  0.25500000000E-02 0.  1.
    5000001    1    1    2    0    0 -0.11449674891E+02 -0.86368629535E+02 -0.15398857563E+04  0.15475683434E+04  0.12700000000E+03 0.  0.
   -5000001    1    1    2    0    0  0.11449674891E+02  0.86368629535E+02 -0.22307251301E+04  0.22360353846E+04  0.12700000000E+03 0.  0.
<mgrwt>
<rscale>  0 0.31329014E+03</rscale>
<asrwt>0</asrwt>
<pdfrwt beam="1">  1        2 0.53958535E+00 0.31329014E+03</pdfrwt>
<pdfrwt beam="2">  1       -2 0.92806254E-03 0.31329014E+03</pdfrwt>
<totfact> 0.23710927E+03</totfact>
</mgrwt>
</event>
<event>
 4    1  0.2679255E-004  0.4562065E+03  0.7818608E-02  0.1025887E+00
          2   -1    0    0  501    0  0.00000000000E+00  0.00000000000E+00  0.47273493216E+03  0.47273493217E+03  0.25500000000E-02 0.  1.
         -2   -1    0    0    0  501 -0.00000000000E+00 -0.00000000000E+00 -0.11006396715E+03  0.11006396718E+03  0.25500000000E-02 0. -1.
    5000001    1    1    2    0    0 -0.60810963617E+02 -0.17941880598E+03  0.17672928376E+03  0.28853305005E+03  0.12700000000E+03 0.  0.
   -5000001    1    1    2    0    0  0.60810963617E+02  0.17941880598E+03  0.18594168125E+03  0.29426584929E+03  0.12700000000E+03 0.  0.
<mgrwt>
<rscale>  0 0.45620645E+03</rscale>
<asrwt>0</asrwt>
<pdfrwt beam="1">  1        2 0.67533561E-01 0.45620645E+03</pdfrwt>
<pdfrwt beam="2">  1       -2 0.15723424E-01 0.45620645E+03</pdfrwt>
<totfact> 0.22967295E+03</totfact>
</mgrwt>
</event>
<event>
 4    1  0.2679255E-004  0.3444911E+03  0.7818608E-02  0.1064899E+00
         -2   -1    0    0    0  501 -0.00000000000E+00  0.00000000000E+00  0.26910504918E+02  0.26910505039E+02  0.25500000000E-02 0. -1.
          2   -1    0    0  501    0  0.00000000000E+00 -0.00000000000E+00 -0.11024888621E+04  0.11024888621E+04  0.25500000000E-02 0.  1.
    5000001    1    1    2    0    0 -0.99807716116E+02 -0.20434184537E+01 -0.73377885467E+03  0.75134956134E+03  0.12700000000E+03 0.  0.
   -5000001    1    1    2    0    0  0.99807716116E+02  0.20434184537E+01 -0.34179950253E+03  0.37804980583E+03  0.12700000000E+03 0.  0.
<mgrwt>
<rscale>  0 0.34449111E+03</rscale>
<asrwt>0</asrwt>
<pdfrwt beam="1">  1        2 0.15749838E+00 0.34449111E+03</pdfrwt>
<pdfrwt beam="2">  1       -2 0.38443586E-02 0.34449111E+03</pdfrwt>
<totfact> 0.74452845E+03</totfact>
</mgrwt>
</event>
<event>
 4    1  0.2679255E-004  0.2837796E+03  0.7818608E-02  0.1093642E+00
         -2   -1    0    0    0  501 -0.00000000000E+00  0.00000000000E+00  0.39811846809E+03  0.39811846810E+03  0.25500000000E-02 0. -1.
          2   -1    0    0  501    0  0.00000000000E+00 -0.00000000000E+00 -0.50569675738E+02  0.50569675803E+02  0.25500000000E-02 0.  1.
    5000001    1    1    2    0    0  0.23263339833E+02  0.56815076427E+02  0.14955772958E+03  0.20558611423E+03  0.12700000000E+03 0.  0.
   -5000001    1    1    2    0    0 -0.23263339833E+02 -0.56815076427E+02  0.19799106277E+03  0.24310202967E+03  0.12700000000E+03 0.  0.
<mgrwt>
<rscale>  0 0.28377965E+03</rscale>
<asrwt>0</asrwt>
<pdfrwt beam="1">  1        2 0.72242393E-02 0.28377965E+03</pdfrwt>
<pdfrwt beam="2">  1       -2 0.56874068E-01 0.28377965E+03</pdfrwt>
<totfact> 0.28602994E+03</totfact>
</mgrwt>
</event>
<event>
 4    1  0.2679255E-004  0.3155580E+03  0.7818608E-02  0.1077712E+00
          2   -1    0    0  501    0  0.00000000000E+00  0.00000000000E+00  0.27867523846E+03  0.27867523847E+03  0.25500000000E-02 0.  1.
         -2   -1    0    0    0  501 -0.00000000000E+00 -0.00000000000E+00 -0.89330529780E+02  0.89330529817E+02  0.25500000000E-02 0. -1.
    5000001    1    1    2    0    0 -0.31080060078E+02  0.75072711997E+02  0.14891443208E+03  0.21191127932E+03  0.12700000000E+03 0.  0.
   -5000001    1    1    2    0    0  0.31080060078E+02 -0.75072711997E+02  0.40430276600E+02  0.15609448897E+03  0.12700000000E+03 0.  0.
<mgrwt>
<rscale>  0 0.31555796E+03</rscale>
<asrwt>0</asrwt>
<pdfrwt beam="1">  1        2 0.39810749E-01 0.31555796E+03</pdfrwt>
<pdfrwt beam="2">  1       -2 0.12761504E-01 0.31555796E+03</pdfrwt>
<totfact> 0.57394642E+03</totfact>
</mgrwt>
</event>
<event>
 4    1  0.2679255E-004  0.4561226E+03  0.7818608E-02  0.1025912E+00
         -2   -1    0    0    0  501 -0.00000000000E+00  0.00000000000E+00  0.42576881665E+02  0.42576881741E+02  0.25500000000E-02 0. -1.
          2   -1    0    0  501    0  0.00000000000E+00 -0.00000000000E+00 -0.12216010634E+04  0.12216010634E+04  0.25500000000E-02 0.  1.
    5000001    1    1    2    0    0 -0.13106818909E+03 -0.95901546803E+02 -0.85975109969E+03  0.88412495174E+03  0.12700000000E+03 0.  0.
   -5000001    1    1    2    0    0  0.13106818909E+03  0.95901546803E+02 -0.31927308200E+03  0.38005299336E+03  0.12700000000E+03 0.  0.
<mgrwt>
<rscale>  0 0.45612263E+03</rscale>
<asrwt>0</asrwt>
<pdfrwt beam="1">  1        2 0.17451442E+00 0.45612263E+03</pdfrwt>
<pdfrwt beam="2">  1       -2 0.60824124E-02 0.45612263E+03</pdfrwt>
<totfact> 0.31702108E+03</totfact>
</mgrwt>
</event>
<event>
 4    1  0.2679255E-004  0.3993176E+03  0.7818608E-02  0.1044016E+00
          2   -1    0    0  501    0  0.00000000000E+00  0.00000000000E+00  0.38898749436E+03  0.38898749437E+03  0.25500000000E-02 0.  1.
         -2   -1    0    0    0  501 -0.00000000000E+00 -0.00000000000E+00 -0.10248050584E+03  0.10248050587E+03  0.25500000000E-02 0. -1.
    5000001    1    1    2    0    0 -0.34914472562E+02  0.10482714154E+03  0.11113956179E+02  0.16870171908E+03  0.12700000000E+03 0.  0.
   -5000001    1    1    2    0    0  0.34914472562E+02 -0.10482714154E+03  0.27539303234E+03  0.32276628117E+03  0.12700000000E+03 0.  0.
<mgrwt>
<rscale>  0 0.39931759E+03</rscale>
<asrwt>0</asrwt>
<pdfrwt beam="1">  1        2 0.55569643E-01 0.39931759E+03</pdfrwt>
<pdfrwt beam="2">  1       -2 0.14640072E-01 0.39931759E+03</pdfrwt>
<totfact> 0.32048178E+03</totfact>
</mgrwt>
</event>
<event>
 4    1  0.2679255E-004  0.5304300E+03  0.7818608E-02  0.1006128E+00
          2   -1    0    0  501    0  0.00000000000E+00  0.00000000000E+00  0.12129645688E+04  0.12129645688E+04  0.25500000000E-02 0.  1.
         -2   -1    0    0    0  501 -0.00000000000E+00 -0.00000000000E+00 -0.57989331993E+02  0.57989332049E+02  0.25500000000E-02 0. -1.
    5000001    1    1    2    0    0  0.10592284757E+03 -0.15291020944E+03  0.91301460691E+03  0.94038601341E+03  0.12700000000E+03 0.  0.
   -5000001    1    1    2    0    0 -0.10592284757E+03  0.15291020944E+03  0.24196062991E+03  0.33056788746E+03  0.12700000000E+03 0.  0.
<mgrwt>
<rscale>  0 0.53043003E+03</rscale>
<asrwt>0</asrwt>
<pdfrwt beam="1">  1        2 0.17328064E+00 0.53043003E+03</pdfrwt>
<pdfrwt beam="2">  1       -2 0.82841909E-02 0.53043003E+03</pdfrwt>
<totfact> 0.19694923E+03</totfact>
</mgrwt>
</event>
<event>
 4    1  0.2679255E-004  0.4336854E+03  0.7818608E-02  0.1032702E+00
          2   -1    0    0  501    0  0.00000000000E+00  0.00000000000E+00  0.23144089915E+04  0.23144089915E+04  0.25500000000E-02 0.  1.
         -2   -1    0    0    0  501 -0.00000000000E+00 -0.00000000000E+00 -0.20316527728E+02  0.20316527888E+02  0.25500000000E-02 0. -1.
    5000001    1    1    2    0    0 -0.73575655525E+02 -0.13560678456E+03  0.69377415749E+03  0.72197933399E+03  0.12700000000E+03 0.  0.
   -5000001    1    1    2    0    0  0.73575655525E+02  0.13560678456E+03  0.16003183063E+04  0.16127461854E+04  0.12700000000E+03 0.  0.
<mgrwt>
<rscale>  0 0.43368539E+03</rscale>
<asrwt>0</asrwt>
<pdfrwt beam="1">  1        2 0.33062992E+00 0.43368539E+03</pdfrwt>
<pdfrwt beam="2">  1       -2 0.29023606E-02 0.43368539E+03</pdfrwt>
<totfact> 0.27354051E+03</totfact>
</mgrwt>
</event>
<event>
 4    1  0.2679255E-004  0.5256302E+03  0.7818608E-02  0.1007297E+00
          2   -1    0    0  501    0  0.00000000000E+00  0.00000000000E+00  0.83325751137E+03  0.83325751138E+03  0.25500000000E-02 0.  1.
         -2   -1    0    0    0  501 -0.00000000000E+00 -0.00000000000E+00 -0.82893682760E+02  0.82893682799E+02  0.25500000000E-02 0. -1.
    5000001    1    1    2    0    0  0.50171565656E+02 -0.10683910827E+03  0.71943700986E+03  0.74003404800E+03  0.12700000000E+03 0.  0.
   -5000001    1    1    2    0    0 -0.50171565656E+02  0.10683910827E+03  0.30926818759E+02  0.17611714617E+03  0.12700000000E+03 0.  0.
<mgrwt>
<rscale>  0 0.52563023E+03</rscale>
<asrwt>0</asrwt>
<pdfrwt beam="1">  1        2 0.11903679E+00 0.52563023E+03</pdfrwt>
<pdfrwt beam="2">  1       -2 0.11841954E-01 0.52563023E+03</pdfrwt>
<totfact> 0.18757137E+03</totfact>
</mgrwt>
</event>
<event>
 4    1  0.2679255E-004  0.7949356E+03  0.7818608E-02  0.9567377E-01
          2   -1    0    0  501    0  0.00000000000E+00  0.00000000000E+00  0.29301727736E+04  0.29301727736E+04  0.25500000000E-02 0.  1.
         -2   -1    0    0    0  501 -0.00000000000E+00 -0.00000000000E+00 -0.53915128728E+02  0.53915128788E+02  0.25500000000E-02 0. -1.
    5000001    1    1    2    0    0 -0.11462480838E+03  0.33336487034E+03  0.19358627588E+04  0.19717922315E+04  0.12700000000E+03 0.  0.
   -5000001    1    1    2    0    0  0.11462480838E+03 -0.33336487034E+03  0.94039488615E+03  0.10122956709E+04  0.12700000000E+03 0.  0.
<mgrwt>
<rscale>  0 0.79493558E+03</rscale>
<asrwt>0</asrwt>
<pdfrwt beam="1">  1        2 0.41859618E+00 0.79493558E+03</pdfrwt>
<pdfrwt beam="2">  1       -2 0.77021601E-02 0.79493558E+03</pdfrwt>
<totfact> 0.28078701E+02</totfact>
</mgrwt>
</event>
<event>
 4    1  0.2679255E-004  0.3134838E+03  0.7818608E-02  0.1078688E+00
          2   -1    0    0  501    0  0.00000000000E+00  0.00000000000E+00  0.68111473979E+03  0.68111473980E+03  0.25500000000E-02 0.  1.
         -2   -1    0    0    0  501 -0.00000000000E+00 -0.00000000000E+00 -0.36070318765E+02  0.36070318855E+02  0.25500000000E-02 0. -1.
    5000001    1    1    2    0    0  0.49487677595E+00  0.90704643480E+02  0.35578958109E+03  0.38851358182E+03  0.12700000000E+03 0.  0.
   -5000001    1    1    2    0    0 -0.49487677595E+00 -0.90704643480E+02  0.28925483994E+03  0.32867147683E+03  0.12700000000E+03 0.  0.
<mgrwt>
<rscale>  0 0.31348382E+03</rscale>
<asrwt>0</asrwt>
<pdfrwt beam="1">  1        2 0.97302107E-01 0.31348382E+03</pdfrwt>
<pdfrwt beam="2">  1       -2 0.51529026E-02 0.31348382E+03</pdfrwt>
<totfact> 0.88785496E+03</totfact>
</mgrwt>
</event>
<event>
 4    1  0.2679255E-004  0.2954669E+03  0.7818608E-02  0.1087529E+00
          2   -1    0    0  501    0  0.00000000000E+00  0.00000000000E+00  0.12480269248E+04  0.12480269249E+04  0.25500000000E-02 0.  1.
         -2   -1    0    0    0  501 -0.00000000000E+00 -0.00000000000E+00 -0.17487739999E+02  0.17487740185E+02  0.25500000000E-02 0. -1.
    5000001    1    1    2    0    0 -0.51939353895E+02  0.53012548613E+02  0.55652022387E+03  0.57563164122E+03  0.12700000000E+03 0.  0.
   -5000001    1    1    2    0    0  0.51939353895E+02 -0.53012548613E+02  0.67401896098E+03  0.68988302382E+03  0.12700000000E+03 0.  0.
<mgrwt>
<rscale>  0 0.29546689E+03</rscale>
<asrwt>0</asrwt>
<pdfrwt beam="1">  1        2 0.17828965E+00 0.29546689E+03</pdfrwt>
<pdfrwt beam="2">  1       -2 0.24982474E-02 0.29546689E+03</pdfrwt>
<totfact> 0.11753504E+04</totfact>
</mgrwt>
</event>
<event>
 4    1  0.2679255E-004  0.5429097E+03  0.7818608E-02  0.1003149E+00
         -2   -1    0    0    0  501 -0.00000000000E+00  0.00000000000E+00  0.23702876136E+02  0.23702876273E+02  0.25500000000E-02 0. -1.
          2   -1    0    0  501    0  0.00000000000E+00 -0.00000000000E+00 -0.31088094910E+04  0.31088094910E+04  0.25500000000E-02 0.  1.
    5000001    1    1    2    0    0 -0.11063745576E+03 -0.21217529803E+03 -0.16424440195E+04  0.16646352035E+04  0.12700000000E+03 0.  0.
   -5000001    1    1    2    0    0  0.11063745576E+03  0.21217529803E+03 -0.14426625954E+04  0.14678771638E+04  0.12700000000E+03 0.  0.
<mgrwt>
<rscale>  0 0.54290967E+03</rscale>
<asrwt>0</asrwt>
<pdfrwt beam="1">  1        2 0.44411538E+00 0.54290967E+03</pdfrwt>
<pdfrwt beam="2">  1       -2 0.33861271E-02 0.54290967E+03</pdfrwt>
<totfact> 0.82623637E+02</totfact>
</mgrwt>
</event>
<event>
 4    1  0.2679255E-004  0.3047358E+03  0.7818608E-02  0.1082897E+00
         -2   -1    0    0    0  501 -0.00000000000E+00  0.00000000000E+00  0.38603316709E+03  0.38603316710E+03  0.25500000000E-02 0. -1.
          2   -1    0    0  501    0  0.00000000000E+00 -0.00000000000E+00 -0.60139853734E+02  0.60139853789E+02  0.25500000000E-02 0.  1.
    5000001    1    1    2    0    0 -0.40823369364E+02  0.51971794525E+02  0.86595884614E+02  0.16731844532E+03  0.12700000000E+03 0.  0.
   -5000001    1    1    2    0    0  0.40823369364E+02 -0.51971794525E+02  0.23929742874E+03  0.27885457557E+03  0.12700000000E+03 0.  0.
<mgrwt>
<rscale>  0 0.30473581E+03</rscale>
<asrwt>0</asrwt>
<pdfrwt beam="1">  1        2 0.85914077E-02 0.30473581E+03</pdfrwt>
<pdfrwt beam="2">  1       -2 0.55147595E-01 0.30473581E+03</pdfrwt>
<totfact> 0.24469465E+03</totfact>
</mgrwt>
</event>
<event>
 4    1  0.2679255E-004  0.3017195E+03  0.7818608E-02  0.1084384E+00
         -2   -1    0    0    0  501 -0.00000000000E+00  0.00000000000E+00  0.22004614984E+02  0.22004615132E+02  0.25500000000E-02 0. -1.
          2   -1    0    0  501    0  0.00000000000E+00 -0.00000000000E+00 -0.10342674606E+04  0.10342674606E+04  0.25500000000E-02 0.  1.
    5000001    1    1    2    0    0 -0.69463250565E+02  0.42227980217E+02 -0.52229297423E+03  0.54362422354E+03  0.12700000000E+03 0.  0.
   -5000001    1    1    2    0    0  0.69463250565E+02 -0.42227980217E+02 -0.48996987139E+03  0.51264785220E+03  0.12700000000E+03 0.  0.
<mgrwt>
<rscale>  0 0.30171945E+03</rscale>
<asrwt>0</asrwt>
<pdfrwt beam="1">  1        2 0.14775246E+00 0.30171945E+03</pdfrwt>
<pdfrwt beam="2">  1       -2 0.31435171E-02 0.30171945E+03</pdfrwt>
<totfact> 0.10990437E+04</totfact>
</mgrwt>
</event>
<event>
 4    1  0.2679255E-004  0.7798726E+03  0.7818608E-02  0.9589617E-01
          2   -1    0    0  501    0  0.00000000000E+00  0.00000000000E+00  0.87847053847E+03  0.87847053847E+03  0.25500000000E-02 0.  1.
         -2   -1    0    0    0  501 -0.00000000000E+00 -0.00000000000E+00 -0.17308526009E+03  0.17308526011E+03  0.25500000000E-02 0. -1.
    5000001    1    1    2    0    0  0.22246084946E+03  0.29386141529E+03  0.36459658219E+03  0.53376308291E+03  0.12700000000E+03 0.  0.
   -5000001    1    1    2    0    0 -0.22246084946E+03 -0.29386141529E+03  0.34078869619E+03  0.51779271566E+03  0.12700000000E+03 0.  0.
<mgrwt>
<rscale>  0 0.77987256E+03</rscale>
<asrwt>0</asrwt>
<pdfrwt beam="1">  1        2 0.12549579E+00 0.77987256E+03</pdfrwt>
<pdfrwt beam="2">  1       -2 0.24726466E-01 0.77987256E+03</pdfrwt>
<totfact> 0.49262920E+02</totfact>
</mgrwt>
</event>
<event>
 4    1  0.2679255E-004  0.9481312E+03  0.7818608E-02  0.9367338E-01
          2   -1    0    0  501    0  0.00000000000E+00  0.00000000000E+00  0.18635782261E+04  0.18635782261E+04  0.25500000000E-02 0.  1.
         -2   -1    0    0    0  501 -0.00000000000E+00 -0.00000000000E+00 -0.12059499756E+03  0.12059499758E+03  0.25500000000E-02 0. -1.
    5000001    1    1    2    0    0 -0.31726876358E+03  0.32652986755E+03  0.94775364278E+03  0.10590784627E+04  0.12700000000E+03 0.  0.
   -5000001    1    1    2    0    0  0.31726876358E+03 -0.32652986755E+03  0.79522958581E+03  0.92509476103E+03  0.12700000000E+03 0.  0.
<mgrwt>
<rscale>  0 0.94813124E+03</rscale>
<asrwt>0</asrwt>
<pdfrwt beam="1">  1        2 0.26622543E+00 0.94813124E+03</pdfrwt>
<pdfrwt beam="2">  1       -2 0.17227859E-01 0.94813124E+03</pdfrwt>
<totfact> 0.26196504E+02</totfact>
</mgrwt>
</event>
<event>
 4    1  0.2679255E-004  0.2685972E+03  0.7818608E-02  0.1102085E+00
          2   -1    0    0  501    0  0.00000000000E+00  0.00000000000E+00  0.65889852968E+03  0.65889852969E+03  0.25500000000E-02 0.  1.
         -2   -1    0    0    0  501 -0.00000000000E+00 -0.00000000000E+00 -0.27373134079E+02  0.27373134198E+02  0.25500000000E-02 0. -1.
    5000001    1    1    2    0    0  0.40487344706E+02  0.77453472812E+00  0.35753498106E+03  0.38157579544E+03  0.12700000000E+03 0.  0.
   -5000001    1    1    2    0    0 -0.40487344706E+02 -0.77453472812E+00  0.27399041455E+03  0.30469586845E+03  0.12700000000E+03 0.  0.
<mgrwt>
<rscale>  0 0.26859723E+03</rscale>
<asrwt>0</asrwt>
<pdfrwt beam="1">  1        2 0.94128352E-01 0.26859723E+03</pdfrwt>
<pdfrwt beam="2">  1       -2 0.39104481E-02 0.26859723E+03</pdfrwt>
<totfact> 0.13937083E+04</totfact>
</mgrwt>
</event>
<event>
 4    1  0.2679255E-004  0.6569779E+03  0.7818608E-02  0.9793773E-01
         -2   -1    0    0    0  501 -0.00000000000E+00  0.00000000000E+00  0.83444265889E+02  0.83444265928E+02  0.25500000000E-02 0. -1.
          2   -1    0    0  501    0  0.00000000000E+00 -0.00000000000E+00 -0.12931385469E+04  0.12931385469E+04  0.25500000000E-02 0.  1.
    5000001    1    1    2    0    0  0.14025321202E+03  0.23753598363E+03 -0.86723757469E+03  0.91887121946E+03  0.12700000000E+03 0.  0.
   -5000001    1    1    2    0    0 -0.14025321202E+03 -0.23753598363E+03 -0.34245670633E+03  0.45771159338E+03  0.12700000000E+03 0.  0.
<mgrwt>
<rscale>  0 0.65697792E+03</rscale>
<asrwt>0</asrwt>
<pdfrwt beam="1">  1        2 0.18473407E+00 0.65697792E+03</pdfrwt>
<pdfrwt beam="2">  1       -2 0.11920610E-01 0.65697792E+03</pdfrwt>
<totfact> 0.98333089E+02</totfact>
</mgrwt>
</event>
<event>
 4    1  0.2679255E-004  0.3138753E+03  0.7818608E-02  0.1078503E+00
          2   -1    0    0  501    0  0.00000000000E+00  0.00000000000E+00  0.11992843918E+03  0.11992843920E+03  0.25500000000E-02 0.  1.
         -2   -1    0    0    0  501 -0.00000000000E+00 -0.00000000000E+00 -0.20536772427E+03  0.20536772429E+03  0.25500000000E-02 0. -1.
    5000001    1    1    2    0    0  0.89038553815E+02  0.16556983554E+02 -0.60623437072E+02  0.16735052702E+03  0.12700000000E+03 0.  0.
   -5000001    1    1    2    0    0 -0.89038553815E+02 -0.16556983554E+02 -0.24815848026E+02  0.15794563648E+03  0.12700000000E+03 0.  0.
<mgrwt>
<rscale>  0 0.31387533E+03</rscale>
<asrwt>0</asrwt>
<pdfrwt beam="1">  1        2 0.17132634E-01 0.31387533E+03</pdfrwt>
<pdfrwt beam="2">  1       -2 0.29338246E-01 0.31387533E+03</pdfrwt>
<totfact> 0.35461456E+03</totfact>
</mgrwt>
</event>
<event>
 4    1  0.2679255E-004  0.5464375E+03  0.7818608E-02  0.1002322E+00
          2   -1    0    0  501    0  0.00000000000E+00  0.00000000000E+00  0.49614294189E+02  0.49614294255E+02  0.25500000000E-02 0.  1.
         -2   -1    0    0    0  501 -0.00000000000E+00 -0.00000000000E+00 -0.15045763375E+04  0.15045763375E+04  0.25500000000E-02 0. -1.
    5000001    1    1    2    0    0 -0.12548244846E+03  0.14202168042E+03 -0.29986740774E+03  0.37678304740E+03  0.12700000000E+03 0.  0.
   -5000001    1    1    2    0    0  0.12548244846E+03 -0.14202168042E+03 -0.11550946356E+04  0.11774075844E+04  0.12700000000E+03 0.  0.
<mgrwt>
<rscale>  0 0.54643753E+03</rscale>
<asrwt>0</asrwt>
<pdfrwt beam="1">  1        2 0.70877573E-02 0.54643753E+03</pdfrwt>
<pdfrwt beam="2">  1       -2 0.21493945E+00 0.54643753E+03</pdfrwt>
<totfact> 0.11400074E+02</totfact>
</mgrwt>
</event>
<event>
 4    1  0.2679255E-004  0.8580037E+03  0.7818608E-02  0.9479657E-01
          2   -1    0    0  501    0  0.00000000000E+00  0.00000000000E+00  0.14952254157E+03  0.14952254159E+03  0.25500000000E-02 0.  1.
         -2   -1    0    0    0  501 -0.00000000000E+00 -0.00000000000E+00 -0.12308684349E+04  0.12308684349E+04  0.25500000000E-02 0. -1.
    5000001    1    1    2    0    0 -0.39187311257E+03  0.65692239777E+02 -0.37951908888E+03  0.56395367323E+03  0.12700000000E+03 0.  0.
   -5000001    1    1    2    0    0  0.39187311257E+03 -0.65692239777E+02 -0.70182680446E+03  0.81643730327E+03  0.12700000000E+03 0.  0.
<mgrwt>
<rscale>  0 0.85800368E+03</rscale>
<asrwt>0</asrwt>
<pdfrwt beam="1">  1        2 0.21360364E-01 0.85800368E+03</pdfrwt>
<pdfrwt beam="2">  1       -2 0.17583834E+00 0.85800368E+03</pdfrwt>
<totfact> 0.51386160E+01</totfact>
</mgrwt>
</event>
<event>
 4    1  0.2679255E-004  0.6731239E+03  0.7818608E-02  0.9764331E-01
         -2   -1    0    0    0  501 -0.00000000000E+00  0.00000000000E+00  0.67960803054E+02  0.67960803102E+02  0.25500000000E-02 0. -1.
          2   -1    0    0  501    0  0.00000000000E+00 -0.00000000000E+00 -0.16667538897E+04  0.16667538897E+04  0.25500000000E-02 0.  1.
    5000001    1    1    2    0    0  0.19874857863E+03  0.22783125296E+03 -0.60420094105E+03  0.68745607459E+03  0.12700000000E+03 0.  0.
   -5000001    1    1    2    0    0 -0.19874857863E+03 -0.22783125296E+03 -0.99459214563E+03  0.10472586182E+04  0.12700000000E+03 0.  0.
<mgrwt>
<rscale>  0 0.67312386E+03</rscale>
<asrwt>0</asrwt>
<pdfrwt beam="1">  1        2 0.23810767E+00 0.67312386E+03</pdfrwt>
<pdfrwt beam="2">  1       -2 0.97086872E-02 0.67312386E+03</pdfrwt>
<totfact> 0.87376222E+02</totfact>
</mgrwt>
</event>
<event>
 4    1  0.2679255E-004  0.2941822E+03  0.7818608E-02  0.1088186E+00
         -2   -1    0    0    0  501 -0.00000000000E+00  0.00000000000E+00  0.51903100002E+02  0.51903100065E+02  0.25500000000E-02 0. -1.
          2   -1    0    0  501    0  0.00000000000E+00 -0.00000000000E+00 -0.41684976990E+03  0.41684976991E+03  0.25500000000E-02 0.  1.
    5000001    1    1    2    0    0  0.33382120988E+02  0.27705572787E+02 -0.27840707286E+03  0.30906546715E+03  0.12700000000E+03 0.  0.
   -5000001    1    1    2    0    0 -0.33382120988E+02 -0.27705572787E+02 -0.86539597035E+02  0.15968740282E+03  0.12700000000E+03 0.  0.
<mgrwt>
<rscale>  0 0.29418222E+03</rscale>
<asrwt>0</asrwt>
<pdfrwt beam="1">  1        2 0.59549965E-01 0.29418222E+03</pdfrwt>
<pdfrwt beam="2">  1       -2 0.74147288E-02 0.29418222E+03</pdfrwt>
<totfact> 0.87868051E+03</totfact>
</mgrwt>
</event>
<event>
 4    1  0.2679255E-004  0.4260674E+03  0.7818608E-02  0.1035109E+00
         -2   -1    0    0    0  501 -0.00000000000E+00  0.00000000000E+00  0.41384008010E+02  0.41384008088E+02  0.25500000000E-02 0.  1.
          2   -1    0    0  501    0  0.00000000000E+00 -0.00000000000E+00 -0.10966399805E+04  0.10966399805E+04  0.25500000000E-02 0. -1.
    5000001    1    1    2    0    0 -0.22127627053E+02  0.16511925850E+03 -0.42416849868E+03  0.47307707266E+03  0.12700000000E+03 0.  0.
   -5000001    1    1    2    0    0  0.22127627053E+02 -0.16511925850E+03 -0.63108747381E+03  0.66494691593E+03  0.12700000000E+03 0.  0.
<mgrwt>
<rscale>  0 0.42606740E+03</rscale>
<asrwt>0</asrwt>
<pdfrwt beam="1">  1        2 0.15666284E+00 0.42606740E+03</pdfrwt>
<pdfrwt beam="2">  1       -2 0.59120018E-02 0.42606740E+03</pdfrwt>
<totfact> 0.38939247E+03</totfact>
</mgrwt>
</event>
<event>
 4    1  0.2679255E-004  0.2864630E+03  0.7818608E-02  0.1092210E+00
          2   -1    0    0  501    0  0.00000000000E+00  0.00000000000E+00  0.76430436587E+02  0.76430436630E+02  0.25500000000E-02 0.  1.
         -2   -1    0    0    0  501 -0.00000000000E+00 -0.00000000000E+00 -0.26841752838E+03  0.26841752839E+03  0.25500000000E-02 0. -1.
    5000001    1    1    2    0    0 -0.36355462656E+02  0.72449661232E+01 -0.16206149905E+03  0.20920597189E+03  0.12700000000E+03 0.  0.
   -5000001    1    1    2    0    0  0.36355462656E+02 -0.72449661232E+01 -0.29925592735E+02  0.13564199313E+03  0.12700000000E+03 0.  0.
<mgrwt>
<rscale>  0 0.28646304E+03</rscale>
<asrwt>0</asrwt>
<pdfrwt beam="1">  1        2 0.10918634E-01 0.28646304E+03</pdfrwt>
<pdfrwt beam="2">  1       -2 0.38345361E-01 0.28646304E+03</pdfrwt>
<totfact> 0.36989898E+03</totfact>
</mgrwt>
</event>
<event>
 4    1  0.2679255E-004  0.7342795E+03  0.7818608E-02  0.9660341E-01
          2   -1    0    0  501    0  0.00000000000E+00  0.00000000000E+00  0.20389553067E+03  0.20389553069E+03  0.25500000000E-02 0.  1.
         -2   -1    0    0    0  501 -0.00000000000E+00 -0.00000000000E+00 -0.66108168119E+03  0.66108168120E+03  0.25500000000E-02 0. -1.
    5000001    1    1    2    0    0  0.14743773985E+03 -0.30801156841E+03 -0.17521046708E+03  0.40427307749E+03  0.12700000000E+03 0.  0.
   -5000001    1    1    2    0    0 -0.14743773985E+03  0.30801156841E+03 -0.28197568344E+03  0.46070413440E+03  0.12700000000E+03 0.  0.
<mgrwt>
<rscale>  0 0.73427951E+03</rscale>
<asrwt>0</asrwt>
<pdfrwt beam="1">  1        2 0.29127933E-01 0.73427951E+03</pdfrwt>
<pdfrwt beam="2">  1       -2 0.94440239E-01 0.73427951E+03</pdfrwt>
<totfact> 0.17548206E+02</totfact>
</mgrwt>
</event>
<event>
 4    1  0.2679255E-004  0.8184697E+03  0.7818608E-02  0.9533661E-01
          2   -1    0    0  501    0  0.00000000000E+00  0.00000000000E+00  0.26784844757E+04  0.26784844757E+04  0.25500000000E-02 0.  1.
         -2   -1    0    0    0  501 -0.00000000000E+00 -0.00000000000E+00 -0.62525348899E+02  0.62525348951E+02  0.25500000000E-02 0. -1.
    5000001    1    1    2    0    0 -0.33296876764E+03  0.17702034117E+03  0.16281459397E+04  0.16760646176E+04  0.12700000000E+03 0.  0.
   -5000001    1    1    2    0    0  0.33296876764E+03 -0.17702034117E+03  0.98781318708E+03  0.10649452070E+04  0.12700000000E+03 0.  0.
<mgrwt>
<rscale>  0 0.81846973E+03</rscale>
<asrwt>0</asrwt>
<pdfrwt beam="1">  1        2 0.38264053E+00 0.81846973E+03</pdfrwt>
<pdfrwt beam="2">  1       -2 0.89321953E-02 0.81846973E+03</pdfrwt>
<totfact> 0.30104466E+02</totfact>
</mgrwt>
</event>
<event>
 4    1  0.2679255E-004  0.4705180E+03  0.7818608E-02  0.1021774E+00
          2   -1    0    0  501    0  0.00000000000E+00  0.00000000000E+00  0.60263980030E+03  0.60263980031E+03  0.25500000000E-02 0.  1.
         -2   -1    0    0    0  501 -0.00000000000E+00 -0.00000000000E+00 -0.91840592068E+02  0.91840592103E+02  0.25500000000E-02 0. -1.
    5000001    1    1    2    0    0  0.18013591019E+03 -0.25825639791E+02  0.14010318891E+03  0.26243820864E+03  0.12700000000E+03 0.  0.
   -5000001    1    1    2    0    0 -0.18013591019E+03  0.25825639791E+02  0.37069601933E+03  0.43204218377E+03  0.12700000000E+03 0.  0.
<mgrwt>
<rscale>  0 0.47051800E+03</rscale>
<asrwt>0</asrwt>
<pdfrwt beam="1">  1        2 0.86091397E-01 0.47051800E+03</pdfrwt>
<pdfrwt beam="2">  1       -2 0.13120085E-01 0.47051800E+03</pdfrwt>
<totfact> 0.23544766E+03</totfact>
</mgrwt>
</event>
<event>
 4    1  0.2679255E-004  0.5321116E+03  0.7818608E-02  0.1005721E+00
         -2   -1    0    0    0  501 -0.00000000000E+00  0.00000000000E+00  0.52020497367E+02  0.52020497429E+02  0.25500000000E-02 0. -1.
          2   -1    0    0  501    0  0.00000000000E+00 -0.00000000000E+00 -0.13607268010E+04  0.13607268010E+04  0.25500000000E-02 0.  1.
    5000001    1    1    2    0    0 -0.19135381174E+03 -0.13320191303E+03 -0.70015866061E+03  0.74880583661E+03  0.12700000000E+03 0.  0.
   -5000001    1    1    2    0    0  0.19135381174E+03  0.13320191303E+03 -0.60854764300E+03  0.66394146181E+03  0.12700000000E+03 0.  0.
<mgrwt>
<rscale>  0 0.53211159E+03</rscale>
<asrwt>0</asrwt>
<pdfrwt beam="1">  1        2 0.19438952E+00 0.53211159E+03</pdfrwt>
<pdfrwt beam="2">  1       -2 0.74315005E-02 0.53211159E+03</pdfrwt>
<totfact> 0.19448800E+03</totfact>
</mgrwt>
</event>
<event>
 4    1  0.2679255E-004  0.4710355E+03  0.7818608E-02  0.1021628E+00
          2   -1    0    0  501    0  0.00000000000E+00  0.00000000000E+00  0.64659128288E+03  0.64659128288E+03  0.25500000000E-02 0. -1.
         -2   -1    0    0    0  501 -0.00000000000E+00 -0.00000000000E+00 -0.85786209537E+02  0.85786209575E+02  0.25500000000E-02 0.  1.
    5000001    1    1    2    0    0  0.10822601719E+03 -0.14825700765E+03  0.16356698762E+03  0.27672399707E+03  0.12700000000E+03 0.  0.
   -5000001    1    1    2    0    0 -0.10822601719E+03  0.14825700765E+03  0.39723808572E+03  0.45565349539E+03  0.12700000000E+03 0.  0.
<mgrwt>
<rscale>  0 0.47103552E+03</rscale>
<asrwt>0</asrwt>
<pdfrwt beam="1">  1        2 0.92370177E-01 0.47103552E+03</pdfrwt>
<pdfrwt beam="2">  1       -2 0.12255174E-01 0.47103552E+03</pdfrwt>
<totfact> 0.24246414E+03</totfact>
</mgrwt>
</event>
<event>
 4    1  0.2679255E-004  0.3999529E+03  0.7818608E-02  0.1043796E+00
         -2   -1    0    0    0  501 -0.00000000000E+00  0.00000000000E+00  0.11376978124E+03  0.11376978127E+03  0.25500000000E-02 0. -1.
          2   -1    0    0  501    0  0.00000000000E+00 -0.00000000000E+00 -0.35150445882E+03  0.35150445883E+03  0.25500000000E-02 0.  1.
    5000001    1    1    2    0    0  0.29351222913E+02 -0.98273543236E+02  0.15507247370E+02  0.16397761526E+03  0.12700000000E+03 0.  0.
   -5000001    1    1    2    0    0 -0.29351222913E+02  0.98273543236E+02 -0.25324192495E+03  0.30129662484E+03  0.12700000000E+03 0.  0.
<mgrwt>
<rscale>  0 0.39995292E+03</rscale>
<asrwt>0</asrwt>
<pdfrwt beam="1">  1        2 0.50214922E-01 0.39995292E+03</pdfrwt>
<pdfrwt beam="2">  1       -2 0.16252826E-01 0.39995292E+03</pdfrwt>
<totfact> 0.30061663E+03</totfact>
</mgrwt>
</event>
<event>
 4    1  0.2679255E-004  0.4539782E+03  0.7818608E-02  0.1026542E+00
         -2   -1    0    0    0  501 -0.00000000000E+00  0.00000000000E+00  0.16932466906E+02  0.16932467098E+02  0.25500000000E-02 0. -1.
          2   -1    0    0  501    0  0.00000000000E+00 -0.00000000000E+00 -0.30429147158E+04  0.30429147158E+04  0.25500000000E-02 0.  1.
    5000001    1    1    2    0    0  0.10942805481E+03  0.15287481264E+03 -0.15605769615E+04  0.15769827711E+04  0.12700000000E+03 0.  0.
   -5000001    1    1    2    0    0 -0.10942805481E+03 -0.15287481264E+03 -0.14654052874E+04  0.14828644119E+04  0.12700000000E+03 0.  0.
<mgrwt>
<rscale>  0 0.45397821E+03</rscale>
<asrwt>0</asrwt>
<pdfrwt beam="1">  1        2 0.43470175E+00 0.45397821E+03</pdfrwt>
<pdfrwt beam="2">  1       -2 0.24189258E-02 0.45397821E+03</pdfrwt>
<totfact> 0.15053118E+03</totfact>
</mgrwt>
</event>
<event>
 4    1  0.2679255E-004  0.3945925E+03  0.7818608E-02  0.1045668E+00
          2   -1    0    0  501    0  0.00000000000E+00  0.00000000000E+00  0.17224284555E+03  0.17224284557E+03  0.25500000000E-02 0.  1.
         -2   -1    0    0    0  501 -0.00000000000E+00 -0.00000000000E+00 -0.22599376370E+03  0.22599376372E+03  0.25500000000E-02 0. -1.
    5000001    1    1    2    0    0  0.94722535731E+02 -0.98653693152E+02  0.37683246650E+02  0.19040466650E+03  0.12700000000E+03 0.  0.
   -5000001    1    1    2    0    0 -0.94722535731E+02  0.98653693152E+02 -0.91434164802E+02  0.20783194278E+03  0.12700000000E+03 0.  0.
<mgrwt>
<rscale>  0 0.39459249E+03</rscale>
<asrwt>0</asrwt>
<pdfrwt beam="1">  1        2 0.24606121E-01 0.39459249E+03</pdfrwt>
<pdfrwt beam="2">  1       -2 0.32284823E-01 0.39459249E+03</pdfrwt>
<totfact> 0.19709422E+03</totfact>
</mgrwt>
</event>
<event>
 4    1  0.2679255E-004  0.6568142E+03  0.7818608E-02  0.9794076E-01
         -2   -1    0    0    0  501 -0.00000000000E+00  0.00000000000E+00  0.26036226482E+03  0.26036226483E+03  0.25500000000E-02 0. -1.
          2   -1    0    0  501    0  0.00000000000E+00 -0.00000000000E+00 -0.41423523067E+03  0.41423523068E+03  0.25500000000E-02 0.  1.
    5000001    1    1    2    0    0 -0.15205587913E+03 -0.15912773849E+03 -0.29060659982E+03  0.38603603898E+03  0.12700000000E+03 0.  0.
   -5000001    1    1    2    0    0  0.15205587913E+03  0.15912773849E+03  0.13673363397E+03  0.28856145653E+03  0.12700000000E+03 0.  0.
<mgrwt>
<rscale>  0 0.65681420E+03</rscale>
<asrwt>0</asrwt>
<pdfrwt beam="1">  1        2 0.59176461E-01 0.65681420E+03</pdfrwt>
<pdfrwt beam="2">  1       -2 0.37194609E-01 0.65681420E+03</pdfrwt>
<totfact> 0.57000215E+02</totfact>
</mgrwt>
</event>
<event>
 4    1  0.2679255E-004  0.4344274E+03  0.7818608E-02  0.1032470E+00
          2   -1    0    0  501    0  0.00000000000E+00  0.00000000000E+00  0.19447863193E+04  0.19447863193E+04  0.25500000000E-02 0.  1.
         -2   -1    0    0    0  501 -0.00000000000E+00 -0.00000000000E+00 -0.24260653107E+02  0.24260653241E+02  0.25500000000E-02 0. -1.
    5000001    1    1    2    0    0 -0.90674090807E+02  0.14083049492E+03  0.71209936287E+03  0.74247526668E+03  0.12700000000E+03 0.  0.
   -5000001    1    1    2    0    0  0.90674090807E+02 -0.14083049492E+03  0.12084263033E+04  0.12265717058E+04  0.12700000000E+03 0.  0.
<mgrwt>
<rscale>  0 0.43442738E+03</rscale>
<asrwt>0</asrwt>
<pdfrwt beam="1">  1        2 0.27782677E+00 0.43442738E+03</pdfrwt>
<pdfrwt beam="2">  1       -2 0.34658057E-02 0.43442738E+03</pdfrwt>
<totfact> 0.31949952E+03</totfact>
</mgrwt>
</event>
<event>
 4    1  0.2679255E-004  0.4211583E+03  0.7818608E-02  0.1036690E+00
          2   -1    0    0  501    0  0.00000000000E+00  0.00000000000E+00  0.23635056572E+02  0.23635056709E+02  0.25500000000E-02 0.  1.
         -2   -1    0    0    0  501 -0.00000000000E+00 -0.00000000000E+00 -0.18761780672E+04  0.18761780672E+04  0.25500000000E-02 0. -1.
    5000001    1    1    2    0    0  0.12460501614E+03 -0.10370319738E+03 -0.11246399680E+04  0.11433393288E+04  0.12700000000E+03 0.  0.
   -5000001    1    1    2    0    0 -0.12460501614E+03  0.10370319738E+03 -0.72790304260E+03  0.75647379507E+03  0.12700000000E+03 0.  0.
<mgrwt>
<rscale>  0 0.42115828E+03</rscale>
<asrwt>0</asrwt>
<pdfrwt beam="1">  1        2 0.33764379E-02 0.42115828E+03</pdfrwt>
<pdfrwt beam="2">  1       -2 0.26802534E+00 0.42115828E+03</pdfrwt>
<totfact> 0.14872420E+02</totfact>
</mgrwt>
</event>
<event>
 4    1  0.2679255E-004  0.4216382E+03  0.7818608E-02  0.1036534E+00
          2   -1    0    0  501    0  0.00000000000E+00  0.00000000000E+00  0.13524555358E+03  0.13524555360E+03  0.25500000000E-02 0. -1.
         -2   -1    0    0    0  501 -0.00000000000E+00 -0.00000000000E+00 -0.32862227807E+03  0.32862227808E+03  0.25500000000E-02 0.  1.
    5000001    1    1    2    0    0  0.97613539719E+02 -0.13697821177E+03 -0.91268679972E+02  0.22967456450E+03  0.12700000000E+03 0.  0.
   -5000001    1    1    2    0    0 -0.97613539719E+02  0.13697821177E+03 -0.10210804453E+03  0.23419326718E+03  0.12700000000E+03 0.  0.
<mgrwt>
<rscale>  0 0.42163824E+03</rscale>
<asrwt>0</asrwt>
<pdfrwt beam="1">  1        2 0.19320793E-01 0.42163824E+03</pdfrwt>
<pdfrwt beam="2">  1       -2 0.46946039E-01 0.42163824E+03</pdfrwt>
<totfact> 0.12696719E+03</totfact>
</mgrwt>
</event>
<event>
 4    1  0.2679255E-004  0.3274609E+03  0.7818608E-02  0.1072266E+00
          2   -1    0    0  501    0  0.00000000000E+00  0.00000000000E+00  0.16845533574E+04  0.16845533574E+04  0.25500000000E-02 0.  1.
         -2   -1    0    0    0  501 -0.00000000000E+00 -0.00000000000E+00 -0.15913809653E+02  0.15913809858E+02  0.25500000000E-02 0. -1.
    5000001    1    1    2    0    0  0.27618447273E+02 -0.80534733713E+02  0.53019040456E+03  0.55179659935E+03  0.12700000000E+03 0.  0.
   -5000001    1    1    2    0    0 -0.27618447273E+02  0.80534733713E+02  0.11384491432E+04  0.11486705679E+04  0.12700000000E+03 0.  0.
<mgrwt>
<rscale>  0 0.32746091E+03</rscale>
<asrwt>0</asrwt>
<pdfrwt beam="1">  1        2 0.24065043E+00 0.32746091E+03</pdfrwt>
<pdfrwt beam="2">  1       -2 0.22734019E-02 0.32746091E+03</pdfrwt>
<totfact> 0.80921203E+03</totfact>
</mgrwt>
</event>
<event>
 4    1  0.2679255E-004  0.4300652E+03  0.7818608E-02  0.1033839E+00
          2   -1    0    0  501    0  0.00000000000E+00  0.00000000000E+00  0.79380797534E+03  0.79380797534E+03  0.25500000000E-02 0.  1.
         -2   -1    0    0    0  501 -0.00000000000E+00 -0.00000000000E+00 -0.58249617596E+02  0.58249617652E+02  0.25500000000E-02 0. -1.
    5000001    1    1    2    0    0  0.59411976236E+02 -0.12083941032E+03  0.15094485998E+03  0.23884157252E+03  0.12700000000E+03 0.  0.
   -5000001    1    1    2    0    0 -0.59411976236E+02  0.12083941032E+03  0.58461349776E+03  0.61321602048E+03  0.12700000000E+03 0.  0.
<mgrwt>
<rscale>  0 0.43006516E+03</rscale>
<asrwt>0</asrwt>
<pdfrwt beam="1">  1        2 0.11340114E+00 0.43006516E+03</pdfrwt>
<pdfrwt beam="2">  1       -2 0.83213742E-02 0.43006516E+03</pdfrwt>
<totfact> 0.35199655E+03</totfact>
</mgrwt>
</event>
<event>
 4    1  0.2679255E-004  0.6290266E+03  0.7818608E-02  0.9846950E-01
         -2   -1    0    0    0  501 -0.00000000000E+00  0.00000000000E+00  0.10066263956E+04  0.10066263956E+04  0.25500000000E-02 0. -1.
          2   -1    0    0  501    0  0.00000000000E+00 -0.00000000000E+00 -0.98267453540E+02  0.98267453573E+02  0.25500000000E-02 0.  1.
    5000001    1    1    2    0    0 -0.21897484510E+03  0.15714728731E+03  0.63109415302E+03  0.69789260110E+03  0.12700000000E+03 0.  0.
   -5000001    1    1    2    0    0  0.21897484510E+03 -0.15714728731E+03  0.27726478905E+03  0.40700124809E+03  0.12700000000E+03 0.  0.
<mgrwt>
<rscale>  0 0.62902659E+03</rscale>
<asrwt>0</asrwt>
<pdfrwt beam="1">  1        2 0.14038208E-01 0.62902659E+03</pdfrwt>
<pdfrwt beam="2">  1       -2 0.14380377E+00 0.62902659E+03</pdfrwt>
<totfact> 0.14778776E+02</totfact>
</mgrwt>
</event>
<event>
 4    1  0.2679255E-004  0.4975551E+03  0.7818608E-02  0.1014419E+00
         -2   -1    0    0    0  501 -0.00000000000E+00  0.00000000000E+00  0.16391223812E+02  0.16391224010E+02  0.25500000000E-02 0. -1.
          2   -1    0    0  501    0  0.00000000000E+00 -0.00000000000E+00 -0.37758168675E+04  0.37758168675E+04  0.25500000000E-02 0.  1.
    5000001    1    1    2    0    0  0.17341018979E+03 -0.24322549049E+02 -0.94318850994E+03  0.96767569237E+03  0.12700000000E+03 0.  0.
   -5000001    1    1    2    0    0 -0.17341018979E+03  0.24322549049E+02 -0.28162371337E+04  0.28245323991E+04  0.12700000000E+03 0.  0.
<mgrwt>
<rscale>  0 0.49755506E+03</rscale>
<asrwt>0</asrwt>
<pdfrwt beam="1">  1        2 0.53940185E+00 0.49755506E+03</pdfrwt>
<pdfrwt beam="2">  1       -2 0.23416058E-02 0.49755506E+03</pdfrwt>
<totfact> 0.58972650E+02</totfact>
</mgrwt>
</event>
<event>
 4    1  0.2679255E-004  0.4591135E+03  0.7818608E-02  0.1025039E+00
         -2   -1    0    0    0  501 -0.00000000000E+00  0.00000000000E+00  0.48433754983E+03  0.48433754983E+03  0.25500000000E-02 0. -1.
          2   -1    0    0  501    0  0.00000000000E+00 -0.00000000000E+00 -0.10880077352E+03  0.10880077355E+03  0.25500000000E-02 0.  1.
    5000001    1    1    2    0    0 -0.11221524797E+03  0.10082140181E+03  0.35946609741E+02  0.20044544318E+03  0.12700000000E+03 0.  0.
   -5000001    1    1    2    0    0  0.11221524797E+03 -0.10082140181E+03  0.33959016656E+03  0.39269288021E+03  0.12700000000E+03 0.  0.
<mgrwt>
<rscale>  0 0.45911349E+03</rscale>
<asrwt>0</asrwt>
<pdfrwt beam="1">  1        2 0.15542968E-01 0.45911349E+03</pdfrwt>
<pdfrwt beam="2">  1       -2 0.69191078E-01 0.45911349E+03</pdfrwt>
<totfact> 0.73595173E+02</totfact>
</mgrwt>
</event>
<event>
 4    1  0.2679255E-004  0.5005984E+03  0.7818608E-02  0.1013623E+00
          2   -1    0    0  501    0  0.00000000000E+00  0.00000000000E+00  0.11728784996E+04  0.11728784996E+04  0.25500000000E-02 0.  1.
         -2   -1    0    0    0  501 -0.00000000000E+00 -0.00000000000E+00 -0.53415332407E+02  0.53415332468E+02  0.25500000000E-02 0. -1.
    5000001    1    1    2    0    0 -0.14080339097E+03 -0.46768567373E+02  0.17623875947E+03  0.26306271903E+03  0.12700000000E+03 0.  0.
   -5000001    1    1    2    0    0  0.14080339097E+03  0.46768567373E+02  0.94322440768E+03  0.96323111299E+03  0.12700000000E+03 0.  0.
<mgrwt>
<rscale>  0 0.50059842E+03</rscale>
<asrwt>0</asrwt>
<pdfrwt beam="1">  1        2 0.16755408E+00 0.50059842E+03</pdfrwt>
<pdfrwt beam="2">  1       -2 0.76307612E-02 0.50059842E+03</pdfrwt>
<totfact> 0.23635159E+03</totfact>
</mgrwt>
</event>
<event>
 4    1  0.2679255E-004  0.5943726E+03  0.7818608E-02  0.9917150E-01
         -2   -1    0    0    0  501 -0.00000000000E+00  0.00000000000E+00  0.93519085838E+02  0.93519085873E+02  0.25500000000E-02 0. -1.
          2   -1    0    0  501    0  0.00000000000E+00 -0.00000000000E+00 -0.94440292665E+03  0.94440292666E+03  0.25500000000E-02 0.  1.
    5000001    1    1    2    0    0 -0.23181803625E+03  0.10747176645E+03 -0.28037803525E+03  0.40003827962E+03  0.12700000000E+03 0.  0.
   -5000001    1    1    2    0    0  0.23181803625E+03 -0.10747176645E+03 -0.57050580557E+03  0.63788373290E+03  0.12700000000E+03 0.  0.
<mgrwt>
<rscale>  0 0.59437260E+03</rscale>
<asrwt>0</asrwt>
<pdfrwt beam="1">  1        2 0.13491470E+00 0.59437260E+03</pdfrwt>
<pdfrwt beam="2">  1       -2 0.13359870E-01 0.59437260E+03</pdfrwt>
<totfact> 0.13007603E+03</totfact>
</mgrwt>
</event>
<event>
 4    1  0.2679255E-004  0.7362757E+03  0.7818608E-02  0.9657131E-01
         -2   -1    0    0    0  501 -0.00000000000E+00  0.00000000000E+00  0.28200318340E+03  0.28200318341E+03  0.25500000000E-02 0. -1.
          2   -1    0    0  501    0  0.00000000000E+00 -0.00000000000E+00 -0.48058139913E+03  0.48058139914E+03  0.25500000000E-02 0.  1.
    5000001    1    1    2    0    0  0.70247171729E+02  0.27633329715E+03 -0.30146058219E+03  0.43393805879E+03  0.12700000000E+03 0.  0.
   -5000001    1    1    2    0    0 -0.70247171729E+02 -0.27633329715E+03  0.10288236646E+03  0.32864652376E+03  0.12700000000E+03 0.  0.
<mgrwt>
<rscale>  0 0.73627572E+03</rscale>
<asrwt>0</asrwt>
<pdfrwt beam="1">  1        2 0.68654485E-01 0.73627572E+03</pdfrwt>
<pdfrwt beam="2">  1       -2 0.40286169E-01 0.73627572E+03</pdfrwt>
<totfact> 0.41233082E+02</totfact>
</mgrwt>
</event>
<event>
 4    1  0.2679255E-004  0.5193474E+03  0.7818608E-02  0.1008849E+00
          2   -1    0    0  501    0  0.00000000000E+00  0.00000000000E+00  0.15546087645E+04  0.15546087645E+04  0.25500000000E-02 0.  1.
         -2   -1    0    0    0  501 -0.00000000000E+00 -0.00000000000E+00 -0.43374540095E+02  0.43374540170E+02  0.25500000000E-02 0. -1.
    5000001    1    1    2    0    0  0.93908913517E+02  0.19833850719E+03  0.58307995449E+03  0.63582095027E+03  0.12700000000E+03 0.  0.
   -5000001    1    1    2    0    0 -0.93908913517E+02 -0.19833850719E+03  0.92815426987E+03  0.96216235436E+03  0.12700000000E+03 0.  0.
<mgrwt>
<rscale>  0 0.51934744E+03</rscale>
<asrwt>0</asrwt>
<pdfrwt beam="1">  1        2 0.22208698E+00 0.51934744E+03</pdfrwt>
<pdfrwt beam="2">  1       -2 0.61963624E-02 0.51934744E+03</pdfrwt>
<totfact> 0.20501609E+03</totfact>
</mgrwt>
</event>
<event>
 4    1  0.2679255E-004  0.3670832E+03  0.7818608E-02  0.1055814E+00
          2   -1    0    0  501    0  0.00000000000E+00  0.00000000000E+00  0.91403366180E+03  0.91403366180E+03  0.25500000000E-02 0.  1.
         -2   -1    0    0    0  501 -0.00000000000E+00 -0.00000000000E+00 -0.36855882190E+02  0.36855882278E+02  0.25500000000E-02 0. -1.
    5000001    1    1    2    0    0  0.56136907414E+01  0.10268235849E+03  0.65505856595E+03  0.67513399048E+03  0.12700000000E+03 0.  0.
   -5000001    1    1    2    0    0 -0.56136907414E+01 -0.10268235849E+03  0.22211921366E+03  0.27575555360E+03  0.12700000000E+03 0.  0.
<mgrwt>
<rscale>  0 0.36708319E+03</rscale>
<asrwt>0</asrwt>
<pdfrwt beam="1">  1        2 0.13057624E+00 0.36708319E+03</pdfrwt>
<pdfrwt beam="2">  1       -2 0.52651258E-02 0.36708319E+03</pdfrwt>
<totfact> 0.59783698E+03</totfact>
</mgrwt>
</event>
<event>
 4    1  0.2679255E-004  0.4942477E+03  0.7818608E-02  0.1015291E+00
          2   -1    0    0  501    0  0.00000000000E+00  0.00000000000E+00  0.13202153203E+04  0.13202153203E+04  0.25500000000E-02 0.  1.
         -2   -1    0    0    0  501 -0.00000000000E+00 -0.00000000000E+00 -0.46257753612E+02  0.46257753682E+02  0.25500000000E-02 0. -1.
    5000001    1    1    2    0    0 -0.64794648198E+02 -0.17444525726E+03  0.35622760899E+03  0.42149330199E+03  0.12700000000E+03 0.  0.
   -5000001    1    1    2    0    0  0.64794648198E+02  0.17444525726E+03  0.91772995765E+03  0.94497977195E+03  0.12700000000E+03 0.  0.
<mgrwt>
<rscale>  0 0.49424769E+03</rscale>
<asrwt>0</asrwt>
<pdfrwt beam="1">  1        2 0.18860221E+00 0.49424769E+03</pdfrwt>
<pdfrwt beam="2">  1       -2 0.66082499E-02 0.49424769E+03</pdfrwt>
<totfact> 0.24612039E+03</totfact>
</mgrwt>
</event>
<event>
 4    1  0.2679255E-004  0.4344948E+03  0.7818608E-02  0.1032449E+00
         -2   -1    0    0    0  501 -0.00000000000E+00  0.00000000000E+00  0.30309093168E+02  0.30309093275E+02  0.25500000000E-02 0. -1.
          2   -1    0    0  501    0  0.00000000000E+00 -0.00000000000E+00 -0.15571708478E+04  0.15571708478E+04  0.25500000000E-02 0.  1.
    5000001    1    1    2    0    0  0.77869833052E+02  0.15594615176E+03 -0.66783971424E+03  0.70179897198E+03  0.12700000000E+03 0.  0.
   -5000001    1    1    2    0    0 -0.77869833052E+02 -0.15594615176E+03 -0.85902204040E+03  0.88568096911E+03  0.12700000000E+03 0.  0.
<mgrwt>
<rscale>  0 0.43449482E+03</rscale>
<asrwt>0</asrwt>
<pdfrwt beam="1">  1        2 0.22245293E+00 0.43449482E+03</pdfrwt>
<pdfrwt beam="2">  1       -2 0.43298714E-02 0.43449482E+03</pdfrwt>
<totfact> 0.35621614E+03</totfact>
</mgrwt>
</event>
<event>
 4    1  0.2679255E-004  0.3323986E+03  0.7818608E-02  0.1070080E+00
          2   -1    0    0  501    0  0.00000000000E+00  0.00000000000E+00  0.19735579437E+04  0.19735579437E+04  0.25500000000E-02 0.  1.
         -2   -1    0    0    0  501 -0.00000000000E+00 -0.00000000000E+00 -0.13996147664E+02  0.13996147896E+02  0.25500000000E-02 0. -1.
    5000001    1    1    2    0    0 -0.88972231881E+02  0.35979179835E+02  0.12654605765E+04  0.12754332715E+04  0.12700000000E+03 0.  0.
   -5000001    1    1    2    0    0  0.88972231881E+02 -0.35979179835E+02  0.69410121962E+03  0.71212082016E+03  0.12700000000E+03 0.  0.
<mgrwt>
<rscale>  0 0.33239861E+03</rscale>
<asrwt>0</asrwt>
<pdfrwt beam="1">  1        2 0.28193671E+00 0.33239861E+03</pdfrwt>
<pdfrwt beam="2">  1       -2 0.19994507E-02 0.33239861E+03</pdfrwt>
<totfact> 0.70499807E+03</totfact>
</mgrwt>
</event>
<event>
 4    1  0.2679255E-004  0.7540894E+03  0.7818608E-02  0.9628957E-01
         -2   -1    0    0    0  501 -0.00000000000E+00  0.00000000000E+00  0.95485516897E+02  0.95485516931E+02  0.25500000000E-02 0. -1.
          2   -1    0    0  501    0  0.00000000000E+00 -0.00000000000E+00 -0.14888403500E+04  0.14888403500E+04  0.25500000000E-02 0.  1.
    5000001    1    1    2    0    0 -0.11050630742E+03 -0.28066404234E+03 -0.30334104093E+03  0.44623842927E+03  0.12700000000E+03 0.  0.
   -5000001    1    1    2    0    0  0.11050630742E+03  0.28066404234E+03 -0.10900137922E+04  0.11380874377E+04  0.12700000000E+03 0.  0.
<mgrwt>
<rscale>  0 0.75408936E+03</rscale>
<asrwt>0</asrwt>
<pdfrwt beam="1">  1        2 0.21269146E+00 0.75408936E+03</pdfrwt>
<pdfrwt beam="2">  1       -2 0.13640789E-01 0.75408936E+03</pdfrwt>
<totfact> 0.61496793E+02</totfact>
</mgrwt>
</event>
<event>
 4    1  0.2679255E-004  0.3035331E+03  0.7818608E-02  0.1083488E+00
         -2   -1    0    0    0  501 -0.00000000000E+00  0.00000000000E+00  0.67886920048E+03  0.67886920049E+03  0.25500000000E-02 0. -1.
          2   -1    0    0  501    0  0.00000000000E+00 -0.00000000000E+00 -0.33928607011E+02  0.33928607107E+02  0.25500000000E-02 0.  1.
    5000001    1    1    2    0    0 -0.64874294151E+02  0.50377809906E+02  0.29299997864E+03  0.32973411297E+03  0.12700000000E+03 0.  0.
   -5000001    1    1    2    0    0  0.64874294151E+02 -0.50377809906E+02  0.35194061483E+03  0.38306369463E+03  0.12700000000E+03 0.  0.
<mgrwt>
<rscale>  0 0.30353310E+03</rscale>
<asrwt>0</asrwt>
<pdfrwt beam="1">  1        2 0.48469440E-02 0.30353310E+03</pdfrwt>
<pdfrwt beam="2">  1       -2 0.96981311E-01 0.30353310E+03</pdfrwt>
<totfact> 0.15133904E+03</totfact>
</mgrwt>
</event>
<event>
 4    1  0.2679255E-004  0.4048331E+03  0.7818608E-02  0.1042119E+00
         -2   -1    0    0    0  501 -0.00000000000E+00  0.00000000000E+00  0.20880940415E+02  0.20880940571E+02  0.25500000000E-02 0. -1.
          2   -1    0    0  501    0  0.00000000000E+00 -0.00000000000E+00 -0.19621945942E+04  0.19621945942E+04  0.25500000000E-02 0.  1.
    5000001    1    1    2    0    0  0.26448867388E+01 -0.14937267725E+03 -0.12167681818E+04  0.12324662269E+04  0.12700000000E+03 0.  0.
   -5000001    1    1    2    0    0 -0.26448867388E+01  0.14937267725E+03 -0.72454547202E+03  0.75060930794E+03  0.12700000000E+03 0.  0.
<mgrwt>
<rscale>  0 0.40483314E+03</rscale>
<asrwt>0</asrwt>
<pdfrwt beam="1">  1        2 0.28031340E+00 0.40483314E+03</pdfrwt>
<pdfrwt beam="2">  1       -2 0.29829928E-02 0.40483314E+03</pdfrwt>
<totfact> 0.39310834E+03</totfact>
</mgrwt>
</event>
<event>
 4    1  0.2679255E-004  0.9237702E+03  0.7818608E-02  0.9396346E-01
         -2   -1    0    0    0  501 -0.00000000000E+00  0.00000000000E+00  0.24903410057E+03  0.24903410058E+03  0.25500000000E-02 0. -1.
          2   -1    0    0  501    0  0.00000000000E+00 -0.00000000000E+00 -0.85666118097E+03  0.85666118097E+03  0.25500000000E-02 0.  1.
    5000001    1    1    2    0    0 -0.38090213535E+03  0.21836599651E+03 -0.22406927148E+03  0.50902473768E+03  0.12700000000E+03 0.  0.
   -5000001    1    1    2    0    0  0.38090213535E+03 -0.21836599651E+03 -0.38355780892E+03  0.59667054388E+03  0.12700000000E+03 0.  0.
<mgrwt>
<rscale>  0 0.92377020E+03</rscale>
<asrwt>0</asrwt>
<pdfrwt beam="1">  1        2 0.12238017E+00 0.92377020E+03</pdfrwt>
<pdfrwt beam="2">  1       -2 0.35576301E-01 0.92377020E+03</pdfrwt>
<totfact> 0.25787243E+02</totfact>
</mgrwt>
</event>
<event>
 4    1  0.2679255E-004  0.4103746E+03  0.7818608E-02  0.1040245E+00
         -2   -1    0    0    0  501 -0.00000000000E+00  0.00000000000E+00  0.24519427637E+02  0.24519427770E+02  0.25500000000E-02 0. -1.
          2   -1    0    0  501    0  0.00000000000E+00 -0.00000000000E+00 -0.17170804430E+04  0.17170804430E+04  0.25500000000E-02 0.  1.
    5000001    1    1    2    0    0 -0.35078972998E+02  0.14295629102E+03 -0.11247608484E+04  0.11414390048E+04  0.12700000000E+03 0.  0.
   -5000001    1    1    2    0    0  0.35078972998E+02 -0.14295629102E+03 -0.56780016689E+03  0.60016086594E+03  0.12700000000E+03 0.  0.
<mgrwt>
<rscale>  0 0.41037461E+03</rscale>
<asrwt>0</asrwt>
<pdfrwt beam="1">  1        2 0.24529713E+00 0.41037461E+03</pdfrwt>
<pdfrwt beam="2">  1       -2 0.35027765E-02 0.41037461E+03</pdfrwt>
<totfact> 0.40836499E+03</totfact>
</mgrwt>
</event>
<event>
 4    1  0.2679255E-004  0.3414272E+03  0.7818608E-02  0.1066190E+00
          2   -1    0    0  501    0  0.00000000000E+00  0.00000000000E+00  0.14189633848E+02  0.14189634077E+02  0.25500000000E-02 0.  1.
         -2   -1    0    0    0  501 -0.00000000000E+00 -0.00000000000E+00 -0.20538325609E+04  0.20538325609E+04  0.25500000000E-02 0. -1.
    5000001    1    1    2    0    0  0.48784814234E+02  0.97923009501E+02 -0.12156468146E+04  0.12271491563E+04  0.12700000000E+03 0.  0.
   -5000001    1    1    2    0    0 -0.48784814234E+02 -0.97923009501E+02 -0.82399611244E+03  0.84087303869E+03  0.12700000000E+03 0.  0.
<mgrwt>
<rscale>  0 0.34142719E+03</rscale>
<asrwt>0</asrwt>
<pdfrwt beam="1">  1        2 0.20270919E-02 0.34142719E+03</pdfrwt>
<pdfrwt beam="2">  1       -2 0.29340446E+00 0.34142719E+03</pdfrwt>
<totfact> 0.21448510E+02</totfact>
</mgrwt>
</event>
<event>
 4    1  0.2679255E-004  0.3533736E+03  0.7818608E-02  0.1061239E+00
         -2   -1    0    0    0  501 -0.00000000000E+00  0.00000000000E+00  0.25860086234E+02  0.25860086360E+02  0.25500000000E-02 0. -1.
          2   -1    0    0  501    0  0.00000000000E+00 -0.00000000000E+00 -0.12071970260E+04  0.12071970260E+04  0.25500000000E-02 0.  1.
    5000001    1    1    2    0    0  0.90235780000E+01  0.11767964398E+03 -0.70947662358E+03  0.73035334118E+03  0.12700000000E+03 0.  0.
   -5000001    1    1    2    0    0 -0.90235780000E+01 -0.11767964398E+03 -0.47186031616E+03  0.50270377116E+03  0.12700000000E+03 0.  0.
<mgrwt>
<rscale>  0 0.35337357E+03</rscale>
<asrwt>0</asrwt>
<pdfrwt beam="1">  1        2 0.17245668E+00 0.35337357E+03</pdfrwt>
<pdfrwt beam="2">  1       -2 0.36942988E-02 0.35337357E+03</pdfrwt>
<totfact> 0.69159551E+03</totfact>
</mgrwt>
</event>
<event>
 4    1  0.2679255E-004  0.3540912E+03  0.7818608E-02  0.1060948E+00
          2   -1    0    0  501    0  0.00000000000E+00  0.00000000000E+00  0.31295618987E+03  0.31295618988E+03  0.25500000000E-02 0.  1.
         -2   -1    0    0    0  501 -0.00000000000E+00 -0.00000000000E+00 -0.10015822469E+03  0.10015822472E+03  0.25500000000E-02 0. -1.
    5000001    1    1    2    0    0  0.19459354828E+02 -0.11616584471E+03  0.14915407496E+03  0.22858063794E+03  0.12700000000E+03 0.  0.
   -5000001    1    1    2    0    0 -0.19459354828E+02  0.11616584471E+03  0.63643890224E+02  0.18453377666E+03  0.12700000000E+03 0.  0.
<mgrwt>
<rscale>  0 0.35409115E+03</rscale>
<asrwt>0</asrwt>
<pdfrwt beam="1">  1        2 0.44708027E-01 0.35409115E+03</pdfrwt>
<pdfrwt beam="2">  1       -2 0.14308318E-01 0.35409115E+03</pdfrwt>
<totfact> 0.42081754E+03</totfact>
</mgrwt>
</event>
<event>
 4    1  0.2679255E-004  0.4462559E+03  0.7818608E-02  0.1028844E+00
          2   -1    0    0  501    0  0.00000000000E+00  0.00000000000E+00  0.23474587680E+04  0.23474587680E+04  0.25500000000E-02 0.  1.
         -2   -1    0    0    0  501 -0.00000000000E+00 -0.00000000000E+00 -0.21208497305E+02  0.21208497459E+02  0.25500000000E-02 0. -1.
    5000001    1    1    2    0    0  0.20167559467E+02 -0.15656813034E+03  0.16592550451E+04  0.16715790782E+04  0.12700000000E+03 0.  0.
   -5000001    1    1    2    0    0 -0.20167559467E+02  0.15656813034E+03  0.66699522562E+03  0.69708818731E+03  0.12700000000E+03 0.  0.
<mgrwt>
<rscale>  0 0.44625586E+03</rscale>
<asrwt>0</asrwt>
<pdfrwt beam="1">  1        2 0.33535099E+00 0.44625586E+03</pdfrwt>
<pdfrwt beam="2">  1       -2 0.30297877E-02 0.44625586E+03</pdfrwt>
<totfact> 0.24663024E+03</totfact>
</mgrwt>
</event>
<event>
 4    1  0.2679255E-004  0.5645960E+03  0.7818608E-02  0.9981709E-01
          2   -1    0    0  501    0  0.00000000000E+00  0.00000000000E+00  0.36318267230E+04  0.36318267230E+04  0.25500000000E-02 0.  1.
         -2   -1    0    0    0  501 -0.00000000000E+00 -0.00000000000E+00 -0.21942719596E+02  0.21942719744E+02  0.25500000000E-02 0. -1.
    5000001    1    1    2    0    0 -0.20878312313E+03  0.55430784437E+02  0.96364533778E+03  0.99569287504E+03  0.12700000000E+03 0.  0.
   -5000001    1    1    2    0    0  0.20878312313E+03 -0.55430784437E+02  0.26462386657E+04  0.26580765677E+04  0.12700000000E+03 0.  0.
<mgrwt>
<rscale>  0 0.56459598E+03</rscale>
<asrwt>0</asrwt>
<pdfrwt beam="1">  1        2 0.51883214E+00 0.56459598E+03</pdfrwt>
<pdfrwt beam="2">  1       -2 0.31346757E-02 0.56459598E+03</pdfrwt>
<totfact> 0.46179496E+02</totfact>
</mgrwt>
</event>
<event>
 4    1  0.2679255E-004  0.2922798E+03  0.7818608E-02  0.1089165E+00
          2   -1    0    0  501    0  0.00000000000E+00  0.00000000000E+00  0.30801100548E+02  0.30801100654E+02  0.25500000000E-02 0.  1.
         -2   -1    0    0    0  501 -0.00000000000E+00 -0.00000000000E+00 -0.69338017532E+03  0.69338017533E+03  0.25500000000E-02 0. -1.
    5000001    1    1    2    0    0 -0.71162028002E+02  0.10595784040E+02 -0.34908204747E+03  0.37836963506E+03  0.12700000000E+03 0.  0.
   -5000001    1    1    2    0    0  0.71162028002E+02 -0.10595784040E+02 -0.31349702730E+03  0.34581164092E+03  0.12700000000E+03 0.  0.
<mgrwt>
<rscale>  0 0.29227981E+03</rscale>
<asrwt>0</asrwt>
<pdfrwt beam="1">  1        2 0.44001577E-02 0.29227981E+03</pdfrwt>
<pdfrwt beam="2">  1       -2 0.99054301E-01 0.29227981E+03</pdfrwt>
<totfact> 0.16378189E+03</totfact>
</mgrwt>
</event>
<event>
 4    1  0.2679255E-004  0.3134759E+03  0.7818608E-02  0.1078692E+00
          2   -1    0    0  501    0  0.00000000000E+00  0.00000000000E+00  0.12966131294E+04  0.12966131294E+04  0.25500000000E-02 0.  1.
         -2   -1    0    0    0  501 -0.00000000000E+00 -0.00000000000E+00 -0.18946884429E+02  0.18946884600E+02  0.25500000000E-02 0. -1.
    5000001    1    1    2    0    0  0.65844879582E+02 -0.22710136240E+02  0.89016108525E+03  0.90186864683E+03  0.12700000000E+03 0.  0.
   -5000001    1    1    2    0    0 -0.65844879582E+02  0.22710136240E+02  0.38750515970E+03  0.41369136715E+03  0.12700000000E+03 0.  0.
<mgrwt>
<rscale>  0 0.31347586E+03</rscale>
<asrwt>0</asrwt>
<pdfrwt beam="1">  1        2 0.18523046E+00 0.31347586E+03</pdfrwt>
<pdfrwt beam="2">  1       -2 0.27066976E-02 0.31347586E+03</pdfrwt>
<totfact> 0.98449217E+03</totfact>
</mgrwt>
</event>
<event>
 4    1  0.2679255E-004  0.3709064E+03  0.7818608E-02  0.1054347E+00
          2   -1    0    0  501    0  0.00000000000E+00  0.00000000000E+00  0.33470153628E+03  0.33470153629E+03  0.25500000000E-02 0.  1.
         -2   -1    0    0    0  501 -0.00000000000E+00 -0.00000000000E+00 -0.10275688082E+03  0.10275688086E+03  0.25500000000E-02 0. -1.
    5000001    1    1    2    0    0  0.22722196055E+02  0.12823481746E+03  0.73391456541E+02  0.19615242159E+03  0.12700000000E+03 0.  0.
   -5000001    1    1    2    0    0 -0.22722196055E+02 -0.12823481746E+03  0.15855319891E+03  0.24130599555E+03  0.12700000000E+03 0.  0.
<mgrwt>
<rscale>  0 0.37090638E+03</rscale>
<asrwt>0</asrwt>
<pdfrwt beam="1">  1        2 0.47814505E-01 0.37090638E+03</pdfrwt>
<pdfrwt beam="2">  1       -2 0.14679555E-01 0.37090638E+03</pdfrwt>
<totfact> 0.37534724E+03</totfact>
</mgrwt>
</event>
<event>
 4    1  0.2679255E-004  0.4362159E+03  0.7818608E-02  0.1031914E+00
         -2   -1    0    0    0  501 -0.00000000000E+00  0.00000000000E+00  0.82002937929E+02  0.82002937969E+02  0.25500000000E-02 0. -1.
          2   -1    0    0  501    0  0.00000000000E+00 -0.00000000000E+00 -0.58011418133E+03  0.58011418133E+03  0.25500000000E-02 0.  1.
    5000001    1    1    2    0    0 -0.36888425347E+01  0.17302356575E+03 -0.19043955639E+03  0.28696164640E+03  0.12700000000E+03 0.  0.
   -5000001    1    1    2    0    0  0.36888425347E+01 -0.17302356575E+03 -0.30767168700E+03  0.37515547290E+03  0.12700000000E+03 0.  0.
<mgrwt>
<rscale>  0 0.43621585E+03</rscale>
<asrwt>0</asrwt>
<pdfrwt beam="1">  1        2 0.82873452E-01 0.43621585E+03</pdfrwt>
<pdfrwt beam="2">  1       -2 0.11714706E-01 0.43621585E+03</pdfrwt>
<totfact> 0.29614747E+03</totfact>
</mgrwt>
</event>
<event>
 4    1  0.2679255E-004  0.5451562E+03  0.7818608E-02  0.1002621E+00
         -2   -1    0    0    0  501 -0.00000000000E+00  0.00000000000E+00  0.13812740283E+03  0.13812740285E+03  0.25500000000E-02 0. -1.
          2   -1    0    0  501    0  0.00000000000E+00 -0.00000000000E+00 -0.53790069309E+03  0.53790069310E+03  0.25500000000E-02 0.  1.
    5000001    1    1    2    0    0 -0.53336629333E+02  0.23399587617E+03 -0.17025563367E+03  0.32049157070E+03  0.12700000000E+03 0.  0.
   -5000001    1    1    2    0    0  0.53336629333E+02 -0.23399587617E+03 -0.22951765659E+03  0.35553652525E+03  0.12700000000E+03 0.  0.
<mgrwt>
<rscale>  0 0.54515622E+03</rscale>
<asrwt>0</asrwt>
<pdfrwt beam="1">  1        2 0.76842955E-01 0.54515622E+03</pdfrwt>
<pdfrwt beam="2">  1       -2 0.19732486E-01 0.54515622E+03</pdfrwt>
<totfact> 0.13473230E+03</totfact>
</mgrwt>
</event>
<event>
 4    1  0.2679255E-004  0.4590372E+03  0.7818608E-02  0.1025061E+00
          2   -1    0    0  501    0  0.00000000000E+00  0.00000000000E+00  0.24192081929E+04  0.24192081929E+04  0.25500000000E-02 0. -1.
         -2   -1    0    0    0  501 -0.00000000000E+00 -0.00000000000E+00 -0.21775221880E+02  0.21775222029E+02  0.25500000000E-02 0.  1.
    5000001    1    1    2    0    0 -0.72235502480E+02  0.14484210190E+02  0.26061265307E+03  0.29912491556E+03  0.12700000000E+03 0.  0.
   -5000001    1    1    2    0    0  0.72235502480E+02 -0.14484210190E+02  0.21368203180E+04  0.21418584994E+04  0.12700000000E+03 0.  0.
<mgrwt>
<rscale>  0 0.45903723E+03</rscale>
<asrwt>0</asrwt>
<pdfrwt beam="1">  1        2 0.34560104E+00 0.45903723E+03</pdfrwt>
<pdfrwt beam="2">  1       -2 0.31107471E-02 0.45903723E+03</pdfrwt>
<totfact> 0.21792352E+03</totfact>
</mgrwt>
</event>
<event>
 4    1  0.2679255E-004  0.4013161E+03  0.7818608E-02  0.1043325E+00
          2   -1    0    0  501    0  0.00000000000E+00  0.00000000000E+00  0.13348963807E+04  0.13348963807E+04  0.25500000000E-02 0.  1.
         -2   -1    0    0    0  501 -0.00000000000E+00 -0.00000000000E+00 -0.30162379323E+02  0.30162379431E+02  0.25500000000E-02 0. -1.
    5000001    1    1    2    0    0  0.23286484352E+02 -0.13797682323E+03  0.42280563041E+03  0.46311279965E+03  0.12700000000E+03 0.  0.
   -5000001    1    1    2    0    0 -0.23286484352E+02  0.13797682323E+03  0.88192837101E+03  0.90194596052E+03  0.12700000000E+03 0.  0.
<mgrwt>
<rscale>  0 0.40131609E+03</rscale>
<asrwt>0</asrwt>
<pdfrwt beam="1">  1        2 0.19069948E+00 0.40131609E+03</pdfrwt>
<pdfrwt beam="2">  1       -2 0.43089114E-02 0.40131609E+03</pdfrwt>
<totfact> 0.46807536E+03</totfact>
</mgrwt>
</event>
<event>
 4    1  0.2679255E-004  0.7243972E+03  0.7818608E-02  0.9676396E-01
          2   -1    0    0  501    0  0.00000000000E+00  0.00000000000E+00  0.50555487291E+03  0.50555487292E+03  0.25500000000E-02 0.  1.
         -2   -1    0    0    0  501 -0.00000000000E+00 -0.00000000000E+00 -0.25949271800E+03  0.25949271802E+03  0.25500000000E-02 0. -1.
    5000001    1    1    2    0    0 -0.30336463279E+03  0.45047965655E+02  0.27607463129E+03  0.43174717333E+03  0.12700000000E+03 0.  0.
   -5000001    1    1    2    0    0  0.30336463279E+03 -0.45047965655E+02 -0.30012476385E+02  0.33330041760E+03  0.12700000000E+03 0.  0.
<mgrwt>
<rscale>  0 0.72439715E+03</rscale>
<asrwt>0</asrwt>
<pdfrwt beam="1">  1        2 0.72222124E-01 0.72439715E+03</pdfrwt>
<pdfrwt beam="2">  1       -2 0.37070389E-01 0.72439715E+03</pdfrwt>
<totfact> 0.45728276E+02</totfact>
</mgrwt>
</event>
<event>
 4    1  0.2679255E-004  0.5421037E+03  0.7818608E-02  0.1003338E+00
          2   -1    0    0  501    0  0.00000000000E+00  0.00000000000E+00  0.21273123965E+04  0.21273123965E+04  0.25500000000E-02 0.  1.
         -2   -1    0    0    0  501 -0.00000000000E+00 -0.00000000000E+00 -0.34536109314E+02  0.34536109408E+02  0.25500000000E-02 0. -1.
    5000001    1    1    2    0    0  0.10583753194E+03 -0.14193172982E+03  0.16893402096E+04  0.17033336558E+04  0.12700000000E+03 0.  0.
   -5000001    1    1    2    0    0 -0.10583753194E+03  0.14193172982E+03  0.40343607750E+03  0.45851485005E+03  0.12700000000E+03 0.  0.
<mgrwt>
<rscale>  0 0.54210366E+03</rscale>
<asrwt>0</asrwt>
<pdfrwt beam="1">  1        2 0.30390170E+00 0.54210366E+03</pdfrwt>
<pdfrwt beam="2">  1       -2 0.49337311E-02 0.54210366E+03</pdfrwt>
<totfact> 0.15023939E+03</totfact>
</mgrwt>
</event>
<event>
 4    1  0.2679255E-004  0.6172404E+03  0.7818608E-02  0.9870269E-01
         -2   -1    0    0    0  501 -0.00000000000E+00  0.00000000000E+00  0.56908602366E+03  0.56908602367E+03  0.25500000000E-02 0. -1.
          2   -1    0    0  501    0  0.00000000000E+00 -0.00000000000E+00 -0.16736738519E+03  0.16736738520E+03  0.25500000000E-02 0.  1.
    5000001    1    1    2    0    0  0.88777014182E+02 -0.19895866488E+03 -0.11410508592E+02  0.25243832570E+03  0.12700000000E+03 0.  0.
   -5000001    1    1    2    0    0 -0.88777014182E+02  0.19895866488E+03  0.41312914707E+03  0.48401508317E+03  0.12700000000E+03 0.  0.
<mgrwt>
<rscale>  0 0.61724044E+03</rscale>
<asrwt>0</asrwt>
<pdfrwt beam="1">  1        2 0.23909626E-01 0.61724044E+03</pdfrwt>
<pdfrwt beam="2">  1       -2 0.81298005E-01 0.61724044E+03</pdfrwt>
<totfact> 0.31073166E+02</totfact>
</mgrwt>
</event>
<event>
 4    1  0.2679255E-004  0.4564900E+03  0.7818608E-02  0.1025804E+00
         -2   -1    0    0    0  501 -0.00000000000E+00  0.00000000000E+00  0.32368607556E+03  0.32368607557E+03  0.25500000000E-02 0. -1.
          2   -1    0    0  501    0  0.00000000000E+00 -0.00000000000E+00 -0.16094540536E+03  0.16094540538E+03  0.25500000000E-02 0.  1.
    5000001    1    1    2    0    0 -0.31518775378E+02  0.17419072710E+03  0.91241212342E+01  0.21805525033E+03  0.12700000000E+03 0.  0.
   -5000001    1    1    2    0    0  0.31518775378E+02 -0.17419072710E+03  0.15361654896E+03  0.26657623061E+03  0.12700000000E+03 0.  0.
<mgrwt>
<rscale>  0 0.45649003E+03</rscale>
<asrwt>0</asrwt>
<pdfrwt beam="1">  1        2 0.22992201E-01 0.45649003E+03</pdfrwt>
<pdfrwt beam="2">  1       -2 0.46240868E-01 0.45649003E+03</pdfrwt>
<totfact> 0.10708656E+03</totfact>
</mgrwt>
</event>
<event>
 4    1  0.2679255E-004  0.4967326E+03  0.7818608E-02  0.1014635E+00
         -2   -1    0    0    0  501 -0.00000000000E+00  0.00000000000E+00  0.93955251357E+02  0.93955251391E+02  0.25500000000E-02 0. -1.
          2   -1    0    0  501    0  0.00000000000E+00 -0.00000000000E+00 -0.65654473948E+03  0.65654473948E+03  0.25500000000E-02 0.  1.
    5000001    1    1    2    0    0 -0.26701813416E+01  0.20643978274E+03 -0.36310977750E+03  0.43658014646E+03  0.12700000000E+03 0.  0.
   -5000001    1    1    2    0    0  0.26701813416E+01 -0.20643978274E+03 -0.19947971063E+03  0.31391984442E+03  0.12700000000E+03 0.  0.
<mgrwt>
<rscale>  0 0.49673263E+03</rscale>
<asrwt>0</asrwt>
<pdfrwt beam="1">  1        2 0.93792103E-01 0.49673263E+03</pdfrwt>
<pdfrwt beam="2">  1       -2 0.13422179E-01 0.49673263E+03</pdfrwt>
<totfact> 0.20499896E+03</totfact>
</mgrwt>
</event>
<event>
 4    1  0.2679255E-004  0.9764962E+03  0.7818608E-02  0.9334706E-01
          2   -1    0    0  501    0  0.00000000000E+00  0.00000000000E+00  0.16794279950E+04  0.16794279950E+04  0.25500000000E-02 0.  1.
         -2   -1    0    0    0  501 -0.00000000000E+00 -0.00000000000E+00 -0.14194488721E+03  0.14194488723E+03  0.25500000000E-02 0. -1.
    5000001    1    1    2    0    0  0.39493905848E+03  0.24098655844E+03  0.59977929066E+03  0.76805961928E+03  0.12700000000E+03 0.  0.
   -5000001    1    1    2    0    0 -0.39493905848E+03 -0.24098655844E+03  0.93770381717E+03  0.10533132630E+04  0.12700000000E+03 0.  0.
<mgrwt>
<rscale>  0 0.97649622E+03</rscale>
<asrwt>0</asrwt>
<pdfrwt beam="1">  1        2 0.23991829E+00 0.97649622E+03</pdfrwt>
<pdfrwt beam="2">  1       -2 0.20277841E-01 0.97649622E+03</pdfrwt>
<totfact> 0.24485387E+02</totfact>
</mgrwt>
</event>
<event>
 4    1  0.2679255E-004  0.3727756E+03  0.7818608E-02  0.1053637E+00
         -2   -1    0    0    0  501 -0.00000000000E+00  0.00000000000E+00  0.16591513322E+03  0.16591513324E+03  0.25500000000E-02 0. -1.
          2   -1    0    0  501    0  0.00000000000E+00 -0.00000000000E+00 -0.20938663897E+03  0.20938663899E+03  0.25500000000E-02 0.  1.
    5000001    1    1    2    0    0  0.11148338389E+03 -0.60816046198E+02  0.28444522046E+02  0.18183846456E+03  0.12700000000E+03 0.  0.
   -5000001    1    1    2    0    0 -0.11148338389E+03  0.60816046198E+02 -0.71916027802E+02  0.19346330767E+03  0.12700000000E+03 0.  0.
<mgrwt>
<rscale>  0 0.37277560E+03</rscale>
<asrwt>0</asrwt>
<pdfrwt beam="1">  1        2 0.29912377E-01 0.37277560E+03</pdfrwt>
<pdfrwt beam="2">  1       -2 0.23702162E-01 0.37277560E+03</pdfrwt>
<totfact> 0.27654351E+03</totfact>
</mgrwt>
</event>
<event>
 4    1  0.2679255E-004  0.3521933E+03  0.7818608E-02  0.1061718E+00
         -2   -1    0    0    0  501 -0.00000000000E+00  0.00000000000E+00  0.11000343347E+03  0.11000343349E+03  0.25500000000E-02 0. -1.
          2   -1    0    0  501    0  0.00000000000E+00 -0.00000000000E+00 -0.28190059757E+03  0.28190059759E+03  0.25500000000E-02 0.  1.
    5000001    1    1    2    0    0 -0.16274718157E+02  0.10258878568E+03 -0.15712742853E+03  0.22717252077E+03  0.12700000000E+03 0.  0.
   -5000001    1    1    2    0    0  0.16274718157E+02 -0.10258878568E+03 -0.14769735580E+02  0.16473151031E+03  0.12700000000E+03 0.  0.
<mgrwt>
<rscale>  0 0.35219332E+03</rscale>
<asrwt>0</asrwt>
<pdfrwt beam="1">  1        2 0.40271514E-01 0.35219332E+03</pdfrwt>
<pdfrwt beam="2">  1       -2 0.15714776E-01 0.35219332E+03</pdfrwt>
<totfact> 0.40328699E+03</totfact>
</mgrwt>
</event>
<event>
 4    1  0.2679255E-004  0.4151913E+03  0.7818608E-02  0.1038643E+00
          2   -1    0    0  501    0  0.00000000000E+00  0.00000000000E+00  0.37828465136E+03  0.37828465137E+03  0.25500000000E-02 0.  1.
         -2   -1    0    0    0  501 -0.00000000000E+00 -0.00000000000E+00 -0.11392466138E+03  0.11392466141E+03  0.25500000000E-02 0. -1.
    5000001    1    1    2    0    0 -0.16310107553E+03  0.19101896381E+02  0.13256875144E+03  0.24631345303E+03  0.12700000000E+03 0.  0.
   -5000001    1    1    2    0    0  0.16310107553E+03 -0.19101896381E+02  0.13179123855E+03  0.24589585975E+03  0.12700000000E+03 0.  0.
<mgrwt>
<rscale>  0 0.41519129E+03</rscale>
<asrwt>0</asrwt>
<pdfrwt beam="1">  1        2 0.54040664E-01 0.41519129E+03</pdfrwt>
<pdfrwt beam="2">  1       -2 0.16274952E-01 0.41519129E+03</pdfrwt>
<totfact> 0.27696050E+03</totfact>
</mgrwt>
</event>
<event>
 4    1  0.2679255E-004  0.3528840E+03  0.7818608E-02  0.1061438E+00
         -2   -1    0    0    0  501 -0.00000000000E+00  0.00000000000E+00  0.17816018928E+02  0.17816019111E+02  0.25500000000E-02 0. -1.
          2   -1    0    0  501    0  0.00000000000E+00 -0.00000000000E+00 -0.17474033861E+04  0.17474033861E+04  0.25500000000E-02 0.  1.
    5000001    1    1    2    0    0 -0.59601548482E+02 -0.90867060389E+02 -0.58210569367E+03  0.60562794342E+03  0.12700000000E+03 0.  0.
   -5000001    1    1    2    0    0  0.59601548482E+02  0.90867060389E+02 -0.11474816735E+04  0.11595914618E+04  0.12700000000E+03 0.  0.
<mgrwt>
<rscale>  0 0.35288396E+03</rscale>
<asrwt>0</asrwt>
<pdfrwt beam="1">  1        2 0.24962895E+00 0.35288396E+03</pdfrwt>
<pdfrwt beam="2">  1       -2 0.25451467E-02 0.35288396E+03</pdfrwt>
<totfact> 0.63708022E+03</totfact>
</mgrwt>
</event>
<event>
 4    1  0.2679255E-004  0.1093408E+04  0.7818608E-02  0.9211640E-01
         -2   -1    0    0    0  501 -0.00000000000E+00  0.00000000000E+00  0.17813888716E+03  0.17813888717E+03  0.25500000000E-02 0. -1.
          2   -1    0    0  501    0  0.00000000000E+00 -0.00000000000E+00 -0.16778225178E+04  0.16778225178E+04  0.25500000000E-02 0.  1.
    5000001    1    1    2    0    0  0.37948846814E+03  0.19841720816E+03 -0.21475242315E+03  0.49560921016E+03  0.12700000000E+03 0.  0.
   -5000001    1    1    2    0    0 -0.37948846814E+03 -0.19841720816E+03 -0.12849312075E+04  0.13603521948E+04  0.12700000000E+03 0.  0.
<mgrwt>
<rscale>  0 0.10934083E+04</rscale>
<asrwt>0</asrwt>
<pdfrwt beam="1">  1        2 0.23968892E+00 0.10934083E+04</pdfrwt>
<pdfrwt beam="2">  1       -2 0.25448413E-01 0.10934083E+04</pdfrwt>
<totfact> 0.16231236E+02</totfact>
</mgrwt>
</event>
<event>
 4    1  0.2679255E-004  0.9087531E+03  0.7818608E-02  0.9414705E-01
         -2   -1    0    0    0  501 -0.00000000000E+00  0.00000000000E+00  0.81888456896E+03  0.81888456897E+03  0.25500000000E-02 0. -1.
          2   -1    0    0  501    0  0.00000000000E+00 -0.00000000000E+00 -0.25212106667E+03  0.25212106668E+03  0.25500000000E-02 0.  1.
    5000001    1    1    2    0    0 -0.38990824317E+03  0.16783612189E+03  0.40200939891E+03  0.59827916453E+03  0.12700000000E+03 0.  0.
   -5000001    1    1    2    0    0  0.38990824317E+03 -0.16783612189E+03  0.16475410339E+03  0.47272647111E+03  0.12700000000E+03 0.  0.
<mgrwt>
<rscale>  0 0.90875310E+03</rscale>
<asrwt>0</asrwt>
<pdfrwt beam="1">  1        2 0.36017295E-01 0.90875310E+03</pdfrwt>
<pdfrwt beam="2">  1       -2 0.11698351E+00 0.90875310E+03</pdfrwt>
<totfact> 0.82138047E+01</totfact>
</mgrwt>
</event>
<event>
 4    1  0.2679255E-004  0.4993549E+03  0.7818608E-02  0.1013947E+00
         -2   -1    0    0    0  501 -0.00000000000E+00  0.00000000000E+00  0.25849485217E+02  0.25849485342E+02  0.25500000000E-02 0. -1.
          2   -1    0    0  501    0  0.00000000000E+00 -0.00000000000E+00 -0.24116076869E+04  0.24116076869E+04  0.25500000000E-02 0.  1.
    5000001    1    1    2    0    0  0.85059626498E+02 -0.18808966913E+03 -0.90013028777E+03  0.93218903590E+03  0.12700000000E+03 0.  0.
   -5000001    1    1    2    0    0 -0.85059626498E+02  0.18808966913E+03 -0.14856279139E+04  0.15052681363E+04  0.12700000000E+03 0.  0.
<mgrwt>
<rscale>  0 0.49935485E+03</rscale>
<asrwt>0</asrwt>
<pdfrwt beam="1">  1        2 0.34451524E+00 0.49935485E+03</pdfrwt>
<pdfrwt beam="2">  1       -2 0.36927851E-02 0.49935485E+03</pdfrwt>
<totfact> 0.16904333E+03</totfact>
</mgrwt>
</event>
<event>
 4    1  0.2679255E-004  0.5977660E+03  0.7818608E-02  0.9910052E-01
         -2   -1    0    0    0  501 -0.00000000000E+00  0.00000000000E+00  0.49550653666E+02  0.49550653732E+02  0.25500000000E-02 0. -1.
          2   -1    0    0  501    0  0.00000000000E+00 -0.00000000000E+00 -0.18028230210E+04  0.18028230210E+04  0.25500000000E-02 0.  1.
    5000001    1    1    2    0    0 -0.18399308216E+03  0.89136755892E+02 -0.32749423888E+03  0.40642378380E+03  0.12700000000E+03 0.  0.
   -5000001    1    1    2    0    0  0.18399308216E+03 -0.89136755892E+02 -0.14257781284E+04  0.14459498909E+04  0.12700000000E+03 0.  0.
<mgrwt>
<rscale>  0 0.59776604E+03</rscale>
<asrwt>0</asrwt>
<pdfrwt beam="1">  1        2 0.25754611E+00 0.59776604E+03</pdfrwt>
<pdfrwt beam="2">  1       -2 0.70786659E-02 0.59776604E+03</pdfrwt>
<totfact> 0.12397745E+03</totfact>
</mgrwt>
</event>
<event>
 4    1  0.2679255E-004  0.3392153E+03  0.7818608E-02  0.1067131E+00
         -2   -1    0    0    0  501 -0.00000000000E+00  0.00000000000E+00  0.13343631393E+02  0.13343631636E+02  0.25500000000E-02 0. -1.
          2   -1    0    0  501    0  0.00000000000E+00 -0.00000000000E+00 -0.21558415486E+04  0.21558415486E+04  0.25500000000E-02 0.  1.
    5000001    1    1    2    0    0 -0.14735130349E+02 -0.10073163942E+03 -0.76632309132E+03  0.78341819454E+03  0.12700000000E+03 0.  0.
   -5000001    1    1    2    0    0  0.14735130349E+02  0.10073163942E+03 -0.13761748259E+04  0.13857669857E+04  0.12700000000E+03 0.  0.
<mgrwt>
<rscale>  0 0.33921530E+03</rscale>
<asrwt>0</asrwt>
<pdfrwt beam="1">  1        2 0.30797714E+00 0.33921530E+03</pdfrwt>
<pdfrwt beam="2">  1       -2 0.19062345E-02 0.33921530E+03</pdfrwt>
<totfact> 0.61555092E+03</totfact>
</mgrwt>
</event>
<event>
 4    1  0.2679255E-004  0.5248951E+03  0.7818608E-02  0.1007478E+00
         -2   -1    0    0    0  501 -0.00000000000E+00  0.00000000000E+00  0.12610950846E+03  0.12610950849E+03  0.25500000000E-02 0. -1.
          2   -1    0    0  501    0  0.00000000000E+00 -0.00000000000E+00 -0.54618172716E+03  0.54618172717E+03  0.25500000000E-02 0.  1.
    5000001    1    1    2    0    0 -0.13774090092E+03 -0.18138566173E+03 -0.17211902612E+03  0.31245363371E+03  0.12700000000E+03 0.  0.
   -5000001    1    1    2    0    0  0.13774090092E+03  0.18138566173E+03 -0.24795319258E+03  0.35983760195E+03  0.12700000000E+03 0.  0.
<mgrwt>
<rscale>  0 0.52489507E+03</rscale>
<asrwt>0</asrwt>
<pdfrwt beam="1">  1        2 0.78025960E-01 0.52489507E+03</pdfrwt>
<pdfrwt beam="2">  1       -2 0.18015644E-01 0.52489507E+03</pdfrwt>
<totfact> 0.15488941E+03</totfact>
</mgrwt>
</event>
<event>
 4    1  0.2679255E-004  0.5745608E+03  0.7818608E-02  0.9959637E-01
          2   -1    0    0  501    0  0.00000000000E+00  0.00000000000E+00  0.77446616220E+03  0.77446616220E+03  0.25500000000E-02 0. -1.
         -2   -1    0    0    0  501 -0.00000000000E+00 -0.00000000000E+00 -0.10656375723E+03  0.10656375726E+03  0.25500000000E-02 0.  1.
    5000001    1    1    2    0    0  0.13249058744E+03  0.20257882595E+03  0.46945604738E+03  0.54324020185E+03  0.12700000000E+03 0.  0.
   -5000001    1    1    2    0    0 -0.13249058744E+03 -0.20257882595E+03  0.19844635758E+03  0.33778971761E+03  0.12700000000E+03 0.  0.
<mgrwt>
<rscale>  0 0.57456079E+03</rscale>
<asrwt>0</asrwt>
<pdfrwt beam="1">  1        2 0.11063802E+00 0.57456079E+03</pdfrwt>
<pdfrwt beam="2">  1       -2 0.15223394E-01 0.57456079E+03</pdfrwt>
<totfact> 0.13561429E+03</totfact>
</mgrwt>
</event>
<event>
 4    1  0.2679255E-004  0.4246003E+03  0.7818608E-02  0.1035579E+00
          2   -1    0    0  501    0  0.00000000000E+00  0.00000000000E+00  0.16732122272E+04  0.16732122272E+04  0.25500000000E-02 0.  1.
         -2   -1    0    0    0  501 -0.00000000000E+00 -0.00000000000E+00 -0.26937015480E+02  0.26937015601E+02  0.25500000000E-02 0. -1.
    5000001    1    1    2    0    0 -0.11777341918E+03  0.11038691931E+03  0.60801200668E+03  0.64176588448E+03  0.12700000000E+03 0.  0.
   -5000001    1    1    2    0    0  0.11777341918E+03 -0.11038691931E+03  0.10382632050E+04  0.10583833583E+04  0.12700000000E+03 0.  0.
<mgrwt>
<rscale>  0 0.42460025E+03</rscale>
<asrwt>0</asrwt>
<pdfrwt beam="1">  1        2 0.23903044E+00 0.42460025E+03</pdfrwt>
<pdfrwt beam="2">  1       -2 0.38481430E-02 0.42460025E+03</pdfrwt>
<totfact> 0.37244351E+03</totfact>
</mgrwt>
</event>
<event>
 4    1  0.2679255E-004  0.4601004E+03  0.7818608E-02  0.1024752E+00
          2   -1    0    0  501    0  0.00000000000E+00  0.00000000000E+00  0.31193662171E+03  0.31193662172E+03  0.25500000000E-02 0.  1.
         -2   -1    0    0    0  501 -0.00000000000E+00 -0.00000000000E+00 -0.16965979981E+03  0.16965979983E+03  0.25500000000E-02 0. -1.
    5000001    1    1    2    0    0  0.47602402673E+02 -0.18570454463E+03  0.77916937585E+02  0.24280077388E+03  0.12700000000E+03 0.  0.
   -5000001    1    1    2    0    0 -0.47602402673E+02  0.18570454463E+03  0.64359884318E+02  0.23879564767E+03  0.12700000000E+03 0.  0.
<mgrwt>
<rscale>  0 0.46010044E+03</rscale>
<asrwt>0</asrwt>
<pdfrwt beam="1">  1        2 0.44562375E-01 0.46010044E+03</pdfrwt>
<pdfrwt beam="2">  1       -2 0.24237114E-01 0.46010044E+03</pdfrwt>
<totfact> 0.17201424E+03</totfact>
</mgrwt>
</event>
<event>
 4    1  0.2679255E-004  0.4776931E+03  0.7818608E-02  0.1019771E+00
          2   -1    0    0  501    0  0.00000000000E+00  0.00000000000E+00  0.18571347881E+03  0.18571347883E+03  0.25500000000E-02 0.  1.
         -2   -1    0    0    0  501 -0.00000000000E+00 -0.00000000000E+00 -0.30718114510E+03  0.30718114511E+03  0.25500000000E-02 0. -1.
    5000001    1    1    2    0    0 -0.10768404757E+03  0.21115318078E+02 -0.23607378933E+03  0.28965763371E+03  0.12700000000E+03 0.  0.
   -5000001    1    1    2    0    0  0.10768404757E+03 -0.21115318078E+02  0.11460612304E+03  0.20323699023E+03  0.12700000000E+03 0.  0.
<mgrwt>
<rscale>  0 0.47769312E+03</rscale>
<asrwt>0</asrwt>
<pdfrwt beam="1">  1        2 0.26530497E-01 0.47769312E+03</pdfrwt>
<pdfrwt beam="2">  1       -2 0.43883021E-01 0.47769312E+03</pdfrwt>
<totfact> 0.10093052E+03</totfact>
</mgrwt>
</event>
<event>
 4    1  0.2679255E-004  0.9124172E+03  0.7818608E-02  0.9410191E-01
          2   -1    0    0  501    0  0.00000000000E+00  0.00000000000E+00  0.13092952028E+04  0.13092952028E+04  0.25500000000E-02 0.  1.
         -2   -1    0    0    0  501 -0.00000000000E+00 -0.00000000000E+00 -0.15896055220E+03  0.15896055222E+03  0.25500000000E-02 0. -1.
    5000001    1    1    2    0    0 -0.36277421293E+03 -0.42674442166E+02  0.96461557330E+03  0.10392489797E+04  0.12700000000E+03 0.  0.
   -5000001    1    1    2    0    0  0.36277421293E+03  0.42674442166E+02  0.18571907729E+03  0.42900677530E+03  0.12700000000E+03 0.  0.
<mgrwt>
<rscale>  0 0.91241720E+03</rscale>
<asrwt>0</asrwt>
<pdfrwt beam="1">  1        2 0.18704218E+00 0.91241720E+03</pdfrwt>
<pdfrwt beam="2">  1       -2 0.22708650E-01 0.91241720E+03</pdfrwt>
<totfact> 0.31616463E+02</totfact>
</mgrwt>
</event>
<event>
 4    1  0.2679255E-004  0.4939383E+03  0.7818608E-02  0.1015373E+00
          2   -1    0    0  501    0  0.00000000000E+00  0.00000000000E+00  0.74812244484E+03  0.74812244485E+03  0.25500000000E-02 0.  1.
         -2   -1    0    0    0  501 -0.00000000000E+00 -0.00000000000E+00 -0.81529125840E+02  0.81529125879E+02  0.25500000000E-02 0. -1.
    5000001    1    1    2    0    0  0.10880847323E+03 -0.17384934998E+03  0.24438710309E+03  0.34339035585E+03  0.12700000000E+03 0.  0.
   -5000001    1    1    2    0    0 -0.10880847323E+03  0.17384934998E+03  0.42220621591E+03  0.48626121487E+03  0.12700000000E+03 0.  0.
<mgrwt>
<rscale>  0 0.49393833E+03</rscale>
<asrwt>0</asrwt>
<pdfrwt beam="1">  1        2 0.10687463E+00 0.49393833E+03</pdfrwt>
<pdfrwt beam="2">  1       -2 0.11647018E-01 0.49393833E+03</pdfrwt>
<totfact> 0.22087655E+03</totfact>
</mgrwt>
</event>
<event>
 4    1  0.2679255E-004  0.3519868E+03  0.7818608E-02  0.1061803E+00
          2   -1    0    0  501    0  0.00000000000E+00  0.00000000000E+00  0.31808885188E+04  0.31808885188E+04  0.25500000000E-02 0.  1.
         -2   -1    0    0    0  501 -0.00000000000E+00 -0.00000000000E+00 -0.97374294333E+01  0.97374297672E+01  0.25500000000E-02 0. -1.
    5000001    1    1    2    0    0  0.10972836639E+03 -0.10248175046E+02  0.20565292142E+04  0.20633920491E+04  0.12700000000E+03 0.  0.
   -5000001    1    1    2    0    0 -0.10972836639E+03  0.10248175046E+02  0.11146218752E+04  0.11272338995E+04  0.12700000000E+03 0.  0.
<mgrwt>
<rscale>  0 0.35198681E+03</rscale>
<asrwt>0</asrwt>
<pdfrwt beam="1">  1        2 0.45441231E+00 0.35198681E+03</pdfrwt>
<pdfrwt beam="2">  1       -2 0.13910624E-02 0.35198681E+03</pdfrwt>
<totfact> 0.29035722E+03</totfact>
</mgrwt>
</event>
<event>
 4    1  0.2679255E-004  0.3491077E+03  0.7818608E-02  0.1062982E+00
          2   -1    0    0  501    0  0.00000000000E+00  0.00000000000E+00  0.18885719009E+04  0.18885719009E+04  0.25500000000E-02 0.  1.
         -2   -1    0    0    0  501 -0.00000000000E+00 -0.00000000000E+00 -0.16133379099E+02  0.16133379301E+02  0.25500000000E-02 0. -1.
    5000001    1    1    2    0    0  0.25847380784E+02  0.10057350456E+03  0.61082791435E+03  0.63247360250E+03  0.12700000000E+03 0.  0.
   -5000001    1    1    2    0    0 -0.25847380784E+02 -0.10057350456E+03  0.12616106075E+04  0.12722316777E+04  0.12700000000E+03 0.  0.
<mgrwt>
<rscale>  0 0.34910770E+03</rscale>
<asrwt>0</asrwt>
<pdfrwt beam="1">  1        2 0.26979590E+00 0.34910770E+03</pdfrwt>
<pdfrwt beam="2">  1       -2 0.23047692E-02 0.34910770E+03</pdfrwt>
<totfact> 0.62884464E+03</totfact>
</mgrwt>
</event>
<event>
 4    1  0.2679255E-004  0.4144235E+03  0.7818608E-02  0.1038897E+00
         -2   -1    0    0    0  501 -0.00000000000E+00  0.00000000000E+00  0.12758413192E+03  0.12758413195E+03  0.25500000000E-02 0.  1.
          2   -1    0    0  501    0  0.00000000000E+00 -0.00000000000E+00 -0.33653650105E+03  0.33653650106E+03  0.25500000000E-02 0. -1.
    5000001    1    1    2    0    0 -0.15936780046E+03 -0.20044509043E+02 -0.14002966177E+03  0.24806689489E+03  0.12700000000E+03 0.  0.
   -5000001    1    1    2    0    0  0.15936780046E+03  0.20044509043E+02 -0.68922707364E+02  0.21605373812E+03  0.12700000000E+03 0.  0.
<mgrwt>
<rscale>  0 0.41442354E+03</rscale>
<asrwt>0</asrwt>
<pdfrwt beam="1">  1        2 0.48076643E-01 0.41442354E+03</pdfrwt>
<pdfrwt beam="2">  1       -2 0.18226305E-01 0.41442354E+03</pdfrwt>
<totfact> 0.25975705E+03</totfact>
</mgrwt>
</event>
<event>
 4    1  0.2679255E-004  0.4008908E+03  0.7818608E-02  0.1043472E+00
         -2   -1    0    0    0  501 -0.00000000000E+00  0.00000000000E+00  0.18149631703E+02  0.18149631882E+02  0.25500000000E-02 0. -1.
          2   -1    0    0  501    0  0.00000000000E+00 -0.00000000000E+00 -0.22137283394E+04  0.22137283394E+04  0.25500000000E-02 0.  1.
    5000001    1    1    2    0    0 -0.10802669434E+03  0.11094469823E+03 -0.10509242556E+04  0.10698361014E+04  0.12700000000E+03 0.  0.
   -5000001    1    1    2    0    0  0.10802669434E+03 -0.11094469823E+03 -0.11446544521E+04  0.11620418699E+04  0.12700000000E+03 0.  0.
<mgrwt>
<rscale>  0 0.40089078E+03</rscale>
<asrwt>0</asrwt>
<pdfrwt beam="1">  1        2 0.31624673E+00 0.40089078E+03</pdfrwt>
<pdfrwt beam="2">  1       -2 0.25928060E-02 0.40089078E+03</pdfrwt>
<totfact> 0.36420759E+03</totfact>
</mgrwt>
</event>
<event>
 4    1  0.2679255E-004  0.3325178E+03  0.7818608E-02  0.1070028E+00
         -2   -1    0    0    0  501 -0.00000000000E+00  0.00000000000E+00  0.11535831555E+03  0.11535831558E+03  0.25500000000E-02 0. -1.
          2   -1    0    0  501    0  0.00000000000E+00 -0.00000000000E+00 -0.23961878105E+03  0.23961878106E+03  0.25500000000E-02 0.  1.
    5000001    1    1    2    0    0 -0.30624265063E+02  0.54861864932E+02 -0.15498408892E+03  0.20999223236E+03  0.12700000000E+03 0.  0.
   -5000001    1    1    2    0    0  0.30624265063E+02 -0.54861864932E+02  0.30723623413E+02  0.14498486428E+03  0.12700000000E+03 0.  0.
<mgrwt>
<rscale>  0 0.33251778E+03</rscale>
<asrwt>0</asrwt>
<pdfrwt beam="1">  1        2 0.34231254E-01 0.33251778E+03</pdfrwt>
<pdfrwt beam="2">  1       -2 0.16479759E-01 0.33251778E+03</pdfrwt>
<totfact> 0.44400160E+03</totfact>
</mgrwt>
</event>
<event>
 4    1  0.2679255E-004  0.5891539E+03  0.7818608E-02  0.9928167E-01
          2   -1    0    0  501    0  0.00000000000E+00  0.00000000000E+00  0.14400072334E+04  0.14400072334E+04  0.25500000000E-02 0.  1.
         -2   -1    0    0    0  501 -0.00000000000E+00 -0.00000000000E+00 -0.60260520808E+02  0.60260520862E+02  0.25500000000E-02 0. -1.
    5000001    1    1    2    0    0 -0.22295144618E+03 -0.12866669838E+03  0.52126418948E+03  0.59506959413E+03  0.12700000000E+03 0.  0.
   -5000001    1    1    2    0    0  0.22295144618E+03  0.12866669838E+03  0.85848252312E+03  0.90519816015E+03  0.12700000000E+03 0.  0.
<mgrwt>
<rscale>  0 0.58915392E+03</rscale>
<asrwt>0</asrwt>
<pdfrwt beam="1">  1        2 0.20571529E+00 0.58915392E+03</pdfrwt>
<pdfrwt beam="2">  1       -2 0.86086468E-02 0.58915392E+03</pdfrwt>
<totfact> 0.13950615E+03</totfact>
</mgrwt>
</event>
<event>
 4    1  0.2679255E-004  0.3791202E+03  0.7818608E-02  0.1051259E+00
         -2   -1    0    0    0  501 -0.00000000000E+00  0.00000000000E+00  0.36503284227E+03  0.36503284228E+03  0.25500000000E-02 0. -1.
          2   -1    0    0  501    0  0.00000000000E+00 -0.00000000000E+00 -0.98437805935E+02  0.98437805968E+02  0.25500000000E-02 0.  1.
    5000001    1    1    2    0    0  0.13573347590E+03 -0.20372413478E+02  0.17128176677E+03  0.25358441462E+03  0.12700000000E+03 0.  0.
   -5000001    1    1    2    0    0 -0.13573347590E+03  0.20372413478E+02  0.95313269569E+02  0.20988623363E+03  0.12700000000E+03 0.  0.
<mgrwt>
<rscale>  0 0.37912020E+03</rscale>
<asrwt>0</asrwt>
<pdfrwt beam="1">  1        2 0.14062543E-01 0.37912020E+03</pdfrwt>
<pdfrwt beam="2">  1       -2 0.52147550E-01 0.37912020E+03</pdfrwt>
<totfact> 0.14967819E+03</totfact>
</mgrwt>
</event>
<event>
 4    1  0.2679255E-004  0.4756894E+03  0.7818608E-02  0.1020327E+00
         -2   -1    0    0    0  501 -0.00000000000E+00  0.00000000000E+00  0.83809195466E+02  0.83809195505E+02  0.25500000000E-02 0. -1.
          2   -1    0    0  501    0  0.00000000000E+00 -0.00000000000E+00 -0.67498676897E+03  0.67498676898E+03  0.25500000000E-02 0.  1.
    5000001    1    1    2    0    0 -0.15023891706E+03  0.89440248784E+02 -0.45406201249E+03  0.50286439672E+03  0.12700000000E+03 0.  0.
   -5000001    1    1    2    0    0  0.15023891706E+03 -0.89440248784E+02 -0.13711556101E+03  0.25593156776E+03  0.12700000000E+03 0.  0.
<mgrwt>
<rscale>  0 0.47568939E+03</rscale>
<asrwt>0</asrwt>
<pdfrwt beam="1">  1        2 0.96426679E-01 0.47568939E+03</pdfrwt>
<pdfrwt beam="2">  1       -2 0.11972743E-01 0.47568939E+03</pdfrwt>
<totfact> 0.23932073E+03</totfact>
</mgrwt>
</event>
<event>
 4    1  0.2679255E-004  0.3465686E+03  0.7818608E-02  0.1064032E+00
          2   -1    0    0  501    0  0.00000000000E+00  0.00000000000E+00  0.68731768372E+03  0.68731768372E+03  0.25500000000E-02 0.  1.
         -2   -1    0    0    0  501 -0.00000000000E+00 -0.00000000000E+00 -0.43687883038E+02  0.43687883112E+02  0.25500000000E-02 0. -1.
    5000001    1    1    2    0    0 -0.58420290922E+02  0.39825414440E+02  0.12283313898E+03  0.19030495017E+03  0.12700000000E+03 0.  0.
   -5000001    1    1    2    0    0  0.58420290922E+02 -0.39825414440E+02  0.52079666170E+03  0.54070061667E+03  0.12700000000E+03 0.  0.
<mgrwt>
<rscale>  0 0.34656863E+03</rscale>
<asrwt>0</asrwt>
<pdfrwt beam="1">  1        2 0.98188237E-01 0.34656863E+03</pdfrwt>
<pdfrwt beam="2">  1       -2 0.62411264E-02 0.34656863E+03</pdfrwt>
<totfact> 0.65619622E+03</totfact>
</mgrwt>
</event>
<event>
 4    1  0.2679255E-004  0.4593065E+03  0.7818608E-02  0.1024983E+00
         -2   -1    0    0    0  501 -0.00000000000E+00  0.00000000000E+00  0.13500421364E+03  0.13500421366E+03  0.25500000000E-02 0. -1.
          2   -1    0    0  501    0  0.00000000000E+00 -0.00000000000E+00 -0.39065911370E+03  0.39065911371E+03  0.25500000000E-02 0.  1.
    5000001    1    1    2    0    0 -0.18234004032E+02 -0.13568546554E+03  0.25158070937E+02  0.18842758024E+03  0.12700000000E+03 0.  0.
   -5000001    1    1    2    0    0  0.18234004032E+02  0.13568546554E+03 -0.28081297100E+03  0.33723574713E+03  0.12700000000E+03 0.  0.
<mgrwt>
<rscale>  0 0.45930655E+03</rscale>
<asrwt>0</asrwt>
<pdfrwt beam="1">  1        2 0.55808444E-01 0.45930655E+03</pdfrwt>
<pdfrwt beam="2">  1       -2 0.19286316E-01 0.45930655E+03</pdfrwt>
<totfact> 0.20044539E+03</totfact>
</mgrwt>
</event>
<event>
 4    1  0.2679255E-004  0.4347849E+03  0.7818608E-02  0.1032359E+00
         -2   -1    0    0    0  501 -0.00000000000E+00  0.00000000000E+00  0.19707895847E+03  0.19707895848E+03  0.25500000000E-02 0. -1.
          2   -1    0    0  501    0  0.00000000000E+00 -0.00000000000E+00 -0.23979967318E+03  0.23979967319E+03  0.25500000000E-02 0.  1.
    5000001    1    1    2    0    0 -0.70454181647E+02 -0.13100868791E+03  0.73982837687E+02  0.20911606416E+03  0.12700000000E+03 0.  0.
   -5000001    1    1    2    0    0  0.70454181647E+02  0.13100868791E+03 -0.11670355240E+03  0.22776256752E+03  0.12700000000E+03 0.  0.
<mgrwt>
<rscale>  0 0.43478487E+03</rscale>
<asrwt>0</asrwt>
<pdfrwt beam="1">  1        2 0.34257096E-01 0.43478487E+03</pdfrwt>
<pdfrwt beam="2">  1       -2 0.28154137E-01 0.43478487E+03</pdfrwt>
<totfact> 0.17533437E+03</totfact>
</mgrwt>
</event>
<event>
 4    1  0.2679255E-004  0.3929454E+03  0.7818608E-02  0.1046250E+00
         -2   -1    0    0    0  501 -0.00000000000E+00  0.00000000000E+00  0.19336120669E+02  0.19336120838E+02  0.25500000000E-02 0. -1.
          2   -1    0    0  501    0  0.00000000000E+00 -0.00000000000E+00 -0.19963428604E+04  0.19963428604E+04  0.25500000000E-02 0.  1.
    5000001    1    1    2    0    0  0.54822715898E+02 -0.12639110821E+03 -0.12916438409E+04  0.13051639951E+04  0.12700000000E+03 0.  0.
   -5000001    1    1    2    0    0 -0.54822715898E+02  0.12639110821E+03 -0.68536289889E+03  0.71051498618E+03  0.12700000000E+03 0.  0.
<mgrwt>
<rscale>  0 0.39294542E+03</rscale>
<asrwt>0</asrwt>
<pdfrwt beam="1">  1        2 0.28519171E+00 0.39294542E+03</pdfrwt>
<pdfrwt beam="2">  1       -2 0.27623042E-02 0.39294542E+03</pdfrwt>
<totfact> 0.42447997E+03</totfact>
</mgrwt>
</event>
<event>
 4    1  0.2679255E-004  0.6703549E+03  0.7818608E-02  0.9769317E-01
          2   -1    0    0  501    0  0.00000000000E+00  0.00000000000E+00  0.38238169418E+03  0.38238169419E+03  0.25500000000E-02 0.  1.
         -2   -1    0    0    0  501 -0.00000000000E+00 -0.00000000000E+00 -0.29380043196E+03  0.29380043197E+03  0.25500000000E-02 0. -1.
    5000001    1    1    2    0    0  0.23337203755E+03 -0.20371294711E+03  0.28232627869E+02  0.33598743132E+03  0.12700000000E+03 0.  0.
   -5000001    1    1    2    0    0 -0.23337203755E+03  0.20371294711E+03  0.60348634348E+02  0.34019469484E+03  0.12700000000E+03 0.  0.
<mgrwt>
<rscale>  0 0.67035485E+03</rscale>
<asrwt>0</asrwt>
<pdfrwt beam="1">  1        2 0.54625956E-01 0.67035485E+03</pdfrwt>
<pdfrwt beam="2">  1       -2 0.41971490E-01 0.67035485E+03</pdfrwt>
<totfact> 0.49281005E+02</totfact>
</mgrwt>
</event>
<event>
 4    1  0.2679255E-004  0.3289160E+03  0.7818608E-02  0.1071618E+00
          2   -1    0    0  501    0  0.00000000000E+00  0.00000000000E+00  0.11411091302E+04  0.11411091302E+04  0.25500000000E-02 0.  1.
         -2   -1    0    0    0  501 -0.00000000000E+00 -0.00000000000E+00 -0.23701878536E+02  0.23701878673E+02  0.25500000000E-02 0. -1.
    5000001    1    1    2    0    0 -0.11961502096E+01 -0.87650870292E+02  0.35733346108E+03  0.38923040509E+03  0.12700000000E+03 0.  0.
   -5000001    1    1    2    0    0  0.11961502096E+01  0.87650870292E+02  0.76007379062E+03  0.77558060382E+03  0.12700000000E+03 0.  0.
<mgrwt>
<rscale>  0 0.32891598E+03</rscale>
<asrwt>0</asrwt>
<pdfrwt beam="1">  1        2 0.16301562E+00 0.32891598E+03</pdfrwt>
<pdfrwt beam="2">  1       -2 0.33859821E-02 0.32891598E+03</pdfrwt>
<totfact> 0.85658767E+03</totfact>
</mgrwt>
</event>
<event>
 4    1  0.2679255E-004  0.2776956E+03  0.7818608E-02  0.1096954E+00
         -2   -1    0    0    0  501 -0.00000000000E+00  0.00000000000E+00  0.25843604343E+02  0.25843604469E+02  0.25500000000E-02 0. -1.
          2   -1    0    0  501    0  0.00000000000E+00 -0.00000000000E+00 -0.74597628962E+03  0.74597628962E+03  0.25500000000E-02 0.  1.
    5000001    1    1    2    0    0  0.41396528312E+02 -0.12830090580E+02 -0.45917088192E+03  0.47837765686E+03  0.12700000000E+03 0.  0.
   -5000001    1    1    2    0    0 -0.41396528312E+02  0.12830090580E+02 -0.26096180335E+03  0.29344223723E+03  0.12700000000E+03 0.  0.
<mgrwt>
<rscale>  0 0.27769563E+03</rscale>
<asrwt>0</asrwt>
<pdfrwt beam="1">  1        2 0.10656803E+00 0.27769563E+03</pdfrwt>
<pdfrwt beam="2">  1       -2 0.36919440E-02 0.27769563E+03</pdfrwt>
<totfact> 0.13129838E+04</totfact>
</mgrwt>
</event>
<event>
 4    1  0.2679255E-004  0.2983484E+03  0.7818608E-02  0.1086069E+00
          2   -1    0    0  501    0  0.00000000000E+00  0.00000000000E+00  0.31561463099E+04  0.31561463099E+04  0.25500000000E-02 0.  1.
         -2   -1    0    0    0  501 -0.00000000000E+00 -0.00000000000E+00 -0.70506663615E+01  0.70506668226E+01  0.25500000000E-02 0. -1.
    5000001    1    1    2    0    0 -0.45924074807E+02 -0.19980554584E+02  0.93702122041E+03  0.94691394050E+03  0.12700000000E+03 0.  0.
   -5000001    1    1    2    0    0  0.45924074807E+02  0.19980554584E+02  0.22120744232E+04  0.22162830363E+04  0.12700000000E+03 0.  0.
<mgrwt>
<rscale>  0 0.29834836E+03</rscale>
<asrwt>0</asrwt>
<pdfrwt beam="1">  1        2 0.45087846E+00 0.29834836E+03</pdfrwt>
<pdfrwt beam="2">  1       -2 0.10072372E-02 0.29834836E+03</pdfrwt>
<totfact> 0.48236045E+03</totfact>
</mgrwt>
</event>
<event>
 4    1  0.2679255E-004  0.8737137E+03  0.7818608E-02  0.9459051E-01
          2   -1    0    0  501    0  0.00000000000E+00  0.00000000000E+00  0.85481597119E+03  0.85481597119E+03  0.25500000000E-02 0.  1.
         -2   -1    0    0    0  501 -0.00000000000E+00 -0.00000000000E+00 -0.22325728485E+03  0.22325728486E+03  0.25500000000E-02 0. -1.
    5000001    1    1    2    0    0  0.36510601438E+03 -0.11616271868E+03  0.52194999652E+03  0.65981586660E+03  0.12700000000E+03 0.  0.
   -5000001    1    1    2    0    0 -0.36510601438E+03  0.11616271868E+03  0.10960868982E+03  0.41825738945E+03  0.12700000000E+03 0.  0.
<mgrwt>
<rscale>  0 0.87371367E+03</rscale>
<asrwt>0</asrwt>
<pdfrwt beam="1">  1        2 0.12211657E+00 0.87371367E+03</pdfrwt>
<pdfrwt beam="2">  1       -2 0.31893898E-01 0.87371367E+03</pdfrwt>
<totfact> 0.31879323E+02</totfact>
</mgrwt>
</event>
<event>
 4    1  0.2679255E-004  0.3972613E+03  0.7818608E-02  0.1044732E+00
         -2   -1    0    0    0  501 -0.00000000000E+00  0.00000000000E+00  0.33804467248E+02  0.33804467345E+02  0.25500000000E-02 0. -1.
          2   -1    0    0  501    0  0.00000000000E+00 -0.00000000000E+00 -0.11671276275E+04  0.11671276275E+04  0.25500000000E-02 0.  1.
    5000001    1    1    2    0    0  0.13478295730E+03 -0.57446974486E+02 -0.43633689006E+03  0.47747825299E+03  0.12700000000E+03 0.  0.
   -5000001    1    1    2    0    0 -0.13478295730E+03  0.57446974486E+02 -0.69698627016E+03  0.72345384182E+03  0.12700000000E+03 0.  0.
<mgrwt>
<rscale>  0 0.39726126E+03</rscale>
<asrwt>0</asrwt>
<pdfrwt beam="1">  1        2 0.16673249E+00 0.39726126E+03</pdfrwt>
<pdfrwt beam="2">  1       -2 0.48292103E-02 0.39726126E+03</pdfrwt>
<totfact> 0.48494795E+03</totfact>
</mgrwt>
</event>
<event>
 4    1  0.2679255E-004  0.3769567E+03  0.7818608E-02  0.1052064E+00
         -2   -1    0    0    0  501 -0.00000000000E+00  0.00000000000E+00  0.46372831753E+02  0.46372831824E+02  0.25500000000E-02 0. -1.
          2   -1    0    0  501    0  0.00000000000E+00 -0.00000000000E+00 -0.76605394147E+03  0.76605394147E+03  0.25500000000E-02 0.  1.
    5000001    1    1    2    0    0  0.17765613063E+02 -0.11102837746E+03 -0.53693890949E+03  0.56309440606E+03  0.12700000000E+03 0.  0.
   -5000001    1    1    2    0    0 -0.17765613063E+02  0.11102837746E+03 -0.18274220022E+03  0.24933236724E+03  0.12700000000E+03 0.  0.
<mgrwt>
<rscale>  0 0.37695671E+03</rscale>
<asrwt>0</asrwt>
<pdfrwt beam="1">  1        2 0.10943627E+00 0.37695671E+03</pdfrwt>
<pdfrwt beam="2">  1       -2 0.66246907E-02 0.37695671E+03</pdfrwt>
<totfact> 0.52539227E+03</totfact>
</mgrwt>
</event>
<event>
 4    1  0.2679255E-004  0.7944404E+03  0.7818608E-02  0.9568099E-01
         -2   -1    0    0    0  501 -0.00000000000E+00  0.00000000000E+00  0.32135304405E+03  0.32135304406E+03  0.25500000000E-02 0.  1.
          2   -1    0    0  501    0  0.00000000000E+00 -0.00000000000E+00 -0.49099854673E+03  0.49099854674E+03  0.25500000000E-02 0. -1.
    5000001    1    1    2    0    0 -0.30778776688E+03  0.21661305393E+03 -0.84215176514E+02  0.40604891396E+03  0.12700000000E+03 0.  0.
   -5000001    1    1    2    0    0  0.30778776688E+03 -0.21661305393E+03 -0.85430326171E+02  0.40630267684E+03  0.12700000000E+03 0.  0.
<mgrwt>
<rscale>  0 0.79444038E+03</rscale>
<asrwt>0</asrwt>
<pdfrwt beam="1">  1        2 0.70142650E-01 0.79444038E+03</pdfrwt>
<pdfrwt beam="2">  1       -2 0.45907578E-01 0.79444038E+03</pdfrwt>
<totfact> 0.31028220E+02</totfact>
</mgrwt>
</event>
<event>
 4    1  0.2679255E-004  0.5244888E+03  0.7818608E-02  0.1007578E+00
         -2   -1    0    0    0  501 -0.00000000000E+00  0.00000000000E+00  0.22559843677E+03  0.22559843678E+03  0.25500000000E-02 0. -1.
          2   -1    0    0  501    0  0.00000000000E+00 -0.00000000000E+00 -0.30484307287E+03  0.30484307288E+03  0.25500000000E-02 0.  1.
    5000001    1    1    2    0    0 -0.61348129660E+02 -0.19255084573E+03 -0.14950022315E+03  0.28163582501E+03  0.12700000000E+03 0.  0.
   -5000001    1    1    2    0    0  0.61348129660E+02  0.19255084573E+03  0.70255587045E+02  0.24880568466E+03  0.12700000000E+03 0.  0.
<mgrwt>
<rscale>  0 0.52448878E+03</rscale>
<asrwt>0</asrwt>
<pdfrwt beam="1">  1        2 0.43549010E-01 0.52448878E+03</pdfrwt>
<pdfrwt beam="2">  1       -2 0.32228348E-01 0.52448878E+03</pdfrwt>
<totfact> 0.10509123E+03</totfact>
</mgrwt>
</event>
<event>
 4    1  0.2679255E-004  0.4665913E+03  0.7818608E-02  0.1022887E+00
         -2   -1    0    0    0  501 -0.00000000000E+00  0.00000000000E+00  0.89833990927E+02  0.89833990963E+02  0.25500000000E-02 0. -1.
          2   -1    0    0  501    0  0.00000000000E+00 -0.00000000000E+00 -0.60586051475E+03  0.60586051476E+03  0.25500000000E-02 0.  1.
    5000001    1    1    2    0    0 -0.65502679634E+02  0.16715164997E+03 -0.14187104210E+03  0.26169957530E+03  0.12700000000E+03 0.  0.
   -5000001    1    1    2    0    0  0.65502679634E+02 -0.16715164997E+03 -0.37415548172E+03  0.43399493042E+03  0.12700000000E+03 0.  0.
<mgrwt>
<rscale>  0 0.46659133E+03</rscale>
<asrwt>0</asrwt>
<pdfrwt beam="1">  1        2 0.86551500E-01 0.46659133E+03</pdfrwt>
<pdfrwt beam="2">  1       -2 0.12833428E-01 0.46659133E+03</pdfrwt>
<totfact> 0.24265315E+03</totfact>
</mgrwt>
</event>
<event>
 4    1  0.2679255E-004  0.4777474E+03  0.7818608E-02  0.1019756E+00
         -2   -1    0    0    0  501 -0.00000000000E+00  0.00000000000E+00  0.67703168568E+02  0.67703168616E+02  0.25500000000E-02 0. -1.
          2   -1    0    0  501    0  0.00000000000E+00 -0.00000000000E+00 -0.84280604917E+03  0.84280604918E+03  0.25500000000E-02 0.  1.
    5000001    1    1    2    0    0  0.10304373537E+03 -0.11469117075E+03 -0.63720580094E+03  0.66778163257E+03  0.12700000000E+03 0.  0.
   -5000001    1    1    2    0    0 -0.10304373537E+03  0.11469117075E+03 -0.13789707966E+03  0.24272758522E+03  0.12700000000E+03 0.  0.
<mgrwt>
<rscale>  0 0.47774738E+03</rscale>
<asrwt>0</asrwt>
<pdfrwt beam="1">  1        2 0.12040086E+00 0.47774738E+03</pdfrwt>
<pdfrwt beam="2">  1       -2 0.96718817E-02 0.47774738E+03</pdfrwt>
<totfact> 0.25671266E+03</totfact>
</mgrwt>
</event>
<event>
 4    1  0.2679255E-004  0.5079535E+03  0.7818608E-02  0.1011724E+00
          2   -1    0    0  501    0  0.00000000000E+00  0.00000000000E+00  0.10852526346E+04  0.10852526346E+04  0.25500000000E-02 0.  1.
         -2   -1    0    0    0  501 -0.00000000000E+00 -0.00000000000E+00 -0.59437024854E+02  0.59437024909E+02  0.25500000000E-02 0. -1.
    5000001    1    1    2    0    0 -0.20383781353E+03  0.71009962847E+01  0.69839569302E+03  0.73857012016E+03  0.12700000000E+03 0.  0.
   -5000001    1    1    2    0    0  0.20383781353E+03 -0.71009962847E+01  0.32741991676E+03  0.40611953938E+03  0.12700000000E+03 0.  0.
<mgrwt>
<rscale>  0 0.50795349E+03</rscale>
<asrwt>0</asrwt>
<pdfrwt beam="1">  1        2 0.15503608E+00 0.50795349E+03</pdfrwt>
<pdfrwt beam="2">  1       -2 0.84910040E-02 0.50795349E+03</pdfrwt>
<totfact> 0.22383355E+03</totfact>
</mgrwt>
</event>
<event>
 4    1  0.2679255E-004  0.4542568E+03  0.7818608E-02  0.1026460E+00
          2   -1    0    0  501    0  0.00000000000E+00  0.00000000000E+00  0.10483632806E+04  0.10483632806E+04  0.25500000000E-02 0.  1.
         -2   -1    0    0    0  501 -0.00000000000E+00 -0.00000000000E+00 -0.49207474702E+02  0.49207474768E+02  0.25500000000E-02 0. -1.
    5000001    1    1    2    0    0  0.64687629456E+02  0.17673427790E+03  0.48452458251E+03  0.53508183061E+03  0.12700000000E+03 0.  0.
   -5000001    1    1    2    0    0 -0.64687629456E+02 -0.17673427790E+03  0.51463122336E+03  0.56248892473E+03  0.12700000000E+03 0.  0.
<mgrwt>
<rscale>  0 0.45425680E+03</rscale>
<asrwt>0</asrwt>
<pdfrwt beam="1">  1        2 0.14976615E+00 0.45425680E+03</pdfrwt>
<pdfrwt beam="2">  1       -2 0.70296408E-02 0.45425680E+03</pdfrwt>
<totfact> 0.31714416E+03</totfact>
</mgrwt>
</event>
<event>
 4    1  0.2679255E-004  0.4552266E+03  0.7818608E-02  0.1026175E+00
         -2   -1    0    0    0  501 -0.00000000000E+00  0.00000000000E+00  0.55657796046E+02  0.55657796105E+02  0.25500000000E-02 0. -1.
          2   -1    0    0  501    0  0.00000000000E+00 -0.00000000000E+00 -0.93082768767E+03  0.93082768767E+03  0.25500000000E-02 0.  1.
    5000001    1    1    2    0    0  0.24122701617E+02  0.15555515347E+03 -0.21134646080E+03  0.29253313829E+03  0.12700000000E+03 0.  0.
   -5000001    1    1    2    0    0 -0.24122701617E+02 -0.15555515347E+03 -0.66382343082E+03  0.69395234549E+03  0.12700000000E+03 0.  0.
<mgrwt>
<rscale>  0 0.45522661E+03</rscale>
<asrwt>0</asrwt>
<pdfrwt beam="1">  1        2 0.13297537E+00 0.45522661E+03</pdfrwt>
<pdfrwt beam="2">  1       -2 0.79511143E-02 0.45522661E+03</pdfrwt>
<totfact> 0.30778428E+03</totfact>
</mgrwt>
</event>
<event>
 4    1  0.2679255E-004  0.5310110E+03  0.7818608E-02  0.1005987E+00
          2   -1    0    0  501    0  0.00000000000E+00  0.00000000000E+00  0.13943325613E+04  0.13943325613E+04  0.25500000000E-02 0.  1.
         -2   -1    0    0    0  501 -0.00000000000E+00 -0.00000000000E+00 -0.50556929794E+02  0.50556929858E+02  0.25500000000E-02 0. -1.
    5000001    1    1    2    0    0  0.10255688583E+03  0.20408272307E+03  0.54436238900E+03  0.60384359171E+03  0.12700000000E+03 0.  0.
   -5000001    1    1    2    0    0 -0.10255688583E+03 -0.20408272307E+03  0.79941324248E+03  0.84104589943E+03  0.12700000000E+03 0.  0.
<mgrwt>
<rscale>  0 0.53101101E+03</rscale>
<asrwt>0</asrwt>
<pdfrwt beam="1">  1        2 0.19919036E+00 0.53101101E+03</pdfrwt>
<pdfrwt beam="2">  1       -2 0.72224187E-02 0.53101101E+03</pdfrwt>
<totfact> 0.19527103E+03</totfact>
</mgrwt>
</event>
<event>
 4    1  0.2679255E-004  0.3750895E+03  0.7818608E-02  0.1052764E+00
          2   -1    0    0  501    0  0.00000000000E+00  0.00000000000E+00  0.42111665417E+03  0.42111665418E+03  0.25500000000E-02 0.  1.
         -2   -1    0    0    0  501 -0.00000000000E+00 -0.00000000000E+00 -0.83523244802E+02  0.83523244841E+02  0.25500000000E-02 0. -1.
    5000001    1    1    2    0    0  0.13147272865E+03  0.41655254166E+02  0.17535893551E+03  0.25670994301E+03  0.12700000000E+03 0.  0.
   -5000001    1    1    2    0    0 -0.13147272865E+03 -0.41655254166E+02  0.16223447386E+03  0.24792995601E+03  0.12700000000E+03 0.  0.
<mgrwt>
<rscale>  0 0.37508948E+03</rscale>
<asrwt>0</asrwt>
<pdfrwt beam="1">  1        2 0.60159523E-01 0.37508948E+03</pdfrwt>
<pdfrwt beam="2">  1       -2 0.11931892E-01 0.37508948E+03</pdfrwt>
<totfact> 0.41074272E+03</totfact>
</mgrwt>
</event>
<event>
 4    1  0.2679255E-004  0.8249528E+03  0.7818608E-02  0.9524585E-01
          2   -1    0    0  501    0  0.00000000000E+00  0.00000000000E+00  0.24386687594E+03  0.24386687596E+03  0.25500000000E-02 0.  1.
         -2   -1    0    0    0  501 -0.00000000000E+00 -0.00000000000E+00 -0.69766252633E+03  0.69766252633E+03  0.25500000000E-02 0. -1.
    5000001    1    1    2    0    0  0.22947884191E+03 -0.27915654945E+03 -0.52240145385E+02  0.38658369181E+03  0.12700000000E+03 0.  0.
   -5000001    1    1    2    0    0 -0.22947884191E+03  0.27915654945E+03 -0.40155550500E+03  0.55494571048E+03  0.12700000000E+03 0.  0.
<mgrwt>
<rscale>  0 0.82495280E+03</rscale>
<asrwt>0</asrwt>
<pdfrwt beam="1">  1        2 0.34838125E-01 0.82495280E+03</pdfrwt>
<pdfrwt beam="2">  1       -2 0.99666075E-01 0.82495280E+03</pdfrwt>
<totfact> 0.12598151E+02</totfact>
</mgrwt>
</event>
<event>
 4    1  0.2679255E-004  0.4804408E+03  0.7818608E-02  0.1019014E+00
         -2   -1    0    0    0  501 -0.00000000000E+00  0.00000000000E+00  0.20267711179E+03  0.20267711180E+03  0.25500000000E-02 0. -1.
          2   -1    0    0  501    0  0.00000000000E+00 -0.00000000000E+00 -0.28471811116E+03  0.28471811117E+03  0.25500000000E-02 0.  1.
    5000001    1    1    2    0    0  0.86665956987E+01  0.17500497245E+03  0.64772246069E+02  0.22589000448E+03  0.12700000000E+03 0.  0.
   -5000001    1    1    2    0    0 -0.86665956987E+01 -0.17500497245E+03 -0.14681324544E+03  0.26150521850E+03  0.12700000000E+03 0.  0.
<mgrwt>
<rscale>  0 0.48044082E+03</rscale>
<asrwt>0</asrwt>
<pdfrwt beam="1">  1        2 0.40674016E-01 0.48044082E+03</pdfrwt>
<pdfrwt beam="2">  1       -2 0.28953873E-01 0.48044082E+03</pdfrwt>
<totfact> 0.13802659E+03</totfact>
</mgrwt>
</event>
<event>
 4    1  0.2679255E-004  0.4764026E+03  0.7818608E-02  0.1020129E+00
         -2   -1    0    0    0  501 -0.00000000000E+00  0.00000000000E+00  0.17784276694E+03  0.17784276696E+03  0.25500000000E-02 0. -1.
          2   -1    0    0  501    0  0.00000000000E+00 -0.00000000000E+00 -0.31904506335E+03  0.31904506336E+03  0.25500000000E-02 0.  1.
    5000001    1    1    2    0    0  0.13792595398E+03 -0.96076842476E+02  0.45338634667E+02  0.21549691468E+03  0.12700000000E+03 0.  0.
   -5000001    1    1    2    0    0 -0.13792595398E+03  0.96076842476E+02 -0.18654093108E+03  0.28139091565E+03  0.12700000000E+03 0.  0.
<mgrwt>
<rscale>  0 0.47640259E+03</rscale>
<asrwt>0</asrwt>
<pdfrwt beam="1">  1        2 0.45577866E-01 0.47640259E+03</pdfrwt>
<pdfrwt beam="2">  1       -2 0.25406110E-01 0.47640259E+03</pdfrwt>
<totfact> 0.15433299E+03</totfact>
</mgrwt>
</event>
<event>
 4    1  0.2679255E-004  0.5090578E+03  0.7818608E-02  0.1011441E+00
          2   -1    0    0  501    0  0.00000000000E+00  0.00000000000E+00  0.13376386724E+04  0.13376386724E+04  0.25500000000E-02 0.  1.
         -2   -1    0    0    0  501 -0.00000000000E+00 -0.00000000000E+00 -0.48432338307E+02  0.48432338374E+02  0.25500000000E-02 0. -1.
    5000001    1    1    2    0    0  0.18207354823E+03 -0.73201513069E+02  0.91887513083E+03  0.94814015026E+03  0.12700000000E+03 0.  0.
   -5000001    1    1    2    0    0 -0.18207354823E+03  0.73201513069E+02  0.37033120325E+03  0.43793086050E+03  0.12700000000E+03 0.  0.
<mgrwt>
<rscale>  0 0.50905783E+03</rscale>
<asrwt>0</asrwt>
<pdfrwt beam="1">  1        2 0.19109125E+00 0.50905783E+03</pdfrwt>
<pdfrwt beam="2">  1       -2 0.69189051E-02 0.50905783E+03</pdfrwt>
<totfact> 0.22406845E+03</totfact>
</mgrwt>
</event>
<event>
 4    1  0.2679255E-004  0.3276347E+03  0.7818608E-02  0.1072188E+00
         -2   -1    0    0    0  501 -0.00000000000E+00  0.00000000000E+00  0.16751177674E+02  0.16751177868E+02  0.25500000000E-02 0. -1.
          2   -1    0    0  501    0  0.00000000000E+00 -0.00000000000E+00 -0.16020439644E+04  0.16020439644E+04  0.25500000000E-02 0.  1.
    5000001    1    1    2    0    0 -0.97663066082E+02 -0.77314905409E+01 -0.95720522493E+03  0.97055071638E+03  0.12700000000E+03 0.  0.
   -5000001    1    1    2    0    0  0.97663066082E+02  0.77314905409E+01 -0.62808756181E+03  0.64824442591E+03  0.12700000000E+03 0.  0.
<mgrwt>
<rscale>  0 0.32763469E+03</rscale>
<asrwt>0</asrwt>
<pdfrwt beam="1">  1        2 0.22886333E+00 0.32763469E+03</pdfrwt>
<pdfrwt beam="2">  1       -2 0.23930264E-02 0.32763469E+03</pdfrwt>
<totfact> 0.82451968E+03</totfact>
</mgrwt>
</event>
<event>
 4    1  0.2679255E-004  0.4688844E+03  0.7818608E-02  0.1022236E+00
          2   -1    0    0  501    0  0.00000000000E+00  0.00000000000E+00  0.46370136092E+03  0.46370136092E+03  0.25500000000E-02 0.  1.
         -2   -1    0    0    0  501 -0.00000000000E+00 -0.00000000000E+00 -0.11853134254E+03  0.11853134257E+03  0.25500000000E-02 0. -1.
    5000001    1    1    2    0    0 -0.15528986178E+03  0.11507943175E+03  0.22028995534E+03  0.31939768503E+03  0.12700000000E+03 0.  0.
   -5000001    1    1    2    0    0  0.15528986178E+03 -0.11507943175E+03  0.12488006304E+03  0.26283501846E+03  0.12700000000E+03 0.  0.
<mgrwt>
<rscale>  0 0.46888440E+03</rscale>
<asrwt>0</asrwt>
<pdfrwt beam="1">  1        2 0.66243051E-01 0.46888440E+03</pdfrwt>
<pdfrwt beam="2">  1       -2 0.16933049E-01 0.46888440E+03</pdfrwt>
<totfact> 0.20711898E+03</totfact>
</mgrwt>
</event>
<event>
 4    1  0.2679255E-004  0.6654808E+03  0.7818608E-02  0.9778156E-01
         -2   -1    0    0    0  501 -0.00000000000E+00  0.00000000000E+00  0.84722569435E+02  0.84722569473E+02  0.25500000000E-02 0. -1.
          2   -1    0    0  501    0  0.00000000000E+00 -0.00000000000E+00 -0.13068086643E+04  0.13068086643E+04  0.25500000000E-02 0.  1.
    5000001    1    1    2    0    0  0.14738798432E+03  0.23238879105E+03 -0.32388462157E+03  0.44357413836E+03  0.12700000000E+03 0.  0.
   -5000001    1    1    2    0    0 -0.14738798432E+03 -0.23238879105E+03 -0.89820147325E+03  0.94795709538E+03  0.12700000000E+03 0.  0.
<mgrwt>
<rscale>  0 0.66548084E+03</rscale>
<asrwt>0</asrwt>
<pdfrwt beam="1">  1        2 0.18668694E+00 0.66548084E+03</pdfrwt>
<pdfrwt beam="2">  1       -2 0.12103225E-01 0.66548084E+03</pdfrwt>
<totfact> 0.94235272E+02</totfact>
</mgrwt>
</event>
<event>
 4    1  0.2679255E-004  0.6947259E+03  0.7818608E-02  0.9726294E-01
         -2   -1    0    0    0  501 -0.00000000000E+00  0.00000000000E+00  0.12639345437E+03  0.12639345439E+03  0.25500000000E-02 0. -1.
          2   -1    0    0  501    0  0.00000000000E+00 -0.00000000000E+00 -0.95464601354E+03  0.95464601355E+03  0.25500000000E-02 0.  1.
    5000001    1    1    2    0    0 -0.97657861752E+02 -0.30705866552E+03 -0.37266579088E+03  0.50875423706E+03  0.12700000000E+03 0.  0.
   -5000001    1    1    2    0    0  0.97657861752E+02  0.30705866552E+03 -0.45558676830E+03  0.57228523088E+03  0.12700000000E+03 0.  0.
<mgrwt>
<rscale>  0 0.69472587E+03</rscale>
<asrwt>0</asrwt>
<pdfrwt beam="1">  1        2 0.13637800E+00 0.69472587E+03</pdfrwt>
<pdfrwt beam="2">  1       -2 0.18056208E-01 0.69472587E+03</pdfrwt>
<totfact> 0.76778498E+02</totfact>
</mgrwt>
</event>
<event>
 4    1  0.2679255E-004  0.5923377E+03  0.7818608E-02  0.9921432E-01
         -2   -1    0    0    0  501 -0.00000000000E+00  0.00000000000E+00  0.78203501873E+02  0.78203501915E+02  0.25500000000E-02 0. -1.
          2   -1    0    0  501    0  0.00000000000E+00 -0.00000000000E+00 -0.11216377677E+04  0.11216377677E+04  0.25500000000E-02 0.  1.
    5000001    1    1    2    0    0 -0.13593427501E+03 -0.66275781644E+02 -0.74630218596E+02  0.21111436683E+03  0.12700000000E+03 0.  0.
   -5000001    1    1    2    0    0  0.13593427501E+03  0.66275781644E+02 -0.96880404722E+03  0.98872690277E+03  0.12700000000E+03 0.  0.
<mgrwt>
<rscale>  0 0.59233775E+03</rscale>
<asrwt>0</asrwt>
<pdfrwt beam="1">  1        2 0.16023396E+00 0.59233775E+03</pdfrwt>
<pdfrwt beam="2">  1       -2 0.11171930E-01 0.59233775E+03</pdfrwt>
<totfact> 0.13674109E+03</totfact>
</mgrwt>
</event>
<event>
 4    1  0.2679255E-004  0.4380360E+03  0.7818608E-02  0.1031351E+00
          2   -1    0    0  501    0  0.00000000000E+00  0.00000000000E+00  0.69791247728E+03  0.69791247728E+03  0.25500000000E-02 0.  1.
         -2   -1    0    0    0  501 -0.00000000000E+00 -0.00000000000E+00 -0.68731935229E+02  0.68731935276E+02  0.25500000000E-02 0. -1.
    5000001    1    1    2    0    0 -0.10583232511E+03 -0.14102887630E+03  0.36252908394E+03  0.42266530694E+03  0.12700000000E+03 0.  0.
   -5000001    1    1    2    0    0  0.10583232511E+03  0.14102887630E+03  0.26665145811E+03  0.34397910562E+03  0.12700000000E+03 0.  0.
<mgrwt>
<rscale>  0 0.43803596E+03</rscale>
<asrwt>0</asrwt>
<pdfrwt beam="1">  1        2 0.99701789E-01 0.43803596E+03</pdfrwt>
<pdfrwt beam="2">  1       -2 0.98188472E-02 0.43803596E+03</pdfrwt>
<totfact> 0.31684901E+03</totfact>
</mgrwt>
</event>
<event>
 4    1  0.2679255E-004  0.3435132E+03  0.7818608E-02  0.1065309E+00
          2   -1    0    0  501    0  0.00000000000E+00  0.00000000000E+00  0.15535144442E+04  0.15535144442E+04  0.25500000000E-02 0.  1.
         -2   -1    0    0    0  501 -0.00000000000E+00 -0.00000000000E+00 -0.18989416414E+02  0.18989416585E+02  0.25500000000E-02 0. -1.
    5000001    1    1    2    0    0 -0.40666959006E+02  0.10731388132E+03  0.70231996754E+03  0.72287786485E+03  0.12700000000E+03 0.  0.
   -5000001    1    1    2    0    0  0.40666959006E+02 -0.10731388132E+03  0.83220506023E+03  0.84962599592E+03  0.12700000000E+03 0.  0.
<mgrwt>
<rscale>  0 0.34351322E+03</rscale>
<asrwt>0</asrwt>
<pdfrwt beam="1">  1        2 0.22193071E+00 0.34351322E+03</pdfrwt>
<pdfrwt beam="2">  1       -2 0.27127729E-02 0.34351322E+03</pdfrwt>
<totfact> 0.72409240E+03</totfact>
</mgrwt>
</event>
<event>
 4    1  0.2679255E-004  0.2996292E+03  0.7818608E-02  0.1085426E+00
         -2   -1    0    0    0  501 -0.00000000000E+00  0.00000000000E+00  0.16193808732E+02  0.16193808933E+02  0.25500000000E-02 0. -1.
          2   -1    0    0  501    0  0.00000000000E+00 -0.00000000000E+00 -0.13859871999E+04  0.13859871999E+04  0.25500000000E-02 0.  1.
    5000001    1    1    2    0    0 -0.53989217612E+02  0.54193531697E+02 -0.58413182775E+03  0.60265310643E+03  0.12700000000E+03 0.  0.
   -5000001    1    1    2    0    0  0.53989217612E+02 -0.54193531697E+02 -0.78566156338E+03  0.79952790237E+03  0.12700000000E+03 0.  0.
<mgrwt>
<rscale>  0 0.29962918E+03</rscale>
<asrwt>0</asrwt>
<pdfrwt beam="1">  1        2 0.19799810E+00 0.29962918E+03</pdfrwt>
<pdfrwt beam="2">  1       -2 0.23134021E-02 0.29962918E+03</pdfrwt>
<totfact> 0.11147216E+04</totfact>
</mgrwt>
</event>
<event>
 4    1  0.2679255E-004  0.3596866E+03  0.7818608E-02  0.1058708E+00
         -2   -1    0    0    0  501 -0.00000000000E+00  0.00000000000E+00  0.66335266292E+03  0.66335266293E+03  0.25500000000E-02 0. -1.
          2   -1    0    0  501    0  0.00000000000E+00 -0.00000000000E+00 -0.48757804395E+02  0.48757804461E+02  0.25500000000E-02 0.  1.
    5000001    1    1    2    0    0  0.64768932949E+02 -0.72074771495E+02  0.14374046202E+03  0.21489557413E+03  0.12700000000E+03 0.  0.
   -5000001    1    1    2    0    0 -0.64768932949E+02  0.72074771495E+02  0.47085439651E+03  0.49721489325E+03  0.12700000000E+03 0.  0.
<mgrwt>
<rscale>  0 0.35968664E+03</rscale>
<asrwt>0</asrwt>
<pdfrwt beam="1">  1        2 0.69654007E-02 0.35968664E+03</pdfrwt>
<pdfrwt beam="2">  1       -2 0.94764665E-01 0.35968664E+03</pdfrwt>
<totfact> 0.99425008E+02</totfact>
</mgrwt>
</event>
<event>
 4    1  0.2679255E-004  0.2785102E+03  0.7818608E-02  0.1096505E+00
         -2   -1    0    0    0  501 -0.00000000000E+00  0.00000000000E+00  0.15519471196E+02  0.15519471405E+02  0.25500000000E-02 0. -1.
          2   -1    0    0  501    0  0.00000000000E+00 -0.00000000000E+00 -0.12495257510E+04  0.12495257510E+04  0.25500000000E-02 0.  1.
    5000001    1    1    2    0    0 -0.55456058475E+02 -0.12215678377E+02 -0.58886290336E+03  0.60507281890E+03  0.12700000000E+03 0.  0.
   -5000001    1    1    2    0    0  0.55456058475E+02  0.12215678377E+02 -0.64514337643E+03  0.65997240349E+03  0.12700000000E+03 0.  0.
<mgrwt>
<rscale>  0 0.27851017E+03</rscale>
<asrwt>0</asrwt>
<pdfrwt beam="1">  1        2 0.17850361E+00 0.27851017E+03</pdfrwt>
<pdfrwt beam="2">  1       -2 0.22170681E-02 0.27851017E+03</pdfrwt>
<totfact> 0.13973213E+04</totfact>
</mgrwt>
</event>
<event>
 4    1  0.2679255E-004  0.4654443E+03  0.7818608E-02  0.1023214E+00
         -2   -1    0    0    0  501 -0.00000000000E+00  0.00000000000E+00  0.33211573410E+02  0.33211573508E+02  0.25500000000E-02 0. -1.
          2   -1    0    0  501    0  0.00000000000E+00 -0.00000000000E+00 -0.16307448720E+04  0.16307448720E+04  0.25500000000E-02 0.  1.
    5000001    1    1    2    0    0  0.14175535453E+03 -0.13240750331E+03 -0.87064746736E+03  0.90098964472E+03  0.12700000000E+03 0.  0.
   -5000001    1    1    2    0    0 -0.14175535453E+03  0.13240750331E+03 -0.72688583125E+03  0.76296680081E+03  0.12700000000E+03 0.  0.
<mgrwt>
<rscale>  0 0.46544432E+03</rscale>
<asrwt>0</asrwt>
<pdfrwt beam="1">  1        2 0.23296350E+00 0.46544432E+03</pdfrwt>
<pdfrwt beam="2">  1       -2 0.47445115E-02 0.46544432E+03</pdfrwt>
<totfact> 0.28392534E+03</totfact>
</mgrwt>
</event>
<event>
 4    1  0.2679255E-004  0.3468110E+03  0.7818608E-02  0.1063932E+00
         -2   -1    0    0    0  501 -0.00000000000E+00  0.00000000000E+00  0.19899095476E+03  0.19899095477E+03  0.25500000000E-02 0. -1.
          2   -1    0    0  501    0  0.00000000000E+00 -0.00000000000E+00 -0.15110972220E+03  0.15110972223E+03  0.25500000000E-02 0.  1.
    5000001    1    1    2    0    0 -0.45874182843E+02  0.10867928930E+03  0.28971797861E+02  0.17573842393E+03  0.12700000000E+03 0.  0.
   -5000001    1    1    2    0    0  0.45874182843E+02 -0.10867928930E+03  0.18909434694E+02  0.17436225307E+03  0.12700000000E+03 0.  0.
<mgrwt>
<rscale>  0 0.34681100E+03</rscale>
<asrwt>0</asrwt>
<pdfrwt beam="1">  1        2 0.21587103E-01 0.34681100E+03</pdfrwt>
<pdfrwt beam="2">  1       -2 0.28427279E-01 0.34681100E+03</pdfrwt>
<totfact> 0.28809796E+03</totfact>
</mgrwt>
</event>
<event>
 4    1  0.2679255E-004  0.3884025E+03  0.7818608E-02  0.1047871E+00
          2   -1    0    0  501    0  0.00000000000E+00  0.00000000000E+00  0.30546534230E+03  0.30546534231E+03  0.25500000000E-02 0.  1.
         -2   -1    0    0    0  501 -0.00000000000E+00 -0.00000000000E+00 -0.12346448666E+03  0.12346448669E+03  0.25500000000E-02 0. -1.
    5000001    1    1    2    0    0 -0.11387577021E+03 -0.84668403573E+02  0.48967242925E+02  0.19662965311E+03  0.12700000000E+03 0.  0.
   -5000001    1    1    2    0    0  0.11387577021E+03  0.84668403573E+02  0.13303361271E+03  0.23230017588E+03  0.12700000000E+03 0.  0.
<mgrwt>
<rscale>  0 0.38840248E+03</rscale>
<asrwt>0</asrwt>
<pdfrwt beam="1">  1        2 0.43637906E-01 0.38840248E+03</pdfrwt>
<pdfrwt beam="2">  1       -2 0.17637784E-01 0.38840248E+03</pdfrwt>
<totfact> 0.30492348E+03</totfact>
</mgrwt>
</event>
<event>
 4    1  0.2679255E-004  0.2756150E+03  0.7818608E-02  0.1098108E+00
          2   -1    0    0  501    0  0.00000000000E+00  0.00000000000E+00  0.55822890275E+03  0.55822890276E+03  0.25500000000E-02 0.  1.
         -2   -1    0    0    0  501 -0.00000000000E+00 -0.00000000000E+00 -0.34019928041E+02  0.34019928137E+02  0.25500000000E-02 0. -1.
    5000001    1    1    2    0    0  0.51640451812E+02  0.13768045905E+02  0.25701408973E+03  0.29161882256E+03  0.12700000000E+03 0.  0.
   -5000001    1    1    2    0    0 -0.51640451812E+02 -0.13768045905E+02  0.26719488498E+03  0.30063000834E+03  0.12700000000E+03 0.  0.
<mgrwt>
<rscale>  0 0.27561500E+03</rscale>
<asrwt>0</asrwt>
<pdfrwt beam="1">  1        2 0.79746976E-01 0.27561500E+03</pdfrwt>
<pdfrwt beam="2">  1       -2 0.48599903E-02 0.27561500E+03</pdfrwt>
<totfact> 0.12150189E+04</totfact>
</mgrwt>
</event>
<event>
 4    1  0.2679255E-004  0.2993509E+03  0.7818608E-02  0.1085566E+00
          2   -1    0    0  501    0  0.00000000000E+00  0.00000000000E+00  0.74969900559E+03  0.74969900560E+03  0.25500000000E-02 0.  1.
         -2   -1    0    0    0  501 -0.00000000000E+00 -0.00000000000E+00 -0.29882309380E+02  0.29882309489E+02  0.25500000000E-02 0. -1.
    5000001    1    1    2    0    0 -0.13488661401E+02 -0.77955471003E+02  0.34991057042E+03  0.38055933405E+03  0.12700000000E+03 0.  0.
   -5000001    1    1    2    0    0  0.13488661401E+02  0.77955471003E+02  0.36990612579E+03  0.39902198103E+03  0.12700000000E+03 0.  0.
<mgrwt>
<rscale>  0 0.29935088E+03</rscale>
<asrwt>0</asrwt>
<pdfrwt beam="1">  1        2 0.10709984E+00 0.29935088E+03</pdfrwt>
<pdfrwt beam="2">  1       -2 0.42689019E-02 0.29935088E+03</pdfrwt>
<totfact> 0.10517115E+04</totfact>
</mgrwt>
</event>
<event>
 4    1  0.2679255E-004  0.3309858E+03  0.7818608E-02  0.1070701E+00
         -2   -1    0    0    0  501 -0.00000000000E+00  0.00000000000E+00  0.41784619058E+02  0.41784619136E+02  0.25500000000E-02 0. -1.
          2   -1    0    0  501    0  0.00000000000E+00 -0.00000000000E+00 -0.65545426181E+03  0.65545426182E+03  0.25500000000E-02 0.  1.
    5000001    1    1    2    0    0 -0.54586771919E+02  0.88411168123E+02 -0.35214559175E+03  0.38849937981E+03  0.12700000000E+03 0.  0.
   -5000001    1    1    2    0    0  0.54586771919E+02 -0.88411168123E+02 -0.26152405100E+03  0.30873950115E+03  0.12700000000E+03 0.  0.
<mgrwt>
<rscale>  0 0.33098584E+03</rscale>
<asrwt>0</asrwt>
<pdfrwt beam="1">  1        2 0.93636317E-01 0.33098584E+03</pdfrwt>
<pdfrwt beam="2">  1       -2 0.59692317E-02 0.33098584E+03</pdfrwt>
<totfact> 0.74260458E+03</totfact>
</mgrwt>
</event>
<event>
 4    1  0.2679255E-004  0.4936113E+03  0.7818608E-02  0.1015460E+00
         -2   -1    0    0    0  501 -0.00000000000E+00  0.00000000000E+00  0.20837996781E+02  0.20837996937E+02  0.25500000000E-02 0. -1.
          2   -1    0    0  501    0  0.00000000000E+00 -0.00000000000E+00 -0.29231705114E+04  0.29231705114E+04  0.25500000000E-02 0.  1.
    5000001    1    1    2    0    0 -0.16003020102E+03  0.73024214682E+02 -0.74946774695E+03  0.78023913314E+03  0.12700000000E+03 0.  0.
   -5000001    1    1    2    0    0  0.16003020102E+03 -0.73024214682E+02 -0.21528647677E+04  0.21637693752E+04  0.12700000000E+03 0.  0.
<mgrwt>
<rscale>  0 0.49361126E+03</rscale>
<asrwt>0</asrwt>
<pdfrwt beam="1">  1        2 0.41759553E+00 0.49361126E+03</pdfrwt>
<pdfrwt beam="2">  1       -2 0.29768586E-02 0.49361126E+03</pdfrwt>
<totfact> 0.12729039E+03</totfact>
</mgrwt>
</event>
<event>
 4    1  0.2679255E-004  0.2670330E+03  0.7818608E-02  0.1102990E+00
         -2   -1    0    0    0  501 -0.00000000000E+00  0.00000000000E+00  0.80430056444E+01  0.80430060486E+01  0.25500000000E-02 0. -1.
          2   -1    0    0  501    0  0.00000000000E+00 -0.00000000000E+00 -0.22164171410E+04  0.22164171410E+04  0.25500000000E-02 0.  1.
    5000001    1    1    2    0    0  0.36905078150E+02 -0.15832528553E+02 -0.10273846377E+04  0.10359830344E+04  0.12700000000E+03 0.  0.
   -5000001    1    1    2    0    0 -0.36905078150E+02  0.15832528553E+02 -0.11809894976E+04  0.11884771126E+04  0.12700000000E+03 0.  0.
<mgrwt>
<rscale>  0 0.26703300E+03</rscale>
<asrwt>0</asrwt>
<pdfrwt beam="1">  1        2 0.31663063E+00 0.26703300E+03</pdfrwt>
<pdfrwt beam="2">  1       -2 0.11490023E-02 0.26703300E+03</pdfrwt>
<totfact> 0.12052985E+04</totfact>
</mgrwt>
</event>
<event>
 4    1  0.2679255E-004  0.3063052E+03  0.7818608E-02  0.1082131E+00
          2   -1    0    0  501    0  0.00000000000E+00  0.00000000000E+00  0.13267931687E+04  0.13267931687E+04  0.25500000000E-02 0.  1.
         -2   -1    0    0    0  501 -0.00000000000E+00 -0.00000000000E+00 -0.17678503119E+02  0.17678503303E+02  0.25500000000E-02 0. -1.
    5000001    1    1    2    0    0  0.23172895394E+02  0.49889172521E+02  0.36670340423E+03  0.39195190941E+03  0.12700000000E+03 0.  0.
   -5000001    1    1    2    0    0 -0.23172895394E+02 -0.49889172521E+02  0.94241126137E+03  0.95251976261E+03  0.12700000000E+03 0.  0.
<mgrwt>
<rscale>  0 0.30630519E+03</rscale>
<asrwt>0</asrwt>
<pdfrwt beam="1">  1        2 0.18954186E+00 0.30630519E+03</pdfrwt>
<pdfrwt beam="2">  1       -2 0.25255008E-02 0.30630519E+03</pdfrwt>
<totfact> 0.10514502E+04</totfact>
</mgrwt>
</event>
<event>
 4    1  0.2679255E-004  0.3379706E+03  0.7818608E-02  0.1067664E+00
          2   -1    0    0  501    0  0.00000000000E+00  0.00000000000E+00  0.42245468216E+03  0.42245468217E+03  0.25500000000E-02 0.  1.
         -2   -1    0    0    0  501 -0.00000000000E+00 -0.00000000000E+00 -0.67595506104E+02  0.67595506152E+02  0.25500000000E-02 0. -1.
    5000001    1    1    2    0    0  0.83966260579E+02  0.84045261470E+01  0.71809131873E+02  0.16854234007E+03  0.12700000000E+03 0.  0.
   -5000001    1    1    2    0    0 -0.83966260579E+02 -0.84045261470E+01  0.28305004418E+03  0.32150784825E+03  0.12700000000E+03 0.  0.
<mgrwt>
<rscale>  0 0.33797064E+03</rscale>
<asrwt>0</asrwt>
<pdfrwt beam="1">  1        2 0.60350671E-01 0.33797064E+03</pdfrwt>
<pdfrwt beam="2">  1       -2 0.96565006E-02 0.33797064E+03</pdfrwt>
<totfact> 0.57394398E+03</totfact>
</mgrwt>
</event>
<event>
 4    1  0.2679255E-004  0.7859657E+03  0.7818608E-02  0.9580556E-01
          2   -1    0    0  501    0  0.00000000000E+00  0.00000000000E+00  0.26287542093E+04  0.26287542093E+04  0.25500000000E-02 0.  1.
         -2   -1    0    0    0  501 -0.00000000000E+00 -0.00000000000E+00 -0.58748564680E+02  0.58748564736E+02  0.25500000000E-02 0. -1.
    5000001    1    1    2    0    0  0.14001773268E+03  0.33716261090E+03  0.10426631473E+04  0.11120067583E+04  0.12700000000E+03 0.  0.
   -5000001    1    1    2    0    0 -0.14001773268E+03 -0.33716261090E+03  0.15273424973E+04  0.15754960158E+04  0.12700000000E+03 0.  0.
<mgrwt>
<rscale>  0 0.78596574E+03</rscale>
<asrwt>0</asrwt>
<pdfrwt beam="1">  1        2 0.37553630E+00 0.78596574E+03</pdfrwt>
<pdfrwt beam="2">  1       -2 0.83926524E-02 0.78596574E+03</pdfrwt>
<totfact> 0.35444789E+02</totfact>
</mgrwt>
</event>
<event>
 4    1  0.2679255E-004  0.3273444E+03  0.7818608E-02  0.1072318E+00
          2   -1    0    0  501    0  0.00000000000E+00  0.00000000000E+00  0.38038010104E+03  0.38038010105E+03  0.25500000000E-02 0.  1.
         -2   -1    0    0    0  501 -0.00000000000E+00 -0.00000000000E+00 -0.70425836758E+02  0.70425836804E+02  0.25500000000E-02 0. -1.
    5000001    1    1    2    0    0  0.73865075724E+01  0.10101965714E+03  0.12743200767E+03  0.20646415718E+03  0.12700000000E+03 0.  0.
   -5000001    1    1    2    0    0 -0.73865075724E+01 -0.10101965714E+03  0.18252225661E+03  0.24434178067E+03  0.12700000000E+03 0.  0.
<mgrwt>
<rscale>  0 0.32734439E+03</rscale>
<asrwt>0</asrwt>
<pdfrwt beam="1">  1        2 0.54340016E-01 0.32734439E+03</pdfrwt>
<pdfrwt beam="2">  1       -2 0.10060834E-01 0.32734439E+03</pdfrwt>
<totfact> 0.60212449E+03</totfact>
</mgrwt>
</event>
<event>
 4    1  0.2679255E-004  0.3919629E+03  0.7818608E-02  0.1046599E+00
          2   -1    0    0  501    0  0.00000000000E+00  0.00000000000E+00  0.72773304415E+03  0.72773304415E+03  0.25500000000E-02 0.  1.
         -2   -1    0    0    0  501 -0.00000000000E+00 -0.00000000000E+00 -0.52778603590E+02  0.52778603652E+02  0.25500000000E-02 0. -1.
    5000001    1    1    2    0    0 -0.13557382375E+03 -0.25941365559E+02  0.22436710981E+03  0.29244284244E+03  0.12700000000E+03 0.  0.
   -5000001    1    1    2    0    0  0.13557382375E+03  0.25941365559E+02  0.45058733075E+03  0.48806880536E+03  0.12700000000E+03 0.  0.
<mgrwt>
<rscale>  0 0.39196293E+03</rscale>
<asrwt>0</asrwt>
<pdfrwt beam="1">  1        2 0.10396185E+00 0.39196293E+03</pdfrwt>
<pdfrwt beam="2">  1       -2 0.75398012E-02 0.39196293E+03</pdfrwt>
<totfact> 0.45738031E+03</totfact>
</mgrwt>
</event>
<event>
 4    1  0.2679255E-004  0.3284759E+03  0.7818608E-02  0.1071813E+00
          2   -1    0    0  501    0  0.00000000000E+00  0.00000000000E+00  0.23411683981E+03  0.23411683982E+03  0.25500000000E-02 0.  1.
         -2   -1    0    0    0  501 -0.00000000000E+00 -0.00000000000E+00 -0.11521644488E+03  0.11521644491E+03  0.25500000000E-02 0. -1.
    5000001    1    1    2    0    0 -0.95308794278E+02 -0.35005677652E+02  0.34829688569E+02  0.16628671306E+03  0.12700000000E+03 0.  0.
   -5000001    1    1    2    0    0  0.95308794278E+02  0.35005677652E+02  0.84070706352E+02  0.18304657167E+03  0.12700000000E+03 0.  0.
<mgrwt>
<rscale>  0 0.32847594E+03</rscale>
<asrwt>0</asrwt>
<pdfrwt beam="1">  1        2 0.33445263E-01 0.32847594E+03</pdfrwt>
<pdfrwt beam="2">  1       -2 0.16459492E-01 0.32847594E+03</pdfrwt>
<totfact> 0.45621697E+03</totfact>
</mgrwt>
</event>
<event>
 4    1  0.2679255E-004  0.7409672E+03  0.7818608E-02  0.9649629E-01
         -2   -1    0    0    0  501 -0.00000000000E+00  0.00000000000E+00  0.83051624239E+02  0.83051624278E+02  0.25500000000E-02 0. -1.
          2   -1    0    0  501    0  0.00000000000E+00 -0.00000000000E+00 -0.16526839578E+04  0.16526839578E+04  0.25500000000E-02 0.  1.
    5000001    1    1    2    0    0 -0.25536931684E+03 -0.23646473225E+03 -0.78441376712E+03  0.86750389949E+03  0.12700000000E+03 0.  0.
   -5000001    1    1    2    0    0  0.25536931684E+03  0.23646473225E+03 -0.78521856648E+03  0.86823168263E+03  0.12700000000E+03 0.  0.
<mgrwt>
<rscale>  0 0.74096717E+03</rscale>
<asrwt>0</asrwt>
<pdfrwt beam="1">  1        2 0.23609769E+00 0.74096717E+03</pdfrwt>
<pdfrwt beam="2">  1       -2 0.11864519E-01 0.74096717E+03</pdfrwt>
<totfact> 0.63777993E+02</totfact>
</mgrwt>
</event>
<event>
 4    1  0.2679255E-004  0.3140685E+03  0.7818608E-02  0.1078412E+00
          2   -1    0    0  501    0  0.00000000000E+00  0.00000000000E+00  0.87512026673E+03  0.87512026674E+03  0.25500000000E-02 0.  1.
         -2   -1    0    0    0  501 -0.00000000000E+00 -0.00000000000E+00 -0.28178700767E+02  0.28178700882E+02  0.25500000000E-02 0. -1.
    5000001    1    1    2    0    0 -0.51641081366E+02  0.67970536056E+02  0.52491093021E+03  0.54676071522E+03  0.12700000000E+03 0.  0.
   -5000001    1    1    2    0    0  0.51641081366E+02 -0.67970536056E+02  0.32203063576E+03  0.35653825240E+03  0.12700000000E+03 0.  0.
<mgrwt>
<rscale>  0 0.31406848E+03</rscale>
<asrwt>0</asrwt>
<pdfrwt beam="1">  1        2 0.12501716E+00 0.31406848E+03</pdfrwt>
<pdfrwt beam="2">  1       -2 0.40255292E-02 0.31406848E+03</pdfrwt>
<totfact> 0.94862641E+03</totfact>
</mgrwt>
</event>
<event>
 4    1  0.2679255E-004  0.3911136E+03  0.7818608E-02  0.1046901E+00
          2   -1    0    0  501    0  0.00000000000E+00  0.00000000000E+00  0.31605909782E+04  0.31605909782E+04  0.25500000000E-02 0.  1.
         -2   -1    0    0    0  501 -0.00000000000E+00 -0.00000000000E+00 -0.12099779586E+02  0.12099779855E+02  0.25500000000E-02 0. -1.
    5000001    1    1    2    0    0 -0.13909853278E+02  0.11884095290E+03  0.85796527157E+03  0.87552844804E+03  0.12700000000E+03 0.  0.
   -5000001    1    1    2    0    0  0.13909853278E+02 -0.11884095290E+03  0.22905259271E+04  0.22971623100E+04  0.12700000000E+03 0.  0.
<mgrwt>
<rscale>  0 0.39111356E+03</rscale>
<asrwt>0</asrwt>
<pdfrwt beam="1">  1        2 0.45151343E+00 0.39111356E+03</pdfrwt>
<pdfrwt beam="2">  1       -2 0.17285383E-02 0.39111356E+03</pdfrwt>
<totfact> 0.21545336E+03</totfact>
</mgrwt>
</event>
<event>
 4    1  0.2679255E-004  0.3519277E+03  0.7818608E-02  0.1061827E+00
         -2   -1    0    0    0  501 -0.00000000000E+00  0.00000000000E+00  0.15794344704E+02  0.15794344909E+02  0.25500000000E-02 0. -1.
          2   -1    0    0  501    0  0.00000000000E+00 -0.00000000000E+00 -0.19604027924E+04  0.19604027924E+04  0.25500000000E-02 0.  1.
    5000001    1    1    2    0    0  0.11545261112E+03  0.28173307238E+02 -0.11220601374E+04  0.11354606962E+04  0.12700000000E+03 0.  0.
   -5000001    1    1    2    0    0 -0.11545261112E+03 -0.28173307238E+02 -0.82254831033E+03  0.84073644115E+03  0.12700000000E+03 0.  0.
<mgrwt>
<rscale>  0 0.35192771E+03</rscale>
<asrwt>0</asrwt>
<pdfrwt beam="1">  1        2 0.28005739E+00 0.35192771E+03</pdfrwt>
<pdfrwt beam="2">  1       -2 0.22563362E-02 0.35192771E+03</pdfrwt>
<totfact> 0.59825963E+03</totfact>
</mgrwt>
</event>
<event>
 4    1  0.2679255E-004  0.7165346E+03  0.7818608E-02  0.9689366E-01
          2   -1    0    0  501    0  0.00000000000E+00  0.00000000000E+00  0.32589173399E+03  0.32589173400E+03  0.25500000000E-02 0.  1.
         -2   -1    0    0    0  501 -0.00000000000E+00 -0.00000000000E+00 -0.39385918132E+03  0.39385918132E+03  0.25500000000E-02 0. -1.
    5000001    1    1    2    0    0  0.75542842251E+02 -0.32623524845E+03 -0.24438796708E+02  0.35897411206E+03  0.12700000000E+03 0.  0.
   -5000001    1    1    2    0    0 -0.75542842251E+02  0.32623524845E+03 -0.43528650616E+02  0.36077680326E+03  0.12700000000E+03 0.  0.
<mgrwt>
<rscale>  0 0.71653458E+03</rscale>
<asrwt>0</asrwt>
<pdfrwt beam="1">  1        2 0.46555962E-01 0.71653458E+03</pdfrwt>
<pdfrwt beam="2">  1       -2 0.56265597E-01 0.71653458E+03</pdfrwt>
<totfact> 0.32516079E+02</totfact>
</mgrwt>
</event>
<event>
 4    1  0.2679255E-004  0.2919233E+03  0.7818608E-02  0.1089349E+00
          2   -1    0    0  501    0  0.00000000000E+00  0.00000000000E+00  0.66995251864E+03  0.66995251865E+03  0.25500000000E-02 0.  1.
         -2   -1    0    0    0  501 -0.00000000000E+00 -0.00000000000E+00 -0.31800470617E+02  0.31800470720E+02  0.25500000000E-02 0. -1.
    5000001    1    1    2    0    0  0.28809961052E+01 -0.68779795479E+02  0.36931944275E+03  0.39656627592E+03  0.12700000000E+03 0.  0.
   -5000001    1    1    2    0    0 -0.28809961052E+01  0.68779795479E+02  0.26883260527E+03  0.30518671344E+03  0.12700000000E+03 0.  0.
<mgrwt>
<rscale>  0 0.29192331E+03</rscale>
<asrwt>0</asrwt>
<pdfrwt beam="1">  1        2 0.95707493E-01 0.29192331E+03</pdfrwt>
<pdfrwt beam="2">  1       -2 0.45429248E-02 0.29192331E+03</pdfrwt>
<totfact> 0.10938850E+04</totfact>
</mgrwt>
</event>
<event>
 4    1  0.2679255E-004  0.2904075E+03  0.7818608E-02  0.1090137E+00
         -2   -1    0    0    0  501 -0.00000000000E+00  0.00000000000E+00  0.19311494401E+02  0.19311494569E+02  0.25500000000E-02 0. -1.
          2   -1    0    0  501    0  0.00000000000E+00 -0.00000000000E+00 -0.10917915287E+04  0.10917915287E+04  0.25500000000E-02 0.  1.
    5000001    1    1    2    0    0 -0.10616321016E+02  0.35624952962E+02 -0.30753262067E+03  0.33479419995E+03  0.12700000000E+03 0.  0.
   -5000001    1    1    2    0    0  0.10616321016E+02 -0.35624952962E+02 -0.76494741359E+03  0.77630882328E+03  0.12700000000E+03 0.  0.
<mgrwt>
<rscale>  0 0.29040748E+03</rscale>
<asrwt>0</asrwt>
<pdfrwt beam="1">  1        2 0.15597018E+00 0.29040748E+03</pdfrwt>
<pdfrwt beam="2">  1       -2 0.27587856E-02 0.29040748E+03</pdfrwt>
<totfact> 0.12358576E+04</totfact>
</mgrwt>
</event>
<event>
 4    1  0.2679255E-004  0.4890981E+03  0.7818608E-02  0.1016664E+00
          2   -1    0    0  501    0  0.00000000000E+00  0.00000000000E+00  0.71292285255E+03  0.71292285256E+03  0.25500000000E-02 0.  1.
         -2   -1    0    0    0  501 -0.00000000000E+00 -0.00000000000E+00 -0.83886002543E+02  0.83886002582E+02  0.25500000000E-02 0. -1.
    5000001    1    1    2    0    0  0.20822701859E+03  0.16664707560E+02  0.30433865394E+03  0.39036805714E+03  0.12700000000E+03 0.  0.
   -5000001    1    1    2    0    0 -0.20822701859E+03 -0.16664707560E+02  0.32469819607E+03  0.40644079800E+03  0.12700000000E+03 0.  0.
<mgrwt>
<rscale>  0 0.48909814E+03</rscale>
<asrwt>0</asrwt>
<pdfrwt beam="1">  1        2 0.10184612E+00 0.48909814E+03</pdfrwt>
<pdfrwt beam="2">  1       -2 0.11983715E-01 0.48909814E+03</pdfrwt>
<totfact> 0.22368436E+03</totfact>
</mgrwt>
</event>
<event>
 4    1  0.2679255E-004  0.4766483E+03  0.7818608E-02  0.1020060E+00
         -2   -1    0    0    0  501 -0.00000000000E+00  0.00000000000E+00  0.28667165948E+02  0.28667166062E+02  0.25500000000E-02 0. -1.
          2   -1    0    0  501    0  0.00000000000E+00 -0.00000000000E+00 -0.19813048879E+04  0.19813048879E+04  0.25500000000E-02 0.  1.
    5000001    1    1    2    0    0  0.13192508292E+03 -0.14641031929E+03 -0.79596682702E+03  0.82977852396E+03  0.12700000000E+03 0.  0.
   -5000001    1    1    2    0    0 -0.13192508292E+03  0.14641031929E+03 -0.11566708949E+04  0.11801935300E+04  0.12700000000E+03 0.  0.
<mgrwt>
<rscale>  0 0.47664828E+03</rscale>
<asrwt>0</asrwt>
<pdfrwt beam="1">  1        2 0.28304347E+00 0.47664828E+03</pdfrwt>
<pdfrwt beam="2">  1       -2 0.40953107E-02 0.47664828E+03</pdfrwt>
<totfact> 0.23735262E+03</totfact>
</mgrwt>
</event>
<event>
 4    1  0.2679255E-004  0.3650421E+03  0.7818608E-02  0.1056605E+00
          2   -1    0    0  501    0  0.00000000000E+00  0.00000000000E+00  0.23128701852E+03  0.23128701853E+03  0.25500000000E-02 0.  1.
         -2   -1    0    0    0  501 -0.00000000000E+00 -0.00000000000E+00 -0.14403719022E+03  0.14403719024E+03  0.25500000000E-02 0. -1.
    5000001    1    1    2    0    0 -0.24706341249E+01  0.47363815608E+02 -0.82028263368E+02  0.15845210965E+03  0.12700000000E+03 0.  0.
   -5000001    1    1    2    0    0  0.24706341249E+01 -0.47363815608E+02  0.16927809167E+03  0.21687209913E+03  0.12700000000E+03 0.  0.
<mgrwt>
<rscale>  0 0.36504209E+03</rscale>
<asrwt>0</asrwt>
<pdfrwt beam="1">  1        2 0.33041003E-01 0.36504209E+03</pdfrwt>
<pdfrwt beam="2">  1       -2 0.20576741E-01 0.36504209E+03</pdfrwt>
<totfact> 0.31701547E+03</totfact>
</mgrwt>
</event>
<event>
 4    1  0.2679255E-004  0.4377313E+03  0.7818608E-02  0.1031445E+00
          2   -1    0    0  501    0  0.00000000000E+00  0.00000000000E+00  0.11255748562E+04  0.11255748562E+04  0.25500000000E-02 0.  1.
         -2   -1    0    0    0  501 -0.00000000000E+00 -0.00000000000E+00 -0.42557960710E+02  0.42557960786E+02  0.25500000000E-02 0. -1.
    5000001    1    1    2    0    0 -0.14328682699E+03 -0.72671775365E+02  0.33547420039E+03  0.39304483313E+03  0.12700000000E+03 0.  0.
   -5000001    1    1    2    0    0  0.14328682699E+03  0.72671775365E+02  0.74754269513E+03  0.77508798388E+03  0.12700000000E+03 0.  0.
<mgrwt>
<rscale>  0 0.43773129E+03</rscale>
<asrwt>0</asrwt>
<pdfrwt beam="1">  1        2 0.16079639E+00 0.43773129E+03</pdfrwt>
<pdfrwt beam="2">  1       -2 0.60797095E-02 0.43773129E+03</pdfrwt>
<totfact> 0.35895904E+03</totfact>
</mgrwt>
</event>
<event>
 4    1  0.2679255E-004  0.7690993E+03  0.7818608E-02  0.9605854E-01
         -2   -1    0    0    0  501 -0.00000000000E+00  0.00000000000E+00  0.62032745599E+02  0.62032745652E+02  0.25500000000E-02 0. -1.
          2   -1    0    0  501    0  0.00000000000E+00 -0.00000000000E+00 -0.23838770948E+04  0.23838770948E+04  0.25500000000E-02 0.  1.
    5000001    1    1    2    0    0  0.11827684817E+02  0.30452017903E+03 -0.53386891102E+03  0.62770809117E+03  0.12700000000E+03 0.  0.
   -5000001    1    1    2    0    0 -0.11827684817E+02 -0.30452017903E+03 -0.17879754382E+04  0.18182017493E+04  0.12700000000E+03 0.  0.
<mgrwt>
<rscale>  0 0.76909932E+03</rscale>
<asrwt>0</asrwt>
<pdfrwt beam="1">  1        2 0.34055381E+00 0.76909932E+03</pdfrwt>
<pdfrwt beam="2">  1       -2 0.88618223E-02 0.76909932E+03</pdfrwt>
<totfact> 0.43539179E+02</totfact>
</mgrwt>
</event>
<event>
 4    1  0.2679255E-004  0.6186713E+03  0.7818608E-02  0.9867409E-01
         -2   -1    0    0    0  501 -0.00000000000E+00  0.00000000000E+00  0.43799649706E+02  0.43799649780E+02  0.25500000000E-02 0. -1.
          2   -1    0    0  501    0  0.00000000000E+00 -0.00000000000E+00 -0.21846874748E+04  0.21846874748E+04  0.25500000000E-02 0.  1.
    5000001    1    1    2    0    0 -0.16425853021E+03  0.16168257334E+02 -0.18943404690E+04  0.19057536803E+04  0.12700000000E+03 0.  0.
   -5000001    1    1    2    0    0  0.16425853021E+03 -0.16168257334E+02 -0.24654735608E+03  0.32273344432E+03  0.12700000000E+03 0.  0.
<mgrwt>
<rscale>  0 0.61867131E+03</rscale>
<asrwt>0</asrwt>
<pdfrwt beam="1">  1        2 0.31209814E+00 0.61867131E+03</pdfrwt>
<pdfrwt beam="2">  1       -2 0.62570942E-02 0.61867131E+03</pdfrwt>
<totfact> 0.96644920E+02</totfact>
</mgrwt>
</event>
<event>
 4    1  0.2679255E-004  0.3815567E+03  0.7818608E-02  0.1050360E+00
          2   -1    0    0  501    0  0.00000000000E+00  0.00000000000E+00  0.11728229600E+04  0.11728229600E+04  0.25500000000E-02 0.  1.
         -2   -1    0    0    0  501 -0.00000000000E+00 -0.00000000000E+00 -0.31033134291E+02  0.31033134396E+02  0.25500000000E-02 0. -1.
    5000001    1    1    2    0    0 -0.85661888874E+02 -0.80528306733E+02  0.31760745536E+03  0.36169913338E+03  0.12700000000E+03 0.  0.
   -5000001    1    1    2    0    0  0.85661888874E+02  0.80528306733E+02  0.82418237036E+03  0.84215696103E+03  0.12700000000E+03 0.  0.
<mgrwt>
<rscale>  0 0.38155667E+03</rscale>
<asrwt>0</asrwt>
<pdfrwt beam="1">  1        2 0.16754614E+00 0.38155667E+03</pdfrwt>
<pdfrwt beam="2">  1       -2 0.44333047E-02 0.38155667E+03</pdfrwt>
<totfact> 0.54842642E+03</totfact>
</mgrwt>
</event>
<event>
 4    1  0.2679255E-004  0.3664490E+03  0.7818608E-02  0.1056059E+00
         -2   -1    0    0    0  501 -0.00000000000E+00  0.00000000000E+00  0.70422664328E+03  0.70422664329E+03  0.25500000000E-02 0. -1.
          2   -1    0    0  501    0  0.00000000000E+00 -0.00000000000E+00 -0.47671043469E+02  0.47671043537E+02  0.25500000000E-02 0.  1.
    5000001    1    1    2    0    0 -0.12687459070E+03 -0.58576350393E+01  0.25399224839E+03  0.31108284410E+03  0.12700000000E+03 0.  0.
   -5000001    1    1    2    0    0  0.12687459070E+03  0.58576350393E+01  0.40256335143E+03  0.44081484272E+03  0.12700000000E+03 0.  0.
<mgrwt>
<rscale>  0 0.36644901E+03</rscale>
<asrwt>0</asrwt>
<pdfrwt beam="1">  1        2 0.68101486E-02 0.36644901E+03</pdfrwt>
<pdfrwt beam="2">  1       -2 0.10060381E+00 0.36644901E+03</pdfrwt>
<totfact> 0.89134815E+02</totfact>
</mgrwt>
</event>
<event>
 4    1  0.2679255E-004  0.4104156E+03  0.7818608E-02  0.1040232E+00
          2   -1    0    0  501    0  0.00000000000E+00  0.00000000000E+00  0.41180478619E+03  0.41180478620E+03  0.25500000000E-02 0.  1.
         -2   -1    0    0    0  501 -0.00000000000E+00 -0.00000000000E+00 -0.10225777393E+03  0.10225777397E+03  0.25500000000E-02 0. -1.
    5000001    1    1    2    0    0  0.15345623661E+03 -0.49192190222E+02  0.15033579397E+03  0.25435907509E+03  0.12700000000E+03 0.  0.
   -5000001    1    1    2    0    0 -0.15345623661E+03  0.49192190222E+02  0.15921121829E+03  0.25970348508E+03  0.12700000000E+03 0.  0.
<mgrwt>
<rscale>  0 0.41041560E+03</rscale>
<asrwt>0</asrwt>
<pdfrwt beam="1">  1        2 0.58829256E-01 0.41041560E+03</pdfrwt>
<pdfrwt beam="2">  1       -2 0.14608253E-01 0.41041560E+03</pdfrwt>
<totfact> 0.30228223E+03</totfact>
</mgrwt>
</event>
<event>
 4    1  0.2679255E-004  0.4656625E+03  0.7818608E-02  0.1023152E+00
         -2   -1    0    0    0  501 -0.00000000000E+00  0.00000000000E+00  0.36726423817E+03  0.36726423818E+03  0.25500000000E-02 0. -1.
          2   -1    0    0  501    0  0.00000000000E+00 -0.00000000000E+00 -0.14760597616E+03  0.14760597619E+03  0.25500000000E-02 0.  1.
    5000001    1    1    2    0    0 -0.97157695192E+02  0.15848331458E+03  0.44185165445E+02  0.22942952639E+03  0.12700000000E+03 0.  0.
   -5000001    1    1    2    0    0  0.97157695192E+02 -0.15848331458E+03  0.17547309656E+03  0.28544068797E+03  0.12700000000E+03 0.  0.
<mgrwt>
<rscale>  0 0.46566252E+03</rscale>
<asrwt>0</asrwt>
<pdfrwt beam="1">  1        2 0.21086569E-01 0.46566252E+03</pdfrwt>
<pdfrwt beam="2">  1       -2 0.52466319E-01 0.46566252E+03</pdfrwt>
<totfact> 0.91774976E+02</totfact>
</mgrwt>
</event>
<event>
 4    1  0.2679255E-004  0.6474863E+03  0.7818608E-02  0.9811507E-01
         -2   -1    0    0    0  501 -0.00000000000E+00  0.00000000000E+00  0.25122005006E+03  0.25122005007E+03  0.25500000000E-02 0. -1.
          2   -1    0    0  501    0  0.00000000000E+00 -0.00000000000E+00 -0.41720243329E+03  0.41720243330E+03  0.25500000000E-02 0.  1.
    5000001    1    1    2    0    0  0.27854408044E+03 -0.96006484412E+02 -0.12771125960E+03  0.34531610971E+03  0.12700000000E+03 0.  0.
   -5000001    1    1    2    0    0 -0.27854408044E+03  0.96006484412E+02 -0.38271123634E+02  0.32310637366E+03  0.12700000000E+03 0.  0.
<mgrwt>
<rscale>  0 0.64748627E+03</rscale>
<asrwt>0</asrwt>
<pdfrwt beam="1">  1        2 0.59600347E-01 0.64748627E+03</pdfrwt>
<pdfrwt beam="2">  1       -2 0.35888579E-01 0.64748627E+03</pdfrwt>
<totfact> 0.60559665E+02</totfact>
</mgrwt>
</event>
<event>
 4    1  0.2679255E-004  0.2922854E+03  0.7818608E-02  0.1089162E+00
          2   -1    0    0  501    0  0.00000000000E+00  0.00000000000E+00  0.38585133257E+03  0.38585133258E+03  0.25500000000E-02 0.  1.
         -2   -1    0    0    0  501 -0.00000000000E+00 -0.00000000000E+00 -0.55352104514E+02  0.55352104573E+02  0.25500000000E-02 0. -1.
    5000001    1    1    2    0    0  0.31010758458E+02  0.51613266127E+02  0.22568765181E+03  0.26587499423E+03  0.12700000000E+03 0.  0.
   -5000001    1    1    2    0    0 -0.31010758458E+02 -0.51613266127E+02  0.10481157625E+03  0.17532844292E+03  0.12700000000E+03 0.  0.
<mgrwt>
<rscale>  0 0.29228536E+03</rscale>
<asrwt>0</asrwt>
<pdfrwt beam="1">  1        2 0.55121618E-01 0.29228536E+03</pdfrwt>
<pdfrwt beam="2">  1       -2 0.79074436E-02 0.29228536E+03</pdfrwt>
<totfact> 0.86404189E+03</totfact>
</mgrwt>
</event>
<event>
 4    1  0.2679255E-004  0.7878069E+03  0.7818608E-02  0.9577836E-01
         -2   -1    0    0    0  501 -0.00000000000E+00  0.00000000000E+00  0.62368062974E+03  0.62368062975E+03  0.25500000000E-02 0. -1.
          2   -1    0    0  501    0  0.00000000000E+00 -0.00000000000E+00 -0.24878104045E+03  0.24878104046E+03  0.25500000000E-02 0.  1.
    5000001    1    1    2    0    0  0.22032441811E+03 -0.27953371331E+03  0.64382696996E+02  0.38334850693E+03  0.12700000000E+03 0.  0.
   -5000001    1    1    2    0    0 -0.22032441811E+03  0.27953371331E+03  0.31051689229E+03  0.48911316328E+03  0.12700000000E+03 0.  0.
<mgrwt>
<rscale>  0 0.78780687E+03</rscale>
<asrwt>0</asrwt>
<pdfrwt beam="1">  1        2 0.35540149E-01 0.78780687E+03</pdfrwt>
<pdfrwt beam="2">  1       -2 0.89097231E-01 0.78780687E+03</pdfrwt>
<totfact> 0.16024346E+02</totfact>
</mgrwt>
</event>
<event>
 4    1  0.2679255E-004  0.3708451E+03  0.7818608E-02  0.1054370E+00
         -2   -1    0    0    0  501 -0.00000000000E+00  0.00000000000E+00  0.59189526075E+02  0.59189526130E+02  0.25500000000E-02 0. -1.
          2   -1    0    0  501    0  0.00000000000E+00 -0.00000000000E+00 -0.58087165577E+03  0.58087165578E+03  0.25500000000E-02 0.  1.
    5000001    1    1    2    0    0  0.41563661767E+00 -0.13381103367E+03 -0.22869232085E+03  0.29382774393E+03  0.12700000000E+03 0.  0.
   -5000001    1    1    2    0    0 -0.41563661767E+00  0.13381103367E+03 -0.29298980885E+03  0.34623343798E+03  0.12700000000E+03 0.  0.
<mgrwt>
<rscale>  0 0.37084508E+03</rscale>
<asrwt>0</asrwt>
<pdfrwt beam="1">  1        2 0.82981662E-01 0.37084508E+03</pdfrwt>
<pdfrwt beam="2">  1       -2 0.84556469E-02 0.37084508E+03</pdfrwt>
<totfact> 0.49760980E+03</totfact>
</mgrwt>
</event>
<event>
 4    1  0.2679255E-004  0.2886027E+03  0.7818608E-02  0.1091081E+00
          2   -1    0    0  501    0  0.00000000000E+00  0.00000000000E+00  0.75033421956E+03  0.75033421957E+03  0.25500000000E-02 0.  1.
         -2   -1    0    0    0  501 -0.00000000000E+00 -0.00000000000E+00 -0.27751470063E+02  0.27751470180E+02  0.25500000000E-02 0. -1.
    5000001    1    1    2    0    0  0.56887487442E+02  0.10644065919E+02  0.26243821561E+03  0.29724114685E+03  0.12700000000E+03 0.  0.
   -5000001    1    1    2    0    0 -0.56887487442E+02 -0.10644065919E+02  0.46014453389E+03  0.48084454290E+03  0.12700000000E+03 0.  0.
<mgrwt>
<rscale>  0 0.28860269E+03</rscale>
<asrwt>0</asrwt>
<pdfrwt beam="1">  1        2 0.10719059E+00 0.28860269E+03</pdfrwt>
<pdfrwt beam="2">  1       -2 0.39644962E-02 0.28860269E+03</pdfrwt>
<totfact> 0.11731596E+04</totfact>
</mgrwt>
</event>
<event>
 4    1  0.2679255E-004  0.8092528E+03  0.7818608E-02  0.9546720E-01
         -2   -1    0    0    0  501 -0.00000000000E+00  0.00000000000E+00  0.28255225405E+03  0.28255225406E+03  0.25500000000E-02 0. -1.
          2   -1    0    0  501    0  0.00000000000E+00 -0.00000000000E+00 -0.57944154438E+03  0.57944154438E+03  0.25500000000E-02 0.  1.
    5000001    1    1    2    0    0  0.37429504718E+03  0.64605079246E+02 -0.87043055538E+02  0.40984886498E+03  0.12700000000E+03 0.  0.
   -5000001    1    1    2    0    0 -0.37429504718E+03 -0.64605079246E+02 -0.20984623479E+03  0.45214493347E+03  0.12700000000E+03 0.  0.
<mgrwt>
<rscale>  0 0.80925278E+03</rscale>
<asrwt>0</asrwt>
<pdfrwt beam="1">  1        2 0.82777363E-01 0.80925278E+03</pdfrwt>
<pdfrwt beam="2">  1       -2 0.40364608E-01 0.80925278E+03</pdfrwt>
<totfact> 0.33005775E+02</totfact>
</mgrwt>
</event>
<event>
 4    1  0.2679255E-004  0.3124574E+03  0.7818608E-02  0.1079174E+00
         -2   -1    0    0    0  501 -0.00000000000E+00  0.00000000000E+00  0.19369240308E+02  0.19369240476E+02  0.25500000000E-02 0. -1.
          2   -1    0    0  501    0  0.00000000000E+00 -0.00000000000E+00 -0.12601113295E+04  0.12601113295E+04  0.25500000000E-02 0.  1.
    5000001    1    1    2    0    0  0.84696848485E+02 -0.20257910911E+02 -0.72828226818E+03  0.74438431018E+03  0.12700000000E+03 0.  0.
   -5000001    1    1    2    0    0 -0.84696848485E+02  0.20257910911E+02 -0.51245982102E+03  0.53509625980E+03  0.12700000000E+03 0.  0.
<mgrwt>
<rscale>  0 0.31245735E+03</rscale>
<asrwt>0</asrwt>
<pdfrwt beam="1">  1        2 0.18001585E+00 0.31245735E+03</pdfrwt>
<pdfrwt beam="2">  1       -2 0.27670351E-02 0.31245735E+03</pdfrwt>
<totfact> 0.99624534E+03</totfact>
</mgrwt>
</event>
<event>
 4    1  0.2679255E-004  0.3821409E+03  0.7818608E-02  0.1050145E+00
          2   -1    0    0  501    0  0.00000000000E+00  0.00000000000E+00  0.10614961966E+04  0.10614961966E+04  0.25500000000E-02 0.  1.
         -2   -1    0    0    0  501 -0.00000000000E+00 -0.00000000000E+00 -0.34392890755E+02  0.34392890850E+02  0.25500000000E-02 0. -1.
    5000001    1    1    2    0    0 -0.12789137829E+03 -0.53446092389E+01  0.69479221884E+03  0.71780916465E+03  0.12700000000E+03 0.  0.
   -5000001    1    1    2    0    0  0.12789137829E+03  0.53446092389E+01  0.33231108704E+03  0.37807992285E+03  0.12700000000E+03 0.  0.
<mgrwt>
<rscale>  0 0.38214093E+03</rscale>
<asrwt>0</asrwt>
<pdfrwt beam="1">  1        2 0.15164232E+00 0.38214093E+03</pdfrwt>
<pdfrwt beam="2">  1       -2 0.49132699E-02 0.38214093E+03</pdfrwt>
<totfact> 0.54210073E+03</totfact>
</mgrwt>
</event>
<event>
 4    1  0.2679255E-004  0.3626406E+03  0.7818608E-02  0.1057543E+00
         -2   -1    0    0    0  501 -0.00000000000E+00  0.00000000000E+00  0.37641642673E+02  0.37641642759E+02  0.25500000000E-02 0. -1.
          2   -1    0    0  501    0  0.00000000000E+00 -0.00000000000E+00 -0.87342242100E+03  0.87342242100E+03  0.25500000000E-02 0.  1.
    5000001    1    1    2    0    0  0.14188226931E+02 -0.12560418941E+03 -0.48761927348E+03  0.51949906068E+03  0.12700000000E+03 0.  0.
   -5000001    1    1    2    0    0 -0.14188226931E+02  0.12560418941E+03 -0.34816150484E+03  0.39156500308E+03  0.12700000000E+03 0.  0.
<mgrwt>
<rscale>  0 0.36264062E+03</rscale>
<asrwt>0</asrwt>
<pdfrwt beam="1">  1        2 0.12477462E+00 0.36264062E+03</pdfrwt>
<pdfrwt beam="2">  1       -2 0.53773780E-02 0.36264062E+03</pdfrwt>
<totfact> 0.61406845E+03</totfact>
</mgrwt>
</event>
<event>
 4    1  0.2679255E-004  0.3565939E+03  0.7818608E-02  0.1059941E+00
         -2   -1    0    0    0  501 -0.00000000000E+00  0.00000000000E+00  0.51576520591E+02  0.51576520654E+02  0.25500000000E-02 0. -1.
          2   -1    0    0  501    0  0.00000000000E+00 -0.00000000000E+00 -0.61636189552E+03  0.61636189552E+03  0.25500000000E-02 0.  1.
    5000001    1    1    2    0    0  0.84417342222E+02  0.90233200358E+02 -0.24528418397E+03  0.30259155477E+03  0.12700000000E+03 0.  0.
   -5000001    1    1    2    0    0 -0.84417342222E+02 -0.90233200358E+02 -0.31950119096E+03  0.36534686140E+03  0.12700000000E+03 0.  0.
<mgrwt>
<rscale>  0 0.35659390E+03</rscale>
<asrwt>0</asrwt>
<pdfrwt beam="1">  1        2 0.88051695E-01 0.35659390E+03</pdfrwt>
<pdfrwt beam="2">  1       -2 0.73680748E-02 0.35659390E+03</pdfrwt>
<totfact> 0.57650721E+03</totfact>
</mgrwt>
</event>
<event>
 4    1  0.2679255E-004  0.4127541E+03  0.7818608E-02  0.1039451E+00
          2   -1    0    0  501    0  0.00000000000E+00  0.00000000000E+00  0.93008367062E+03  0.93008367063E+03  0.25500000000E-02 0.  1.
         -2   -1    0    0    0  501 -0.00000000000E+00 -0.00000000000E+00 -0.45793174967E+02  0.45793175038E+02  0.25500000000E-02 0. -1.
    5000001    1    1    2    0    0 -0.10753134487E+03 -0.66733205070E+02  0.68379271531E+03  0.70690719921E+03  0.12700000000E+03 0.  0.
   -5000001    1    1    2    0    0  0.10753134487E+03  0.66733205070E+02  0.20049778035E+03  0.26896964645E+03  0.12700000000E+03 0.  0.
<mgrwt>
<rscale>  0 0.41275409E+03</rscale>
<asrwt>0</asrwt>
<pdfrwt beam="1">  1        2 0.13286910E+00 0.41275409E+03</pdfrwt>
<pdfrwt beam="2">  1       -2 0.65418821E-02 0.41275409E+03</pdfrwt>
<totfact> 0.41825679E+03</totfact>
</mgrwt>
</event>
<event>
 4    1  0.2679255E-004  0.4949004E+03  0.7818608E-02  0.1015119E+00
         -2   -1    0    0    0  501 -0.00000000000E+00  0.00000000000E+00  0.94642713637E+02  0.94642713672E+02  0.25500000000E-02 0. -1.
          2   -1    0    0  501    0  0.00000000000E+00 -0.00000000000E+00 -0.64697629747E+03  0.64697629748E+03  0.25500000000E-02 0.  1.
    5000001    1    1    2    0    0 -0.18100048131E+03 -0.84607919392E+01 -0.44215697785E+03  0.49443356712E+03  0.12700000000E+03 0.  0.
   -5000001    1    1    2    0    0  0.18100048131E+03  0.84607919392E+01 -0.11017660599E+03  0.24718544403E+03  0.12700000000E+03 0.  0.
<mgrwt>
<rscale>  0 0.49490036E+03</rscale>
<asrwt>0</asrwt>
<pdfrwt beam="1">  1        2 0.92425183E-01 0.49490036E+03</pdfrwt>
<pdfrwt beam="2">  1       -2 0.13520388E-01 0.49490036E+03</pdfrwt>
<totfact> 0.20610944E+03</totfact>
</mgrwt>
</event>
<event>
 4    1  0.2679255E-004  0.3118278E+03  0.7818608E-02  0.1079473E+00
         -2   -1    0    0    0  501 -0.00000000000E+00  0.00000000000E+00  0.20061792061E+02  0.20061792224E+02  0.25500000000E-02 0. -1.
          2   -1    0    0  501    0  0.00000000000E+00 -0.00000000000E+00 -0.12117138565E+04  0.12117138565E+04  0.25500000000E-02 0.  1.
    5000001    1    1    2    0    0  0.74927589429E+02 -0.48643654045E+02 -0.65166244314E+03  0.66990543253E+03  0.12700000000E+03 0.  0.
   -5000001    1    1    2    0    0 -0.74927589429E+02  0.48643654045E+02 -0.53998962131E+03  0.56187021621E+03  0.12700000000E+03 0.  0.
<mgrwt>
<rscale>  0 0.31182785E+03</rscale>
<asrwt>0</asrwt>
<pdfrwt beam="1">  1        2 0.17310193E+00 0.31182785E+03</pdfrwt>
<pdfrwt beam="2">  1       -2 0.28659711E-02 0.31182785E+03</pdfrwt>
<totfact> 0.10039457E+04</totfact>
</mgrwt>
</event>
<event>
 4    1  0.2679255E-004  0.7297240E+03  0.7818608E-02  0.9667708E-01
         -2   -1    0    0    0  501 -0.00000000000E+00  0.00000000000E+00  0.13987490046E+04  0.13987490046E+04  0.25500000000E-02 0. -1.
          2   -1    0    0  501    0  0.00000000000E+00 -0.00000000000E+00 -0.95173810518E+02  0.95173810553E+02  0.25500000000E-02 0.  1.
    5000001    1    1    2    0    0  0.23710031047E+03 -0.14760184401E+03  0.10560464932E+04  0.10997118065E+04  0.12700000000E+03 0.  0.
   -5000001    1    1    2    0    0 -0.23710031047E+03  0.14760184401E+03  0.24752870089E+03  0.39421100865E+03  0.12700000000E+03 0.  0.
<mgrwt>
<rscale>  0 0.72972398E+03</rscale>
<asrwt>0</asrwt>
<pdfrwt beam="1">  1        2 0.13596260E-01 0.72972398E+03</pdfrwt>
<pdfrwt beam="2">  1       -2 0.19982127E+00 0.72972398E+03</pdfrwt>
<totfact> 0.61452156E+01</totfact>
</mgrwt>
</event>
<event>
 4    1  0.2679255E-004  0.5014452E+03  0.7818608E-02  0.1013402E+00
         -2   -1    0    0    0  501 -0.00000000000E+00  0.00000000000E+00  0.15359334195E+03  0.15359334197E+03  0.25500000000E-02 0. -1.
          2   -1    0    0  501    0  0.00000000000E+00 -0.00000000000E+00 -0.40927434408E+03  0.40927434409E+03  0.25500000000E-02 0.  1.
    5000001    1    1    2    0    0 -0.95998667040E+02  0.10353512222E+03 -0.31159179237E+03  0.36490233033E+03  0.12700000000E+03 0.  0.
   -5000001    1    1    2    0    0  0.95998667040E+02 -0.10353512222E+03  0.55910790235E+02  0.19796535573E+03  0.12700000000E+03 0.  0.
<mgrwt>
<rscale>  0 0.50144517E+03</rscale>
<asrwt>0</asrwt>
<pdfrwt beam="1">  1        2 0.58467763E-01 0.50144517E+03</pdfrwt>
<pdfrwt beam="2">  1       -2 0.21941906E-01 0.50144517E+03</pdfrwt>
<totfact> 0.15221458E+03</totfact>
</mgrwt>
</event>
<event>
 4    1  0.2679255E-004  0.3793917E+03  0.7818608E-02  0.1051159E+00
         -2   -1    0    0    0  501 -0.00000000000E+00  0.00000000000E+00  0.12705573815E+02  0.12705574071E+02  0.25500000000E-02 0. -1.
          2   -1    0    0  501    0  0.00000000000E+00 -0.00000000000E+00 -0.28321838126E+04  0.28321838126E+04  0.25500000000E-02 0.  1.
    5000001    1    1    2    0    0  0.77031217787E+02 -0.11726701760E+03 -0.15075539919E+04  0.15193858629E+04  0.12700000000E+03 0.  0.
   -5000001    1    1    2    0    0 -0.77031217787E+02  0.11726701760E+03 -0.13119242469E+04  0.13255035238E+04  0.12700000000E+03 0.  0.
<mgrwt>
<rscale>  0 0.37939173E+03</rscale>
<asrwt>0</asrwt>
<pdfrwt beam="1">  1        2 0.40459728E+00 0.37939173E+03</pdfrwt>
<pdfrwt beam="2">  1       -2 0.18150838E-02 0.37939173E+03</pdfrwt>
<totfact> 0.30093170E+03</totfact>
</mgrwt>
</event>
<event>
 4    1  0.2679255E-004  0.3367658E+03  0.7818608E-02  0.1068182E+00
         -2   -1    0    0    0  501 -0.00000000000E+00  0.00000000000E+00  0.15188514228E+02  0.15188514442E+02  0.25500000000E-02 0. -1.
          2   -1    0    0  501    0  0.00000000000E+00 -0.00000000000E+00 -0.18667259689E+04  0.18667259689E+04  0.25500000000E-02 0.  1.
    5000001    1    1    2    0    0 -0.89158557834E+02  0.54305236879E+02 -0.72231779453E+03  0.74079032356E+03  0.12700000000E+03 0.  0.
   -5000001    1    1    2    0    0  0.89158557834E+02 -0.54305236879E+02 -0.11292196601E+04  0.11411241598E+04  0.12700000000E+03 0.  0.
<mgrwt>
<rscale>  0 0.33676576E+03</rscale>
<asrwt>0</asrwt>
<pdfrwt beam="1">  1        2 0.26667499E+00 0.33676576E+03</pdfrwt>
<pdfrwt beam="2">  1       -2 0.21697890E-02 0.33676576E+03</pdfrwt>
<totfact> 0.70493198E+03</totfact>
</mgrwt>
</event>
<event>
 4    1  0.2679255E-004  0.4868425E+03  0.7818608E-02  0.1017271E+00
          2   -1    0    0  501    0  0.00000000000E+00  0.00000000000E+00  0.55664199771E+03  0.55664199771E+03  0.25500000000E-02 0. -1.
         -2   -1    0    0    0  501 -0.00000000000E+00 -0.00000000000E+00 -0.10644886073E+03  0.10644886076E+03  0.25500000000E-02 0.  1.
    5000001    1    1    2    0    0  0.85790512521E+02 -0.15201336974E+03  0.71865432072E+02  0.22751201495E+03  0.12700000000E+03 0.  0.
   -5000001    1    1    2    0    0 -0.85790512521E+02  0.15201336974E+03  0.37832770491E+03  0.43557884352E+03  0.12700000000E+03 0.  0.
<mgrwt>
<rscale>  0 0.48684251E+03</rscale>
<asrwt>0</asrwt>
<pdfrwt beam="1">  1        2 0.79520283E-01 0.48684251E+03</pdfrwt>
<pdfrwt beam="2">  1       -2 0.15206981E-01 0.48684251E+03</pdfrwt>
<totfact> 0.20195142E+03</totfact>
</mgrwt>
</event>
<event>
 4    1  0.2679255E-004  0.5344970E+03  0.7818608E-02  0.1005147E+00
         -2   -1    0    0    0  501 -0.00000000000E+00  0.00000000000E+00  0.97337919601E+02  0.97337919634E+02  0.25500000000E-02 0. -1.
          2   -1    0    0  501    0  0.00000000000E+00 -0.00000000000E+00 -0.73375065467E+03  0.73375065468E+03  0.25500000000E-02 0.  1.
    5000001    1    1    2    0    0  0.19778104755E+03  0.12490093985E+03 -0.28091554843E+03  0.38698854362E+03  0.12700000000E+03 0.  0.
   -5000001    1    1    2    0    0 -0.19778104755E+03 -0.12490093985E+03 -0.35549718664E+03  0.44410003069E+03  0.12700000000E+03 0.  0.
<mgrwt>
<rscale>  0 0.53449701E+03</rscale>
<asrwt>0</asrwt>
<pdfrwt beam="1">  1        2 0.10482152E+00 0.53449701E+03</pdfrwt>
<pdfrwt beam="2">  1       -2 0.13905418E-01 0.53449701E+03</pdfrwt>
<totfact> 0.16888751E+03</totfact>
</mgrwt>
</event>
<event>
 4    1  0.2679255E-004  0.4483954E+03  0.7818608E-02  0.1028202E+00
         -2   -1    0    0    0  501 -0.00000000000E+00  0.00000000000E+00  0.43666781140E+02  0.43666781214E+02  0.25500000000E-02 0. -1.
          2   -1    0    0  501    0  0.00000000000E+00 -0.00000000000E+00 -0.11510947552E+04  0.11510947552E+04  0.25500000000E-02 0.  1.
    5000001    1    1    2    0    0 -0.13732770789E+03 -0.11991870812E+03 -0.47394680571E+03  0.52344433377E+03  0.12700000000E+03 0.  0.
   -5000001    1    1    2    0    0  0.13732770789E+03  0.11991870812E+03 -0.63348116831E+03  0.67131720261E+03  0.12700000000E+03 0.  0.
<mgrwt>
<rscale>  0 0.44839537E+03</rscale>
<asrwt>0</asrwt>
<pdfrwt beam="1">  1        2 0.16444209E+00 0.44839537E+03</pdfrwt>
<pdfrwt beam="2">  1       -2 0.62381123E-02 0.44839537E+03</pdfrwt>
<totfact> 0.33361563E+03</totfact>
</mgrwt>
</event>
<event>
 4    1  0.2679255E-004  0.3248985E+03  0.7818608E-02  0.1073417E+00
         -2   -1    0    0    0  501 -0.00000000000E+00  0.00000000000E+00  0.12834927723E+03  0.12834927726E+03  0.25500000000E-02 0. -1.
          2   -1    0    0  501    0  0.00000000000E+00 -0.00000000000E+00 -0.20560896314E+03  0.20560896316E+03  0.25500000000E-02 0.  1.
    5000001    1    1    2    0    0 -0.88432045988E+02  0.24094820169E+02 -0.82959865470E+02  0.17723466477E+03  0.12700000000E+03 0.  0.
   -5000001    1    1    2    0    0  0.88432045988E+02 -0.24094820169E+02  0.57001795613E+01  0.15672357565E+03  0.12700000000E+03 0.  0.
<mgrwt>
<rscale>  0 0.32489852E+03</rscale>
<asrwt>0</asrwt>
<pdfrwt beam="1">  1        2 0.29372709E-01 0.32489852E+03</pdfrwt>
<pdfrwt beam="2">  1       -2 0.18335611E-01 0.32489852E+03</pdfrwt>
<totfact> 0.43851627E+03</totfact>
</mgrwt>
</event>
<event>
 4    1  0.2679255E-004  0.5323844E+03  0.7818608E-02  0.1005655E+00
         -2   -1    0    0    0  501 -0.00000000000E+00  0.00000000000E+00  0.16445388794E+03  0.16445388796E+03  0.25500000000E-02 0. -1.
          2   -1    0    0  501    0  0.00000000000E+00 -0.00000000000E+00 -0.43087028544E+03  0.43087028545E+03  0.25500000000E-02 0.  1.
    5000001    1    1    2    0    0  0.32201505922E+02  0.23027659207E+03 -0.10437089783E+03  0.28475696682E+03  0.12700000000E+03 0.  0.
   -5000001    1    1    2    0    0 -0.32201505922E+02 -0.23027659207E+03 -0.16204549967E+03  0.31056720658E+03  0.12700000000E+03 0.  0.
<mgrwt>
<rscale>  0 0.53238442E+03</rscale>
<asrwt>0</asrwt>
<pdfrwt beam="1">  1        2 0.61552898E-01 0.53238442E+03</pdfrwt>
<pdfrwt beam="2">  1       -2 0.23493413E-01 0.53238442E+03</pdfrwt>
<totfact> 0.12744133E+03</totfact>
</mgrwt>
</event>
<event>
 4    1  0.2679255E-004  0.4000518E+03  0.7818608E-02  0.1043762E+00
          2   -1    0    0  501    0  0.00000000000E+00  0.00000000000E+00  0.16177689820E+03  0.16177689822E+03  0.25500000000E-02 0.  1.
         -2   -1    0    0    0  501 -0.00000000000E+00 -0.00000000000E+00 -0.24731816203E+03  0.24731816205E+03  0.25500000000E-02 0. -1.
    5000001    1    1    2    0    0  0.14240200195E+03  0.57886094928E+02 -0.26529711299E+02  0.20115157401E+03  0.12700000000E+03 0.  0.
   -5000001    1    1    2    0    0 -0.14240200195E+03 -0.57886094928E+02 -0.59011552537E+02  0.20794348626E+03  0.12700000000E+03 0.  0.
<mgrwt>
<rscale>  0 0.40005182E+03</rscale>
<asrwt>0</asrwt>
<pdfrwt beam="1">  1        2 0.23110986E-01 0.40005182E+03</pdfrwt>
<pdfrwt beam="2">  1       -2 0.35331166E-01 0.40005182E+03</pdfrwt>
<totfact> 0.17886927E+03</totfact>
</mgrwt>
</event>
<event>
 4    1  0.2679255E-004  0.3044691E+03  0.7818608E-02  0.1083028E+00
         -2   -1    0    0    0  501 -0.00000000000E+00  0.00000000000E+00  0.52938440429E+02  0.52938440491E+02  0.25500000000E-02 0.  1.
          2   -1    0    0  501    0  0.00000000000E+00 -0.00000000000E+00 -0.43777940651E+03  0.43777940651E+03  0.25500000000E-02 0. -1.
    5000001    1    1    2    0    0 -0.75687529563E+02 -0.19299248772E+02 -0.14286719093E+03  0.20649720913E+03  0.12700000000E+03 0.  0.
   -5000001    1    1    2    0    0  0.75687529563E+02  0.19299248772E+02 -0.24197377515E+03  0.28422063787E+03  0.12700000000E+03 0.  0.
<mgrwt>
<rscale>  0 0.30446911E+03</rscale>
<asrwt>0</asrwt>
<pdfrwt beam="1">  1        2 0.62539913E-01 0.30446911E+03</pdfrwt>
<pdfrwt beam="2">  1       -2 0.75626346E-02 0.30446911E+03</pdfrwt>
<totfact> 0.80875082E+03</totfact>
</mgrwt>
</event>
<event>
 4    1  0.2679255E-004  0.6086361E+03  0.7818608E-02  0.9887649E-01
         -2   -1    0    0    0  501 -0.00000000000E+00  0.00000000000E+00  0.15214454857E+03  0.15214454859E+03  0.25500000000E-02 0. -1.
          2   -1    0    0  501    0  0.00000000000E+00 -0.00000000000E+00 -0.60869392163E+03  0.60869392163E+03  0.25500000000E-02 0.  1.
    5000001    1    1    2    0    0  0.16242323648E+03  0.19974815622E+03 -0.10202473573E+03  0.30466158334E+03  0.12700000000E+03 0.  0.
   -5000001    1    1    2    0    0 -0.16242323648E+03 -0.19974815622E+03 -0.35452463733E+03  0.45617688689E+03  0.12700000000E+03 0.  0.
<mgrwt>
<rscale>  0 0.60863606E+03</rscale>
<asrwt>0</asrwt>
<pdfrwt beam="1">  1        2 0.86956273E-01 0.60863606E+03</pdfrwt>
<pdfrwt beam="2">  1       -2 0.21734936E-01 0.60863606E+03</pdfrwt>
<totfact> 0.98482748E+02</totfact>
</mgrwt>
</event>
<event>
 4    1  0.2679255E-004  0.4484224E+03  0.7818608E-02  0.1028194E+00
          2   -1    0    0  501    0  0.00000000000E+00  0.00000000000E+00  0.15841969231E+04  0.15841969231E+04  0.25500000000E-02 0.  1.
         -2   -1    0    0    0  501 -0.00000000000E+00 -0.00000000000E+00 -0.31732580544E+02  0.31732580647E+02  0.25500000000E-02 0. -1.
    5000001    1    1    2    0    0 -0.11758444909E+03  0.96212975100E+02  0.39727899585E+03  0.44389485218E+03  0.12700000000E+03 0.  0.
   -5000001    1    1    2    0    0  0.11758444909E+03 -0.96212975100E+02  0.11551853467E+04  0.11720346516E+04  0.12700000000E+03 0.  0.
<mgrwt>
<rscale>  0 0.44842237E+03</rscale>
<asrwt>0</asrwt>
<pdfrwt beam="1">  1        2 0.22631389E+00 0.44842237E+03</pdfrwt>
<pdfrwt beam="2">  1       -2 0.45332249E-02 0.44842237E+03</pdfrwt>
<totfact> 0.32162960E+03</totfact>
</mgrwt>
</event>
<event>
 4    1  0.2679255E-004  0.4151008E+03  0.7818608E-02  0.1038673E+00
          2   -1    0    0  501    0  0.00000000000E+00  0.00000000000E+00  0.22313296492E+03  0.22313296493E+03  0.25500000000E-02 0.  1.
         -2   -1    0    0    0  501 -0.00000000000E+00 -0.00000000000E+00 -0.19305606204E+03  0.19305606206E+03  0.25500000000E-02 0. -1.
    5000001    1    1    2    0    0 -0.72355456767E+02 -0.14711955966E+03  0.23348398108E+02  0.20869505181E+03  0.12700000000E+03 0.  0.
   -5000001    1    1    2    0    0  0.72355456767E+02  0.14711955966E+03  0.67285047685E+01  0.20749397517E+03  0.12700000000E+03 0.  0.
<mgrwt>
<rscale>  0 0.41510081E+03</rscale>
<asrwt>0</asrwt>
<pdfrwt beam="1">  1        2 0.31876138E-01 0.41510081E+03</pdfrwt>
<pdfrwt beam="2">  1       -2 0.27579437E-01 0.41510081E+03</pdfrwt>
<totfact> 0.19700021E+03</totfact>
</mgrwt>
</event>
<event>
 4    1  0.2679255E-004  0.2953328E+03  0.7818608E-02  0.1087597E+00
         -2   -1    0    0    0  501 -0.00000000000E+00  0.00000000000E+00  0.90948534389E+01  0.90948537964E+01  0.25500000000E-02 0. -1.
          2   -1    0    0  501    0  0.00000000000E+00 -0.00000000000E+00 -0.23975507250E+04  0.23975507250E+04  0.25500000000E-02 0.  1.
    5000001    1    1    2    0    0 -0.50753891357E+02 -0.53532172487E+02 -0.10693811986E+04  0.10794196584E+04  0.12700000000E+03 0.  0.
   -5000001    1    1    2    0    0  0.50753891357E+02  0.53532172487E+02 -0.13190746729E+04  0.13272259204E+04  0.12700000000E+03 0.  0.
<mgrwt>
<rscale>  0 0.29533285E+03</rscale>
<asrwt>0</asrwt>
<pdfrwt beam="1">  1        2 0.34250684E+00 0.29533285E+03</pdfrwt>
<pdfrwt beam="2">  1       -2 0.12992663E-02 0.29533285E+03</pdfrwt>
<totfact> 0.82126067E+03</totfact>
</mgrwt>
</event>
<event>
 4    1  0.2679255E-004  0.4141384E+03  0.7818608E-02  0.1038991E+00
         -2   -1    0    0    0  501 -0.00000000000E+00  0.00000000000E+00  0.57616357375E+02  0.57616357431E+02  0.25500000000E-02 0. -1.
          2   -1    0    0  501    0  0.00000000000E+00 -0.00000000000E+00 -0.74419243909E+03  0.74419243910E+03  0.25500000000E-02 0.  1.
    5000001    1    1    2    0    0 -0.11956216427E+03 -0.11068661052E+03 -0.31576963906E+03  0.37734082979E+03  0.12700000000E+03 0.  0.
   -5000001    1    1    2    0    0  0.11956216427E+03  0.11068661052E+03 -0.37080644266E+03  0.42446796674E+03  0.12700000000E+03 0.  0.
<mgrwt>
<rscale>  0 0.41413842E+03</rscale>
<asrwt>0</asrwt>
<pdfrwt beam="1">  1        2 0.10631320E+00 0.41413842E+03</pdfrwt>
<pdfrwt beam="2">  1       -2 0.82309087E-02 0.41413842E+03</pdfrwt>
<totfact> 0.38789953E+03</totfact>
</mgrwt>
</event>
<event>
 4    1  0.2679255E-004  0.3880575E+03  0.7818608E-02  0.1047995E+00
         -2   -1    0    0    0  501 -0.00000000000E+00  0.00000000000E+00  0.95560862986E+02  0.95560863020E+02  0.25500000000E-02 0.  1.
          2   -1    0    0  501    0  0.00000000000E+00 -0.00000000000E+00 -0.39395995550E+03  0.39395995550E+03  0.25500000000E-02 0. -1.
    5000001    1    1    2    0    0  0.14289436248E+03 -0.31923116198E+02 -0.13789769819E+03  0.23787109817E+03  0.12700000000E+03 0.  0.
   -5000001    1    1    2    0    0 -0.14289436248E+03  0.31923116198E+02 -0.16050139432E+03  0.25164972036E+03  0.12700000000E+03 0.  0.
<mgrwt>
<rscale>  0 0.38805749E+03</rscale>
<asrwt>0</asrwt>
<pdfrwt beam="1">  1        2 0.56279993E-01 0.38805749E+03</pdfrwt>
<pdfrwt beam="2">  1       -2 0.13651552E-01 0.38805749E+03</pdfrwt>
<totfact> 0.35466533E+03</totfact>
</mgrwt>
</event>
<event>
 4    1  0.2679255E-004  0.3616559E+03  0.7818608E-02  0.1057930E+00
         -2   -1    0    0    0  501 -0.00000000000E+00  0.00000000000E+00  0.14363135157E+03  0.14363135159E+03  0.25500000000E-02 0. -1.
          2   -1    0    0  501    0  0.00000000000E+00 -0.00000000000E+00 -0.22765751289E+03  0.22765751290E+03  0.25500000000E-02 0.  1.
    5000001    1    1    2    0    0  0.41684894635E+02 -0.36898588539E+02 -0.16116748613E+03  0.21261019463E+03  0.12700000000E+03 0.  0.
   -5000001    1    1    2    0    0 -0.41684894635E+02  0.36898588539E+02  0.77141324807E+02  0.15867866986E+03  0.12700000000E+03 0.  0.
<mgrwt>
<rscale>  0 0.36165595E+03</rscale>
<asrwt>0</asrwt>
<pdfrwt beam="1">  1        2 0.32522502E-01 0.36165595E+03</pdfrwt>
<pdfrwt beam="2">  1       -2 0.20518765E-01 0.36165595E+03</pdfrwt>
<totfact> 0.32409444E+03</totfact>
</mgrwt>
</event>
<event>
 4    1  0.2679255E-004  0.3601286E+03  0.7818608E-02  0.1058533E+00
         -2   -1    0    0    0  501 -0.00000000000E+00  0.00000000000E+00  0.12904993750E+03  0.12904993752E+03  0.25500000000E-02 0. -1.
          2   -1    0    0  501    0  0.00000000000E+00 -0.00000000000E+00 -0.25124498976E+03  0.25124498978E+03  0.25500000000E-02 0.  1.
    5000001    1    1    2    0    0 -0.50217813075E+01  0.35741121245E+02  0.68198607369E+02  0.14860247670E+03  0.12700000000E+03 0.  0.
   -5000001    1    1    2    0    0  0.50217813075E+01 -0.35741121245E+02 -0.19039365963E+03  0.23169245060E+03  0.12700000000E+03 0.  0.
<mgrwt>
<rscale>  0 0.36012859E+03</rscale>
<asrwt>0</asrwt>
<pdfrwt beam="1">  1        2 0.35892141E-01 0.36012859E+03</pdfrwt>
<pdfrwt beam="2">  1       -2 0.18435706E-01 0.36012859E+03</pdfrwt>
<totfact> 0.34946474E+03</totfact>
</mgrwt>
</event>
<event>
 4    1  0.2679255E-004  0.4417277E+03  0.7818608E-02  0.1030218E+00
          2   -1    0    0  501    0  0.00000000000E+00  0.00000000000E+00  0.27200900113E+03  0.27200900115E+03  0.25500000000E-02 0.  1.
         -2   -1    0    0    0  501 -0.00000000000E+00 -0.00000000000E+00 -0.17933538634E+03  0.17933538636E+03  0.25500000000E-02 0. -1.
    5000001    1    1    2    0    0  0.16118897703E+03  0.42043450426E+02  0.11787754529E+03  0.24036150633E+03  0.12700000000E+03 0.  0.
   -5000001    1    1    2    0    0 -0.16118897703E+03 -0.42043450426E+02 -0.25203930498E+02  0.21098288118E+03  0.12700000000E+03 0.  0.
<mgrwt>
<rscale>  0 0.44172770E+03</rscale>
<asrwt>0</asrwt>
<pdfrwt beam="1">  1        2 0.38858428E-01 0.44172770E+03</pdfrwt>
<pdfrwt beam="2">  1       -2 0.25619341E-01 0.44172770E+03</pdfrwt>
<totfact> 0.18095906E+03</totfact>
</mgrwt>
</event>
<event>
 4    1  0.2679255E-004  0.3911223E+03  0.7818608E-02  0.1046898E+00
         -2   -1    0    0    0  501 -0.00000000000E+00  0.00000000000E+00  0.21646679584E+02  0.21646679734E+02  0.25500000000E-02 0. -1.
          2   -1    0    0  501    0  0.00000000000E+00 -0.00000000000E+00 -0.17667448023E+04  0.17667448024E+04  0.25500000000E-02 0.  1.
    5000001    1    1    2    0    0  0.12934290632E+03  0.72312634708E+02 -0.81535595448E+03  0.83838716418E+03  0.12700000000E+03 0.  0.
   -5000001    1    1    2    0    0 -0.12934290632E+03 -0.72312634708E+02 -0.92974216828E+03  0.95000431790E+03  0.12700000000E+03 0.  0.
<mgrwt>
<rscale>  0 0.39112228E+03</rscale>
<asrwt>0</asrwt>
<pdfrwt beam="1">  1        2 0.25239202E+00 0.39112228E+03</pdfrwt>
<pdfrwt beam="2">  1       -2 0.30923839E-02 0.39112228E+03</pdfrwt>
<totfact> 0.46556704E+03</totfact>
</mgrwt>
</event>
<event>
 4    1  0.2679255E-004  0.3001352E+03  0.7818608E-02  0.1085173E+00
         -2   -1    0    0    0  501 -0.00000000000E+00  0.00000000000E+00  0.44738808148E+02  0.44738808220E+02  0.25500000000E-02 0. -1.
          2   -1    0    0  501    0  0.00000000000E+00 -0.00000000000E+00 -0.50337241809E+03  0.50337241810E+03  0.25500000000E-02 0.  1.
    5000001    1    1    2    0    0 -0.66854675922E+02 -0.42648849324E+02 -0.24783375740E+03  0.28954972517E+03  0.12700000000E+03 0.  0.
   -5000001    1    1    2    0    0  0.66854675922E+02  0.42648849324E+02 -0.21079985254E+03  0.25856150114E+03  0.12700000000E+03 0.  0.
<mgrwt>
<rscale>  0 0.30013518E+03</rscale>
<asrwt>0</asrwt>
<pdfrwt beam="1">  1        2 0.71910342E-01 0.30013518E+03</pdfrwt>
<pdfrwt beam="2">  1       -2 0.63912586E-02 0.30013518E+03</pdfrwt>
<totfact> 0.90002321E+03</totfact>
</mgrwt>
</event>
<event>
 4    1  0.2679255E-004  0.5785365E+03  0.7818608E-02  0.9950965E-01
          2   -1    0    0  501    0  0.00000000000E+00  0.00000000000E+00  0.13897253887E+03  0.13897253889E+03  0.25500000000E-02 0.  1.
         -2   -1    0    0    0  501 -0.00000000000E+00 -0.00000000000E+00 -0.60210536149E+03  0.60210536149E+03  0.25500000000E-02 0. -1.
    5000001    1    1    2    0    0  0.71563318203E+02 -0.23938592426E+03 -0.32322555645E+03  0.42782086156E+03  0.12700000000E+03 0.  0.
   -5000001    1    1    2    0    0 -0.71563318203E+02  0.23938592426E+03 -0.13990726617E+03  0.31325703882E+03  0.12700000000E+03 0.  0.
<mgrwt>
<rscale>  0 0.57853647E+03</rscale>
<asrwt>0</asrwt>
<pdfrwt beam="1">  1        2 0.19853220E-01 0.57853647E+03</pdfrwt>
<pdfrwt beam="2">  1       -2 0.86015050E-01 0.57853647E+03</pdfrwt>
<totfact> 0.33968321E+02</totfact>
</mgrwt>
</event>
<event>
 4    1  0.2679255E-004  0.2669612E+03  0.7818608E-02  0.1103031E+00
          2   -1    0    0  501    0  0.00000000000E+00  0.00000000000E+00  0.69875429745E+02  0.69875429792E+02  0.25500000000E-02 0.  1.
         -2   -1    0    0    0  501 -0.00000000000E+00 -0.00000000000E+00 -0.25498334433E+03  0.25498334435E+03  0.25500000000E-02 0. -1.
    5000001    1    1    2    0    0 -0.40284420487E+02  0.59748591488E+01 -0.99167464450E+02  0.16619783236E+03  0.12700000000E+03 0.  0.
   -5000001    1    1    2    0    0  0.40284420487E+02 -0.59748591488E+01 -0.85940450139E+02  0.15866094178E+03  0.12700000000E+03 0.  0.
<mgrwt>
<rscale>  0 0.26696120E+03</rscale>
<asrwt>0</asrwt>
<pdfrwt beam="1">  1        2 0.99822044E-02 0.26696120E+03</pdfrwt>
<pdfrwt beam="2">  1       -2 0.36426192E-01 0.26696120E+03</pdfrwt>
<totfact> 0.45420440E+03</totfact>
</mgrwt>
</event>
<event>
 4    1  0.2679255E-004  0.4732033E+03  0.7818608E-02  0.1021020E+00
          2   -1    0    0  501    0  0.00000000000E+00  0.00000000000E+00  0.57638631380E+03  0.57638631380E+03  0.25500000000E-02 0.  1.
         -2   -1    0    0    0  501 -0.00000000000E+00 -0.00000000000E+00 -0.97122945422E+02  0.97122945455E+02  0.25500000000E-02 0. -1.
    5000001    1    1    2    0    0  0.17673032943E+03  0.69451605475E+02  0.32730269782E+03  0.39914056527E+03  0.12700000000E+03 0.  0.
   -5000001    1    1    2    0    0 -0.17673032943E+03 -0.69451605475E+02  0.15196067056E+03  0.27436869399E+03  0.12700000000E+03 0.  0.
<mgrwt>
<rscale>  0 0.47320328E+03</rscale>
<asrwt>0</asrwt>
<pdfrwt beam="1">  1        2 0.82340904E-01 0.47320328E+03</pdfrwt>
<pdfrwt beam="2">  1       -2 0.13874706E-01 0.47320328E+03</pdfrwt>
<totfact> 0.22603174E+03</totfact>
</mgrwt>
</event>
<event>
 4    1  0.2679255E-004  0.2965198E+03  0.7818608E-02  0.1086993E+00
          2   -1    0    0  501    0  0.00000000000E+00  0.00000000000E+00  0.29618508200E+03  0.29618508201E+03  0.25500000000E-02 0.  1.
         -2   -1    0    0    0  501 -0.00000000000E+00 -0.00000000000E+00 -0.74213728279E+02  0.74213728323E+02  0.25500000000E-02 0. -1.
    5000001    1    1    2    0    0 -0.49534202920E+02  0.54719972494E+02  0.13609604463E+03  0.20024746194E+03  0.12700000000E+03 0.  0.
   -5000001    1    1    2    0    0  0.49534202920E+02 -0.54719972494E+02  0.85875309085E+02  0.17015134839E+03  0.12700000000E+03 0.  0.
<mgrwt>
<rscale>  0 0.29651981E+03</rscale>
<asrwt>0</asrwt>
<pdfrwt beam="1">  1        2 0.42312154E-01 0.29651981E+03</pdfrwt>
<pdfrwt beam="2">  1       -2 0.10601961E-01 0.29651981E+03</pdfrwt>
<totfact> 0.72336709E+03</totfact>
</mgrwt>
</event>
<event>
 4    1  0.2679255E-004  0.5060556E+03  0.7818608E-02  0.1012210E+00
         -2   -1    0    0    0  501 -0.00000000000E+00  0.00000000000E+00  0.43999735253E+02  0.43999735327E+02  0.25500000000E-02 0. -1.
          2   -1    0    0  501    0  0.00000000000E+00 -0.00000000000E+00 -0.14550786837E+04  0.14550786837E+04  0.25500000000E-02 0.  1.
    5000001    1    1    2    0    0 -0.14633756989E+03 -0.16242323523E+03 -0.67620165349E+03  0.72192358868E+03  0.12700000000E+03 0.  0.
   -5000001    1    1    2    0    0  0.14633756989E+03  0.16242323523E+03 -0.73487729498E+03  0.77715483038E+03  0.12700000000E+03 0.  0.
<mgrwt>
<rscale>  0 0.50605564E+03</rscale>
<asrwt>0</asrwt>
<pdfrwt beam="1">  1        2 0.20786835E+00 0.50605564E+03</pdfrwt>
<pdfrwt beam="2">  1       -2 0.62856774E-02 0.50605564E+03</pdfrwt>
<totfact> 0.22581242E+03</totfact>
</mgrwt>
</event>
<event>
 4    1  0.2679255E-004  0.4216573E+03  0.7818608E-02  0.1036528E+00
         -2   -1    0    0    0  501 -0.00000000000E+00  0.00000000000E+00  0.28927550779E+02  0.28927550892E+02  0.25500000000E-02 0. -1.
          2   -1    0    0  501    0  0.00000000000E+00 -0.00000000000E+00 -0.15365532691E+04  0.15365532691E+04  0.25500000000E-02 0.  1.
    5000001    1    1    2    0    0 -0.11946779027E+03 -0.33608164141E+01 -0.31395955860E+03  0.35914266307E+03  0.12700000000E+03 0.  0.
   -5000001    1    1    2    0    0  0.11946779027E+03  0.33608164141E+01 -0.11936661598E+04  0.12063381570E+04  0.12700000000E+03 0.  0.
<mgrwt>
<rscale>  0 0.42165731E+03</rscale>
<asrwt>0</asrwt>
<pdfrwt beam="1">  1        2 0.21950756E+00 0.42165731E+03</pdfrwt>
<pdfrwt beam="2">  1       -2 0.41325083E-02 0.42165731E+03</pdfrwt>
<totfact> 0.39192632E+03</totfact>
</mgrwt>
</event>
<event>
 4    1  0.2679255E-004  0.3773840E+03  0.7818608E-02  0.1051905E+00
          2   -1    0    0  501    0  0.00000000000E+00  0.00000000000E+00  0.50245536133E+03  0.50245536134E+03  0.25500000000E-02 0.  1.
         -2   -1    0    0    0  501 -0.00000000000E+00 -0.00000000000E+00 -0.70861365646E+02  0.70861365692E+02  0.25500000000E-02 0. -1.
    5000001    1    1    2    0    0 -0.60849657884E+02  0.56863252083E+02  0.38591579886E+03  0.41472414219E+03  0.12700000000E+03 0.  0.
   -5000001    1    1    2    0    0  0.60849657884E+02 -0.56863252083E+02  0.45678196823E+02  0.15859258484E+03  0.12700000000E+03 0.  0.
<mgrwt>
<rscale>  0 0.37738401E+03</rscale>
<asrwt>0</asrwt>
<pdfrwt beam="1">  1        2 0.71779337E-01 0.37738401E+03</pdfrwt>
<pdfrwt beam="2">  1       -2 0.10123052E-01 0.37738401E+03</pdfrwt>
<totfact> 0.44053195E+03</totfact>
</mgrwt>
</event>
<event>
 4    1  0.2679255E-004  0.4075092E+03  0.7818608E-02  0.1041210E+00
          2   -1    0    0  501    0  0.00000000000E+00  0.00000000000E+00  0.14640415993E+04  0.14640415993E+04  0.25500000000E-02 0.  1.
         -2   -1    0    0    0  501 -0.00000000000E+00 -0.00000000000E+00 -0.28357069912E+02  0.28357070026E+02  0.25500000000E-02 0. -1.
    5000001    1    1    2    0    0  0.15485584351E+03 -0.35420669472E+02  0.67269493296E+03  0.70276769200E+03  0.12700000000E+03 0.  0.
   -5000001    1    1    2    0    0 -0.15485584351E+03  0.35420669472E+02  0.76298959645E+03  0.78963097735E+03  0.12700000000E+03 0.  0.
<mgrwt>
<rscale>  0 0.40750917E+03</rscale>
<asrwt>0</asrwt>
<pdfrwt beam="1">  1        2 0.20914878E+00 0.40750917E+03</pdfrwt>
<pdfrwt beam="2">  1       -2 0.40510103E-02 0.40750917E+03</pdfrwt>
<totfact> 0.44017295E+03</totfact>
</mgrwt>
</event>
<event>
 4    1  0.2679255E-004  0.1096468E+04  0.7818608E-02  0.9208641E-01
         -2   -1    0    0    0  501 -0.00000000000E+00  0.00000000000E+00  0.12857160668E+03  0.12857160671E+03  0.25500000000E-02 0. -1.
          2   -1    0    0  501    0  0.00000000000E+00 -0.00000000000E+00 -0.23376905500E+04  0.23376905500E+04  0.25500000000E-02 0.  1.
    5000001    1    1    2    0    0 -0.12573106014E+03 -0.49318597781E+03 -0.74614756319E+03  0.91208875349E+03  0.12700000000E+03 0.  0.
   -5000001    1    1    2    0    0  0.12573106014E+03  0.49318597781E+03 -0.14629713801E+04  0.15541734032E+04  0.12700000000E+03 0.  0.
<mgrwt>
<rscale>  0 0.10964682E+04</rscale>
<asrwt>0</asrwt>
<pdfrwt beam="1">  1        2 0.33395577E+00 0.10964682E+04</pdfrwt>
<pdfrwt beam="2">  1       -2 0.18367374E-01 0.10964682E+04</pdfrwt>
<totfact> 0.13272120E+02</totfact>
</mgrwt>
</event>
<event>
 4    1  0.2679255E-004  0.3976555E+03  0.7818608E-02  0.1044595E+00
          2   -1    0    0  501    0  0.00000000000E+00  0.00000000000E+00  0.84450363940E+03  0.84450363940E+03  0.25500000000E-02 0.  1.
         -2   -1    0    0    0  501 -0.00000000000E+00 -0.00000000000E+00 -0.46811493188E+02  0.46811493257E+02  0.25500000000E-02 0. -1.
    5000001    1    1    2    0    0 -0.13298718346E+03  0.72062211950E+02  0.45019981469E+03  0.49161715440E+03  0.12700000000E+03 0.  0.
   -5000001    1    1    2    0    0  0.13298718346E+03 -0.72062211950E+02  0.34749233153E+03  0.39969797826E+03  0.12700000000E+03 0.  0.
<mgrwt>
<rscale>  0 0.39765551E+03</rscale>
<asrwt>0</asrwt>
<pdfrwt beam="1">  1        2 0.12064337E+00 0.39765551E+03</pdfrwt>
<pdfrwt beam="2">  1       -2 0.66873564E-02 0.39765551E+03</pdfrwt>
<totfact> 0.45837087E+03</totfact>
</mgrwt>
</event>
<event>
 4    1  0.2679255E-004  0.3224966E+03  0.7818608E-02  0.1074506E+00
         -2   -1    0    0    0  501 -0.00000000000E+00  0.00000000000E+00  0.25434412632E+03  0.25434412634E+03  0.25500000000E-02 0. -1.
          2   -1    0    0  501    0  0.00000000000E+00 -0.00000000000E+00 -0.10222769841E+03  0.10222769844E+03  0.25500000000E-02 0.  1.
    5000001    1    1    2    0    0 -0.55853484704E+02  0.79378329150E+02  0.99551455495E+02  0.18830831947E+03  0.12700000000E+03 0.  0.
   -5000001    1    1    2    0    0  0.55853484704E+02 -0.79378329150E+02  0.52564972418E+02  0.16826350531E+03  0.12700000000E+03 0.  0.
<mgrwt>
<rscale>  0 0.32249660E+03</rscale>
<asrwt>0</asrwt>
<pdfrwt beam="1">  1        2 0.14603957E-01 0.32249660E+03</pdfrwt>
<pdfrwt beam="2">  1       -2 0.36334875E-01 0.32249660E+03</pdfrwt>
<totfact> 0.28869096E+03</totfact>
</mgrwt>
</event>
<event>
 4    1  0.2679255E-004  0.3695045E+03  0.7818608E-02  0.1054883E+00
         -2   -1    0    0    0  501 -0.00000000000E+00  0.00000000000E+00  0.38880977840E+03  0.38880977841E+03  0.25500000000E-02 0. -1.
          2   -1    0    0  501    0  0.00000000000E+00 -0.00000000000E+00 -0.87789446131E+02  0.87789446168E+02  0.25500000000E-02 0.  1.
    5000001    1    1    2    0    0 -0.10435335906E+03 -0.82708692464E+02  0.12915792121E+03  0.22481352265E+03  0.12700000000E+03 0.  0.
   -5000001    1    1    2    0    0  0.10435335906E+03  0.82708692464E+02  0.17186241106E+03  0.25178570192E+03  0.12700000000E+03 0.  0.
<mgrwt>
<rscale>  0 0.36950451E+03</rscale>
<asrwt>0</asrwt>
<pdfrwt beam="1">  1        2 0.12541349E-01 0.36950451E+03</pdfrwt>
<pdfrwt beam="2">  1       -2 0.55544255E-01 0.36950451E+03</pdfrwt>
<totfact> 0.15118188E+03</totfact>
</mgrwt>
</event>
<event>
 4    1  0.2679255E-004  0.3400915E+03  0.7818608E-02  0.1066757E+00
          2   -1    0    0  501    0  0.00000000000E+00  0.00000000000E+00  0.18110005366E+04  0.18110005366E+04  0.25500000000E-02 0.  1.
         -2   -1    0    0    0  501 -0.00000000000E+00 -0.00000000000E+00 -0.15966623859E+02  0.15966624063E+02  0.25500000000E-02 0. -1.
    5000001    1    1    2    0    0  0.13406446646E+02 -0.73676840259E+02  0.44236813518E+03  0.46629022789E+03  0.12700000000E+03 0.  0.
   -5000001    1    1    2    0    0 -0.13406446646E+02  0.73676840259E+02  0.13526657775E+04  0.13606769328E+04  0.12700000000E+03 0.  0.
<mgrwt>
<rscale>  0 0.34009154E+03</rscale>
<asrwt>0</asrwt>
<pdfrwt beam="1">  1        2 0.25871424E+00 0.34009154E+03</pdfrwt>
<pdfrwt beam="2">  1       -2 0.22809474E-02 0.34009154E+03</pdfrwt>
<totfact> 0.69734699E+03</totfact>
</mgrwt>
</event>
<event>
 4    1  0.2679255E-004  0.4458150E+03  0.7818608E-02  0.1028977E+00
          2   -1    0    0  501    0  0.00000000000E+00  0.00000000000E+00  0.41050417814E+03  0.41050417815E+03  0.25500000000E-02 0.  1.
         -2   -1    0    0    0  501 -0.00000000000E+00 -0.00000000000E+00 -0.12104077149E+03  0.12104077151E+03  0.25500000000E-02 0. -1.
    5000001    1    1    2    0    0 -0.16556060144E+03  0.42345733728E+02  0.66046542659E+02  0.22292290082E+03  0.12700000000E+03 0.  0.
   -5000001    1    1    2    0    0  0.16556060144E+03 -0.42345733728E+02  0.22341686400E+03  0.30862204884E+03  0.12700000000E+03 0.  0.
<mgrwt>
<rscale>  0 0.44581495E+03</rscale>
<asrwt>0</asrwt>
<pdfrwt beam="1">  1        2 0.58643454E-01 0.44581495E+03</pdfrwt>
<pdfrwt beam="2">  1       -2 0.17291539E-01 0.44581495E+03</pdfrwt>
<totfact> 0.22870334E+03</totfact>
</mgrwt>
</event>
<event>
 4    1  0.2679255E-004  0.3722375E+03  0.7818608E-02  0.1053841E+00
         -2   -1    0    0    0  501 -0.00000000000E+00  0.00000000000E+00  0.12054043288E+02  0.12054043558E+02  0.25500000000E-02 0. -1.
          2   -1    0    0  501    0  0.00000000000E+00 -0.00000000000E+00 -0.28737407830E+04  0.28737407830E+04  0.25500000000E-02 0.  1.
    5000001    1    1    2    0    0  0.11180193360E+03  0.74486666725E+02 -0.15977055180E+04  0.16083655860E+04  0.12700000000E+03 0.  0.
   -5000001    1    1    2    0    0 -0.11180193360E+03 -0.74486666725E+02 -0.12639812217E+04  0.12774292406E+04  0.12700000000E+03 0.  0.
<mgrwt>
<rscale>  0 0.37223754E+03</rscale>
<asrwt>0</asrwt>
<pdfrwt beam="1">  1        2 0.41053396E+00 0.37223754E+03</pdfrwt>
<pdfrwt beam="2">  1       -2 0.17220080E-02 0.37223754E+03</pdfrwt>
<totfact> 0.30953526E+03</totfact>
</mgrwt>
</event>
<event>
 4    1  0.2679255E-004  0.3170937E+03  0.7818608E-02  0.1076995E+00
          2   -1    0    0  501    0  0.00000000000E+00  0.00000000000E+00  0.12021897514E+04  0.12021897514E+04  0.25500000000E-02 0.  1.
         -2   -1    0    0    0  501 -0.00000000000E+00 -0.00000000000E+00 -0.20909429606E+02  0.20909429761E+02  0.25500000000E-02 0. -1.
    5000001    1    1    2    0    0 -0.72810407585E+02  0.93416609971E+01  0.82269849252E+03  0.83567363945E+03  0.12700000000E+03 0.  0.
   -5000001    1    1    2    0    0  0.72810407585E+02 -0.93416609971E+01  0.35858182926E+03  0.38742554170E+03  0.12700000000E+03 0.  0.
<mgrwt>
<rscale>  0 0.31709369E+03</rscale>
<asrwt>0</asrwt>
<pdfrwt beam="1">  1        2 0.17174141E+00 0.31709369E+03</pdfrwt>
<pdfrwt beam="2">  1       -2 0.29870612E-02 0.31709369E+03</pdfrwt>
<totfact> 0.95553716E+03</totfact>
</mgrwt>
</event>
<event>
 4    1  0.2679255E-004  0.4143016E+03  0.7818608E-02  0.1038937E+00
         -2   -1    0    0    0  501 -0.00000000000E+00  0.00000000000E+00  0.52915605762E+03  0.52915605763E+03  0.25500000000E-02 0. -1.
          2   -1    0    0  501    0  0.00000000000E+00 -0.00000000000E+00 -0.81094151377E+02  0.81094151417E+02  0.25500000000E-02 0.  1.
    5000001    1    1    2    0    0 -0.14955108893E+03 -0.50874967068E+02  0.16104277099E+03  0.25887750880E+03  0.12700000000E+03 0.  0.
   -5000001    1    1    2    0    0  0.14955108893E+03  0.50874967068E+02  0.28701913526E+03  0.35137270025E+03  0.12700000000E+03 0.  0.
<mgrwt>
<rscale>  0 0.41430164E+03</rscale>
<asrwt>0</asrwt>
<pdfrwt beam="1">  1        2 0.11584878E-01 0.41430164E+03</pdfrwt>
<pdfrwt beam="2">  1       -2 0.75593726E-01 0.41430164E+03</pdfrwt>
<totfact> 0.86790652E+02</totfact>
</mgrwt>
</event>
<event>
 4    1  0.2679255E-004  0.3350152E+03  0.7818608E-02  0.1068939E+00
          2   -1    0    0  501    0  0.00000000000E+00  0.00000000000E+00  0.76446571520E+02  0.76446571562E+02  0.25500000000E-02 0.  1.
         -2   -1    0    0    0  501 -0.00000000000E+00 -0.00000000000E+00 -0.36703788797E+03  0.36703788798E+03  0.25500000000E-02 0. -1.
    5000001    1    1    2    0    0  0.44997652223E+02  0.33970227822E+02 -0.21460669243E+02  0.14059987698E+03  0.12700000000E+03 0.  0.
   -5000001    1    1    2    0    0 -0.44997652223E+02 -0.33970227822E+02 -0.26913064721E+03  0.30288458256E+03  0.12700000000E+03 0.  0.
<mgrwt>
<rscale>  0 0.33501515E+03</rscale>
<asrwt>0</asrwt>
<pdfrwt beam="1">  1        2 0.10920939E-01 0.33501515E+03</pdfrwt>
<pdfrwt beam="2">  1       -2 0.52433983E-01 0.33501515E+03</pdfrwt>
<totfact> 0.20120751E+03</totfact>
</mgrwt>
</event>
<event>
 4    1  0.2679255E-004  0.3017092E+03  0.7818608E-02  0.1084389E+00
          2   -1    0    0  501    0  0.00000000000E+00  0.00000000000E+00  0.89313784703E+02  0.89313784740E+02  0.25500000000E-02 0.  1.
         -2   -1    0    0    0  501 -0.00000000000E+00 -0.00000000000E+00 -0.25479952058E+03  0.25479952059E+03  0.25500000000E-02 0. -1.
    5000001    1    1    2    0    0 -0.20926593778E+02 -0.75605375310E+02 -0.57911039417E+02  0.16011490745E+03  0.12700000000E+03 0.  0.
   -5000001    1    1    2    0    0  0.20926593778E+02  0.75605375310E+02 -0.10757469646E+03  0.18399839788E+03  0.12700000000E+03 0.  0.
<mgrwt>
<rscale>  0 0.30170919E+03</rscale>
<asrwt>0</asrwt>
<pdfrwt beam="1">  1        2 0.12759112E-01 0.30170919E+03</pdfrwt>
<pdfrwt beam="2">  1       -2 0.36399931E-01 0.30170919E+03</pdfrwt>
<totfact> 0.33789034E+03</totfact>
</mgrwt>
</event>
<event>
 4    1  0.2679255E-004  0.5319996E+03  0.7818608E-02  0.1005748E+00
          2   -1    0    0  501    0  0.00000000000E+00  0.00000000000E+00  0.83660120307E+03  0.83660120307E+03  0.25500000000E-02 0. -1.
         -2   -1    0    0    0  501 -0.00000000000E+00 -0.00000000000E+00 -0.84575403008E+02  0.84575403047E+02  0.25500000000E-02 0.  1.
    5000001    1    1    2    0    0  0.17740457279E+03  0.10737171087E+03  0.56271249203E+03  0.61300523279E+03  0.12700000000E+03 0.  0.
   -5000001    1    1    2    0    0 -0.17740457279E+03 -0.10737171087E+03  0.18931330803E+03  0.30817137333E+03  0.12700000000E+03 0.  0.
<mgrwt>
<rscale>  0 0.53199956E+03</rscale>
<asrwt>0</asrwt>
<pdfrwt beam="1">  1        2 0.11951447E+00 0.53199956E+03</pdfrwt>
<pdfrwt beam="2">  1       -2 0.12082200E-01 0.53199956E+03</pdfrwt>
<totfact> 0.18054790E+03</totfact>
</mgrwt>
</event>
<event>
 4    1  0.2679255E-004  0.3795104E+03  0.7818608E-02  0.1051115E+00
          2   -1    0    0  501    0  0.00000000000E+00  0.00000000000E+00  0.93921388114E+03  0.93921388114E+03  0.25500000000E-02 0.  1.
         -2   -1    0    0    0  501 -0.00000000000E+00 -0.00000000000E+00 -0.38337417672E+02  0.38337417756E+02  0.25500000000E-02 0. -1.
    5000001    1    1    2    0    0  0.72056748882E+02 -0.11529690319E+03  0.35431884755E+03  0.40019544810E+03  0.12700000000E+03 0.  0.
   -5000001    1    1    2    0    0 -0.72056748882E+02  0.11529690319E+03  0.54655761591E+03  0.57735585080E+03  0.12700000000E+03 0.  0.
<mgrwt>
<rscale>  0 0.37951039E+03</rscale>
<asrwt>0</asrwt>
<pdfrwt beam="1">  1        2 0.13417339E+00 0.37951039E+03</pdfrwt>
<pdfrwt beam="2">  1       -2 0.54767749E-02 0.37951039E+03</pdfrwt>
<totfact> 0.54303575E+03</totfact>
</mgrwt>
</event>
<event>
 4    1  0.2679255E-004  0.3594204E+03  0.7818608E-02  0.1058814E+00
          2   -1    0    0  501    0  0.00000000000E+00  0.00000000000E+00  0.90615585416E+03  0.90615585417E+03  0.25500000000E-02 0.  1.
         -2   -1    0    0    0  501 -0.00000000000E+00 -0.00000000000E+00 -0.35640401573E+02  0.35640401664E+02  0.25500000000E-02 0. -1.
    5000001    1    1    2    0    0 -0.25964770383E+02  0.12424575317E+03  0.45479309743E+03  0.48895494471E+03  0.12700000000E+03 0.  0.
   -5000001    1    1    2    0    0  0.25964770383E+02 -0.12424575317E+03  0.41572235516E+03  0.45284131112E+03  0.12700000000E+03 0.  0.
<mgrwt>
<rscale>  0 0.35942041E+03</rscale>
<asrwt>0</asrwt>
<pdfrwt beam="1">  1        2 0.12945086E+00 0.35942041E+03</pdfrwt>
<pdfrwt beam="2">  1       -2 0.50914850E-02 0.35942041E+03</pdfrwt>
<totfact> 0.63635203E+03</totfact>
</mgrwt>
</event>
<event>
 4    1  0.2679255E-004  0.5161572E+03  0.7818608E-02  0.1009646E+00
         -2   -1    0    0    0  501 -0.00000000000E+00  0.00000000000E+00  0.36303864179E+02  0.36303864269E+02  0.25500000000E-02 0. -1.
          2   -1    0    0  501    0  0.00000000000E+00 -0.00000000000E+00 -0.18346414753E+04  0.18346414753E+04  0.25500000000E-02 0.  1.
    5000001    1    1    2    0    0 -0.63993765294E+02 -0.15666177282E+03 -0.14348176273E+04  0.14503340086E+04  0.12700000000E+03 0.  0.
   -5000001    1    1    2    0    0  0.63993765294E+02  0.15666177282E+03 -0.36351998387E+03  0.42061133096E+03  0.12700000000E+03 0.  0.
<mgrwt>
<rscale>  0 0.51615724E+03</rscale>
<asrwt>0</asrwt>
<pdfrwt beam="1">  1        2 0.26209158E+00 0.51615724E+03</pdfrwt>
<pdfrwt beam="2">  1       -2 0.51862675E-02 0.51615724E+03</pdfrwt>
<totfact> 0.19506767E+03</totfact>
</mgrwt>
</event>
<event>
 4    1  0.2679255E-004  0.5409707E+03  0.7818608E-02  0.1003606E+00
          2   -1    0    0  501    0  0.00000000000E+00  0.00000000000E+00  0.77888436168E+03  0.77888436168E+03  0.25500000000E-02 0.  1.
         -2   -1    0    0    0  501 -0.00000000000E+00 -0.00000000000E+00 -0.93932214777E+02  0.93932214812E+02  0.25500000000E-02 0. -1.
    5000001    1    1    2    0    0  0.42625374870E+02 -0.10249920928E+03  0.13199909057E+01  0.16868240235E+03  0.12700000000E+03 0.  0.
   -5000001    1    1    2    0    0 -0.42625374870E+02  0.10249920928E+03  0.68363215600E+03  0.70413417415E+03  0.12700000000E+03 0.  0.
<mgrwt>
<rscale>  0 0.54097073E+03</rscale>
<asrwt>0</asrwt>
<pdfrwt beam="1">  1        2 0.11126920E+00 0.54097073E+03</pdfrwt>
<pdfrwt beam="2">  1       -2 0.13418887E-01 0.54097073E+03</pdfrwt>
<totfact> 0.16632209E+03</totfact>
</mgrwt>
</event>
<event>
 4    1  0.2679255E-004  0.2878621E+03  0.7818608E-02  0.1091471E+00
         -2   -1    0    0    0  501 -0.00000000000E+00  0.00000000000E+00  0.20141477201E+02  0.20141477363E+02  0.25500000000E-02 0. -1.
          2   -1    0    0  501    0  0.00000000000E+00 -0.00000000000E+00 -0.10285314705E+04  0.10285314705E+04  0.25500000000E-02 0.  1.
    5000001    1    1    2    0    0  0.60789437941E+02  0.28141075017E+02 -0.46778945891E+03  0.48932939185E+03  0.12700000000E+03 0.  0.
   -5000001    1    1    2    0    0 -0.60789437941E+02 -0.28141075017E+02 -0.54060053442E+03  0.55934355604E+03  0.12700000000E+03 0.  0.
<mgrwt>
<rscale>  0 0.28786207E+03</rscale>
<asrwt>0</asrwt>
<pdfrwt beam="1">  1        2 0.14693303E+00 0.28786207E+03</pdfrwt>
<pdfrwt beam="2">  1       -2 0.28773545E-02 0.28786207E+03</pdfrwt>
<totfact> 0.12618611E+04</totfact>
</mgrwt>
</event>
<event>
 4    1  0.2679255E-004  0.5175782E+03  0.7818608E-02  0.1009290E+00
          2   -1    0    0  501    0  0.00000000000E+00  0.00000000000E+00  0.18242600588E+04  0.18242600588E+04  0.25500000000E-02 0.  1.
         -2   -1    0    0    0  501 -0.00000000000E+00 -0.00000000000E+00 -0.36711766964E+02  0.36711767052E+02  0.25500000000E-02 0. -1.
    5000001    1    1    2    0    0 -0.13747740911E+03 -0.15681418322E+03  0.12020709472E+04  0.12266190477E+04  0.12700000000E+03 0.  0.
   -5000001    1    1    2    0    0  0.13747740911E+03  0.15681418322E+03  0.58547734471E+03  0.63435277822E+03  0.12700000000E+03 0.  0.
<mgrwt>
<rscale>  0 0.51757825E+03</rscale>
<asrwt>0</asrwt>
<pdfrwt beam="1">  1        2 0.26060866E+00 0.51757825E+03</pdfrwt>
<pdfrwt beam="2">  1       -2 0.52445366E-02 0.51757825E+03</pdfrwt>
<totfact> 0.19402254E+03</totfact>
</mgrwt>
</event>
<event>
 4    1  0.2679255E-004  0.4722089E+03  0.7818608E-02  0.1021299E+00
          2   -1    0    0  501    0  0.00000000000E+00  0.00000000000E+00  0.25419127000E+03  0.25419127001E+03  0.25500000000E-02 0.  1.
         -2   -1    0    0    0  501 -0.00000000000E+00 -0.00000000000E+00 -0.21930456266E+03  0.21930456268E+03  0.25500000000E-02 0. -1.
    5000001    1    1    2    0    0  0.12405166139E+03 -0.14043493818E+03 -0.49862744873E+02  0.23178886919E+03  0.12700000000E+03 0.  0.
   -5000001    1    1    2    0    0 -0.12405166139E+03  0.14043493818E+03  0.84749452209E+02  0.24170696350E+03  0.12700000000E+03 0.  0.
<mgrwt>
<rscale>  0 0.47220887E+03</rscale>
<asrwt>0</asrwt>
<pdfrwt beam="1">  1        2 0.36313038E-01 0.47220887E+03</pdfrwt>
<pdfrwt beam="2">  1       -2 0.31329223E-01 0.47220887E+03</pdfrwt>
<totfact> 0.13524504E+03</totfact>
</mgrwt>
</event>
<event>
 4    1  0.2679255E-004  0.6286440E+03  0.7818608E-02  0.9847699E-01
          2   -1    0    0  501    0  0.00000000000E+00  0.00000000000E+00  0.20354298334E+04  0.20354298334E+04  0.25500000000E-02 0.  1.
         -2   -1    0    0    0  501 -0.00000000000E+00 -0.00000000000E+00 -0.48539284194E+02  0.48539284261E+02  0.25500000000E-02 0. -1.
    5000001    1    1    2    0    0  0.53734668353E+01 -0.26385155614E+03  0.61514335945E+03  0.68130526968E+03  0.12700000000E+03 0.  0.
   -5000001    1    1    2    0    0 -0.53734668353E+01  0.26385155614E+03  0.13717471897E+04  0.14026638480E+04  0.12700000000E+03 0.  0.
<mgrwt>
<rscale>  0 0.62864396E+03</rscale>
<asrwt>0</asrwt>
<pdfrwt beam="1">  1        2 0.29077568E+00 0.62864396E+03</pdfrwt>
<pdfrwt beam="2">  1       -2 0.69341838E-02 0.62864396E+03</pdfrwt>
<totfact> 0.97660619E+02</totfact>
</mgrwt>
</event>
<event>
 4    1  0.2679255E-004  0.6328016E+03  0.7818608E-02  0.9839597E-01
         -2   -1    0    0    0  501 -0.00000000000E+00  0.00000000000E+00  0.36641854493E+02  0.36641854582E+02  0.25500000000E-02 0. -1.
          2   -1    0    0  501    0  0.00000000000E+00 -0.00000000000E+00 -0.27321071901E+04  0.27321071901E+04  0.25500000000E-02 0.  1.
    5000001    1    1    2    0    0 -0.13051538621E+03  0.25873536341E+03 -0.13412135993E+04  0.13780280016E+04  0.12700000000E+03 0.  0.
   -5000001    1    1    2    0    0  0.13051538621E+03 -0.25873536341E+03 -0.13542517364E+04  0.13907210431E+04  0.12700000000E+03 0.  0.
<mgrwt>
<rscale>  0 0.63280163E+03</rscale>
<asrwt>0</asrwt>
<pdfrwt beam="1">  1        2 0.39030090E+00 0.63280163E+03</pdfrwt>
<pdfrwt beam="2">  1       -2 0.52345524E-02 0.63280163E+03</pdfrwt>
<totfact> 0.66835788E+02</totfact>
</mgrwt>
</event>
<event>
 4    1  0.2679255E-004  0.3908943E+03  0.7818608E-02  0.1046979E+00
         -2   -1    0    0    0  501 -0.00000000000E+00  0.00000000000E+00  0.52170450345E+03  0.52170450346E+03  0.25500000000E-02 0. -1.
          2   -1    0    0  501    0  0.00000000000E+00 -0.00000000000E+00 -0.73220753368E+02  0.73220753412E+02  0.25500000000E-02 0.  1.
    5000001    1    1    2    0    0 -0.40485510711E+02  0.11729471248E+03  0.34857272389E+03  0.39118930199E+03  0.12700000000E+03 0.  0.
   -5000001    1    1    2    0    0  0.40485510711E+02 -0.11729471248E+03  0.99911026193E+02  0.20373595488E+03  0.12700000000E+03 0.  0.
<mgrwt>
<rscale>  0 0.39089434E+03</rscale>
<asrwt>0</asrwt>
<pdfrwt beam="1">  1        2 0.10460108E-01 0.39089434E+03</pdfrwt>
<pdfrwt beam="2">  1       -2 0.74529214E-01 0.39089434E+03</pdfrwt>
<totfact> 0.10160106E+03</totfact>
</mgrwt>
</event>
<event>
 4    1  0.2679255E-004  0.5934660E+03  0.7818608E-02  0.9919055E-01
          2   -1    0    0  501    0  0.00000000000E+00  0.00000000000E+00  0.27179962341E+04  0.27179962341E+04  0.25500000000E-02 0.  1.
         -2   -1    0    0    0  501 -0.00000000000E+00 -0.00000000000E+00 -0.32395364125E+02  0.32395364225E+02  0.25500000000E-02 0. -1.
    5000001    1    1    2    0    0 -0.71544525804E+02  0.17890976633E+03  0.47832666533E+03  0.53108636061E+03  0.12700000000E+03 0.  0.
   -5000001    1    1    2    0    0  0.71544525804E+02 -0.17890976633E+03  0.22072742046E+04  0.22193052377E+04  0.12700000000E+03 0.  0.
<mgrwt>
<rscale>  0 0.59346602E+03</rscale>
<asrwt>0</asrwt>
<pdfrwt beam="1">  1        2 0.38828529E+00 0.59346602E+03</pdfrwt>
<pdfrwt beam="2">  1       -2 0.46279078E-02 0.59346602E+03</pdfrwt>
<totfact> 0.82566967E+02</totfact>
</mgrwt>
</event>
<event>
 4    1  0.2679255E-004  0.4850227E+03  0.7818608E-02  0.1017764E+00
         -2   -1    0    0    0  501 -0.00000000000E+00  0.00000000000E+00  0.10426639535E+03  0.10426639539E+03  0.25500000000E-02 0. -1.
          2   -1    0    0  501    0  0.00000000000E+00 -0.00000000000E+00 -0.56405275488E+03  0.56405275488E+03  0.25500000000E-02 0.  1.
    5000001    1    1    2    0    0  0.12529714469E+03  0.17953610795E+02 -0.49046287070E+01  0.17937324770E+03  0.12700000000E+03 0.  0.
   -5000001    1    1    2    0    0 -0.12529714469E+03 -0.17953610795E+02 -0.45488173081E+03  0.48894590257E+03  0.12700000000E+03 0.  0.
<mgrwt>
<rscale>  0 0.48502267E+03</rscale>
<asrwt>0</asrwt>
<pdfrwt beam="1">  1        2 0.80578963E-01 0.48502267E+03</pdfrwt>
<pdfrwt beam="2">  1       -2 0.14895200E-01 0.48502267E+03</pdfrwt>
<totfact> 0.20592030E+03</totfact>
</mgrwt>
</event>
<event>
 4    1  0.2679255E-004  0.4476655E+03  0.7818608E-02  0.1028420E+00
         -2   -1    0    0    0  501 -0.00000000000E+00  0.00000000000E+00  0.30698671249E+03  0.30698671250E+03  0.25500000000E-02 0. -1.
          2   -1    0    0  501    0  0.00000000000E+00 -0.00000000000E+00 -0.16320284245E+03  0.16320284247E+03  0.25500000000E-02 0.  1.
    5000001    1    1    2    0    0 -0.10719744496E+03  0.14993474511E+03  0.71241008925E+02  0.23489572442E+03  0.12700000000E+03 0.  0.
   -5000001    1    1    2    0    0  0.10719744496E+03 -0.14993474511E+03  0.72542861111E+02  0.23529383055E+03  0.12700000000E+03 0.  0.
<mgrwt>
<rscale>  0 0.44766552E+03</rscale>
<asrwt>0</asrwt>
<pdfrwt beam="1">  1        2 0.23314692E-01 0.44766552E+03</pdfrwt>
<pdfrwt beam="2">  1       -2 0.43855244E-01 0.44766552E+03</pdfrwt>
<totfact> 0.11700073E+03</totfact>
</mgrwt>
</event>
<event>
 4    1  0.2679255E-004  0.2809128E+03  0.7818608E-02  0.1095191E+00
          2   -1    0    0  501    0  0.00000000000E+00  0.00000000000E+00  0.12463889664E+04  0.12463889664E+04  0.25500000000E-02 0.  1.
         -2   -1    0    0    0  501 -0.00000000000E+00 -0.00000000000E+00 -0.15828121711E+02  0.15828121917E+02  0.25500000000E-02 0. -1.
    5000001    1    1    2    0    0 -0.36963917540E+02  0.43753171234E+02  0.69544787409E+03  0.70926540644E+03  0.12700000000E+03 0.  0.
   -5000001    1    1    2    0    0  0.36963917540E+02 -0.43753171234E+02  0.53511297059E+03  0.55295168188E+03  0.12700000000E+03 0.  0.
<mgrwt>
<rscale>  0 0.28091277E+03</rscale>
<asrwt>0</asrwt>
<pdfrwt beam="1">  1        2 0.17805554E+00 0.28091277E+03</pdfrwt>
<pdfrwt beam="2">  1       -2 0.22611606E-02 0.28091277E+03</pdfrwt>
<totfact> 0.13629250E+04</totfact>
</mgrwt>
</event>
<event>
 4    1  0.2679255E-004  0.4934850E+03  0.7818608E-02  0.1015494E+00
         -2   -1    0    0    0  501 -0.00000000000E+00  0.00000000000E+00  0.37554704498E+02  0.37554704585E+02  0.25500000000E-02 0. -1.
          2   -1    0    0  501    0  0.00000000000E+00 -0.00000000000E+00 -0.16211515258E+04  0.16211515258E+04  0.25500000000E-02 0.  1.
    5000001    1    1    2    0    0  0.20395619077E+03 -0.52483959613E+02 -0.72455971418E+03  0.76515911625E+03  0.12700000000E+03 0.  0.
   -5000001    1    1    2    0    0 -0.20395619077E+03  0.52483959613E+02 -0.85903710713E+03  0.89354711414E+03  0.12700000000E+03 0.  0.
<mgrwt>
<rscale>  0 0.49348502E+03</rscale>
<asrwt>0</asrwt>
<pdfrwt beam="1">  1        2 0.23159303E+00 0.49348502E+03</pdfrwt>
<pdfrwt beam="2">  1       -2 0.53649588E-02 0.49348502E+03</pdfrwt>
<totfact> 0.23736623E+03</totfact>
</mgrwt>
</event>
<event>
 4    1  0.2679255E-004  0.5045621E+03  0.7818608E-02  0.1012595E+00
         -2   -1    0    0    0  501 -0.00000000000E+00  0.00000000000E+00  0.12731723046E+04  0.12731723046E+04  0.25500000000E-02 0. -1.
          2   -1    0    0  501    0  0.00000000000E+00 -0.00000000000E+00 -0.49989886053E+02  0.49989886118E+02  0.25500000000E-02 0.  1.
    5000001    1    1    2    0    0  0.86283130511E+02  0.11728545093E+03  0.10370025315E+04  0.10548478118E+04  0.12700000000E+03 0.  0.
   -5000001    1    1    2    0    0 -0.86283130511E+02 -0.11728545093E+03  0.18617988696E+03  0.26831437889E+03  0.12700000000E+03 0.  0.
<mgrwt>
<rscale>  0 0.50456214E+03</rscale>
<asrwt>0</asrwt>
<pdfrwt beam="1">  1        2 0.71414112E-02 0.50456214E+03</pdfrwt>
<pdfrwt beam="2">  1       -2 0.18188179E+00 0.50456214E+03</pdfrwt>
<totfact> 0.18517557E+02</totfact>
</mgrwt>
</event>
<event>
 4    1  0.2679255E-004  0.5315126E+03  0.7818608E-02  0.1005866E+00
         -2   -1    0    0    0  501 -0.00000000000E+00  0.00000000000E+00  0.34647275822E+02  0.34647275916E+02  0.25500000000E-02 0. -1.
          2   -1    0    0  501    0  0.00000000000E+00 -0.00000000000E+00 -0.20384408782E+04  0.20384408782E+04  0.25500000000E-02 0.  1.
    5000001    1    1    2    0    0  0.81917886329E+02  0.16850734100E+03 -0.15450436364E+04  0.15615358153E+04  0.12700000000E+03 0.  0.
   -5000001    1    1    2    0    0 -0.81917886329E+02 -0.16850734100E+03 -0.45874996601E+03  0.51155233885E+03  0.12700000000E+03 0.  0.
<mgrwt>
<rscale>  0 0.53151265E+03</rscale>
<asrwt>0</asrwt>
<pdfrwt beam="1">  1        2 0.29120576E+00 0.53151265E+03</pdfrwt>
<pdfrwt beam="2">  1       -2 0.49496121E-02 0.53151265E+03</pdfrwt>
<totfact> 0.16570342E+03</totfact>
</mgrwt>
</event>
<event>
 4    1  0.2679255E-004  0.4600859E+03  0.7818608E-02  0.1024756E+00
          2   -1    0    0  501    0  0.00000000000E+00  0.00000000000E+00  0.63541681396E+03  0.63541681396E+03  0.25500000000E-02 0.  1.
         -2   -1    0    0    0  501 -0.00000000000E+00 -0.00000000000E+00 -0.83283525994E+02  0.83283526033E+02  0.25500000000E-02 0. -1.
    5000001    1    1    2    0    0 -0.60010833865E+02 -0.17113376465E+03  0.37365338665E+03  0.43432006509E+03  0.12700000000E+03 0.  0.
   -5000001    1    1    2    0    0  0.60010833865E+02  0.17113376465E+03  0.17847990131E+03  0.28438027491E+03  0.12700000000E+03 0.  0.
<mgrwt>
<rscale>  0 0.46008587E+03</rscale>
<asrwt>0</asrwt>
<pdfrwt beam="1">  1        2 0.90773835E-01 0.46008587E+03</pdfrwt>
<pdfrwt beam="2">  1       -2 0.11897646E-01 0.46008587E+03</pdfrwt>
<totfact> 0.25976877E+03</totfact>
</mgrwt>
</event>
<event>
 4    1  0.2679255E-004  0.2639960E+03  0.7818608E-02  0.1104766E+00
         -2   -1    0    0    0  501 -0.00000000000E+00  0.00000000000E+00  0.43916272315E+03  0.43916272316E+03  0.25500000000E-02 0. -1.
          2   -1    0    0  501    0  0.00000000000E+00 -0.00000000000E+00 -0.39674285850E+02  0.39674285932E+02  0.25500000000E-02 0.  1.
    5000001    1    1    2    0    0  0.87327226068E+01 -0.17718081968E+02  0.14520096302E+03  0.19391366774E+03  0.12700000000E+03 0.  0.
   -5000001    1    1    2    0    0 -0.87327226068E+01  0.17718081968E+02  0.25428747428E+03  0.28492334136E+03  0.12700000000E+03 0.  0.
<mgrwt>
<rscale>  0 0.26399597E+03</rscale>
<asrwt>0</asrwt>
<pdfrwt beam="1">  1        2 0.56677550E-02 0.26399597E+03</pdfrwt>
<pdfrwt beam="2">  1       -2 0.62737533E-01 0.26399597E+03</pdfrwt>
<totfact> 0.31904840E+03</totfact>
</mgrwt>
</event>
<event>
 4    1  0.2679255E-004  0.4530399E+03  0.7818608E-02  0.1026819E+00
          2   -1    0    0  501    0  0.00000000000E+00  0.00000000000E+00  0.21669220946E+03  0.21669220948E+03  0.25500000000E-02 0.  1.
         -2   -1    0    0    0  501 -0.00000000000E+00 -0.00000000000E+00 -0.23679345470E+03  0.23679345471E+03  0.25500000000E-02 0. -1.
    5000001    1    1    2    0    0  0.17161980048E+03  0.44991652903E+02  0.50875442900E+02  0.22404221798E+03  0.12700000000E+03 0.  0.
   -5000001    1    1    2    0    0 -0.17161980048E+03 -0.44991652903E+02 -0.70976688135E+02  0.22944344621E+03  0.12700000000E+03 0.  0.
<mgrwt>
<rscale>  0 0.45303994E+03</rscale>
<asrwt>0</asrwt>
<pdfrwt beam="1">  1        2 0.30956030E-01 0.45303994E+03</pdfrwt>
<pdfrwt beam="2">  1       -2 0.33827636E-01 0.45303994E+03</pdfrwt>
<totfact> 0.13986475E+03</totfact>
</mgrwt>
</event>
<event>
 4    1  0.2679255E-004  0.1307426E+04  0.7818608E-02  0.9023697E-01
         -2   -1    0    0    0  501 -0.00000000000E+00  0.00000000000E+00  0.37795172789E+03  0.37795172790E+03  0.25500000000E-02 0. -1.
          2   -1    0    0  501    0  0.00000000000E+00 -0.00000000000E+00 -0.11306760816E+04  0.11306760816E+04  0.25500000000E-02 0.  1.
    5000001    1    1    2    0    0  0.45929586116E+03 -0.44391573361E+03 -0.31110749381E+03  0.72175531818E+03  0.12700000000E+03 0.  0.
   -5000001    1    1    2    0    0 -0.45929586116E+03  0.44391573361E+03 -0.44161685988E+03  0.78687249129E+03  0.12700000000E+03 0.  0.
<mgrwt>
<rscale>  0 0.13074264E+04</rscale>
<asrwt>0</asrwt>
<pdfrwt beam="1">  1        2 0.16152515E+00 0.13074264E+04</pdfrwt>
<pdfrwt beam="2">  1       -2 0.53993105E-01 0.13074264E+04</pdfrwt>
<totfact> 0.74224573E+01</totfact>
</mgrwt>
</event>
<event>
 4    1  0.2679255E-004  0.4978631E+03  0.7818608E-02  0.1014338E+00
         -2   -1    0    0    0  501 -0.00000000000E+00  0.00000000000E+00  0.16220329493E+03  0.16220329495E+03  0.25500000000E-02 0. -1.
          2   -1    0    0  501    0  0.00000000000E+00 -0.00000000000E+00 -0.38203244499E+03  0.38203244500E+03  0.25500000000E-02 0.  1.
    5000001    1    1    2    0    0  0.17038464740E+03 -0.67257772626E+02  0.11238973895E+02  0.22318120571E+03  0.12700000000E+03 0.  0.
   -5000001    1    1    2    0    0 -0.17038464740E+03  0.67257772626E+02 -0.23106812396E+03  0.32105453424E+03  0.12700000000E+03 0.  0.
<mgrwt>
<rscale>  0 0.49786312E+03</rscale>
<asrwt>0</asrwt>
<pdfrwt beam="1">  1        2 0.54576063E-01 0.49786312E+03</pdfrwt>
<pdfrwt beam="2">  1       -2 0.23171899E-01 0.49786312E+03</pdfrwt>
<totfact> 0.14919317E+03</totfact>
</mgrwt>
</event>
<event>
 4    1  0.2679255E-004  0.3912879E+03  0.7818608E-02  0.1046839E+00
         -2   -1    0    0    0  501 -0.00000000000E+00  0.00000000000E+00  0.16029528857E+02  0.16029529060E+02  0.25500000000E-02 0. -1.
          2   -1    0    0  501    0  0.00000000000E+00 -0.00000000000E+00 -0.23878774365E+04  0.23878774365E+04  0.25500000000E-02 0.  1.
    5000001    1    1    2    0    0  0.13283620124E+03 -0.26153168526E+02 -0.80630730491E+03  0.82739948908E+03  0.12700000000E+03 0.  0.
   -5000001    1    1    2    0    0 -0.13283620124E+03  0.26153168526E+02 -0.15655406027E+04  0.15765074765E+04  0.12700000000E+03 0.  0.
<mgrwt>
<rscale>  0 0.39128788E+03</rscale>
<asrwt>0</asrwt>
<pdfrwt beam="1">  1        2 0.34112512E+00 0.39128788E+03</pdfrwt>
<pdfrwt beam="2">  1       -2 0.22899342E-02 0.39128788E+03</pdfrwt>
<totfact> 0.35914965E+03</totfact>
</mgrwt>
</event>
<event>
 4    1  0.2679255E-004  0.4098636E+03  0.7818608E-02  0.1040417E+00
          2   -1    0    0  501    0  0.00000000000E+00  0.00000000000E+00  0.73721396884E+03  0.73721396884E+03  0.25500000000E-02 0.  1.
         -2   -1    0    0    0  501 -0.00000000000E+00 -0.00000000000E+00 -0.56967238648E+02  0.56967238705E+02  0.25500000000E-02 0. -1.
    5000001    1    1    2    0    0  0.12538306082E+03 -0.97412145651E+02  0.38982780630E+03  0.43966436816E+03  0.12700000000E+03 0.  0.
   -5000001    1    1    2    0    0 -0.12538306082E+03  0.97412145651E+02  0.29041892389E+03  0.35451683939E+03  0.12700000000E+03 0.  0.
<mgrwt>
<rscale>  0 0.40986361E+03</rscale>
<asrwt>0</asrwt>
<pdfrwt beam="1">  1        2 0.10531628E+00 0.40986361E+03</pdfrwt>
<pdfrwt beam="2">  1       -2 0.81381773E-02 0.40986361E+03</pdfrwt>
<totfact> 0.39945175E+03</totfact>
</mgrwt>
</event>
<event>
 4    1  0.2679255E-004  0.5774636E+03  0.7818608E-02  0.9953297E-01
          2   -1    0    0  501    0  0.00000000000E+00  0.00000000000E+00  0.40547334294E+04  0.40547334294E+04  0.25500000000E-02 0.  1.
         -2   -1    0    0    0  501 -0.00000000000E+00 -0.00000000000E+00 -0.20560182515E+02  0.20560182673E+02  0.25500000000E-02 0. -1.
    5000001    1    1    2    0    0 -0.16751584829E+03  0.12943596688E+03  0.96034258748E+03  0.99156548663E+03  0.12700000000E+03 0.  0.
   -5000001    1    1    2    0    0  0.16751584829E+03 -0.12943596688E+03  0.30738306594E+04  0.30837281254E+04  0.12700000000E+03 0.  0.
<mgrwt>
<rscale>  0 0.57746363E+03</rscale>
<asrwt>0</asrwt>
<pdfrwt beam="1">  1        2 0.57924677E+00 0.57746363E+03</pdfrwt>
<pdfrwt beam="2">  1       -2 0.29371733E-02 0.57746363E+03</pdfrwt>
<totfact> 0.27259418E+02</totfact>
</mgrwt>
</event>
<event>
 4    1  0.2679255E-004  0.5457734E+03  0.7818608E-02  0.1002477E+00
         -2   -1    0    0    0  501 -0.00000000000E+00  0.00000000000E+00  0.32268642593E+02  0.32268642694E+02  0.25500000000E-02 0. -1.
          2   -1    0    0  501    0  0.00000000000E+00 -0.00000000000E+00 -0.23077247292E+04  0.23077247292E+04  0.25500000000E-02 0.  1.
    5000001    1    1    2    0    0  0.22875751556E+03  0.33661918949E+02 -0.14370857427E+04  0.14610980657E+04  0.12700000000E+03 0.  0.
   -5000001    1    1    2    0    0 -0.22875751556E+03 -0.33661918949E+02 -0.83837034385E+03  0.87889530614E+03  0.12700000000E+03 0.  0.
<mgrwt>
<rscale>  0 0.54577338E+03</rscale>
<asrwt>0</asrwt>
<pdfrwt beam="1">  1        2 0.32967486E+00 0.54577338E+03</pdfrwt>
<pdfrwt beam="2">  1       -2 0.46098075E-02 0.54577338E+03</pdfrwt>
<totfact> 0.13538780E+03</totfact>
</mgrwt>
</event>
<event>
 4    1  0.2679255E-004  0.6465000E+03  0.7818608E-02  0.9813369E-01
          2   -1    0    0  501    0  0.00000000000E+00  0.00000000000E+00  0.10390241361E+03  0.10390241364E+03  0.25500000000E-02 0.  1.
         -2   -1    0    0    0  501 -0.00000000000E+00 -0.00000000000E+00 -0.10056604448E+04  0.10056604448E+04  0.25500000000E-02 0. -1.
    5000001    1    1    2    0    0 -0.13081133024E+03 -0.14882210447E+03 -0.83118457160E+03  0.86386134012E+03  0.12700000000E+03 0.  0.
   -5000001    1    1    2    0    0  0.13081133024E+03  0.14882210447E+03 -0.70573459565E+02  0.24570151829E+03  0.12700000000E+03 0.  0.
<mgrwt>
<rscale>  0 0.64649995E+03</rscale>
<asrwt>0</asrwt>
<pdfrwt beam="1">  1        2 0.14843203E-01 0.64649995E+03</pdfrwt>
<pdfrwt beam="2">  1       -2 0.14366577E+00 0.64649995E+03</pdfrwt>
<totfact> 0.13832752E+02</totfact>
</mgrwt>
</event>
<event>
 4    1  0.2679255E-004  0.6530397E+03  0.7818608E-02  0.9801092E-01
         -2   -1    0    0    0  501 -0.00000000000E+00  0.00000000000E+00  0.98366576253E+02  0.98366576286E+02  0.25500000000E-02 0. -1.
          2   -1    0    0  501    0  0.00000000000E+00 -0.00000000000E+00 -0.10838560730E+04  0.10838560730E+04  0.25500000000E-02 0.  1.
    5000001    1    1    2    0    0  0.24045305022E+03 -0.62210502102E+02 -0.18552874335E+03  0.33501900027E+03  0.12700000000E+03 0.  0.
   -5000001    1    1    2    0    0 -0.24045305022E+03  0.62210502102E+02 -0.79996075339E+03  0.84720364901E+03  0.12700000000E+03 0.  0.
<mgrwt>
<rscale>  0 0.65303970E+03</rscale>
<asrwt>0</asrwt>
<pdfrwt beam="1">  1        2 0.15483658E+00 0.65303970E+03</pdfrwt>
<pdfrwt beam="2">  1       -2 0.14052369E-01 0.65303970E+03</pdfrwt>
<totfact> 0.98255210E+02</totfact>
</mgrwt>
</event>
<event>
 4    1  0.2679255E-004  0.3607038E+03  0.7818608E-02  0.1058306E+00
          2   -1    0    0  501    0  0.00000000000E+00  0.00000000000E+00  0.70651606219E+03  0.70651606219E+03  0.25500000000E-02 0.  1.
         -2   -1    0    0    0  501 -0.00000000000E+00 -0.00000000000E+00 -0.46038308353E+02  0.46038308424E+02  0.25500000000E-02 0. -1.
    5000001    1    1    2    0    0  0.11627149477E+03  0.53154382003E+02  0.31499915919E+03  0.36290207923E+03  0.12700000000E+03 0.  0.
   -5000001    1    1    2    0    0 -0.11627149477E+03 -0.53154382003E+02  0.34547859465E+03  0.38965229139E+03  0.12700000000E+03 0.  0.
<mgrwt>
<rscale>  0 0.36070378E+03</rscale>
<asrwt>0</asrwt>
<pdfrwt beam="1">  1        2 0.10093086E+00 0.36070378E+03</pdfrwt>
<pdfrwt beam="2">  1       -2 0.65769016E-02 0.36070378E+03</pdfrwt>
<totfact> 0.58589406E+03</totfact>
</mgrwt>
</event>
<event>
 4    1  0.2679255E-004  0.3104919E+03  0.7818608E-02  0.1080110E+00
          2   -1    0    0  501    0  0.00000000000E+00  0.00000000000E+00  0.14538187893E+04  0.14538187893E+04  0.25500000000E-02 0.  1.
         -2   -1    0    0    0  501 -0.00000000000E+00 -0.00000000000E+00 -0.16577929099E+02  0.16577929295E+02  0.25500000000E-02 0. -1.
    5000001    1    1    2    0    0  0.10199008417E+02 -0.88696536613E+02  0.72382878967E+03  0.74028927598E+03  0.12700000000E+03 0.  0.
   -5000001    1    1    2    0    0 -0.10199008417E+02  0.88696536613E+02  0.71341207051E+03  0.73010744259E+03  0.12700000000E+03 0.  0.
<mgrwt>
<rscale>  0 0.31049190E+03</rscale>
<asrwt>0</asrwt>
<pdfrwt beam="1">  1        2 0.20768839E+00 0.31049190E+03</pdfrwt>
<pdfrwt beam="2">  1       -2 0.23682756E-02 0.31049190E+03</pdfrwt>
<totfact> 0.99431838E+03</totfact>
</mgrwt>
</event>
<event>
 4    1  0.2679255E-004  0.4205088E+03  0.7818608E-02  0.1036901E+00
          2   -1    0    0  501    0  0.00000000000E+00  0.00000000000E+00  0.21713699296E+04  0.21713699296E+04  0.25500000000E-02 0.  1.
         -2   -1    0    0    0  501 -0.00000000000E+00 -0.00000000000E+00 -0.20358996083E+02  0.20358996242E+02  0.25500000000E-02 0. -1.
    5000001    1    1    2    0    0  0.12047209606E+03 -0.64112889298E+02  0.15822835181E+04  0.15932275795E+04  0.12700000000E+03 0.  0.
   -5000001    1    1    2    0    0 -0.12047209606E+03  0.64112889298E+02  0.56872741548E+03  0.59850134638E+03  0.12700000000E+03 0.  0.
<mgrwt>
<rscale>  0 0.42050880E+03</rscale>
<asrwt>0</asrwt>
<pdfrwt beam="1">  1        2 0.31019565E+00 0.42050880E+03</pdfrwt>
<pdfrwt beam="2">  1       -2 0.29084286E-02 0.42050880E+03</pdfrwt>
<totfact> 0.32152376E+03</totfact>
</mgrwt>
</event>
<event>
 4    1  0.2679255E-004  0.9997057E+03  0.7818608E-02  0.9308868E-01
         -2   -1    0    0    0  501 -0.00000000000E+00  0.00000000000E+00  0.21423687466E+03  0.21423687467E+03  0.25500000000E-02 0. -1.
          2   -1    0    0  501    0  0.00000000000E+00 -0.00000000000E+00 -0.11662459502E+04  0.11662459502E+04  0.25500000000E-02 0.  1.
    5000001    1    1    2    0    0 -0.26377660155E+03  0.39040183633E+03 -0.62557592435E+03  0.79338888728E+03  0.12700000000E+03 0.  0.
   -5000001    1    1    2    0    0  0.26377660155E+03 -0.39040183633E+03 -0.32643315115E+03  0.58709393755E+03  0.12700000000E+03 0.  0.
<mgrwt>
<rscale>  0 0.99970573E+03</rscale>
<asrwt>0</asrwt>
<pdfrwt beam="1">  1        2 0.16660656E+00 0.99970573E+03</pdfrwt>
<pdfrwt beam="2">  1       -2 0.30605268E-01 0.99970573E+03</pdfrwt>
<totfact> 0.21978531E+02</totfact>
</mgrwt>
</event>
<event>
 4    1  0.2679255E-004  0.3405513E+03  0.7818608E-02  0.1066561E+00
          2   -1    0    0  501    0  0.00000000000E+00  0.00000000000E+00  0.80637453553E+02  0.80637453593E+02  0.25500000000E-02 0.  1.
         -2   -1    0    0    0  501 -0.00000000000E+00 -0.00000000000E+00 -0.35955753345E+03  0.35955753346E+03  0.25500000000E-02 0. -1.
    5000001    1    1    2    0    0  0.22952930823E+02  0.11009973528E+03 -0.15845789743E+03  0.23213507706E+03  0.12700000000E+03 0.  0.
   -5000001    1    1    2    0    0 -0.22952930823E+02 -0.11009973528E+03 -0.12046218246E+03  0.20805990999E+03  0.12700000000E+03 0.  0.
<mgrwt>
<rscale>  0 0.34055134E+03</rscale>
<asrwt>0</asrwt>
<pdfrwt beam="1">  1        2 0.11519636E-01 0.34055134E+03</pdfrwt>
<pdfrwt beam="2">  1       -2 0.51365361E-01 0.34055134E+03</pdfrwt>
<totfact> 0.19644207E+03</totfact>
</mgrwt>
</event>
<event>
 4    1  0.2679255E-004  0.3894212E+03  0.7818608E-02  0.1047506E+00
         -2   -1    0    0    0  501 -0.00000000000E+00  0.00000000000E+00  0.52779701958E+02  0.52779702020E+02  0.25500000000E-02 0.  1.
          2   -1    0    0  501    0  0.00000000000E+00 -0.00000000000E+00 -0.71831069355E+03  0.71831069355E+03  0.25500000000E-02 0. -1.
    5000001    1    1    2    0    0  0.13434013445E+03  0.22761536262E+02 -0.44508872515E+03  0.48249179528E+03  0.12700000000E+03 0.  0.
   -5000001    1    1    2    0    0 -0.13434013445E+03 -0.22761536262E+02 -0.22044226644E+03  0.28859860029E+03  0.12700000000E+03 0.  0.
<mgrwt>
<rscale>  0 0.38942123E+03</rscale>
<asrwt>0</asrwt>
<pdfrwt beam="1">  1        2 0.10261581E+00 0.38942123E+03</pdfrwt>
<pdfrwt beam="2">  1       -2 0.75399579E-02 0.38942123E+03</pdfrwt>
<totfact> 0.46461421E+03</totfact>
</mgrwt>
</event>
<event>
 4    1  0.2679255E-004  0.3375917E+03  0.7818608E-02  0.1067826E+00
         -2   -1    0    0    0  501 -0.00000000000E+00  0.00000000000E+00  0.71653948281E+02  0.71653948327E+02  0.25500000000E-02 0. -1.
          2   -1    0    0  501    0  0.00000000000E+00 -0.00000000000E+00 -0.39763385236E+03  0.39763385237E+03  0.25500000000E-02 0.  1.
    5000001    1    1    2    0    0  0.86164979498E+02 -0.67854075747E+02 -0.13756751576E+03  0.21698479366E+03  0.12700000000E+03 0.  0.
   -5000001    1    1    2    0    0 -0.86164979498E+02  0.67854075747E+02 -0.18841238832E+03  0.25230300704E+03  0.12700000000E+03 0.  0.
<mgrwt>
<rscale>  0 0.33759168E+03</rscale>
<asrwt>0</asrwt>
<pdfrwt beam="1">  1        2 0.56804835E-01 0.33759168E+03</pdfrwt>
<pdfrwt beam="2">  1       -2 0.10236279E-01 0.33759168E+03</pdfrwt>
<totfact> 0.55861375E+03</totfact>
</mgrwt>
</event>
<event>
 4    1  0.2679255E-004  0.3993363E+03  0.7818608E-02  0.1044010E+00
         -2   -1    0    0    0  501 -0.00000000000E+00  0.00000000000E+00  0.17492893053E+02  0.17492893239E+02  0.25500000000E-02 0. -1.
          2   -1    0    0  501    0  0.00000000000E+00 -0.00000000000E+00 -0.22790614735E+04  0.22790614735E+04  0.25500000000E-02 0.  1.
    5000001    1    1    2    0    0 -0.14777168944E+03 -0.23768963397E+02 -0.92050604641E+03  0.94120232538E+03  0.12700000000E+03 0.  0.
   -5000001    1    1    2    0    0  0.14777168944E+03  0.23768963397E+02 -0.13410625340E+04  0.13553520413E+04  0.12700000000E+03 0.  0.
<mgrwt>
<rscale>  0 0.39933634E+03</rscale>
<asrwt>0</asrwt>
<pdfrwt beam="1">  1        2 0.32558002E+00 0.39933634E+03</pdfrwt>
<pdfrwt beam="2">  1       -2 0.24989862E-02 0.39933634E+03</pdfrwt>
<totfact> 0.35713308E+03</totfact>
</mgrwt>
</event>
<event>
 4    1  0.2679255E-004  0.3424120E+03  0.7818608E-02  0.1065773E+00
         -2   -1    0    0    0  501 -0.00000000000E+00  0.00000000000E+00  0.29329762819E+03  0.29329762820E+03  0.25500000000E-02 0. -1.
          2   -1    0    0  501    0  0.00000000000E+00 -0.00000000000E+00 -0.99937701222E+02  0.99937701255E+02  0.25500000000E-02 0.  1.
    5000001    1    1    2    0    0  0.69868051722E+02  0.61934526972E+02  0.19940766156E+02  0.15888380798E+03  0.12700000000E+03 0.  0.
   -5000001    1    1    2    0    0 -0.69868051722E+02 -0.61934526972E+02  0.17341916081E+03  0.23435152148E+03  0.12700000000E+03 0.  0.
<mgrwt>
<rscale>  0 0.34241198E+03</rscale>
<asrwt>0</asrwt>
<pdfrwt beam="1">  1        2 0.14276814E-01 0.34241198E+03</pdfrwt>
<pdfrwt beam="2">  1       -2 0.41899662E-01 0.34241198E+03</pdfrwt>
<totfact> 0.22629010E+03</totfact>
</mgrwt>
</event>
<event>
 4    1  0.2679255E-004  0.4447334E+03  0.7818608E-02  0.1029304E+00
         -2   -1    0    0    0  501 -0.00000000000E+00  0.00000000000E+00  0.29815040321E+02  0.29815040430E+02  0.25500000000E-02 0.  1.
          2   -1    0    0  501    0  0.00000000000E+00 -0.00000000000E+00 -0.16584561893E+04  0.16584561893E+04  0.25500000000E-02 0. -1.
    5000001    1    1    2    0    0 -0.48249081914E+02  0.16527649222E+03 -0.10444070766E+04  0.10660954153E+04  0.12700000000E+03 0.  0.
   -5000001    1    1    2    0    0  0.48249081914E+02 -0.16527649222E+03 -0.58423407239E+03  0.62217581448E+03  0.12700000000E+03 0.  0.
<mgrwt>
<rscale>  0 0.44473335E+03</rscale>
<asrwt>0</asrwt>
<pdfrwt beam="1">  1        2 0.23692226E+00 0.44473335E+03</pdfrwt>
<pdfrwt beam="2">  1       -2 0.42592925E-02 0.44473335E+03</pdfrwt>
<totfact> 0.32447634E+03</totfact>
</mgrwt>
</event>
<event>
 4    1  0.2679255E-004  0.5614922E+03  0.7818608E-02  0.9988684E-01
          2   -1    0    0  501    0  0.00000000000E+00  0.00000000000E+00  0.17526840759E+04  0.17526840759E+04  0.25500000000E-02 0.  1.
         -2   -1    0    0    0  501 -0.00000000000E+00 -0.00000000000E+00 -0.44970092875E+02  0.44970092948E+02  0.25500000000E-02 0. -1.
    5000001    1    1    2    0    0  0.18822685060E+03  0.11784541309E+03  0.12240842308E+04  0.12505311243E+04  0.12700000000E+03 0.  0.
   -5000001    1    1    2    0    0 -0.18822685060E+03 -0.11784541309E+03  0.48362975221E+03  0.54712304456E+03  0.12700000000E+03 0.  0.
<mgrwt>
<rscale>  0 0.56149218E+03</rscale>
<asrwt>0</asrwt>
<pdfrwt beam="1">  1        2 0.25038344E+00 0.56149218E+03</pdfrwt>
<pdfrwt beam="2">  1       -2 0.64242990E-02 0.56149218E+03</pdfrwt>
<totfact> 0.15336650E+03</totfact>
</mgrwt>
</event>
<event>
 4    1  0.2679255E-004  0.3725684E+03  0.7818608E-02  0.1053715E+00
          2   -1    0    0  501    0  0.00000000000E+00  0.00000000000E+00  0.17929075488E+04  0.17929075488E+04  0.25500000000E-02 0.  1.
         -2   -1    0    0    0  501 -0.00000000000E+00 -0.00000000000E+00 -0.19355039414E+02  0.19355039582E+02  0.25500000000E-02 0. -1.
    5000001    1    1    2    0    0  0.12945961650E+03  0.17243891947E+02  0.10761478961E+04  0.10914579417E+04  0.12700000000E+03 0.  0.
   -5000001    1    1    2    0    0 -0.12945961650E+03 -0.17243891947E+02  0.69740461324E+03  0.72080464668E+03  0.12700000000E+03 0.  0.
<mgrwt>
<rscale>  0 0.37256836E+03</rscale>
<asrwt>0</asrwt>
<pdfrwt beam="1">  1        2 0.25612958E+00 0.37256836E+03</pdfrwt>
<pdfrwt beam="2">  1       -2 0.27650064E-02 0.37256836E+03</pdfrwt>
<totfact> 0.53447908E+03</totfact>
</mgrwt>
</event>
<event>
 4    1  0.2679255E-004  0.3656873E+03  0.7818608E-02  0.1056354E+00
         -2   -1    0    0    0  501 -0.00000000000E+00  0.00000000000E+00  0.15678631112E+02  0.15678631320E+02  0.25500000000E-02 0. -1.
          2   -1    0    0  501    0  0.00000000000E+00 -0.00000000000E+00 -0.21323157400E+04  0.21323157400E+04  0.25500000000E-02 0.  1.
    5000001    1    1    2    0    0 -0.10158004221E+03  0.82932579870E+02 -0.99770834194E+03  0.10142717848E+04  0.12700000000E+03 0.  0.
   -5000001    1    1    2    0    0  0.10158004221E+03 -0.82932579870E+02 -0.11189287669E+04  0.11337225865E+04  0.12700000000E+03 0.  0.
<mgrwt>
<rscale>  0 0.36568726E+03</rscale>
<asrwt>0</asrwt>
<pdfrwt beam="1">  1        2 0.30461635E+00 0.36568726E+03</pdfrwt>
<pdfrwt beam="2">  1       -2 0.22398058E-02 0.36568726E+03</pdfrwt>
<totfact> 0.49762929E+03</totfact>
</mgrwt>
</event>
<event>
 4    1  0.2679255E-004  0.2871827E+03  0.7818608E-02  0.1091829E+00
          2   -1    0    0  501    0  0.00000000000E+00  0.00000000000E+00  0.31157561929E+03  0.31157561930E+03  0.25500000000E-02 0.  1.
         -2   -1    0    0    0  501 -0.00000000000E+00 -0.00000000000E+00 -0.66174891786E+02  0.66174891835E+02  0.25500000000E-02 0. -1.
    5000001    1    1    2    0    0  0.59254980796E+02 -0.11684933011E+02  0.16086395500E+03  0.21366773838E+03  0.12700000000E+03 0.  0.
   -5000001    1    1    2    0    0 -0.59254980796E+02  0.11684933011E+02  0.84536772510E+02  0.16408277276E+03  0.12700000000E+03 0.  0.
<mgrwt>
<rscale>  0 0.28718275E+03</rscale>
<asrwt>0</asrwt>
<pdfrwt beam="1">  1        2 0.44510803E-01 0.28718275E+03</pdfrwt>
<pdfrwt beam="2">  1       -2 0.94535560E-02 0.28718275E+03</pdfrwt>
<totfact> 0.82110946E+03</totfact>
</mgrwt>
</event>
<event>
 4    1  0.2679255E-004  0.6294463E+03  0.7818608E-02  0.9846130E-01
         -2   -1    0    0    0  501 -0.00000000000E+00  0.00000000000E+00  0.10655591783E+03  0.10655591786E+03  0.25500000000E-02 0. -1.
          2   -1    0    0  501    0  0.00000000000E+00 -0.00000000000E+00 -0.92956509277E+03  0.92956509277E+03  0.25500000000E-02 0.  1.
    5000001    1    1    2    0    0  0.27823870852E+03 -0.38213673024E+02 -0.30681837859E+03  0.43490640506E+03  0.12700000000E+03 0.  0.
   -5000001    1    1    2    0    0 -0.27823870852E+03  0.38213673024E+02 -0.51619079634E+03  0.60121460557E+03  0.12700000000E+03 0.  0.
<mgrwt>
<rscale>  0 0.62944630E+03</rscale>
<asrwt>0</asrwt>
<pdfrwt beam="1">  1        2 0.13279501E+00 0.62944630E+03</pdfrwt>
<pdfrwt beam="2">  1       -2 0.15222274E-01 0.62944630E+03</pdfrwt>
<totfact> 0.10673004E+03</totfact>
</mgrwt>
</event>
<event>
 4    1  0.2679255E-004  0.4832085E+03  0.7818608E-02  0.1018257E+00
         -2   -1    0    0    0  501 -0.00000000000E+00  0.00000000000E+00  0.32083120998E+02  0.32083121099E+02  0.25500000000E-02 0. -1.
          2   -1    0    0  501    0  0.00000000000E+00 -0.00000000000E+00 -0.18194184923E+04  0.18194184923E+04  0.25500000000E-02 0.  1.
    5000001    1    1    2    0    0 -0.19663152451E+03  0.54202645843E+02 -0.79660122137E+03  0.83204830937E+03  0.12700000000E+03 0.  0.
   -5000001    1    1    2    0    0  0.19663152451E+03 -0.54202645843E+02 -0.99073414994E+03  0.10194533040E+04  0.12700000000E+03 0.  0.
<mgrwt>
<rscale>  0 0.48320854E+03</rscale>
<asrwt>0</asrwt>
<pdfrwt beam="1">  1        2 0.25991686E+00 0.48320854E+03</pdfrwt>
<pdfrwt beam="2">  1       -2 0.45833042E-02 0.48320854E+03</pdfrwt>
<totfact> 0.24050292E+03</totfact>
</mgrwt>
</event>
<event>
 4    1  0.2679255E-004  0.7368117E+03  0.7818608E-02  0.9656271E-01
         -2   -1    0    0    0  501 -0.00000000000E+00  0.00000000000E+00  0.67616639364E+02  0.67616639412E+02  0.25500000000E-02 0. -1.
          2   -1    0    0  501    0  0.00000000000E+00 -0.00000000000E+00 -0.20072408344E+04  0.20072408344E+04  0.25500000000E-02 0.  1.
    5000001    1    1    2    0    0  0.93586396813E+02  0.23913705304E+03 -0.31756478692E+03  0.42769304144E+03  0.12700000000E+03 0.  0.
   -5000001    1    1    2    0    0 -0.93586396813E+02 -0.23913705304E+03 -0.16220594081E+04  0.16471644324E+04  0.12700000000E+03 0.  0.
<mgrwt>
<rscale>  0 0.73681173E+03</rscale>
<asrwt>0</asrwt>
<pdfrwt beam="1">  1        2 0.28674865E+00 0.73681173E+03</pdfrwt>
<pdfrwt beam="2">  1       -2 0.96595211E-02 0.73681173E+03</pdfrwt>
<totfact> 0.58965523E+02</totfact>
</mgrwt>
</event>
<event>
 4    1  0.2679255E-004  0.3309994E+03  0.7818608E-02  0.1070696E+00
          2   -1    0    0  501    0  0.00000000000E+00  0.00000000000E+00  0.86216922419E+03  0.86216922419E+03  0.25500000000E-02 0.  1.
         -2   -1    0    0    0  501 -0.00000000000E+00 -0.00000000000E+00 -0.31768874615E+02  0.31768874717E+02  0.25500000000E-02 0. -1.
    5000001    1    1    2    0    0  0.46540130946E+02 -0.54100234978E+02  0.62731155275E+03  0.64400435047E+03  0.12700000000E+03 0.  0.
   -5000001    1    1    2    0    0 -0.46540130946E+02  0.54100234978E+02  0.20308879683E+03  0.24993374844E+03  0.12700000000E+03 0.  0.
<mgrwt>
<rscale>  0 0.33099937E+03</rscale>
<asrwt>0</asrwt>
<pdfrwt beam="1">  1        2 0.12316702E+00 0.33099937E+03</pdfrwt>
<pdfrwt beam="2">  1       -2 0.45384111E-02 0.33099937E+03</pdfrwt>
<totfact> 0.80752756E+03</totfact>
</mgrwt>
</event>
<event>
 4    1  0.2679255E-004  0.1281329E+04  0.7818608E-02  0.9044504E-01
         -2   -1    0    0    0  501 -0.00000000000E+00  0.00000000000E+00  0.20617591653E+03  0.20617591655E+03  0.25500000000E-02 0. -1.
          2   -1    0    0  501    0  0.00000000000E+00 -0.00000000000E+00 -0.19907795467E+04  0.19907795467E+04  0.25500000000E-02 0.  1.
    5000001    1    1    2    0    0  0.54709217988E+03  0.30430553477E+03 -0.97647562131E+03  0.11668527545E+04  0.12700000000E+03 0.  0.
   -5000001    1    1    2    0    0 -0.54709217988E+03 -0.30430553477E+03 -0.80812800890E+03  0.10301027087E+04  0.12700000000E+03 0.  0.
<mgrwt>
<rscale>  0 0.12813287E+04</rscale>
<asrwt>0</asrwt>
<pdfrwt beam="1">  1        2 0.28439707E+00 0.12813287E+04</pdfrwt>
<pdfrwt beam="2">  1       -2 0.29453704E-01 0.12813287E+04</pdfrwt>
<totfact> 0.84528497E+01</totfact>
</mgrwt>
</event>
<event>
 4    1  0.2679255E-004  0.3264067E+03  0.7818608E-02  0.1072738E+00
          2   -1    0    0  501    0  0.00000000000E+00  0.00000000000E+00  0.50760263693E+03  0.50760263694E+03  0.25500000000E-02 0.  1.
         -2   -1    0    0    0  501 -0.00000000000E+00 -0.00000000000E+00 -0.52472798726E+02  0.52472798788E+02  0.25500000000E-02 0. -1.
    5000001    1    1    2    0    0 -0.92378296239E+02 -0.40923096092E+02  0.19795008346E+03  0.25597203940E+03  0.12700000000E+03 0.  0.
   -5000001    1    1    2    0    0  0.92378296239E+02  0.40923096092E+02  0.25717975474E+03  0.30410339633E+03  0.12700000000E+03 0.  0.
<mgrwt>
<rscale>  0 0.32640669E+03</rscale>
<asrwt>0</asrwt>
<pdfrwt beam="1">  1        2 0.72514662E-01 0.32640669E+03</pdfrwt>
<pdfrwt beam="2">  1       -2 0.74961142E-02 0.32640669E+03</pdfrwt>
<totfact> 0.69805947E+03</totfact>
</mgrwt>
</event>
<event>
 4    1  0.2679255E-004  0.3724912E+03  0.7818608E-02  0.1053744E+00
         -2   -1    0    0    0  501 -0.00000000000E+00  0.00000000000E+00  0.34108973577E+02  0.34108973672E+02  0.25500000000E-02 0. -1.
          2   -1    0    0  501    0  0.00000000000E+00 -0.00000000000E+00 -0.10169588001E+04  0.10169588002E+04  0.25500000000E-02 0.  1.
    5000001    1    1    2    0    0  0.13447352486E+03  0.53771008362E+01 -0.43180841031E+03  0.46978670194E+03  0.12700000000E+03 0.  0.
   -5000001    1    1    2    0    0 -0.13447352486E+03 -0.53771008362E+01 -0.55104141626E+03  0.58128107188E+03  0.12700000000E+03 0.  0.
<mgrwt>
<rscale>  0 0.37249119E+03</rscale>
<asrwt>0</asrwt>
<pdfrwt beam="1">  1        2 0.14527981E+00 0.37249119E+03</pdfrwt>
<pdfrwt beam="2">  1       -2 0.48727112E-02 0.37249119E+03</pdfrwt>
<totfact> 0.58284605E+03</totfact>
</mgrwt>
</event>
<event>
 4    1  0.2679255E-004  0.5324064E+03  0.7818608E-02  0.1005650E+00
         -2   -1    0    0    0  501 -0.00000000000E+00  0.00000000000E+00  0.92345976210E+02  0.92345976245E+02  0.25500000000E-02 0. -1.
          2   -1    0    0  501    0  0.00000000000E+00 -0.00000000000E+00 -0.76737653751E+03  0.76737653752E+03  0.25500000000E-02 0.  1.
    5000001    1    1    2    0    0 -0.10789255084E+03  0.18302547845E+03 -0.49569847456E+03  0.55406236650E+03  0.12700000000E+03 0.  0.
   -5000001    1    1    2    0    0  0.10789255084E+03 -0.18302547845E+03 -0.17933208674E+03  0.30566014726E+03  0.12700000000E+03 0.  0.
<mgrwt>
<rscale>  0 0.53240637E+03</rscale>
<asrwt>0</asrwt>
<pdfrwt beam="1">  1        2 0.10962522E+00 0.53240637E+03</pdfrwt>
<pdfrwt beam="2">  1       -2 0.13192283E-01 0.53240637E+03</pdfrwt>
<totfact> 0.17432755E+03</totfact>
</mgrwt>
</event>
<event>
 4    1  0.2679255E-004  0.4543001E+03  0.7818608E-02  0.1026447E+00
          2   -1    0    0  501    0  0.00000000000E+00  0.00000000000E+00  0.27447543989E+04  0.27447543989E+04  0.25500000000E-02 0.  1.
         -2   -1    0    0    0  501 -0.00000000000E+00 -0.00000000000E+00 -0.18798456101E+02  0.18798456274E+02  0.25500000000E-02 0. -1.
    5000001    1    1    2    0    0  0.71893466077E+02 -0.87923773462E+02  0.22768386549E+04  0.22832044413E+04  0.12700000000E+03 0.  0.
   -5000001    1    1    2    0    0 -0.71893466077E+02  0.87923773462E+02  0.44911728788E+03  0.48034841384E+03  0.12700000000E+03 0.  0.
<mgrwt>
<rscale>  0 0.45430010E+03</rscale>
<asrwt>0</asrwt>
<pdfrwt beam="1">  1        2 0.39210759E+00 0.45430010E+03</pdfrwt>
<pdfrwt beam="2">  1       -2 0.26854950E-02 0.45430010E+03</pdfrwt>
<totfact> 0.18529481E+03</totfact>
</mgrwt>
</event>
<event>
 4    1  0.2679255E-004  0.5306108E+03  0.7818608E-02  0.1006084E+00
          2   -1    0    0  501    0  0.00000000000E+00  0.00000000000E+00  0.76829182419E+03  0.76829182420E+03  0.25500000000E-02 0.  1.
         -2   -1    0    0    0  501 -0.00000000000E+00 -0.00000000000E+00 -0.91614861336E+02  0.91614861372E+02  0.25500000000E-02 0. -1.
    5000001    1    1    2    0    0 -0.22838619299E+03  0.41066264319E+02  0.30547358235E+03  0.40409132721E+03  0.12700000000E+03 0.  0.
   -5000001    1    1    2    0    0  0.22838619299E+03 -0.41066264319E+02  0.37120338051E+03  0.45581535836E+03  0.12700000000E+03 0.  0.
<mgrwt>
<rscale>  0 0.53061078E+03</rscale>
<asrwt>0</asrwt>
<pdfrwt beam="1">  1        2 0.10975598E+00 0.53061078E+03</pdfrwt>
<pdfrwt beam="2">  1       -2 0.13087837E-01 0.53061078E+03</pdfrwt>
<totfact> 0.17637539E+03</totfact>
</mgrwt>
</event>
<event>
 4    1  0.2679255E-004  0.3785938E+03  0.7818608E-02  0.1051455E+00
          2   -1    0    0  501    0  0.00000000000E+00  0.00000000000E+00  0.39211740981E+02  0.39211741064E+02  0.25500000000E-02 0.  1.
         -2   -1    0    0    0  501 -0.00000000000E+00 -0.00000000000E+00 -0.91384170013E+03  0.91384170013E+03  0.25500000000E-02 0. -1.
    5000001    1    1    2    0    0  0.87457837287E+02  0.97139583631E+02 -0.30847796645E+03  0.35829126112E+03  0.12700000000E+03 0.  0.
   -5000001    1    1    2    0    0 -0.87457837287E+02 -0.97139583631E+02 -0.56615199270E+03  0.59476218007E+03  0.12700000000E+03 0.  0.
<mgrwt>
<rscale>  0 0.37859384E+03</rscale>
<asrwt>0</asrwt>
<pdfrwt beam="1">  1        2 0.56016779E-02 0.37859384E+03</pdfrwt>
<pdfrwt beam="2">  1       -2 0.13054880E+00 0.37859384E+03</pdfrwt>
<totfact> 0.61399248E+02</totfact>
</mgrwt>
</event>
<event>
 4    1  0.2679255E-004  0.1051927E+04  0.7818608E-02  0.9253357E-01
         -2   -1    0    0    0  501 -0.00000000000E+00  0.00000000000E+00  0.32084354197E+03  0.32084354198E+03  0.25500000000E-02 0. -1.
          2   -1    0    0  501    0  0.00000000000E+00 -0.00000000000E+00 -0.86221886355E+03  0.86221886355E+03  0.25500000000E-02 0.  1.
    5000001    1    1    2    0    0 -0.47280452698E+03 -0.10989926848E+02 -0.54812625598E+02  0.49274569825E+03  0.12700000000E+03 0.  0.
   -5000001    1    1    2    0    0  0.47280452698E+03  0.10989926848E+02 -0.48656269599E+03  0.69031670728E+03  0.12700000000E+03 0.  0.
<mgrwt>
<rscale>  0 0.10519265E+04</rscale>
<asrwt>0</asrwt>
<pdfrwt beam="1">  1        2 0.12317412E+00 0.10519265E+04</pdfrwt>
<pdfrwt beam="2">  1       -2 0.45834792E-01 0.10519265E+04</pdfrwt>
<totfact> 0.15470387E+02</totfact>
</mgrwt>
</event>
<event>
 4    1  0.2679255E-004  0.3182523E+03  0.7818608E-02  0.1076456E+00
         -2   -1    0    0    0  501 -0.00000000000E+00  0.00000000000E+00  0.18230749414E+02  0.18230749593E+02  0.25500000000E-02 0. -1.
          2   -1    0    0  501    0  0.00000000000E+00 -0.00000000000E+00 -0.13889239941E+04  0.13889239941E+04  0.25500000000E-02 0.  1.
    5000001    1    1    2    0    0 -0.57724656741E+02 -0.46238185502E+02 -0.41559771724E+03  0.44081806720E+03  0.12700000000E+03 0.  0.
   -5000001    1    1    2    0    0  0.57724656741E+02  0.46238185502E+02 -0.95509552746E+03  0.96633667651E+03  0.12700000000E+03 0.  0.
<mgrwt>
<rscale>  0 0.31825226E+03</rscale>
<asrwt>0</asrwt>
<pdfrwt beam="1">  1        2 0.19841765E+00 0.31825226E+03</pdfrwt>
<pdfrwt beam="2">  1       -2 0.26043937E-02 0.31825226E+03</pdfrwt>
<totfact> 0.93297239E+03</totfact>
</mgrwt>
</event>
<event>
 4    1  0.2679255E-004  0.3438231E+03  0.7818608E-02  0.1065179E+00
         -2   -1    0    0    0  501 -0.00000000000E+00  0.00000000000E+00  0.41733724819E+02  0.41733724897E+02  0.25500000000E-02 0. -1.
          2   -1    0    0  501    0  0.00000000000E+00 -0.00000000000E+00 -0.70814607084E+03  0.70814607085E+03  0.25500000000E-02 0.  1.
    5000001    1    1    2    0    0 -0.34116401388E+02  0.36799104784E+02 -0.56097735139E+03  0.57735837374E+03  0.12700000000E+03 0.  0.
   -5000001    1    1    2    0    0  0.34116401388E+02 -0.36799104784E+02 -0.10543499464E+03  0.17252142200E+03  0.12700000000E+03 0.  0.
<mgrwt>
<rscale>  0 0.34382305E+03</rscale>
<asrwt>0</asrwt>
<pdfrwt beam="1">  1        2 0.10116372E+00 0.34382305E+03</pdfrwt>
<pdfrwt beam="2">  1       -2 0.59619611E-02 0.34382305E+03</pdfrwt>
<totfact> 0.67942191E+03</totfact>
</mgrwt>
</event>
<event>
 4    1  0.2679255E-004  0.7450737E+03  0.7818608E-02  0.9643111E-01
         -2   -1    0    0    0  501 -0.00000000000E+00  0.00000000000E+00  0.37774856310E+03  0.37774856311E+03  0.25500000000E-02 0. -1.
          2   -1    0    0  501    0  0.00000000000E+00 -0.00000000000E+00 -0.36739703704E+03  0.36739703705E+03  0.25500000000E-02 0.  1.
    5000001    1    1    2    0    0  0.28491529511E+03 -0.20278116033E+03  0.24092621170E+02  0.37283559214E+03  0.12700000000E+03 0.  0.
   -5000001    1    1    2    0    0 -0.28491529511E+03  0.20278116033E+03 -0.13741095110E+02  0.37231000801E+03  0.12700000000E+03 0.  0.
<mgrwt>
<rscale>  0 0.74507370E+03</rscale>
<asrwt>0</asrwt>
<pdfrwt beam="1">  1        2 0.52485291E-01 0.74507370E+03</pdfrwt>
<pdfrwt beam="2">  1       -2 0.53964081E-01 0.74507370E+03</pdfrwt>
<totfact> 0.31009526E+02</totfact>
</mgrwt>
</event>
<event>
 4    1  0.2679255E-004  0.4164578E+03  0.7818608E-02  0.1038225E+00
         -2   -1    0    0    0  501 -0.00000000000E+00  0.00000000000E+00  0.22357007026E+02  0.22357007171E+02  0.25500000000E-02 0. -1.
          2   -1    0    0  501    0  0.00000000000E+00 -0.00000000000E+00 -0.19394040780E+04  0.19394040780E+04  0.25500000000E-02 0.  1.
    5000001    1    1    2    0    0 -0.10728794988E+03  0.10759011815E+03 -0.12617600520E+04  0.12772054520E+04  0.12700000000E+03 0.  0.
   -5000001    1    1    2    0    0  0.10728794988E+03 -0.10759011815E+03 -0.65528701894E+03  0.68455563317E+03  0.12700000000E+03 0.  0.
<mgrwt>
<rscale>  0 0.41645778E+03</rscale>
<asrwt>0</asrwt>
<pdfrwt beam="1">  1        2 0.27705762E+00 0.41645778E+03</pdfrwt>
<pdfrwt beam="2">  1       -2 0.31938594E-02 0.41645778E+03</pdfrwt>
<totfact> 0.36391205E+03</totfact>
</mgrwt>
</event>
<event>
 4    1  0.2679255E-004  0.3008942E+03  0.7818608E-02  0.1084794E+00
         -2   -1    0    0    0  501 -0.00000000000E+00  0.00000000000E+00  0.18806198959E+02  0.18806199132E+02  0.25500000000E-02 0. -1.
          2   -1    0    0  501    0  0.00000000000E+00 -0.00000000000E+00 -0.12035566411E+04  0.12035566411E+04  0.25500000000E-02 0.  1.
    5000001    1    1    2    0    0 -0.74135386655E+02 -0.12058745565E+02 -0.71177602621E+03  0.72690823382E+03  0.12700000000E+03 0.  0.
   -5000001    1    1    2    0    0  0.74135386655E+02  0.12058745565E+02 -0.47297441596E+03  0.49545460645E+03  0.12700000000E+03 0.  0.
<mgrwt>
<rscale>  0 0.30089417E+03</rscale>
<asrwt>0</asrwt>
<pdfrwt beam="1">  1        2 0.17193661E+00 0.30089417E+03</pdfrwt>
<pdfrwt beam="2">  1       -2 0.26866006E-02 0.30089417E+03</pdfrwt>
<totfact> 0.11156609E+04</totfact>
</mgrwt>
</event>
<event>
 4    1  0.2679255E-004  0.3241412E+03  0.7818608E-02  0.1073759E+00
          2   -1    0    0  501    0  0.00000000000E+00  0.00000000000E+00  0.75819272220E+03  0.75819272221E+03  0.25500000000E-02 0.  1.
         -2   -1    0    0    0  501 -0.00000000000E+00 -0.00000000000E+00 -0.34644072139E+02  0.34644072233E+02  0.25500000000E-02 0. -1.
    5000001    1    1    2    0    0  0.57731367200E+02  0.74173475855E+02  0.27347316387E+03  0.31583411253E+03  0.12700000000E+03 0.  0.
   -5000001    1    1    2    0    0 -0.57731367200E+02 -0.74173475855E+02  0.45007548619E+03  0.47700268191E+03  0.12700000000E+03 0.  0.
<mgrwt>
<rscale>  0 0.32414122E+03</rscale>
<asrwt>0</asrwt>
<pdfrwt beam="1">  1        2 0.10831324E+00 0.32414122E+03</pdfrwt>
<pdfrwt beam="2">  1       -2 0.49491533E-02 0.32414122E+03</pdfrwt>
<totfact> 0.83081460E+03</totfact>
</mgrwt>
</event>
<event>
 4    1  0.2679255E-004  0.3945620E+03  0.7818608E-02  0.1045679E+00
         -2   -1    0    0    0  501 -0.00000000000E+00  0.00000000000E+00  0.12654142044E+02  0.12654142301E+02  0.25500000000E-02 0. -1.
          2   -1    0    0  501    0  0.00000000000E+00 -0.00000000000E+00 -0.30756561523E+04  0.30756561523E+04  0.25500000000E-02 0.  1.
    5000001    1    1    2    0    0  0.14173148053E+03  0.47548763617E+02 -0.16960754419E+04  0.17073809189E+04  0.12700000000E+03 0.  0.
   -5000001    1    1    2    0    0 -0.14173148053E+03 -0.47548763617E+02 -0.13669265684E+04  0.13809293758E+04  0.12700000000E+03 0.  0.
<mgrwt>
<rscale>  0 0.39456199E+03</rscale>
<asrwt>0</asrwt>
<pdfrwt beam="1">  1        2 0.43937897E+00 0.39456199E+03</pdfrwt>
<pdfrwt beam="2">  1       -2 0.18077366E-02 0.39456199E+03</pdfrwt>
<totfact> 0.22428818E+03</totfact>
</mgrwt>
</event>
<event>
 4    1  0.2679255E-004  0.6748668E+03  0.7818608E-02  0.9761206E-01
          2   -1    0    0  501    0  0.00000000000E+00  0.00000000000E+00  0.32735087788E+03  0.32735087789E+03  0.25500000000E-02 0.  1.
         -2   -1    0    0    0  501 -0.00000000000E+00 -0.00000000000E+00 -0.34782648747E+03  0.34782648748E+03  0.25500000000E-02 0. -1.
    5000001    1    1    2    0    0  0.18640754173E+03 -0.13523781260E+03 -0.22174764324E+03  0.34400298669E+03  0.12700000000E+03 0.  0.
   -5000001    1    1    2    0    0 -0.18640754173E+03  0.13523781260E+03  0.20127203365E+03  0.33117437868E+03  0.12700000000E+03 0.  0.
<mgrwt>
<rscale>  0 0.67486682E+03</rscale>
<asrwt>0</asrwt>
<pdfrwt beam="1">  1        2 0.46764411E-01 0.67486682E+03</pdfrwt>
<pdfrwt beam="2">  1       -2 0.49689498E-01 0.67486682E+03</pdfrwt>
<totfact> 0.41811600E+02</totfact>
</mgrwt>
</event>
<event>
 4    1  0.2679255E-004  0.4397737E+03  0.7818608E-02  0.1030816E+00
         -2   -1    0    0    0  501 -0.00000000000E+00  0.00000000000E+00  0.21490452291E+02  0.21490452443E+02  0.25500000000E-02 0. -1.
          2   -1    0    0  501    0  0.00000000000E+00 -0.00000000000E+00 -0.22498468617E+04  0.22498468617E+04  0.25500000000E-02 0.  1.
    5000001    1    1    2    0    0 -0.16813679037E+02  0.14737034575E+03 -0.59203620533E+03  0.62340724012E+03  0.12700000000E+03 0.  0.
   -5000001    1    1    2    0    0  0.16813679037E+02 -0.14737034575E+03 -0.16363202041E+04  0.16479300741E+04  0.12700000000E+03 0.  0.
<mgrwt>
<rscale>  0 0.43977370E+03</rscale>
<asrwt>0</asrwt>
<pdfrwt beam="1">  1        2 0.32140655E+00 0.43977370E+03</pdfrwt>
<pdfrwt beam="2">  1       -2 0.30700660E-02 0.43977370E+03</pdfrwt>
<totfact> 0.27064036E+03</totfact>
</mgrwt>
</event>
<event>
 4    1  0.2679255E-004  0.3600879E+03  0.7818608E-02  0.1058549E+00
          2   -1    0    0  501    0  0.00000000000E+00  0.00000000000E+00  0.80014498697E+03  0.80014498698E+03  0.25500000000E-02 0. -1.
         -2   -1    0    0    0  501 -0.00000000000E+00 -0.00000000000E+00 -0.40512448093E+02  0.40512448174E+02  0.25500000000E-02 0.  1.
    5000001    1    1    2    0    0 -0.15088013607E+02  0.12582377088E+03  0.34459855857E+03  0.38850538740E+03  0.12700000000E+03 0.  0.
   -5000001    1    1    2    0    0  0.15088013607E+02 -0.12582377088E+03  0.41503398031E+03  0.45215204775E+03  0.12700000000E+03 0.  0.
<mgrwt>
<rscale>  0 0.36008795E+03</rscale>
<asrwt>0</asrwt>
<pdfrwt beam="1">  1        2 0.11430643E+00 0.36008795E+03</pdfrwt>
<pdfrwt beam="2">  1       -2 0.57874923E-02 0.36008795E+03</pdfrwt>
<totfact> 0.61300493E+03</totfact>
</mgrwt>
</event>
<event>
 4    1  0.2679255E-004  0.5494440E+03  0.7818608E-02  0.1001623E+00
          2   -1    0    0  501    0  0.00000000000E+00  0.00000000000E+00  0.37631565412E+04  0.37631565412E+04  0.25500000000E-02 0.  1.
         -2   -1    0    0    0  501 -0.00000000000E+00 -0.00000000000E+00 -0.20055548213E+02  0.20055548375E+02  0.25500000000E-02 0. -1.
    5000001    1    1    2    0    0 -0.23311051784E+03  0.68360638181E+02  0.17465677463E+04  0.17679484107E+04  0.12700000000E+03 0.  0.
   -5000001    1    1    2    0    0  0.23311051784E+03 -0.68360638181E+02  0.19965332467E+04  0.20152636789E+04  0.12700000000E+03 0.  0.
<mgrwt>
<rscale>  0 0.54944397E+03</rscale>
<asrwt>0</asrwt>
<pdfrwt beam="1">  1        2 0.53759447E+00 0.54944397E+03</pdfrwt>
<pdfrwt beam="2">  1       -2 0.28650747E-02 0.54944397E+03</pdfrwt>
<totfact> 0.43994046E+02</totfact>
</mgrwt>
</event>
<event>
 4    1  0.2679255E-004  0.5034634E+03  0.7818608E-02  0.1012879E+00
          2   -1    0    0  501    0  0.00000000000E+00  0.00000000000E+00  0.48040058422E+03  0.48040058422E+03  0.25500000000E-02 0.  1.
         -2   -1    0    0    0  501 -0.00000000000E+00 -0.00000000000E+00 -0.13190833752E+03  0.13190833755E+03  0.25500000000E-02 0. -1.
    5000001    1    1    2    0    0  0.12112700982E+03 -0.17471570265E+03  0.22921098467E+03  0.33743740864E+03  0.12700000000E+03 0.  0.
   -5000001    1    1    2    0    0 -0.12112700982E+03  0.17471570265E+03  0.11928126203E+03  0.27487151313E+03  0.12700000000E+03 0.  0.
<mgrwt>
<rscale>  0 0.50346337E+03</rscale>
<asrwt>0</asrwt>
<pdfrwt beam="1">  1        2 0.68628658E-01 0.50346337E+03</pdfrwt>
<pdfrwt beam="2">  1       -2 0.18844047E-01 0.50346337E+03</pdfrwt>
<totfact> 0.16588901E+03</totfact>
</mgrwt>
</event>
<event>
 4    1  0.2679255E-004  0.4208855E+03  0.7818608E-02  0.1036778E+00
         -2   -1    0    0    0  501 -0.00000000000E+00  0.00000000000E+00  0.58905854475E+02  0.58905854530E+02  0.25500000000E-02 0. -1.
          2   -1    0    0  501    0  0.00000000000E+00 -0.00000000000E+00 -0.75181245175E+03  0.75181245175E+03  0.25500000000E-02 0.  1.
    5000001    1    1    2    0    0 -0.88578915432E+02  0.69062333965E+02 -0.10632131235E+03  0.20012259166E+03  0.12700000000E+03 0.  0.
   -5000001    1    1    2    0    0  0.88578915432E+02 -0.69062333965E+02 -0.58658528492E+03  0.61059571462E+03  0.12700000000E+03 0.  0.
<mgrwt>
<rscale>  0 0.42088552E+03</rscale>
<asrwt>0</asrwt>
<pdfrwt beam="1">  1        2 0.10740177E+00 0.42088552E+03</pdfrwt>
<pdfrwt beam="2">  1       -2 0.84151225E-02 0.42088552E+03</pdfrwt>
<totfact> 0.36993879E+03</totfact>
</mgrwt>
</event>
<event>
 4    1  0.2679255E-004  0.5531211E+03  0.7818608E-02  0.1000774E+00
          2   -1    0    0  501    0  0.00000000000E+00  0.00000000000E+00  0.10833425721E+04  0.10833425721E+04  0.25500000000E-02 0.  1.
         -2   -1    0    0    0  501 -0.00000000000E+00 -0.00000000000E+00 -0.70601605369E+02  0.70601605415E+02  0.25500000000E-02 0. -1.
    5000001    1    1    2    0    0  0.10611583419E+03 -0.15373824212E+03  0.83925978994E+03  0.86912715547E+03  0.12700000000E+03 0.  0.
   -5000001    1    1    2    0    0 -0.10611583419E+03  0.15373824212E+03  0.17348117682E+03  0.28481702208E+03  0.12700000000E+03 0.  0.
<mgrwt>
<rscale>  0 0.55312105E+03</rscale>
<asrwt>0</asrwt>
<pdfrwt beam="1">  1        2 0.15476323E+00 0.55312105E+03</pdfrwt>
<pdfrwt beam="2">  1       -2 0.10085943E-01 0.55312105E+03</pdfrwt>
<totfact> 0.17010064E+03</totfact>
</mgrwt>
</event>
<event>
 4    1  0.2679255E-004  0.4232537E+03  0.7818608E-02  0.1036013E+00
          2   -1    0    0  501    0  0.00000000000E+00  0.00000000000E+00  0.28694864657E+04  0.28694864657E+04  0.25500000000E-02 0.  1.
         -2   -1    0    0    0  501 -0.00000000000E+00 -0.00000000000E+00 -0.15607644980E+02  0.15607645188E+02  0.25500000000E-02 0. -1.
    5000001    1    1    2    0    0 -0.15055743209E+03 -0.77211577803E+02  0.14628526902E+04  0.14780717714E+04  0.12700000000E+03 0.  0.
   -5000001    1    1    2    0    0  0.15055743209E+03  0.77211577803E+02  0.13910261305E+04  0.14070223395E+04  0.12700000000E+03 0.  0.
<mgrwt>
<rscale>  0 0.42325371E+03</rscale>
<asrwt>0</asrwt>
<pdfrwt beam="1">  1        2 0.40992673E+00 0.42325371E+03</pdfrwt>
<pdfrwt beam="2">  1       -2 0.22296631E-02 0.42325371E+03</pdfrwt>
<totfact> 0.21112651E+03</totfact>
</mgrwt>
</event>
<event>
 4    1  0.2679255E-004  0.3838685E+03  0.7818608E-02  0.1049513E+00
          2   -1    0    0  501    0  0.00000000000E+00  0.00000000000E+00  0.50448422335E+03  0.50448422335E+03  0.25500000000E-02 0.  1.
         -2   -1    0    0    0  501 -0.00000000000E+00 -0.00000000000E+00 -0.73022628781E+02  0.73022628826E+02  0.25500000000E-02 0. -1.
    5000001    1    1    2    0    0  0.20976899282E+01 -0.13989266928E+03  0.26642403302E+03  0.32662688896E+03  0.12700000000E+03 0.  0.
   -5000001    1    1    2    0    0 -0.20976899282E+01  0.13989266928E+03  0.16503756154E+03  0.25087996322E+03  0.12700000000E+03 0.  0.
<mgrwt>
<rscale>  0 0.38386854E+03</rscale>
<asrwt>0</asrwt>
<pdfrwt beam="1">  1        2 0.72069173E-01 0.38386854E+03</pdfrwt>
<pdfrwt beam="2">  1       -2 0.10431804E-01 0.38386854E+03</pdfrwt>
<totfact> 0.41803182E+03</totfact>
</mgrwt>
</event>
<event>
 4    1  0.2679255E-004  0.3945525E+03  0.7818608E-02  0.1045682E+00
          2   -1    0    0  501    0  0.00000000000E+00  0.00000000000E+00  0.99436360453E+03  0.99436360454E+03  0.25500000000E-02 0.  1.
         -2   -1    0    0    0  501 -0.00000000000E+00 -0.00000000000E+00 -0.39138525640E+02  0.39138525723E+02  0.25500000000E-02 0. -1.
    5000001    1    1    2    0    0  0.11009956505E+03  0.40395572745E+02  0.22862613149E+03  0.28662279135E+03  0.12700000000E+03 0.  0.
   -5000001    1    1    2    0    0 -0.11009956505E+03 -0.40395572745E+02  0.72659894741E+03  0.74687933891E+03  0.12700000000E+03 0.  0.
<mgrwt>
<rscale>  0 0.39455253E+03</rscale>
<asrwt>0</asrwt>
<pdfrwt beam="1">  1        2 0.14205193E+00 0.39455253E+03</pdfrwt>
<pdfrwt beam="2">  1       -2 0.55912184E-02 0.39455253E+03</pdfrwt>
<totfact> 0.48709193E+03</totfact>
</mgrwt>
</event>
<event>
 4    1  0.2679255E-004  0.3265490E+03  0.7818608E-02  0.1072674E+00
          2   -1    0    0  501    0  0.00000000000E+00  0.00000000000E+00  0.12828152638E+03  0.12828152641E+03  0.25500000000E-02 0.  1.
         -2   -1    0    0    0  501 -0.00000000000E+00 -0.00000000000E+00 -0.20781298243E+03  0.20781298245E+03  0.25500000000E-02 0. -1.
    5000001    1    1    2    0    0 -0.17272433454E+02 -0.10106584037E+03 -0.35531400879E+02  0.16704526780E+03  0.12700000000E+03 0.  0.
   -5000001    1    1    2    0    0  0.17272433454E+02  0.10106584037E+03 -0.44000055170E+02  0.16904924106E+03  0.12700000000E+03 0.  0.
<mgrwt>
<rscale>  0 0.32654903E+03</rscale>
<asrwt>0</asrwt>
<pdfrwt beam="1">  1        2 0.18325932E-01 0.32654903E+03</pdfrwt>
<pdfrwt beam="2">  1       -2 0.29687569E-01 0.32654903E+03</pdfrwt>
<totfact> 0.32116922E+03</totfact>
</mgrwt>
</event>
<event>
 4    1  0.2679255E-004  0.5988402E+03  0.7818608E-02  0.9907815E-01
         -2   -1    0    0    0  501 -0.00000000000E+00  0.00000000000E+00  0.39432103534E+02  0.39432103616E+02  0.25500000000E-02 0. -1.
          2   -1    0    0  501    0  0.00000000000E+00 -0.00000000000E+00 -0.22735891585E+04  0.22735891585E+04  0.25500000000E-02 0.  1.
    5000001    1    1    2    0    0 -0.66844006204E+02  0.26132224909E+03 -0.10101797141E+04  0.10532566135E+04  0.12700000000E+03 0.  0.
   -5000001    1    1    2    0    0  0.66844006204E+02 -0.26132224909E+03 -0.12239773409E+04  0.12597646487E+04  0.12700000000E+03 0.  0.
<mgrwt>
<rscale>  0 0.59884022E+03</rscale>
<asrwt>0</asrwt>
<pdfrwt beam="1">  1        2 0.32479837E+00 0.59884022E+03</pdfrwt>
<pdfrwt beam="2">  1       -2 0.56331591E-02 0.59884022E+03</pdfrwt>
<totfact> 0.10286726E+03</totfact>
</mgrwt>
</event>
<event>
 4    1  0.2679255E-004  0.7120019E+03  0.7818608E-02  0.9696925E-01
          2   -1    0    0  501    0  0.00000000000E+00  0.00000000000E+00  0.15397016763E+03  0.15397016765E+03  0.25500000000E-02 0.  1.
         -2   -1    0    0    0  501 -0.00000000000E+00 -0.00000000000E+00 -0.82312492977E+03  0.82312492977E+03  0.25500000000E-02 0. -1.
    5000001    1    1    2    0    0  0.13796362110E+02 -0.32182722613E+03 -0.22104255936E+03  0.41079425037E+03  0.12700000000E+03 0.  0.
   -5000001    1    1    2    0    0 -0.13796362110E+02  0.32182722613E+03 -0.44811220278E+03  0.56630084705E+03  0.12700000000E+03 0.  0.
<mgrwt>
<rscale>  0 0.71200192E+03</rscale>
<asrwt>0</asrwt>
<pdfrwt beam="1">  1        2 0.21995739E-01 0.71200192E+03</pdfrwt>
<pdfrwt beam="2">  1       -2 0.11758927E+00 0.71200192E+03</pdfrwt>
<totfact> 0.14340962E+02</totfact>
</mgrwt>
</event>
<event>
 4    1  0.2679255E-004  0.3786833E+03  0.7818608E-02  0.1051421E+00
         -2   -1    0    0    0  501 -0.00000000000E+00  0.00000000000E+00  0.15819267704E+02  0.15819267910E+02  0.25500000000E-02 0. -1.
          2   -1    0    0  501    0  0.00000000000E+00 -0.00000000000E+00 -0.22662400694E+04  0.22662400694E+04  0.25500000000E-02 0.  1.
    5000001    1    1    2    0    0  0.13296013472E+03 -0.40892052155E+02 -0.12412383989E+04  0.12554490513E+04  0.12700000000E+03 0.  0.
   -5000001    1    1    2    0    0 -0.13296013472E+03  0.40892052155E+02 -0.10091824027E+04  0.10266102860E+04  0.12700000000E+03 0.  0.
<mgrwt>
<rscale>  0 0.37868329E+03</rscale>
<asrwt>0</asrwt>
<pdfrwt beam="1">  1        2 0.32374837E+00 0.37868329E+03</pdfrwt>
<pdfrwt beam="2">  1       -2 0.22598968E-02 0.37868329E+03</pdfrwt>
<totfact> 0.42140633E+03</totfact>
</mgrwt>
</event>
<event>
 4    1  0.2679255E-004  0.3098667E+03  0.7818608E-02  0.1080410E+00
         -2   -1    0    0    0  501 -0.00000000000E+00  0.00000000000E+00  0.64609017695E+03  0.64609017696E+03  0.25500000000E-02 0. -1.
          2   -1    0    0  501    0  0.00000000000E+00 -0.00000000000E+00 -0.37153249066E+02  0.37153249154E+02  0.25500000000E-02 0.  1.
    5000001    1    1    2    0    0  0.21122231018E+02 -0.40722714159E+02  0.47197077823E+03  0.49090722504E+03  0.12700000000E+03 0.  0.
   -5000001    1    1    2    0    0 -0.21122231018E+02  0.40722714159E+02  0.13696614966E+03  0.19233620107E+03  0.12700000000E+03 0.  0.
<mgrwt>
<rscale>  0 0.30986674E+03</rscale>
<asrwt>0</asrwt>
<pdfrwt beam="1">  1        2 0.53076074E-02 0.30986674E+03</pdfrwt>
<pdfrwt beam="2">  1       -2 0.92298590E-01 0.30986674E+03</pdfrwt>
<totfact> 0.15039603E+03</totfact>
</mgrwt>
</event>
<event>
 4    1  0.2679255E-004  0.3387964E+03  0.7818608E-02  0.1067310E+00
          2   -1    0    0  501    0  0.00000000000E+00  0.00000000000E+00  0.30607252085E+03  0.30607252086E+03  0.25500000000E-02 0.  1.
         -2   -1    0    0    0  501 -0.00000000000E+00 -0.00000000000E+00 -0.93754725416E+02  0.93754725450E+02  0.25500000000E-02 0. -1.
    5000001    1    1    2    0    0  0.88160064557E+02 -0.65927484093E+02  0.13114096570E+03  0.21317969656E+03  0.12700000000E+03 0.  0.
   -5000001    1    1    2    0    0 -0.88160064557E+02  0.65927484093E+02  0.81176829735E+02  0.18664754975E+03  0.12700000000E+03 0.  0.
<mgrwt>
<rscale>  0 0.33879637E+03</rscale>
<asrwt>0</asrwt>
<pdfrwt beam="1">  1        2 0.43724646E-01 0.33879637E+03</pdfrwt>
<pdfrwt beam="2">  1       -2 0.13393532E-01 0.33879637E+03</pdfrwt>
<totfact> 0.48013797E+03</totfact>
</mgrwt>
</event>
<event>
 4    1  0.2679255E-004  0.2889419E+03  0.7818608E-02  0.1090903E+00
         -2   -1    0    0    0  501 -0.00000000000E+00  0.00000000000E+00  0.14199796135E+02  0.14199796364E+02  0.25500000000E-02 0. -1.
          2   -1    0    0  501    0  0.00000000000E+00 -0.00000000000E+00 -0.14698703002E+04  0.14698703002E+04  0.25500000000E-02 0.  1.
    5000001    1    1    2    0    0 -0.59981728341E+02 -0.76794530531E+01 -0.89710298289E+03  0.90806362312E+03  0.12700000000E+03 0.  0.
   -5000001    1    1    2    0    0  0.59981728341E+02  0.76794530531E+01 -0.55856752115E+03  0.57600647342E+03  0.12700000000E+03 0.  0.
<mgrwt>
<rscale>  0 0.28894192E+03</rscale>
<asrwt>0</asrwt>
<pdfrwt beam="1">  1        2 0.20998137E+00 0.28894192E+03</pdfrwt>
<pdfrwt beam="2">  1       -2 0.20285433E-02 0.28894192E+03</pdfrwt>
<totfact> 0.12247014E+04</totfact>
</mgrwt>
</event>
<event>
 4    1  0.2679255E-004  0.6834600E+03  0.7818608E-02  0.9745943E-01
          2   -1    0    0  501    0  0.00000000000E+00  0.00000000000E+00  0.39624404123E+04  0.39624404123E+04  0.25500000000E-02 0.  1.
         -2   -1    0    0    0  501 -0.00000000000E+00 -0.00000000000E+00 -0.29471584327E+02  0.29471584437E+02  0.25500000000E-02 0. -1.
    5000001    1    1    2    0    0  0.85081076079E+02 -0.23178094079E+03  0.80288354367E+03  0.84953644932E+03  0.12700000000E+03 0.  0.
   -5000001    1    1    2    0    0 -0.85081076079E+02  0.23178094079E+03  0.31300852843E+04  0.31423755474E+04  0.12700000000E+03 0.  0.
<mgrwt>
<rscale>  0 0.68346001E+03</rscale>
<asrwt>0</asrwt>
<pdfrwt beam="1">  1        2 0.56606317E+00 0.68346001E+03</pdfrwt>
<pdfrwt beam="2">  1       -2 0.42102244E-02 0.68346001E+03</pdfrwt>
<totfact> 0.17840468E+02</totfact>
</mgrwt>
</event>
<event>
 4    1  0.2679255E-004  0.5776752E+03  0.7818608E-02  0.9952837E-01
         -2   -1    0    0    0  501 -0.00000000000E+00  0.00000000000E+00  0.18665816667E+03  0.18665816669E+03  0.25500000000E-02 0. -1.
          2   -1    0    0  501    0  0.00000000000E+00 -0.00000000000E+00 -0.44695159071E+03  0.44695159071E+03  0.25500000000E-02 0.  1.
    5000001    1    1    2    0    0  0.23853435206E+03 -0.59960920742E+02 -0.39672013238E+02  0.27963693920E+03  0.12700000000E+03 0.  0.
   -5000001    1    1    2    0    0 -0.23853435206E+03  0.59960920742E+02 -0.22062141079E+03  0.35397281821E+03  0.12700000000E+03 0.  0.
<mgrwt>
<rscale>  0 0.57767522E+03</rscale>
<asrwt>0</asrwt>
<pdfrwt beam="1">  1        2 0.63850227E-01 0.57767522E+03</pdfrwt>
<pdfrwt beam="2">  1       -2 0.26665453E-01 0.57767522E+03</pdfrwt>
<totfact> 0.97460145E+02</totfact>
</mgrwt>
</event>
<event>
 4    1  0.2679255E-004  0.4278125E+03  0.7818608E-02  0.1034553E+00
         -2   -1    0    0    0  501 -0.00000000000E+00  0.00000000000E+00  0.32834152432E+03  0.32834152433E+03  0.25500000000E-02 0. -1.
          2   -1    0    0  501    0  0.00000000000E+00 -0.00000000000E+00 -0.13935455152E+03  0.13935455154E+03  0.25500000000E-02 0.  1.
    5000001    1    1    2    0    0 -0.53122751735E+02  0.15592764515E+03  0.39925934618E+02  0.21179834165E+03  0.12700000000E+03 0.  0.
   -5000001    1    1    2    0    0  0.53122751735E+02 -0.15592764515E+03  0.14906103818E+03  0.25589773421E+03  0.12700000000E+03 0.  0.
<mgrwt>
<rscale>  0 0.42781251E+03</rscale>
<asrwt>0</asrwt>
<pdfrwt beam="1">  1        2 0.19907793E-01 0.42781251E+03</pdfrwt>
<pdfrwt beam="2">  1       -2 0.46905933E-01 0.42781251E+03</pdfrwt>
<totfact> 0.12284650E+03</totfact>
</mgrwt>
</event>
<event>
 4    1  0.2679255E-004  0.6155616E+03  0.7818608E-02  0.9873637E-01
          2   -1    0    0  501    0  0.00000000000E+00  0.00000000000E+00  0.36609649039E+03  0.36609649040E+03  0.25500000000E-02 0.  1.
         -2   -1    0    0    0  501 -0.00000000000E+00 -0.00000000000E+00 -0.25875420903E+03  0.25875420904E+03  0.25500000000E-02 0. -1.
    5000001    1    1    2    0    0  0.11690388128E+03 -0.16503775512E+03 -0.14341340748E+03  0.27856845392E+03  0.12700000000E+03 0.  0.
   -5000001    1    1    2    0    0 -0.11690388128E+03  0.16503775512E+03  0.25075568885E+03  0.34628224552E+03  0.12700000000E+03 0.  0.
<mgrwt>
<rscale>  0 0.61556156E+03</rscale>
<asrwt>0</asrwt>
<pdfrwt beam="1">  1        2 0.52299499E-01 0.61556156E+03</pdfrwt>
<pdfrwt beam="2">  1       -2 0.36964887E-01 0.61556156E+03</pdfrwt>
<totfact> 0.66228711E+02</totfact>
</mgrwt>
</event>
<event>
 4    1  0.2679255E-004  0.2723189E+03  0.7818608E-02  0.1099960E+00
         -2   -1    0    0    0  501 -0.00000000000E+00  0.00000000000E+00  0.91122395459E+02  0.91122395495E+02  0.25500000000E-02 0. -1.
          2   -1    0    0  501    0  0.00000000000E+00 -0.00000000000E+00 -0.20345590483E+03  0.20345590484E+03  0.25500000000E-02 0.  1.
    5000001    1    1    2    0    0  0.27050488809E+02 -0.40504279034E+02 -0.62840651106E+02  0.14983415164E+03  0.12700000000E+03 0.  0.
   -5000001    1    1    2    0    0 -0.27050488809E+02  0.40504279034E+02 -0.49492858263E+02  0.14474414870E+03  0.12700000000E+03 0.  0.
<mgrwt>
<rscale>  0 0.27231885E+03</rscale>
<asrwt>0</asrwt>
<pdfrwt beam="1">  1        2 0.29065129E-01 0.27231885E+03</pdfrwt>
<pdfrwt beam="2">  1       -2 0.13017485E-01 0.27231885E+03</pdfrwt>
<totfact> 0.77900212E+03</totfact>
</mgrwt>
</event>
<event>
 4    1  0.2679255E-004  0.4039720E+03  0.7818608E-02  0.1042413E+00
         -2   -1    0    0    0  501 -0.00000000000E+00  0.00000000000E+00  0.60943193480E+03  0.60943193481E+03  0.25500000000E-02 0. -1.
          2   -1    0    0  501    0  0.00000000000E+00 -0.00000000000E+00 -0.66944886088E+02  0.66944886136E+02  0.25500000000E-02 0.  1.
    5000001    1    1    2    0    0 -0.11641756606E+03  0.28948377393E+02  0.10149816314E+03  0.20204438958E+03  0.12700000000E+03 0.  0.
   -5000001    1    1    2    0    0  0.11641756606E+03 -0.28948377393E+02  0.44098888558E+03  0.47433243137E+03  0.12700000000E+03 0.  0.
<mgrwt>
<rscale>  0 0.40397204E+03</rscale>
<asrwt>0</asrwt>
<pdfrwt beam="1">  1        2 0.95635548E-02 0.40397204E+03</pdfrwt>
<pdfrwt beam="2">  1       -2 0.87061709E-01 0.40397204E+03</pdfrwt>
<totfact> 0.80487306E+02</totfact>
</mgrwt>
</event>
<event>
 4    1  0.2679255E-004  0.4637840E+03  0.7818608E-02  0.1023689E+00
         -2   -1    0    0    0  501 -0.00000000000E+00  0.00000000000E+00  0.83311047909E+02  0.83311047948E+02  0.25500000000E-02 0. -1.
          2   -1    0    0  501    0  0.00000000000E+00 -0.00000000000E+00 -0.64545935111E+03  0.64545935112E+03  0.25500000000E-02 0.  1.
    5000001    1    1    2    0    0 -0.38279086756E+02  0.18799157027E+03 -0.23556508063E+03  0.32928107475E+03  0.12700000000E+03 0.  0.
   -5000001    1    1    2    0    0  0.38279086756E+02 -0.18799157027E+03 -0.32658322257E+03  0.39948932431E+03  0.12700000000E+03 0.  0.
<mgrwt>
<rscale>  0 0.46378398E+03</rscale>
<asrwt>0</asrwt>
<pdfrwt beam="1">  1        2 0.92208476E-01 0.46378398E+03</pdfrwt>
<pdfrwt beam="2">  1       -2 0.11901579E-01 0.46378398E+03</pdfrwt>
<totfact> 0.25487148E+03</totfact>
</mgrwt>
</event>
<event>
 4    1  0.2679255E-004  0.3005856E+03  0.7818608E-02  0.1084948E+00
         -2   -1    0    0    0  501 -0.00000000000E+00  0.00000000000E+00  0.36265905687E+02  0.36265905776E+02  0.25500000000E-02 0. -1.
          2   -1    0    0  501    0  0.00000000000E+00 -0.00000000000E+00 -0.62284202086E+03  0.62284202086E+03  0.25500000000E-02 0.  1.
    5000001    1    1    2    0    0  0.41279982280E+02 -0.68080247196E+02 -0.31730568599E+03  0.35092856162E+03  0.12700000000E+03 0.  0.
   -5000001    1    1    2    0    0 -0.41279982280E+02  0.68080247196E+02 -0.26927042918E+03  0.30817936502E+03  0.12700000000E+03 0.  0.
<mgrwt>
<rscale>  0 0.30058563E+03</rscale>
<asrwt>0</asrwt>
<pdfrwt beam="1">  1        2 0.88977425E-01 0.30058563E+03</pdfrwt>
<pdfrwt beam="2">  1       -2 0.51808441E-02 0.30058563E+03</pdfrwt>
<totfact> 0.97624453E+03</totfact>
</mgrwt>
</event>
<event>
 4    1  0.2679255E-004  0.4793654E+03  0.7818608E-02  0.1019310E+00
          2   -1    0    0  501    0  0.00000000000E+00  0.00000000000E+00  0.11832225397E+04  0.11832225397E+04  0.25500000000E-02 0.  1.
         -2   -1    0    0    0  501 -0.00000000000E+00 -0.00000000000E+00 -0.48551973220E+02  0.48551973287E+02  0.25500000000E-02 0. -1.
    5000001    1    1    2    0    0 -0.10472217800E+03  0.16674574223E+03  0.69704029851E+03  0.73536729249E+03  0.12700000000E+03 0.  0.
   -5000001    1    1    2    0    0  0.10472217800E+03 -0.16674574223E+03  0.43763026795E+03  0.49640722048E+03  0.12700000000E+03 0.  0.
<mgrwt>
<rscale>  0 0.47936537E+03</rscale>
<asrwt>0</asrwt>
<pdfrwt beam="1">  1        2 0.16903176E+00 0.47936537E+03</pdfrwt>
<pdfrwt beam="2">  1       -2 0.69359973E-02 0.47936537E+03</pdfrwt>
<totfact> 0.27112879E+03</totfact>
</mgrwt>
</event>
<event>
 4    1  0.2679255E-004  0.4005007E+03  0.7818608E-02  0.1043606E+00
          2   -1    0    0  501    0  0.00000000000E+00  0.00000000000E+00  0.55833276393E+03  0.55833276393E+03  0.25500000000E-02 0.  1.
         -2   -1    0    0    0  501 -0.00000000000E+00 -0.00000000000E+00 -0.71821323656E+02  0.71821323701E+02  0.25500000000E-02 0. -1.
    5000001    1    1    2    0    0  0.25468548773E+02 -0.11530715782E+03  0.85703362223E+02  0.19343850164E+03  0.12700000000E+03 0.  0.
   -5000001    1    1    2    0    0 -0.25468548773E+02  0.11530715782E+03  0.40080807805E+03  0.43671558599E+03  0.12700000000E+03 0.  0.
<mgrwt>
<rscale>  0 0.40050068E+03</rscale>
<asrwt>0</asrwt>
<pdfrwt beam="1">  1        2 0.79761823E-01 0.40050068E+03</pdfrwt>
<pdfrwt beam="2">  1       -2 0.10260189E-01 0.40050068E+03</pdfrwt>
<totfact> 0.38308732E+03</totfact>
</mgrwt>
</event>
<event>
 4    1  0.2679255E-004  0.2928811E+03  0.7818608E-02  0.1088854E+00
         -2   -1    0    0    0  501 -0.00000000000E+00  0.00000000000E+00  0.90964773076E+02  0.90964773111E+02  0.25500000000E-02 0. -1.
          2   -1    0    0  501    0  0.00000000000E+00 -0.00000000000E+00 -0.23574882193E+03  0.23574882194E+03  0.25500000000E-02 0.  1.
    5000001    1    1    2    0    0  0.60417084215E+02 -0.36260052320E+02 -0.93285930126E+02  0.17261599062E+03  0.12700000000E+03 0.  0.
   -5000001    1    1    2    0    0 -0.60417084215E+02  0.36260052320E+02 -0.51498118730E+02  0.15409760443E+03  0.12700000000E+03 0.  0.
<mgrwt>
<rscale>  0 0.29288112E+03</rscale>
<asrwt>0</asrwt>
<pdfrwt beam="1">  1        2 0.33678403E-01 0.29288112E+03</pdfrwt>
<pdfrwt beam="2">  1       -2 0.12994968E-01 0.29288112E+03</pdfrwt>
<totfact> 0.66668307E+03</totfact>
</mgrwt>
</event>
<event>
 4    1  0.2679255E-004  0.3641891E+03  0.7818608E-02  0.1056937E+00
          2   -1    0    0  501    0  0.00000000000E+00  0.00000000000E+00  0.27196515446E+04  0.27196515446E+04  0.25500000000E-02 0.  1.
         -2   -1    0    0    0  501 -0.00000000000E+00 -0.00000000000E+00 -0.12192157449E+02  0.12192157715E+02  0.25500000000E-02 0. -1.
    5000001    1    1    2    0    0  0.76776166985E+02 -0.10377233497E+03  0.12101958764E+04  0.12236692105E+04  0.12700000000E+03 0.  0.
   -5000001    1    1    2    0    0 -0.76776166985E+02  0.10377233497E+03  0.14972635108E+04  0.15081744919E+04  0.12700000000E+03 0.  0.
<mgrwt>
<rscale>  0 0.36418907E+03</rscale>
<asrwt>0</asrwt>
<pdfrwt beam="1">  1        2 0.38852145E+00 0.36418907E+03</pdfrwt>
<pdfrwt beam="2">  1       -2 0.17417377E-02 0.36418907E+03</pdfrwt>
<totfact> 0.36630933E+03</totfact>
</mgrwt>
</event>
<event>
 4    1  0.2679255E-004  0.8263557E+03  0.7818608E-02  0.9522633E-01
          2   -1    0    0  501    0  0.00000000000E+00  0.00000000000E+00  0.55418190322E+03  0.55418190323E+03  0.25500000000E-02 0.  1.
         -2   -1    0    0    0  501 -0.00000000000E+00 -0.00000000000E+00 -0.30805036122E+03  0.30805036123E+03  0.25500000000E-02 0. -1.
    5000001    1    1    2    0    0 -0.15765344774E+03 -0.34332021346E+03  0.23671453123E+03  0.46355813858E+03  0.12700000000E+03 0.  0.
   -5000001    1    1    2    0    0  0.15765344774E+03  0.34332021346E+03  0.94170107710E+01  0.39867412587E+03  0.12700000000E+03 0.  0.
<mgrwt>
<rscale>  0 0.82635570E+03</rscale>
<asrwt>0</asrwt>
<pdfrwt beam="1">  1        2 0.79168844E-01 0.82635570E+03</pdfrwt>
<pdfrwt beam="2">  1       -2 0.44007194E-01 0.82635570E+03</pdfrwt>
<totfact> 0.29317585E+02</totfact>
</mgrwt>
</event>
<event>
 4    1  0.2679255E-004  0.5474567E+03  0.7818608E-02  0.1002084E+00
          2   -1    0    0  501    0  0.00000000000E+00  0.00000000000E+00  0.36837922593E+03  0.36837922594E+03  0.25500000000E-02 0.  1.
         -2   -1    0    0    0  501 -0.00000000000E+00 -0.00000000000E+00 -0.20339691356E+03  0.20339691358E+03  0.25500000000E-02 0. -1.
    5000001    1    1    2    0    0  0.22245012748E+03  0.13805574935E+01  0.18327784822E+03  0.31496941884E+03  0.12700000000E+03 0.  0.
   -5000001    1    1    2    0    0 -0.22245012748E+03 -0.13805574935E+01 -0.18295535855E+02  0.25680672068E+03  0.12700000000E+03 0.  0.
<mgrwt>
<rscale>  0 0.54745666E+03</rscale>
<asrwt>0</asrwt>
<pdfrwt beam="1">  1        2 0.52625604E-01 0.54745666E+03</pdfrwt>
<pdfrwt beam="2">  1       -2 0.29056702E-01 0.54745666E+03</pdfrwt>
<totfact> 0.10332766E+03</totfact>
</mgrwt>
</event>
<event>
 4    1  0.2679255E-004  0.5040551E+03  0.7818608E-02  0.1012726E+00
          2   -1    0    0  501    0  0.00000000000E+00  0.00000000000E+00  0.98242804120E+03  0.98242804121E+03  0.25500000000E-02 0.  1.
         -2   -1    0    0    0  501 -0.00000000000E+00 -0.00000000000E+00 -0.64653994834E+02  0.64653994884E+02  0.25500000000E-02 0. -1.
    5000001    1    1    2    0    0  0.16727051031E+03 -0.12599371041E+03  0.58239669843E+03  0.63179803183E+03  0.12700000000E+03 0.  0.
   -5000001    1    1    2    0    0 -0.16727051031E+03  0.12599371041E+03  0.33537734794E+03  0.41528400426E+03  0.12700000000E+03 0.  0.
<mgrwt>
<rscale>  0 0.50405515E+03</rscale>
<asrwt>0</asrwt>
<pdfrwt beam="1">  1        2 0.14034685E+00 0.50405515E+03</pdfrwt>
<pdfrwt beam="2">  1       -2 0.92362860E-02 0.50405515E+03</pdfrwt>
<totfact> 0.22529672E+03</totfact>
</mgrwt>
</event>
<event>
 4    1  0.2679255E-004  0.4428130E+03  0.7818608E-02  0.1029887E+00
         -2   -1    0    0    0  501 -0.00000000000E+00  0.00000000000E+00  0.58684754886E+02  0.58684754941E+02  0.25500000000E-02 0. -1.
          2   -1    0    0  501    0  0.00000000000E+00 -0.00000000000E+00 -0.83532502511E+03  0.83532502512E+03  0.25500000000E-02 0.  1.
    5000001    1    1    2    0    0  0.16887465596E+03  0.55583664332E+02 -0.31598564954E+03  0.38416679175E+03  0.12700000000E+03 0.  0.
   -5000001    1    1    2    0    0 -0.16887465596E+03 -0.55583664332E+02 -0.46065462068E+03  0.50984298831E+03  0.12700000000E+03 0.  0.
<mgrwt>
<rscale>  0 0.44281303E+03</rscale>
<asrwt>0</asrwt>
<pdfrwt beam="1">  1        2 0.11933214E+00 0.44281303E+03</pdfrwt>
<pdfrwt beam="2">  1       -2 0.83835369E-02 0.44281303E+03</pdfrwt>
<totfact> 0.32614016E+03</totfact>
</mgrwt>
</event>
<event>
 4    1  0.2679255E-004  0.5397570E+03  0.7818608E-02  0.1003893E+00
         -2   -1    0    0    0  501 -0.00000000000E+00  0.00000000000E+00  0.19016075000E+03  0.19016075002E+03  0.25500000000E-02 0. -1.
          2   -1    0    0  501    0  0.00000000000E+00 -0.00000000000E+00 -0.38301493594E+03  0.38301493595E+03  0.25500000000E-02 0.  1.
    5000001    1    1    2    0    0 -0.20414413186E+03  0.85535974586E+02 -0.31587427322E+01  0.25520620521E+03  0.12700000000E+03 0.  0.
   -5000001    1    1    2    0    0  0.20414413186E+03 -0.85535974586E+02 -0.18969544321E+03  0.31796948076E+03  0.12700000000E+03 0.  0.
<mgrwt>
<rscale>  0 0.53975701E+03</rscale>
<asrwt>0</asrwt>
<pdfrwt beam="1">  1        2 0.54716419E-01 0.53975701E+03</pdfrwt>
<pdfrwt beam="2">  1       -2 0.27165822E-01 0.53975701E+03</pdfrwt>
<totfact> 0.11190411E+03</totfact>
</mgrwt>
</event>
<event>
 4    1  0.2679255E-004  0.4317922E+03  0.7818608E-02  0.1033295E+00
          2   -1    0    0  501    0  0.00000000000E+00  0.00000000000E+00  0.18657851160E+04  0.18657851160E+04  0.25500000000E-02 0.  1.
         -2   -1    0    0    0  501 -0.00000000000E+00 -0.00000000000E+00 -0.24982042657E+02  0.24982042787E+02  0.25500000000E-02 0. -1.
    5000001    1    1    2    0    0 -0.14232060514E+03 -0.97434776778E+02  0.80181277747E+03  0.82992856348E+03  0.12700000000E+03 0.  0.
   -5000001    1    1    2    0    0  0.14232060514E+03  0.97434776778E+02  0.10389902959E+04  0.10608385953E+04  0.12700000000E+03 0.  0.
<mgrwt>
<rscale>  0 0.43179219E+03</rscale>
<asrwt>0</asrwt>
<pdfrwt beam="1">  1        2 0.26654072E+00 0.43179219E+03</pdfrwt>
<pdfrwt beam="2">  1       -2 0.35688634E-02 0.43179219E+03</pdfrwt>
<totfact> 0.33454553E+03</totfact>
</mgrwt>
</event>
<event>
 4    1  0.2679255E-004  0.3522254E+03  0.7818608E-02  0.1061705E+00
          2   -1    0    0  501    0  0.00000000000E+00  0.00000000000E+00  0.54034269168E+03  0.54034269168E+03  0.25500000000E-02 0.  1.
         -2   -1    0    0    0  501 -0.00000000000E+00 -0.00000000000E+00 -0.57400023690E+02  0.57400023746E+02  0.25500000000E-02 0. -1.
    5000001    1    1    2    0    0 -0.11538023833E+03 -0.38966798022E+02  0.22880898494E+03  0.28864088819E+03  0.12700000000E+03 0.  0.
   -5000001    1    1    2    0    0  0.11538023833E+03  0.38966798022E+02  0.25413368304E+03  0.30910182724E+03  0.12700000000E+03 0.  0.
<mgrwt>
<rscale>  0 0.35222540E+03</rscale>
<asrwt>0</asrwt>
<pdfrwt beam="1">  1        2 0.77191811E-01 0.35222540E+03</pdfrwt>
<pdfrwt beam="2">  1       -2 0.82000036E-02 0.35222540E+03</pdfrwt>
<totfact> 0.56648309E+03</totfact>
</mgrwt>
</event>
<event>
 4    1  0.2679255E-004  0.3769903E+03  0.7818608E-02  0.1052052E+00
          2   -1    0    0  501    0  0.00000000000E+00  0.00000000000E+00  0.52658520250E+03  0.52658520251E+03  0.25500000000E-02 0.  1.
         -2   -1    0    0    0  501 -0.00000000000E+00 -0.00000000000E+00 -0.67473272603E+02  0.67473272651E+02  0.25500000000E-02 0. -1.
    5000001    1    1    2    0    0 -0.13336703059E+02  0.11358787929E+03  0.10426954262E+03  0.20020292578E+03  0.12700000000E+03 0.  0.
   -5000001    1    1    2    0    0  0.13336703059E+02 -0.11358787929E+03  0.35484238728E+03  0.39385554938E+03  0.12700000000E+03 0.  0.
<mgrwt>
<rscale>  0 0.37699033E+03</rscale>
<asrwt>0</asrwt>
<pdfrwt beam="1">  1        2 0.75226457E-01 0.37699033E+03</pdfrwt>
<pdfrwt beam="2">  1       -2 0.96390390E-02 0.37699033E+03</pdfrwt>
<totfact> 0.45198900E+03</totfact>
</mgrwt>
</event>
<event>
 4    1  0.2679255E-004  0.3510226E+03  0.7818608E-02  0.1062196E+00
         -2   -1    0    0    0  501 -0.00000000000E+00  0.00000000000E+00  0.13854973587E+02  0.13854973821E+02  0.25500000000E-02 0. -1.
          2   -1    0    0  501    0  0.00000000000E+00 -0.00000000000E+00 -0.22233332843E+04  0.22233332843E+04  0.25500000000E-02 0.  1.
    5000001    1    1    2    0    0 -0.13933652483E+02 -0.10620493070E+03 -0.14653595381E+04  0.14747478462E+04  0.12700000000E+03 0.  0.
   -5000001    1    1    2    0    0  0.13933652483E+02  0.10620493070E+03 -0.74411877263E+03  0.76244041193E+03  0.12700000000E+03 0.  0.
<mgrwt>
<rscale>  0 0.35102264E+03</rscale>
<asrwt>0</asrwt>
<pdfrwt beam="1">  1        2 0.31761881E+00 0.35102264E+03</pdfrwt>
<pdfrwt beam="2">  1       -2 0.19792834E-02 0.35102264E+03</pdfrwt>
<totfact> 0.53920505E+03</totfact>
</mgrwt>
</event>
<event>
 4    1  0.2679255E-004  0.3493746E+03  0.7818608E-02  0.1062872E+00
          2   -1    0    0  501    0  0.00000000000E+00  0.00000000000E+00  0.75688775947E+03  0.75688775948E+03  0.25500000000E-02 0.  1.
         -2   -1    0    0    0  501 -0.00000000000E+00 -0.00000000000E+00 -0.40317268241E+02  0.40317268321E+02  0.25500000000E-02 0. -1.
    5000001    1    1    2    0    0 -0.35201340356E+02  0.11183028440E+03  0.41607848921E+03  0.45055017041E+03  0.12700000000E+03 0.  0.
   -5000001    1    1    2    0    0  0.35201340356E+02 -0.11183028440E+03  0.30049200203E+03  0.34665485739E+03  0.12700000000E+03 0.  0.
<mgrwt>
<rscale>  0 0.34937457E+03</rscale>
<asrwt>0</asrwt>
<pdfrwt beam="1">  1        2 0.10812682E+00 0.34937457E+03</pdfrwt>
<pdfrwt beam="2">  1       -2 0.57596099E-02 0.34937457E+03</pdfrwt>
<totfact> 0.66118565E+03</totfact>
</mgrwt>
</event>
<event>
 4    1  0.2679255E-004  0.2801156E+03  0.7818608E-02  0.1095626E+00
         -2   -1    0    0    0  501 -0.00000000000E+00  0.00000000000E+00  0.11242947355E+02  0.11242947644E+02  0.25500000000E-02 0. -1.
          2   -1    0    0  501    0  0.00000000000E+00 -0.00000000000E+00 -0.17447542796E+04  0.17447542796E+04  0.25500000000E-02 0.  1.
    5000001    1    1    2    0    0 -0.56647027134E+02  0.16682128515E+02 -0.86649926686E+03  0.87774549760E+03  0.12700000000E+03 0.  0.
   -5000001    1    1    2    0    0  0.56647027134E+02 -0.16682128515E+02 -0.86701206537E+03  0.87825172962E+03  0.12700000000E+03 0.  0.
<mgrwt>
<rscale>  0 0.28011555E+03</rscale>
<asrwt>0</asrwt>
<pdfrwt beam="1">  1        2 0.24925044E+00 0.28011555E+03</pdfrwt>
<pdfrwt beam="2">  1       -2 0.16061365E-02 0.28011555E+03</pdfrwt>
<totfact> 0.12575649E+04</totfact>
</mgrwt>
</event>
<event>
 4    1  0.2679255E-004  0.3524776E+03  0.7818608E-02  0.1061603E+00
         -2   -1    0    0    0  501 -0.00000000000E+00  0.00000000000E+00  0.54520557982E+02  0.54520558041E+02  0.25500000000E-02 0. -1.
          2   -1    0    0  501    0  0.00000000000E+00 -0.00000000000E+00 -0.56969536391E+03  0.56969536392E+03  0.25500000000E-02 0.  1.
    5000001    1    1    2    0    0  0.14353204448E+02 -0.11391484041E+03 -0.33163937826E+03  0.37322417199E+03  0.12700000000E+03 0.  0.
   -5000001    1    1    2    0    0 -0.14353204448E+02  0.11391484041E+03 -0.18353542767E+03  0.25099174997E+03  0.12700000000E+03 0.  0.
<mgrwt>
<rscale>  0 0.35247757E+03</rscale>
<asrwt>0</asrwt>
<pdfrwt beam="1">  1        2 0.81385048E-01 0.35247757E+03</pdfrwt>
<pdfrwt beam="2">  1       -2 0.77886515E-02 0.35247757E+03</pdfrwt>
<totfact> 0.57842588E+03</totfact>
</mgrwt>
</event>
<event>
 4    1  0.2679255E-004  0.6960482E+03  0.7818608E-02  0.9724014E-01
          2   -1    0    0  501    0  0.00000000000E+00  0.00000000000E+00  0.35042044276E+04  0.35042044276E+04  0.25500000000E-02 0.  1.
         -2   -1    0    0    0  501 -0.00000000000E+00 -0.00000000000E+00 -0.34564416079E+02  0.34564416173E+02  0.25500000000E-02 0. -1.
    5000001    1    1    2    0    0  0.31782623695E+03  0.63072103877E+02  0.17369337025E+04  0.17714568281E+04  0.12700000000E+03 0.  0.
   -5000001    1    1    2    0    0 -0.31782623695E+03 -0.63072103877E+02  0.17327063090E+04  0.17673120156E+04  0.12700000000E+03 0.  0.
<mgrwt>
<rscale>  0 0.69604822E+03</rscale>
<asrwt>0</asrwt>
<pdfrwt beam="1">  1        2 0.50060070E+00 0.69604822E+03</pdfrwt>
<pdfrwt beam="2">  1       -2 0.49377731E-02 0.69604822E+03</pdfrwt>
<totfact> 0.26987404E+02</totfact>
</mgrwt>
</event>
<event>
 4    1  0.2679255E-004  0.3913756E+03  0.7818608E-02  0.1046808E+00
         -2   -1    0    0    0  501 -0.00000000000E+00  0.00000000000E+00  0.54907458417E+02  0.54907458476E+02  0.25500000000E-02 0. -1.
          2   -1    0    0  501    0  0.00000000000E+00 -0.00000000000E+00 -0.69742280208E+03  0.69742280209E+03  0.25500000000E-02 0.  1.
    5000001    1    1    2    0    0  0.31774828193E+02 -0.11654458391E+03 -0.48853324824E+03  0.51902409807E+03  0.12700000000E+03 0.  0.
   -5000001    1    1    2    0    0 -0.31774828193E+02  0.11654458391E+03 -0.15398209543E+03  0.23330616249E+03  0.12700000000E+03 0.  0.
<mgrwt>
<rscale>  0 0.39137559E+03</rscale>
<asrwt>0</asrwt>
<pdfrwt beam="1">  1        2 0.99631824E-01 0.39137559E+03</pdfrwt>
<pdfrwt beam="2">  1       -2 0.78439230E-02 0.39137559E+03</pdfrwt>
<totfact> 0.45249907E+03</totfact>
</mgrwt>
</event>
<event>
 4    1  0.2679255E-004  0.3982021E+03  0.7818608E-02  0.1044404E+00
         -2   -1    0    0    0  501 -0.00000000000E+00  0.00000000000E+00  0.15357122879E+02  0.15357123090E+02  0.25500000000E-02 0. -1.
          2   -1    0    0  501    0  0.00000000000E+00 -0.00000000000E+00 -0.25812925658E+04  0.25812925659E+04  0.25500000000E-02 0.  1.
    5000001    1    1    2    0    0 -0.10873443103E+03  0.55308792311E+02 -0.67718772661E+03  0.69971026580E+03  0.12700000000E+03 0.  0.
   -5000001    1    1    2    0    0  0.10873443103E+03 -0.55308792311E+02 -0.18887477164E+04  0.18969394231E+04  0.12700000000E+03 0.  0.
<mgrwt>
<rscale>  0 0.39820210E+03</rscale>
<asrwt>0</asrwt>
<pdfrwt beam="1">  1        2 0.36875580E+00 0.39820210E+03</pdfrwt>
<pdfrwt beam="2">  1       -2 0.21938764E-02 0.39820210E+03</pdfrwt>
<totfact> 0.30560957E+03</totfact>
</mgrwt>
</event>
<event>
 4    1  0.2679255E-004  0.4129882E+03  0.7818608E-02  0.1039373E+00
          2   -1    0    0  501    0  0.00000000000E+00  0.00000000000E+00  0.90669491723E+03  0.90669491724E+03  0.25500000000E-02 0.  1.
         -2   -1    0    0    0  501 -0.00000000000E+00 -0.00000000000E+00 -0.47027740485E+02  0.47027740554E+02  0.25500000000E-02 0. -1.
    5000001    1    1    2    0    0  0.91473569087E+02  0.57543049413E+01  0.11905783417E+03  0.19673406859E+03  0.12700000000E+03 0.  0.
   -5000001    1    1    2    0    0 -0.91473569087E+02 -0.57543049413E+01  0.74060934257E+03  0.75698858920E+03  0.12700000000E+03 0.  0.
<mgrwt>
<rscale>  0 0.41298820E+03</rscale>
<asrwt>0</asrwt>
<pdfrwt beam="1">  1        2 0.12952783E+00 0.41298820E+03</pdfrwt>
<pdfrwt beam="2">  1       -2 0.67182493E-02 0.41298820E+03</pdfrwt>
<totfact> 0.41507398E+03</totfact>
</mgrwt>
</event>
<event>
 4    1  0.2679255E-004  0.3733931E+03  0.7818608E-02  0.1053403E+00
          2   -1    0    0  501    0  0.00000000000E+00  0.00000000000E+00  0.84295355452E+03  0.84295355453E+03  0.25500000000E-02 0.  1.
         -2   -1    0    0    0  501 -0.00000000000E+00 -0.00000000000E+00 -0.41349366865E+02  0.41349366944E+02  0.25500000000E-02 0. -1.
    5000001    1    1    2    0    0  0.13236487285E+03 -0.16365202837E+02  0.47334742346E+03  0.50791245577E+03  0.12700000000E+03 0.  0.
   -5000001    1    1    2    0    0 -0.13236487285E+03  0.16365202837E+02  0.32825676420E+03  0.37639046570E+03  0.12700000000E+03 0.  0.
<mgrwt>
<rscale>  0 0.37339307E+03</rscale>
<asrwt>0</asrwt>
<pdfrwt beam="1">  1        2 0.12042193E+00 0.37339307E+03</pdfrwt>
<pdfrwt beam="2">  1       -2 0.59070527E-02 0.37339307E+03</pdfrwt>
<totfact> 0.55645657E+03</totfact>
</mgrwt>
</event>
<event>
 4    1  0.2679255E-004  0.1324560E+04  0.7818608E-02  0.9010312E-01
          2   -1    0    0  501    0  0.00000000000E+00  0.00000000000E+00  0.32170744598E+03  0.32170744599E+03  0.25500000000E-02 0.  1.
         -2   -1    0    0    0  501 -0.00000000000E+00 -0.00000000000E+00 -0.13633971543E+04  0.13633971543E+04  0.25500000000E-02 0. -1.
    5000001    1    1    2    0    0  0.58734571111E+03  0.33239171542E+01 -0.87501008702E+03  0.10614884291E+04  0.12700000000E+03 0.  0.
   -5000001    1    1    2    0    0 -0.58734571111E+03 -0.33239171542E+01 -0.16667962130E+03  0.62361617117E+03  0.12700000000E+03 0.  0.
<mgrwt>
<rscale>  0 0.13245603E+04</rscale>
<asrwt>0</asrwt>
<pdfrwt beam="1">  1        2 0.45958207E-01 0.13245603E+04</pdfrwt>
<pdfrwt beam="2">  1       -2 0.19477102E+00 0.13245603E+04</pdfrwt>
<totfact> 0.15556875E+01</totfact>
</mgrwt>
</event>
<event>
 4    1  0.2679255E-004  0.6180566E+03  0.7818608E-02  0.9868637E-01
         -2   -1    0    0    0  501 -0.00000000000E+00  0.00000000000E+00  0.20669689279E+03  0.20669689280E+03  0.25500000000E-02 0. -1.
          2   -1    0    0  501    0  0.00000000000E+00 -0.00000000000E+00 -0.46202190740E+03  0.46202190740E+03  0.25500000000E-02 0.  1.
    5000001    1    1    2    0    0 -0.24330371418E+03 -0.13637071676E+03 -0.84711931659E+02  0.31796034515E+03  0.12700000000E+03 0.  0.
   -5000001    1    1    2    0    0  0.24330371418E+03  0.13637071676E+03 -0.17061308295E+03  0.35075845506E+03  0.12700000000E+03 0.  0.
<mgrwt>
<rscale>  0 0.61805661E+03</rscale>
<asrwt>0</asrwt>
<pdfrwt beam="1">  1        2 0.66003129E-01 0.61805661E+03</pdfrwt>
<pdfrwt beam="2">  1       -2 0.29528128E-01 0.61805661E+03</pdfrwt>
<totfact> 0.77891452E+02</totfact>
</mgrwt>
</event>
<event>
 4    1  0.2679255E-004  0.3206696E+03  0.7818608E-02  0.1075342E+00
          2   -1    0    0  501    0  0.00000000000E+00  0.00000000000E+00  0.38586270582E+02  0.38586270666E+02  0.25500000000E-02 0.  1.
         -2   -1    0    0    0  501 -0.00000000000E+00 -0.00000000000E+00 -0.66622769065E+03  0.66622769065E+03  0.25500000000E-02 0. -1.
    5000001    1    1    2    0    0 -0.59604938579E+02 -0.71040998611E+02 -0.24506087120E+03  0.29117589663E+03  0.12700000000E+03 0.  0.
   -5000001    1    1    2    0    0  0.59604938579E+02  0.71040998611E+02 -0.38258054887E+03  0.41363806469E+03  0.12700000000E+03 0.  0.
<mgrwt>
<rscale>  0 0.32066956E+03</rscale>
<asrwt>0</asrwt>
<pdfrwt beam="1">  1        2 0.55123248E-02 0.32066956E+03</pdfrwt>
<pdfrwt beam="2">  1       -2 0.95175378E-01 0.32066956E+03</pdfrwt>
<totfact> 0.13345192E+03</totfact>
</mgrwt>
</event>
<event>
 4    1  0.2679255E-004  0.3899272E+03  0.7818608E-02  0.1047324E+00
         -2   -1    0    0    0  501 -0.00000000000E+00  0.00000000000E+00  0.62700992394E+02  0.62700992446E+02  0.25500000000E-02 0. -1.
          2   -1    0    0  501    0  0.00000000000E+00 -0.00000000000E+00 -0.60622345333E+03  0.60622345334E+03  0.25500000000E-02 0.  1.
    5000001    1    1    2    0    0 -0.38807830943E+02  0.14164854814E+03 -0.24148582890E+03  0.30986249288E+03  0.12700000000E+03 0.  0.
   -5000001    1    1    2    0    0  0.38807830943E+02 -0.14164854814E+03 -0.30203663204E+03  0.35906195291E+03  0.12700000000E+03 0.  0.
<mgrwt>
<rscale>  0 0.38992724E+03</rscale>
<asrwt>0</asrwt>
<pdfrwt beam="1">  1        2 0.86603347E-01 0.38992724E+03</pdfrwt>
<pdfrwt beam="2">  1       -2 0.89572850E-02 0.38992724E+03</pdfrwt>
<totfact> 0.43276023E+03</totfact>
</mgrwt>
</event>
<event>
 4    1  0.2679255E-004  0.3169602E+03  0.7818608E-02  0.1077057E+00
         -2   -1    0    0    0  501 -0.00000000000E+00  0.00000000000E+00  0.20523646812E+02  0.20523646970E+02  0.25500000000E-02 0. -1.
          2   -1    0    0  501    0  0.00000000000E+00 -0.00000000000E+00 -0.12237562090E+04  0.12237562090E+04  0.25500000000E-02 0.  1.
    5000001    1    1    2    0    0 -0.21552791924E+02 -0.83420762991E+02 -0.44639632964E+03  0.47204049577E+03  0.12700000000E+03 0.  0.
   -5000001    1    1    2    0    0  0.21552791924E+02  0.83420762991E+02 -0.75683623257E+03  0.77223936022E+03  0.12700000000E+03 0.  0.
<mgrwt>
<rscale>  0 0.31696019E+03</rscale>
<asrwt>0</asrwt>
<pdfrwt beam="1">  1        2 0.17482227E+00 0.31696019E+03</pdfrwt>
<pdfrwt beam="2">  1       -2 0.29319503E-02 0.31696019E+03</pdfrwt>
<totfact> 0.95631074E+03</totfact>
</mgrwt>
</event>
<event>
 4    1  0.2679255E-004  0.4315613E+03  0.7818608E-02  0.1033368E+00
          2   -1    0    0  501    0  0.00000000000E+00  0.00000000000E+00  0.31318548745E+04  0.31318548745E+04  0.25500000000E-02 0.  1.
         -2   -1    0    0    0  501 -0.00000000000E+00 -0.00000000000E+00 -0.14867003019E+02  0.14867003238E+02  0.25500000000E-02 0. -1.
    5000001    1    1    2    0    0  0.44949582900E+02 -0.14870146195E+03  0.21372239264E+04  0.21466223937E+04  0.12700000000E+03 0.  0.
   -5000001    1    1    2    0    0 -0.44949582900E+02  0.14870146195E+03  0.97976394514E+03  0.10000994840E+04  0.12700000000E+03 0.  0.
<mgrwt>
<rscale>  0 0.43156133E+03</rscale>
<asrwt>0</asrwt>
<pdfrwt beam="1">  1        2 0.44740768E+00 0.43156133E+03</pdfrwt>
<pdfrwt beam="2">  1       -2 0.21238583E-02 0.43156133E+03</pdfrwt>
<totfact> 0.16387107E+03</totfact>
</mgrwt>
</event>
<event>
 4    1  0.2679255E-004  0.7338270E+03  0.7818608E-02  0.9661071E-01
         -2   -1    0    0    0  501 -0.00000000000E+00  0.00000000000E+00  0.90443437648E+02  0.90443437684E+02  0.25500000000E-02 0. -1.
          2   -1    0    0  501    0  0.00000000000E+00 -0.00000000000E+00 -0.14885050638E+04  0.14885050638E+04  0.25500000000E-02 0.  1.
    5000001    1    1    2    0    0 -0.12660172952E+03  0.29428676706E+03 -0.97003631622E+03  0.10294329283E+04  0.12700000000E+03 0.  0.
   -5000001    1    1    2    0    0  0.12660172952E+03 -0.29428676706E+03 -0.42802530996E+03  0.54951557317E+03  0.12700000000E+03 0.  0.
<mgrwt>
<rscale>  0 0.73382700E+03</rscale>
<asrwt>0</asrwt>
<pdfrwt beam="1">  1        2 0.21264357E+00 0.73382700E+03</pdfrwt>
<pdfrwt beam="2">  1       -2 0.12920492E-01 0.73382700E+03</pdfrwt>
<totfact> 0.67419656E+02</totfact>
</mgrwt>
</event>
<event>
 4    1  0.2679255E-004  0.5899199E+03  0.7818608E-02  0.9926543E-01
          2   -1    0    0  501    0  0.00000000000E+00  0.00000000000E+00  0.49113835451E+04  0.49113835451E+04  0.25500000000E-02 0.  1.
         -2   -1    0    0    0  501 -0.00000000000E+00 -0.00000000000E+00 -0.17714229692E+02  0.17714229875E+02  0.25500000000E-02 0. -1.
    5000001    1    1    2    0    0  0.15676035597E+03  0.21506399792E+03  0.23901373849E+04  0.24082591329E+04  0.12700000000E+03 0.  0.
   -5000001    1    1    2    0    0 -0.15676035597E+03 -0.21506399792E+03  0.25035319304E+04  0.25208386420E+04  0.12700000000E+03 0.  0.
<mgrwt>
<rscale>  0 0.58991992E+03</rscale>
<asrwt>0</asrwt>
<pdfrwt beam="1">  1        2 0.70162595E+00 0.58991992E+03</pdfrwt>
<pdfrwt beam="2">  1       -2 0.25306052E-02 0.58991992E+03</pdfrwt>
<totfact> 0.73720412E+01</totfact>
</mgrwt>
</event>
<event>
 4    1  0.2679255E-004  0.3074822E+03  0.7818608E-02  0.1081559E+00
         -2   -1    0    0    0  501 -0.00000000000E+00  0.00000000000E+00  0.14817648732E+03  0.14817648734E+03  0.25500000000E-02 0. -1.
          2   -1    0    0  501    0  0.00000000000E+00 -0.00000000000E+00 -0.15951470346E+03  0.15951470348E+03  0.25500000000E-02 0.  1.
    5000001    1    1    2    0    0  0.65006354455E+02  0.21534519145E+00 -0.62992033763E+02  0.15595790718E+03  0.12700000000E+03 0.  0.
   -5000001    1    1    2    0    0 -0.65006354455E+02 -0.21534519145E+00  0.51653817618E+02  0.15173328365E+03  0.12700000000E+03 0.  0.
<mgrwt>
<rscale>  0 0.30748222E+03</rscale>
<asrwt>0</asrwt>
<pdfrwt beam="1">  1        2 0.22787815E-01 0.30748222E+03</pdfrwt>
<pdfrwt beam="2">  1       -2 0.21168070E-01 0.30748222E+03</pdfrwt>
<totfact> 0.45468926E+03</totfact>
</mgrwt>
</event>
<event>
 4    1  0.2679255E-004  0.4424960E+03  0.7818608E-02  0.1029984E+00
          2   -1    0    0  501    0  0.00000000000E+00  0.00000000000E+00  0.11579419202E+04  0.11579419202E+04  0.25500000000E-02 0.  1.
         -2   -1    0    0    0  501 -0.00000000000E+00 -0.00000000000E+00 -0.42273856969E+02  0.42273857046E+02  0.25500000000E-02 0. -1.
    5000001    1    1    2    0    0  0.15737570374E+03  0.64069142323E+02  0.72829787944E+03  0.75856362180E+03  0.12700000000E+03 0.  0.
   -5000001    1    1    2    0    0 -0.15737570374E+03 -0.64069142323E+02  0.38737018383E+03  0.44165215548E+03  0.12700000000E+03 0.  0.
<mgrwt>
<rscale>  0 0.44249597E+03</rscale>
<asrwt>0</asrwt>
<pdfrwt beam="1">  1        2 0.16542026E+00 0.44249597E+03</pdfrwt>
<pdfrwt beam="2">  1       -2 0.60391228E-02 0.44249597E+03</pdfrwt>
<totfact> 0.34776772E+03</totfact>
</mgrwt>
</event>
<event>
 4    1  0.2679255E-004  0.3077942E+03  0.7818608E-02  0.1081408E+00
          2   -1    0    0  501    0  0.00000000000E+00  0.00000000000E+00  0.43860410362E+03  0.43860410362E+03  0.25500000000E-02 0.  1.
         -2   -1    0    0    0  501 -0.00000000000E+00 -0.00000000000E+00 -0.53999304267E+02  0.53999304327E+02  0.25500000000E-02 0. -1.
    5000001    1    1    2    0    0 -0.43081693625E+02 -0.33672979381E+02  0.30044009268E+03  0.33073123704E+03  0.12700000000E+03 0.  0.
   -5000001    1    1    2    0    0  0.43081693625E+02  0.33672979381E+02  0.84164706672E+02  0.16187217091E+03  0.12700000000E+03 0.  0.
<mgrwt>
<rscale>  0 0.30779419E+03</rscale>
<asrwt>0</asrwt>
<pdfrwt beam="1">  1        2 0.62657729E-01 0.30779419E+03</pdfrwt>
<pdfrwt beam="2">  1       -2 0.77141864E-02 0.30779419E+03</pdfrwt>
<totfact> 0.78275898E+03</totfact>
</mgrwt>
</event>
<event>
 4    1  0.2679255E-004  0.2851036E+03  0.7818608E-02  0.1092934E+00
          2   -1    0    0  501    0  0.00000000000E+00  0.00000000000E+00  0.19130059384E+04  0.19130059384E+04  0.25500000000E-02 0.  1.
         -2   -1    0    0    0  501 -0.00000000000E+00 -0.00000000000E+00 -0.10622561122E+02  0.10622561428E+02  0.25500000000E-02 0. -1.
    5000001    1    1    2    0    0  0.23802346296E+02 -0.59143061379E+02  0.10273981315E+04  0.10371790463E+04  0.12700000000E+03 0.  0.
   -5000001    1    1    2    0    0 -0.23802346296E+02  0.59143061379E+02  0.87498524573E+03  0.88644945352E+03  0.12700000000E+03 0.  0.
<mgrwt>
<rscale>  0 0.28510365E+03</rscale>
<asrwt>0</asrwt>
<pdfrwt beam="1">  1        2 0.27328680E+00 0.28510365E+03</pdfrwt>
<pdfrwt beam="2">  1       -2 0.15175074E-02 0.28510365E+03</pdfrwt>
<totfact> 0.11307539E+04</totfact>
</mgrwt>
</event>
<event>
 4    1  0.2679255E-004  0.3947168E+03  0.7818608E-02  0.1045625E+00
          2   -1    0    0  501    0  0.00000000000E+00  0.00000000000E+00  0.31379769929E+03  0.31379769930E+03  0.25500000000E-02 0.  1.
         -2   -1    0    0    0  501 -0.00000000000E+00 -0.00000000000E+00 -0.12412566251E+03  0.12412566254E+03  0.25500000000E-02 0. -1.
    5000001    1    1    2    0    0 -0.17667229205E+02  0.92164785241E+02  0.22617902927E+03  0.27584856699E+03  0.12700000000E+03 0.  0.
   -5000001    1    1    2    0    0  0.17667229205E+02 -0.92164785241E+02 -0.36506992492E+02  0.16207479485E+03  0.12700000000E+03 0.  0.
<mgrwt>
<rscale>  0 0.39471685E+03</rscale>
<asrwt>0</asrwt>
<pdfrwt beam="1">  1        2 0.44828242E-01 0.39471685E+03</pdfrwt>
<pdfrwt beam="2">  1       -2 0.17732238E-01 0.39471685E+03</pdfrwt>
<totfact> 0.29353345E+03</totfact>
</mgrwt>
</event>
<event>
 4    1  0.2679255E-004  0.5673694E+03  0.7818608E-02  0.9975517E-01
         -2   -1    0    0    0  501 -0.00000000000E+00  0.00000000000E+00  0.58320941147E+02  0.58320941203E+02  0.25500000000E-02 0. -1.
          2   -1    0    0  501    0  0.00000000000E+00 -0.00000000000E+00 -0.13798991353E+04  0.13798991353E+04  0.25500000000E-02 0.  1.
    5000001    1    1    2    0    0 -0.21992118810E+03 -0.12624818218E+03 -0.67761967586E+03  0.73457563096E+03  0.12700000000E+03 0.  0.
   -5000001    1    1    2    0    0  0.21992118810E+03  0.12624818218E+03 -0.64395851832E+03  0.70364444558E+03  0.12700000000E+03 0.  0.
<mgrwt>
<rscale>  0 0.56736943E+03</rscale>
<asrwt>0</asrwt>
<pdfrwt beam="1">  1        2 0.19712843E+00 0.56736943E+03</pdfrwt>
<pdfrwt beam="2">  1       -2 0.83315639E-02 0.56736943E+03</pdfrwt>
<totfact> 0.15827380E+03</totfact>
</mgrwt>
</event>
<event>
 4    1  0.2679255E-004  0.2781025E+03  0.7818608E-02  0.1096730E+00
          2   -1    0    0  501    0  0.00000000000E+00  0.00000000000E+00  0.17771526623E+04  0.17771526623E+04  0.25500000000E-02 0.  1.
         -2   -1    0    0    0  501 -0.00000000000E+00 -0.00000000000E+00 -0.10879906175E+02  0.10879906474E+02  0.25500000000E-02 0. -1.
    5000001    1    1    2    0    0  0.33335775620E+02  0.61295829293E+01  0.59150733253E+03  0.60593627566E+03  0.12700000000E+03 0.  0.
   -5000001    1    1    2    0    0 -0.33335775620E+02 -0.61295829293E+01  0.11747654236E+04  0.11820962931E+04  0.12700000000E+03 0.  0.
<mgrwt>
<rscale>  0 0.27810253E+03</rscale>
<asrwt>0</asrwt>
<pdfrwt beam="1">  1        2 0.25387906E+00 0.27810253E+03</pdfrwt>
<pdfrwt beam="2">  1       -2 0.15542717E-02 0.27810253E+03</pdfrwt>
<totfact> 0.12718036E+04</totfact>
</mgrwt>
</event>
<event>
 4    1  0.2679255E-004  0.4133798E+03  0.7818608E-02  0.1039243E+00
          2   -1    0    0  501    0  0.00000000000E+00  0.00000000000E+00  0.29259636599E+04  0.29259636599E+04  0.25500000000E-02 0.  1.
         -2   -1    0    0    0  501 -0.00000000000E+00 -0.00000000000E+00 -0.14600561896E+02  0.14600562118E+02  0.25500000000E-02 0. -1.
    5000001    1    1    2    0    0 -0.64189713349E+02  0.13632306014E+03  0.18992003489E+04  0.19093965699E+04  0.12700000000E+03 0.  0.
   -5000001    1    1    2    0    0  0.64189713349E+02 -0.13632306014E+03  0.10121627491E+04  0.10311676521E+04  0.12700000000E+03 0.  0.
<mgrwt>
<rscale>  0 0.41337980E+03</rscale>
<asrwt>0</asrwt>
<pdfrwt beam="1">  1        2 0.41799494E+00 0.41337980E+03</pdfrwt>
<pdfrwt beam="2">  1       -2 0.20857939E-02 0.41337980E+03</pdfrwt>
<totfact> 0.21785075E+03</totfact>
</mgrwt>
</event>
<event>
 4    1  0.2679255E-004  0.3176530E+03  0.7818608E-02  0.1076735E+00
         -2   -1    0    0    0  501 -0.00000000000E+00  0.00000000000E+00  0.92627208709E+01  0.92627212219E+01  0.25500000000E-02 0. -1.
          2   -1    0    0  501    0  0.00000000000E+00 -0.00000000000E+00 -0.27233738944E+04  0.27233738944E+04  0.25500000000E-02 0.  1.
    5000001    1    1    2    0    0  0.74819222361E+02 -0.55469659798E+02 -0.11803245957E+04  0.11907854342E+04  0.12700000000E+03 0.  0.
   -5000001    1    1    2    0    0 -0.74819222361E+02  0.55469659798E+02 -0.15337865779E+04  0.15418511814E+04  0.12700000000E+03 0.  0.
<mgrwt>
<rscale>  0 0.31765297E+03</rscale>
<asrwt>0</asrwt>
<pdfrwt beam="1">  1        2 0.38905290E+00 0.31765297E+03</pdfrwt>
<pdfrwt beam="2">  1       -2 0.13232476E-02 0.31765297E+03</pdfrwt>
<totfact> 0.54760609E+03</totfact>
</mgrwt>
</event>
<event>
 4    1  0.2679255E-004  0.3408159E+03  0.7818608E-02  0.1066449E+00
          2   -1    0    0  501    0  0.00000000000E+00  0.00000000000E+00  0.98218652012E+03  0.98218652012E+03  0.25500000000E-02 0.  1.
         -2   -1    0    0    0  501 -0.00000000000E+00 -0.00000000000E+00 -0.29565529386E+02  0.29565529496E+02  0.25500000000E-02 0. -1.
    5000001    1    1    2    0    0  0.10558233182E+03 -0.21780659761E+02  0.58284370030E+03  0.60618297973E+03  0.12700000000E+03 0.  0.
   -5000001    1    1    2    0    0 -0.10558233182E+03  0.21780659761E+02  0.36977729043E+03  0.40556906989E+03  0.12700000000E+03 0.  0.
<mgrwt>
<rscale>  0 0.34081587E+03</rscale>
<asrwt>0</asrwt>
<pdfrwt beam="1">  1        2 0.14031237E+00 0.34081587E+03</pdfrwt>
<pdfrwt beam="2">  1       -2 0.42236468E-02 0.34081587E+03</pdfrwt>
<totfact> 0.75885819E+03</totfact>
</mgrwt>
</event>
