<event>
 4    1  0.6034452E-005  0.6104340E+03  0.7818608E-02  0.9883992E-01
         -2   -1    0    0    0  501 -0.00000000000E+00  0.00000000000E+00  0.47710275113E+02  0.47710275182E+02  0.25500000000E-02 0. -1.
          2   -1    0    0  501    0  0.00000000000E+00 -0.00000000000E+00 -0.19525651610E+04  0.19525651610E+04  0.25500000000E-02 0.  1.
    5000001    1    1    2    0    0 -0.14926166532E+03  0.12595228224E+03 -0.49285110361E+03  0.56248487309E+03  0.18800000000E+03 0.  0.
   -5000001    1    1    2    0    0  0.14926166532E+03 -0.12595228224E+03 -0.14120037823E+04  0.14377905631E+04  0.18800000000E+03 0.  0.
<mgrwt>
<rscale>  0 0.61043401E+03</rscale>
<asrwt>0</asrwt>
<pdfrwt beam="1">  1        2 0.27893783E+00 0.61043401E+03</pdfrwt>
<pdfrwt beam="2">  1       -2 0.68157548E-02 0.61043401E+03</pdfrwt>
<totfact> 0.11056904E+03</totfact>
</mgrwt>
</event>
<event>
 4    1  0.6034452E-005  0.5589171E+03  0.7818608E-02  0.9994508E-01
         -2   -1    0    0    0  501 -0.00000000000E+00  0.00000000000E+00  0.47939184694E+02  0.47939184762E+02  0.25500000000E-02 0. -1.
          2   -1    0    0  501    0  0.00000000000E+00 -0.00000000000E+00 -0.16290863957E+04  0.16290863957E+04  0.25500000000E-02 0.  1.
    5000001    1    1    2    0    0  0.19074033915E+03  0.70480279355E+02 -0.90299102793E+03  0.94450311979E+03  0.18800000000E+03 0.  0.
   -5000001    1    1    2    0    0 -0.19074033915E+03 -0.70480279355E+02 -0.67815618306E+03  0.73252246067E+03  0.18800000000E+03 0.  0.
<mgrwt>
<rscale>  0 0.55891707E+03</rscale>
<asrwt>0</asrwt>
<pdfrwt beam="1">  1        2 0.23272659E+00 0.55891707E+03</pdfrwt>
<pdfrwt beam="2">  1       -2 0.68484560E-02 0.55891707E+03</pdfrwt>
<totfact> 0.16027815E+03</totfact>
</mgrwt>
</event>
<event>
 4    1  0.6034452E-005  0.5103202E+03  0.7818608E-02  0.1011120E+00
         -2   -1    0    0    0  501 -0.00000000000E+00  0.00000000000E+00  0.85855921556E+02  0.85855921594E+02  0.25500000000E-02 0. -1.
          2   -1    0    0  501    0  0.00000000000E+00 -0.00000000000E+00 -0.75832485872E+03  0.75832485872E+03  0.25500000000E-02 0.  1.
    5000001    1    1    2    0    0 -0.61823964270E+02  0.15792019682E+03 -0.38858957304E+03  0.46379612697E+03  0.18800000000E+03 0.  0.
   -5000001    1    1    2    0    0  0.61823964270E+02 -0.15792019682E+03 -0.28387936412E+03  0.38038465334E+03  0.18800000000E+03 0.  0.
<mgrwt>
<rscale>  0 0.51032021E+03</rscale>
<asrwt>0</asrwt>
<pdfrwt beam="1">  1        2 0.10833212E+00 0.51032021E+03</pdfrwt>
<pdfrwt beam="2">  1       -2 0.12265132E-01 0.51032021E+03</pdfrwt>
<totfact> 0.19954777E+03</totfact>
</mgrwt>
</event>
<event>
 4    1  0.6034452E-005  0.2043541E+04  0.7818608E-02  0.8586530E-01
          2   -1    0    0  501    0  0.00000000000E+00  0.00000000000E+00  0.14123821762E+04  0.14123821762E+04  0.25500000000E-02 0.  1.
         -2   -1    0    0    0  501 -0.00000000000E+00 -0.00000000000E+00 -0.73918711221E+03  0.73918711221E+03  0.25500000000E-02 0. -1.
    5000001    1    1    2    0    0 -0.78330402244E+03 -0.42292302280E+03  0.82619784202E+03  0.12289735347E+04  0.18800000000E+03 0.  0.
   -5000001    1    1    2    0    0  0.78330402244E+03  0.42292302280E+03 -0.15300277800E+03  0.92259575376E+03  0.18800000000E+03 0.  0.
<mgrwt>
<rscale>  0 0.20435408E+04</rscale>
<asrwt>0</asrwt>
<pdfrwt beam="1">  1        2 0.20176888E+00 0.20435408E+04</pdfrwt>
<pdfrwt beam="2">  1       -2 0.10559816E+00 0.20435408E+04</pdfrwt>
<totfact> 0.10984403E+01</totfact>
</mgrwt>
</event>
<event>
 4    1  0.6034452E-005  0.5057004E+03  0.7818608E-02  0.1012302E+00
          2   -1    0    0  501    0  0.00000000000E+00  0.00000000000E+00  0.14424943331E+04  0.14424943331E+04  0.25500000000E-02 0.  1.
         -2   -1    0    0    0  501 -0.00000000000E+00 -0.00000000000E+00 -0.44321304742E+02  0.44321304815E+02  0.25500000000E-02 0. -1.
    5000001    1    1    2    0    0 -0.46815664595E+02  0.16161651651E+03  0.65009803464E+03  0.69733998845E+03  0.18800000000E+03 0.  0.
   -5000001    1    1    2    0    0  0.46815664595E+02 -0.16161651651E+03  0.74807499372E+03  0.78947564946E+03  0.18800000000E+03 0.  0.
<mgrwt>
<rscale>  0 0.50570043E+03</rscale>
<asrwt>0</asrwt>
<pdfrwt beam="1">  1        2 0.20607055E+00 0.50570043E+03</pdfrwt>
<pdfrwt beam="2">  1       -2 0.63316169E-02 0.50570043E+03</pdfrwt>
<totfact> 0.22666269E+03</totfact>
</mgrwt>
</event>
<event>
 4    1  0.6034452E-005  0.8738397E+03  0.7818608E-02  0.9458887E-01
          2   -1    0    0  501    0  0.00000000000E+00  0.00000000000E+00  0.39529065792E+03  0.39529065793E+03  0.25500000000E-02 0.  1.
         -2   -1    0    0    0  501 -0.00000000000E+00 -0.00000000000E+00 -0.48293318497E+03  0.48293318497E+03  0.25500000000E-02 0. -1.
    5000001    1    1    2    0    0  0.92484008937E+02 -0.27691303951E+03 -0.31033248104E+03  0.46570846262E+03  0.18800000000E+03 0.  0.
   -5000001    1    1    2    0    0 -0.92484008937E+02  0.27691303951E+03  0.22268995400E+03  0.41251538029E+03  0.18800000000E+03 0.  0.
<mgrwt>
<rscale>  0 0.87383975E+03</rscale>
<asrwt>0</asrwt>
<pdfrwt beam="1">  1        2 0.56470094E-01 0.87383975E+03</pdfrwt>
<pdfrwt beam="2">  1       -2 0.68990455E-01 0.87383975E+03</pdfrwt>
<totfact> 0.16898433E+02</totfact>
</mgrwt>
</event>
<event>
 4    1  0.6034452E-005  0.8187899E+03  0.7818608E-02  0.9533211E-01
         -2   -1    0    0    0  501 -0.00000000000E+00  0.00000000000E+00  0.17649561131E+03  0.17649561133E+03  0.25500000000E-02 0. -1.
          2   -1    0    0  501    0  0.00000000000E+00 -0.00000000000E+00 -0.94962262534E+03  0.94962262535E+03  0.25500000000E-02 0.  1.
    5000001    1    1    2    0    0  0.24410567793E+03  0.25205113926E+03 -0.51807167102E+03  0.65334494344E+03  0.18800000000E+03 0.  0.
   -5000001    1    1    2    0    0 -0.24410567793E+03 -0.25205113926E+03 -0.25505534301E+03  0.47277329324E+03  0.18800000000E+03 0.  0.
<mgrwt>
<rscale>  0 0.81878990E+03</rscale>
<asrwt>0</asrwt>
<pdfrwt beam="1">  1        2 0.13566037E+00 0.81878990E+03</pdfrwt>
<pdfrwt beam="2">  1       -2 0.25213659E-01 0.81878990E+03</pdfrwt>
<totfact> 0.42718305E+02</totfact>
</mgrwt>
</event>
<event>
 4    1  0.6034452E-005  0.6590940E+03  0.7818608E-02  0.9789863E-01
          2   -1    0    0  501    0  0.00000000000E+00  0.00000000000E+00  0.21843894195E+04  0.21843894195E+04  0.25500000000E-02 0.  1.
         -2   -1    0    0    0  501 -0.00000000000E+00 -0.00000000000E+00 -0.49716972752E+02  0.49716972817E+02  0.25500000000E-02 0. -1.
    5000001    1    1    2    0    0 -0.26407512999E+03 -0.38192499889E+02  0.91338104218E+03  0.96995013766E+03  0.18800000000E+03 0.  0.
   -5000001    1    1    2    0    0  0.26407512999E+03  0.38192499889E+02  0.12212914046E+04  0.12641562547E+04  0.18800000000E+03 0.  0.
<mgrwt>
<rscale>  0 0.65909401E+03</rscale>
<asrwt>0</asrwt>
<pdfrwt beam="1">  1        2 0.31205558E+00 0.65909401E+03</pdfrwt>
<pdfrwt beam="2">  1       -2 0.71024259E-02 0.65909401E+03</pdfrwt>
<totfact> 0.78954692E+02</totfact>
</mgrwt>
</event>
<event>
 4    1  0.6034452E-005  0.5730020E+03  0.7818608E-02  0.9963058E-01
         -2   -1    0    0    0  501 -0.00000000000E+00  0.00000000000E+00  0.61428421751E+02  0.61428421804E+02  0.25500000000E-02 0. -1.
          2   -1    0    0  501    0  0.00000000000E+00 -0.00000000000E+00 -0.13362352217E+04  0.13362352217E+04  0.25500000000E-02 0.  1.
    5000001    1    1    2    0    0 -0.30499608696E+02  0.20222200961E+03 -0.80840564988E+03  0.85480270359E+03  0.18800000000E+03 0.  0.
   -5000001    1    1    2    0    0  0.30499608696E+02 -0.20222200961E+03 -0.46640115005E+03  0.54286093990E+03  0.18800000000E+03 0.  0.
<mgrwt>
<rscale>  0 0.57300199E+03</rscale>
<asrwt>0</asrwt>
<pdfrwt beam="1">  1        2 0.19089073E+00 0.57300199E+03</pdfrwt>
<pdfrwt beam="2">  1       -2 0.87754897E-02 0.57300199E+03</pdfrwt>
<totfact> 0.15368980E+03</totfact>
</mgrwt>
</event>
<event>
 4    1  0.6034452E-005  0.5156206E+03  0.7818608E-02  0.1009780E+00
         -2   -1    0    0    0  501 -0.00000000000E+00  0.00000000000E+00  0.13532748546E+02  0.13532748787E+02  0.25500000000E-02 0. -1.
          2   -1    0    0  501    0  0.00000000000E+00 -0.00000000000E+00 -0.49115037563E+04  0.49115037563E+04  0.25500000000E-02 0.  1.
    5000001    1    1    2    0    0 -0.17342322142E+03  0.35202411964E+01 -0.21418225069E+04  0.21570432673E+04  0.18800000000E+03 0.  0.
   -5000001    1    1    2    0    0  0.17342322142E+03 -0.35202411964E+01 -0.27561485009E+04  0.27679932379E+04  0.18800000000E+03 0.  0.
<mgrwt>
<rscale>  0 0.51562058E+03</rscale>
<asrwt>0</asrwt>
<pdfrwt beam="1">  1        2 0.70164225E+00 0.51562058E+03</pdfrwt>
<pdfrwt beam="2">  1       -2 0.19332530E-02 0.51562058E+03</pdfrwt>
<totfact> 0.11226567E+02</totfact>
</mgrwt>
</event>
<event>
 4    1  0.6034452E-005  0.4421306E+03  0.7818608E-02  0.1030095E+00
         -2   -1    0    0    0  501 -0.00000000000E+00  0.00000000000E+00  0.31977630280E+02  0.31977630382E+02  0.25500000000E-02 0. -1.
          2   -1    0    0  501    0  0.00000000000E+00 -0.00000000000E+00 -0.15282513600E+04  0.15282513600E+04  0.25500000000E-02 0.  1.
    5000001    1    1    2    0    0  0.94840538332E+02 -0.17866072559E+01 -0.51067820156E+03  0.55238948688E+03  0.18800000000E+03 0.  0.
   -5000001    1    1    2    0    0 -0.94840538332E+02  0.17866072559E+01 -0.98559552818E+03  0.10078395035E+04  0.18800000000E+03 0.  0.
<mgrwt>
<rscale>  0 0.44213056E+03</rscale>
<asrwt>0</asrwt>
<pdfrwt beam="1">  1        2 0.21832158E+00 0.44213056E+03</pdfrwt>
<pdfrwt beam="2">  1       -2 0.45682339E-02 0.44213056E+03</pdfrwt>
<totfact> 0.33950711E+03</totfact>
</mgrwt>
</event>
<event>
 4    1  0.6034452E-005  0.7096240E+03  0.7818608E-02  0.9700914E-01
          2   -1    0    0  501    0  0.00000000000E+00  0.00000000000E+00  0.13207850635E+04  0.13207850635E+04  0.25500000000E-02 0.  1.
         -2   -1    0    0    0  501 -0.00000000000E+00 -0.00000000000E+00 -0.95315697613E+02  0.95315697647E+02  0.25500000000E-02 0. -1.
    5000001    1    1    2    0    0 -0.13613992291E+03  0.25424645592E+03  0.78407704233E+03  0.85632712632E+03  0.18800000000E+03 0.  0.
   -5000001    1    1    2    0    0  0.13613992291E+03 -0.25424645592E+03  0.44139232355E+03  0.55977363483E+03  0.18800000000E+03 0.  0.
<mgrwt>
<rscale>  0 0.70962398E+03</rscale>
<asrwt>0</asrwt>
<pdfrwt beam="1">  1        2 0.18868358E+00 0.70962398E+03</pdfrwt>
<pdfrwt beam="2">  1       -2 0.13616528E-01 0.70962398E+03</pdfrwt>
<totfact> 0.76006151E+02</totfact>
</mgrwt>
</event>
<event>
 4    1  0.6034452E-005  0.5721772E+03  0.7818608E-02  0.9964872E-01
         -2   -1    0    0    0  501 -0.00000000000E+00  0.00000000000E+00  0.54067657325E+03  0.54067657326E+03  0.25500000000E-02 0. -1.
          2   -1    0    0  501    0  0.00000000000E+00 -0.00000000000E+00 -0.15137825731E+03  0.15137825733E+03  0.25500000000E-02 0.  1.
    5000001    1    1    2    0    0  0.21005228352E+03 -0.21960912572E+02  0.24734880748E+03  0.37567229876E+03  0.18800000000E+03 0.  0.
   -5000001    1    1    2    0    0 -0.21005228352E+03  0.21960912572E+02  0.14194950847E+03  0.31638253183E+03  0.18800000000E+03 0.  0.
<mgrwt>
<rscale>  0 0.57217717E+03</rscale>
<asrwt>0</asrwt>
<pdfrwt beam="1">  1        2 0.21625465E-01 0.57217717E+03</pdfrwt>
<pdfrwt beam="2">  1       -2 0.77239511E-01 0.57217717E+03</pdfrwt>
<totfact> 0.39156803E+02</totfact>
</mgrwt>
</event>
<event>
 4    1  0.6034452E-005  0.8258379E+03  0.7818608E-02  0.9523353E-01
          2   -1    0    0  501    0  0.00000000000E+00  0.00000000000E+00  0.65030586922E+03  0.65030586923E+03  0.25500000000E-02 0.  1.
         -2   -1    0    0    0  501 -0.00000000000E+00 -0.00000000000E+00 -0.26218745942E+03  0.26218745944E+03  0.25500000000E-02 0. -1.
    5000001    1    1    2    0    0  0.24472077547E+03  0.27152830973E+03  0.23745024055E+03  0.47470253598E+03  0.18800000000E+03 0.  0.
   -5000001    1    1    2    0    0 -0.24472077547E+03 -0.27152830973E+03  0.15066816925E+03  0.43779079268E+03  0.18800000000E+03 0.  0.
<mgrwt>
<rscale>  0 0.82583786E+03</rscale>
<asrwt>0</asrwt>
<pdfrwt beam="1">  1        2 0.92900840E-01 0.82583786E+03</pdfrwt>
<pdfrwt beam="2">  1       -2 0.37455351E-01 0.82583786E+03</pdfrwt>
<totfact> 0.33232373E+02</totfact>
</mgrwt>
</event>
<event>
 4    1  0.6034452E-005  0.7812269E+03  0.7818608E-02  0.9587595E-01
          2   -1    0    0  501    0  0.00000000000E+00  0.00000000000E+00  0.21493790849E+04  0.21493790849E+04  0.25500000000E-02 0.  1.
         -2   -1    0    0    0  501 -0.00000000000E+00 -0.00000000000E+00 -0.70987410276E+02  0.70987410322E+02  0.25500000000E-02 0. -1.
    5000001    1    1    2    0    0 -0.20266868122E+03  0.15262904435E+03  0.16926725487E+04  0.17218753081E+04  0.18800000000E+03 0.  0.
   -5000001    1    1    2    0    0  0.20266868122E+03 -0.15262904435E+03  0.38571912590E+03  0.49849118710E+03  0.18800000000E+03 0.  0.
<mgrwt>
<rscale>  0 0.78122687E+03</rscale>
<asrwt>0</asrwt>
<pdfrwt beam="1">  1        2 0.30705409E+00 0.78122687E+03</pdfrwt>
<pdfrwt beam="2">  1       -2 0.10141061E-01 0.78122687E+03</pdfrwt>
<totfact> 0.46025804E+02</totfact>
</mgrwt>
</event>
<event>
 4    1  0.6034452E-005  0.5417757E+03  0.7818608E-02  0.1003416E+00
         -2   -1    0    0    0  501 -0.00000000000E+00  0.00000000000E+00  0.43327293276E+02  0.43327293351E+02  0.25500000000E-02 0. -1.
          2   -1    0    0  501    0  0.00000000000E+00 -0.00000000000E+00 -0.16936259447E+04  0.16936259447E+04  0.25500000000E-02 0.  1.
    5000001    1    1    2    0    0  0.12168026205E+03  0.12823486938E+03 -0.10892528858E+04  0.11194043582E+04  0.18800000000E+03 0.  0.
   -5000001    1    1    2    0    0 -0.12168026205E+03 -0.12823486938E+03 -0.56104576556E+03  0.61754887981E+03  0.18800000000E+03 0.  0.
<mgrwt>
<rscale>  0 0.54177570E+03</rscale>
<asrwt>0</asrwt>
<pdfrwt beam="1">  1        2 0.24194652E+00 0.54177570E+03</pdfrwt>
<pdfrwt beam="2">  1       -2 0.61896144E-02 0.54177570E+03</pdfrwt>
<totfact> 0.17429498E+03</totfact>
</mgrwt>
</event>
<event>
 4    1  0.6034452E-005  0.6329338E+03  0.7818608E-02  0.9839340E-01
         -2   -1    0    0    0  501 -0.00000000000E+00  0.00000000000E+00  0.14042289976E+03  0.14042289979E+03  0.25500000000E-02 0. -1.
          2   -1    0    0  501    0  0.00000000000E+00 -0.00000000000E+00 -0.71321211068E+03  0.71321211069E+03  0.25500000000E-02 0.  1.
    5000001    1    1    2    0    0 -0.12629889484E+03 -0.10750778875E+03 -0.54686390362E+03  0.60159244058E+03  0.18800000000E+03 0.  0.
   -5000001    1    1    2    0    0  0.12629889484E+03  0.10750778875E+03 -0.25925307297E+02  0.25204256989E+03  0.18800000000E+03 0.  0.
<mgrwt>
<rscale>  0 0.63293384E+03</rscale>
<asrwt>0</asrwt>
<pdfrwt beam="1">  1        2 0.10188744E+00 0.63293384E+03</pdfrwt>
<pdfrwt beam="2">  1       -2 0.20060415E-01 0.63293384E+03</pdfrwt>
<totfact> 0.93591844E+02</totfact>
</mgrwt>
</event>
<event>
 4    1  0.6034452E-005  0.5729702E+03  0.7818608E-02  0.9963127E-01
         -2   -1    0    0    0  501 -0.00000000000E+00  0.00000000000E+00  0.17803996896E+03  0.17803996898E+03  0.25500000000E-02 0. -1.
          2   -1    0    0  501    0  0.00000000000E+00 -0.00000000000E+00 -0.46098483105E+03  0.46098483106E+03  0.25500000000E-02 0.  1.
    5000001    1    1    2    0    0 -0.13006505088E+03  0.13320313932E+03 -0.18944684944E+02  0.26526005141E+03  0.18800000000E+03 0.  0.
   -5000001    1    1    2    0    0  0.13006505088E+03 -0.13320313932E+03 -0.26400017714E+03  0.37376474863E+03  0.18800000000E+03 0.  0.
<mgrwt>
<rscale>  0 0.57297024E+03</rscale>
<asrwt>0</asrwt>
<pdfrwt beam="1">  1        2 0.65854975E-01 0.57297024E+03</pdfrwt>
<pdfrwt beam="2">  1       -2 0.25434282E-01 0.57297024E+03</pdfrwt>
<totfact> 0.10252393E+03</totfact>
</mgrwt>
</event>
<event>
 4    1  0.6034452E-005  0.4228807E+03  0.7818608E-02  0.1036133E+00
         -2   -1    0    0    0  501 -0.00000000000E+00  0.00000000000E+00  0.26127666498E+03  0.26127666499E+03  0.25500000000E-02 0. -1.
          2   -1    0    0  501    0  0.00000000000E+00 -0.00000000000E+00 -0.17110985845E+03  0.17110985847E+03  0.25500000000E-02 0.  1.
    5000001    1    1    2    0    0  0.79477105422E+02  0.55124434878E+02  0.47920586075E+02  0.21678490763E+03  0.18800000000E+03 0.  0.
   -5000001    1    1    2    0    0 -0.79477105422E+02 -0.55124434878E+02  0.42246220448E+02  0.21560161583E+03  0.18800000000E+03 0.  0.
<mgrwt>
<rscale>  0 0.42288066E+03</rscale>
<asrwt>0</asrwt>
<pdfrwt beam="1">  1        2 0.24444265E-01 0.42288066E+03</pdfrwt>
<pdfrwt beam="2">  1       -2 0.37325238E-01 0.42288066E+03</pdfrwt>
<totfact> 0.15134347E+03</totfact>
</mgrwt>
</event>
<event>
 4    1  0.6034452E-005  0.6073971E+03  0.7818608E-02  0.9890177E-01
          2   -1    0    0  501    0  0.00000000000E+00  0.00000000000E+00  0.10633320693E+04  0.10633320693E+04  0.25500000000E-02 0.  1.
         -2   -1    0    0    0  501 -0.00000000000E+00 -0.00000000000E+00 -0.86739413113E+02  0.86739413150E+02  0.25500000000E-02 0. -1.
    5000001    1    1    2    0    0 -0.79527032586E+02  0.14069766445E+03  0.15616891219E+03  0.29300701498E+03  0.18800000000E+03 0.  0.
   -5000001    1    1    2    0    0  0.79527032586E+02 -0.14069766445E+03  0.82042374401E+03  0.85706446748E+03  0.18800000000E+03 0.  0.
<mgrwt>
<rscale>  0 0.60739707E+03</rscale>
<asrwt>0</asrwt>
<pdfrwt beam="1">  1        2 0.15190458E+00 0.60739707E+03</pdfrwt>
<pdfrwt beam="2">  1       -2 0.12391345E-01 0.60739707E+03</pdfrwt>
<totfact> 0.12469426E+03</totfact>
</mgrwt>
</event>
<event>
 4    1  0.6034452E-005  0.4957491E+03  0.7818608E-02  0.1014894E+00
         -2   -1    0    0    0  501 -0.00000000000E+00  0.00000000000E+00  0.11099793984E+03  0.11099793987E+03  0.25500000000E-02 0. -1.
          2   -1    0    0  501    0  0.00000000000E+00 -0.00000000000E+00 -0.55353986913E+03  0.55353986914E+03  0.25500000000E-02 0.  1.
    5000001    1    1    2    0    0  0.15088531996E+03 -0.11702225689E+02 -0.29703388986E+03  0.38272242368E+03  0.18800000000E+03 0.  0.
   -5000001    1    1    2    0    0 -0.15088531996E+03  0.11702225689E+02 -0.14550803944E+03  0.28181538533E+03  0.18800000000E+03 0.  0.
<mgrwt>
<rscale>  0 0.49574907E+03</rscale>
<asrwt>0</asrwt>
<pdfrwt beam="1">  1        2 0.79077123E-01 0.49574907E+03</pdfrwt>
<pdfrwt beam="2">  1       -2 0.15856849E-01 0.49574907E+03</pdfrwt>
<totfact> 0.18945645E+03</totfact>
</mgrwt>
</event>
<event>
 4    1  0.6034452E-005  0.4701387E+03  0.7818608E-02  0.1021881E+00
         -2   -1    0    0    0  501 -0.00000000000E+00  0.00000000000E+00  0.24293314132E+02  0.24293314266E+02  0.25500000000E-02 0. -1.
          2   -1    0    0  501    0  0.00000000000E+00 -0.00000000000E+00 -0.22746011743E+04  0.22746011743E+04  0.25500000000E-02 0.  1.
    5000001    1    1    2    0    0  0.61115053519E+02  0.70848915594E+02 -0.60861230249E+03  0.64382261016E+03  0.18800000000E+03 0.  0.
   -5000001    1    1    2    0    0 -0.61115053519E+02 -0.70848915594E+02 -0.16416955577E+04  0.16550718785E+04  0.18800000000E+03 0.  0.
<mgrwt>
<rscale>  0 0.47013871E+03</rscale>
<asrwt>0</asrwt>
<pdfrwt beam="1">  1        2 0.32494289E+00 0.47013871E+03</pdfrwt>
<pdfrwt beam="2">  1       -2 0.34704749E-02 0.47013871E+03</pdfrwt>
<totfact> 0.21815402E+03</totfact>
</mgrwt>
</event>
<event>
 4    1  0.6034452E-005  0.7567746E+03  0.7818608E-02  0.9624782E-01
         -2   -1    0    0    0  501 -0.00000000000E+00  0.00000000000E+00  0.87376165625E+02  0.87376165662E+02  0.25500000000E-02 0. -1.
          2   -1    0    0  501    0  0.00000000000E+00 -0.00000000000E+00 -0.16386268768E+04  0.16386268768E+04  0.25500000000E-02 0.  1.
    5000001    1    1    2    0    0 -0.14732870244E+03 -0.27180824588E+03 -0.52322025631E+03  0.63615163735E+03  0.18800000000E+03 0.  0.
   -5000001    1    1    2    0    0  0.14732870244E+03  0.27180824588E+03 -0.10280304549E+04  0.10898514051E+04  0.18800000000E+03 0.  0.
<mgrwt>
<rscale>  0 0.75677456E+03</rscale>
<asrwt>0</asrwt>
<pdfrwt beam="1">  1        2 0.23408954E+00 0.75677456E+03</pdfrwt>
<pdfrwt beam="2">  1       -2 0.12482310E-01 0.75677456E+03</pdfrwt>
<totfact> 0.59574556E+02</totfact>
</mgrwt>
</event>
<event>
 4    1  0.6034452E-005  0.6526421E+03  0.7818608E-02  0.9801834E-01
         -2   -1    0    0    0  501 -0.00000000000E+00  0.00000000000E+00  0.24464935817E+03  0.24464935819E+03  0.25500000000E-02 0. -1.
          2   -1    0    0  501    0  0.00000000000E+00 -0.00000000000E+00 -0.43525730703E+03  0.43525730704E+03  0.25500000000E-02 0.  1.
    5000001    1    1    2    0    0  0.15424101696E+03 -0.21394965849E+03 -0.13667012047E+03  0.35155009530E+03  0.18800000000E+03 0.  0.
   -5000001    1    1    2    0    0 -0.15424101696E+03  0.21394965849E+03 -0.53937828385E+02  0.32835656992E+03  0.18800000000E+03 0.  0.
<mgrwt>
<rscale>  0 0.65264208E+03</rscale>
<asrwt>0</asrwt>
<pdfrwt beam="1">  1        2 0.62179615E-01 0.65264208E+03</pdfrwt>
<pdfrwt beam="2">  1       -2 0.34949909E-01 0.65264208E+03</pdfrwt>
<totfact> 0.60734813E+02</totfact>
</mgrwt>
</event>
<event>
 4    1  0.6034452E-005  0.7371217E+03  0.7818608E-02  0.9655774E-01
         -2   -1    0    0    0  501 -0.00000000000E+00  0.00000000000E+00  0.96326493318E+02  0.96326493352E+02  0.25500000000E-02 0. -1.
          2   -1    0    0  501    0  0.00000000000E+00 -0.00000000000E+00 -0.14101738861E+04  0.14101738861E+04  0.25500000000E-02 0.  1.
    5000001    1    1    2    0    0  0.22720057582E+03 -0.12474148109E+03 -0.10299453889E+04  0.10785694428E+04  0.18800000000E+03 0.  0.
   -5000001    1    1    2    0    0 -0.22720057582E+03  0.12474148109E+03 -0.28390200386E+03  0.42793093666E+03  0.18800000000E+03 0.  0.
<mgrwt>
<rscale>  0 0.73712171E+03</rscale>
<asrwt>0</asrwt>
<pdfrwt beam="1">  1        2 0.20145340E+00 0.73712171E+03</pdfrwt>
<pdfrwt beam="2">  1       -2 0.13760928E-01 0.73712171E+03</pdfrwt>
<totfact> 0.66758677E+02</totfact>
</mgrwt>
</event>
<event>
 4    1  0.6034452E-005  0.5664721E+03  0.7818608E-02  0.9977516E-01
          2   -1    0    0  501    0  0.00000000000E+00  0.00000000000E+00  0.58626250063E+03  0.58626250063E+03  0.25500000000E-02 0.  1.
         -2   -1    0    0    0  501 -0.00000000000E+00 -0.00000000000E+00 -0.13683741809E+03  0.13683741811E+03  0.25500000000E-02 0. -1.
    5000001    1    1    2    0    0  0.18843638014E+03 -0.95087071575E+02  0.24785999096E+03  0.37593669102E+03  0.18800000000E+03 0.  0.
   -5000001    1    1    2    0    0 -0.18843638014E+03  0.95087071575E+02  0.20156509158E+03  0.34716322772E+03  0.18800000000E+03 0.  0.
<mgrwt>
<rscale>  0 0.56647205E+03</rscale>
<asrwt>0</asrwt>
<pdfrwt beam="1">  1        2 0.83751786E-01 0.56647205E+03</pdfrwt>
<pdfrwt beam="2">  1       -2 0.19548203E-01 0.56647205E+03</pdfrwt>
<totfact> 0.12393618E+03</totfact>
</mgrwt>
</event>
<event>
 4    1  0.6034452E-005  0.4372896E+03  0.7818608E-02  0.1031582E+00
          2   -1    0    0  501    0  0.00000000000E+00  0.00000000000E+00  0.67351415056E+03  0.67351415056E+03  0.25500000000E-02 0.  1.
         -2   -1    0    0    0  501 -0.00000000000E+00 -0.00000000000E+00 -0.70979264344E+02  0.70979264389E+02  0.25500000000E-02 0. -1.
    5000001    1    1    2    0    0 -0.70208067329E+02  0.66643703841E+02  0.39592168074E+03  0.44885246269E+03  0.18800000000E+03 0.  0.
   -5000001    1    1    2    0    0  0.70208067329E+02 -0.66643703841E+02  0.20661320547E+03  0.29564095226E+03  0.18800000000E+03 0.  0.
<mgrwt>
<rscale>  0 0.43728956E+03</rscale>
<asrwt>0</asrwt>
<pdfrwt beam="1">  1        2 0.96216303E-01 0.43728956E+03</pdfrwt>
<pdfrwt beam="2">  1       -2 0.10139895E-01 0.43728956E+03</pdfrwt>
<totfact> 0.31401701E+03</totfact>
</mgrwt>
</event>
<event>
 4    1  0.6034452E-005  0.6053763E+03  0.7818608E-02  0.9894314E-01
          2   -1    0    0  501    0  0.00000000000E+00  0.00000000000E+00  0.73233027352E+03  0.73233027353E+03  0.25500000000E-02 0.  1.
         -2   -1    0    0    0  501 -0.00000000000E+00 -0.00000000000E+00 -0.12510765986E+03  0.12510765989E+03  0.25500000000E-02 0. -1.
    5000001    1    1    2    0    0  0.22752908665E+03 -0.28677071208E+02  0.38958247079E+03  0.48960224799E+03  0.18800000000E+03 0.  0.
   -5000001    1    1    2    0    0 -0.22752908665E+03  0.28677071208E+02  0.21764014287E+03  0.36783568543E+03  0.18800000000E+03 0.  0.
<mgrwt>
<rscale>  0 0.60537634E+03</rscale>
<asrwt>0</asrwt>
<pdfrwt beam="1">  1        2 0.10461862E+00 0.60537634E+03</pdfrwt>
<pdfrwt beam="2">  1       -2 0.17872522E-01 0.60537634E+03</pdfrwt>
<totfact> 0.11067240E+03</totfact>
</mgrwt>
</event>
<event>
 4    1  0.6034452E-005  0.5187591E+03  0.7818608E-02  0.1008995E+00
         -2   -1    0    0    0  501 -0.00000000000E+00  0.00000000000E+00  0.90069520689E+02  0.90069520726E+02  0.25500000000E-02 0. -1.
          2   -1    0    0  501    0  0.00000000000E+00 -0.00000000000E+00 -0.74695345021E+03  0.74695345022E+03  0.25500000000E-02 0.  1.
    5000001    1    1    2    0    0  0.11198352046E+03 -0.62669797007E+02 -0.12778249348E+03  0.26103673679E+03  0.18800000000E+03 0.  0.
   -5000001    1    1    2    0    0 -0.11198352046E+03  0.62669797007E+02 -0.52910143604E+03  0.57598623416E+03  0.18800000000E+03 0.  0.
<mgrwt>
<rscale>  0 0.51875905E+03</rscale>
<asrwt>0</asrwt>
<pdfrwt beam="1">  1        2 0.10670763E+00 0.51875905E+03</pdfrwt>
<pdfrwt beam="2">  1       -2 0.12867075E-01 0.51875905E+03</pdfrwt>
<totfact> 0.18790281E+03</totfact>
</mgrwt>
</event>
<event>
 4    1  0.6034452E-005  0.6799409E+03  0.7818608E-02  0.9752165E-01
         -2   -1    0    0    0  501 -0.00000000000E+00  0.00000000000E+00  0.17559792744E+03  0.17559792746E+03  0.25500000000E-02 0. -1.
          2   -1    0    0  501    0  0.00000000000E+00 -0.00000000000E+00 -0.65820763349E+03  0.65820763349E+03  0.25500000000E-02 0.  1.
    5000001    1    1    2    0    0 -0.24758456365E+03  0.10737136690E+03 -0.13574994973E+03  0.35580721667E+03  0.18800000000E+03 0.  0.
   -5000001    1    1    2    0    0  0.24758456365E+03 -0.10737136690E+03 -0.34685975632E+03  0.47799834428E+03  0.18800000000E+03 0.  0.
<mgrwt>
<rscale>  0 0.67994087E+03</rscale>
<asrwt>0</asrwt>
<pdfrwt beam="1">  1        2 0.94029660E-01 0.67994087E+03</pdfrwt>
<pdfrwt beam="2">  1       -2 0.25085419E-01 0.67994087E+03</pdfrwt>
<totfact> 0.69393907E+02</totfact>
</mgrwt>
</event>
<event>
 4    1  0.6034452E-005  0.5529573E+03  0.7818608E-02  0.1000812E+00
          2   -1    0    0  501    0  0.00000000000E+00  0.00000000000E+00  0.10810538327E+03  0.10810538330E+03  0.25500000000E-02 0.  1.
         -2   -1    0    0    0  501 -0.00000000000E+00 -0.00000000000E+00 -0.70709201348E+03  0.70709201348E+03  0.25500000000E-02 0. -1.
    5000001    1    1    2    0    0  0.16663350421E+03 -0.51313765773E+02 -0.45196688362E+03  0.51963245777E+03  0.18800000000E+03 0.  0.
   -5000001    1    1    2    0    0 -0.16663350421E+03  0.51313765773E+02 -0.14701974659E+03  0.29556493901E+03  0.18800000000E+03 0.  0.
<mgrwt>
<rscale>  0 0.55295733E+03</rscale>
<asrwt>0</asrwt>
<pdfrwt beam="1">  1        2 0.15443627E-01 0.55295733E+03</pdfrwt>
<pdfrwt beam="2">  1       -2 0.10101314E+00 0.55295733E+03</pdfrwt>
<totfact> 0.31574438E+02</totfact>
</mgrwt>
</event>
<event>
 4    1  0.6034452E-005  0.1948582E+04  0.7818608E-02  0.8631045E-01
          2   -1    0    0  501    0  0.00000000000E+00  0.00000000000E+00  0.15180873277E+04  0.15180873277E+04  0.25500000000E-02 0.  1.
         -2   -1    0    0    0  501 -0.00000000000E+00 -0.00000000000E+00 -0.62528889851E+03  0.62528889852E+03  0.25500000000E-02 0. -1.
    5000001    1    1    2    0    0  0.57165217333E+03  0.58458762355E+03 -0.98467948009E+02  0.84473003597E+03  0.18800000000E+03 0.  0.
   -5000001    1    1    2    0    0 -0.57165217333E+03 -0.58458762355E+03  0.99126637716E+03  0.12986461902E+04  0.18800000000E+03 0.  0.
<mgrwt>
<rscale>  0 0.19485822E+04</rscale>
<asrwt>0</asrwt>
<pdfrwt beam="1">  1        2 0.21686962E+00 0.19485822E+04</pdfrwt>
<pdfrwt beam="2">  1       -2 0.89326986E-01 0.19485822E+04</pdfrwt>
<totfact> 0.14398038E+01</totfact>
</mgrwt>
</event>
<event>
 4    1  0.6034452E-005  0.7787253E+03  0.7818608E-02  0.9591332E-01
          2   -1    0    0  501    0  0.00000000000E+00  0.00000000000E+00  0.32259418218E+04  0.32259418218E+04  0.25500000000E-02 0.  1.
         -2   -1    0    0    0  501 -0.00000000000E+00 -0.00000000000E+00 -0.46995038874E+02  0.46995038944E+02  0.25500000000E-02 0. -1.
    5000001    1    1    2    0    0 -0.19510849926E+03 -0.27177348865E+03  0.13128730215E+04  0.13678112904E+04  0.18800000000E+03 0.  0.
   -5000001    1    1    2    0    0  0.19510849926E+03  0.27177348865E+03  0.18660737615E+04  0.19051255704E+04  0.18800000000E+03 0.  0.
<mgrwt>
<rscale>  0 0.77872527E+03</rscale>
<asrwt>0</asrwt>
<pdfrwt beam="1">  1        2 0.46084889E+00 0.77872527E+03</pdfrwt>
<pdfrwt beam="2">  1       -2 0.67135762E-02 0.77872527E+03</pdfrwt>
<totfact> 0.23978404E+02</totfact>
</mgrwt>
</event>
<event>
 4    1  0.6034452E-005  0.6112182E+03  0.7818608E-02  0.9882401E-01
          2   -1    0    0  501    0  0.00000000000E+00  0.00000000000E+00  0.36744345152E+03  0.36744345153E+03  0.25500000000E-02 0.  1.
         -2   -1    0    0    0  501 -0.00000000000E+00 -0.00000000000E+00 -0.25418038295E+03  0.25418038296E+03  0.25500000000E-02 0. -1.
    5000001    1    1    2    0    0 -0.37160926982E+02  0.23752759483E+03  0.72796286877E+02  0.31375721853E+03  0.18800000000E+03 0.  0.
   -5000001    1    1    2    0    0  0.37160926982E+02 -0.23752759483E+03  0.40466781692E+02  0.30786661596E+03  0.18800000000E+03 0.  0.
<mgrwt>
<rscale>  0 0.61121818E+03</rscale>
<asrwt>0</asrwt>
<pdfrwt beam="1">  1        2 0.52491921E-01 0.61121818E+03</pdfrwt>
<pdfrwt beam="2">  1       -2 0.36311484E-01 0.61121818E+03</pdfrwt>
<totfact> 0.68251617E+02</totfact>
</mgrwt>
</event>
<event>
 4    1  0.6034452E-005  0.7374141E+03  0.7818608E-02  0.9655305E-01
         -2   -1    0    0    0  501 -0.00000000000E+00  0.00000000000E+00  0.75169672165E+02  0.75169672208E+02  0.25500000000E-02 0. -1.
          2   -1    0    0  501    0  0.00000000000E+00 -0.00000000000E+00 -0.18085069016E+04  0.18085069016E+04  0.25500000000E-02 0.  1.
    5000001    1    1    2    0    0  0.20935088749E+03 -0.20837181211E+03 -0.11618608427E+04  0.12134707347E+04  0.18800000000E+03 0.  0.
   -5000001    1    1    2    0    0 -0.20935088749E+03  0.20837181211E+03 -0.57147638667E+03  0.67020583905E+03  0.18800000000E+03 0.  0.
<mgrwt>
<rscale>  0 0.73741405E+03</rscale>
<asrwt>0</asrwt>
<pdfrwt beam="1">  1        2 0.25835810E+00 0.73741405E+03</pdfrwt>
<pdfrwt beam="2">  1       -2 0.10738526E-01 0.73741405E+03</pdfrwt>
<totfact> 0.62559886E+02</totfact>
</mgrwt>
</event>
<event>
 4    1  0.6034452E-005  0.9408587E+03  0.7818608E-02  0.9375900E-01
          2   -1    0    0  501    0  0.00000000000E+00  0.00000000000E+00  0.17575430454E+04  0.17575430454E+04  0.25500000000E-02 0.  1.
         -2   -1    0    0    0  501 -0.00000000000E+00 -0.00000000000E+00 -0.12591657242E+03  0.12591657245E+03  0.25500000000E-02 0. -1.
    5000001    1    1    2    0    0  0.36755657428E+03 -0.32537685849E+02  0.12625593375E+04  0.13287424947E+04  0.18800000000E+03 0.  0.
   -5000001    1    1    2    0    0 -0.36755657428E+03  0.32537685849E+02  0.36906713542E+03  0.55471712318E+03  0.18800000000E+03 0.  0.
<mgrwt>
<rscale>  0 0.94085875E+03</rscale>
<asrwt>0</asrwt>
<pdfrwt beam="1">  1        2 0.25107756E+00 0.94085875E+03</pdfrwt>
<pdfrwt beam="2">  1       -2 0.17988083E-01 0.94085875E+03</pdfrwt>
<totfact> 0.27566181E+02</totfact>
</mgrwt>
</event>
<event>
 4    1  0.6034452E-005  0.4969753E+03  0.7818608E-02  0.1014571E+00
          2   -1    0    0  501    0  0.00000000000E+00  0.00000000000E+00  0.68689294701E+03  0.68689294702E+03  0.25500000000E-02 0.  1.
         -2   -1    0    0    0  501 -0.00000000000E+00 -0.00000000000E+00 -0.89891899454E+02  0.89891899490E+02  0.25500000000E-02 0. -1.
    5000001    1    1    2    0    0 -0.36904542505E+02  0.13271426568E+03  0.43320291030E+03  0.49191847197E+03  0.18800000000E+03 0.  0.
   -5000001    1    1    2    0    0  0.36904542505E+02 -0.13271426568E+03  0.16379813726E+03  0.28486637454E+03  0.18800000000E+03 0.  0.
<mgrwt>
<rscale>  0 0.49697530E+03</rscale>
<asrwt>0</asrwt>
<pdfrwt beam="1">  1        2 0.98127567E-01 0.49697530E+03</pdfrwt>
<pdfrwt beam="2">  1       -2 0.12841699E-01 0.49697530E+03</pdfrwt>
<totfact> 0.20889306E+03</totfact>
</mgrwt>
</event>
<event>
 4    1  0.6034452E-005  0.8287841E+03  0.7818608E-02  0.9519263E-01
         -2   -1    0    0    0  501 -0.00000000000E+00  0.00000000000E+00  0.24889437219E+03  0.24889437220E+03  0.25500000000E-02 0. -1.
          2   -1    0    0  501    0  0.00000000000E+00 -0.00000000000E+00 -0.68993431614E+03  0.68993431615E+03  0.25500000000E-02 0.  1.
    5000001    1    1    2    0    0  0.13100714945E+03  0.34329078743E+03 -0.26237656213E+03  0.48907759947E+03  0.18800000000E+03 0.  0.
   -5000001    1    1    2    0    0 -0.13100714945E+03 -0.34329078743E+03 -0.17866338182E+03  0.44975108888E+03  0.18800000000E+03 0.  0.
<mgrwt>
<rscale>  0 0.82878409E+03</rscale>
<asrwt>0</asrwt>
<pdfrwt beam="1">  1        2 0.98562045E-01 0.82878409E+03</pdfrwt>
<pdfrwt beam="2">  1       -2 0.35556339E-01 0.82878409E+03</pdfrwt>
<totfact> 0.34160449E+02</totfact>
</mgrwt>
</event>
<event>
 4    1  0.6034452E-005  0.5347805E+03  0.7818608E-02  0.1005079E+00
          2   -1    0    0  501    0  0.00000000000E+00  0.00000000000E+00  0.42160145812E+03  0.42160145813E+03  0.25500000000E-02 0.  1.
         -2   -1    0    0    0  501 -0.00000000000E+00 -0.00000000000E+00 -0.16958561011E+03  0.16958561013E+03  0.25500000000E-02 0. -1.
    5000001    1    1    2    0    0  0.71398231421E+02 -0.17491673064E+03  0.10229886483E+03  0.28548665092E+03  0.18800000000E+03 0.  0.
   -5000001    1    1    2    0    0 -0.71398231421E+02  0.17491673064E+03  0.14971698318E+03  0.30570041734E+03  0.18800000000E+03 0.  0.
<mgrwt>
<rscale>  0 0.53478048E+03</rscale>
<asrwt>0</asrwt>
<pdfrwt beam="1">  1        2 0.60228778E-01 0.53478048E+03</pdfrwt>
<pdfrwt beam="2">  1       -2 0.24226516E-01 0.53478048E+03</pdfrwt>
<totfact> 0.12361569E+03</totfact>
</mgrwt>
</event>
<event>
 4    1  0.6034452E-005  0.4883659E+03  0.7818608E-02  0.1016861E+00
         -2   -1    0    0    0  501 -0.00000000000E+00  0.00000000000E+00  0.36012969334E+02  0.36012969424E+02  0.25500000000E-02 0. -1.
          2   -1    0    0  501    0  0.00000000000E+00 -0.00000000000E+00 -0.16556624066E+04  0.16556624066E+04  0.25500000000E-02 0.  1.
    5000001    1    1    2    0    0  0.25576848837E+02  0.13401461340E+03 -0.54905509185E+03  0.59617076890E+03  0.18800000000E+03 0.  0.
   -5000001    1    1    2    0    0 -0.25576848837E+02 -0.13401461340E+03 -0.10705943454E+04  0.10955046071E+04  0.18800000000E+03 0.  0.
<mgrwt>
<rscale>  0 0.48836593E+03</rscale>
<asrwt>0</asrwt>
<pdfrwt beam="1">  1        2 0.23652315E+00 0.48836593E+03</pdfrwt>
<pdfrwt beam="2">  1       -2 0.51447109E-02 0.48836593E+03</pdfrwt>
<totfact> 0.24328965E+03</totfact>
</mgrwt>
</event>
<event>
 4    1  0.6034452E-005  0.4480536E+03  0.7818608E-02  0.1028304E+00
          2   -1    0    0  501    0  0.00000000000E+00  0.00000000000E+00  0.39767255230E+03  0.39767255231E+03  0.25500000000E-02 0.  1.
         -2   -1    0    0    0  501 -0.00000000000E+00 -0.00000000000E+00 -0.12620435123E+03  0.12620435125E+03  0.25500000000E-02 0. -1.
    5000001    1    1    2    0    0  0.11168344863E+03  0.42172195710E+02  0.16419033082E+03  0.27668420902E+03  0.18800000000E+03 0.  0.
   -5000001    1    1    2    0    0 -0.11168344863E+03 -0.42172195710E+02  0.10727787025E+03  0.24719269454E+03  0.18800000000E+03 0.  0.
<mgrwt>
<rscale>  0 0.44805360E+03</rscale>
<asrwt>0</asrwt>
<pdfrwt beam="1">  1        2 0.56810365E-01 0.44805360E+03</pdfrwt>
<pdfrwt beam="2">  1       -2 0.18029193E-01 0.44805360E+03</pdfrwt>
<totfact> 0.22059244E+03</totfact>
</mgrwt>
</event>
<event>
 4    1  0.6034452E-005  0.7002407E+03  0.7818608E-02  0.9716821E-01
         -2   -1    0    0    0  501 -0.00000000000E+00  0.00000000000E+00  0.97520245483E+03  0.97520245483E+03  0.25500000000E-02 0. -1.
          2   -1    0    0  501    0  0.00000000000E+00 -0.00000000000E+00 -0.12570135809E+03  0.12570135811E+03  0.25500000000E-02 0.  1.
    5000001    1    1    2    0    0  0.23850654447E+03  0.14949068144E+03  0.56543586705E+03  0.65901028470E+03  0.18800000000E+03 0.  0.
   -5000001    1    1    2    0    0 -0.23850654447E+03 -0.14949068144E+03  0.28406522969E+03  0.44189352825E+03  0.18800000000E+03 0.  0.
<mgrwt>
<rscale>  0 0.70024074E+03</rscale>
<asrwt>0</asrwt>
<pdfrwt beam="1">  1        2 0.17957337E-01 0.70024074E+03</pdfrwt>
<pdfrwt beam="2">  1       -2 0.13931464E+00 0.70024074E+03</pdfrwt>
<totfact> 0.11887868E+02</totfact>
</mgrwt>
</event>
<event>
 4    1  0.6034452E-005  0.4935719E+03  0.7818608E-02  0.1015470E+00
          2   -1    0    0  501    0  0.00000000000E+00  0.00000000000E+00  0.20085816982E+04  0.20085816982E+04  0.25500000000E-02 0.  1.
         -2   -1    0    0    0  501 -0.00000000000E+00 -0.00000000000E+00 -0.30321551254E+02  0.30321551361E+02  0.25500000000E-02 0. -1.
    5000001    1    1    2    0    0 -0.73414677132E+02 -0.13695460137E+03  0.83384751460E+03  0.86878763531E+03  0.18800000000E+03 0.  0.
   -5000001    1    1    2    0    0  0.73414677132E+02  0.13695460137E+03  0.11444126323E+04  0.11701156143E+04  0.18800000000E+03 0.  0.
<mgrwt>
<rscale>  0 0.49357193E+03</rscale>
<asrwt>0</asrwt>
<pdfrwt beam="1">  1        2 0.28694012E+00 0.49357193E+03</pdfrwt>
<pdfrwt beam="2">  1       -2 0.43316520E-02 0.49357193E+03</pdfrwt>
<totfact> 0.21095338E+03</totfact>
</mgrwt>
</event>
<event>
 4    1  0.6034452E-005  0.5673802E+03  0.7818608E-02  0.9975493E-01
          2   -1    0    0  501    0  0.00000000000E+00  0.00000000000E+00  0.28824398114E+03  0.28824398115E+03  0.25500000000E-02 0.  1.
         -2   -1    0    0    0  501 -0.00000000000E+00 -0.00000000000E+00 -0.27920819537E+03  0.27920819538E+03  0.25500000000E-02 0. -1.
    5000001    1    1    2    0    0  0.12781548405E+02  0.21174902874E+03  0.16141012561E+02  0.28391116821E+03  0.18800000000E+03 0.  0.
   -5000001    1    1    2    0    0 -0.12781548405E+02 -0.21174902874E+03 -0.71052267976E+01  0.28354100832E+03  0.18800000000E+03 0.  0.
<mgrwt>
<rscale>  0 0.56738023E+03</rscale>
<asrwt>0</asrwt>
<pdfrwt beam="1">  1        2 0.41177712E-01 0.56738023E+03</pdfrwt>
<pdfrwt beam="2">  1       -2 0.39886885E-01 0.56738023E+03</pdfrwt>
<totfact> 0.74524011E+02</totfact>
</mgrwt>
</event>
<event>
 4    1  0.6034452E-005  0.7462524E+03  0.7818608E-02  0.9641248E-01
         -2   -1    0    0    0  501 -0.00000000000E+00  0.00000000000E+00  0.10657267152E+03  0.10657267155E+03  0.25500000000E-02 0. -1.
          2   -1    0    0  501    0  0.00000000000E+00 -0.00000000000E+00 -0.13063683328E+04  0.13063683328E+04  0.25500000000E-02 0.  1.
    5000001    1    1    2    0    0  0.48464163192E+02 -0.22361453002E+03 -0.10296869522E+04  0.10714249637E+04  0.18800000000E+03 0.  0.
   -5000001    1    1    2    0    0 -0.48464163192E+02  0.22361453002E+03 -0.17010870904E+03  0.34151604068E+03  0.18800000000E+03 0.  0.
<mgrwt>
<rscale>  0 0.74625241E+03</rscale>
<asrwt>0</asrwt>
<pdfrwt beam="1">  1        2 0.18662404E+00 0.74625241E+03</pdfrwt>
<pdfrwt beam="2">  1       -2 0.15224668E-01 0.74625241E+03</pdfrwt>
<totfact> 0.64042444E+02</totfact>
</mgrwt>
</event>
<event>
 4    1  0.6034452E-005  0.1074853E+04  0.7818608E-02  0.9230055E-01
         -2   -1    0    0    0  501 -0.00000000000E+00  0.00000000000E+00  0.32379777721E+03  0.32379777722E+03  0.25500000000E-02 0. -1.
          2   -1    0    0  501    0  0.00000000000E+00 -0.00000000000E+00 -0.89199817736E+03  0.89199817736E+03  0.25500000000E-02 0.  1.
    5000001    1    1    2    0    0  0.38969915913E+03  0.31798386560E+03 -0.25871012348E+03  0.59603196341E+03  0.18800000000E+03 0.  0.
   -5000001    1    1    2    0    0 -0.38969915913E+03 -0.31798386560E+03 -0.30949027666E+03  0.61976399118E+03  0.18800000000E+03 0.  0.
<mgrwt>
<rscale>  0 0.10748526E+04</rscale>
<asrwt>0</asrwt>
<pdfrwt beam="1">  1        2 0.12742831E+00 0.10748526E+04</pdfrwt>
<pdfrwt beam="2">  1       -2 0.46256826E-01 0.10748526E+04</pdfrwt>
<totfact> 0.14493306E+02</totfact>
</mgrwt>
</event>
<event>
 4    1  0.6034452E-005  0.9712193E+03  0.7818608E-02  0.9340687E-01
         -2   -1    0    0    0  501 -0.00000000000E+00  0.00000000000E+00  0.30502023758E+03  0.30502023759E+03  0.25500000000E-02 0. -1.
          2   -1    0    0  501    0  0.00000000000E+00 -0.00000000000E+00 -0.77311825393E+03  0.77311825393E+03  0.25500000000E-02 0.  1.
    5000001    1    1    2    0    0  0.28456932945E+03 -0.34150103737E+03 -0.17457843485E+03  0.51324876200E+03  0.18800000000E+03 0.  0.
   -5000001    1    1    2    0    0 -0.28456932945E+03  0.34150103737E+03 -0.29351958150E+03  0.56488972951E+03  0.18800000000E+03 0.  0.
<mgrwt>
<rscale>  0 0.97121926E+03</rscale>
<asrwt>0</asrwt>
<pdfrwt beam="1">  1        2 0.11044546E+00 0.97121926E+03</pdfrwt>
<pdfrwt beam="2">  1       -2 0.43574320E-01 0.97121926E+03</pdfrwt>
<totfact> 0.19811956E+02</totfact>
</mgrwt>
</event>
<event>
 4    1  0.6034452E-005  0.1234978E+04  0.7818608E-02  0.9082779E-01
          2   -1    0    0  501    0  0.00000000000E+00  0.00000000000E+00  0.11229571434E+04  0.11229571434E+04  0.25500000000E-02 0.  1.
         -2   -1    0    0    0  501 -0.00000000000E+00 -0.00000000000E+00 -0.33954343440E+03  0.33954343441E+03  0.25500000000E-02 0. -1.
    5000001    1    1    2    0    0 -0.47934107486E+03 -0.31505858528E+03  0.54574328832E+03  0.81376256669E+03  0.18800000000E+03 0.  0.
   -5000001    1    1    2    0    0  0.47934107486E+03  0.31505858528E+03  0.23767042070E+03  0.64873801113E+03  0.18800000000E+03 0.  0.
<mgrwt>
<rscale>  0 0.12349781E+04</rscale>
<asrwt>0</asrwt>
<pdfrwt beam="1">  1        2 0.16042245E+00 0.12349781E+04</pdfrwt>
<pdfrwt beam="2">  1       -2 0.48506206E-01 0.12349781E+04</pdfrwt>
<totfact> 0.93857042E+01</totfact>
</mgrwt>
</event>
<event>
 4    1  0.6034452E-005  0.4010642E+03  0.7818608E-02  0.1043412E+00
         -2   -1    0    0    0  501 -0.00000000000E+00  0.00000000000E+00  0.31380352274E+02  0.31380352377E+02  0.25500000000E-02 0. -1.
          2   -1    0    0  501    0  0.00000000000E+00 -0.00000000000E+00 -0.12814747033E+04  0.12814747033E+04  0.25500000000E-02 0.  1.
    5000001    1    1    2    0    0 -0.47447027721E+01 -0.68997468494E+02 -0.65539749373E+03  0.68532695675E+03  0.18800000000E+03 0.  0.
   -5000001    1    1    2    0    0  0.47447027721E+01  0.68997468494E+02 -0.59469685725E+03  0.62752809888E+03  0.18800000000E+03 0.  0.
<mgrwt>
<rscale>  0 0.40106422E+03</rscale>
<asrwt>0</asrwt>
<pdfrwt beam="1">  1        2 0.18306778E+00 0.40106422E+03</pdfrwt>
<pdfrwt beam="2">  1       -2 0.44829083E-02 0.40106422E+03</pdfrwt>
<totfact> 0.47054680E+03</totfact>
</mgrwt>
</event>
<event>
 4    1  0.6034452E-005  0.5455157E+03  0.7818608E-02  0.1002537E+00
         -2   -1    0    0    0  501 -0.00000000000E+00  0.00000000000E+00  0.12063132113E+04  0.12063132113E+04  0.25500000000E-02 0. -1.
          2   -1    0    0  501    0  0.00000000000E+00 -0.00000000000E+00 -0.61672917810E+02  0.61672917862E+02  0.25500000000E-02 0.  1.
    5000001    1    1    2    0    0  0.15239093049E+03  0.57159336433E+02  0.31179587229E+03  0.39881179949E+03  0.18800000000E+03 0.  0.
   -5000001    1    1    2    0    0 -0.15239093049E+03 -0.57159336433E+02  0.83284442122E+03  0.86917432970E+03  0.18800000000E+03 0.  0.
<mgrwt>
<rscale>  0 0.54551574E+03</rscale>
<asrwt>0</asrwt>
<pdfrwt beam="1">  1        2 0.88104176E-02 0.54551574E+03</pdfrwt>
<pdfrwt beam="2">  1       -2 0.17233044E+00 0.54551574E+03</pdfrwt>
<totfact> 0.16378371E+02</totfact>
</mgrwt>
</event>
<event>
 4    1  0.6034452E-005  0.6990122E+03  0.7818608E-02  0.9718923E-01
          2   -1    0    0  501    0  0.00000000000E+00  0.00000000000E+00  0.24700279919E+04  0.24700279919E+04  0.25500000000E-02 0.  1.
         -2   -1    0    0    0  501 -0.00000000000E+00 -0.00000000000E+00 -0.49454710354E+02  0.49454710419E+02  0.25500000000E-02 0. -1.
    5000001    1    1    2    0    0 -0.14588401544E+02 -0.16207997137E+03  0.20955760931E+04  0.21102762616E+04  0.18800000000E+03 0.  0.
   -5000001    1    1    2    0    0  0.14588401544E+02  0.16207997137E+03  0.32499718846E+03  0.40920644067E+03  0.18800000000E+03 0.  0.
<mgrwt>
<rscale>  0 0.69901221E+03</rscale>
<asrwt>0</asrwt>
<pdfrwt beam="1">  1        2 0.35286121E+00 0.69901221E+03</pdfrwt>
<pdfrwt beam="2">  1       -2 0.70649572E-02 0.69901221E+03</pdfrwt>
<totfact> 0.56799259E+02</totfact>
</mgrwt>
</event>
<event>
 4    1  0.6034452E-005  0.5585799E+03  0.7818608E-02  0.9995273E-01
         -2   -1    0    0    0  501 -0.00000000000E+00  0.00000000000E+00  0.22164574602E+02  0.22164574749E+02  0.25500000000E-02 0. -1.
          2   -1    0    0  501    0  0.00000000000E+00 -0.00000000000E+00 -0.35192584673E+04  0.35192584673E+04  0.25500000000E-02 0.  1.
    5000001    1    1    2    0    0  0.33788843006E+01 -0.20236466477E+03 -0.14874483609E+04  0.15128811918E+04  0.18800000000E+03 0.  0.
   -5000001    1    1    2    0    0 -0.33788843006E+01  0.20236466477E+03 -0.20096455319E+04  0.20285418502E+04  0.18800000000E+03 0.  0.
<mgrwt>
<rscale>  0 0.55857987E+03</rscale>
<asrwt>0</asrwt>
<pdfrwt beam="1">  1        2 0.50275085E+00 0.55857987E+03</pdfrwt>
<pdfrwt beam="2">  1       -2 0.31663701E-02 0.55857987E+03</pdfrwt>
<totfact> 0.53199558E+02</totfact>
</mgrwt>
</event>
<event>
 4    1  0.6034452E-005  0.5073005E+03  0.7818608E-02  0.1011891E+00
         -2   -1    0    0    0  501 -0.00000000000E+00  0.00000000000E+00  0.36568524031E+02  0.36568524120E+02  0.25500000000E-02 0. -1.
          2   -1    0    0  501    0  0.00000000000E+00 -0.00000000000E+00 -0.17593944344E+04  0.17593944344E+04  0.25500000000E-02 0.  1.
    5000001    1    1    2    0    0  0.55857385545E+02  0.11834788549E+03 -0.12470904247E+04  0.12679529947E+04  0.18800000000E+03 0.  0.
   -5000001    1    1    2    0    0 -0.55857385545E+02 -0.11834788549E+03 -0.47573548571E+03  0.52800996381E+03  0.18800000000E+03 0.  0.
<mgrwt>
<rscale>  0 0.50730053E+03</rscale>
<asrwt>0</asrwt>
<pdfrwt beam="1">  1        2 0.25134201E+00 0.50730053E+03</pdfrwt>
<pdfrwt beam="2">  1       -2 0.52240760E-02 0.50730053E+03</pdfrwt>
<totfact> 0.21048805E+03</totfact>
</mgrwt>
</event>
<event>
 4    1  0.6034452E-005  0.4485306E+03  0.7818608E-02  0.1028161E+00
         -2   -1    0    0    0  501 -0.00000000000E+00  0.00000000000E+00  0.78817636924E+02  0.78817636965E+02  0.25500000000E-02 0. -1.
          2   -1    0    0  501    0  0.00000000000E+00 -0.00000000000E+00 -0.63811768809E+03  0.63811768809E+03  0.25500000000E-02 0.  1.
    5000001    1    1    2    0    0  0.93896207706E+02 -0.74700311518E+02 -0.24201797010E+03  0.32910990902E+03  0.18800000000E+03 0.  0.
   -5000001    1    1    2    0    0 -0.93896207706E+02  0.74700311518E+02 -0.31728208106E+03  0.38782541604E+03  0.18800000000E+03 0.  0.
<mgrwt>
<rscale>  0 0.44853062E+03</rscale>
<asrwt>0</asrwt>
<pdfrwt beam="1">  1        2 0.91159667E-01 0.44853062E+03</pdfrwt>
<pdfrwt beam="2">  1       -2 0.11259663E-01 0.44853062E+03</pdfrwt>
<totfact> 0.28270290E+03</totfact>
</mgrwt>
</event>
<event>
 4    1  0.6034452E-005  0.4478532E+03  0.7818608E-02  0.1028364E+00
         -2   -1    0    0    0  501 -0.00000000000E+00  0.00000000000E+00  0.34389710799E+02  0.34389710894E+02  0.25500000000E-02 0. -1.
          2   -1    0    0  501    0  0.00000000000E+00 -0.00000000000E+00 -0.14580853218E+04  0.14580853218E+04  0.25500000000E-02 0.  1.
    5000001    1    1    2    0    0 -0.12078939371E+03 -0.12548022655E+02 -0.73578675274E+03  0.76907325790E+03  0.18800000000E+03 0.  0.
   -5000001    1    1    2    0    0  0.12078939371E+03  0.12548022655E+02 -0.68790885824E+03  0.72340177477E+03  0.18800000000E+03 0.  0.
<mgrwt>
<rscale>  0 0.44785325E+03</rscale>
<asrwt>0</asrwt>
<pdfrwt beam="1">  1        2 0.20829786E+00 0.44785325E+03</pdfrwt>
<pdfrwt beam="2">  1       -2 0.49128168E-02 0.44785325E+03</pdfrwt>
<totfact> 0.33000044E+03</totfact>
</mgrwt>
</event>
<event>
 4    1  0.6034452E-005  0.7498540E+03  0.7818608E-02  0.9635579E-01
          2   -1    0    0  501    0  0.00000000000E+00  0.00000000000E+00  0.86813417632E+03  0.86813417633E+03  0.25500000000E-02 0.  1.
         -2   -1    0    0    0  501 -0.00000000000E+00 -0.00000000000E+00 -0.16192228722E+03  0.16192228724E+03  0.25500000000E-02 0. -1.
    5000001    1    1    2    0    0  0.79530662225E+02 -0.30860816848E+03  0.26997705533E+03  0.45803464748E+03  0.18800000000E+03 0.  0.
   -5000001    1    1    2    0    0 -0.79530662225E+02  0.30860816848E+03  0.43623483377E+03  0.57202181609E+03  0.18800000000E+03 0.  0.
<mgrwt>
<rscale>  0 0.74985404E+03</rscale>
<asrwt>0</asrwt>
<pdfrwt beam="1">  1        2 0.12401917E+00 0.74985404E+03</pdfrwt>
<pdfrwt beam="2">  1       -2 0.23131755E-01 0.74985404E+03</pdfrwt>
<totfact> 0.56455792E+02</totfact>
</mgrwt>
</event>
<event>
 4    1  0.6034452E-005  0.4456724E+03  0.7818608E-02  0.1029020E+00
          2   -1    0    0  501    0  0.00000000000E+00  0.00000000000E+00  0.41741728383E+02  0.41741728461E+02  0.25500000000E-02 0.  1.
         -2   -1    0    0    0  501 -0.00000000000E+00 -0.00000000000E+00 -0.11896001413E+04  0.11896001413E+04  0.25500000000E-02 0. -1.
    5000001    1    1    2    0    0  0.11060292428E+03 -0.24356622579E+02 -0.68042453492E+03  0.71494601170E+03  0.18800000000E+03 0.  0.
   -5000001    1    1    2    0    0 -0.11060292428E+03  0.24356622579E+02 -0.46743387796E+03  0.51639585803E+03  0.18800000000E+03 0.  0.
<mgrwt>
<rscale>  0 0.44567237E+03</rscale>
<asrwt>0</asrwt>
<pdfrwt beam="1">  1        2 0.59631048E-02 0.44567237E+03</pdfrwt>
<pdfrwt beam="2">  1       -2 0.16994286E+00 0.44567237E+03</pdfrwt>
<totfact> 0.28403832E+02</totfact>
</mgrwt>
</event>
<event>
 4    1  0.6034452E-005  0.1386785E+04  0.7818608E-02  0.8963440E-01
         -2   -1    0    0    0  501 -0.00000000000E+00  0.00000000000E+00  0.12629585263E+04  0.12629585263E+04  0.25500000000E-02 0. -1.
          2   -1    0    0  501    0  0.00000000000E+00 -0.00000000000E+00 -0.38068786305E+03  0.38068786306E+03  0.25500000000E-02 0.  1.
    5000001    1    1    2    0    0 -0.61451685497E+03  0.22617511778E+03  0.59412910731E+03  0.90394664947E+03  0.18800000000E+03 0.  0.
   -5000001    1    1    2    0    0  0.61451685497E+03 -0.22617511778E+03  0.28814155594E+03  0.73969973990E+03  0.18800000000E+03 0.  0.
<mgrwt>
<rscale>  0 0.13867847E+04</rscale>
<asrwt>0</asrwt>
<pdfrwt beam="1">  1        2 0.54383980E-01 0.13867847E+04</pdfrwt>
<pdfrwt beam="2">  1       -2 0.18042265E+00 0.13867847E+04</pdfrwt>
<totfact> 0.16049525E+01</totfact>
</mgrwt>
</event>
<event>
 4    1  0.6034452E-005  0.5493109E+03  0.7818608E-02  0.1001654E+00
         -2   -1    0    0    0  501 -0.00000000000E+00  0.00000000000E+00  0.31264836959E+02  0.31264837063E+02  0.25500000000E-02 0. -1.
          2   -1    0    0  501    0  0.00000000000E+00 -0.00000000000E+00 -0.24127937276E+04  0.24127937276E+04  0.25500000000E-02 0.  1.
    5000001    1    1    2    0    0 -0.15985908871E+03 -0.10496176638E+03 -0.92679942617E+03  0.96481763924E+03  0.18800000000E+03 0.  0.
   -5000001    1    1    2    0    0  0.15985908871E+03  0.10496176638E+03 -0.14547294645E+04  0.14792409254E+04  0.18800000000E+03 0.  0.
<mgrwt>
<rscale>  0 0.54931085E+03</rscale>
<asrwt>0</asrwt>
<pdfrwt beam="1">  1        2 0.34468470E+00 0.54931085E+03</pdfrwt>
<pdfrwt beam="2">  1       -2 0.44664068E-02 0.54931085E+03</pdfrwt>
<totfact> 0.12572899E+03</totfact>
</mgrwt>
</event>
<event>
 4    1  0.6034452E-005  0.5838323E+03  0.7818608E-02  0.9939529E-01
          2   -1    0    0  501    0  0.00000000000E+00  0.00000000000E+00  0.15646245551E+04  0.15646245551E+04  0.25500000000E-02 0.  1.
         -2   -1    0    0    0  501 -0.00000000000E+00 -0.00000000000E+00 -0.54463564956E+02  0.54463565016E+02  0.25500000000E-02 0. -1.
    5000001    1    1    2    0    0  0.16102386603E+03 -0.13634202886E+03  0.95798374103E+03  0.99879661711E+03  0.18800000000E+03 0.  0.
   -5000001    1    1    2    0    0 -0.16102386603E+03  0.13634202886E+03  0.55217724908E+03  0.62029150297E+03  0.18800000000E+03 0.  0.
<mgrwt>
<rscale>  0 0.58383227E+03</rscale>
<asrwt>0</asrwt>
<pdfrwt beam="1">  1        2 0.22351772E+00 0.58383227E+03</pdfrwt>
<pdfrwt beam="2">  1       -2 0.77805118E-02 0.58383227E+03</pdfrwt>
<totfact> 0.14120885E+03</totfact>
</mgrwt>
</event>
<event>
 4    1  0.6034452E-005  0.7727303E+03  0.7818608E-02  0.9600350E-01
         -2   -1    0    0    0  501 -0.00000000000E+00  0.00000000000E+00  0.48375880269E+02  0.48375880337E+02  0.25500000000E-02 0. -1.
          2   -1    0    0  501    0  0.00000000000E+00 -0.00000000000E+00 -0.30857944297E+04  0.30857944297E+04  0.25500000000E-02 0.  1.
    5000001    1    1    2    0    0 -0.15995559107E+03 -0.22761823120E+03 -0.74341234028E+03  0.81572161793E+03  0.18800000000E+03 0.  0.
   -5000001    1    1    2    0    0  0.15995559107E+03  0.22761823120E+03 -0.22940062091E+04  0.23184486921E+04  0.18800000000E+03 0.  0.
<mgrwt>
<rscale>  0 0.77273028E+03</rscale>
<asrwt>0</asrwt>
<pdfrwt beam="1">  1        2 0.44082765E+00 0.77273028E+03</pdfrwt>
<pdfrwt beam="2">  1       -2 0.69108420E-02 0.77273028E+03</pdfrwt>
<totfact> 0.27469178E+02</totfact>
</mgrwt>
</event>
<event>
 4    1  0.6034452E-005  0.4876436E+03  0.7818608E-02  0.1017055E+00
         -2   -1    0    0    0  501 -0.00000000000E+00  0.00000000000E+00  0.30707120606E+02  0.30707120712E+02  0.25500000000E-02 0. -1.
          2   -1    0    0  501    0  0.00000000000E+00 -0.00000000000E+00 -0.19360023711E+04  0.19360023711E+04  0.25500000000E-02 0.  1.
    5000001    1    1    2    0    0 -0.15154343879E+03  0.35243437457E+01 -0.10880551373E+04  0.11145339011E+04  0.18800000000E+03 0.  0.
   -5000001    1    1    2    0    0  0.15154343879E+03 -0.35243437457E+01 -0.81724011319E+03  0.85217559073E+03  0.18800000000E+03 0.  0.
<mgrwt>
<rscale>  0 0.48764355E+03</rscale>
<asrwt>0</asrwt>
<pdfrwt beam="1">  1        2 0.27657169E+00 0.48764355E+03</pdfrwt>
<pdfrwt beam="2">  1       -2 0.43867328E-02 0.48764355E+03</pdfrwt>
<totfact> 0.22493689E+03</totfact>
</mgrwt>
</event>
<event>
 4    1  0.6034452E-005  0.5002825E+03  0.7818608E-02  0.1013705E+00
          2   -1    0    0  501    0  0.00000000000E+00  0.00000000000E+00  0.22672378407E+04  0.22672378407E+04  0.25500000000E-02 0.  1.
         -2   -1    0    0    0  501 -0.00000000000E+00 -0.00000000000E+00 -0.27597747199E+02  0.27597747316E+02  0.25500000000E-02 0. -1.
    5000001    1    1    2    0    0  0.15714925313E+03  0.48408146330E+02  0.11826178979E+04  0.12087052283E+04  0.18800000000E+03 0.  0.
   -5000001    1    1    2    0    0 -0.15714925313E+03 -0.48408146330E+02  0.10570221956E+04  0.10861303598E+04  0.18800000000E+03 0.  0.
<mgrwt>
<rscale>  0 0.50028255E+03</rscale>
<asrwt>0</asrwt>
<pdfrwt beam="1">  1        2 0.32389116E+00 0.50028255E+03</pdfrwt>
<pdfrwt beam="2">  1       -2 0.39425349E-02 0.50028255E+03</pdfrwt>
<totfact> 0.18087002E+03</totfact>
</mgrwt>
</event>
<event>
 4    1  0.6034452E-005  0.4232196E+03  0.7818608E-02  0.1036024E+00
         -2   -1    0    0    0  501 -0.00000000000E+00  0.00000000000E+00  0.41619653586E+02  0.41619653664E+02  0.25500000000E-02 0. -1.
          2   -1    0    0  501    0  0.00000000000E+00 -0.00000000000E+00 -0.10759029818E+04  0.10759029818E+04  0.25500000000E-02 0.  1.
    5000001    1    1    2    0    0 -0.58863131535E+02  0.74840706208E+02 -0.56784457976E+03  0.60568759796E+03  0.18800000000E+03 0.  0.
   -5000001    1    1    2    0    0  0.58863131535E+02 -0.74840706208E+02 -0.46643874844E+03  0.51183503750E+03  0.18800000000E+03 0.  0.
<mgrwt>
<rscale>  0 0.42321961E+03</rscale>
<asrwt>0</asrwt>
<pdfrwt beam="1">  1        2 0.15370041E+00 0.42321961E+03</pdfrwt>
<pdfrwt beam="2">  1       -2 0.59456655E-02 0.42321961E+03</pdfrwt>
<totfact> 0.39674569E+03</totfact>
</mgrwt>
</event>
<event>
 4    1  0.6034452E-005  0.6475227E+03  0.7818608E-02  0.9811439E-01
          2   -1    0    0  501    0  0.00000000000E+00  0.00000000000E+00  0.30298899178E+04  0.30298899178E+04  0.25500000000E-02 0.  1.
         -2   -1    0    0    0  501 -0.00000000000E+00 -0.00000000000E+00 -0.34595781562E+02  0.34595781656E+02  0.25500000000E-02 0. -1.
    5000001    1    1    2    0    0 -0.19984176391E+03 -0.16074754129E+03  0.12097370966E+04  0.12508334604E+04  0.18800000000E+03 0.  0.
   -5000001    1    1    2    0    0  0.19984176391E+03  0.16074754129E+03  0.17855570396E+04  0.18136522391E+04  0.18800000000E+03 0.  0.
<mgrwt>
<rscale>  0 0.64752269E+03</rscale>
<asrwt>0</asrwt>
<pdfrwt beam="1">  1        2 0.43284136E+00 0.64752269E+03</pdfrwt>
<pdfrwt beam="2">  1       -2 0.49422552E-02 0.64752269E+03</pdfrwt>
<totfact> 0.50525827E+02</totfact>
</mgrwt>
</event>
<event>
 4    1  0.6034452E-005  0.4786594E+03  0.7818608E-02  0.1019504E+00
          2   -1    0    0  501    0  0.00000000000E+00  0.00000000000E+00  0.41155794149E+04  0.41155794149E+04  0.25500000000E-02 0.  1.
         -2   -1    0    0    0  501 -0.00000000000E+00 -0.00000000000E+00 -0.13917529698E+02  0.13917529931E+02  0.25500000000E-02 0. -1.
    5000001    1    1    2    0    0 -0.98772620209E+02 -0.87782616106E+02  0.14738463009E+04  0.14916530216E+04  0.18800000000E+03 0.  0.
   -5000001    1    1    2    0    0  0.98772620209E+02  0.87782616106E+02  0.26278155843E+04  0.26378439232E+04  0.18800000000E+03 0.  0.
<mgrwt>
<rscale>  0 0.47865937E+03</rscale>
<asrwt>0</asrwt>
<pdfrwt beam="1">  1        2 0.58794069E+00 0.47865937E+03</pdfrwt>
<pdfrwt beam="2">  1       -2 0.19882159E-02 0.47865937E+03</pdfrwt>
<totfact> 0.45290429E+02</totfact>
</mgrwt>
</event>
<event>
 4    1  0.6034452E-005  0.4661465E+03  0.7818608E-02  0.1023013E+00
         -2   -1    0    0    0  501 -0.00000000000E+00  0.00000000000E+00  0.85149210449E+02  0.85149210488E+02  0.25500000000E-02 0. -1.
          2   -1    0    0  501    0  0.00000000000E+00 -0.00000000000E+00 -0.63797584071E+03  0.63797584071E+03  0.25500000000E-02 0.  1.
    5000001    1    1    2    0    0  0.52994787333E+02  0.91174074596E+02 -0.41392716333E+03  0.46669139257E+03  0.18800000000E+03 0.  0.
   -5000001    1    1    2    0    0 -0.52994787333E+02 -0.91174074596E+02 -0.13889946693E+03  0.25643365863E+03  0.18800000000E+03 0.  0.
<mgrwt>
<rscale>  0 0.46614650E+03</rscale>
<asrwt>0</asrwt>
<pdfrwt beam="1">  1        2 0.91139402E-01 0.46614650E+03</pdfrwt>
<pdfrwt beam="2">  1       -2 0.12164173E-01 0.46614650E+03</pdfrwt>
<totfact> 0.24935792E+03</totfact>
</mgrwt>
</event>
<event>
 4    1  0.6034452E-005  0.5727859E+03  0.7818608E-02  0.9963533E-01
         -2   -1    0    0    0  501 -0.00000000000E+00  0.00000000000E+00  0.10805340563E+03  0.10805340566E+03  0.25500000000E-02 0. -1.
          2   -1    0    0  501    0  0.00000000000E+00 -0.00000000000E+00 -0.75907761968E+03  0.75907761968E+03  0.25500000000E-02 0.  1.
    5000001    1    1    2    0    0  0.21165757038E+03 -0.48034091000E+01 -0.39071325556E+03  0.48251719960E+03  0.18800000000E+03 0.  0.
   -5000001    1    1    2    0    0 -0.21165757038E+03  0.48034091000E+01 -0.26031095849E+03  0.38461382574E+03  0.18800000000E+03 0.  0.
<mgrwt>
<rscale>  0 0.57278590E+03</rscale>
<asrwt>0</asrwt>
<pdfrwt beam="1">  1        2 0.10843966E+00 0.57278590E+03</pdfrwt>
<pdfrwt beam="2">  1       -2 0.15436201E-01 0.57278590E+03</pdfrwt>
<totfact> 0.13586484E+03</totfact>
</mgrwt>
</event>
<event>
 4    1  0.6034452E-005  0.5061384E+03  0.7818608E-02  0.1012189E+00
          2   -1    0    0  501    0  0.00000000000E+00  0.00000000000E+00  0.10651321342E+04  0.10651321342E+04  0.25500000000E-02 0.  1.
         -2   -1    0    0    0  501 -0.00000000000E+00 -0.00000000000E+00 -0.60127778331E+02  0.60127778385E+02  0.25500000000E-02 0. -1.
    5000001    1    1    2    0    0  0.11423753243E+03  0.62779912105E+02  0.26193624995E+03  0.34777310163E+03  0.18800000000E+03 0.  0.
   -5000001    1    1    2    0    0 -0.11423753243E+03 -0.62779912105E+02  0.74306810589E+03  0.77748681093E+03  0.18800000000E+03 0.  0.
<mgrwt>
<rscale>  0 0.50613844E+03</rscale>
<asrwt>0</asrwt>
<pdfrwt beam="1">  1        2 0.15216173E+00 0.50613844E+03</pdfrwt>
<pdfrwt beam="2">  1       -2 0.85896828E-02 0.50613844E+03</pdfrwt>
<totfact> 0.22577865E+03</totfact>
</mgrwt>
</event>
<event>
 4    1  0.6034452E-005  0.1153346E+04  0.7818608E-02  0.9154702E-01
         -2   -1    0    0    0  501 -0.00000000000E+00  0.00000000000E+00  0.17101347608E+03  0.17101347610E+03  0.25500000000E-02 0. -1.
          2   -1    0    0  501    0  0.00000000000E+00 -0.00000000000E+00 -0.19445942161E+04  0.19445942161E+04  0.25500000000E-02 0.  1.
    5000001    1    1    2    0    0 -0.26608639376E+03 -0.46581337335E+03 -0.70872177626E+03  0.90852332049E+03  0.18800000000E+03 0.  0.
   -5000001    1    1    2    0    0  0.26608639376E+03  0.46581337335E+03 -0.10648589638E+04  0.12070843717E+04  0.18800000000E+03 0.  0.
<mgrwt>
<rscale>  0 0.11533461E+04</rscale>
<asrwt>0</asrwt>
<pdfrwt beam="1">  1        2 0.27779916E+00 0.11533461E+04</pdfrwt>
<pdfrwt beam="2">  1       -2 0.24430498E-01 0.11533461E+04</pdfrwt>
<totfact> 0.12687298E+02</totfact>
</mgrwt>
</event>
<event>
 4    1  0.6034452E-005  0.5845374E+03  0.7818608E-02  0.9938016E-01
          2   -1    0    0  501    0  0.00000000000E+00  0.00000000000E+00  0.30346154449E+03  0.30346154450E+03  0.25500000000E-02 0.  1.
         -2   -1    0    0    0  501 -0.00000000000E+00 -0.00000000000E+00 -0.28148865161E+03  0.28148865162E+03  0.25500000000E-02 0. -1.
    5000001    1    1    2    0    0  0.12336011263E+03  0.18439826176E+01 -0.17584266140E+03  0.28545710576E+03  0.18800000000E+03 0.  0.
   -5000001    1    1    2    0    0 -0.12336011263E+03 -0.18439826176E+01  0.19781555428E+03  0.29949309036E+03  0.18800000000E+03 0.  0.
<mgrwt>
<rscale>  0 0.58453736E+03</rscale>
<asrwt>0</asrwt>
<pdfrwt beam="1">  1        2 0.43351649E-01 0.58453736E+03</pdfrwt>
<pdfrwt beam="2">  1       -2 0.40212664E-01 0.58453736E+03</pdfrwt>
<totfact> 0.69299555E+02</totfact>
</mgrwt>
</event>
<event>
 4    1  0.6034452E-005  0.9756375E+03  0.7818608E-02  0.9335676E-01
         -2   -1    0    0    0  501 -0.00000000000E+00  0.00000000000E+00  0.14308037455E+03  0.14308037457E+03  0.25500000000E-02 0. -1.
          2   -1    0    0  501    0  0.00000000000E+00 -0.00000000000E+00 -0.16631711873E+04  0.16631711873E+04  0.25500000000E-02 0.  1.
    5000001    1    1    2    0    0 -0.13543649710E+03 -0.41952327822E+03 -0.59157889954E+03  0.76134907900E+03  0.18800000000E+03 0.  0.
   -5000001    1    1    2    0    0  0.13543649710E+03  0.41952327822E+03 -0.92851191318E+03  0.10449024828E+04  0.18800000000E+03 0.  0.
<mgrwt>
<rscale>  0 0.97563755E+03</rscale>
<asrwt>0</asrwt>
<pdfrwt beam="1">  1        2 0.23759587E+00 0.97563755E+03</pdfrwt>
<pdfrwt beam="2">  1       -2 0.20440055E-01 0.97563755E+03</pdfrwt>
<totfact> 0.24618531E+02</totfact>
</mgrwt>
</event>
<event>
 4    1  0.6034452E-005  0.3902015E+03  0.7818608E-02  0.1047226E+00
          2   -1    0    0  501    0  0.00000000000E+00  0.00000000000E+00  0.46900881292E+03  0.46900881292E+03  0.25500000000E-02 0.  1.
         -2   -1    0    0    0  501 -0.00000000000E+00 -0.00000000000E+00 -0.81159017832E+02  0.81159017872E+02  0.25500000000E-02 0. -1.
    5000001    1    1    2    0    0  0.42925132687E+02 -0.18361767143E+02  0.16114304250E+03  0.25197381145E+03  0.18800000000E+03 0.  0.
   -5000001    1    1    2    0    0 -0.42925132687E+02  0.18361767143E+02  0.22670675258E+03  0.29819401935E+03  0.18800000000E+03 0.  0.
<mgrwt>
<rscale>  0 0.39020146E+03</rscale>
<asrwt>0</asrwt>
<pdfrwt beam="1">  1        2 0.67001257E-01 0.39020146E+03</pdfrwt>
<pdfrwt beam="2">  1       -2 0.11594146E-01 0.39020146E+03</pdfrwt>
<totfact> 0.38242441E+03</totfact>
</mgrwt>
</event>
<event>
 4    1  0.6034452E-005  0.9066302E+03  0.7818608E-02  0.9417331E-01
         -2   -1    0    0    0  501 -0.00000000000E+00  0.00000000000E+00  0.72854688337E+02  0.72854688382E+02  0.25500000000E-02 0. -1.
          2   -1    0    0  501    0  0.00000000000E+00 -0.00000000000E+00 -0.28206088224E+04  0.28206088224E+04  0.25500000000E-02 0.  1.
    5000001    1    1    2    0    0 -0.55241702361E+02  0.31329217289E+03 -0.53587450368E+03  0.65092942395E+03  0.18800000000E+03 0.  0.
   -5000001    1    1    2    0    0  0.55241702361E+02 -0.31329217289E+03 -0.22118796304E+04  0.22425340868E+04  0.18800000000E+03 0.  0.
<mgrwt>
<rscale>  0 0.90663019E+03</rscale>
<asrwt>0</asrwt>
<pdfrwt beam="1">  1        2 0.40294405E+00 0.90663019E+03</pdfrwt>
<pdfrwt beam="2">  1       -2 0.10407814E-01 0.90663019E+03</pdfrwt>
<totfact> 0.19572384E+02</totfact>
</mgrwt>
</event>
<event>
 4    1  0.6034452E-005  0.5910494E+03  0.7818608E-02  0.9924152E-01
          2   -1    0    0  501    0  0.00000000000E+00  0.00000000000E+00  0.31360925862E+04  0.31360925862E+04  0.25500000000E-02 0.  1.
         -2   -1    0    0    0  501 -0.00000000000E+00 -0.00000000000E+00 -0.27848296573E+02  0.27848296690E+02  0.25500000000E-02 0. -1.
    5000001    1    1    2    0    0 -0.15407386129E+01  0.13415620066E+03  0.56719777229E+03  0.61241944200E+03  0.18800000000E+03 0.  0.
   -5000001    1    1    2    0    0  0.15407386129E+01 -0.13415620066E+03  0.25410465173E+04  0.25515214409E+04  0.18800000000E+03 0.  0.
<mgrwt>
<rscale>  0 0.59104936E+03</rscale>
<asrwt>0</asrwt>
<pdfrwt beam="1">  1        2 0.44801334E+00 0.59104936E+03</pdfrwt>
<pdfrwt beam="2">  1       -2 0.39783271E-02 0.59104936E+03</pdfrwt>
<totfact> 0.62064344E+02</totfact>
</mgrwt>
</event>
<event>
 4    1  0.6034452E-005  0.1050785E+04  0.7818608E-02  0.9254534E-01
          2   -1    0    0  501    0  0.00000000000E+00  0.00000000000E+00  0.21135851615E+04  0.21135851615E+04  0.25500000000E-02 0.  1.
         -2   -1    0    0    0  501 -0.00000000000E+00 -0.00000000000E+00 -0.13060134139E+03  0.13060134141E+03  0.25500000000E-02 0. -1.
    5000001    1    1    2    0    0 -0.16080927854E+03  0.43773762041E+03  0.13169304367E+04  0.14096537246E+04  0.18800000000E+03 0.  0.
   -5000001    1    1    2    0    0  0.16080927854E+03 -0.43773762041E+03  0.66605338343E+03  0.83453277825E+03  0.18800000000E+03 0.  0.
<mgrwt>
<rscale>  0 0.10507846E+04</rscale>
<asrwt>0</asrwt>
<pdfrwt beam="1">  1        2 0.30194072E+00 0.10507846E+04</pdfrwt>
<pdfrwt beam="2">  1       -2 0.18657335E-01 0.10507846E+04</pdfrwt>
<totfact> 0.16889306E+02</totfact>
</mgrwt>
</event>
<event>
 4    1  0.6034452E-005  0.6047184E+03  0.7818608E-02  0.9895665E-01
         -2   -1    0    0    0  501 -0.00000000000E+00  0.00000000000E+00  0.15535747549E+03  0.15535747551E+03  0.25500000000E-02 0. -1.
          2   -1    0    0  501    0  0.00000000000E+00 -0.00000000000E+00 -0.58845625440E+03  0.58845625440E+03  0.25500000000E-02 0.  1.
    5000001    1    1    2    0    0 -0.79957019449E+02  0.18172639690E+03 -0.37530958091E+03  0.46434781125E+03  0.18800000000E+03 0.  0.
   -5000001    1    1    2    0    0  0.79957019449E+02 -0.18172639690E+03 -0.57789197989E+02  0.27946591866E+03  0.18800000000E+03 0.  0.
<mgrwt>
<rscale>  0 0.60471837E+03</rscale>
<asrwt>0</asrwt>
<pdfrwt beam="1">  1        2 0.84065178E-01 0.60471837E+03</pdfrwt>
<pdfrwt beam="2">  1       -2 0.22193925E-01 0.60471837E+03</pdfrwt>
<totfact> 0.98776437E+02</totfact>
</mgrwt>
</event>
<event>
 4    1  0.6034452E-005  0.6578307E+03  0.7818608E-02  0.9792195E-01
         -2   -1    0    0    0  501 -0.00000000000E+00  0.00000000000E+00  0.70275567217E+02  0.70275567263E+02  0.25500000000E-02 0. -1.
          2   -1    0    0  501    0  0.00000000000E+00 -0.00000000000E+00 -0.15394442012E+04  0.15394442012E+04  0.25500000000E-02 0.  1.
    5000001    1    1    2    0    0 -0.15693995710E+03 -0.21939724701E+03 -0.71325002631E+03  0.78538837664E+03  0.18800000000E+03 0.  0.
   -5000001    1    1    2    0    0  0.15693995710E+03  0.21939724701E+03 -0.75591860772E+03  0.82433139187E+03  0.18800000000E+03 0.  0.
<mgrwt>
<rscale>  0 0.65783072E+03</rscale>
<asrwt>0</asrwt>
<pdfrwt beam="1">  1        2 0.21992058E+00 0.65783072E+03</pdfrwt>
<pdfrwt beam="2">  1       -2 0.10039368E-01 0.65783072E+03</pdfrwt>
<totfact> 0.96328335E+02</totfact>
</mgrwt>
</event>
<event>
 4    1  0.6034452E-005  0.5484835E+03  0.7818608E-02  0.1001846E+00
         -2   -1    0    0    0  501 -0.00000000000E+00  0.00000000000E+00  0.10442927807E+03  0.10442927811E+03  0.25500000000E-02 0. -1.
          2   -1    0    0  501    0  0.00000000000E+00 -0.00000000000E+00 -0.72018640538E+03  0.72018640539E+03  0.25500000000E-02 0.  1.
    5000001    1    1    2    0    0  0.49095240668E+02  0.18349140924E+03 -0.21538169122E+03  0.34323856548E+03  0.18800000000E+03 0.  0.
   -5000001    1    1    2    0    0 -0.49095240668E+02 -0.18349140924E+03 -0.40037543609E+03  0.48137711801E+03  0.18800000000E+03 0.  0.
<mgrwt>
<rscale>  0 0.54848353E+03</rscale>
<asrwt>0</asrwt>
<pdfrwt beam="1">  1        2 0.10288377E+00 0.54848353E+03</pdfrwt>
<pdfrwt beam="2">  1       -2 0.14918469E-01 0.54848353E+03</pdfrwt>
<totfact> 0.15363228E+03</totfact>
</mgrwt>
</event>
<event>
 4    1  0.6034452E-005  0.1500588E+04  0.7818608E-02  0.8884062E-01
          2   -1    0    0  501    0  0.00000000000E+00  0.00000000000E+00  0.31189425468E+04  0.31189425468E+04  0.25500000000E-02 0.  1.
         -2   -1    0    0    0  501 -0.00000000000E+00 -0.00000000000E+00 -0.18049098831E+03  0.18049098833E+03  0.25500000000E-02 0. -1.
    5000001    1    1    2    0    0  0.19027362092E+03 -0.37495839676E+03  0.27715143223E+04  0.28095254917E+04  0.18800000000E+03 0.  0.
   -5000001    1    1    2    0    0 -0.19027362092E+03  0.37495839676E+03  0.16693723617E+03  0.48990804335E+03  0.18800000000E+03 0.  0.
<mgrwt>
<rscale>  0 0.15005879E+04</rscale>
<asrwt>0</asrwt>
<pdfrwt beam="1">  1        2 0.44556321E+00 0.15005879E+04</pdfrwt>
<pdfrwt beam="2">  1       -2 0.25784428E-01 0.15005879E+04</pdfrwt>
<totfact> 0.26664228E+01</totfact>
</mgrwt>
</event>
<event>
 4    1  0.6034452E-005  0.7186532E+03  0.7818608E-02  0.9685854E-01
         -2   -1    0    0    0  501 -0.00000000000E+00  0.00000000000E+00  0.70191670121E+02  0.70191670167E+02  0.25500000000E-02 0. -1.
          2   -1    0    0  501    0  0.00000000000E+00 -0.00000000000E+00 -0.18394721303E+04  0.18394721304E+04  0.25500000000E-02 0.  1.
    5000001    1    1    2    0    0  0.24846922065E+03 -0.17888351052E+03 -0.90044090538E+03  0.96947103517E+03  0.18800000000E+03 0.  0.
   -5000001    1    1    2    0    0 -0.24846922065E+03  0.17888351052E+03 -0.86883955485E+03  0.94019276535E+03  0.18800000000E+03 0.  0.
<mgrwt>
<rscale>  0 0.71865324E+03</rscale>
<asrwt>0</asrwt>
<pdfrwt beam="1">  1        2 0.26278170E+00 0.71865324E+03</pdfrwt>
<pdfrwt beam="2">  1       -2 0.10027383E-01 0.71865324E+03</pdfrwt>
<totfact> 0.67545222E+02</totfact>
</mgrwt>
</event>
<event>
 4    1  0.6034452E-005  0.7191299E+03  0.7818608E-02  0.9685065E-01
         -2   -1    0    0    0  501 -0.00000000000E+00  0.00000000000E+00  0.57723599442E+03  0.57723599443E+03  0.25500000000E-02 0. -1.
          2   -1    0    0  501    0  0.00000000000E+00 -0.00000000000E+00 -0.22397589675E+03  0.22397589677E+03  0.25500000000E-02 0.  1.
    5000001    1    1    2    0    0 -0.82380064655E+01 -0.27647473175E+03  0.29509433648E+02  0.33573940597E+03  0.18800000000E+03 0.  0.
   -5000001    1    1    2    0    0  0.82380064655E+01  0.27647473175E+03  0.32375066402E+03  0.46547248522E+03  0.18800000000E+03 0.  0.
<mgrwt>
<rscale>  0 0.71912989E+03</rscale>
<asrwt>0</asrwt>
<pdfrwt beam="1">  1        2 0.31996557E-01 0.71912989E+03</pdfrwt>
<pdfrwt beam="2">  1       -2 0.82462284E-01 0.71912989E+03</pdfrwt>
<totfact> 0.21555832E+02</totfact>
</mgrwt>
</event>
<event>
 4    1  0.6034452E-005  0.7253156E+03  0.7818608E-02  0.9674892E-01
         -2   -1    0    0    0  501 -0.00000000000E+00  0.00000000000E+00  0.37586525440E+02  0.37586525527E+02  0.25500000000E-02 0. -1.
          2   -1    0    0  501    0  0.00000000000E+00 -0.00000000000E+00 -0.34991442599E+04  0.34991442599E+04  0.25500000000E-02 0.  1.
    5000001    1    1    2    0    0  0.45660025139E+02 -0.27056974444E+03 -0.10261177965E+04  0.10786818608E+04  0.18800000000E+03 0.  0.
   -5000001    1    1    2    0    0 -0.45660025139E+02  0.27056974444E+03 -0.24354399379E+04  0.24580489246E+04  0.18800000000E+03 0.  0.
<mgrwt>
<rscale>  0 0.72531559E+03</rscale>
<asrwt>0</asrwt>
<pdfrwt beam="1">  1        2 0.49987754E+00 0.72531559E+03</pdfrwt>
<pdfrwt beam="2">  1       -2 0.53695059E-02 0.72531559E+03</pdfrwt>
<totfact> 0.23765196E+02</totfact>
</mgrwt>
</event>
<event>
 4    1  0.6034452E-005  0.5250958E+03  0.7818608E-02  0.1007428E+00
          2   -1    0    0  501    0  0.00000000000E+00  0.00000000000E+00  0.33827146016E+02  0.33827146112E+02  0.25500000000E-02 0.  1.
         -2   -1    0    0    0  501 -0.00000000000E+00 -0.00000000000E+00 -0.20377536094E+04  0.20377536094E+04  0.25500000000E-02 0. -1.
    5000001    1    1    2    0    0 -0.37282494436E+01 -0.17082277926E+03 -0.74047792968E+03  0.78284473946E+03  0.18800000000E+03 0.  0.
   -5000001    1    1    2    0    0  0.37282494436E+01  0.17082277926E+03 -0.12634485337E+04  0.12887360161E+04  0.18800000000E+03 0.  0.
<mgrwt>
<rscale>  0 0.52509576E+03</rscale>
<asrwt>0</asrwt>
<pdfrwt beam="1">  1        2 0.48324507E-02 0.52509576E+03</pdfrwt>
<pdfrwt beam="2">  1       -2 0.29110758E+00 0.52509576E+03</pdfrwt>
<totfact> 0.66106173E+01</totfact>
</mgrwt>
</event>
<event>
 4    1  0.6034452E-005  0.5378233E+03  0.7818608E-02  0.1004352E+00
         -2   -1    0    0    0  501 -0.00000000000E+00  0.00000000000E+00  0.81099959008E+02  0.81099959048E+02  0.25500000000E-02 0. -1.
          2   -1    0    0  501    0  0.00000000000E+00 -0.00000000000E+00 -0.89165871335E+03  0.89165871335E+03  0.25500000000E-02 0.  1.
    5000001    1    1    2    0    0 -0.88834185701E+02  0.12242813016E+03 -0.61996876167E+03  0.66527094109E+03  0.18800000000E+03 0.  0.
   -5000001    1    1    2    0    0  0.88834185701E+02 -0.12242813016E+03 -0.19058999267E+03  0.30748773132E+03  0.18800000000E+03 0.  0.
<mgrwt>
<rscale>  0 0.53782334E+03</rscale>
<asrwt>0</asrwt>
<pdfrwt beam="1">  1        2 0.12737981E+00 0.53782334E+03</pdfrwt>
<pdfrwt beam="2">  1       -2 0.11585709E-01 0.53782334E+03</pdfrwt>
<totfact> 0.17790918E+03</totfact>
</mgrwt>
</event>
<event>
 4    1  0.6034452E-005  0.4771926E+03  0.7818608E-02  0.1019910E+00
          2   -1    0    0  501    0  0.00000000000E+00  0.00000000000E+00  0.77482271447E+03  0.77482271448E+03  0.25500000000E-02 0.  1.
         -2   -1    0    0    0  501 -0.00000000000E+00 -0.00000000000E+00 -0.73472545468E+02  0.73472545512E+02  0.25500000000E-02 0. -1.
    5000001    1    1    2    0    0  0.11540018651E+02  0.11891774446E+03  0.50265982687E+03  0.54980496863E+03  0.18800000000E+03 0.  0.
   -5000001    1    1    2    0    0 -0.11540018651E+02 -0.11891774446E+03  0.19869034213E+03  0.29849029136E+03  0.18800000000E+03 0.  0.
<mgrwt>
<rscale>  0 0.47719261E+03</rscale>
<asrwt>0</asrwt>
<pdfrwt beam="1">  1        2 0.11068895E+00 0.47719261E+03</pdfrwt>
<pdfrwt beam="2">  1       -2 0.10496079E-01 0.47719261E+03</pdfrwt>
<totfact> 0.25037754E+03</totfact>
</mgrwt>
</event>
<event>
 4    1  0.6034452E-005  0.6917632E+03  0.7818608E-02  0.9731423E-01
          2   -1    0    0  501    0  0.00000000000E+00  0.00000000000E+00  0.65579878064E+03  0.65579878064E+03  0.25500000000E-02 0.  1.
         -2   -1    0    0    0  501 -0.00000000000E+00 -0.00000000000E+00 -0.18242498804E+03  0.18242498806E+03  0.25500000000E-02 0. -1.
    5000001    1    1    2    0    0 -0.24828791454E+03 -0.13514591532E+03  0.31686928009E+03  0.46439363432E+03  0.18800000000E+03 0.  0.
   -5000001    1    1    2    0    0  0.24828791454E+03  0.13514591532E+03  0.15650451251E+03  0.37383013438E+03  0.18800000000E+03 0.  0.
<mgrwt>
<rscale>  0 0.69176321E+03</rscale>
<asrwt>0</asrwt>
<pdfrwt beam="1">  1        2 0.93685540E-01 0.69176321E+03</pdfrwt>
<pdfrwt beam="2">  1       -2 0.26060713E-01 0.69176321E+03</pdfrwt>
<totfact> 0.65043660E+02</totfact>
</mgrwt>
</event>
<event>
 4    1  0.6034452E-005  0.5086979E+03  0.7818608E-02  0.1011533E+00
         -2   -1    0    0    0  501 -0.00000000000E+00  0.00000000000E+00  0.97039782339E+02  0.97039782372E+02  0.25500000000E-02 0. -1.
          2   -1    0    0  501    0  0.00000000000E+00 -0.00000000000E+00 -0.66666868741E+03  0.66666868742E+03  0.25500000000E-02 0.  1.
    5000001    1    1    2    0    0 -0.14986287565E+03  0.57811038012E+02 -0.19538446948E+03  0.31515089803E+03  0.18800000000E+03 0.  0.
   -5000001    1    1    2    0    0  0.14986287565E+03 -0.57811038012E+02 -0.37424443559E+03  0.44855757176E+03  0.18800000000E+03 0.  0.
<mgrwt>
<rscale>  0 0.50869788E+03</rscale>
<asrwt>0</asrwt>
<pdfrwt beam="1">  1        2 0.95238381E-01 0.50869788E+03</pdfrwt>
<pdfrwt beam="2">  1       -2 0.13862826E-01 0.50869788E+03</pdfrwt>
<totfact> 0.19077516E+03</totfact>
</mgrwt>
</event>
<event>
 4    1  0.6034452E-005  0.5987889E+03  0.7818608E-02  0.9907922E-01
         -2   -1    0    0    0  501 -0.00000000000E+00  0.00000000000E+00  0.18521354541E+03  0.18521354543E+03  0.25500000000E-02 0. -1.
          2   -1    0    0  501    0  0.00000000000E+00 -0.00000000000E+00 -0.48396593723E+03  0.48396593723E+03  0.25500000000E-02 0.  1.
    5000001    1    1    2    0    0 -0.31725264467E+02 -0.11961781795E+03 -0.37001371391E+03  0.43309244193E+03  0.18800000000E+03 0.  0.
   -5000001    1    1    2    0    0  0.31725264467E+02  0.11961781795E+03  0.71261322095E+02  0.23608704073E+03  0.18800000000E+03 0.  0.
<mgrwt>
<rscale>  0 0.59878893E+03</rscale>
<asrwt>0</asrwt>
<pdfrwt beam="1">  1        2 0.69137990E-01 0.59878893E+03</pdfrwt>
<pdfrwt beam="2">  1       -2 0.26459078E-01 0.59878893E+03</pdfrwt>
<totfact> 0.90349249E+02</totfact>
</mgrwt>
</event>
<event>
 4    1  0.6034452E-005  0.4655319E+03  0.7818608E-02  0.1023189E+00
         -2   -1    0    0    0  501 -0.00000000000E+00  0.00000000000E+00  0.25717820473E+02  0.25717820600E+02  0.25500000000E-02 0. -1.
          2   -1    0    0  501    0  0.00000000000E+00 -0.00000000000E+00 -0.21067101492E+04  0.21067101492E+04  0.25500000000E-02 0.  1.
    5000001    1    1    2    0    0 -0.48788490153E+01 -0.13172246244E+03 -0.12156045584E+04  0.12370986431E+04  0.18800000000E+03 0.  0.
   -5000001    1    1    2    0    0  0.48788490153E+01  0.13172246244E+03 -0.86538777036E+03  0.89532932676E+03  0.18800000000E+03 0.  0.
<mgrwt>
<rscale>  0 0.46553193E+03</rscale>
<asrwt>0</asrwt>
<pdfrwt beam="1">  1        2 0.30095848E+00 0.46553193E+03</pdfrwt>
<pdfrwt beam="2">  1       -2 0.36739757E-02 0.46553193E+03</pdfrwt>
<totfact> 0.24269885E+03</totfact>
</mgrwt>
</event>
<event>
 4    1  0.6034452E-005  0.1225328E+04  0.7818608E-02  0.9090971E-01
          2   -1    0    0  501    0  0.00000000000E+00  0.00000000000E+00  0.46094862329E+03  0.46094862330E+03  0.25500000000E-02 0.  1.
         -2   -1    0    0    0  501 -0.00000000000E+00 -0.00000000000E+00 -0.81431512995E+03  0.81431512995E+03  0.25500000000E-02 0. -1.
    5000001    1    1    2    0    0 -0.16258085369E+03 -0.22308546067E+03  0.35787648606E+03  0.48950917869E+03  0.18800000000E+03 0.  0.
   -5000001    1    1    2    0    0  0.16258085369E+03  0.22308546067E+03 -0.71124299272E+03  0.78575457456E+03  0.18800000000E+03 0.  0.
<mgrwt>
<rscale>  0 0.12253284E+04</rscale>
<asrwt>0</asrwt>
<pdfrwt beam="1">  1        2 0.65849804E-01 0.12253284E+04</pdfrwt>
<pdfrwt beam="2">  1       -2 0.11633073E+00 0.12253284E+04</pdfrwt>
<totfact> 0.41651824E+01</totfact>
</mgrwt>
</event>
<event>
 4    1  0.6034452E-005  0.6846252E+03  0.7818608E-02  0.9743892E-01
          2   -1    0    0  501    0  0.00000000000E+00  0.00000000000E+00  0.48317952028E+03  0.48317952028E+03  0.25500000000E-02 0.  1.
         -2   -1    0    0    0  501 -0.00000000000E+00 -0.00000000000E+00 -0.24251426278E+03  0.24251426280E+03  0.25500000000E-02 0. -1.
    5000001    1    1    2    0    0 -0.19442103402E+03  0.60383961818E+02 -0.92690892729E+02  0.29220089478E+03  0.18800000000E+03 0.  0.
   -5000001    1    1    2    0    0  0.19442103402E+03 -0.60383961818E+02  0.33335615022E+03  0.43349288830E+03  0.18800000000E+03 0.  0.
<mgrwt>
<rscale>  0 0.68462523E+03</rscale>
<asrwt>0</asrwt>
<pdfrwt beam="1">  1        2 0.69025645E-01 0.68462523E+03</pdfrwt>
<pdfrwt beam="2">  1       -2 0.34644895E-01 0.68462523E+03</pdfrwt>
<totfact> 0.54846605E+02</totfact>
</mgrwt>
</event>
<event>
 4    1  0.6034452E-005  0.4420405E+03  0.7818608E-02  0.1030123E+00
         -2   -1    0    0    0  501 -0.00000000000E+00  0.00000000000E+00  0.44683405103E+02  0.44683405176E+02  0.25500000000E-02 0. -1.
          2   -1    0    0  501    0  0.00000000000E+00 -0.00000000000E+00 -0.10932457069E+04  0.10932457069E+04  0.25500000000E-02 0.  1.
    5000001    1    1    2    0    0  0.24383265128E+02 -0.11342592090E+03 -0.54173263211E+03  0.58504549212E+03  0.18800000000E+03 0.  0.
   -5000001    1    1    2    0    0 -0.24383265128E+02  0.11342592090E+03 -0.50682966970E+03  0.55288361998E+03  0.18800000000E+03 0.  0.
<mgrwt>
<rscale>  0 0.44204045E+03</rscale>
<asrwt>0</asrwt>
<pdfrwt beam="1">  1        2 0.15617794E+00 0.44204045E+03</pdfrwt>
<pdfrwt beam="2">  1       -2 0.63833442E-02 0.44204045E+03</pdfrwt>
<totfact> 0.34722381E+03</totfact>
</mgrwt>
</event>
<event>
 4    1  0.6034452E-005  0.4769397E+03  0.7818608E-02  0.1019980E+00
          2   -1    0    0  501    0  0.00000000000E+00  0.00000000000E+00  0.16243996942E+04  0.16243996942E+04  0.25500000000E-02 0.  1.
         -2   -1    0    0    0  501 -0.00000000000E+00 -0.00000000000E+00 -0.35008547832E+02  0.35008547925E+02  0.25500000000E-02 0. -1.
    5000001    1    1    2    0    0  0.11095232925E+03  0.15068263612E+02  0.11245198990E+04  0.11456118345E+04  0.18800000000E+03 0.  0.
   -5000001    1    1    2    0    0 -0.11095232925E+03 -0.15068263612E+02  0.46487124736E+03  0.51379640769E+03  0.18800000000E+03 0.  0.
<mgrwt>
<rscale>  0 0.47693972E+03</rscale>
<asrwt>0</asrwt>
<pdfrwt beam="1">  1        2 0.23205718E+00 0.47693972E+03</pdfrwt>
<pdfrwt beam="2">  1       -2 0.50012194E-02 0.47693972E+03</pdfrwt>
<totfact> 0.26367737E+03</totfact>
</mgrwt>
</event>
<event>
 4    1  0.6034452E-005  0.6957970E+03  0.7818608E-02  0.9724447E-01
         -2   -1    0    0    0  501 -0.00000000000E+00  0.00000000000E+00  0.98918993605E+02  0.98918993637E+02  0.25500000000E-02 0. -1.
          2   -1    0    0  501    0  0.00000000000E+00 -0.00000000000E+00 -0.12235603909E+04  0.12235603909E+04  0.25500000000E-02 0.  1.
    5000001    1    1    2    0    0 -0.16989404149E+03 -0.19609533781E+03 -0.30469775824E+03  0.44215618363E+03  0.18800000000E+03 0.  0.
   -5000001    1    1    2    0    0  0.16989404149E+03  0.19609533781E+03 -0.81994363907E+03  0.88032320093E+03  0.18800000000E+03 0.  0.
<mgrwt>
<rscale>  0 0.69579699E+03</rscale>
<asrwt>0</asrwt>
<pdfrwt beam="1">  1        2 0.17479433E+00 0.69579699E+03</pdfrwt>
<pdfrwt beam="2">  1       -2 0.14131286E-01 0.69579699E+03</pdfrwt>
<totfact> 0.80851094E+02</totfact>
</mgrwt>
</event>
<event>
 4    1  0.6034452E-005  0.1823345E+04  0.7818608E-02  0.8693982E-01
         -2   -1    0    0    0  501 -0.00000000000E+00  0.00000000000E+00  0.29992755192E+03  0.29992755193E+03  0.25500000000E-02 0. -1.
          2   -1    0    0  501    0  0.00000000000E+00 -0.00000000000E+00 -0.27711590527E+04  0.27711590527E+04  0.25500000000E-02 0.  1.
    5000001    1    1    2    0    0 -0.49614033228E+03  0.58632667707E+03 -0.47139579653E+03  0.92059339479E+03  0.18800000000E+03 0.  0.
   -5000001    1    1    2    0    0  0.49614033228E+03 -0.58632667707E+03 -0.19998357043E+04  0.21504932099E+04  0.18800000000E+03 0.  0.
<mgrwt>
<rscale>  0 0.18233452E+04</rscale>
<asrwt>0</asrwt>
<pdfrwt beam="1">  1        2 0.39587985E+00 0.18233452E+04</pdfrwt>
<pdfrwt beam="2">  1       -2 0.42846795E-01 0.18233452E+04</pdfrwt>
<totfact> 0.15414181E+01</totfact>
</mgrwt>
</event>
<event>
 4    1  0.6034452E-005  0.5590028E+03  0.7818608E-02  0.9994313E-01
         -2   -1    0    0    0  501 -0.00000000000E+00  0.00000000000E+00  0.40927374243E+02  0.40927374323E+02  0.25500000000E-02 0. -1.
          2   -1    0    0  501    0  0.00000000000E+00 -0.00000000000E+00 -0.19087724996E+04  0.19087724996E+04  0.25500000000E-02 0.  1.
    5000001    1    1    2    0    0  0.86152394813E+02  0.18248747109E+03 -0.10919608878E+04  0.11262532987E+04  0.18800000000E+03 0.  0.
   -5000001    1    1    2    0    0 -0.86152394813E+02 -0.18248747109E+03 -0.77588423750E+03  0.82344657521E+03  0.18800000000E+03 0.  0.
<mgrwt>
<rscale>  0 0.55900285E+03</rscale>
<asrwt>0</asrwt>
<pdfrwt beam="1">  1        2 0.27268173E+00 0.55900285E+03</pdfrwt>
<pdfrwt beam="2">  1       -2 0.58467689E-02 0.55900285E+03</pdfrwt>
<totfact> 0.14834844E+03</totfact>
</mgrwt>
</event>
<event>
 4    1  0.6034452E-005  0.4588665E+03  0.7818608E-02  0.1025110E+00
         -2   -1    0    0    0  501 -0.00000000000E+00  0.00000000000E+00  0.36410049185E+02  0.36410049274E+02  0.25500000000E-02 0. -1.
          2   -1    0    0  501    0  0.00000000000E+00 -0.00000000000E+00 -0.14457439736E+04  0.14457439736E+04  0.25500000000E-02 0.  1.
    5000001    1    1    2    0    0 -0.71222571806E+02 -0.10682717783E+03 -0.61268705529E+03  0.65361619348E+03  0.18800000000E+03 0.  0.
   -5000001    1    1    2    0    0  0.71222571806E+02  0.10682717783E+03 -0.79664686915E+03  0.82853782942E+03  0.18800000000E+03 0.  0.
<mgrwt>
<rscale>  0 0.45886647E+03</rscale>
<asrwt>0</asrwt>
<pdfrwt beam="1">  1        2 0.20653482E+00 0.45886647E+03</pdfrwt>
<pdfrwt beam="2">  1       -2 0.52014365E-02 0.45886647E+03</pdfrwt>
<totfact> 0.30667365E+03</totfact>
</mgrwt>
</event>
<event>
 4    1  0.6034452E-005  0.7905722E+03  0.7818608E-02  0.9573765E-01
          2   -1    0    0  501    0  0.00000000000E+00  0.00000000000E+00  0.72209707748E+03  0.72209707748E+03  0.25500000000E-02 0.  1.
         -2   -1    0    0    0  501 -0.00000000000E+00 -0.00000000000E+00 -0.21638519735E+03  0.21638519737E+03  0.25500000000E-02 0. -1.
    5000001    1    1    2    0    0  0.26740544780E+03  0.21103713373E+03  0.33565317142E+03  0.51385737010E+03  0.18800000000E+03 0.  0.
   -5000001    1    1    2    0    0 -0.26740544780E+03 -0.21103713373E+03  0.17005870870E+03  0.42462490475E+03  0.18800000000E+03 0.  0.
<mgrwt>
<rscale>  0 0.79057224E+03</rscale>
<asrwt>0</asrwt>
<pdfrwt beam="1">  1        2 0.10315672E+00 0.79057224E+03</pdfrwt>
<pdfrwt beam="2">  1       -2 0.30912171E-01 0.79057224E+03</pdfrwt>
<totfact> 0.42106209E+02</totfact>
</mgrwt>
</event>
<event>
 4    1  0.6034452E-005  0.4209732E+03  0.7818608E-02  0.1036750E+00
         -2   -1    0    0    0  501 -0.00000000000E+00  0.00000000000E+00  0.21856368128E+02  0.21856368276E+02  0.25500000000E-02 0. -1.
          2   -1    0    0  501    0  0.00000000000E+00 -0.00000000000E+00 -0.20270804752E+04  0.20270804752E+04  0.25500000000E-02 0.  1.
    5000001    1    1    2    0    0 -0.16815591188E+02  0.90835611335E+02 -0.90206757488E+03  0.92606899422E+03  0.18800000000E+03 0.  0.
   -5000001    1    1    2    0    0  0.16815591188E+02 -0.90835611335E+02 -0.11031565322E+04  0.11228678493E+04  0.18800000000E+03 0.  0.
<mgrwt>
<rscale>  0 0.42097324E+03</rscale>
<asrwt>0</asrwt>
<pdfrwt beam="1">  1        2 0.28958281E+00 0.42097324E+03</pdfrwt>
<pdfrwt beam="2">  1       -2 0.31223396E-02 0.42097324E+03</pdfrwt>
<totfact> 0.34067571E+03</totfact>
</mgrwt>
</event>
<event>
 4    1  0.6034452E-005  0.7832999E+03  0.7818608E-02  0.9584509E-01
         -2   -1    0    0    0  501 -0.00000000000E+00  0.00000000000E+00  0.11530251121E+03  0.11530251124E+03  0.25500000000E-02 0. -1.
          2   -1    0    0  501    0  0.00000000000E+00 -0.00000000000E+00 -0.13303239422E+04  0.13303239422E+04  0.25500000000E-02 0.  1.
    5000001    1    1    2    0    0 -0.77471916415E+02 -0.16753356446E+03 -0.11423291491E+04  0.11723179082E+04  0.18800000000E+03 0.  0.
   -5000001    1    1    2    0    0  0.77471916415E+02  0.16753356446E+03 -0.72692281922E+02  0.27330854525E+03  0.18800000000E+03 0.  0.
<mgrwt>
<rscale>  0 0.78329992E+03</rscale>
<asrwt>0</asrwt>
<pdfrwt beam="1">  1        2 0.19004627E+00 0.78329992E+03</pdfrwt>
<pdfrwt beam="2">  1       -2 0.16471788E-01 0.78329992E+03</pdfrwt>
<totfact> 0.54263594E+02</totfact>
</mgrwt>
</event>
<event>
 4    1  0.6034452E-005  0.6352584E+03  0.7818608E-02  0.9834841E-01
         -2   -1    0    0    0  501 -0.00000000000E+00  0.00000000000E+00  0.71316851608E+02  0.71316851654E+02  0.25500000000E-02 0. -1.
          2   -1    0    0  501    0  0.00000000000E+00 -0.00000000000E+00 -0.14146490694E+04  0.14146490694E+04  0.25500000000E-02 0.  1.
    5000001    1    1    2    0    0 -0.22910944292E+03 -0.11130560339E+03 -0.61137932621E+03  0.68848293711E+03  0.18800000000E+03 0.  0.
   -5000001    1    1    2    0    0  0.22910944292E+03  0.11130560339E+03 -0.73195289155E+03  0.79748298391E+03  0.18800000000E+03 0.  0.
<mgrwt>
<rscale>  0 0.63525843E+03</rscale>
<asrwt>0</asrwt>
<pdfrwt beam="1">  1        2 0.20209271E+00 0.63525843E+03</pdfrwt>
<pdfrwt beam="2">  1       -2 0.10188123E-01 0.63525843E+03</pdfrwt>
<totfact> 0.10946274E+03</totfact>
</mgrwt>
</event>
<event>
 4    1  0.6034452E-005  0.6614990E+03  0.7818608E-02  0.9785438E-01
          2   -1    0    0  501    0  0.00000000000E+00  0.00000000000E+00  0.10576294525E+04  0.10576294525E+04  0.25500000000E-02 0.  1.
         -2   -1    0    0    0  501 -0.00000000000E+00 -0.00000000000E+00 -0.10343435201E+03  0.10343435205E+03  0.25500000000E-02 0. -1.
    5000001    1    1    2    0    0 -0.23371545975E+03  0.18971930284E+02  0.23472486595E+03  0.38134316955E+03  0.18800000000E+03 0.  0.
   -5000001    1    1    2    0    0  0.23371545975E+03 -0.18971930284E+02  0.71947023455E+03  0.77972063501E+03  0.18800000000E+03 0.  0.
<mgrwt>
<rscale>  0 0.66149896E+03</rscale>
<asrwt>0</asrwt>
<pdfrwt beam="1">  1        2 0.15108992E+00 0.66149896E+03</pdfrwt>
<pdfrwt beam="2">  1       -2 0.14776336E-01 0.66149896E+03</pdfrwt>
<totfact> 0.93563347E+02</totfact>
</mgrwt>
</event>
<event>
 4    1  0.6034452E-005  0.9100300E+03  0.7818608E-02  0.9413130E-01
         -2   -1    0    0    0  501 -0.00000000000E+00  0.00000000000E+00  0.22291190202E+03  0.22291190203E+03  0.25500000000E-02 0. -1.
          2   -1    0    0  501    0  0.00000000000E+00 -0.00000000000E+00 -0.92879145981E+03  0.92879145981E+03  0.25500000000E-02 0.  1.
    5000001    1    1    2    0    0  0.28940127366E+03 -0.29020092889E+03 -0.43018075002E+03  0.62319271017E+03  0.18800000000E+03 0.  0.
   -5000001    1    1    2    0    0 -0.28940127366E+03  0.29020092889E+03 -0.27569880776E+03  0.52851065167E+03  0.18800000000E+03 0.  0.
<mgrwt>
<rscale>  0 0.91003005E+03</rscale>
<asrwt>0</asrwt>
<pdfrwt beam="1">  1        2 0.13268449E+00 0.91003005E+03</pdfrwt>
<pdfrwt beam="2">  1       -2 0.31844558E-01 0.91003005E+03</pdfrwt>
<totfact> 0.28540336E+02</totfact>
</mgrwt>
</event>
<event>
 4    1  0.6034452E-005  0.3866937E+03  0.7818608E-02  0.1048487E+00
         -2   -1    0    0    0  501 -0.00000000000E+00  0.00000000000E+00  0.23670518172E+02  0.23670518310E+02  0.25500000000E-02 0. -1.
          2   -1    0    0  501    0  0.00000000000E+00 -0.00000000000E+00 -0.15793063161E+04  0.15793063161E+04  0.25500000000E-02 0.  1.
    5000001    1    1    2    0    0 -0.32381814887E+02 -0.21345401955E+02 -0.87368115226E+03  0.89452052180E+03  0.18800000000E+03 0.  0.
   -5000001    1    1    2    0    0  0.32381814887E+02  0.21345401955E+02 -0.68195464563E+03  0.70845631257E+03  0.18800000000E+03 0.  0.
<mgrwt>
<rscale>  0 0.38669367E+03</rscale>
<asrwt>0</asrwt>
<pdfrwt beam="1">  1        2 0.22561512E+00 0.38669367E+03</pdfrwt>
<pdfrwt beam="2">  1       -2 0.33815036E-02 0.38669367E+03</pdfrwt>
<totfact> 0.50524241E+03</totfact>
</mgrwt>
</event>
<event>
 4    1  0.6034452E-005  0.7093181E+03  0.7818608E-02  0.9701428E-01
          2   -1    0    0  501    0  0.00000000000E+00  0.00000000000E+00  0.90629766864E+03  0.90629766864E+03  0.25500000000E-02 0.  1.
         -2   -1    0    0    0  501 -0.00000000000E+00 -0.00000000000E+00 -0.13878777893E+03  0.13878777895E+03  0.25500000000E-02 0. -1.
    5000001    1    1    2    0    0  0.29316809310E+03  0.32312616673E+02  0.29724682335E+03  0.45901123080E+03  0.18800000000E+03 0.  0.
   -5000001    1    1    2    0    0 -0.29316809310E+03 -0.32312616673E+02  0.47026306636E+03  0.58607421679E+03  0.18800000000E+03 0.  0.
<mgrwt>
<rscale>  0 0.70931810E+03</rscale>
<asrwt>0</asrwt>
<pdfrwt beam="1">  1        2 0.12947110E+00 0.70931810E+03</pdfrwt>
<pdfrwt beam="2">  1       -2 0.19826825E-01 0.70931810E+03</pdfrwt>
<totfact> 0.70044693E+02</totfact>
</mgrwt>
</event>
<event>
 4    1  0.6034452E-005  0.7608295E+03  0.7818608E-02  0.9618512E-01
         -2   -1    0    0    0  501 -0.00000000000E+00  0.00000000000E+00  0.95865422816E+02  0.95865422850E+02  0.25500000000E-02 0. -1.
          2   -1    0    0  501    0  0.00000000000E+00 -0.00000000000E+00 -0.15095681696E+04  0.15095681696E+04  0.25500000000E-02 0.  1.
    5000001    1    1    2    0    0 -0.30032041996E+03  0.13807985310E+03 -0.68442155418E+03  0.78296568526E+03  0.18800000000E+03 0.  0.
   -5000001    1    1    2    0    0  0.30032041996E+03 -0.13807985310E+03 -0.72928119263E+03  0.82246790721E+03  0.18800000000E+03 0.  0.
<mgrwt>
<rscale>  0 0.76082952E+03</rscale>
<asrwt>0</asrwt>
<pdfrwt beam="1">  1        2 0.21565258E+00 0.76082952E+03</pdfrwt>
<pdfrwt beam="2">  1       -2 0.13695061E-01 0.76082952E+03</pdfrwt>
<totfact> 0.59556318E+02</totfact>
</mgrwt>
</event>
<event>
 4    1  0.6034452E-005  0.7227545E+03  0.7818608E-02  0.9679091E-01
         -2   -1    0    0    0  501 -0.00000000000E+00  0.00000000000E+00  0.25861237318E+03  0.25861237319E+03  0.25500000000E-02 0. -1.
          2   -1    0    0  501    0  0.00000000000E+00 -0.00000000000E+00 -0.50497778998E+03  0.50497778998E+03  0.25500000000E-02 0.  1.
    5000001    1    1    2    0    0  0.17715732571E+03 -0.21446237390E+03  0.18051545853E+02  0.33622713481E+03  0.18800000000E+03 0.  0.
   -5000001    1    1    2    0    0 -0.17715732571E+03  0.21446237390E+03 -0.26441696265E+03  0.42736302836E+03  0.18800000000E+03 0.  0.
<mgrwt>
<rscale>  0 0.72275447E+03</rscale>
<asrwt>0</asrwt>
<pdfrwt beam="1">  1        2 0.72139684E-01 0.72275447E+03</pdfrwt>
<pdfrwt beam="2">  1       -2 0.36944625E-01 0.72275447E+03</pdfrwt>
<totfact> 0.46090059E+02</totfact>
</mgrwt>
</event>
<event>
 4    1  0.6034452E-005  0.7765058E+03  0.7818608E-02  0.9594661E-01
         -2   -1    0    0    0  501 -0.00000000000E+00  0.00000000000E+00  0.13189717399E+03  0.13189717402E+03  0.25500000000E-02 0. -1.
          2   -1    0    0  501    0  0.00000000000E+00 -0.00000000000E+00 -0.11428623646E+04  0.11428623646E+04  0.25500000000E-02 0.  1.
    5000001    1    1    2    0    0 -0.11859837795E+03  0.31767896823E+03 -0.53875668736E+03  0.66376823536E+03  0.18800000000E+03 0.  0.
   -5000001    1    1    2    0    0  0.11859837795E+03 -0.31767896823E+03 -0.47220850322E+03  0.61099130323E+03  0.18800000000E+03 0.  0.
<mgrwt>
<rscale>  0 0.77650580E+03</rscale>
<asrwt>0</asrwt>
<pdfrwt beam="1">  1        2 0.16326605E+00 0.77650580E+03</pdfrwt>
<pdfrwt beam="2">  1       -2 0.18842454E-01 0.77650580E+03</pdfrwt>
<totfact> 0.54820960E+02</totfact>
</mgrwt>
</event>
<event>
 4    1  0.6034452E-005  0.1040971E+04  0.7818608E-02  0.9264716E-01
          2   -1    0    0  501    0  0.00000000000E+00  0.00000000000E+00  0.39931452790E+04  0.39931452790E+04  0.25500000000E-02 0.  1.
         -2   -1    0    0    0  501 -0.00000000000E+00 -0.00000000000E+00 -0.67842509974E+02  0.67842510022E+02  0.25500000000E-02 0. -1.
    5000001    1    1    2    0    0 -0.34974959313E+03 -0.28334530381E+03  0.12544906806E+04  0.13459941333E+04  0.18800000000E+03 0.  0.
   -5000001    1    1    2    0    0  0.34974959313E+03  0.28334530381E+03  0.26708120884E+04  0.27149936558E+04  0.18800000000E+03 0.  0.
<mgrwt>
<rscale>  0 0.10409707E+04</rscale>
<asrwt>0</asrwt>
<pdfrwt beam="1">  1        2 0.57044915E+00 0.10409707E+04</pdfrwt>
<pdfrwt beam="2">  1       -2 0.96917902E-02 0.10409707E+04</pdfrwt>
<totfact> 0.43411615E+01</totfact>
</mgrwt>
</event>
<event>
 4    1  0.6034452E-005  0.9191900E+03  0.7818608E-02  0.9401906E-01
          2   -1    0    0  501    0  0.00000000000E+00  0.00000000000E+00  0.31771439396E+03  0.31771439397E+03  0.25500000000E-02 0.  1.
         -2   -1    0    0    0  501 -0.00000000000E+00 -0.00000000000E+00 -0.66483472823E+03  0.66483472824E+03  0.25500000000E-02 0. -1.
    5000001    1    1    2    0    0  0.26437115009E+03  0.27177609405E+03  0.18041384876E+02  0.42358451561E+03  0.18800000000E+03 0.  0.
   -5000001    1    1    2    0    0 -0.26437115009E+03 -0.27177609405E+03 -0.36516171914E+03  0.55896460660E+03  0.18800000000E+03 0.  0.
<mgrwt>
<rscale>  0 0.91919000E+03</rscale>
<asrwt>0</asrwt>
<pdfrwt beam="1">  1        2 0.45387771E-01 0.91919000E+03</pdfrwt>
<pdfrwt beam="2">  1       -2 0.94976390E-01 0.91919000E+03</pdfrwt>
<totfact> 0.10462453E+02</totfact>
</mgrwt>
</event>
<event>
 4    1  0.6034452E-005  0.6126697E+03  0.7818608E-02  0.9879464E-01
         -2   -1    0    0    0  501 -0.00000000000E+00  0.00000000000E+00  0.86955959147E+02  0.86955959184E+02  0.25500000000E-02 0. -1.
          2   -1    0    0  501    0  0.00000000000E+00 -0.00000000000E+00 -0.10791790949E+04  0.10791790949E+04  0.25500000000E-02 0.  1.
    5000001    1    1    2    0    0  0.78865858355E+02 -0.22863624939E+03 -0.49923631405E+03  0.58572626321E+03  0.18800000000E+03 0.  0.
   -5000001    1    1    2    0    0 -0.78865858355E+02  0.22863624939E+03 -0.49298682167E+03  0.58040879085E+03  0.18800000000E+03 0.  0.
<mgrwt>
<rscale>  0 0.61266974E+03</rscale>
<asrwt>0</asrwt>
<pdfrwt beam="1">  1        2 0.15416843E+00 0.61266974E+03</pdfrwt>
<pdfrwt beam="2">  1       -2 0.12422281E-01 0.61266974E+03</pdfrwt>
<totfact> 0.12152399E+03</totfact>
</mgrwt>
</event>
<event>
 4    1  0.6034452E-005  0.9453921E+03  0.7818608E-02  0.9370553E-01
          2   -1    0    0  501    0  0.00000000000E+00  0.00000000000E+00  0.20872842129E+04  0.20872842129E+04  0.25500000000E-02 0.  1.
         -2   -1    0    0    0  501 -0.00000000000E+00 -0.00000000000E+00 -0.10704893233E+03  0.10704893236E+03  0.25500000000E-02 0. -1.
    5000001    1    1    2    0    0  0.30038480351E+03 -0.26656716660E+03  0.61008005245E+03  0.75420869452E+03  0.18800000000E+03 0.  0.
   -5000001    1    1    2    0    0 -0.30038480351E+03  0.26656716660E+03  0.13701552281E+04  0.14401244507E+04  0.18800000000E+03 0.  0.
<mgrwt>
<rscale>  0 0.94539208E+03</rscale>
<asrwt>0</asrwt>
<pdfrwt beam="1">  1        2 0.29818344E+00 0.94539208E+03</pdfrwt>
<pdfrwt beam="2">  1       -2 0.15292706E-01 0.94539208E+03</pdfrwt>
<totfact> 0.24707249E+02</totfact>
</mgrwt>
</event>
<event>
 4    1  0.6034452E-005  0.5410136E+03  0.7818608E-02  0.1003596E+00
         -2   -1    0    0    0  501 -0.00000000000E+00  0.00000000000E+00  0.37368499227E+02  0.37368499314E+02  0.25500000000E-02 0. -1.
          2   -1    0    0  501    0  0.00000000000E+00 -0.00000000000E+00 -0.19581715881E+04  0.19581715881E+04  0.25500000000E-02 0.  1.
    5000001    1    1    2    0    0  0.19064825753E+03 -0.38159032587E+02 -0.94121283247E+03  0.97929998768E+03  0.18800000000E+03 0.  0.
   -5000001    1    1    2    0    0 -0.19064825753E+03  0.38159032587E+02 -0.97959025637E+03  0.10162400997E+04  0.18800000000E+03 0.  0.
<mgrwt>
<rscale>  0 0.54101362E+03</rscale>
<asrwt>0</asrwt>
<pdfrwt beam="1">  1        2 0.27973873E+00 0.54101362E+03</pdfrwt>
<pdfrwt beam="2">  1       -2 0.53383583E-02 0.54101362E+03</pdfrwt>
<totfact> 0.16158650E+03</totfact>
</mgrwt>
</event>
<event>
 4    1  0.6034452E-005  0.5648819E+03  0.7818608E-02  0.9981069E-01
         -2   -1    0    0    0  501 -0.00000000000E+00  0.00000000000E+00  0.79855505827E+02  0.79855505868E+02  0.25500000000E-02 0. -1.
          2   -1    0    0  501    0  0.00000000000E+00 -0.00000000000E+00 -0.99896533408E+03  0.99896533408E+03  0.25500000000E-02 0.  1.
    5000001    1    1    2    0    0  0.81986322736E+02 -0.14795060686E+03 -0.69974990504E+03  0.74404641575E+03  0.18800000000E+03 0.  0.
   -5000001    1    1    2    0    0 -0.81986322736E+02  0.14795060686E+03 -0.21935992321E+03  0.33477442420E+03  0.18800000000E+03 0.  0.
<mgrwt>
<rscale>  0 0.56488187E+03</rscale>
<asrwt>0</asrwt>
<pdfrwt beam="1">  1        2 0.14270933E+00 0.56488187E+03</pdfrwt>
<pdfrwt beam="2">  1       -2 0.11407930E-01 0.56488187E+03</pdfrwt>
<totfact> 0.15625541E+03</totfact>
</mgrwt>
</event>
<event>
 4    1  0.6034452E-005  0.8723966E+03  0.7818608E-02  0.9460760E-01
         -2   -1    0    0    0  501 -0.00000000000E+00  0.00000000000E+00  0.14702635846E+03  0.14702635848E+03  0.25500000000E-02 0. -1.
          2   -1    0    0  501    0  0.00000000000E+00 -0.00000000000E+00 -0.12941145327E+04  0.12941145327E+04  0.25500000000E-02 0.  1.
    5000001    1    1    2    0    0  0.38994881002E+03 -0.52778327211E+02 -0.55883158968E+03  0.70885990991E+03  0.18800000000E+03 0.  0.
   -5000001    1    1    2    0    0 -0.38994881002E+03  0.52778327211E+02 -0.58825658458E+03  0.73228098129E+03  0.18800000000E+03 0.  0.
<mgrwt>
<rscale>  0 0.87239658E+03</rscale>
<asrwt>0</asrwt>
<pdfrwt beam="1">  1        2 0.18487350E+00 0.87239658E+03</pdfrwt>
<pdfrwt beam="2">  1       -2 0.21003766E-01 0.87239658E+03</pdfrwt>
<totfact> 0.37091528E+02</totfact>
</mgrwt>
</event>
<event>
 4    1  0.6034452E-005  0.4952016E+03  0.7818608E-02  0.1015039E+00
         -2   -1    0    0    0  501 -0.00000000000E+00  0.00000000000E+00  0.23937050708E+03  0.23937050710E+03  0.25500000000E-02 0. -1.
          2   -1    0    0  501    0  0.00000000000E+00 -0.00000000000E+00 -0.25611412475E+03  0.25611412477E+03  0.25500000000E-02 0.  1.
    5000001    1    1    2    0    0  0.14474400315E+03  0.70292411181E+02 -0.16762207642E+02  0.24802584769E+03  0.18800000000E+03 0.  0.
   -5000001    1    1    2    0    0 -0.14474400315E+03 -0.70292411181E+02  0.18589970613E-01  0.24745878417E+03  0.18800000000E+03 0.  0.
<mgrwt>
<rscale>  0 0.49520165E+03</rscale>
<asrwt>0</asrwt>
<pdfrwt beam="1">  1        2 0.36587732E-01 0.49520165E+03</pdfrwt>
<pdfrwt beam="2">  1       -2 0.34195787E-01 0.49520165E+03</pdfrwt>
<totfact> 0.11393522E+03</totfact>
</mgrwt>
</event>
<event>
 4    1  0.6034452E-005  0.4101165E+03  0.7818608E-02  0.1040332E+00
         -2   -1    0    0    0  501 -0.00000000000E+00  0.00000000000E+00  0.36561406505E+02  0.36561406594E+02  0.25500000000E-02 0. -1.
          2   -1    0    0  501    0  0.00000000000E+00 -0.00000000000E+00 -0.11500891805E+04  0.11500891805E+04  0.25500000000E-02 0.  1.
    5000001    1    1    2    0    0 -0.27832049566E+02  0.62505172231E+02 -0.68691625733E+03  0.71545752084E+03  0.18800000000E+03 0.  0.
   -5000001    1    1    2    0    0  0.27832049566E+02 -0.62505172231E+02 -0.42661151665E+03  0.47119306625E+03  0.18800000000E+03 0.  0.
<mgrwt>
<rscale>  0 0.41011646E+03</rscale>
<asrwt>0</asrwt>
<pdfrwt beam="1">  1        2 0.16429843E+00 0.41011646E+03</pdfrwt>
<pdfrwt beam="2">  1       -2 0.52230588E-02 0.41011646E+03</pdfrwt>
<totfact> 0.43960115E+03</totfact>
</mgrwt>
</event>
<event>
 4    1  0.6034452E-005  0.1231468E+04  0.7818608E-02  0.9085750E-01
          2   -1    0    0  501    0  0.00000000000E+00  0.00000000000E+00  0.14440922288E+04  0.14440922288E+04  0.25500000000E-02 0.  1.
         -2   -1    0    0    0  501 -0.00000000000E+00 -0.00000000000E+00 -0.26253740061E+03  0.26253740062E+03  0.25500000000E-02 0. -1.
    5000001    1    1    2    0    0  0.57704603380E+03  0.10392025792E+03  0.59304397176E+03  0.85488402581E+03  0.18800000000E+03 0.  0.
   -5000001    1    1    2    0    0 -0.57704603380E+03 -0.10392025792E+03  0.58851085641E+03  0.85174560360E+03  0.18800000000E+03 0.  0.
<mgrwt>
<rscale>  0 0.12314678E+04</rscale>
<asrwt>0</asrwt>
<pdfrwt beam="1">  1        2 0.20629889E+00 0.12314678E+04</pdfrwt>
<pdfrwt beam="2">  1       -2 0.37505343E-01 0.12314678E+04</pdfrwt>
<totfact> 0.10334803E+02</totfact>
</mgrwt>
</event>
<event>
 4    1  0.6034452E-005  0.5258883E+03  0.7818608E-02  0.1007234E+00
         -2   -1    0    0    0  501 -0.00000000000E+00  0.00000000000E+00  0.14105275210E+03  0.14105275213E+03  0.25500000000E-02 0. -1.
          2   -1    0    0  501    0  0.00000000000E+00 -0.00000000000E+00 -0.49016856961E+03  0.49016856962E+03  0.25500000000E-02 0.  1.
    5000001    1    1    2    0    0  0.32430366276E+02  0.17609936245E+03 -0.12459170425E+03  0.28797535811E+03  0.18800000000E+03 0.  0.
   -5000001    1    1    2    0    0 -0.32430366276E+02 -0.17609936245E+03 -0.22452411327E+03  0.34324596363E+03  0.18800000000E+03 0.  0.
<mgrwt>
<rscale>  0 0.52588830E+03</rscale>
<asrwt>0</asrwt>
<pdfrwt beam="1">  1        2 0.70024081E-01 0.52588830E+03</pdfrwt>
<pdfrwt beam="2">  1       -2 0.20150393E-01 0.52588830E+03</pdfrwt>
<totfact> 0.14441872E+03</totfact>
</mgrwt>
</event>
<event>
 4    1  0.6034452E-005  0.8687008E+03  0.7818608E-02  0.9465575E-01
          2   -1    0    0  501    0  0.00000000000E+00  0.00000000000E+00  0.10856422499E+04  0.10856422499E+04  0.25500000000E-02 0.  1.
         -2   -1    0    0    0  501 -0.00000000000E+00 -0.00000000000E+00 -0.17377758214E+03  0.17377758216E+03  0.25500000000E-02 0. -1.
    5000001    1    1    2    0    0 -0.25557269867E+03  0.22311747959E+02  0.88478386294E+03  0.94021364727E+03  0.18800000000E+03 0.  0.
   -5000001    1    1    2    0    0  0.25557269867E+03 -0.22311747959E+02  0.27080804790E+02  0.31920618476E+03  0.18800000000E+03 0.  0.
<mgrwt>
<rscale>  0 0.86870084E+03</rscale>
<asrwt>0</asrwt>
<pdfrwt beam="1">  1        2 0.15509175E+00 0.86870084E+03</pdfrwt>
<pdfrwt beam="2">  1       -2 0.24825370E-01 0.86870084E+03</pdfrwt>
<totfact> 0.36199545E+02</totfact>
</mgrwt>
</event>
<event>
 4    1  0.6034452E-005  0.6832480E+03  0.7818608E-02  0.9746317E-01
          2   -1    0    0  501    0  0.00000000000E+00  0.00000000000E+00  0.10395914631E+04  0.10395914631E+04  0.25500000000E-02 0.  1.
         -2   -1    0    0    0  501 -0.00000000000E+00 -0.00000000000E+00 -0.11226231491E+03  0.11226231493E+03  0.25500000000E-02 0. -1.
    5000001    1    1    2    0    0 -0.16617733086E+03  0.20295879855E+03  0.27476081676E+03  0.42384511985E+03  0.18800000000E+03 0.  0.
   -5000001    1    1    2    0    0  0.16617733086E+03 -0.20295879855E+03  0.65256833147E+03  0.72800865822E+03  0.18800000000E+03 0.  0.
<mgrwt>
<rscale>  0 0.68324796E+03</rscale>
<asrwt>0</asrwt>
<pdfrwt beam="1">  1        2 0.14851307E+00 0.68324796E+03</pdfrwt>
<pdfrwt beam="2">  1       -2 0.16037474E-01 0.68324796E+03</pdfrwt>
<totfact> 0.83447393E+02</totfact>
</mgrwt>
</event>
<event>
 4    1  0.6034452E-005  0.5638956E+03  0.7818608E-02  0.9983278E-01
          2   -1    0    0  501    0  0.00000000000E+00  0.00000000000E+00  0.42387689414E+03  0.42387689415E+03  0.25500000000E-02 0.  1.
         -2   -1    0    0    0  501 -0.00000000000E+00 -0.00000000000E+00 -0.18754163025E+03  0.18754163027E+03  0.25500000000E-02 0. -1.
    5000001    1    1    2    0    0  0.80157766228E+02  0.16500688500E+03  0.22926241519E+03  0.34865139410E+03  0.18800000000E+03 0.  0.
   -5000001    1    1    2    0    0 -0.80157766228E+02 -0.16500688500E+03  0.70728486971E+01  0.26276713032E+03  0.18800000000E+03 0.  0.
<mgrwt>
<rscale>  0 0.56389561E+03</rscale>
<asrwt>0</asrwt>
<pdfrwt beam="1">  1        2 0.60553843E-01 0.56389561E+03</pdfrwt>
<pdfrwt beam="2">  1       -2 0.26791661E-01 0.56389561E+03</pdfrwt>
<totfact> 0.10253485E+03</totfact>
</mgrwt>
</event>
<event>
 4    1  0.6034452E-005  0.6039884E+03  0.7818608E-02  0.9897166E-01
          2   -1    0    0  501    0  0.00000000000E+00  0.00000000000E+00  0.10631063538E+04  0.10631063538E+04  0.25500000000E-02 0.  1.
         -2   -1    0    0    0  501 -0.00000000000E+00 -0.00000000000E+00 -0.85786796948E+02  0.85786796986E+02  0.25500000000E-02 0. -1.
    5000001    1    1    2    0    0  0.14386346463E+03  0.18299928342E+03  0.56641801457E+03  0.64059253931E+03  0.18800000000E+03 0.  0.
   -5000001    1    1    2    0    0 -0.14386346463E+03 -0.18299928342E+03  0.41090154231E+03  0.50830061151E+03  0.18800000000E+03 0.  0.
<mgrwt>
<rscale>  0 0.60398837E+03</rscale>
<asrwt>0</asrwt>
<pdfrwt beam="1">  1        2 0.15187233E+00 0.60398837E+03</pdfrwt>
<pdfrwt beam="2">  1       -2 0.12255257E-01 0.60398837E+03</pdfrwt>
<totfact> 0.12703720E+03</totfact>
</mgrwt>
</event>
<event>
 4    1  0.6034452E-005  0.5931664E+03  0.7818608E-02  0.9919686E-01
         -2   -1    0    0    0  501 -0.00000000000E+00  0.00000000000E+00  0.32379144875E+03  0.32379144876E+03  0.25500000000E-02 0. -1.
          2   -1    0    0  501    0  0.00000000000E+00 -0.00000000000E+00 -0.27166126104E+03  0.27166126105E+03  0.25500000000E-02 0.  1.
    5000001    1    1    2    0    0 -0.15787358686E+03 -0.14361915634E+03  0.11045493725E+03  0.30511444518E+03  0.18800000000E+03 0.  0.
   -5000001    1    1    2    0    0  0.15787358686E+03  0.14361915634E+03 -0.58324749543E+02  0.29033826462E+03  0.18800000000E+03 0.  0.
<mgrwt>
<rscale>  0 0.59316640E+03</rscale>
<asrwt>0</asrwt>
<pdfrwt beam="1">  1        2 0.38808751E-01 0.59316640E+03</pdfrwt>
<pdfrwt beam="2">  1       -2 0.46255922E-01 0.59316640E+03</pdfrwt>
<totfact> 0.59443111E+02</totfact>
</mgrwt>
</event>
<event>
 4    1  0.6034452E-005  0.4347725E+03  0.7818608E-02  0.1032363E+00
          2   -1    0    0  501    0  0.00000000000E+00  0.00000000000E+00  0.29802587417E+04  0.29802587417E+04  0.25500000000E-02 0.  1.
         -2   -1    0    0    0  501 -0.00000000000E+00 -0.00000000000E+00 -0.15856604077E+02  0.15856604282E+02  0.25500000000E-02 0. -1.
    5000001    1    1    2    0    0  0.66750831974E+01  0.63178194794E+02  0.20938042996E+04  0.21031872209E+04  0.18800000000E+03 0.  0.
   -5000001    1    1    2    0    0 -0.66750831974E+01 -0.63178194794E+02  0.87059783797E+03  0.89292812505E+03  0.18800000000E+03 0.  0.
<mgrwt>
<rscale>  0 0.43477251E+03</rscale>
<asrwt>0</asrwt>
<pdfrwt beam="1">  1        2 0.42575116E+00 0.43477251E+03</pdfrwt>
<pdfrwt beam="2">  1       -2 0.22652297E-02 0.43477251E+03</pdfrwt>
<totfact> 0.17984038E+03</totfact>
</mgrwt>
</event>
<event>
 4    1  0.6034452E-005  0.6087105E+03  0.7818608E-02  0.9887498E-01
         -2   -1    0    0    0  501 -0.00000000000E+00  0.00000000000E+00  0.40706592220E+03  0.40706592221E+03  0.25500000000E-02 0. -1.
          2   -1    0    0  501    0  0.00000000000E+00 -0.00000000000E+00 -0.22756045541E+03  0.22756045542E+03  0.25500000000E-02 0.  1.
    5000001    1    1    2    0    0  0.20389366365E+03 -0.26212958420E+02 -0.38056776045E+02  0.28116198795E+03  0.18800000000E+03 0.  0.
   -5000001    1    1    2    0    0 -0.20389366365E+03  0.26212958420E+02  0.21756224284E+03  0.35346438968E+03  0.18800000000E+03 0.  0.
<mgrwt>
<rscale>  0 0.60871046E+03</rscale>
<asrwt>0</asrwt>
<pdfrwt beam="1">  1        2 0.32508637E-01 0.60871046E+03</pdfrwt>
<pdfrwt beam="2">  1       -2 0.58152274E-01 0.60871046E+03</pdfrwt>
<totfact> 0.45354167E+02</totfact>
</mgrwt>
</event>
<event>
 4    1  0.6034452E-005  0.8243404E+03  0.7818608E-02  0.9525439E-01
          2   -1    0    0  501    0  0.00000000000E+00  0.00000000000E+00  0.25742851413E+04  0.25742851413E+04  0.25500000000E-02 0.  1.
         -2   -1    0    0    0  501 -0.00000000000E+00 -0.00000000000E+00 -0.65992794565E+02  0.65992794615E+02  0.25500000000E-02 0. -1.
    5000001    1    1    2    0    0  0.45555451272E+02 -0.36331759821E+03  0.11850574920E+04  0.12545039799E+04  0.18800000000E+03 0.  0.
   -5000001    1    1    2    0    0 -0.45555451272E+02  0.36331759821E+03  0.13232348548E+04  0.13857739561E+04  0.18800000000E+03 0.  0.
<mgrwt>
<rscale>  0 0.82434039E+03</rscale>
<asrwt>0</asrwt>
<pdfrwt beam="1">  1        2 0.36775501E+00 0.82434039E+03</pdfrwt>
<pdfrwt beam="2">  1       -2 0.94275423E-02 0.82434039E+03</pdfrwt>
<totfact> 0.31266163E+02</totfact>
</mgrwt>
</event>
<event>
 4    1  0.6034452E-005  0.4276556E+03  0.7818608E-02  0.1034603E+00
         -2   -1    0    0    0  501 -0.00000000000E+00  0.00000000000E+00  0.17121901237E+02  0.17121901427E+02  0.25500000000E-02 0. -1.
          2   -1    0    0  501    0  0.00000000000E+00 -0.00000000000E+00 -0.26704001841E+04  0.26704001841E+04  0.25500000000E-02 0.  1.
    5000001    1    1    2    0    0  0.90039148737E+02 -0.41851922166E+02 -0.11833765215E+04  0.12023238430E+04  0.18800000000E+03 0.  0.
   -5000001    1    1    2    0    0 -0.90039148737E+02  0.41851922166E+02 -0.14699017614E+04  0.14851982426E+04  0.18800000000E+03 0.  0.
<mgrwt>
<rscale>  0 0.42765560E+03</rscale>
<asrwt>0</asrwt>
<pdfrwt beam="1">  1        2 0.38148548E+00 0.42765560E+03</pdfrwt>
<pdfrwt beam="2">  1       -2 0.24459876E-02 0.42765560E+03</pdfrwt>
<totfact> 0.23341065E+03</totfact>
</mgrwt>
</event>
<event>
 4    1  0.6034452E-005  0.4601822E+03  0.7818608E-02  0.1024728E+00
          2   -1    0    0  501    0  0.00000000000E+00  0.00000000000E+00  0.11972300648E+03  0.11972300651E+03  0.25500000000E-02 0.  1.
         -2   -1    0    0    0  501 -0.00000000000E+00 -0.00000000000E+00 -0.44220334584E+03  0.44220334585E+03  0.25500000000E-02 0. -1.
    5000001    1    1    2    0    0 -0.11056798465E+03 -0.27442096679E+02 -0.24423483532E+03  0.32859245683E+03  0.18800000000E+03 0.  0.
   -5000001    1    1    2    0    0  0.11056798465E+03  0.27442096679E+02 -0.78245504035E+02  0.23333389553E+03  0.18800000000E+03 0.  0.
<mgrwt>
<rscale>  0 0.46018220E+03</rscale>
<asrwt>0</asrwt>
<pdfrwt beam="1">  1        2 0.17103287E-01 0.46018220E+03</pdfrwt>
<pdfrwt beam="2">  1       -2 0.63171906E-01 0.46018220E+03</pdfrwt>
<totfact> 0.79758624E+02</totfact>
</mgrwt>
</event>
<event>
 4    1  0.6034452E-005  0.6171865E+03  0.7818608E-02  0.9870377E-01
          2   -1    0    0  501    0  0.00000000000E+00  0.00000000000E+00  0.82460153125E+03  0.82460153126E+03  0.25500000000E-02 0.  1.
         -2   -1    0    0    0  501 -0.00000000000E+00 -0.00000000000E+00 -0.11548584665E+03  0.11548584668E+03  0.25500000000E-02 0. -1.
    5000001    1    1    2    0    0  0.68502467293E+02  0.91290811369E+02  0.24834846028E+02  0.22133090576E+03  0.18800000000E+03 0.  0.
   -5000001    1    1    2    0    0 -0.68502467293E+02 -0.91290811369E+02  0.68428083857E+03  0.71875647218E+03  0.18800000000E+03 0.  0.
<mgrwt>
<rscale>  0 0.61718654E+03</rscale>
<asrwt>0</asrwt>
<pdfrwt beam="1">  1        2 0.11780021E+00 0.61718654E+03</pdfrwt>
<pdfrwt beam="2">  1       -2 0.16497979E-01 0.61718654E+03</pdfrwt>
<totfact> 0.10917220E+03</totfact>
</mgrwt>
</event>
<event>
 4    1  0.6034452E-005  0.1051904E+04  0.7818608E-02  0.9253380E-01
         -2   -1    0    0    0  501 -0.00000000000E+00  0.00000000000E+00  0.59573033309E+03  0.59573033309E+03  0.25500000000E-02 0. -1.
          2   -1    0    0  501    0  0.00000000000E+00 -0.00000000000E+00 -0.46434686124E+03  0.46434686124E+03  0.25500000000E-02 0.  1.
    5000001    1    1    2    0    0  0.39625685718E+03 -0.28898977797E+03  0.38149517616E+02  0.52662507947E+03  0.18800000000E+03 0.  0.
   -5000001    1    1    2    0    0 -0.39625685718E+03  0.28898977797E+03  0.93233954235E+02  0.53345211487E+03  0.18800000000E+03 0.  0.
<mgrwt>
<rscale>  0 0.10519040E+04</rscale>
<asrwt>0</asrwt>
<pdfrwt beam="1">  1        2 0.66335265E-01 0.10519040E+04</pdfrwt>
<pdfrwt beam="2">  1       -2 0.85104334E-01 0.10519040E+04</pdfrwt>
<totfact> 0.87505161E+01</totfact>
</mgrwt>
</event>
<event>
 4    1  0.6034452E-005  0.4508395E+03  0.7818608E-02  0.1027472E+00
          2   -1    0    0  501    0  0.00000000000E+00  0.00000000000E+00  0.20987198603E+04  0.20987198603E+04  0.25500000000E-02 0.  1.
         -2   -1    0    0    0  501 -0.00000000000E+00 -0.00000000000E+00 -0.24211933308E+02  0.24211933442E+02  0.25500000000E-02 0. -1.
    5000001    1    1    2    0    0 -0.12576869894E+02 -0.12362809480E+03  0.10123451473E+04  0.10371252483E+04  0.18800000000E+03 0.  0.
   -5000001    1    1    2    0    0  0.12576869894E+02  0.12362809480E+03  0.10621627797E+04  0.10858065455E+04  0.18800000000E+03 0.  0.
<mgrwt>
<rscale>  0 0.45083951E+03</rscale>
<asrwt>0</asrwt>
<pdfrwt beam="1">  1        2 0.29981705E+00 0.45083951E+03</pdfrwt>
<pdfrwt beam="2">  1       -2 0.34588485E-02 0.45083951E+03</pdfrwt>
<totfact> 0.26860277E+03</totfact>
</mgrwt>
</event>
<event>
 4    1  0.6034452E-005  0.6350836E+03  0.7818608E-02  0.9835178E-01
         -2   -1    0    0    0  501 -0.00000000000E+00  0.00000000000E+00  0.17854358679E+02  0.17854358861E+02  0.25500000000E-02 0. -1.
          2   -1    0    0  501    0  0.00000000000E+00 -0.00000000000E+00 -0.56475173607E+04  0.56475173607E+04  0.25500000000E-02 0.  1.
    5000001    1    1    2    0    0 -0.15537886007E+03 -0.11927771834E+03 -0.13457880906E+04  0.13729017987E+04  0.18800000000E+03 0.  0.
   -5000001    1    1    2    0    0  0.15537886007E+03  0.11927771834E+03 -0.42838749115E+04  0.42924699209E+04  0.18800000000E+03 0.  0.
<mgrwt>
<rscale>  0 0.63508362E+03</rscale>
<asrwt>0</asrwt>
<pdfrwt beam="1">  1        2 0.80678705E+00 0.63508362E+03</pdfrwt>
<pdfrwt beam="2">  1       -2 0.25506263E-02 0.63508362E+03</pdfrwt>
<totfact> 0.11355900E+01</totfact>
</mgrwt>
</event>
<event>
 4    1  0.6034452E-005  0.8295465E+03  0.7818608E-02  0.9518208E-01
         -2   -1    0    0    0  501 -0.00000000000E+00  0.00000000000E+00  0.26928843824E+04  0.26928843824E+04  0.25500000000E-02 0. -1.
          2   -1    0    0  501    0  0.00000000000E+00 -0.00000000000E+00 -0.63885724110E+02  0.63885724161E+02  0.25500000000E-02 0.  1.
    5000001    1    1    2    0    0 -0.24715658347E+03  0.20765082361E+03  0.19134882489E+04  0.19496118896E+04  0.18800000000E+03 0.  0.
   -5000001    1    1    2    0    0  0.24715658347E+03 -0.20765082361E+03  0.71551040939E+03  0.80715821699E+03  0.18800000000E+03 0.  0.
<mgrwt>
<rscale>  0 0.82954655E+03</rscale>
<asrwt>0</asrwt>
<pdfrwt beam="1">  1        2 0.91265318E-02 0.82954655E+03</pdfrwt>
<pdfrwt beam="2">  1       -2 0.38469778E+00 0.82954655E+03</pdfrwt>
<totfact> 0.73403213E+00</totfact>
</mgrwt>
</event>
<event>
 4    1  0.6034452E-005  0.4529054E+03  0.7818608E-02  0.1026859E+00
         -2   -1    0    0    0  501 -0.00000000000E+00  0.00000000000E+00  0.34546010337E+02  0.34546010431E+02  0.25500000000E-02 0. -1.
          2   -1    0    0  501    0  0.00000000000E+00 -0.00000000000E+00 -0.14844208202E+04  0.14844208202E+04  0.25500000000E-02 0.  1.
    5000001    1    1    2    0    0  0.13335169769E+02 -0.11666451993E+03 -0.56948537846E+03  0.61110230997E+03  0.18800000000E+03 0.  0.
   -5000001    1    1    2    0    0 -0.13335169769E+02  0.11666451993E+03 -0.88038943144E+03  0.90786452070E+03  0.18800000000E+03 0.  0.
<mgrwt>
<rscale>  0 0.45290536E+03</rscale>
<asrwt>0</asrwt>
<pdfrwt beam="1">  1        2 0.21206008E+00 0.45290536E+03</pdfrwt>
<pdfrwt beam="2">  1       -2 0.49351453E-02 0.45290536E+03</pdfrwt>
<totfact> 0.31755838E+03</totfact>
</mgrwt>
</event>
<event>
 4    1  0.6034452E-005  0.4969039E+03  0.7818608E-02  0.1014590E+00
          2   -1    0    0  501    0  0.00000000000E+00  0.00000000000E+00  0.94722811688E+03  0.94722811688E+03  0.25500000000E-02 0.  1.
         -2   -1    0    0    0  501 -0.00000000000E+00 -0.00000000000E+00 -0.65167375544E+02  0.65167375594E+02  0.25500000000E-02 0. -1.
    5000001    1    1    2    0    0 -0.15346772156E+03  0.45110145782E+02  0.38350820947E+03  0.45608092872E+03  0.18800000000E+03 0.  0.
   -5000001    1    1    2    0    0  0.15346772156E+03 -0.45110145782E+02  0.49855253186E+03  0.55631456375E+03  0.18800000000E+03 0.  0.
<mgrwt>
<rscale>  0 0.49690390E+03</rscale>
<asrwt>0</asrwt>
<pdfrwt beam="1">  1        2 0.13531829E+00 0.49690390E+03</pdfrwt>
<pdfrwt beam="2">  1       -2 0.93096258E-02 0.49690390E+03</pdfrwt>
<totfact> 0.23386357E+03</totfact>
</mgrwt>
</event>
<event>
 4    1  0.6034452E-005  0.6851008E+03  0.7818608E-02  0.9743057E-01
          2   -1    0    0  501    0  0.00000000000E+00  0.00000000000E+00  0.97327866844E+03  0.97327866845E+03  0.25500000000E-02 0.  1.
         -2   -1    0    0    0  501 -0.00000000000E+00 -0.00000000000E+00 -0.12056237310E+03  0.12056237312E+03  0.25500000000E-02 0. -1.
    5000001    1    1    2    0    0 -0.25462804033E+03  0.33131212712E+02  0.22399934260E+03  0.38916939970E+03  0.18800000000E+03 0.  0.
   -5000001    1    1    2    0    0  0.25462804033E+03 -0.33131212712E+02  0.62871695275E+03  0.70467164187E+03  0.18800000000E+03 0.  0.
<mgrwt>
<rscale>  0 0.68510083E+03</rscale>
<asrwt>0</asrwt>
<pdfrwt beam="1">  1        2 0.13903982E+00 0.68510083E+03</pdfrwt>
<pdfrwt beam="2">  1       -2 0.17223195E-01 0.68510083E+03</pdfrwt>
<totfact> 0.81093994E+02</totfact>
</mgrwt>
</event>
<event>
 4    1  0.6034452E-005  0.4315075E+03  0.7818608E-02  0.1033385E+00
          2   -1    0    0  501    0  0.00000000000E+00  0.00000000000E+00  0.69270769679E+03  0.69270769680E+03  0.25500000000E-02 0. -1.
         -2   -1    0    0    0  501 -0.00000000000E+00 -0.00000000000E+00 -0.67199615974E+02  0.67199616022E+02  0.25500000000E-02 0.  1.
    5000001    1    1    2    0    0 -0.25386693208E+02 -0.10251258163E+03  0.32549919773E+03  0.39044467125E+03  0.18800000000E+03 0.  0.
   -5000001    1    1    2    0    0  0.25386693208E+02  0.10251258163E+03  0.30000888309E+03  0.36946264157E+03  0.18800000000E+03 0.  0.
<mgrwt>
<rscale>  0 0.43150755E+03</rscale>
<asrwt>0</asrwt>
<pdfrwt beam="1">  1        2 0.98958244E-01 0.43150755E+03</pdfrwt>
<pdfrwt beam="2">  1       -2 0.95999450E-02 0.43150755E+03</pdfrwt>
<totfact> 0.33144919E+03</totfact>
</mgrwt>
</event>
<event>
 4    1  0.6034452E-005  0.4810634E+03  0.7818608E-02  0.1018843E+00
         -2   -1    0    0    0  501 -0.00000000000E+00  0.00000000000E+00  0.15087518108E+03  0.15087518111E+03  0.25500000000E-02 0. -1.
          2   -1    0    0  501    0  0.00000000000E+00 -0.00000000000E+00 -0.38346592122E+03  0.38346592123E+03  0.25500000000E-02 0.  1.
    5000001    1    1    2    0    0 -0.69394206948E+02 -0.12915835207E+03 -0.15166633710E+03  0.28256700741E+03  0.18800000000E+03 0.  0.
   -5000001    1    1    2    0    0  0.69394206948E+02  0.12915835207E+03 -0.80924403028E+02  0.25177409492E+03  0.18800000000E+03 0.  0.
<mgrwt>
<rscale>  0 0.48106337E+03</rscale>
<asrwt>0</asrwt>
<pdfrwt beam="1">  1        2 0.54780846E-01 0.48106337E+03</pdfrwt>
<pdfrwt beam="2">  1       -2 0.21553597E-01 0.48106337E+03</pdfrwt>
<totfact> 0.16873593E+03</totfact>
</mgrwt>
</event>
<event>
 4    1  0.6034452E-005  0.4477134E+03  0.7818608E-02  0.1028406E+00
          2   -1    0    0  501    0  0.00000000000E+00  0.00000000000E+00  0.49363300735E+03  0.49363300735E+03  0.25500000000E-02 0.  1.
         -2   -1    0    0    0  501 -0.00000000000E+00 -0.00000000000E+00 -0.10151636551E+03  0.10151636555E+03  0.25500000000E-02 0. -1.
    5000001    1    1    2    0    0 -0.10363816243E+03 -0.97317200245E+01  0.27941619399E+03  0.35249536813E+03  0.18800000000E+03 0.  0.
   -5000001    1    1    2    0    0  0.10363816243E+03  0.97317200245E+01  0.11270044784E+03  0.24265400477E+03  0.18800000000E+03 0.  0.
<mgrwt>
<rscale>  0 0.44771343E+03</rscale>
<asrwt>0</asrwt>
<pdfrwt beam="1">  1        2 0.70519002E-01 0.44771343E+03</pdfrwt>
<pdfrwt beam="2">  1       -2 0.14502338E-01 0.44771343E+03</pdfrwt>
<totfact> 0.25044932E+03</totfact>
</mgrwt>
</event>
<event>
 4    1  0.6034452E-005  0.8635186E+03  0.7818608E-02  0.9472370E-01
         -2   -1    0    0    0  501 -0.00000000000E+00  0.00000000000E+00  0.21657211781E+03  0.21657211782E+03  0.25500000000E-02 0. -1.
          2   -1    0    0  501    0  0.00000000000E+00 -0.00000000000E+00 -0.86075752472E+03  0.86075752472E+03  0.25500000000E-02 0.  1.
    5000001    1    1    2    0    0  0.22671733549E+03  0.24437897202E+03 -0.57145837524E+03  0.68777213291E+03  0.18800000000E+03 0.  0.
   -5000001    1    1    2    0    0 -0.22671733549E+03 -0.24437897202E+03 -0.72727031675E+02  0.38955750964E+03  0.18800000000E+03 0.  0.
<mgrwt>
<rscale>  0 0.86351857E+03</rscale>
<asrwt>0</asrwt>
<pdfrwt beam="1">  1        2 0.12296536E+00 0.86351857E+03</pdfrwt>
<pdfrwt beam="2">  1       -2 0.30938874E-01 0.86351857E+03</pdfrwt>
<totfact> 0.33451889E+02</totfact>
</mgrwt>
</event>
<event>
 4    1  0.6034452E-005  0.6010599E+03  0.7818608E-02  0.9903210E-01
         -2   -1    0    0    0  501 -0.00000000000E+00  0.00000000000E+00  0.64498264599E+02  0.64498264649E+02  0.25500000000E-02 0. -1.
          2   -1    0    0  501    0  0.00000000000E+00 -0.00000000000E+00 -0.14003205900E+04  0.14003205900E+04  0.25500000000E-02 0.  1.
    5000001    1    1    2    0    0  0.45956005784E+02  0.20872959605E+03 -0.43296230875E+03  0.51815090421E+03  0.18800000000E+03 0.  0.
   -5000001    1    1    2    0    0 -0.45956005784E+02 -0.20872959605E+03 -0.90286001668E+03  0.94666795047E+03  0.18800000000E+03 0.  0.
<mgrwt>
<rscale>  0 0.60105989E+03</rscale>
<asrwt>0</asrwt>
<pdfrwt beam="1">  1        2 0.20004578E+00 0.60105989E+03</pdfrwt>
<pdfrwt beam="2">  1       -2 0.92140387E-02 0.60105989E+03</pdfrwt>
<totfact> 0.13122199E+03</totfact>
</mgrwt>
</event>
<event>
 4    1  0.6034452E-005  0.8617658E+03  0.7818608E-02  0.9474680E-01
          2   -1    0    0  501    0  0.00000000000E+00  0.00000000000E+00  0.56991114373E+03  0.56991114374E+03  0.25500000000E-02 0.  1.
         -2   -1    0    0    0  501 -0.00000000000E+00 -0.00000000000E+00 -0.32577020057E+03  0.32577020058E+03  0.25500000000E-02 0. -1.
    5000001    1    1    2    0    0  0.31530504029E+03  0.15001318847E+03 -0.53068990939E+02  0.40010191570E+03  0.18800000000E+03 0.  0.
   -5000001    1    1    2    0    0 -0.31530504029E+03 -0.15001318847E+03  0.29720993410E+03  0.49557942862E+03  0.18800000000E+03 0.  0.
<mgrwt>
<rscale>  0 0.86176579E+03</rscale>
<asrwt>0</asrwt>
<pdfrwt beam="1">  1        2 0.81415877E-01 0.86176579E+03</pdfrwt>
<pdfrwt beam="2">  1       -2 0.46538600E-01 0.86176579E+03</pdfrwt>
<totfact> 0.25339675E+02</totfact>
</mgrwt>
</event>
<event>
 4    1  0.6034452E-005  0.5763593E+03  0.7818608E-02  0.9955704E-01
         -2   -1    0    0    0  501 -0.00000000000E+00  0.00000000000E+00  0.91286777949E+02  0.91286777985E+02  0.25500000000E-02 0. -1.
          2   -1    0    0  501    0  0.00000000000E+00 -0.00000000000E+00 -0.90974317695E+03  0.90974317696E+03  0.25500000000E-02 0.  1.
    5000001    1    1    2    0    0  0.11507671704E+03  0.10786174418E+03 -0.67163522592E+03  0.71506271288E+03  0.18800000000E+03 0.  0.
   -5000001    1    1    2    0    0 -0.11507671704E+03 -0.10786174418E+03 -0.14682117309E+03  0.28596724206E+03  0.18800000000E+03 0.  0.
<mgrwt>
<rscale>  0 0.57635934E+03</rscale>
<asrwt>0</asrwt>
<pdfrwt beam="1">  1        2 0.12996331E+00 0.57635934E+03</pdfrwt>
<pdfrwt beam="2">  1       -2 0.13040969E-01 0.57635934E+03</pdfrwt>
<totfact> 0.14247257E+03</totfact>
</mgrwt>
</event>
<event>
 4    1  0.6034452E-005  0.5180208E+03  0.7818608E-02  0.1009179E+00
         -2   -1    0    0    0  501 -0.00000000000E+00  0.00000000000E+00  0.30120063834E+02  0.30120063942E+02  0.25500000000E-02 0. -1.
          2   -1    0    0  501    0  0.00000000000E+00 -0.00000000000E+00 -0.22272986723E+04  0.22272986723E+04  0.25500000000E-02 0.  1.
    5000001    1    1    2    0    0 -0.20129921493E+02 -0.17288127103E+03 -0.93269414319E+03  0.96724118624E+03  0.18800000000E+03 0.  0.
   -5000001    1    1    2    0    0  0.20129921493E+02  0.17288127103E+03 -0.12644844652E+04  0.12901775500E+04  0.18800000000E+03 0.  0.
<mgrwt>
<rscale>  0 0.51802077E+03</rscale>
<asrwt>0</asrwt>
<pdfrwt beam="1">  1        2 0.31818542E+00 0.51802077E+03</pdfrwt>
<pdfrwt beam="2">  1       -2 0.43028677E-02 0.51802077E+03</pdfrwt>
<totfact> 0.16550286E+03</totfact>
</mgrwt>
</event>
<event>
 4    1  0.6034452E-005  0.6214740E+03  0.7818608E-02  0.9861829E-01
         -2   -1    0    0    0  501 -0.00000000000E+00  0.00000000000E+00  0.75869028779E+02  0.75869028822E+02  0.25500000000E-02 0. -1.
          2   -1    0    0  501    0  0.00000000000E+00 -0.00000000000E+00 -0.12726863938E+04  0.12726863938E+04  0.25500000000E-02 0.  1.
    5000001    1    1    2    0    0  0.10272765662E+03 -0.22234353758E+03 -0.52249644269E+03  0.60690703799E+03  0.18800000000E+03 0.  0.
   -5000001    1    1    2    0    0 -0.10272765662E+03  0.22234353758E+03 -0.67432092236E+03  0.74164838466E+03  0.18800000000E+03 0.  0.
<mgrwt>
<rscale>  0 0.62147399E+03</rscale>
<asrwt>0</asrwt>
<pdfrwt beam="1">  1        2 0.18181233E+00 0.62147399E+03</pdfrwt>
<pdfrwt beam="2">  1       -2 0.10838433E-01 0.62147399E+03</pdfrwt>
<totfact> 0.11809224E+03</totfact>
</mgrwt>
</event>
<event>
 4    1  0.6034452E-005  0.1039592E+04  0.7818608E-02  0.9266156E-01
         -2   -1    0    0    0  501 -0.00000000000E+00  0.00000000000E+00  0.10597436528E+04  0.10597436528E+04  0.25500000000E-02 0. -1.
          2   -1    0    0  501    0  0.00000000000E+00 -0.00000000000E+00 -0.25495603911E+03  0.25495603913E+03  0.25500000000E-02 0.  1.
    5000001    1    1    2    0    0 -0.37258592217E+03  0.66201842016E+02  0.78522615478E+03  0.89169897804E+03  0.18800000000E+03 0.  0.
   -5000001    1    1    2    0    0  0.37258592217E+03 -0.66201842016E+02  0.19561458918E+02  0.42300071390E+03  0.18800000000E+03 0.  0.
<mgrwt>
<rscale>  0 0.10395923E+04</rscale>
<asrwt>0</asrwt>
<pdfrwt beam="1">  1        2 0.36422292E-01 0.10395923E+04</pdfrwt>
<pdfrwt beam="2">  1       -2 0.15139195E+00 0.10395923E+04</pdfrwt>
<totfact> 0.41656095E+01</totfact>
</mgrwt>
</event>
<event>
 4    1  0.6034452E-005  0.7825182E+03  0.7818608E-02  0.9585672E-01
         -2   -1    0    0    0  501 -0.00000000000E+00  0.00000000000E+00  0.88443014010E+03  0.88443014011E+03  0.25500000000E-02 0. -1.
          2   -1    0    0  501    0  0.00000000000E+00 -0.00000000000E+00 -0.17308738027E+03  0.17308738029E+03  0.25500000000E-02 0.  1.
    5000001    1    1    2    0    0 -0.20843765680E+03  0.70573407445E+02  0.71146645496E+03  0.76808552854E+03  0.18800000000E+03 0.  0.
   -5000001    1    1    2    0    0  0.20843765680E+03 -0.70573407445E+02 -0.12369513425E+00  0.28943199186E+03  0.18800000000E+03 0.  0.
<mgrwt>
<rscale>  0 0.78251823E+03</rscale>
<asrwt>0</asrwt>
<pdfrwt beam="1">  1        2 0.24726768E-01 0.78251823E+03</pdfrwt>
<pdfrwt beam="2">  1       -2 0.12634717E+00 0.78251823E+03</pdfrwt>
<totfact> 0.10444864E+02</totfact>
</mgrwt>
</event>
<event>
 4    1  0.6034452E-005  0.5172571E+03  0.7818608E-02  0.1009370E+00
          2   -1    0    0  501    0  0.00000000000E+00  0.00000000000E+00  0.15233099534E+04  0.15233099534E+04  0.25500000000E-02 0.  1.
         -2   -1    0    0    0  501 -0.00000000000E+00 -0.00000000000E+00 -0.43910114207E+02  0.43910114281E+02  0.25500000000E-02 0. -1.
    5000001    1    1    2    0    0 -0.89586073910E+01 -0.97165209981E+02  0.11893405471E+04  0.12080547470E+04  0.18800000000E+03 0.  0.
   -5000001    1    1    2    0    0  0.89586073910E+01  0.97165209981E+02  0.29005929207E+03  0.35916532070E+03  0.18800000000E+03 0.  0.
<mgrwt>
<rscale>  0 0.51725705E+03</rscale>
<asrwt>0</asrwt>
<pdfrwt beam="1">  1        2 0.21761567E+00 0.51725705E+03</pdfrwt>
<pdfrwt beam="2">  1       -2 0.62728745E-02 0.51725705E+03</pdfrwt>
<totfact> 0.20873877E+03</totfact>
</mgrwt>
</event>
<event>
 4    1  0.6034452E-005  0.4023537E+03  0.7818608E-02  0.1042968E+00
          2   -1    0    0  501    0  0.00000000000E+00  0.00000000000E+00  0.29003692292E+04  0.29003692292E+04  0.25500000000E-02 0.  1.
         -2   -1    0    0    0  501 -0.00000000000E+00 -0.00000000000E+00 -0.13954126485E+02  0.13954126718E+02  0.25500000000E-02 0. -1.
    5000001    1    1    2    0    0  0.10551363283E+02  0.66489385048E+02  0.16200288666E+04  0.16322897103E+04  0.18800000000E+03 0.  0.
   -5000001    1    1    2    0    0 -0.10551363283E+02 -0.66489385048E+02  0.12663862361E+04  0.12820336456E+04  0.18800000000E+03 0.  0.
<mgrwt>
<rscale>  0 0.40235367E+03</rscale>
<asrwt>0</asrwt>
<pdfrwt beam="1">  1        2 0.41433894E+00 0.40235367E+03</pdfrwt>
<pdfrwt beam="2">  1       -2 0.19934444E-02 0.40235367E+03</pdfrwt>
<totfact> 0.24065865E+03</totfact>
</mgrwt>
</event>
<event>
 4    1  0.6034452E-005  0.5432269E+03  0.7818608E-02  0.1003074E+00
          2   -1    0    0  501    0  0.00000000000E+00  0.00000000000E+00  0.26887065445E+04  0.26887065445E+04  0.25500000000E-02 0.  1.
         -2   -1    0    0    0  501 -0.00000000000E+00 -0.00000000000E+00 -0.27438420894E+02  0.27438421012E+02  0.25500000000E-02 0. -1.
    5000001    1    1    2    0    0 -0.11728549961E+02  0.19250372734E+03  0.15063204053E+04  0.15302092691E+04  0.18800000000E+03 0.  0.
   -5000001    1    1    2    0    0  0.11728549961E+02 -0.19250372734E+03  0.11549477183E+04  0.11859356964E+04  0.18800000000E+03 0.  0.
<mgrwt>
<rscale>  0 0.54322688E+03</rscale>
<asrwt>0</asrwt>
<pdfrwt beam="1">  1        2 0.38410054E+00 0.54322688E+03</pdfrwt>
<pdfrwt beam="2">  1       -2 0.39197785E-02 0.54322688E+03</pdfrwt>
<totfact> 0.11088108E+03</totfact>
</mgrwt>
</event>
<event>
 4    1  0.6034452E-005  0.7099485E+03  0.7818608E-02  0.9700369E-01
         -2   -1    0    0    0  501 -0.00000000000E+00  0.00000000000E+00  0.43425353086E+02  0.43425353161E+02  0.25500000000E-02 0. -1.
          2   -1    0    0  501    0  0.00000000000E+00 -0.00000000000E+00 -0.29016859182E+04  0.29016859182E+04  0.25500000000E-02 0.  1.
    5000001    1    1    2    0    0 -0.20461829609E+03 -0.16632628288E+03 -0.20321354682E+04  0.20577783264E+04  0.18800000000E+03 0.  0.
   -5000001    1    1    2    0    0  0.20461829609E+03  0.16632628288E+03 -0.82612509692E+03  0.88733294497E+03  0.18800000000E+03 0.  0.
<mgrwt>
<rscale>  0 0.70994855E+03</rscale>
<asrwt>0</asrwt>
<pdfrwt beam="1">  1        2 0.41452644E+00 0.70994855E+03</pdfrwt>
<pdfrwt beam="2">  1       -2 0.62036237E-02 0.70994855E+03</pdfrwt>
<totfact> 0.41328908E+02</totfact>
</mgrwt>
</event>
<event>
 4    1  0.6034452E-005  0.4068283E+03  0.7818608E-02  0.1041441E+00
          2   -1    0    0  501    0  0.00000000000E+00  0.00000000000E+00  0.81489653207E+03  0.81489653207E+03  0.25500000000E-02 0.  1.
         -2   -1    0    0    0  501 -0.00000000000E+00 -0.00000000000E+00 -0.50776163545E+02  0.50776163609E+02  0.25500000000E-02 0. -1.
    5000001    1    1    2    0    0  0.35022037530E+02  0.66647495927E+02  0.42270659592E+03  0.46871451659E+03  0.18800000000E+03 0.  0.
   -5000001    1    1    2    0    0 -0.35022037530E+02 -0.66647495927E+02  0.34141377260E+03  0.39695817909E+03  0.18800000000E+03 0.  0.
<mgrwt>
<rscale>  0 0.40682832E+03</rscale>
<asrwt>0</asrwt>
<pdfrwt beam="1">  1        2 0.11641378E+00 0.40682832E+03</pdfrwt>
<pdfrwt beam="2">  1       -2 0.72537381E-02 0.40682832E+03</pdfrwt>
<totfact> 0.42257435E+03</totfact>
</mgrwt>
</event>
<event>
 4    1  0.6034452E-005  0.4687704E+03  0.7818608E-02  0.1022268E+00
         -2   -1    0    0    0  501 -0.00000000000E+00  0.00000000000E+00  0.24963377823E+03  0.24963377824E+03  0.25500000000E-02 0. -1.
          2   -1    0    0  501    0  0.00000000000E+00 -0.00000000000E+00 -0.22006803446E+03  0.22006803448E+03  0.25500000000E-02 0.  1.
    5000001    1    1    2    0    0 -0.16251384723E+02  0.99222679052E+02  0.11235792384E+03  0.24099284345E+03  0.18800000000E+03 0.  0.
   -5000001    1    1    2    0    0  0.16251384723E+02 -0.99222679052E+02 -0.82792180070E+02  0.22870896927E+03  0.18800000000E+03 0.  0.
<mgrwt>
<rscale>  0 0.46877037E+03</rscale>
<asrwt>0</asrwt>
<pdfrwt beam="1">  1        2 0.31438290E-01 0.46877037E+03</pdfrwt>
<pdfrwt beam="2">  1       -2 0.35661969E-01 0.46877037E+03</pdfrwt>
<totfact> 0.12449473E+03</totfact>
</mgrwt>
</event>
<event>
 4    1  0.6034452E-005  0.8060750E+03  0.7818608E-02  0.9551265E-01
          2   -1    0    0  501    0  0.00000000000E+00  0.00000000000E+00  0.22633088403E+03  0.22633088404E+03  0.25500000000E-02 0.  1.
         -2   -1    0    0    0  501 -0.00000000000E+00 -0.00000000000E+00 -0.71770683301E+03  0.71770683301E+03  0.25500000000E-02 0. -1.
    5000001    1    1    2    0    0  0.30881373905E+03 -0.12639067305E+03 -0.98687447818E+02  0.39550441214E+03  0.18800000000E+03 0.  0.
   -5000001    1    1    2    0    0 -0.30881373905E+03  0.12639067305E+03 -0.39268850116E+03  0.54853330492E+03  0.18800000000E+03 0.  0.
<mgrwt>
<rscale>  0 0.80607499E+03</rscale>
<asrwt>0</asrwt>
<pdfrwt beam="1">  1        2 0.32332984E-01 0.80607499E+03</pdfrwt>
<pdfrwt beam="2">  1       -2 0.10252955E+00 0.80607499E+03</pdfrwt>
<totfact> 0.12815904E+02</totfact>
</mgrwt>
</event>
<event>
 4    1  0.6034452E-005  0.5103617E+03  0.7818608E-02  0.1011109E+00
          2   -1    0    0  501    0  0.00000000000E+00  0.00000000000E+00  0.91830844447E+03  0.91830844447E+03  0.25500000000E-02 0.  1.
         -2   -1    0    0    0  501 -0.00000000000E+00 -0.00000000000E+00 -0.70910020141E+02  0.70910020187E+02  0.25500000000E-02 0. -1.
    5000001    1    1    2    0    0 -0.16619329123E+03  0.52824537241E+01  0.51305229228E+03  0.57115214171E+03  0.18800000000E+03 0.  0.
   -5000001    1    1    2    0    0  0.16619329123E+03 -0.52824537241E+01  0.33434613205E+03  0.41806632295E+03  0.18800000000E+03 0.  0.
<mgrwt>
<rscale>  0 0.51036172E+03</rscale>
<asrwt>0</asrwt>
<pdfrwt beam="1">  1        2 0.13118691E+00 0.51036172E+03</pdfrwt>
<pdfrwt beam="2">  1       -2 0.10130003E-01 0.51036172E+03</pdfrwt>
<totfact> 0.21283901E+03</totfact>
</mgrwt>
</event>
<event>
 4    1  0.6034452E-005  0.4021741E+03  0.7818608E-02  0.1043029E+00
         -2   -1    0    0    0  501 -0.00000000000E+00  0.00000000000E+00  0.11288947393E+03  0.11288947396E+03  0.25500000000E-02 0. -1.
          2   -1    0    0  501    0  0.00000000000E+00 -0.00000000000E+00 -0.35819110360E+03  0.35819110361E+03  0.25500000000E-02 0.  1.
    5000001    1    1    2    0    0  0.32453209423E+02  0.34354704809E+02 -0.18527670038E+03  0.26815091320E+03  0.18800000000E+03 0.  0.
   -5000001    1    1    2    0    0 -0.32453209423E+02 -0.34354704809E+02 -0.60024929295E+02  0.20292966437E+03  0.18800000000E+03 0.  0.
<mgrwt>
<rscale>  0 0.40217412E+03</rscale>
<asrwt>0</asrwt>
<pdfrwt beam="1">  1        2 0.51170157E-01 0.40217412E+03</pdfrwt>
<pdfrwt beam="2">  1       -2 0.16127068E-01 0.40217412E+03</pdfrwt>
<totfact> 0.29839748E+03</totfact>
</mgrwt>
</event>
<event>
 4    1  0.6034452E-005  0.7560695E+03  0.7818608E-02  0.9625876E-01
         -2   -1    0    0    0  501 -0.00000000000E+00  0.00000000000E+00  0.23598472027E+03  0.23598472028E+03  0.25500000000E-02 0. -1.
          2   -1    0    0  501    0  0.00000000000E+00 -0.00000000000E+00 -0.60559115386E+03  0.60559115386E+03  0.25500000000E-02 0.  1.
    5000001    1    1    2    0    0  0.35361609418E+02 -0.29614961954E+03 -0.33665468019E+03  0.48747862955E+03  0.18800000000E+03 0.  0.
   -5000001    1    1    2    0    0 -0.35361609418E+02  0.29614961954E+03 -0.32951753395E+02  0.35409724459E+03  0.18800000000E+03 0.  0.
<mgrwt>
<rscale>  0 0.75606947E+03</rscale>
<asrwt>0</asrwt>
<pdfrwt beam="1">  1        2 0.86513021E-01 0.75606947E+03</pdfrwt>
<pdfrwt beam="2">  1       -2 0.33712103E-01 0.75606947E+03</pdfrwt>
<totfact> 0.44358215E+02</totfact>
</mgrwt>
</event>
<event>
 4    1  0.6034452E-005  0.9513514E+03  0.7818608E-02  0.9363572E-01
         -2   -1    0    0    0  501 -0.00000000000E+00  0.00000000000E+00  0.12770882763E+03  0.12770882766E+03  0.25500000000E-02 0. -1.
          2   -1    0    0  501    0  0.00000000000E+00 -0.00000000000E+00 -0.17717441745E+04  0.17717441745E+04  0.25500000000E-02 0.  1.
    5000001    1    1    2    0    0  0.16064429910E+03  0.39494905514E+03 -0.10128144895E+04  0.11148670491E+04  0.18800000000E+03 0.  0.
   -5000001    1    1    2    0    0 -0.16064429910E+03 -0.39494905514E+03 -0.63122085732E+03  0.78458595304E+03  0.18800000000E+03 0.  0.
<mgrwt>
<rscale>  0 0.95135140E+03</rscale>
<asrwt>0</asrwt>
<pdfrwt beam="1">  1        2 0.25310630E+00 0.95135140E+03</pdfrwt>
<pdfrwt beam="2">  1       -2 0.18244119E-01 0.95135140E+03</pdfrwt>
<totfact> 0.26434083E+02</totfact>
</mgrwt>
</event>
<event>
 4    1  0.6034452E-005  0.5243898E+03  0.7818608E-02  0.1007602E+00
         -2   -1    0    0    0  501 -0.00000000000E+00  0.00000000000E+00  0.21455445223E+02  0.21455445374E+02  0.25500000000E-02 0. -1.
          2   -1    0    0  501    0  0.00000000000E+00 -0.00000000000E+00 -0.32041364480E+04  0.32041364480E+04  0.25500000000E-02 0.  1.
    5000001    1    1    2    0    0 -0.14975430545E+03  0.10150725872E+03 -0.17508078191E+04  0.17701418290E+04  0.18800000000E+03 0.  0.
   -5000001    1    1    2    0    0  0.14975430545E+03 -0.10150725872E+03 -0.14318731837E+04  0.14554500643E+04  0.18800000000E+03 0.  0.
<mgrwt>
<rscale>  0 0.52438983E+03</rscale>
<asrwt>0</asrwt>
<pdfrwt beam="1">  1        2 0.45773347E+00 0.52438983E+03</pdfrwt>
<pdfrwt beam="2">  1       -2 0.30650657E-02 0.52438983E+03</pdfrwt>
<totfact> 0.85254067E+02</totfact>
</mgrwt>
</event>
<event>
 4    1  0.6034452E-005  0.5583917E+03  0.7818608E-02  0.9995700E-01
          2   -1    0    0  501    0  0.00000000000E+00  0.00000000000E+00  0.10750508948E+03  0.10750508951E+03  0.25500000000E-02 0.  1.
         -2   -1    0    0    0  501 -0.00000000000E+00 -0.00000000000E+00 -0.72508505290E+03  0.72508505290E+03  0.25500000000E-02 0. -1.
    5000001    1    1    2    0    0  0.74694702098E+02  0.19230767217E+03 -0.31876935383E+03  0.42369734509E+03  0.18800000000E+03 0.  0.
   -5000001    1    1    2    0    0 -0.74694702098E+02 -0.19230767217E+03 -0.29881060959E+03  0.40889279732E+03  0.18800000000E+03 0.  0.
<mgrwt>
<rscale>  0 0.55839174E+03</rscale>
<asrwt>0</asrwt>
<pdfrwt beam="1">  1        2 0.15357870E-01 0.55839174E+03</pdfrwt>
<pdfrwt beam="2">  1       -2 0.10358358E+00 0.55839174E+03</pdfrwt>
<totfact> 0.29943971E+02</totfact>
</mgrwt>
</event>
<event>
 4    1  0.6034452E-005  0.4092388E+03  0.7818608E-02  0.1040627E+00
         -2   -1    0    0    0  501 -0.00000000000E+00  0.00000000000E+00  0.20780863903E+03  0.20780863904E+03  0.25500000000E-02 0. -1.
          2   -1    0    0  501    0  0.00000000000E+00 -0.00000000000E+00 -0.20147910979E+03  0.20147910981E+03  0.25500000000E-02 0.  1.
    5000001    1    1    2    0    0 -0.73061350827E+02 -0.34141470679E+02  0.78019774666E+01  0.20471558772E+03  0.18800000000E+03 0.  0.
   -5000001    1    1    2    0    0  0.73061350827E+02  0.34141470679E+02 -0.14724482345E+01  0.20457216113E+03  0.18800000000E+03 0.  0.
<mgrwt>
<rscale>  0 0.40923880E+03</rscale>
<asrwt>0</asrwt>
<pdfrwt beam="1">  1        2 0.28782730E-01 0.40923880E+03</pdfrwt>
<pdfrwt beam="2">  1       -2 0.29686948E-01 0.40923880E+03</pdfrwt>
<totfact> 0.19296667E+03</totfact>
</mgrwt>
</event>
<event>
 4    1  0.6034452E-005  0.4220412E+03  0.7818608E-02  0.1036404E+00
         -2   -1    0    0    0  501 -0.00000000000E+00  0.00000000000E+00  0.95826543283E+02  0.95826543317E+02  0.25500000000E-02 0. -1.
          2   -1    0    0  501    0  0.00000000000E+00 -0.00000000000E+00 -0.46469069906E+03  0.46469069906E+03  0.25500000000E-02 0.  1.
    5000001    1    1    2    0    0 -0.50083256566E+02 -0.77570492187E+02 -0.15030741238E+03  0.25780192409E+03  0.18800000000E+03 0.  0.
   -5000001    1    1    2    0    0  0.50083256566E+02  0.77570492187E+02 -0.21855674339E+03  0.30271531829E+03  0.18800000000E+03 0.  0.
<mgrwt>
<rscale>  0 0.42204125E+03</rscale>
<asrwt>0</asrwt>
<pdfrwt beam="1">  1        2 0.66384384E-01 0.42204125E+03</pdfrwt>
<pdfrwt beam="2">  1       -2 0.13689506E-01 0.42204125E+03</pdfrwt>
<totfact> 0.29468440E+03</totfact>
</mgrwt>
</event>
<event>
 4    1  0.6034452E-005  0.5316140E+03  0.7818608E-02  0.1005841E+00
          2   -1    0    0  501    0  0.00000000000E+00  0.00000000000E+00  0.48472835563E+03  0.48472835563E+03  0.25500000000E-02 0.  1.
         -2   -1    0    0    0  501 -0.00000000000E+00 -0.00000000000E+00 -0.14575865758E+03  0.14575865760E+03  0.25500000000E-02 0. -1.
    5000001    1    1    2    0    0  0.17686979851E+03  0.63180888186E+02  0.17646145028E+03  0.31899434743E+03  0.18800000000E+03 0.  0.
   -5000001    1    1    2    0    0 -0.17686979851E+03 -0.63180888186E+02  0.16250824776E+03  0.31149266580E+03  0.18800000000E+03 0.  0.
<mgrwt>
<rscale>  0 0.53161397E+03</rscale>
<asrwt>0</asrwt>
<pdfrwt beam="1">  1        2 0.69246908E-01 0.53161397E+03</pdfrwt>
<pdfrwt beam="2">  1       -2 0.20822665E-01 0.53161397E+03</pdfrwt>
<totfact> 0.13812221E+03</totfact>
</mgrwt>
</event>
<event>
 4    1  0.6034452E-005  0.4527797E+03  0.7818608E-02  0.1026896E+00
         -2   -1    0    0    0  501 -0.00000000000E+00  0.00000000000E+00  0.27392773139E+02  0.27392773258E+02  0.25500000000E-02 0. -1.
          2   -1    0    0  501    0  0.00000000000E+00 -0.00000000000E+00 -0.18710178772E+04  0.18710178772E+04  0.25500000000E-02 0.  1.
    5000001    1    1    2    0    0 -0.81869515998E+02 -0.75893158698E+02 -0.11679397010E+04  0.11882295798E+04  0.18800000000E+03 0.  0.
   -5000001    1    1    2    0    0  0.81869515998E+02  0.75893158698E+02 -0.67568540307E+03  0.71018107065E+03  0.18800000000E+03 0.  0.
<mgrwt>
<rscale>  0 0.45277972E+03</rscale>
<asrwt>0</asrwt>
<pdfrwt beam="1">  1        2 0.26728819E+00 0.45277972E+03</pdfrwt>
<pdfrwt beam="2">  1       -2 0.39132545E-02 0.45277972E+03</pdfrwt>
<totfact> 0.28893529E+03</totfact>
</mgrwt>
</event>
<event>
 4    1  0.6034452E-005  0.1245244E+04  0.7818608E-02  0.9074151E-01
         -2   -1    0    0    0  501 -0.00000000000E+00  0.00000000000E+00  0.21519052822E+03  0.21519052823E+03  0.25500000000E-02 0. -1.
          2   -1    0    0  501    0  0.00000000000E+00 -0.00000000000E+00 -0.18014658509E+04  0.18014658509E+04  0.25500000000E-02 0.  1.
    5000001    1    1    2    0    0 -0.56684487515E+03 -0.16177745022E+03 -0.68059404812E+03  0.91980286704E+03  0.18800000000E+03 0.  0.
   -5000001    1    1    2    0    0  0.56684487515E+03  0.16177745022E+03 -0.90568127452E+03  0.10968535121E+04  0.18800000000E+03 0.  0.
<mgrwt>
<rscale>  0 0.12452444E+04</rscale>
<asrwt>0</asrwt>
<pdfrwt beam="1">  1        2 0.25735226E+00 0.12452444E+04</pdfrwt>
<pdfrwt beam="2">  1       -2 0.30741505E-01 0.12452444E+04</pdfrwt>
<totfact> 0.97897010E+01</totfact>
</mgrwt>
</event>
<event>
 4    1  0.6034452E-005  0.5229657E+03  0.7818608E-02  0.1007952E+00
         -2   -1    0    0    0  501 -0.00000000000E+00  0.00000000000E+00  0.24359208122E+03  0.24359208123E+03  0.25500000000E-02 0. -1.
          2   -1    0    0  501    0  0.00000000000E+00 -0.00000000000E+00 -0.28068756372E+03  0.28068756373E+03  0.25500000000E-02 0.  1.
    5000001    1    1    2    0    0  0.12793628165E+03  0.12176201627E+03  0.24403658911E+02  0.25910078992E+03  0.18800000000E+03 0.  0.
   -5000001    1    1    2    0    0 -0.12793628165E+03 -0.12176201627E+03 -0.61499141410E+02  0.26517885504E+03  0.18800000000E+03 0.  0.
<mgrwt>
<rscale>  0 0.52296565E+03</rscale>
<asrwt>0</asrwt>
<pdfrwt beam="1">  1        2 0.40098223E-01 0.52296565E+03</pdfrwt>
<pdfrwt beam="2">  1       -2 0.34798869E-01 0.52296565E+03</pdfrwt>
<totfact> 0.99649254E+02</totfact>
</mgrwt>
</event>
<event>
 4    1  0.6034452E-005  0.5070747E+03  0.7818608E-02  0.1011949E+00
          2   -1    0    0  501    0  0.00000000000E+00  0.00000000000E+00  0.37798481132E+03  0.37798481133E+03  0.25500000000E-02 0.  1.
         -2   -1    0    0    0  501 -0.00000000000E+00 -0.00000000000E+00 -0.17006291876E+03  0.17006291878E+03  0.25500000000E-02 0. -1.
    5000001    1    1    2    0    0  0.16433940986E+03 -0.40956971541E+02  0.86794033062E+02  0.26751097048E+03  0.18800000000E+03 0.  0.
   -5000001    1    1    2    0    0 -0.16433940986E+03  0.40956971541E+02  0.12112785950E+03  0.28053675962E+03  0.18800000000E+03 0.  0.
<mgrwt>
<rscale>  0 0.50707475E+03</rscale>
<asrwt>0</asrwt>
<pdfrwt beam="1">  1        2 0.53997830E-01 0.50707475E+03</pdfrwt>
<pdfrwt beam="2">  1       -2 0.24294703E-01 0.50707475E+03</pdfrwt>
<totfact> 0.13879866E+03</totfact>
</mgrwt>
</event>
<event>
 4    1  0.6034452E-005  0.7111318E+03  0.7818608E-02  0.9698383E-01
          2   -1    0    0  501    0  0.00000000000E+00  0.00000000000E+00  0.18742782843E+04  0.18742782843E+04  0.25500000000E-02 0.  1.
         -2   -1    0    0    0  501 -0.00000000000E+00 -0.00000000000E+00 -0.67453749409E+02  0.67453749458E+02  0.25500000000E-02 0. -1.
    5000001    1    1    2    0    0  0.22953171342E+03 -0.18461723012E+03  0.72405541565E+03  0.80397050571E+03  0.18800000000E+03 0.  0.
   -5000001    1    1    2    0    0 -0.22953171342E+03  0.18461723012E+03  0.10827691192E+04  0.11377615280E+04  0.18800000000E+03 0.  0.
<mgrwt>
<rscale>  0 0.71113177E+03</rscale>
<asrwt>0</asrwt>
<pdfrwt beam="1">  1        2 0.26775401E+00 0.71113177E+03</pdfrwt>
<pdfrwt beam="2">  1       -2 0.96362510E-02 0.71113177E+03</pdfrwt>
<totfact> 0.69217135E+02</totfact>
</mgrwt>
</event>
<event>
 4    1  0.6034452E-005  0.1247184E+04  0.7818608E-02  0.9072530E-01
          2   -1    0    0  501    0  0.00000000000E+00  0.00000000000E+00  0.38258329799E+04  0.38258329799E+04  0.25500000000E-02 0.  1.
         -2   -1    0    0    0  501 -0.00000000000E+00 -0.00000000000E+00 -0.10164240237E+03  0.10164240240E+03  0.25500000000E-02 0. -1.
    5000001    1    1    2    0    0 -0.40131529117E+03  0.36370274438E+03  0.26346732570E+04  0.26963272836E+04  0.18800000000E+03 0.  0.
   -5000001    1    1    2    0    0  0.40131529117E+03 -0.36370274438E+03  0.10895173205E+04  0.12311480987E+04  0.18800000000E+03 0.  0.
<mgrwt>
<rscale>  0 0.12471838E+04</rscale>
<asrwt>0</asrwt>
<pdfrwt beam="1">  1        2 0.54654748E+00 0.12471838E+04</pdfrwt>
<pdfrwt beam="2">  1       -2 0.14520346E-01 0.12471838E+04</pdfrwt>
<totfact> 0.27963083E+01</totfact>
</mgrwt>
</event>
<event>
 4    1  0.6034452E-005  0.4044085E+03  0.7818608E-02  0.1042264E+00
          2   -1    0    0  501    0  0.00000000000E+00  0.00000000000E+00  0.38178628153E+03  0.38178628154E+03  0.25500000000E-02 0.  1.
         -2   -1    0    0    0  501 -0.00000000000E+00 -0.00000000000E+00 -0.10709281524E+03  0.10709281527E+03  0.25500000000E-02 0. -1.
    5000001    1    1    2    0    0  0.28466371012E+02  0.67242731218E+02  0.11980145045E+03  0.23458113034E+03  0.18800000000E+03 0.  0.
   -5000001    1    1    2    0    0 -0.28466371012E+02 -0.67242731218E+02  0.15489201585E+03  0.25429796648E+03  0.18800000000E+03 0.  0.
<mgrwt>
<rscale>  0 0.40440854E+03</rscale>
<asrwt>0</asrwt>
<pdfrwt beam="1">  1        2 0.54540898E-01 0.40440854E+03</pdfrwt>
<pdfrwt beam="2">  1       -2 0.15298973E-01 0.40440854E+03</pdfrwt>
<totfact> 0.30402878E+03</totfact>
</mgrwt>
</event>
<event>
 4    1  0.6034452E-005  0.1120881E+04  0.7818608E-02  0.9185075E-01
          2   -1    0    0  501    0  0.00000000000E+00  0.00000000000E+00  0.34079308682E+04  0.34079308682E+04  0.25500000000E-02 0.  1.
         -2   -1    0    0    0  501 -0.00000000000E+00 -0.00000000000E+00 -0.92165523291E+02  0.92165523326E+02  0.25500000000E-02 0. -1.
    5000001    1    1    2    0    0  0.12150065525E+03  0.49818162404E+03  0.12653445948E+04  0.13781829644E+04  0.18800000000E+03 0.  0.
   -5000001    1    1    2    0    0 -0.12150065525E+03 -0.49818162404E+03  0.20504207501E+04  0.21219134271E+04  0.18800000000E+03 0.  0.
<mgrwt>
<rscale>  0 0.11208813E+04</rscale>
<asrwt>0</asrwt>
<pdfrwt beam="1">  1        2 0.48684726E+00 0.11208813E+04</pdfrwt>
<pdfrwt beam="2">  1       -2 0.13166503E-01 0.11208813E+04</pdfrwt>
<totfact> 0.60681576E+01</totfact>
</mgrwt>
</event>
<event>
 4    1  0.6034452E-005  0.4644146E+03  0.7818608E-02  0.1023509E+00
         -2   -1    0    0    0  501 -0.00000000000E+00  0.00000000000E+00  0.18615159658E+03  0.18615159660E+03  0.25500000000E-02 0. -1.
          2   -1    0    0  501    0  0.00000000000E+00 -0.00000000000E+00 -0.28965766255E+03  0.28965766256E+03  0.25500000000E-02 0.  1.
    5000001    1    1    2    0    0 -0.32561869654E+01  0.13314623589E+03 -0.81406450219E+02  0.24435534171E+03  0.18800000000E+03 0.  0.
   -5000001    1    1    2    0    0  0.32561869654E+01 -0.13314623589E+03 -0.22099615749E+02  0.23145391745E+03  0.18800000000E+03 0.  0.
<mgrwt>
<rscale>  0 0.46441463E+03</rscale>
<asrwt>0</asrwt>
<pdfrwt beam="1">  1        2 0.41379666E-01 0.46441463E+03</pdfrwt>
<pdfrwt beam="2">  1       -2 0.26593085E-01 0.46441463E+03</pdfrwt>
<totfact> 0.15802850E+03</totfact>
</mgrwt>
</event>
<event>
 4    1  0.6034452E-005  0.5772605E+03  0.7818608E-02  0.9953740E-01
         -2   -1    0    0    0  501 -0.00000000000E+00  0.00000000000E+00  0.26137906169E+02  0.26137906294E+02  0.25500000000E-02 0. -1.
          2   -1    0    0  501    0  0.00000000000E+00 -0.00000000000E+00 -0.31872265498E+04  0.31872265498E+04  0.25500000000E-02 0.  1.
    5000001    1    1    2    0    0 -0.18382416027E+03 -0.10335817850E+03 -0.12517300441E+04  0.12832171828E+04  0.18800000000E+03 0.  0.
   -5000001    1    1    2    0    0  0.18382416027E+03  0.10335817850E+03 -0.19093585995E+04  0.19301472733E+04  0.18800000000E+03 0.  0.
<mgrwt>
<rscale>  0 0.57726053E+03</rscale>
<asrwt>0</asrwt>
<pdfrwt beam="1">  1        2 0.45531783E+00 0.57726053E+03</pdfrwt>
<pdfrwt beam="2">  1       -2 0.37339886E-02 0.57726053E+03</pdfrwt>
<totfact> 0.64144991E+02</totfact>
</mgrwt>
</event>
<event>
 4    1  0.6034452E-005  0.7911927E+03  0.7818608E-02  0.9572853E-01
         -2   -1    0    0    0  501 -0.00000000000E+00  0.00000000000E+00  0.37779576068E+02  0.37779576154E+02  0.25500000000E-02 0. -1.
          2   -1    0    0  501    0  0.00000000000E+00 -0.00000000000E+00 -0.41423568330E+04  0.41423568330E+04  0.25500000000E-02 0.  1.
    5000001    1    1    2    0    0 -0.27468319142E+03 -0.11590744155E+03 -0.30013364477E+04  0.30219612610E+04  0.18800000000E+03 0.  0.
   -5000001    1    1    2    0    0  0.27468319142E+03  0.11590744155E+03 -0.11032408092E+04  0.11581751481E+04  0.18800000000E+03 0.  0.
<mgrwt>
<rscale>  0 0.79119273E+03</rscale>
<asrwt>0</asrwt>
<pdfrwt beam="1">  1        2 0.59176497E+00 0.79119273E+03</pdfrwt>
<pdfrwt beam="2">  1       -2 0.53970849E-02 0.79119273E+03</pdfrwt>
<totfact> 0.90146454E+01</totfact>
</mgrwt>
</event>
<event>
 4    1  0.6034452E-005  0.9184750E+03  0.7818608E-02  0.9402777E-01
          2   -1    0    0  501    0  0.00000000000E+00  0.00000000000E+00  0.26387955517E+03  0.26387955518E+03  0.25500000000E-02 0.  1.
         -2   -1    0    0    0  501 -0.00000000000E+00 -0.00000000000E+00 -0.79922487376E+03  0.79922487376E+03  0.25500000000E-02 0. -1.
    5000001    1    1    2    0    0  0.31558864859E+03  0.24926748781E+03 -0.13157981200E+03  0.46302021826E+03  0.18800000000E+03 0.  0.
   -5000001    1    1    2    0    0 -0.31558864859E+03 -0.24926748781E+03 -0.40376550659E+03  0.60008421068E+03  0.18800000000E+03 0.  0.
<mgrwt>
<rscale>  0 0.91847505E+03</rscale>
<asrwt>0</asrwt>
<pdfrwt beam="1">  1        2 0.37697080E-01 0.91847505E+03</pdfrwt>
<pdfrwt beam="2">  1       -2 0.11417498E+00 0.91847505E+03</pdfrwt>
<totfact> 0.82797310E+01</totfact>
</mgrwt>
</event>
<event>
 4    1  0.6034452E-005  0.6427898E+03  0.7818608E-02  0.9820404E-01
          2   -1    0    0  501    0  0.00000000000E+00  0.00000000000E+00  0.17665372709E+04  0.17665372709E+04  0.25500000000E-02 0.  1.
         -2   -1    0    0    0  501 -0.00000000000E+00 -0.00000000000E+00 -0.58472966007E+02  0.58472966063E+02  0.25500000000E-02 0. -1.
    5000001    1    1    2    0    0  0.16569631148E+03  0.18818364102E+03  0.65162423534E+03  0.72306742042E+03  0.18800000000E+03 0.  0.
   -5000001    1    1    2    0    0 -0.16569631148E+03 -0.18818364102E+03  0.10564400695E+04  0.11019428165E+04  0.18800000000E+03 0.  0.
<mgrwt>
<rscale>  0 0.64278978E+03</rscale>
<asrwt>0</asrwt>
<pdfrwt beam="1">  1        2 0.25236242E+00 0.64278978E+03</pdfrwt>
<pdfrwt beam="2">  1       -2 0.83532823E-02 0.64278978E+03</pdfrwt>
<totfact> 0.99168827E+02</totfact>
</mgrwt>
</event>
<event>
 4    1  0.6034452E-005  0.1157516E+04  0.7818608E-02  0.9150877E-01
         -2   -1    0    0    0  501 -0.00000000000E+00  0.00000000000E+00  0.18562543967E+03  0.18562543969E+03  0.25500000000E-02 0.  1.
          2   -1    0    0  501    0  0.00000000000E+00 -0.00000000000E+00 -0.18044995152E+04  0.18044995152E+04  0.25500000000E-02 0. -1.
    5000001    1    1    2    0    0 -0.27558428450E+03 -0.46108318969E+03 -0.62852051841E+03  0.84789530471E+03  0.18800000000E+03 0.  0.
   -5000001    1    1    2    0    0  0.27558428450E+03  0.46108318969E+03 -0.99035355714E+03  0.11422296502E+04  0.18800000000E+03 0.  0.
<mgrwt>
<rscale>  0 0.11575163E+04</rscale>
<asrwt>0</asrwt>
<pdfrwt beam="1">  1        2 0.25778564E+00 0.11575163E+04</pdfrwt>
<pdfrwt beam="2">  1       -2 0.26517921E-01 0.11575163E+04</pdfrwt>
<totfact> 0.12897186E+02</totfact>
</mgrwt>
</event>
<event>
 4    1  0.6034452E-005  0.4811066E+03  0.7818608E-02  0.1018832E+00
          2   -1    0    0  501    0  0.00000000000E+00  0.00000000000E+00  0.21466361287E+03  0.21466361288E+03  0.25500000000E-02 0. -1.
         -2   -1    0    0    0  501 -0.00000000000E+00 -0.00000000000E+00 -0.26956538498E+03  0.26956538499E+03  0.25500000000E-02 0.  1.
    5000001    1    1    2    0    0  0.14667581145E+02 -0.12660304373E+03  0.52299791981E+02  0.23307238545E+03  0.18800000000E+03 0.  0.
   -5000001    1    1    2    0    0 -0.14667581145E+02  0.12660304373E+03 -0.10720156409E+03  0.25115661242E+03  0.18800000000E+03 0.  0.
<mgrwt>
<rscale>  0 0.48110656E+03</rscale>
<asrwt>0</asrwt>
<pdfrwt beam="1">  1        2 0.30666230E-01 0.48110656E+03</pdfrwt>
<pdfrwt beam="2">  1       -2 0.38509341E-01 0.48110656E+03</pdfrwt>
<totfact> 0.11057492E+03</totfact>
</mgrwt>
</event>
<event>
 4    1  0.6034452E-005  0.4799784E+03  0.7818608E-02  0.1019141E+00
          2   -1    0    0  501    0  0.00000000000E+00  0.00000000000E+00  0.89144479802E+03  0.89144479803E+03  0.25500000000E-02 0. -1.
         -2   -1    0    0    0  501 -0.00000000000E+00 -0.00000000000E+00 -0.64608392836E+02  0.64608392886E+02  0.25500000000E-02 0.  1.
    5000001    1    1    2    0    0  0.97176516418E+02 -0.10896555801E+03  0.47429402709E+03  0.53067465769E+03  0.18800000000E+03 0.  0.
   -5000001    1    1    2    0    0 -0.97176516418E+02  0.10896555801E+03  0.35254237809E+03  0.42537853323E+03  0.18800000000E+03 0.  0.
<mgrwt>
<rscale>  0 0.47997840E+03</rscale>
<asrwt>0</asrwt>
<pdfrwt beam="1">  1        2 0.12734926E+00 0.47997840E+03</pdfrwt>
<pdfrwt beam="2">  1       -2 0.92297700E-02 0.47997840E+03</pdfrwt>
<totfact> 0.25718356E+03</totfact>
</mgrwt>
</event>
<event>
 4    1  0.6034452E-005  0.6712353E+03  0.7818608E-02  0.9767729E-01
          2   -1    0    0  501    0  0.00000000000E+00  0.00000000000E+00  0.18346747485E+04  0.18346747485E+04  0.25500000000E-02 0.  1.
         -2   -1    0    0    0  501 -0.00000000000E+00 -0.00000000000E+00 -0.61394653504E+02  0.61394653557E+02  0.25500000000E-02 0. -1.
    5000001    1    1    2    0    0 -0.27621079385E+03  0.28077528082E+02  0.84527219240E+03  0.90934582501E+03  0.18800000000E+03 0.  0.
   -5000001    1    1    2    0    0  0.27621079385E+03 -0.28077528082E+02  0.92800790261E+03  0.98672357706E+03  0.18800000000E+03 0.  0.
<mgrwt>
<rscale>  0 0.67123534E+03</rscale>
<asrwt>0</asrwt>
<pdfrwt beam="1">  1        2 0.26209643E+00 0.67123534E+03</pdfrwt>
<pdfrwt beam="2">  1       -2 0.87706636E-02 0.67123534E+03</pdfrwt>
<totfact> 0.84574775E+02</totfact>
</mgrwt>
</event>
<event>
 4    1  0.6034452E-005  0.3867776E+03  0.7818608E-02  0.1048457E+00
         -2   -1    0    0    0  501 -0.00000000000E+00  0.00000000000E+00  0.28058580661E+02  0.28058580777E+02  0.25500000000E-02 0. -1.
          2   -1    0    0  501    0  0.00000000000E+00 -0.00000000000E+00 -0.13328977476E+04  0.13328977476E+04  0.25500000000E-02 0.  1.
    5000001    1    1    2    0    0 -0.96547080491E+01 -0.18131726790E+02 -0.79462257975E+03  0.81681761560E+03  0.18800000000E+03 0.  0.
   -5000001    1    1    2    0    0  0.96547080491E+01  0.18131726790E+02 -0.51021658719E+03  0.54413871278E+03  0.18800000000E+03 0.  0.
<mgrwt>
<rscale>  0 0.38677755E+03</rscale>
<asrwt>0</asrwt>
<pdfrwt beam="1">  1        2 0.19041392E+00 0.38677755E+03</pdfrwt>
<pdfrwt beam="2">  1       -2 0.40083695E-02 0.38677755E+03</pdfrwt>
<totfact> 0.52365193E+03</totfact>
</mgrwt>
</event>
<event>
 4    1  0.6034452E-005  0.6801471E+03  0.7818608E-02  0.9751799E-01
          2   -1    0    0  501    0  0.00000000000E+00  0.00000000000E+00  0.28850095915E+04  0.28850095915E+04  0.25500000000E-02 0.  1.
         -2   -1    0    0    0  501 -0.00000000000E+00 -0.00000000000E+00 -0.40086527923E+02  0.40086528004E+02  0.25500000000E-02 0. -1.
    5000001    1    1    2    0    0 -0.26425509668E+03  0.96458231427E+02  0.15696347994E+04  0.16056875007E+04  0.18800000000E+03 0.  0.
   -5000001    1    1    2    0    0  0.26425509668E+03 -0.96458231427E+02  0.12752882642E+04  0.13194086188E+04  0.18800000000E+03 0.  0.
<mgrwt>
<rscale>  0 0.68014709E+03</rscale>
<asrwt>0</asrwt>
<pdfrwt beam="1">  1        2 0.41214430E+00 0.68014709E+03</pdfrwt>
<pdfrwt beam="2">  1       -2 0.57266458E-02 0.68014709E+03</pdfrwt>
<totfact> 0.47972123E+02</totfact>
</mgrwt>
</event>
<event>
 4    1  0.6034452E-005  0.7583124E+03  0.7818608E-02  0.9622399E-01
         -2   -1    0    0    0  501 -0.00000000000E+00  0.00000000000E+00  0.58940599451E+02  0.58940599506E+02  0.25500000000E-02 0. -1.
          2   -1    0    0  501    0  0.00000000000E+00 -0.00000000000E+00 -0.24390562317E+04  0.24390562317E+04  0.25500000000E-02 0.  1.
    5000001    1    1    2    0    0  0.19289256219E+03  0.26337091263E+03 -0.10486140138E+04  0.11142293876E+04  0.18800000000E+03 0.  0.
   -5000001    1    1    2    0    0 -0.19289256219E+03 -0.26337091263E+03 -0.13315016185E+04  0.13837674437E+04  0.18800000000E+03 0.  0.
<mgrwt>
<rscale>  0 0.75831243E+03</rscale>
<asrwt>0</asrwt>
<pdfrwt beam="1">  1        2 0.34843654E+00 0.75831243E+03</pdfrwt>
<pdfrwt beam="2">  1       -2 0.84200872E-02 0.75831243E+03</pdfrwt>
<totfact> 0.44325304E+02</totfact>
</mgrwt>
</event>
<event>
 4    1  0.6034452E-005  0.9503840E+03  0.7818608E-02  0.9364702E-01
          2   -1    0    0  501    0  0.00000000000E+00  0.00000000000E+00  0.21532033319E+04  0.21532033319E+04  0.25500000000E-02 0.  1.
         -2   -1    0    0    0  501 -0.00000000000E+00 -0.00000000000E+00 -0.10487046778E+03  0.10487046781E+03  0.25500000000E-02 0. -1.
    5000001    1    1    2    0    0 -0.41793070864E+03  0.19940607011E+02  0.72932015751E+03  0.86157738897E+03  0.18800000000E+03 0.  0.
   -5000001    1    1    2    0    0  0.41793070864E+03 -0.19940607011E+02  0.13190127066E+04  0.13964964108E+04  0.18800000000E+03 0.  0.
<mgrwt>
<rscale>  0 0.95038401E+03</rscale>
<asrwt>0</asrwt>
<pdfrwt beam="1">  1        2 0.30760050E+00 0.95038401E+03</pdfrwt>
<pdfrwt beam="2">  1       -2 0.14981494E-01 0.95038401E+03</pdfrwt>
<totfact> 0.23671319E+02</totfact>
</mgrwt>
</event>
<event>
 4    1  0.6034452E-005  0.5071964E+03  0.7818608E-02  0.1011917E+00
         -2   -1    0    0    0  501 -0.00000000000E+00  0.00000000000E+00  0.45218657207E+02  0.45218657278E+02  0.25500000000E-02 0. -1.
          2   -1    0    0  501    0  0.00000000000E+00 -0.00000000000E+00 -0.14222457285E+04  0.14222457285E+04  0.25500000000E-02 0.  1.
    5000001    1    1    2    0    0  0.13142415780E+03  0.77532228134E+02 -0.47037266478E+03  0.52903496995E+03  0.18800000000E+03 0.  0.
   -5000001    1    1    2    0    0 -0.13142415780E+03 -0.77532228134E+02 -0.90665440652E+03  0.93842941584E+03  0.18800000000E+03 0.  0.
<mgrwt>
<rscale>  0 0.50719638E+03</rscale>
<asrwt>0</asrwt>
<pdfrwt beam="1">  1        2 0.20317793E+00 0.50719638E+03</pdfrwt>
<pdfrwt beam="2">  1       -2 0.64598091E-02 0.50719638E+03</pdfrwt>
<totfact> 0.22508855E+03</totfact>
</mgrwt>
</event>
<event>
 4    1  0.6034452E-005  0.4763125E+03  0.7818608E-02  0.1020154E+00
         -2   -1    0    0    0  501 -0.00000000000E+00  0.00000000000E+00  0.48412569337E+02  0.48412569405E+02  0.25500000000E-02 0. -1.
          2   -1    0    0  501    0  0.00000000000E+00 -0.00000000000E+00 -0.11715636274E+04  0.11715636274E+04  0.25500000000E-02 0.  1.
    5000001    1    1    2    0    0 -0.96643849104E+02 -0.10937676954E+03 -0.53997938881E+03  0.59010596643E+03  0.18800000000E+03 0.  0.
   -5000001    1    1    2    0    0  0.96643849104E+02  0.10937676954E+03 -0.58317166921E+03  0.62987023033E+03  0.18800000000E+03 0.  0.
<mgrwt>
<rscale>  0 0.47631253E+03</rscale>
<asrwt>0</asrwt>
<pdfrwt beam="1">  1        2 0.16736621E+00 0.47631253E+03</pdfrwt>
<pdfrwt beam="2">  1       -2 0.69160821E-02 0.47631253E+03</pdfrwt>
<totfact> 0.27648245E+03</totfact>
</mgrwt>
</event>
<event>
 4    1  0.6034452E-005  0.4411459E+03  0.7818608E-02  0.1030396E+00
         -2   -1    0    0    0  501 -0.00000000000E+00  0.00000000000E+00  0.22867466237E+02  0.22867466379E+02  0.25500000000E-02 0. -1.
          2   -1    0    0  501    0  0.00000000000E+00 -0.00000000000E+00 -0.21275823529E+04  0.21275823529E+04  0.25500000000E-02 0.  1.
    5000001    1    1    2    0    0  0.88044132657E+02 -0.72575502671E+02 -0.11352909537E+04  0.11563946223E+04  0.18800000000E+03 0.  0.
   -5000001    1    1    2    0    0 -0.88044132657E+02  0.72575502671E+02 -0.96942393291E+03  0.99405519695E+03  0.18800000000E+03 0.  0.
<mgrwt>
<rscale>  0 0.44114586E+03</rscale>
<asrwt>0</asrwt>
<pdfrwt beam="1">  1        2 0.30394021E+00 0.44114586E+03</pdfrwt>
<pdfrwt beam="2">  1       -2 0.32667823E-02 0.44114586E+03</pdfrwt>
<totfact> 0.28346931E+03</totfact>
</mgrwt>
</event>
<event>
 4    1  0.6034452E-005  0.4637174E+03  0.7818608E-02  0.1023709E+00
          2   -1    0    0  501    0  0.00000000000E+00  0.00000000000E+00  0.12109166121E+03  0.12109166124E+03  0.25500000000E-02 0.  1.
         -2   -1    0    0    0  501 -0.00000000000E+00 -0.00000000000E+00 -0.44394844114E+03  0.44394844115E+03  0.25500000000E-02 0. -1.
    5000001    1    1    2    0    0  0.81395639593E+02  0.10856358149E+03 -0.16359199999E+03  0.28375631064E+03  0.18800000000E+03 0.  0.
   -5000001    1    1    2    0    0 -0.81395639593E+02 -0.10856358149E+03 -0.15926477994E+03  0.28128379175E+03  0.18800000000E+03 0.  0.
<mgrwt>
<rscale>  0 0.46371739E+03</rscale>
<asrwt>0</asrwt>
<pdfrwt beam="1">  1        2 0.17298809E-01 0.46371739E+03</pdfrwt>
<pdfrwt beam="2">  1       -2 0.63421205E-01 0.46371739E+03</pdfrwt>
<totfact> 0.78040198E+02</totfact>
</mgrwt>
</event>
<event>
 4    1  0.6034452E-005  0.4808591E+03  0.7818608E-02  0.1018899E+00
          2   -1    0    0  501    0  0.00000000000E+00  0.00000000000E+00  0.23091815808E+03  0.23091815810E+03  0.25500000000E-02 0.  1.
         -2   -1    0    0    0  501 -0.00000000000E+00 -0.00000000000E+00 -0.25033266956E+03  0.25033266957E+03  0.25500000000E-02 0. -1.
    5000001    1    1    2    0    0  0.39316595729E+02 -0.93529173078E+02 -0.12010967712E+03  0.24507924322E+03  0.18800000000E+03 0.  0.
   -5000001    1    1    2    0    0 -0.39316595729E+02  0.93529173078E+02  0.10069516565E+03  0.23617158445E+03  0.18800000000E+03 0.  0.
<mgrwt>
<rscale>  0 0.48085906E+03</rscale>
<asrwt>0</asrwt>
<pdfrwt beam="1">  1        2 0.32988308E-01 0.48085906E+03</pdfrwt>
<pdfrwt beam="2">  1       -2 0.35761810E-01 0.48085906E+03</pdfrwt>
<totfact> 0.11740485E+03</totfact>
</mgrwt>
</event>
<event>
 4    1  0.6034452E-005  0.4202493E+03  0.7818608E-02  0.1036985E+00
         -2   -1    0    0    0  501 -0.00000000000E+00  0.00000000000E+00  0.17535112779E+02  0.17535112964E+02  0.25500000000E-02 0.  1.
          2   -1    0    0  501    0  0.00000000000E+00 -0.00000000000E+00 -0.25179403136E+04  0.25179403136E+04  0.25500000000E-02 0. -1.
    5000001    1    1    2    0    0  0.59645551341E+02 -0.62294805692E+02 -0.10268794354E+04  0.10475035129E+04  0.18800000000E+03 0.  0.
   -5000001    1    1    2    0    0 -0.59645551341E+02  0.62294805692E+02 -0.14735257654E+04  0.14879719137E+04  0.18800000000E+03 0.  0.
<mgrwt>
<rscale>  0 0.42024930E+03</rscale>
<asrwt>0</asrwt>
<pdfrwt beam="1">  1        2 0.35970553E+00 0.42024930E+03</pdfrwt>
<pdfrwt beam="2">  1       -2 0.25050177E-02 0.42024930E+03</pdfrwt>
<totfact> 0.26964370E+03</totfact>
</mgrwt>
</event>
<event>
 4    1  0.6034452E-005  0.3983856E+03  0.7818608E-02  0.1044340E+00
         -2   -1    0    0    0  501 -0.00000000000E+00  0.00000000000E+00  0.27050379624E+03  0.27050379625E+03  0.25500000000E-02 0. -1.
          2   -1    0    0  501    0  0.00000000000E+00 -0.00000000000E+00 -0.14668102870E+03  0.14668102873E+03  0.25500000000E-02 0.  1.
    5000001    1    1    2    0    0 -0.54987319641E+02  0.35820570631E+02  0.67358425491E+02  0.21020912465E+03  0.18800000000E+03 0.  0.
   -5000001    1    1    2    0    0  0.54987319641E+02 -0.35820570631E+02  0.56464342041E+02  0.20697570032E+03  0.18800000000E+03 0.  0.
<mgrwt>
<rscale>  0 0.39838562E+03</rscale>
<asrwt>0</asrwt>
<pdfrwt beam="1">  1        2 0.20954433E-01 0.39838562E+03</pdfrwt>
<pdfrwt beam="2">  1       -2 0.38643399E-01 0.39838562E+03</pdfrwt>
<totfact> 0.16881055E+03</totfact>
</mgrwt>
</event>
<event>
 4    1  0.6034452E-005  0.4104960E+03  0.7818608E-02  0.1040205E+00
          2   -1    0    0  501    0  0.00000000000E+00  0.00000000000E+00  0.10595593403E+04  0.10595593403E+04  0.25500000000E-02 0.  1.
         -2   -1    0    0    0  501 -0.00000000000E+00 -0.00000000000E+00 -0.39758736362E+02  0.39758736444E+02  0.25500000000E-02 0. -1.
    5000001    1    1    2    0    0 -0.79587637875E+02  0.16810548295E+01  0.45336148603E+03  0.49720987024E+03  0.18800000000E+03 0.  0.
   -5000001    1    1    2    0    0  0.79587637875E+02 -0.16810548295E+01  0.56643911790E+03  0.60210820650E+03  0.18800000000E+03 0.  0.
<mgrwt>
<rscale>  0 0.41049600E+03</rscale>
<asrwt>0</asrwt>
<pdfrwt beam="1">  1        2 0.15136563E+00 0.41049600E+03</pdfrwt>
<pdfrwt beam="2">  1       -2 0.56798192E-02 0.41049600E+03</pdfrwt>
<totfact> 0.43518844E+03</totfact>
</mgrwt>
</event>
<event>
 4    1  0.6034452E-005  0.6625833E+03  0.7818608E-02  0.9783450E-01
         -2   -1    0    0    0  501 -0.00000000000E+00  0.00000000000E+00  0.58264743417E+02  0.58264743472E+02  0.25500000000E-02 0. -1.
          2   -1    0    0  501    0  0.00000000000E+00 -0.00000000000E+00 -0.18837148927E+04  0.18837148927E+04  0.25500000000E-02 0.  1.
    5000001    1    1    2    0    0  0.17497974005E+03 -0.19051171826E+03 -0.65894145472E+03  0.73243461480E+03  0.18800000000E+03 0.  0.
   -5000001    1    1    2    0    0 -0.17497974005E+03  0.19051171826E+03 -0.11665086946E+04  0.12095450214E+04  0.18800000000E+03 0.  0.
<mgrwt>
<rscale>  0 0.66258332E+03</rscale>
<asrwt>0</asrwt>
<pdfrwt beam="1">  1        2 0.26910209E+00 0.66258332E+03</pdfrwt>
<pdfrwt beam="2">  1       -2 0.83235360E-02 0.66258332E+03</pdfrwt>
<totfact> 0.86920319E+02</totfact>
</mgrwt>
</event>
<event>
 4    1  0.6034452E-005  0.6639751E+03  0.7818608E-02  0.9780904E-01
          2   -1    0    0  501    0  0.00000000000E+00  0.00000000000E+00  0.13484559580E+03  0.13484559582E+03  0.25500000000E-02 0.  1.
         -2   -1    0    0    0  501 -0.00000000000E+00 -0.00000000000E+00 -0.81734778388E+03  0.81734778388E+03  0.25500000000E-02 0. -1.
    5000001    1    1    2    0    0  0.26327863150E+03  0.58208469633E+01 -0.23468218156E+03  0.39971145394E+03  0.18800000000E+03 0.  0.
   -5000001    1    1    2    0    0 -0.26327863150E+03 -0.58208469633E+01 -0.44782000652E+03  0.55248192577E+03  0.18800000000E+03 0.  0.
<mgrwt>
<rscale>  0 0.66397515E+03</rscale>
<asrwt>0</asrwt>
<pdfrwt beam="1">  1        2 0.19263657E-01 0.66397515E+03</pdfrwt>
<pdfrwt beam="2">  1       -2 0.11676397E+00 0.66397515E+03</pdfrwt>
<totfact> 0.17070279E+02</totfact>
</mgrwt>
</event>
<event>
 4    1  0.6034452E-005  0.9196888E+03  0.7818608E-02  0.9401299E-01
         -2   -1    0    0    0  501 -0.00000000000E+00  0.00000000000E+00  0.10307405495E+03  0.10307405498E+03  0.25500000000E-02 0. -1.
          2   -1    0    0  501    0  0.00000000000E+00 -0.00000000000E+00 -0.20515044154E+04  0.20515044154E+04  0.25500000000E-02 0.  1.
    5000001    1    1    2    0    0  0.12404845295E+03  0.32676255511E+03 -0.43006154579E+03  0.58519972597E+03  0.18800000000E+03 0.  0.
   -5000001    1    1    2    0    0 -0.12404845295E+03 -0.32676255511E+03 -0.15183688146E+04  0.15693787444E+04  0.18800000000E+03 0.  0.
<mgrwt>
<rscale>  0 0.91968881E+03</rscale>
<asrwt>0</asrwt>
<pdfrwt beam="1">  1        2 0.29307203E+00 0.91968881E+03</pdfrwt>
<pdfrwt beam="2">  1       -2 0.14724866E-01 0.91968881E+03</pdfrwt>
<totfact> 0.27522739E+02</totfact>
</mgrwt>
</event>
<event>
 4    1  0.6034452E-005  0.9475745E+03  0.7818608E-02  0.9367990E-01
         -2   -1    0    0    0  501 -0.00000000000E+00  0.00000000000E+00  0.27202668781E+04  0.27202668781E+04  0.25500000000E-02 0. -1.
          2   -1    0    0  501    0  0.00000000000E+00 -0.00000000000E+00 -0.82519237219E+02  0.82519237259E+02  0.25500000000E-02 0.  1.
    5000001    1    1    2    0    0 -0.17511692319E+03 -0.39686866760E+03  0.12272437627E+04  0.13151585187E+04  0.18800000000E+03 0.  0.
   -5000001    1    1    2    0    0  0.17511692319E+03  0.39686866760E+03  0.14105038782E+04  0.14876275968E+04  0.18800000000E+03 0.  0.
<mgrwt>
<rscale>  0 0.94757448E+03</rscale>
<asrwt>0</asrwt>
<pdfrwt beam="1">  1        2 0.11788460E-01 0.94757448E+03</pdfrwt>
<pdfrwt beam="2">  1       -2 0.38860964E+00 0.94757448E+03</pdfrwt>
<totfact> 0.49349412E+00</totfact>
</mgrwt>
</event>
<event>
 4    1  0.6034452E-005  0.4483210E+03  0.7818608E-02  0.1028224E+00
         -2   -1    0    0    0  501 -0.00000000000E+00  0.00000000000E+00  0.13890369061E+02  0.13890369296E+02  0.25500000000E-02 0. -1.
          2   -1    0    0  501    0  0.00000000000E+00 -0.00000000000E+00 -0.36174652659E+04  0.36174652659E+04  0.25500000000E-02 0.  1.
    5000001    1    1    2    0    0  0.48566981038E+02 -0.10907088789E+03 -0.15954834633E+04  0.16109521073E+04  0.18800000000E+03 0.  0.
   -5000001    1    1    2    0    0 -0.48566981038E+02  0.10907088789E+03 -0.20080914335E+04  0.20204035279E+04  0.18800000000E+03 0.  0.
<mgrwt>
<rscale>  0 0.44832099E+03</rscale>
<asrwt>0</asrwt>
<pdfrwt beam="1">  1        2 0.51678015E+00 0.44832099E+03</pdfrwt>
<pdfrwt beam="2">  1       -2 0.19843408E-02 0.44832099E+03</pdfrwt>
<totfact> 0.95193687E+02</totfact>
</mgrwt>
</event>
<event>
 4    1  0.6034452E-005  0.7934051E+03  0.7818608E-02  0.9569612E-01
          2   -1    0    0  501    0  0.00000000000E+00  0.00000000000E+00  0.44707396520E+03  0.44707396521E+03  0.25500000000E-02 0.  1.
         -2   -1    0    0    0  501 -0.00000000000E+00 -0.00000000000E+00 -0.35200639877E+03  0.35200639878E+03  0.25500000000E-02 0. -1.
    5000001    1    1    2    0    0  0.25733970662E+03 -0.22732866166E+03 -0.17166310959E+02  0.39184273280E+03  0.18800000000E+03 0.  0.
   -5000001    1    1    2    0    0 -0.25733970662E+03  0.22732866166E+03  0.11223387739E+03  0.40723763118E+03  0.18800000000E+03 0.  0.
<mgrwt>
<rscale>  0 0.79340506E+03</rscale>
<asrwt>0</asrwt>
<pdfrwt beam="1">  1        2 0.63867709E-01 0.79340506E+03</pdfrwt>
<pdfrwt beam="2">  1       -2 0.50286629E-01 0.79340506E+03</pdfrwt>
<totfact> 0.28717803E+02</totfact>
</mgrwt>
</event>
<event>
 4    1  0.6034452E-005  0.5902019E+03  0.7818608E-02  0.9925945E-01
         -2   -1    0    0    0  501 -0.00000000000E+00  0.00000000000E+00  0.73045375597E+02  0.73045375642E+02  0.25500000000E-02 0. -1.
          2   -1    0    0  501    0  0.00000000000E+00 -0.00000000000E+00 -0.11921981027E+04  0.11921981027E+04  0.25500000000E-02 0.  1.
    5000001    1    1    2    0    0  0.16167157836E+03  0.77799047648E+02 -0.25983355463E+03  0.36748859462E+03  0.18800000000E+03 0.  0.
   -5000001    1    1    2    0    0 -0.16167157836E+03 -0.77799047648E+02 -0.85931917243E+03  0.89775488368E+03  0.18800000000E+03 0.  0.
<mgrwt>
<rscale>  0 0.59020186E+03</rscale>
<asrwt>0</asrwt>
<pdfrwt beam="1">  1        2 0.17031400E+00 0.59020186E+03</pdfrwt>
<pdfrwt beam="2">  1       -2 0.10435054E-01 0.59020186E+03</pdfrwt>
<totfact> 0.13934998E+03</totfact>
</mgrwt>
</event>
<event>
 4    1  0.6034452E-005  0.9924697E+03  0.7818608E-02  0.9316843E-01
         -2   -1    0    0    0  501 -0.00000000000E+00  0.00000000000E+00  0.17282364227E+03  0.17282364229E+03  0.25500000000E-02 0.  1.
          2   -1    0    0  501    0  0.00000000000E+00 -0.00000000000E+00 -0.14248573854E+04  0.14248573854E+04  0.25500000000E-02 0. -1.
    5000001    1    1    2    0    0  0.45096899064E+03  0.82913412226E+02 -0.66729125535E+03  0.83118546902E+03  0.18800000000E+03 0.  0.
   -5000001    1    1    2    0    0 -0.45096899064E+03 -0.82913412226E+02 -0.58474248780E+03  0.76649555868E+03  0.18800000000E+03 0.  0.
<mgrwt>
<rscale>  0 0.99246973E+03</rscale>
<asrwt>0</asrwt>
<pdfrwt beam="1">  1        2 0.20355105E+00 0.99246973E+03</pdfrwt>
<pdfrwt beam="2">  1       -2 0.24689092E-01 0.99246973E+03</pdfrwt>
<totfact> 0.23447127E+02</totfact>
</mgrwt>
</event>
<event>
 4    1  0.6034452E-005  0.1113556E+04  0.7818608E-02  0.9192079E-01
         -2   -1    0    0    0  501 -0.00000000000E+00  0.00000000000E+00  0.45001821812E+03  0.45001821812E+03  0.25500000000E-02 0. -1.
          2   -1    0    0  501    0  0.00000000000E+00 -0.00000000000E+00 -0.68886540654E+03  0.68886540654E+03  0.25500000000E-02 0.  1.
    5000001    1    1    2    0    0 -0.37115597481E+03  0.34982944745E+03 -0.24266570883E+03  0.59528820430E+03  0.18800000000E+03 0.  0.
   -5000001    1    1    2    0    0  0.37115597481E+03 -0.34982944745E+03  0.38185204062E+01  0.54359542036E+03  0.18800000000E+03 0.  0.
<mgrwt>
<rscale>  0 0.11135564E+04</rscale>
<asrwt>0</asrwt>
<pdfrwt beam="1">  1        2 0.98409343E-01 0.11135564E+04</pdfrwt>
<pdfrwt beam="2">  1       -2 0.64288318E-01 0.11135564E+04</pdfrwt>
<totfact> 0.10190074E+02</totfact>
</mgrwt>
</event>
<event>
 4    1  0.6034452E-005  0.8996150E+03  0.7818608E-02  0.9426063E-01
         -2   -1    0    0    0  501 -0.00000000000E+00  0.00000000000E+00  0.22388396779E+03  0.22388396780E+03  0.25500000000E-02 0. -1.
          2   -1    0    0  501    0  0.00000000000E+00 -0.00000000000E+00 -0.90371271357E+03  0.90371271357E+03  0.25500000000E-02 0.  1.
    5000001    1    1    2    0    0  0.14894230140E+03 -0.23248127419E+03 -0.71750730186E+03  0.79144935417E+03  0.18800000000E+03 0.  0.
   -5000001    1    1    2    0    0 -0.14894230140E+03  0.23248127419E+03  0.37678556079E+02  0.33614732720E+03  0.18800000000E+03 0.  0.
<mgrwt>
<rscale>  0 0.89961500E+03</rscale>
<asrwt>0</asrwt>
<pdfrwt beam="1">  1        2 0.12910181E+00 0.89961500E+03</pdfrwt>
<pdfrwt beam="2">  1       -2 0.31983424E-01 0.89961500E+03</pdfrwt>
<totfact> 0.29399664E+02</totfact>
</mgrwt>
</event>
<event>
 4    1  0.6034452E-005  0.5615278E+03  0.7818608E-02  0.9988604E-01
          2   -1    0    0  501    0  0.00000000000E+00  0.00000000000E+00  0.48489989027E+04  0.48489989027E+04  0.25500000000E-02 0.  1.
         -2   -1    0    0    0  501 -0.00000000000E+00 -0.00000000000E+00 -0.16256626108E+02  0.16256626308E+02  0.25500000000E-02 0. -1.
    5000001    1    1    2    0    0  0.13933258248E+03 -0.11987584391E+03  0.15630093916E+04  0.15849688151E+04  0.18800000000E+03 0.  0.
   -5000001    1    1    2    0    0 -0.13933258248E+03  0.11987584391E+03  0.32697328850E+04  0.32802867140E+04  0.18800000000E+03 0.  0.
<mgrwt>
<rscale>  0 0.56152778E+03</rscale>
<asrwt>0</asrwt>
<pdfrwt beam="1">  1        2 0.69271572E+00 0.56152778E+03</pdfrwt>
<pdfrwt beam="2">  1       -2 0.23223699E-02 0.56152778E+03</pdfrwt>
<totfact> 0.95956251E+01</totfact>
</mgrwt>
</event>
<event>
 4    1  0.6034452E-005  0.4871940E+03  0.7818608E-02  0.1017177E+00
          2   -1    0    0  501    0  0.00000000000E+00  0.00000000000E+00  0.44546663917E+04  0.44546663917E+04  0.25500000000E-02 0.  1.
         -2   -1    0    0    0  501 -0.00000000000E+00 -0.00000000000E+00 -0.13320751176E+02  0.13320751420E+02  0.25500000000E-02 0. -1.
    5000001    1    1    2    0    0 -0.12020300670E+03 -0.92892430691E+02  0.19428493077E+04  0.19578266519E+04  0.18800000000E+03 0.  0.
   -5000001    1    1    2    0    0  0.12020300670E+03  0.92892430691E+02  0.24984963329E+04  0.25101604913E+04  0.18800000000E+03 0.  0.
<mgrwt>
<rscale>  0 0.48719402E+03</rscale>
<asrwt>0</asrwt>
<pdfrwt beam="1">  1        2 0.63638075E+00 0.48719402E+03</pdfrwt>
<pdfrwt beam="2">  1       -2 0.19029650E-02 0.48719402E+03</pdfrwt>
<totfact> 0.27527367E+02</totfact>
</mgrwt>
</event>
<event>
 4    1  0.6034452E-005  0.5829425E+03  0.7818608E-02  0.9941441E-01
          2   -1    0    0  501    0  0.00000000000E+00  0.00000000000E+00  0.17362743942E+03  0.17362743944E+03  0.25500000000E-02 0.  1.
         -2   -1    0    0    0  501 -0.00000000000E+00 -0.00000000000E+00 -0.48929767949E+03  0.48929767950E+03  0.25500000000E-02 0. -1.
    5000001    1    1    2    0    0 -0.29369163280E+02  0.21989755420E+03 -0.13526164235E+03  0.32071357000E+03  0.18800000000E+03 0.  0.
   -5000001    1    1    2    0    0  0.29369163280E+02 -0.21989755420E+03 -0.18040859772E+03  0.34221154894E+03  0.18800000000E+03 0.  0.
<mgrwt>
<rscale>  0 0.58294255E+03</rscale>
<asrwt>0</asrwt>
<pdfrwt beam="1">  1        2 0.24803920E-01 0.58294255E+03</pdfrwt>
<pdfrwt beam="2">  1       -2 0.69899668E-01 0.58294255E+03</pdfrwt>
<totfact> 0.41624889E+02</totfact>
</mgrwt>
</event>
<event>
 4    1  0.6034452E-005  0.5805893E+03  0.7818608E-02  0.9946516E-01
         -2   -1    0    0    0  501 -0.00000000000E+00  0.00000000000E+00  0.55266679953E+02  0.55266680012E+02  0.25500000000E-02 0. -1.
          2   -1    0    0  501    0  0.00000000000E+00 -0.00000000000E+00 -0.15248061053E+04  0.15248061053E+04  0.25500000000E-02 0.  1.
    5000001    1    1    2    0    0 -0.14719993576E+03  0.12103574303E+03 -0.42916713583E+03  0.50581212189E+03  0.18800000000E+03 0.  0.
   -5000001    1    1    2    0    0  0.14719993576E+03 -0.12103574303E+03 -0.10403722895E+04  0.10742606634E+04  0.18800000000E+03 0.  0.
<mgrwt>
<rscale>  0 0.58058926E+03</rscale>
<asrwt>0</asrwt>
<pdfrwt beam="1">  1        2 0.21782942E+00 0.58058926E+03</pdfrwt>
<pdfrwt beam="2">  1       -2 0.78952409E-02 0.58058926E+03</pdfrwt>
<totfact> 0.14467453E+03</totfact>
</mgrwt>
</event>
<event>
 4    1  0.6034452E-005  0.4812806E+03  0.7818608E-02  0.1018784E+00
         -2   -1    0    0    0  501 -0.00000000000E+00  0.00000000000E+00  0.11366870134E+03  0.11366870137E+03  0.25500000000E-02 0. -1.
          2   -1    0    0  501    0  0.00000000000E+00 -0.00000000000E+00 -0.50944330761E+03  0.50944330762E+03  0.25500000000E-02 0.  1.
    5000001    1    1    2    0    0  0.12019888512E+03 -0.82325150036E+02 -0.15051918172E+03  0.28146976104E+03  0.18800000000E+03 0.  0.
   -5000001    1    1    2    0    0 -0.12019888512E+03  0.82325150036E+02 -0.24525542455E+03  0.34164224795E+03  0.18800000000E+03 0.  0.
<mgrwt>
<rscale>  0 0.48128062E+03</rscale>
<asrwt>0</asrwt>
<pdfrwt beam="1">  1        2 0.72777614E-01 0.48128062E+03</pdfrwt>
<pdfrwt beam="2">  1       -2 0.16238386E-01 0.48128062E+03</pdfrwt>
<totfact> 0.20005551E+03</totfact>
</mgrwt>
</event>
<event>
 4    1  0.6034452E-005  0.5198528E+03  0.7818608E-02  0.1008723E+00
         -2   -1    0    0    0  501 -0.00000000000E+00  0.00000000000E+00  0.10225226401E+03  0.10225226404E+03  0.25500000000E-02 0. -1.
          2   -1    0    0  501    0  0.00000000000E+00 -0.00000000000E+00 -0.66073585594E+03  0.66073585595E+03  0.25500000000E-02 0.  1.
    5000001    1    1    2    0    0  0.13524965401E+03  0.11010985404E+03 -0.21695372483E+03  0.33590112769E+03  0.18800000000E+03 0.  0.
   -5000001    1    1    2    0    0 -0.13524965401E+03 -0.11010985404E+03 -0.34152986711E+03  0.42708699230E+03  0.18800000000E+03 0.  0.
<mgrwt>
<rscale>  0 0.51985281E+03</rscale>
<asrwt>0</asrwt>
<pdfrwt beam="1">  1        2 0.94390834E-01 0.51985281E+03</pdfrwt>
<pdfrwt beam="2">  1       -2 0.14607467E-01 0.51985281E+03</pdfrwt>
<totfact> 0.17671422E+03</totfact>
</mgrwt>
</event>
<event>
 4    1  0.6034452E-005  0.5000930E+03  0.7818608E-02  0.1013755E+00
          2   -1    0    0  501    0  0.00000000000E+00  0.00000000000E+00  0.10042829012E+04  0.10042829012E+04  0.25500000000E-02 0.  1.
         -2   -1    0    0    0  501 -0.00000000000E+00 -0.00000000000E+00 -0.62256615974E+02  0.62256616026E+02  0.25500000000E-02 0. -1.
    5000001    1    1    2    0    0  0.13346112313E+03 -0.59743135682E+02  0.30861892424E+03  0.38983426485E+03  0.18800000000E+03 0.  0.
   -5000001    1    1    2    0    0 -0.13346112313E+03  0.59743135682E+02  0.63340736097E+03  0.67670525236E+03  0.18800000000E+03 0.  0.
<mgrwt>
<rscale>  0 0.50009301E+03</rscale>
<asrwt>0</asrwt>
<pdfrwt beam="1">  1        2 0.14346897E+00 0.50009301E+03</pdfrwt>
<pdfrwt beam="2">  1       -2 0.88938031E-02 0.50009301E+03</pdfrwt>
<totfact> 0.23215284E+03</totfact>
</mgrwt>
</event>
<event>
 4    1  0.6034452E-005  0.1079717E+04  0.7818608E-02  0.9225190E-01
         -2   -1    0    0    0  501 -0.00000000000E+00  0.00000000000E+00  0.27340377440E+03  0.27340377441E+03  0.25500000000E-02 0.  1.
          2   -1    0    0  501    0  0.00000000000E+00 -0.00000000000E+00 -0.10659955696E+04  0.10659955696E+04  0.25500000000E-02 0. -1.
    5000001    1    1    2    0    0  0.12007800932E+03 -0.46178458041E+03 -0.18709622582E+03  0.54590541740E+03  0.18800000000E+03 0.  0.
   -5000001    1    1    2    0    0 -0.12007800932E+03  0.46178458041E+03 -0.60549556933E+03  0.79349392657E+03  0.18800000000E+03 0.  0.
<mgrwt>
<rscale>  0 0.10797170E+04</rscale>
<asrwt>0</asrwt>
<pdfrwt beam="1">  1        2 0.15228508E+00 0.10797170E+04</pdfrwt>
<pdfrwt beam="2">  1       -2 0.39057683E-01 0.10797170E+04</pdfrwt>
<totfact> 0.15746446E+02</totfact>
</mgrwt>
</event>
<event>
 4    1  0.6034452E-005  0.5624645E+03  0.7818608E-02  0.9986494E-01
         -2   -1    0    0    0  501 -0.00000000000E+00  0.00000000000E+00  0.48047358627E+03  0.48047358628E+03  0.25500000000E-02 0. -1.
          2   -1    0    0  501    0  0.00000000000E+00 -0.00000000000E+00 -0.16461170423E+03  0.16461170425E+03  0.25500000000E-02 0.  1.
    5000001    1    1    2    0    0  0.15139164095E+03  0.14351332781E+03  0.17540255786E+03  0.33109751058E+03  0.18800000000E+03 0.  0.
   -5000001    1    1    2    0    0 -0.15139164095E+03 -0.14351332781E+03  0.14045932418E+03  0.31398777995E+03  0.18800000000E+03 0.  0.
<mgrwt>
<rscale>  0 0.56246449E+03</rscale>
<asrwt>0</asrwt>
<pdfrwt beam="1">  1        2 0.23515958E-01 0.56246449E+03</pdfrwt>
<pdfrwt beam="2">  1       -2 0.68639084E-01 0.56246449E+03</pdfrwt>
<totfact> 0.46042458E+02</totfact>
</mgrwt>
</event>
<event>
 4    1  0.6034452E-005  0.5757633E+03  0.7818608E-02  0.9957006E-01
         -2   -1    0    0    0  501 -0.00000000000E+00  0.00000000000E+00  0.70768656742E+02  0.70768656788E+02  0.25500000000E-02 0. -1.
          2   -1    0    0  501    0  0.00000000000E+00 -0.00000000000E+00 -0.11710814123E+04  0.11710814123E+04  0.25500000000E-02 0.  1.
    5000001    1    1    2    0    0 -0.23890169121E+01  0.17019177208E+03 -0.25630698080E+03  0.36056651965E+03  0.18800000000E+03 0.  0.
   -5000001    1    1    2    0    0  0.23890169121E+01 -0.17019177208E+03 -0.84400577475E+03  0.88128354943E+03  0.18800000000E+03 0.  0.
<mgrwt>
<rscale>  0 0.57576335E+03</rscale>
<asrwt>0</asrwt>
<pdfrwt beam="1">  1        2 0.16729733E+00 0.57576335E+03</pdfrwt>
<pdfrwt beam="2">  1       -2 0.10109809E-01 0.57576335E+03</pdfrwt>
<totfact> 0.15082455E+03</totfact>
</mgrwt>
</event>
<event>
 4    1  0.6034452E-005  0.3888969E+03  0.7818608E-02  0.1047694E+00
          2   -1    0    0  501    0  0.00000000000E+00  0.00000000000E+00  0.14681946231E+04  0.14681946231E+04  0.25500000000E-02 0.  1.
         -2   -1    0    0    0  501 -0.00000000000E+00 -0.00000000000E+00 -0.25752848284E+02  0.25752848411E+02  0.25500000000E-02 0. -1.
    5000001    1    1    2    0    0 -0.48028373167E+02 -0.12471125487E+02  0.72884592929E+03  0.75433589484E+03  0.18800000000E+03 0.  0.
   -5000001    1    1    2    0    0  0.48028373167E+02  0.12471125487E+02  0.71359584555E+03  0.73961157670E+03  0.18800000000E+03 0.  0.
<mgrwt>
<rscale>  0 0.38889687E+03</rscale>
<asrwt>0</asrwt>
<pdfrwt beam="1">  1        2 0.20974205E+00 0.38889687E+03</pdfrwt>
<pdfrwt beam="2">  1       -2 0.36789790E-02 0.38889687E+03</pdfrwt>
<totfact> 0.50686556E+03</totfact>
</mgrwt>
</event>
<event>
 4    1  0.6034452E-005  0.5014060E+03  0.7818608E-02  0.1013413E+00
          2   -1    0    0  501    0  0.00000000000E+00  0.00000000000E+00  0.29956896063E+03  0.29956896064E+03  0.25500000000E-02 0.  1.
         -2   -1    0    0    0  501 -0.00000000000E+00 -0.00000000000E+00 -0.20980811749E+03  0.20980811750E+03  0.25500000000E-02 0. -1.
    5000001    1    1    2    0    0 -0.12510405518E+03  0.75174796394E+02 -0.35148343916E+02  0.24058611913E+03  0.18800000000E+03 0.  0.
   -5000001    1    1    2    0    0  0.12510405518E+03 -0.75174796394E+02  0.12490918706E+03  0.26879095901E+03  0.18800000000E+03 0.  0.
<mgrwt>
<rscale>  0 0.50140602E+03</rscale>
<asrwt>0</asrwt>
<pdfrwt beam="1">  1        2 0.42795565E-01 0.50140602E+03</pdfrwt>
<pdfrwt beam="2">  1       -2 0.29972589E-01 0.50140602E+03</pdfrwt>
<totfact> 0.12253194E+03</totfact>
</mgrwt>
</event>
<event>
 4    1  0.6034452E-005  0.6996301E+03  0.7818608E-02  0.9717865E-01
         -2   -1    0    0    0  501 -0.00000000000E+00  0.00000000000E+00  0.53424315693E+02  0.53424315753E+02  0.25500000000E-02 0. -1.
          2   -1    0    0  501    0  0.00000000000E+00 -0.00000000000E+00 -0.22905406510E+04  0.22905406510E+04  0.25500000000E-02 0.  1.
    5000001    1    1    2    0    0  0.29023829426E+03  0.40236935413E+02 -0.10039954064E+04  0.10626420161E+04  0.18800000000E+03 0.  0.
   -5000001    1    1    2    0    0 -0.29023829426E+03 -0.40236935413E+02 -0.12331209290E+04  0.12813229507E+04  0.18800000000E+03 0.  0.
<mgrwt>
<rscale>  0 0.69963009E+03</rscale>
<asrwt>0</asrwt>
<pdfrwt beam="1">  1        2 0.32722003E+00 0.69963009E+03</pdfrwt>
<pdfrwt beam="2">  1       -2 0.76320465E-02 0.69963009E+03</pdfrwt>
<totfact> 0.62051582E+02</totfact>
</mgrwt>
</event>
<event>
 4    1  0.6034452E-005  0.5946543E+03  0.7818608E-02  0.9916559E-01
         -2   -1    0    0    0  501 -0.00000000000E+00  0.00000000000E+00  0.42575558484E+02  0.42575558560E+02  0.25500000000E-02 0. -1.
          2   -1    0    0  501    0  0.00000000000E+00 -0.00000000000E+00 -0.20763889764E+04  0.20763889764E+04  0.25500000000E-02 0.  1.
    5000001    1    1    2    0    0  0.21118971993E+03 -0.64171729670E+02 -0.78214913249E+03  0.83415848263E+03  0.18800000000E+03 0.  0.
   -5000001    1    1    2    0    0 -0.21118971993E+03  0.64171729670E+02 -0.12516642854E+04  0.12848060523E+04  0.18800000000E+03 0.  0.
<mgrwt>
<rscale>  0 0.59465425E+03</rscale>
<asrwt>0</asrwt>
<pdfrwt beam="1">  1        2 0.29662693E+00 0.59465425E+03</pdfrwt>
<pdfrwt beam="2">  1       -2 0.60822239E-02 0.59465425E+03</pdfrwt>
<totfact> 0.11470543E+03</totfact>
</mgrwt>
</event>
<event>
 4    1  0.6034452E-005  0.4175035E+03  0.7818608E-02  0.1037882E+00
          2   -1    0    0  501    0  0.00000000000E+00  0.00000000000E+00  0.65556472742E+02  0.65556472791E+02  0.25500000000E-02 0.  1.
         -2   -1    0    0    0  501 -0.00000000000E+00 -0.00000000000E+00 -0.66472912594E+03  0.66472912595E+03  0.25500000000E-02 0. -1.
    5000001    1    1    2    0    0  0.88735414859E+02  0.22727938370E+00 -0.33274093356E+03  0.39234494309E+03  0.18800000000E+03 0.  0.
   -5000001    1    1    2    0    0 -0.88735414859E+02 -0.22727938370E+00 -0.26643171964E+03  0.33794065564E+03  0.18800000000E+03 0.  0.
<mgrwt>
<rscale>  0 0.41750352E+03</rscale>
<asrwt>0</asrwt>
<pdfrwt beam="1">  1        2 0.93652108E-02 0.41750352E+03</pdfrwt>
<pdfrwt beam="2">  1       -2 0.94961300E-01 0.41750352E+03</pdfrwt>
<totfact> 0.67773356E+02</totfact>
</mgrwt>
</event>
<event>
 4    1  0.6034452E-005  0.7238259E+03  0.7818608E-02  0.9677332E-01
         -2   -1    0    0    0  501 -0.00000000000E+00  0.00000000000E+00  0.26849342483E+02  0.26849342604E+02  0.25500000000E-02 0. -1.
          2   -1    0    0  501    0  0.00000000000E+00 -0.00000000000E+00 -0.48783683489E+04  0.48783683489E+04  0.25500000000E-02 0.  1.
    5000001    1    1    2    0    0 -0.35356406839E+02  0.28176045774E+03 -0.15958320237E+04  0.16317667967E+04  0.18800000000E+03 0.  0.
   -5000001    1    1    2    0    0  0.35356406839E+02 -0.28176045774E+03 -0.32556869827E+04  0.32734508947E+04  0.18800000000E+03 0.  0.
<mgrwt>
<rscale>  0 0.72382590E+03</rscale>
<asrwt>0</asrwt>
<pdfrwt beam="1">  1        2 0.69690920E+00 0.72382590E+03</pdfrwt>
<pdfrwt beam="2">  1       -2 0.38356235E-02 0.72382590E+03</pdfrwt>
<totfact> 0.40796739E+01</totfact>
</mgrwt>
</event>
<event>
 4    1  0.6034452E-005  0.5353836E+03  0.7818608E-02  0.1004935E+00
          2   -1    0    0  501    0  0.00000000000E+00  0.00000000000E+00  0.18776157069E+03  0.18776157071E+03  0.25500000000E-02 0.  1.
         -2   -1    0    0    0  501 -0.00000000000E+00 -0.00000000000E+00 -0.38164843485E+03  0.38164843486E+03  0.25500000000E-02 0. -1.
    5000001    1    1    2    0    0  0.17274607832E+03  0.46066237505E+02 -0.16710263933E+03  0.30859455258E+03  0.18800000000E+03 0.  0.
   -5000001    1    1    2    0    0 -0.17274607832E+03 -0.46066237505E+02 -0.26784224833E+02  0.26081545298E+03  0.18800000000E+03 0.  0.
<mgrwt>
<rscale>  0 0.53538364E+03</rscale>
<asrwt>0</asrwt>
<pdfrwt beam="1">  1        2 0.26823082E-01 0.53538364E+03</pdfrwt>
<pdfrwt beam="2">  1       -2 0.54521205E-01 0.53538364E+03</pdfrwt>
<totfact> 0.64412937E+02</totfact>
</mgrwt>
</event>
<event>
 4    1  0.6034452E-005  0.7908979E+03  0.7818608E-02  0.9573286E-01
          2   -1    0    0  501    0  0.00000000000E+00  0.00000000000E+00  0.10015669459E+04  0.10015669459E+04  0.25500000000E-02 0.  1.
         -2   -1    0    0    0  501 -0.00000000000E+00 -0.00000000000E+00 -0.15613521075E+03  0.15613521077E+03  0.25500000000E-02 0. -1.
    5000001    1    1    2    0    0 -0.13941598190E+03 -0.31070882317E+03  0.52683057655E+03  0.65488261940E+03  0.18800000000E+03 0.  0.
   -5000001    1    1    2    0    0  0.13941598190E+03  0.31070882317E+03  0.31860115861E+03  0.50281953728E+03  0.18800000000E+03 0.  0.
<mgrwt>
<rscale>  0 0.79089789E+03</rscale>
<asrwt>0</asrwt>
<pdfrwt beam="1">  1        2 0.14308099E+00 0.79089789E+03</pdfrwt>
<pdfrwt beam="2">  1       -2 0.22305030E-01 0.79089789E+03</pdfrwt>
<totfact> 0.49438494E+02</totfact>
</mgrwt>
</event>
<event>
 4    1  0.6034452E-005  0.5721883E+03  0.7818608E-02  0.9964848E-01
          2   -1    0    0  501    0  0.00000000000E+00  0.00000000000E+00  0.55346476597E+03  0.55346476597E+03  0.25500000000E-02 0.  1.
         -2   -1    0    0    0  501 -0.00000000000E+00 -0.00000000000E+00 -0.14788631154E+03  0.14788631156E+03  0.25500000000E-02 0. -1.
    5000001    1    1    2    0    0  0.21163667379E+03  0.41079203077E+02  0.20930757807E+03  0.35444498142E+03  0.18800000000E+03 0.  0.
   -5000001    1    1    2    0    0 -0.21163667379E+03 -0.41079203077E+02  0.19627087636E+03  0.34690609612E+03  0.18800000000E+03 0.  0.
<mgrwt>
<rscale>  0 0.57218830E+03</rscale>
<asrwt>0</asrwt>
<pdfrwt beam="1">  1        2 0.79066396E-01 0.57218830E+03</pdfrwt>
<pdfrwt beam="2">  1       -2 0.21126616E-01 0.57218830E+03</pdfrwt>
<totfact> 0.11572895E+03</totfact>
</mgrwt>
</event>
<event>
 4    1  0.6034452E-005  0.4959400E+03  0.7818608E-02  0.1014844E+00
          2   -1    0    0  501    0  0.00000000000E+00  0.00000000000E+00  0.19475377448E+04  0.19475377448E+04  0.25500000000E-02 0.  1.
         -2   -1    0    0    0  501 -0.00000000000E+00 -0.00000000000E+00 -0.31572744440E+02  0.31572744543E+02  0.25500000000E-02 0. -1.
    5000001    1    1    2    0    0 -0.15606902712E+03 -0.35252327805E+02  0.86483377238E+03  0.89937851969E+03  0.18800000000E+03 0.  0.
   -5000001    1    1    2    0    0  0.15606902712E+03  0.35252327805E+02  0.10511312280E+04  0.10797319696E+04  0.18800000000E+03 0.  0.
<mgrwt>
<rscale>  0 0.49593996E+03</rscale>
<asrwt>0</asrwt>
<pdfrwt beam="1">  1        2 0.27821972E+00 0.49593996E+03</pdfrwt>
<pdfrwt beam="2">  1       -2 0.45103914E-02 0.49593996E+03</pdfrwt>
<totfact> 0.21262927E+03</totfact>
</mgrwt>
</event>
<event>
 4    1  0.6034452E-005  0.7449368E+03  0.7818608E-02  0.9643327E-01
         -2   -1    0    0    0  501 -0.00000000000E+00  0.00000000000E+00  0.25054004618E+03  0.25054004619E+03  0.25500000000E-02 0. -1.
          2   -1    0    0  501    0  0.00000000000E+00 -0.00000000000E+00 -0.55373464827E+03  0.55373464827E+03  0.25500000000E-02 0.  1.
    5000001    1    1    2    0    0  0.13186719304E+03 -0.81296203473E+02 -0.45580467002E+03  0.51681711128E+03  0.18800000000E+03 0.  0.
   -5000001    1    1    2    0    0 -0.13186719304E+03  0.81296203473E+02  0.15261006793E+03  0.28745758319E+03  0.18800000000E+03 0.  0.
<mgrwt>
<rscale>  0 0.74493679E+03</rscale>
<asrwt>0</asrwt>
<pdfrwt beam="1">  1        2 0.79104949E-01 0.74493679E+03</pdfrwt>
<pdfrwt beam="2">  1       -2 0.35791435E-01 0.74493679E+03</pdfrwt>
<totfact> 0.43999592E+02</totfact>
</mgrwt>
</event>
<event>
 4    1  0.6034452E-005  0.5644188E+03  0.7818608E-02  0.9982106E-01
          2   -1    0    0  501    0  0.00000000000E+00  0.00000000000E+00  0.47997386524E+03  0.47997386525E+03  0.25500000000E-02 0.  1.
         -2   -1    0    0    0  501 -0.00000000000E+00 -0.00000000000E+00 -0.16593019603E+03  0.16593019604E+03  0.25500000000E-02 0. -1.
    5000001    1    1    2    0    0 -0.18000385994E+03  0.95970281961E+02  0.21633590749E+03  0.35179100256E+03  0.18800000000E+03 0.  0.
   -5000001    1    1    2    0    0  0.18000385994E+03 -0.95970281961E+02  0.97707761720E+02  0.29411305873E+03  0.18800000000E+03 0.  0.
<mgrwt>
<rscale>  0 0.56441884E+03</rscale>
<asrwt>0</asrwt>
<pdfrwt beam="1">  1        2 0.68567696E-01 0.56441884E+03</pdfrwt>
<pdfrwt beam="2">  1       -2 0.23704314E-01 0.56441884E+03</pdfrwt>
<totfact> 0.11112807E+03</totfact>
</mgrwt>
</event>
<event>
 4    1  0.6034452E-005  0.6292837E+03  0.7818608E-02  0.9846448E-01
         -2   -1    0    0    0  501 -0.00000000000E+00  0.00000000000E+00  0.19383737361E+03  0.19383737362E+03  0.25500000000E-02 0. -1.
          2   -1    0    0  501    0  0.00000000000E+00 -0.00000000000E+00 -0.51073482037E+03  0.51073482038E+03  0.25500000000E-02 0.  1.
    5000001    1    1    2    0    0 -0.22656821510E+03 -0.68413803237E+02 -0.60571993887E+02  0.30826380101E+03  0.18800000000E+03 0.  0.
   -5000001    1    1    2    0    0  0.22656821510E+03  0.68413803237E+02 -0.25632545287E+03  0.39630839299E+03  0.18800000000E+03 0.  0.
<mgrwt>
<rscale>  0 0.62928371E+03</rscale>
<asrwt>0</asrwt>
<pdfrwt beam="1">  1        2 0.72962117E-01 0.62928371E+03</pdfrwt>
<pdfrwt beam="2">  1       -2 0.27691054E-01 0.62928371E+03</pdfrwt>
<totfact> 0.78195407E+02</totfact>
</mgrwt>
</event>
<event>
 4    1  0.6034452E-005  0.7706686E+03  0.7818608E-02  0.9603471E-01
          2   -1    0    0  501    0  0.00000000000E+00  0.00000000000E+00  0.25129132338E+04  0.25129132338E+04  0.25500000000E-02 0.  1.
         -2   -1    0    0    0  501 -0.00000000000E+00 -0.00000000000E+00 -0.59087796362E+02  0.59087796417E+02  0.25500000000E-02 0. -1.
    5000001    1    1    2    0    0  0.28065868992E+03 -0.18507597126E+03  0.12628711857E+04  0.13203068003E+04  0.18800000000E+03 0.  0.
   -5000001    1    1    2    0    0 -0.28065868992E+03  0.18507597126E+03  0.11909542517E+04  0.12516942298E+04  0.18800000000E+03 0.  0.
<mgrwt>
<rscale>  0 0.77066856E+03</rscale>
<asrwt>0</asrwt>
<pdfrwt beam="1">  1        2 0.35898757E+00 0.77066856E+03</pdfrwt>
<pdfrwt beam="2">  1       -2 0.84411146E-02 0.77066856E+03</pdfrwt>
<totfact> 0.40399821E+02</totfact>
</mgrwt>
</event>
<event>
 4    1  0.6034452E-005  0.1001238E+04  0.7818608E-02  0.9307188E-01
         -2   -1    0    0    0  501 -0.00000000000E+00  0.00000000000E+00  0.26825348828E+03  0.26825348829E+03  0.25500000000E-02 0. -1.
          2   -1    0    0  501    0  0.00000000000E+00 -0.00000000000E+00 -0.93426413356E+03  0.93426413357E+03  0.25500000000E-02 0.  1.
    5000001    1    1    2    0    0 -0.20647142019E+03  0.21980400387E+03  0.90485767605E+02  0.36670958756E+03  0.18800000000E+03 0.  0.
   -5000001    1    1    2    0    0  0.20647142019E+03 -0.21980400387E+03 -0.75649641289E+03  0.83580803429E+03  0.18800000000E+03 0.  0.
<mgrwt>
<rscale>  0 0.10012385E+04</rscale>
<asrwt>0</asrwt>
<pdfrwt beam="1">  1        2 0.13346630E+00 0.10012385E+04</pdfrwt>
<pdfrwt beam="2">  1       -2 0.38321927E-01 0.10012385E+04</pdfrwt>
<totfact> 0.19799373E+02</totfact>
</mgrwt>
</event>
<event>
 4    1  0.6034452E-005  0.7203697E+03  0.7818608E-02  0.9683018E-01
          2   -1    0    0  501    0  0.00000000000E+00  0.00000000000E+00  0.75172421296E+03  0.75172421297E+03  0.25500000000E-02 0.  1.
         -2   -1    0    0    0  501 -0.00000000000E+00 -0.00000000000E+00 -0.17258072358E+03  0.17258072360E+03  0.25500000000E-02 0. -1.
    5000001    1    1    2    0    0  0.25682730961E+03 -0.14550688382E+03  0.39887324170E+03  0.53063771365E+03  0.18800000000E+03 0.  0.
   -5000001    1    1    2    0    0 -0.25682730961E+03  0.14550688382E+03  0.18027024768E+03  0.39366722292E+03  0.18800000000E+03 0.  0.
<mgrwt>
<rscale>  0 0.72036965E+03</rscale>
<asrwt>0</asrwt>
<pdfrwt beam="1">  1        2 0.10738917E+00 0.72036965E+03</pdfrwt>
<pdfrwt beam="2">  1       -2 0.24654389E-01 0.72036965E+03</pdfrwt>
<totfact> 0.60716569E+02</totfact>
</mgrwt>
</event>
<event>
 4    1  0.6034452E-005  0.6220294E+03  0.7818608E-02  0.9860727E-01
         -2   -1    0    0    0  501 -0.00000000000E+00  0.00000000000E+00  0.54164422635E+02  0.54164422695E+02  0.25500000000E-02 0. -1.
          2   -1    0    0  501    0  0.00000000000E+00 -0.00000000000E+00 -0.17858613729E+04  0.17858613729E+04  0.25500000000E-02 0.  1.
    5000001    1    1    2    0    0  0.21700189857E+03  0.88166871277E+02 -0.11047584662E+04  0.11448574102E+04  0.18800000000E+03 0.  0.
   -5000001    1    1    2    0    0 -0.21700189857E+03 -0.88166871277E+02 -0.62693848404E+03  0.69516838532E+03  0.18800000000E+03 0.  0.
<mgrwt>
<rscale>  0 0.62202942E+03</rscale>
<asrwt>0</asrwt>
<pdfrwt beam="1">  1        2 0.25512302E+00 0.62202942E+03</pdfrwt>
<pdfrwt beam="2">  1       -2 0.77377757E-02 0.62202942E+03</pdfrwt>
<totfact> 0.10966875E+03</totfact>
</mgrwt>
</event>
<event>
 4    1  0.6034452E-005  0.6471420E+03  0.7818608E-02  0.9812157E-01
         -2   -1    0    0    0  501 -0.00000000000E+00  0.00000000000E+00  0.15531310212E+03  0.15531310214E+03  0.25500000000E-02 0. -1.
          2   -1    0    0  501    0  0.00000000000E+00 -0.00000000000E+00 -0.67411040276E+03  0.67411040276E+03  0.25500000000E-02 0.  1.
    5000001    1    1    2    0    0  0.24885355811E+03 -0.77734626461E+02 -0.21172783309E+03  0.38489406444E+03  0.18800000000E+03 0.  0.
   -5000001    1    1    2    0    0 -0.24885355811E+03  0.77734626461E+02 -0.30706946755E+03  0.44452944046E+03  0.18800000000E+03 0.  0.
<mgrwt>
<rscale>  0 0.64714196E+03</rscale>
<asrwt>0</asrwt>
<pdfrwt beam="1">  1        2 0.96301485E-01 0.64714196E+03</pdfrwt>
<pdfrwt beam="2">  1       -2 0.22187586E-01 0.64714196E+03</pdfrwt>
<totfact> 0.83984941E+02</totfact>
</mgrwt>
</event>
<event>
 4    1  0.6034452E-005  0.8679756E+03  0.7818608E-02  0.9466523E-01
         -2   -1    0    0    0  501 -0.00000000000E+00  0.00000000000E+00  0.13111062689E+03  0.13111062691E+03  0.25500000000E-02 0. -1.
          2   -1    0    0  501    0  0.00000000000E+00 -0.00000000000E+00 -0.14365381409E+04  0.14365381409E+04  0.25500000000E-02 0.  1.
    5000001    1    1    2    0    0 -0.35777245633E+03  0.91157814272E+02 -0.88604689307E+03  0.97812779038E+03  0.18800000000E+03 0.  0.
   -5000001    1    1    2    0    0  0.35777245633E+03 -0.91157814272E+02 -0.41938062096E+03  0.58952097745E+03  0.18800000000E+03 0.  0.
<mgrwt>
<rscale>  0 0.86797561E+03</rscale>
<asrwt>0</asrwt>
<pdfrwt beam="1">  1        2 0.20521973E+00 0.86797561E+03</pdfrwt>
<pdfrwt beam="2">  1       -2 0.18730090E-01 0.86797561E+03</pdfrwt>
<totfact> 0.37957829E+02</totfact>
</mgrwt>
</event>
<event>
 4    1  0.6034452E-005  0.5618279E+03  0.7818608E-02  0.9987927E-01
          2   -1    0    0  501    0  0.00000000000E+00  0.00000000000E+00  0.80917773750E+03  0.80917773750E+03  0.25500000000E-02 0. -1.
         -2   -1    0    0    0  501 -0.00000000000E+00 -0.00000000000E+00 -0.97522022697E+02  0.97522022730E+02  0.25500000000E-02 0.  1.
    5000001    1    1    2    0    0 -0.49419279847E+01  0.19891331389E+03  0.45761134539E+03  0.53323828869E+03  0.18800000000E+03 0.  0.
   -5000001    1    1    2    0    0  0.49419279847E+01 -0.19891331389E+03  0.25404436941E+03  0.37346147154E+03  0.18800000000E+03 0.  0.
<mgrwt>
<rscale>  0 0.56182791E+03</rscale>
<asrwt>0</asrwt>
<pdfrwt beam="1">  1        2 0.11559682E+00 0.56182791E+03</pdfrwt>
<pdfrwt beam="2">  1       -2 0.13931717E-01 0.56182791E+03</pdfrwt>
<totfact> 0.14884054E+03</totfact>
</mgrwt>
</event>
<event>
 4    1  0.6034452E-005  0.6574232E+03  0.7818608E-02  0.9792949E-01
          2   -1    0    0  501    0  0.00000000000E+00  0.00000000000E+00  0.80044324671E+03  0.80044324671E+03  0.25500000000E-02 0.  1.
         -2   -1    0    0    0  501 -0.00000000000E+00 -0.00000000000E+00 -0.13498933821E+03  0.13498933824E+03  0.25500000000E-02 0. -1.
    5000001    1    1    2    0    0 -0.17940692871E+03 -0.20000707556E+03  0.36509945857E+03  0.49074564796E+03  0.18800000000E+03 0.  0.
   -5000001    1    1    2    0    0  0.17940692871E+03  0.20000707556E+03  0.30035444993E+03  0.44468693699E+03  0.18800000000E+03 0.  0.
<mgrwt>
<rscale>  0 0.65742316E+03</rscale>
<asrwt>0</asrwt>
<pdfrwt beam="1">  1        2 0.11434904E+00 0.65742316E+03</pdfrwt>
<pdfrwt beam="2">  1       -2 0.19284190E-01 0.65742316E+03</pdfrwt>
<totfact> 0.86671256E+02</totfact>
</mgrwt>
</event>
<event>
 4    1  0.6034452E-005  0.5093536E+03  0.7818608E-02  0.1011366E+00
         -2   -1    0    0    0  501 -0.00000000000E+00  0.00000000000E+00  0.39641198668E+02  0.39641198750E+02  0.25500000000E-02 0. -1.
          2   -1    0    0  501    0  0.00000000000E+00 -0.00000000000E+00 -0.16361836318E+04  0.16361836318E+04  0.25500000000E-02 0.  1.
    5000001    1    1    2    0    0  0.99833639083E+02  0.13981575740E+03 -0.79485367575E+03  0.83465655653E+03  0.18800000000E+03 0.  0.
   -5000001    1    1    2    0    0 -0.99833639083E+02 -0.13981575740E+03 -0.80168875742E+03  0.84116827406E+03  0.18800000000E+03 0.  0.
<mgrwt>
<rscale>  0 0.50935363E+03</rscale>
<asrwt>0</asrwt>
<pdfrwt beam="1">  1        2 0.23374048E+00 0.50935363E+03</pdfrwt>
<pdfrwt beam="2">  1       -2 0.56630294E-02 0.50935363E+03</pdfrwt>
<totfact> 0.21435802E+03</totfact>
</mgrwt>
</event>
<event>
 4    1  0.6034452E-005  0.9055854E+03  0.7818608E-02  0.9418626E-01
          2   -1    0    0  501    0  0.00000000000E+00  0.00000000000E+00  0.77102292211E+03  0.77102292211E+03  0.25500000000E-02 0.  1.
         -2   -1    0    0    0  501 -0.00000000000E+00 -0.00000000000E+00 -0.26590809963E+03  0.26590809965E+03  0.25500000000E-02 0. -1.
    5000001    1    1    2    0    0  0.19090315896E+02 -0.28691751063E+03  0.59027832818E+03  0.68297774692E+03  0.18800000000E+03 0.  0.
   -5000001    1    1    2    0    0 -0.19090315896E+02  0.28691751063E+03 -0.85163505705E+02  0.35395327484E+03  0.18800000000E+03 0.  0.
<mgrwt>
<rscale>  0 0.90558542E+03</rscale>
<asrwt>0</asrwt>
<pdfrwt beam="1">  1        2 0.11014613E+00 0.90558542E+03</pdfrwt>
<pdfrwt beam="2">  1       -2 0.37986872E-01 0.90558542E+03</pdfrwt>
<totfact> 0.26092238E+02</totfact>
</mgrwt>
</event>
<event>
 4    1  0.6034452E-005  0.6426500E+03  0.7818608E-02  0.9820670E-01
          2   -1    0    0  501    0  0.00000000000E+00  0.00000000000E+00  0.85465448190E+03  0.85465448191E+03  0.25500000000E-02 0.  1.
         -2   -1    0    0    0  501 -0.00000000000E+00 -0.00000000000E+00 -0.12080875663E+03  0.12080875666E+03  0.25500000000E-02 0. -1.
    5000001    1    1    2    0    0  0.13651303663E+03  0.19214749898E+03  0.19824536710E+03  0.36083472132E+03  0.18800000000E+03 0.  0.
   -5000001    1    1    2    0    0 -0.13651303663E+03 -0.19214749898E+03  0.53560035818E+03  0.61462851725E+03  0.18800000000E+03 0.  0.
<mgrwt>
<rscale>  0 0.64264997E+03</rscale>
<asrwt>0</asrwt>
<pdfrwt beam="1">  1        2 0.12209350E+00 0.64264997E+03</pdfrwt>
<pdfrwt beam="2">  1       -2 0.17258394E-01 0.64264997E+03</pdfrwt>
<totfact> 0.96429823E+02</totfact>
</mgrwt>
</event>
<event>
 4    1  0.6034452E-005  0.7229434E+03  0.7818608E-02  0.9678781E-01
          2   -1    0    0  501    0  0.00000000000E+00  0.00000000000E+00  0.22092300226E+03  0.22092300228E+03  0.25500000000E-02 0.  1.
         -2   -1    0    0    0  501 -0.00000000000E+00 -0.00000000000E+00 -0.59143584807E+03  0.59143584807E+03  0.25500000000E-02 0. -1.
    5000001    1    1    2    0    0  0.11379329218E+03 -0.25778173259E+02  0.13593669768E+03  0.25968483463E+03  0.18800000000E+03 0.  0.
   -5000001    1    1    2    0    0 -0.11379329218E+03  0.25778173259E+02 -0.50644954348E+03  0.55267401572E+03  0.18800000000E+03 0.  0.
<mgrwt>
<rscale>  0 0.72294338E+03</rscale>
<asrwt>0</asrwt>
<pdfrwt beam="1">  1        2 0.31560429E-01 0.72294338E+03</pdfrwt>
<pdfrwt beam="2">  1       -2 0.84490835E-01 0.72294338E+03</pdfrwt>
<totfact> 0.20716130E+02</totfact>
</mgrwt>
</event>
<event>
 4    1  0.6034452E-005  0.7115558E+03  0.7818608E-02  0.9697672E-01
         -2   -1    0    0    0  501 -0.00000000000E+00  0.00000000000E+00  0.57092363650E+02  0.57092363707E+02  0.25500000000E-02 0. -1.
          2   -1    0    0  501    0  0.00000000000E+00 -0.00000000000E+00 -0.22170727448E+04  0.22170727448E+04  0.25500000000E-02 0.  1.
    5000001    1    1    2    0    0  0.28851088177E+03 -0.89380766087E+02 -0.10718586522E+04  0.11293592965E+04  0.18800000000E+03 0.  0.
   -5000001    1    1    2    0    0 -0.28851088177E+03  0.89380766087E+02 -0.10881217289E+04  0.11448058120E+04  0.18800000000E+03 0.  0.
<mgrwt>
<rscale>  0 0.71155583E+03</rscale>
<asrwt>0</asrwt>
<pdfrwt beam="1">  1        2 0.31672462E+00 0.71155583E+03</pdfrwt>
<pdfrwt beam="2">  1       -2 0.81560533E-02 0.71155583E+03</pdfrwt>
<totfact> 0.60758428E+02</totfact>
</mgrwt>
</event>
<event>
 4    1  0.6034452E-005  0.7163911E+03  0.7818608E-02  0.9689605E-01
          2   -1    0    0  501    0  0.00000000000E+00  0.00000000000E+00  0.98762382532E+03  0.98762382533E+03  0.25500000000E-02 0.  1.
         -2   -1    0    0    0  501 -0.00000000000E+00 -0.00000000000E+00 -0.12991186386E+03  0.12991186389E+03  0.25500000000E-02 0. -1.
    5000001    1    1    2    0    0  0.11180225644E+03  0.19405724986E+03  0.10612272898E+03  0.31106911511E+03  0.18800000000E+03 0.  0.
   -5000001    1    1    2    0    0 -0.11180225644E+03 -0.19405724986E+03  0.75158923248E+03  0.80646657411E+03  0.18800000000E+03 0.  0.
<mgrwt>
<rscale>  0 0.71639110E+03</rscale>
<asrwt>0</asrwt>
<pdfrwt beam="1">  1        2 0.14108911E+00 0.71639110E+03</pdfrwt>
<pdfrwt beam="2">  1       -2 0.18558838E-01 0.71639110E+03</pdfrwt>
<totfact> 0.69794815E+02</totfact>
</mgrwt>
</event>
<event>
 4    1  0.6034452E-005  0.6053893E+03  0.7818608E-02  0.9894288E-01
         -2   -1    0    0    0  501 -0.00000000000E+00  0.00000000000E+00  0.13969260523E+03  0.13969260526E+03  0.25500000000E-02 0. -1.
          2   -1    0    0  501    0  0.00000000000E+00 -0.00000000000E+00 -0.65589764811E+03  0.65589764812E+03  0.25500000000E-02 0.  1.
    5000001    1    1    2    0    0 -0.51638567271E+02 -0.22018169593E+03 -0.16394331672E+03  0.33670154729E+03  0.18800000000E+03 0.  0.
   -5000001    1    1    2    0    0  0.51638567271E+02  0.22018169593E+03 -0.35226172616E+03  0.45888870608E+03  0.18800000000E+03 0.  0.
<mgrwt>
<rscale>  0 0.60538930E+03</rscale>
<asrwt>0</asrwt>
<pdfrwt beam="1">  1        2 0.93699662E-01 0.60538930E+03</pdfrwt>
<pdfrwt beam="2">  1       -2 0.19956087E-01 0.60538930E+03</pdfrwt>
<totfact> 0.10463591E+03</totfact>
</mgrwt>
</event>
<event>
 4    1  0.6034452E-005  0.4961898E+03  0.7818608E-02  0.1014778E+00
         -2   -1    0    0    0  501 -0.00000000000E+00  0.00000000000E+00  0.24275163754E+03  0.24275163755E+03  0.25500000000E-02 0. -1.
          2   -1    0    0  501    0  0.00000000000E+00 -0.00000000000E+00 -0.25355578328E+03  0.25355578329E+03  0.25500000000E-02 0.  1.
    5000001    1    1    2    0    0  0.16221009797E+02 -0.15968404912E+03  0.15697118302E+02  0.24769440087E+03  0.18800000000E+03 0.  0.
   -5000001    1    1    2    0    0 -0.16221009797E+02  0.15968404912E+03 -0.26501264048E+02  0.24861301997E+03  0.18800000000E+03 0.  0.
<mgrwt>
<rscale>  0 0.49618981E+03</rscale>
<asrwt>0</asrwt>
<pdfrwt beam="1">  1        2 0.36222255E-01 0.49618981E+03</pdfrwt>
<pdfrwt beam="2">  1       -2 0.34678806E-01 0.49618981E+03</pdfrwt>
<totfact> 0.11220325E+03</totfact>
</mgrwt>
</event>
<event>
 4    1  0.6034452E-005  0.5288055E+03  0.7818608E-02  0.1006522E+00
         -2   -1    0    0    0  501 -0.00000000000E+00  0.00000000000E+00  0.47313824153E+02  0.47313824222E+02  0.25500000000E-02 0. -1.
          2   -1    0    0  501    0  0.00000000000E+00 -0.00000000000E+00 -0.14775556468E+04  0.14775556468E+04  0.25500000000E-02 0.  1.
    5000001    1    1    2    0    0 -0.46179564855E+02 -0.18008618160E+03 -0.71830999990E+03  0.76542592128E+03  0.18800000000E+03 0.  0.
   -5000001    1    1    2    0    0  0.46179564855E+02  0.18008618160E+03 -0.71193182279E+03  0.75944354979E+03  0.18800000000E+03 0.  0.
<mgrwt>
<rscale>  0 0.52880548E+03</rscale>
<asrwt>0</asrwt>
<pdfrwt beam="1">  1        2 0.21107935E+00 0.52880548E+03</pdfrwt>
<pdfrwt beam="2">  1       -2 0.67591187E-02 0.52880548E+03</pdfrwt>
<totfact> 0.19604086E+03</totfact>
</mgrwt>
</event>
<event>
 4    1  0.6034452E-005  0.4796319E+03  0.7818608E-02  0.1019236E+00
         -2   -1    0    0    0  501 -0.00000000000E+00  0.00000000000E+00  0.39898882532E+02  0.39898882613E+02  0.25500000000E-02 0. -1.
          2   -1    0    0  501    0  0.00000000000E+00 -0.00000000000E+00 -0.14414359061E+04  0.14414359061E+04  0.25500000000E-02 0.  1.
    5000001    1    1    2    0    0 -0.12652409817E+03 -0.40110737756E+02 -0.90910867407E+03  0.93778451681E+03  0.18800000000E+03 0.  0.
   -5000001    1    1    2    0    0  0.12652409817E+03  0.40110737756E+02 -0.49242834951E+03  0.54355027192E+03  0.18800000000E+03 0.  0.
<mgrwt>
<rscale>  0 0.47963187E+03</rscale>
<asrwt>0</asrwt>
<pdfrwt beam="1">  1        2 0.20591938E+00 0.47963187E+03</pdfrwt>
<pdfrwt beam="2">  1       -2 0.56998413E-02 0.47963187E+03</pdfrwt>
<totfact> 0.26747395E+03</totfact>
</mgrwt>
</event>
<event>
 4    1  0.6034452E-005  0.5401385E+03  0.7818608E-02  0.1003803E+00
         -2   -1    0    0    0  501 -0.00000000000E+00  0.00000000000E+00  0.21091832572E+03  0.21091832573E+03  0.25500000000E-02 0. -1.
          2   -1    0    0  501    0  0.00000000000E+00 -0.00000000000E+00 -0.34580879759E+03  0.34580879760E+03  0.25500000000E-02 0.  1.
    5000001    1    1    2    0    0 -0.34195923892E+02 -0.18733539981E+03 -0.29863115677E+02  0.26925771838E+03  0.18800000000E+03 0.  0.
   -5000001    1    1    2    0    0  0.34195923892E+02  0.18733539981E+03 -0.10502735620E+03  0.28746940495E+03  0.18800000000E+03 0.  0.
<mgrwt>
<rscale>  0 0.54013855E+03</rscale>
<asrwt>0</asrwt>
<pdfrwt beam="1">  1        2 0.49401257E-01 0.54013855E+03</pdfrwt>
<pdfrwt beam="2">  1       -2 0.30131189E-01 0.54013855E+03</pdfrwt>
<totfact> 0.10363408E+03</totfact>
</mgrwt>
</event>
<event>
 4    1  0.6034452E-005  0.5296362E+03  0.7818608E-02  0.1006320E+00
          2   -1    0    0  501    0  0.00000000000E+00  0.00000000000E+00  0.14162703477E+04  0.14162703477E+04  0.25500000000E-02 0.  1.
         -2   -1    0    0    0  501 -0.00000000000E+00 -0.00000000000E+00 -0.49516404004E+02  0.49516404070E+02  0.25500000000E-02 0. -1.
    5000001    1    1    2    0    0 -0.17622566466E+03  0.51932184222E+02  0.77229104210E+03  0.81580015344E+03  0.18800000000E+03 0.  0.
   -5000001    1    1    2    0    0  0.17622566466E+03 -0.51932184222E+02  0.59446290163E+03  0.64998659837E+03  0.18800000000E+03 0.  0.
<mgrwt>
<rscale>  0 0.52963616E+03</rscale>
<asrwt>0</asrwt>
<pdfrwt beam="1">  1        2 0.20232433E+00 0.52963616E+03</pdfrwt>
<pdfrwt beam="2">  1       -2 0.70737723E-02 0.52963616E+03</pdfrwt>
<totfact> 0.19647998E+03</totfact>
</mgrwt>
</event>
<event>
 4    1  0.6034452E-005  0.7155890E+03  0.7818608E-02  0.9690938E-01
          2   -1    0    0  501    0  0.00000000000E+00  0.00000000000E+00  0.88095268155E+03  0.88095268155E+03  0.25500000000E-02 0.  1.
         -2   -1    0    0    0  501 -0.00000000000E+00 -0.00000000000E+00 -0.14531642658E+03  0.14531642661E+03  0.25500000000E-02 0. -1.
    5000001    1    1    2    0    0  0.81289475512E+00  0.29660727165E+03  0.26953513645E+03  0.44268467804E+03  0.18800000000E+03 0.  0.
   -5000001    1    1    2    0    0 -0.81289475512E+00 -0.29660727165E+03  0.46610111852E+03  0.58358443012E+03  0.18800000000E+03 0.  0.
<mgrwt>
<rscale>  0 0.71558898E+03</rscale>
<asrwt>0</asrwt>
<pdfrwt beam="1">  1        2 0.12585039E+00 0.71558898E+03</pdfrwt>
<pdfrwt beam="2">  1       -2 0.20759489E-01 0.71558898E+03</pdfrwt>
<totfact> 0.67122708E+02</totfact>
</mgrwt>
</event>
<event>
 4    1  0.6034452E-005  0.8786209E+03  0.7818608E-02  0.9452708E-01
          2   -1    0    0  501    0  0.00000000000E+00  0.00000000000E+00  0.24136425209E+04  0.24136425209E+04  0.25500000000E-02 0.  1.
         -2   -1    0    0    0  501 -0.00000000000E+00 -0.00000000000E+00 -0.79959501533E+02  0.79959501573E+02  0.25500000000E-02 0. -1.
    5000001    1    1    2    0    0  0.19411686844E+03 -0.98170554379E+02  0.21095427711E+04  0.21290452131E+04  0.18800000000E+03 0.  0.
   -5000001    1    1    2    0    0 -0.19411686844E+03  0.98170554379E+02  0.22414024826E+03  0.36455680936E+03  0.18800000000E+03 0.  0.
<mgrwt>
<rscale>  0 0.87862086E+03</rscale>
<asrwt>0</asrwt>
<pdfrwt beam="1">  1        2 0.34480598E+00 0.87862086E+03</pdfrwt>
<pdfrwt beam="2">  1       -2 0.11422789E-01 0.87862086E+03</pdfrwt>
<totfact> 0.27545413E+02</totfact>
</mgrwt>
</event>
<event>
 4    1  0.6034452E-005  0.8075129E+03  0.7818608E-02  0.9549206E-01
         -2   -1    0    0    0  501 -0.00000000000E+00  0.00000000000E+00  0.16632828479E+03  0.16632828481E+03  0.25500000000E-02 0. -1.
          2   -1    0    0  501    0  0.00000000000E+00 -0.00000000000E+00 -0.98010557891E+03  0.98010557891E+03  0.25500000000E-02 0.  1.
    5000001    1    1    2    0    0 -0.23625686728E+03  0.21914531380E+03 -0.62606396795E+03  0.72879494226E+03  0.18800000000E+03 0.  0.
   -5000001    1    1    2    0    0  0.23625686728E+03 -0.21914531380E+03 -0.18771332617E+03  0.41763892146E+03  0.18800000000E+03 0.  0.
<mgrwt>
<rscale>  0 0.80751292E+03</rscale>
<asrwt>0</asrwt>
<pdfrwt beam="1">  1        2 0.14001508E+00 0.80751292E+03</pdfrwt>
<pdfrwt beam="2">  1       -2 0.23761184E-01 0.80751292E+03</pdfrwt>
<totfact> 0.45504895E+02</totfact>
</mgrwt>
</event>
<event>
 4    1  0.6034452E-005  0.4604478E+03  0.7818608E-02  0.1024651E+00
          2   -1    0    0  501    0  0.00000000000E+00  0.00000000000E+00  0.17958310720E+03  0.17958310722E+03  0.25500000000E-02 0.  1.
         -2   -1    0    0    0  501 -0.00000000000E+00 -0.00000000000E+00 -0.29514498228E+03  0.29514498230E+03  0.25500000000E-02 0. -1.
    5000001    1    1    2    0    0 -0.42425452438E+02  0.12545037806E+03 -0.46424020462E+02  0.23459945875E+03  0.18800000000E+03 0.  0.
   -5000001    1    1    2    0    0  0.42425452438E+02 -0.12545037806E+03 -0.69137854625E+02  0.24012863076E+03  0.18800000000E+03 0.  0.
<mgrwt>
<rscale>  0 0.46044784E+03</rscale>
<asrwt>0</asrwt>
<pdfrwt beam="1">  1        2 0.25654730E-01 0.46044784E+03</pdfrwt>
<pdfrwt beam="2">  1       -2 0.42163568E-01 0.46044784E+03</pdfrwt>
<totfact> 0.11335574E+03</totfact>
</mgrwt>
</event>
<event>
 4    1  0.6034452E-005  0.1041500E+04  0.7818608E-02  0.9264164E-01
         -2   -1    0    0    0  501 -0.00000000000E+00  0.00000000000E+00  0.11788650303E+03  0.11788650306E+03  0.25500000000E-02 0. -1.
          2   -1    0    0  501    0  0.00000000000E+00 -0.00000000000E+00 -0.23003547900E+04  0.23003547900E+04  0.25500000000E-02 0.  1.
    5000001    1    1    2    0    0  0.33103718155E+02 -0.47613029913E+03 -0.12994393292E+04  0.13970263019E+04  0.18800000000E+03 0.  0.
   -5000001    1    1    2    0    0 -0.33103718155E+02  0.47613029913E+03 -0.88302895770E+03  0.10212149911E+04  0.18800000000E+03 0.  0.
<mgrwt>
<rscale>  0 0.10415004E+04</rscale>
<asrwt>0</asrwt>
<pdfrwt beam="1">  1        2 0.32862208E+00 0.10415004E+04</pdfrwt>
<pdfrwt beam="2">  1       -2 0.16840931E-01 0.10415004E+04</pdfrwt>
<totfact> 0.16185769E+02</totfact>
</mgrwt>
</event>
<event>
 4    1  0.6034452E-005  0.6252919E+03  0.7818608E-02  0.9854280E-01
          2   -1    0    0  501    0  0.00000000000E+00  0.00000000000E+00  0.39866727055E+04  0.39866727055E+04  0.25500000000E-02 0.  1.
         -2   -1    0    0    0  501 -0.00000000000E+00 -0.00000000000E+00 -0.24518560800E+02  0.24518560933E+02  0.25500000000E-02 0. -1.
    5000001    1    1    2    0    0 -0.24672045465E+03 -0.36710300198E+00  0.22321911053E+04  0.22536397778E+04  0.18800000000E+03 0.  0.
   -5000001    1    1    2    0    0  0.24672045465E+03  0.36710300198E+00  0.17299630394E+04  0.17575514886E+04  0.18800000000E+03 0.  0.
<mgrwt>
<rscale>  0 0.62529186E+03</rscale>
<asrwt>0</asrwt>
<pdfrwt beam="1">  1        2 0.56952434E+00 0.62529186E+03</pdfrwt>
<pdfrwt beam="2">  1       -2 0.35026536E-02 0.62529186E+03</pdfrwt>
<totfact> 0.22994217E+02</totfact>
</mgrwt>
</event>
<event>
 4    1  0.6034452E-005  0.5113893E+03  0.7818608E-02  0.1010848E+00
         -2   -1    0    0    0  501 -0.00000000000E+00  0.00000000000E+00  0.29837107285E+02  0.29837107394E+02  0.25500000000E-02 0. -1.
          2   -1    0    0  501    0  0.00000000000E+00 -0.00000000000E+00 -0.21912229297E+04  0.21912229297E+04  0.25500000000E-02 0.  1.
    5000001    1    1    2    0    0 -0.10326454821E+03 -0.36618226136E+02 -0.16638990540E+04  0.16780669007E+04  0.18800000000E+03 0.  0.
   -5000001    1    1    2    0    0  0.10326454821E+03  0.36618226136E+02 -0.49748676846E+03  0.54299313641E+03  0.18800000000E+03 0.  0.
<mgrwt>
<rscale>  0 0.51138930E+03</rscale>
<asrwt>0</asrwt>
<pdfrwt beam="1">  1        2 0.31303175E+00 0.51138930E+03</pdfrwt>
<pdfrwt beam="2">  1       -2 0.42624453E-02 0.51138930E+03</pdfrwt>
<totfact> 0.17512068E+03</totfact>
</mgrwt>
</event>
<event>
 4    1  0.6034452E-005  0.6853770E+03  0.7818608E-02  0.9742571E-01
         -2   -1    0    0    0  501 -0.00000000000E+00  0.00000000000E+00  0.53756519842E+03  0.53756519842E+03  0.25500000000E-02 0. -1.
          2   -1    0    0  501    0  0.00000000000E+00 -0.00000000000E+00 -0.21845798520E+03  0.21845798522E+03  0.25500000000E-02 0.  1.
    5000001    1    1    2    0    0  0.28199799343E+03 -0.47061596837E+02  0.18030047561E+03  0.38676856607E+03  0.18800000000E+03 0.  0.
   -5000001    1    1    2    0    0 -0.28199799343E+03  0.47061596837E+02  0.13880673761E+03  0.36925461757E+03  0.18800000000E+03 0.  0.
<mgrwt>
<rscale>  0 0.68537701E+03</rscale>
<asrwt>0</asrwt>
<pdfrwt beam="1">  1        2 0.31208284E-01 0.68537701E+03</pdfrwt>
<pdfrwt beam="2">  1       -2 0.76795028E-01 0.68537701E+03</pdfrwt>
<totfact> 0.26030876E+02</totfact>
</mgrwt>
</event>
<event>
 4    1  0.6034452E-005  0.7031151E+03  0.7818608E-02  0.9711920E-01
          2   -1    0    0  501    0  0.00000000000E+00  0.00000000000E+00  0.22956746356E+04  0.22956746356E+04  0.25500000000E-02 0. -1.
         -2   -1    0    0    0  501 -0.00000000000E+00 -0.00000000000E+00 -0.53837208896E+02  0.53837208957E+02  0.25500000000E-02 0.  1.
    5000001    1    1    2    0    0 -0.12886658240E+01  0.28752595461E+03  0.87139725128E+03  0.93666963480E+03  0.18800000000E+03 0.  0.
   -5000001    1    1    2    0    0  0.12886658240E+01 -0.28752595461E+03  0.13704401754E+04  0.14128422097E+04  0.18800000000E+03 0.  0.
<mgrwt>
<rscale>  0 0.70311511E+03</rscale>
<asrwt>0</asrwt>
<pdfrwt beam="1">  1        2 0.32795348E+00 0.70311511E+03</pdfrwt>
<pdfrwt beam="2">  1       -2 0.76910309E-02 0.70311511E+03</pdfrwt>
<totfact> 0.60912063E+02</totfact>
</mgrwt>
</event>
<event>
 4    1  0.6034452E-005  0.5118501E+03  0.7818608E-02  0.1010731E+00
         -2   -1    0    0    0  501 -0.00000000000E+00  0.00000000000E+00  0.88171780930E+02  0.88171780967E+02  0.25500000000E-02 0. -1.
          2   -1    0    0  501    0  0.00000000000E+00 -0.00000000000E+00 -0.74284108032E+03  0.74284108033E+03  0.25500000000E-02 0.  1.
    5000001    1    1    2    0    0  0.36410539986E+02 -0.16416941384E+03 -0.39766063031E+03  0.47090901537E+03  0.18800000000E+03 0.  0.
   -5000001    1    1    2    0    0 -0.36410539986E+02  0.16416941384E+03 -0.25700866908E+03  0.36010384592E+03  0.18800000000E+03 0.  0.
<mgrwt>
<rscale>  0 0.51185006E+03</rscale>
<asrwt>0</asrwt>
<pdfrwt beam="1">  1        2 0.10612015E+00 0.51185006E+03</pdfrwt>
<pdfrwt beam="2">  1       -2 0.12595969E-01 0.51185006E+03</pdfrwt>
<totfact> 0.19595782E+03</totfact>
</mgrwt>
</event>
<event>
 4    1  0.6034452E-005  0.5822909E+03  0.7818608E-02  0.9942844E-01
         -2   -1    0    0    0  501 -0.00000000000E+00  0.00000000000E+00  0.57244487632E+03  0.57244487633E+03  0.25500000000E-02 0. -1.
          2   -1    0    0  501    0  0.00000000000E+00 -0.00000000000E+00 -0.14807655975E+03  0.14807655977E+03  0.25500000000E-02 0.  1.
    5000001    1    1    2    0    0 -0.14855442648E+03 -0.16048554688E+03  0.16272504589E+03  0.33113059198E+03  0.18800000000E+03 0.  0.
   -5000001    1    1    2    0    0  0.14855442648E+03  0.16048554688E+03  0.26164327069E+03  0.38939084412E+03  0.18800000000E+03 0.  0.
<mgrwt>
<rscale>  0 0.58229088E+03</rscale>
<asrwt>0</asrwt>
<pdfrwt beam="1">  1        2 0.21153794E-01 0.58229088E+03</pdfrwt>
<pdfrwt beam="2">  1       -2 0.81777839E-01 0.58229088E+03</pdfrwt>
<totfact> 0.35355473E+02</totfact>
</mgrwt>
</event>
<event>
 4    1  0.6034452E-005  0.5478919E+03  0.7818608E-02  0.1001983E+00
          2   -1    0    0  501    0  0.00000000000E+00  0.00000000000E+00  0.50977709821E+03  0.50977709822E+03  0.25500000000E-02 0.  1.
         -2   -1    0    0    0  501 -0.00000000000E+00 -0.00000000000E+00 -0.14721409111E+03  0.14721409113E+03  0.25500000000E-02 0. -1.
    5000001    1    1    2    0    0  0.17003665901E+03  0.42995011867E+02  0.67893815665E+02  0.26592218158E+03  0.18800000000E+03 0.  0.
   -5000001    1    1    2    0    0 -0.17003665901E+03 -0.42995011867E+02  0.29466919144E+03  0.39106900777E+03  0.18800000000E+03 0.  0.
<mgrwt>
<rscale>  0 0.54789186E+03</rscale>
<asrwt>0</asrwt>
<pdfrwt beam="1">  1        2 0.72825300E-01 0.54789186E+03</pdfrwt>
<pdfrwt beam="2">  1       -2 0.21030584E-01 0.54789186E+03</pdfrwt>
<totfact> 0.12820681E+03</totfact>
</mgrwt>
</event>
<event>
 4    1  0.6034452E-005  0.6089358E+03  0.7818608E-02  0.9887039E-01
         -2   -1    0    0    0  501 -0.00000000000E+00  0.00000000000E+00  0.62795719380E+03  0.62795719381E+03  0.25500000000E-02 0. -1.
          2   -1    0    0  501    0  0.00000000000E+00 -0.00000000000E+00 -0.14762265080E+03  0.14762265082E+03  0.25500000000E-02 0.  1.
    5000001    1    1    2    0    0 -0.39589483362E+01 -0.22817653154E+03  0.14764887811E+03  0.33049114061E+03  0.18800000000E+03 0.  0.
   -5000001    1    1    2    0    0  0.39589483362E+01  0.22817653154E+03  0.33268566489E+03  0.44508870402E+03  0.18800000000E+03 0.  0.
<mgrwt>
<rscale>  0 0.60893581E+03</rscale>
<asrwt>0</asrwt>
<pdfrwt beam="1">  1        2 0.21088950E-01 0.60893581E+03</pdfrwt>
<pdfrwt beam="2">  1       -2 0.89708171E-01 0.60893581E+03</pdfrwt>
<totfact> 0.28738477E+02</totfact>
</mgrwt>
</event>
<event>
 4    1  0.6034452E-005  0.5512402E+03  0.7818608E-02  0.1001207E+00
         -2   -1    0    0    0  501 -0.00000000000E+00  0.00000000000E+00  0.30209625855E+03  0.30209625856E+03  0.25500000000E-02 0. -1.
          2   -1    0    0  501    0  0.00000000000E+00 -0.00000000000E+00 -0.25146437834E+03  0.25146437835E+03  0.25500000000E-02 0.  1.
    5000001    1    1    2    0    0  0.26664154622E+02 -0.15987429452E+03  0.14561872368E+03  0.28778391178E+03  0.18800000000E+03 0.  0.
   -5000001    1    1    2    0    0 -0.26664154622E+02  0.15987429452E+03 -0.94986843477E+02  0.26577672513E+03  0.18800000000E+03 0.  0.
<mgrwt>
<rscale>  0 0.55124023E+03</rscale>
<asrwt>0</asrwt>
<pdfrwt beam="1">  1        2 0.35923482E-01 0.55124023E+03</pdfrwt>
<pdfrwt beam="2">  1       -2 0.43156609E-01 0.55124023E+03</pdfrwt>
<totfact> 0.74321318E+02</totfact>
</mgrwt>
</event>
<event>
 4    1  0.6034452E-005  0.9050000E+03  0.7818608E-02  0.9419353E-01
          2   -1    0    0  501    0  0.00000000000E+00  0.00000000000E+00  0.97524929092E+03  0.97524929092E+03  0.25500000000E-02 0.  1.
         -2   -1    0    0    0  501 -0.00000000000E+00 -0.00000000000E+00 -0.20995271543E+03  0.20995271544E+03  0.25500000000E-02 0. -1.
    5000001    1    1    2    0    0  0.11218180677E+03 -0.36300674783E+03  0.58993845887E+03  0.72645030249E+03  0.18800000000E+03 0.  0.
   -5000001    1    1    2    0    0 -0.11218180677E+03  0.36300674783E+03  0.17535811662E+03  0.45875170387E+03  0.18800000000E+03 0.  0.
<mgrwt>
<rscale>  0 0.90499997E+03</rscale>
<asrwt>0</asrwt>
<pdfrwt beam="1">  1        2 0.13932133E+00 0.90499997E+03</pdfrwt>
<pdfrwt beam="2">  1       -2 0.29993245E-01 0.90499997E+03</pdfrwt>
<totfact> 0.29834135E+02</totfact>
</mgrwt>
</event>
<event>
 4    1  0.6034452E-005  0.5665259E+03  0.7818608E-02  0.9977396E-01
          2   -1    0    0  501    0  0.00000000000E+00  0.00000000000E+00  0.60259353521E+03  0.60259353521E+03  0.25500000000E-02 0.  1.
         -2   -1    0    0    0  501 -0.00000000000E+00 -0.00000000000E+00 -0.13315424163E+03  0.13315424166E+03  0.25500000000E-02 0. -1.
    5000001    1    1    2    0    0 -0.17370394220E+03 -0.28246766639E+01  0.77191710522E+02  0.26736416833E+03  0.18800000000E+03 0.  0.
   -5000001    1    1    2    0    0  0.17370394220E+03  0.28246766639E+01  0.39224758306E+03  0.46838360854E+03  0.18800000000E+03 0.  0.
<mgrwt>
<rscale>  0 0.56652585E+03</rscale>
<asrwt>0</asrwt>
<pdfrwt beam="1">  1        2 0.86084792E-01 0.56652585E+03</pdfrwt>
<pdfrwt beam="2">  1       -2 0.19022034E-01 0.56652585E+03</pdfrwt>
<totfact> 0.12581567E+03</totfact>
</mgrwt>
</event>
<event>
 4    1  0.6034452E-005  0.4828468E+03  0.7818608E-02  0.1018356E+00
          2   -1    0    0  501    0  0.00000000000E+00  0.00000000000E+00  0.24072041714E+03  0.24072041716E+03  0.25500000000E-02 0.  1.
         -2   -1    0    0    0  501 -0.00000000000E+00 -0.00000000000E+00 -0.24212842548E+03  0.24212842549E+03  0.25500000000E-02 0. -1.
    5000001    1    1    2    0    0 -0.11523187968E+03 -0.97200250758E+02  0.13958279999E+02  0.24138166546E+03  0.18800000000E+03 0.  0.
   -5000001    1    1    2    0    0  0.11523187968E+03  0.97200250758E+02 -0.15366288334E+02  0.24146717719E+03  0.18800000000E+03 0.  0.
<mgrwt>
<rscale>  0 0.48284679E+03</rscale>
<asrwt>0</asrwt>
<pdfrwt beam="1">  1        2 0.34388631E-01 0.48284679E+03</pdfrwt>
<pdfrwt beam="2">  1       -2 0.34589775E-01 0.48284679E+03</pdfrwt>
<totfact> 0.11940356E+03</totfact>
</mgrwt>
</event>
<event>
 4    1  0.6034452E-005  0.5212962E+03  0.7818608E-02  0.1008365E+00
          2   -1    0    0  501    0  0.00000000000E+00  0.00000000000E+00  0.12036744537E+04  0.12036744537E+04  0.25500000000E-02 0.  1.
         -2   -1    0    0    0  501 -0.00000000000E+00 -0.00000000000E+00 -0.56441695919E+02  0.56441695976E+02  0.25500000000E-02 0. -1.
    5000001    1    1    2    0    0  0.17259833320E+03 -0.23541067304E+02  0.68825386566E+03  0.73442613656E+03  0.18800000000E+03 0.  0.
   -5000001    1    1    2    0    0 -0.17259833320E+03  0.23541067304E+02  0.45897889209E+03  0.52569001308E+03  0.18800000000E+03 0.  0.
<mgrwt>
<rscale>  0 0.52129618E+03</rscale>
<asrwt>0</asrwt>
<pdfrwt beam="1">  1        2 0.17195350E+00 0.52129618E+03</pdfrwt>
<pdfrwt beam="2">  1       -2 0.80630989E-02 0.52129618E+03</pdfrwt>
<totfact> 0.20810176E+03</totfact>
</mgrwt>
</event>
<event>
 4    1  0.6034452E-005  0.8401792E+03  0.7818608E-02  0.9503614E-01
          2   -1    0    0  501    0  0.00000000000E+00  0.00000000000E+00  0.73555854141E+03  0.73555854142E+03  0.25500000000E-02 0.  1.
         -2   -1    0    0    0  501 -0.00000000000E+00 -0.00000000000E+00 -0.23992008162E+03  0.23992008163E+03  0.25500000000E-02 0. -1.
    5000001    1    1    2    0    0  0.30899488969E+03 -0.14543672048E+03  0.42955604723E+03  0.58007937322E+03  0.18800000000E+03 0.  0.
   -5000001    1    1    2    0    0 -0.30899488969E+03  0.14543672048E+03  0.66082412567E+02  0.39539924984E+03  0.18800000000E+03 0.  0.
<mgrwt>
<rscale>  0 0.84017918E+03</rscale>
<asrwt>0</asrwt>
<pdfrwt beam="1">  1        2 0.10507979E+00 0.84017918E+03</pdfrwt>
<pdfrwt beam="2">  1       -2 0.34274297E-01 0.84017918E+03</pdfrwt>
<totfact> 0.33818588E+02</totfact>
</mgrwt>
</event>
<event>
 4    1  0.6034452E-005  0.4136905E+03  0.7818608E-02  0.1039140E+00
          2   -1    0    0  501    0  0.00000000000E+00  0.00000000000E+00  0.15895500634E+04  0.15895500634E+04  0.25500000000E-02 0.  1.
         -2   -1    0    0    0  501 -0.00000000000E+00 -0.00000000000E+00 -0.26916398691E+02  0.26916398812E+02  0.25500000000E-02 0. -1.
    5000001    1    1    2    0    0  0.65685386394E+02  0.23168488091E+02  0.98015908803E+03  0.10004534905E+04  0.18800000000E+03 0.  0.
   -5000001    1    1    2    0    0 -0.65685386394E+02 -0.23168488091E+02  0.58247457664E+03  0.61601297166E+03  0.18800000000E+03 0.  0.
<mgrwt>
<rscale>  0 0.41369053E+03</rscale>
<asrwt>0</asrwt>
<pdfrwt beam="1">  1        2 0.22707865E+00 0.41369053E+03</pdfrwt>
<pdfrwt beam="2">  1       -2 0.38451987E-02 0.41369053E+03</pdfrwt>
<totfact> 0.41100712E+03</totfact>
</mgrwt>
</event>
<event>
 4    1  0.6034452E-005  0.6665441E+03  0.7818608E-02  0.9776221E-01
          2   -1    0    0  501    0  0.00000000000E+00  0.00000000000E+00  0.31624498228E+04  0.31624498228E+04  0.25500000000E-02 0.  1.
         -2   -1    0    0    0  501 -0.00000000000E+00 -0.00000000000E+00 -0.35121591950E+02  0.35121592042E+02  0.25500000000E-02 0. -1.
    5000001    1    1    2    0    0 -0.11886371178E+03  0.24344247530E+03  0.13319295916E+04  0.13721418504E+04  0.18800000000E+03 0.  0.
   -5000001    1    1    2    0    0  0.11886371178E+03 -0.24344247530E+03  0.17953986392E+04  0.18254295644E+04  0.18800000000E+03 0.  0.
<mgrwt>
<rscale>  0 0.66654414E+03</rscale>
<asrwt>0</asrwt>
<pdfrwt beam="1">  1        2 0.45177842E+00 0.66654414E+03</pdfrwt>
<pdfrwt beam="2">  1       -2 0.50173717E-02 0.66654414E+03</pdfrwt>
<totfact> 0.41602642E+02</totfact>
</mgrwt>
</event>
<event>
 4    1  0.6034452E-005  0.6416947E+03  0.7818608E-02  0.9822490E-01
         -2   -1    0    0    0  501 -0.00000000000E+00  0.00000000000E+00  0.21327685902E+03  0.21327685904E+03  0.25500000000E-02 0. -1.
          2   -1    0    0  501    0  0.00000000000E+00 -0.00000000000E+00 -0.48267316534E+03  0.48267316534E+03  0.25500000000E-02 0.  1.
    5000001    1    1    2    0    0  0.24578021578E+03  0.79800454306E+02 -0.10358480092E+03  0.33593129946E+03  0.18800000000E+03 0.  0.
   -5000001    1    1    2    0    0 -0.24578021578E+03 -0.79800454306E+02 -0.16581150540E+03  0.36001872493E+03  0.18800000000E+03 0.  0.
<mgrwt>
<rscale>  0 0.64169468E+03</rscale>
<asrwt>0</asrwt>
<pdfrwt beam="1">  1        2 0.68953309E-01 0.64169468E+03</pdfrwt>
<pdfrwt beam="2">  1       -2 0.30468123E-01 0.64169468E+03</pdfrwt>
<totfact> 0.69931611E+02</totfact>
</mgrwt>
</event>
<event>
 4    1  0.6034452E-005  0.6190948E+03  0.7818608E-02  0.9866564E-01
         -2   -1    0    0    0  501 -0.00000000000E+00  0.00000000000E+00  0.34063605775E+02  0.34063605870E+02  0.25500000000E-02 0. -1.
          2   -1    0    0  501    0  0.00000000000E+00 -0.00000000000E+00 -0.28129607569E+04  0.28129607569E+04  0.25500000000E-02 0.  1.
    5000001    1    1    2    0    0 -0.30382893442E+02 -0.12175516572E+03 -0.23620266830E+04  0.23728172057E+04  0.18800000000E+03 0.  0.
   -5000001    1    1    2    0    0  0.30382893442E+02  0.12175516572E+03 -0.41687046810E+03  0.47420715702E+03  0.18800000000E+03 0.  0.
<mgrwt>
<rscale>  0 0.61909478E+03</rscale>
<asrwt>0</asrwt>
<pdfrwt beam="1">  1        2 0.40185139E+00 0.61909478E+03</pdfrwt>
<pdfrwt beam="2">  1       -2 0.48662312E-02 0.61909478E+03</pdfrwt>
<totfact> 0.67923233E+02</totfact>
</mgrwt>
</event>
<event>
 4    1  0.6034452E-005  0.5424578E+03  0.7818608E-02  0.1003255E+00
          2   -1    0    0  501    0  0.00000000000E+00  0.00000000000E+00  0.59088167821E+03  0.59088167821E+03  0.25500000000E-02 0.  1.
         -2   -1    0    0    0  501 -0.00000000000E+00 -0.00000000000E+00 -0.12450060420E+03  0.12450060422E+03  0.25500000000E-02 0. -1.
    5000001    1    1    2    0    0 -0.90835978571E+02  0.14051982358E+03  0.36653819029E+03  0.44462483148E+03  0.18800000000E+03 0.  0.
   -5000001    1    1    2    0    0  0.90835978571E+02 -0.14051982358E+03  0.99842883718E+02  0.27075745096E+03  0.18800000000E+03 0.  0.
<mgrwt>
<rscale>  0 0.54245784E+03</rscale>
<asrwt>0</asrwt>
<pdfrwt beam="1">  1        2 0.84411669E-01 0.54245784E+03</pdfrwt>
<pdfrwt beam="2">  1       -2 0.17785801E-01 0.54245784E+03</pdfrwt>
<totfact> 0.14453462E+03</totfact>
</mgrwt>
</event>
<event>
 4    1  0.6034452E-005  0.1236607E+04  0.7818608E-02  0.9081404E-01
         -2   -1    0    0    0  501 -0.00000000000E+00  0.00000000000E+00  0.21733920626E+03  0.21733920628E+03  0.25500000000E-02 0. -1.
          2   -1    0    0  501    0  0.00000000000E+00 -0.00000000000E+00 -0.17589993630E+04  0.17589993630E+04  0.25500000000E-02 0.  1.
    5000001    1    1    2    0    0 -0.52013719953E+02 -0.58499864516E+03 -0.69888146387E+03  0.93204513970E+03  0.18800000000E+03 0.  0.
   -5000001    1    1    2    0    0  0.52013719953E+02  0.58499864516E+03 -0.84277869285E+03  0.10442934296E+04  0.18800000000E+03 0.  0.
<mgrwt>
<rscale>  0 0.12366075E+04</rscale>
<asrwt>0</asrwt>
<pdfrwt beam="1">  1        2 0.25128561E+00 0.12366075E+04</pdfrwt>
<pdfrwt beam="2">  1       -2 0.31048459E-01 0.12366075E+04</pdfrwt>
<totfact> 0.10112921E+02</totfact>
</mgrwt>
</event>
<event>
 4    1  0.6034452E-005  0.8151707E+03  0.7818608E-02  0.9538314E-01
         -2   -1    0    0    0  501 -0.00000000000E+00  0.00000000000E+00  0.69564803968E+03  0.69564803968E+03  0.25500000000E-02 0. -1.
          2   -1    0    0  501    0  0.00000000000E+00 -0.00000000000E+00 -0.23880726841E+03  0.23880726843E+03  0.25500000000E-02 0.  1.
    5000001    1    1    2    0    0  0.22132034939E+03  0.16941983545E+03  0.49256454558E+03  0.59636365522E+03  0.18800000000E+03 0.  0.
   -5000001    1    1    2    0    0 -0.22132034939E+03 -0.16941983545E+03 -0.35723774322E+02  0.33809165289E+03  0.18800000000E+03 0.  0.
<mgrwt>
<rscale>  0 0.81517068E+03</rscale>
<asrwt>0</asrwt>
<pdfrwt beam="1">  1        2 0.34115325E-01 0.81517068E+03</pdfrwt>
<pdfrwt beam="2">  1       -2 0.99378288E-01 0.81517068E+03</pdfrwt>
<totfact> 0.12991358E+02</totfact>
</mgrwt>
</event>
<event>
 4    1  0.6034452E-005  0.5081317E+03  0.7818608E-02  0.1011678E+00
         -2   -1    0    0    0  501 -0.00000000000E+00  0.00000000000E+00  0.71695415400E+02  0.71695415445E+02  0.25500000000E-02 0. -1.
          2   -1    0    0  501    0  0.00000000000E+00 -0.00000000000E+00 -0.90032898639E+03  0.90032898640E+03  0.25500000000E-02 0.  1.
    5000001    1    1    2    0    0  0.65924647803E+02 -0.11941448450E+03 -0.61126191300E+03  0.65390443077E+03  0.18800000000E+03 0.  0.
   -5000001    1    1    2    0    0 -0.65924647803E+02  0.11941448450E+03 -0.21737165799E+03  0.31811997107E+03  0.18800000000E+03 0.  0.
<mgrwt>
<rscale>  0 0.50813172E+03</rscale>
<asrwt>0</asrwt>
<pdfrwt beam="1">  1        2 0.12861842E+00 0.50813172E+03</pdfrwt>
<pdfrwt beam="2">  1       -2 0.10242203E-01 0.50813172E+03</pdfrwt>
<totfact> 0.21467703E+03</totfact>
</mgrwt>
</event>
<event>
 4    1  0.6034452E-005  0.1338371E+04  0.7818608E-02  0.8999678E-01
          2   -1    0    0  501    0  0.00000000000E+00  0.00000000000E+00  0.21594491667E+04  0.21594491667E+04  0.25500000000E-02 0.  1.
         -2   -1    0    0    0  501 -0.00000000000E+00 -0.00000000000E+00 -0.20737190961E+03  0.20737190962E+03  0.25500000000E-02 0. -1.
    5000001    1    1    2    0    0 -0.21712051799E+03 -0.16701326489E+03 -0.51222951778E+02  0.33615850543E+03  0.18800000000E+03 0.  0.
   -5000001    1    1    2    0    0  0.21712051799E+03  0.16701326489E+03  0.20033002089E+04  0.20306625709E+04  0.18800000000E+03 0.  0.
<mgrwt>
<rscale>  0 0.13383708E+04</rscale>
<asrwt>0</asrwt>
<pdfrwt beam="1">  1        2 0.30849275E+00 0.13383708E+04</pdfrwt>
<pdfrwt beam="2">  1       -2 0.29624558E-01 0.13383708E+04</pdfrwt>
<totfact> 0.68218138E+01</totfact>
</mgrwt>
</event>
<event>
 4    1  0.6034452E-005  0.6521950E+03  0.7818608E-02  0.9802669E-01
         -2   -1    0    0    0  501 -0.00000000000E+00  0.00000000000E+00  0.75259957164E+02  0.75259957207E+02  0.25500000000E-02 0. -1.
          2   -1    0    0  501    0  0.00000000000E+00 -0.00000000000E+00 -0.14129633897E+04  0.14129633897E+04  0.25500000000E-02 0.  1.
    5000001    1    1    2    0    0 -0.12315413582E+03 -0.16755167866E+03 -0.28869580377E+03  0.40240498668E+03  0.18800000000E+03 0.  0.
   -5000001    1    1    2    0    0  0.12315413582E+03  0.16755167866E+03 -0.10490076288E+04  0.10858183602E+04  0.18800000000E+03 0.  0.
<mgrwt>
<rscale>  0 0.65219495E+03</rscale>
<asrwt>0</asrwt>
<pdfrwt beam="1">  1        2 0.20185190E+00 0.65219495E+03</pdfrwt>
<pdfrwt beam="2">  1       -2 0.10751423E-01 0.65219495E+03</pdfrwt>
<totfact> 0.10041602E+03</totfact>
</mgrwt>
</event>
<event>
 4    1  0.6034452E-005  0.5295398E+03  0.7818608E-02  0.1006344E+00
          2   -1    0    0  501    0  0.00000000000E+00  0.00000000000E+00  0.10041359313E+04  0.10041359313E+04  0.25500000000E-02 0.  1.
         -2   -1    0    0    0  501 -0.00000000000E+00 -0.00000000000E+00 -0.69814344172E+02  0.69814344219E+02  0.25500000000E-02 0. -1.
    5000001    1    1    2    0    0  0.16805503905E+03 -0.80643181052E+02  0.47454945349E+03  0.54340316764E+03  0.18800000000E+03 0.  0.
   -5000001    1    1    2    0    0 -0.16805503905E+03  0.80643181052E+02  0.45977213359E+03  0.53054710783E+03  0.18800000000E+03 0.  0.
<mgrwt>
<rscale>  0 0.52953977E+03</rscale>
<asrwt>0</asrwt>
<pdfrwt beam="1">  1        2 0.14344798E+00 0.52953977E+03</pdfrwt>
<pdfrwt beam="2">  1       -2 0.99734784E-02 0.52953977E+03</pdfrwt>
<totfact> 0.19310103E+03</totfact>
</mgrwt>
</event>
<event>
 4    1  0.6034452E-005  0.8161285E+03  0.7818608E-02  0.9536961E-01
          2   -1    0    0  501    0  0.00000000000E+00  0.00000000000E+00  0.17249500667E+04  0.17249500667E+04  0.25500000000E-02 0. -1.
         -2   -1    0    0    0  501 -0.00000000000E+00 -0.00000000000E+00 -0.96534057887E+02  0.96534057921E+02  0.25500000000E-02 0.  1.
    5000001    1    1    2    0    0 -0.28151759537E+02  0.36100477492E+03  0.79758693658E+03  0.89588274371E+03  0.18800000000E+03 0.  0.
   -5000001    1    1    2    0    0  0.28151759537E+02 -0.36100477492E+03  0.83082907228E+03  0.92560138096E+03  0.18800000000E+03 0.  0.
<mgrwt>
<rscale>  0 0.81612849E+03</rscale>
<asrwt>0</asrwt>
<pdfrwt beam="1">  1        2 0.24642144E+00 0.81612849E+03</pdfrwt>
<pdfrwt beam="2">  1       -2 0.13790580E-01 0.81612849E+03</pdfrwt>
<totfact> 0.45394222E+02</totfact>
</mgrwt>
</event>
<event>
 4    1  0.6034452E-005  0.4845544E+03  0.7818608E-02  0.1017891E+00
         -2   -1    0    0    0  501 -0.00000000000E+00  0.00000000000E+00  0.54624602915E+02  0.54624602974E+02  0.25500000000E-02 0. -1.
          2   -1    0    0  501    0  0.00000000000E+00 -0.00000000000E+00 -0.10745751675E+04  0.10745751675E+04  0.25500000000E-02 0.  1.
    5000001    1    1    2    0    0 -0.57208143917E+02  0.49308367844E+02 -0.81957638619E+03  0.84424732139E+03  0.18800000000E+03 0.  0.
   -5000001    1    1    2    0    0  0.57208143917E+02 -0.49308367844E+02 -0.20037417837E+03  0.28495244906E+03  0.18800000000E+03 0.  0.
<mgrwt>
<rscale>  0 0.48455440E+03</rscale>
<asrwt>0</asrwt>
<pdfrwt beam="1">  1        2 0.15351072E+00 0.48455440E+03</pdfrwt>
<pdfrwt beam="2">  1       -2 0.78035154E-02 0.48455440E+03</pdfrwt>
<totfact> 0.25968224E+03</totfact>
</mgrwt>
</event>
<event>
 4    1  0.6034452E-005  0.5996762E+03  0.7818608E-02  0.9906078E-01
         -2   -1    0    0    0  501 -0.00000000000E+00  0.00000000000E+00  0.28984686457E+03  0.28984686458E+03  0.25500000000E-02 0. -1.
          2   -1    0    0  501    0  0.00000000000E+00 -0.00000000000E+00 -0.31017378443E+03  0.31017378444E+03  0.25500000000E-02 0.  1.
    5000001    1    1    2    0    0 -0.14397127630E+03 -0.80887304230E+02 -0.17545038661E+03  0.30560975532E+03  0.18800000000E+03 0.  0.
   -5000001    1    1    2    0    0  0.14397127630E+03  0.80887304230E+02  0.15512346676E+03  0.29441089369E+03  0.18800000000E+03 0.  0.
<mgrwt>
<rscale>  0 0.59967624E+03</rscale>
<asrwt>0</asrwt>
<pdfrwt beam="1">  1        2 0.44310540E-01 0.59967624E+03</pdfrwt>
<pdfrwt beam="2">  1       -2 0.41406695E-01 0.59967624E+03</pdfrwt>
<totfact> 0.63887132E+02</totfact>
</mgrwt>
</event>
<event>
 4    1  0.6034452E-005  0.5430923E+03  0.7818608E-02  0.1003106E+00
         -2   -1    0    0    0  501 -0.00000000000E+00  0.00000000000E+00  0.11704738037E+03  0.11704738040E+03  0.25500000000E-02 0. -1.
          2   -1    0    0  501    0  0.00000000000E+00 -0.00000000000E+00 -0.62997835160E+03  0.62997835160E+03  0.25500000000E-02 0.  1.
    5000001    1    1    2    0    0 -0.20716445848E+02 -0.16854575789E+03 -0.12200003772E+03  0.28118473080E+03  0.18800000000E+03 0.  0.
   -5000001    1    1    2    0    0  0.20716445848E+02  0.16854575789E+03 -0.39093093350E+03  0.46584100120E+03  0.18800000000E+03 0.  0.
<mgrwt>
<rscale>  0 0.54309232E+03</rscale>
<asrwt>0</asrwt>
<pdfrwt beam="1">  1        2 0.89996906E-01 0.54309232E+03</pdfrwt>
<pdfrwt beam="2">  1       -2 0.16721055E-01 0.54309232E+03</pdfrwt>
<totfact> 0.14892137E+03</totfact>
</mgrwt>
</event>
<event>
 4    1  0.6034452E-005  0.5036971E+03  0.7818608E-02  0.1012818E+00
         -2   -1    0    0    0  501 -0.00000000000E+00  0.00000000000E+00  0.58376534915E+02  0.58376534971E+02  0.25500000000E-02 0. -1.
          2   -1    0    0  501    0  0.00000000000E+00 -0.00000000000E+00 -0.10865272790E+04  0.10865272790E+04  0.25500000000E-02 0.  1.
    5000001    1    1    2    0    0  0.13152597681E+03  0.95875486936E+02 -0.60478222194E+03  0.65390880675E+03  0.18800000000E+03 0.  0.
   -5000001    1    1    2    0    0 -0.13152597681E+03 -0.95875486936E+02 -0.42336852211E+03  0.49099500719E+03  0.18800000000E+03 0.  0.
<mgrwt>
<rscale>  0 0.50369712E+03</rscale>
<asrwt>0</asrwt>
<pdfrwt beam="1">  1        2 0.15521817E+00 0.50369712E+03</pdfrwt>
<pdfrwt beam="2">  1       -2 0.83395057E-02 0.50369712E+03</pdfrwt>
<totfact> 0.22996054E+03</totfact>
</mgrwt>
</event>
<event>
 4    1  0.6034452E-005  0.4850573E+03  0.7818608E-02  0.1017754E+00
         -2   -1    0    0    0  501 -0.00000000000E+00  0.00000000000E+00  0.24024637908E+03  0.24024637910E+03  0.25500000000E-02 0. -1.
          2   -1    0    0  501    0  0.00000000000E+00 -0.00000000000E+00 -0.24483261149E+03  0.24483261150E+03  0.25500000000E-02 0.  1.
    5000001    1    1    2    0    0 -0.60607373167E+02  0.10726731214E+03 -0.93382962848E+02  0.24340071422E+03  0.18800000000E+03 0.  0.
   -5000001    1    1    2    0    0  0.60607373167E+02 -0.10726731214E+03  0.88796730439E+02  0.24167827637E+03  0.18800000000E+03 0.  0.
<mgrwt>
<rscale>  0 0.48505731E+03</rscale>
<asrwt>0</asrwt>
<pdfrwt beam="1">  1        2 0.34976087E-01 0.48505731E+03</pdfrwt>
<pdfrwt beam="2">  1       -2 0.34320911E-01 0.48505731E+03</pdfrwt>
<totfact> 0.11892256E+03</totfact>
</mgrwt>
</event>
<event>
 4    1  0.6034452E-005  0.6747453E+03  0.7818608E-02  0.9761423E-01
         -2   -1    0    0    0  501 -0.00000000000E+00  0.00000000000E+00  0.17694821718E+03  0.17694821720E+03  0.25500000000E-02 0. -1.
          2   -1    0    0  501    0  0.00000000000E+00 -0.00000000000E+00 -0.64324066051E+03  0.64324066051E+03  0.25500000000E-02 0.  1.
    5000001    1    1    2    0    0  0.23741124217E+03  0.14869013775E+03 -0.23089395809E+03  0.40881398564E+03  0.18800000000E+03 0.  0.
   -5000001    1    1    2    0    0 -0.23741124217E+03 -0.14869013775E+03 -0.23539848524E+03  0.41137489207E+03  0.18800000000E+03 0.  0.
<mgrwt>
<rscale>  0 0.67474525E+03</rscale>
<asrwt>0</asrwt>
<pdfrwt beam="1">  1        2 0.91891522E-01 0.67474525E+03</pdfrwt>
<pdfrwt beam="2">  1       -2 0.25278317E-01 0.67474525E+03</pdfrwt>
<totfact> 0.70373900E+02</totfact>
</mgrwt>
</event>
<event>
 4    1  0.6034452E-005  0.5384227E+03  0.7818608E-02  0.1004210E+00
         -2   -1    0    0    0  501 -0.00000000000E+00  0.00000000000E+00  0.54596472156E+03  0.54596472157E+03  0.25500000000E-02 0.  1.
          2   -1    0    0  501    0  0.00000000000E+00 -0.00000000000E+00 -0.13274620931E+03  0.13274620933E+03  0.25500000000E-02 0. -1.
    5000001    1    1    2    0    0  0.17990363184E+03  0.24596156238E+02  0.28791704412E+03  0.38885795857E+03  0.18800000000E+03 0.  0.
   -5000001    1    1    2    0    0 -0.17990363184E+03 -0.24596156238E+02  0.12530146814E+03  0.28985297233E+03  0.18800000000E+03 0.  0.
<mgrwt>
<rscale>  0 0.53842269E+03</rscale>
<asrwt>0</asrwt>
<pdfrwt beam="1">  1        2 0.18963744E-01 0.53842269E+03</pdfrwt>
<pdfrwt beam="2">  1       -2 0.77994962E-01 0.53842269E+03</pdfrwt>
<totfact> 0.44691433E+02</totfact>
</mgrwt>
</event>
<event>
 4    1  0.6034452E-005  0.1265920E+04  0.7818608E-02  0.9057036E-01
          2   -1    0    0  501    0  0.00000000000E+00  0.00000000000E+00  0.15961939294E+04  0.15961939294E+04  0.25500000000E-02 0.  1.
         -2   -1    0    0    0  501 -0.00000000000E+00 -0.00000000000E+00 -0.25099608910E+03  0.25099608912E+03  0.25500000000E-02 0. -1.
    5000001    1    1    2    0    0 -0.54535905794E+03  0.60678547131E+02  0.10423073993E+04  0.11928315484E+04  0.18800000000E+03 0.  0.
   -5000001    1    1    2    0    0  0.54535905794E+03 -0.60678547131E+02  0.30289044091E+03  0.65435847007E+03  0.18800000000E+03 0.  0.
<mgrwt>
<rscale>  0 0.12659201E+04</rscale>
<asrwt>0</asrwt>
<pdfrwt beam="1">  1        2 0.22802770E+00 0.12659201E+04</pdfrwt>
<pdfrwt beam="2">  1       -2 0.35856585E-01 0.12659201E+04</pdfrwt>
<totfact> 0.93371630E+01</totfact>
</mgrwt>
</event>
<event>
 4    1  0.6034452E-005  0.4962013E+03  0.7818608E-02  0.1014775E+00
          2   -1    0    0  501    0  0.00000000000E+00  0.00000000000E+00  0.39894662020E+03  0.39894662021E+03  0.25500000000E-02 0.  1.
         -2   -1    0    0    0  501 -0.00000000000E+00 -0.00000000000E+00 -0.15429116256E+03  0.15429116258E+03  0.25500000000E-02 0. -1.
    5000001    1    1    2    0    0 -0.15504091353E+03 -0.35306830588E+02  0.15624996839E+03  0.29162014638E+03  0.18800000000E+03 0.  0.
   -5000001    1    1    2    0    0  0.15504091353E+03  0.35306830588E+02  0.88405489249E+02  0.26161763641E+03  0.18800000000E+03 0.  0.
<mgrwt>
<rscale>  0 0.49620132E+03</rscale>
<asrwt>0</asrwt>
<pdfrwt beam="1">  1        2 0.56992375E-01 0.49620132E+03</pdfrwt>
<pdfrwt beam="2">  1       -2 0.22041595E-01 0.49620132E+03</pdfrwt>
<totfact> 0.15533026E+03</totfact>
</mgrwt>
</event>
<event>
 4    1  0.6034452E-005  0.7636636E+03  0.7818608E-02  0.9614155E-01
          2   -1    0    0  501    0  0.00000000000E+00  0.00000000000E+00  0.25047964572E+04  0.25047964572E+04  0.25500000000E-02 0.  1.
         -2   -1    0    0    0  501 -0.00000000000E+00 -0.00000000000E+00 -0.58206542153E+02  0.58206542209E+02  0.25500000000E-02 0. -1.
    5000001    1    1    2    0    0  0.32168385528E+03 -0.39465607003E+02  0.14702319872E+04  0.15172225061E+04  0.18800000000E+03 0.  0.
   -5000001    1    1    2    0    0 -0.32168385528E+03  0.39465607003E+02  0.97635792786E+03  0.10457804933E+04  0.18800000000E+03 0.  0.
<mgrwt>
<rscale>  0 0.76366364E+03</rscale>
<asrwt>0</asrwt>
<pdfrwt beam="1">  1        2 0.35782800E+00 0.76366364E+03</pdfrwt>
<pdfrwt beam="2">  1       -2 0.83152218E-02 0.76366364E+03</pdfrwt>
<totfact> 0.41812326E+02</totfact>
</mgrwt>
</event>
<event>
 4    1  0.6034452E-005  0.5812451E+03  0.7818608E-02  0.9945099E-01
         -2   -1    0    0    0  501 -0.00000000000E+00  0.00000000000E+00  0.12704488558E+03  0.12704488561E+03  0.25500000000E-02 0. -1.
          2   -1    0    0  501    0  0.00000000000E+00 -0.00000000000E+00 -0.66481603052E+03  0.66481603053E+03  0.25500000000E-02 0.  1.
    5000001    1    1    2    0    0 -0.86009895553E+02 -0.19391824085E+03 -0.35628334571E+03  0.45528431633E+03  0.18800000000E+03 0.  0.
   -5000001    1    1    2    0    0  0.86009895553E+02  0.19391824085E+03 -0.18148779923E+03  0.33657659980E+03  0.18800000000E+03 0.  0.
<mgrwt>
<rscale>  0 0.58124513E+03</rscale>
<asrwt>0</asrwt>
<pdfrwt beam="1">  1        2 0.94973717E-01 0.58124513E+03</pdfrwt>
<pdfrwt beam="2">  1       -2 0.18149270E-01 0.58124513E+03</pdfrwt>
<totfact> 0.12135653E+03</totfact>
</mgrwt>
</event>
<event>
 4    1  0.6034452E-005  0.8500854E+03  0.7818608E-02  0.9490222E-01
         -2   -1    0    0    0  501 -0.00000000000E+00  0.00000000000E+00  0.11631042336E+03  0.11631042339E+03  0.25500000000E-02 0. -1.
          2   -1    0    0  501    0  0.00000000000E+00 -0.00000000000E+00 -0.15532683923E+04  0.15532683923E+04  0.25500000000E-02 0.  1.
    5000001    1    1    2    0    0 -0.36490077348E+03 -0.82413392167E+02 -0.86243943140E+03  0.95869198104E+03  0.18800000000E+03 0.  0.
   -5000001    1    1    2    0    0  0.36490077348E+03  0.82413392167E+02 -0.57451853757E+03  0.71088683466E+03  0.18800000000E+03 0.  0.
<mgrwt>
<rscale>  0 0.85008542E+03</rscale>
<asrwt>0</asrwt>
<pdfrwt beam="1">  1        2 0.22189547E+00 0.85008542E+03</pdfrwt>
<pdfrwt beam="2">  1       -2 0.16615776E-01 0.85008542E+03</pdfrwt>
<totfact> 0.40532755E+02</totfact>
</mgrwt>
</event>
<event>
 4    1  0.6034452E-005  0.5368124E+03  0.7818608E-02  0.1004593E+00
          2   -1    0    0  501    0  0.00000000000E+00  0.00000000000E+00  0.11806684906E+04  0.11806684906E+04  0.25500000000E-02 0.  1.
         -2   -1    0    0    0  501 -0.00000000000E+00 -0.00000000000E+00 -0.61017872641E+02  0.61017872694E+02  0.25500000000E-02 0. -1.
    5000001    1    1    2    0    0  0.12070506172E+03  0.63000703505E+02  0.24812566379E+03  0.33977808287E+03  0.18800000000E+03 0.  0.
   -5000001    1    1    2    0    0 -0.12070506172E+03 -0.63000703505E+02  0.87152495418E+03  0.90190828044E+03  0.18800000000E+03 0.  0.
<mgrwt>
<rscale>  0 0.53681237E+03</rscale>
<asrwt>0</asrwt>
<pdfrwt beam="1">  1        2 0.16866693E+00 0.53681237E+03</pdfrwt>
<pdfrwt beam="2">  1       -2 0.87168390E-02 0.53681237E+03</pdfrwt>
<totfact> 0.18925978E+03</totfact>
</mgrwt>
</event>
<event>
 4    1  0.6034452E-005  0.4786907E+03  0.7818608E-02  0.1019496E+00
          2   -1    0    0  501    0  0.00000000000E+00  0.00000000000E+00  0.87323907617E+02  0.87323907655E+02  0.25500000000E-02 0.  1.
         -2   -1    0    0    0  501 -0.00000000000E+00 -0.00000000000E+00 -0.65601970383E+03  0.65601970384E+03  0.25500000000E-02 0. -1.
    5000001    1    1    2    0    0 -0.69505689423E+02  0.11708987188E+03 -0.19378592082E+03  0.30238727167E+03  0.18800000000E+03 0.  0.
   -5000001    1    1    2    0    0  0.69505689423E+02 -0.11708987188E+03 -0.37490987539E+03  0.44095633982E+03  0.18800000000E+03 0.  0.
<mgrwt>
<rscale>  0 0.47869073E+03</rscale>
<asrwt>0</asrwt>
<pdfrwt beam="1">  1        2 0.12474844E-01 0.47869073E+03</pdfrwt>
<pdfrwt beam="2">  1       -2 0.93717098E-01 0.47869073E+03</pdfrwt>
<totfact> 0.48838226E+02</totfact>
</mgrwt>
</event>
<event>
 4    1  0.6034452E-005  0.7847340E+03  0.7818608E-02  0.9582381E-01
          2   -1    0    0  501    0  0.00000000000E+00  0.00000000000E+00  0.14940889162E+04  0.14940889162E+04  0.25500000000E-02 0.  1.
         -2   -1    0    0    0  501 -0.00000000000E+00 -0.00000000000E+00 -0.10304062773E+03  0.10304062776E+03  0.25500000000E-02 0. -1.
    5000001    1    1    2    0    0  0.22028784520E+03 -0.11288940411E+03  0.11828680820E+04  0.12230256137E+04  0.18800000000E+03 0.  0.
   -5000001    1    1    2    0    0 -0.22028784520E+03  0.11288940411E+03  0.20818020652E+03  0.37410393033E+03  0.18800000000E+03 0.  0.
<mgrwt>
<rscale>  0 0.78473399E+03</rscale>
<asrwt>0</asrwt>
<pdfrwt beam="1">  1        2 0.21344126E+00 0.78473399E+03</pdfrwt>
<pdfrwt beam="2">  1       -2 0.14720090E-01 0.78473399E+03</pdfrwt>
<totfact> 0.53681517E+02</totfact>
</mgrwt>
</event>
<event>
 4    1  0.6034452E-005  0.4347973E+03  0.7818608E-02  0.1032355E+00
         -2   -1    0    0    0  501 -0.00000000000E+00  0.00000000000E+00  0.25259621846E+02  0.25259621975E+02  0.25500000000E-02 0. -1.
          2   -1    0    0  501    0  0.00000000000E+00 -0.00000000000E+00 -0.18710558803E+04  0.18710558803E+04  0.25500000000E-02 0.  1.
    5000001    1    1    2    0    0 -0.85006249565E+02 -0.59103984356E+02 -0.77188979700E+03  0.80117239228E+03  0.18800000000E+03 0.  0.
   -5000001    1    1    2    0    0  0.85006249565E+02  0.59103984356E+02 -0.10739064615E+04  0.10951431100E+04  0.18800000000E+03 0.  0.
<mgrwt>
<rscale>  0 0.43479726E+03</rscale>
<asrwt>0</asrwt>
<pdfrwt beam="1">  1        2 0.26729361E+00 0.43479726E+03</pdfrwt>
<pdfrwt beam="2">  1       -2 0.36085186E-02 0.43479726E+03</pdfrwt>
<totfact> 0.32698221E+03</totfact>
</mgrwt>
</event>
<event>
 4    1  0.6034452E-005  0.7739162E+03  0.7818608E-02  0.9598559E-01
          2   -1    0    0  501    0  0.00000000000E+00  0.00000000000E+00  0.50985322055E+03  0.50985322056E+03  0.25500000000E-02 0.  1.
         -2   -1    0    0    0  501 -0.00000000000E+00 -0.00000000000E+00 -0.29368567869E+03  0.29368567870E+03  0.25500000000E-02 0. -1.
    5000001    1    1    2    0    0  0.20467938221E+03  0.26765423930E+03  0.13853462533E+03  0.40996131980E+03  0.18800000000E+03 0.  0.
   -5000001    1    1    2    0    0 -0.20467938221E+03 -0.26765423930E+03  0.77632916525E+02  0.39357757945E+03  0.18800000000E+03 0.  0.
<mgrwt>
<rscale>  0 0.77391625E+03</rscale>
<asrwt>0</asrwt>
<pdfrwt beam="1">  1        2 0.72836174E-01 0.77391625E+03</pdfrwt>
<pdfrwt beam="2">  1       -2 0.41955097E-01 0.77391625E+03</pdfrwt>
<totfact> 0.35550402E+02</totfact>
</mgrwt>
</event>
<event>
 4    1  0.6034452E-005  0.4653108E+03  0.7818608E-02  0.1023252E+00
          2   -1    0    0  501    0  0.00000000000E+00  0.00000000000E+00  0.15481747000E+04  0.15481747000E+04  0.25500000000E-02 0.  1.
         -2   -1    0    0    0  501 -0.00000000000E+00 -0.00000000000E+00 -0.34962807168E+02  0.34962807261E+02  0.25500000000E-02 0. -1.
    5000001    1    1    2    0    0  0.13581129492E+03  0.18428589667E+02  0.75817555227E+03  0.79306903155E+03  0.18800000000E+03 0.  0.
   -5000001    1    1    2    0    0 -0.13581129492E+03 -0.18428589667E+02  0.75503634057E+03  0.79006847572E+03  0.18800000000E+03 0.  0.
<mgrwt>
<rscale>  0 0.46531079E+03</rscale>
<asrwt>0</asrwt>
<pdfrwt beam="1">  1        2 0.22116780E+00 0.46531079E+03</pdfrwt>
<pdfrwt beam="2">  1       -2 0.49946870E-02 0.46531079E+03</pdfrwt>
<totfact> 0.28901838E+03</totfact>
</mgrwt>
</event>
<event>
 4    1  0.6034452E-005  0.5049065E+03  0.7818608E-02  0.1012506E+00
         -2   -1    0    0    0  501 -0.00000000000E+00  0.00000000000E+00  0.32527023789E+03  0.32527023790E+03  0.25500000000E-02 0. -1.
          2   -1    0    0  501    0  0.00000000000E+00 -0.00000000000E+00 -0.19593755752E+03  0.19593755754E+03  0.25500000000E-02 0.  1.
    5000001    1    1    2    0    0  0.11318092313E+03  0.12457320327E+03  0.72679139295E+02  0.26259219643E+03  0.18800000000E+03 0.  0.
   -5000001    1    1    2    0    0 -0.11318092313E+03 -0.12457320327E+03  0.56653541074E+02  0.25861559901E+03  0.18800000000E+03 0.  0.
<mgrwt>
<rscale>  0 0.50490655E+03</rscale>
<asrwt>0</asrwt>
<pdfrwt beam="1">  1        2 0.27991080E-01 0.50490655E+03</pdfrwt>
<pdfrwt beam="2">  1       -2 0.46467177E-01 0.50490655E+03</pdfrwt>
<totfact> 0.84848573E+02</totfact>
</mgrwt>
</event>
<event>
 4    1  0.6034452E-005  0.4879635E+03  0.7818608E-02  0.1016969E+00
         -2   -1    0    0    0  501 -0.00000000000E+00  0.00000000000E+00  0.10322255235E+03  0.10322255238E+03  0.25500000000E-02 0. -1.
          2   -1    0    0  501    0  0.00000000000E+00 -0.00000000000E+00 -0.57668685440E+03  0.57668685440E+03  0.25500000000E-02 0.  1.
    5000001    1    1    2    0    0  0.22524252958E+02  0.10519415119E+03 -0.39319823040E+03  0.44891201789E+03  0.18800000000E+03 0.  0.
   -5000001    1    1    2    0    0 -0.22524252958E+02 -0.10519415119E+03 -0.80266071649E+02  0.23099738889E+03  0.18800000000E+03 0.  0.
<mgrwt>
<rscale>  0 0.48796348E+03</rscale>
<asrwt>0</asrwt>
<pdfrwt beam="1">  1        2 0.82383835E-01 0.48796348E+03</pdfrwt>
<pdfrwt beam="2">  1       -2 0.14746079E-01 0.48796348E+03</pdfrwt>
<totfact> 0.20412967E+03</totfact>
</mgrwt>
</event>
<event>
 4    1  0.6034452E-005  0.6848854E+03  0.7818608E-02  0.9743435E-01
         -2   -1    0    0    0  501 -0.00000000000E+00  0.00000000000E+00  0.15121821657E+03  0.15121821659E+03  0.25500000000E-02 0. -1.
          2   -1    0    0  501    0  0.00000000000E+00 -0.00000000000E+00 -0.77548197388E+03  0.77548197389E+03  0.25500000000E-02 0.  1.
    5000001    1    1    2    0    0  0.28487745033E+03 -0.21020946154E+02 -0.33656072566E+03  0.47980638172E+03  0.18800000000E+03 0.  0.
   -5000001    1    1    2    0    0 -0.28487745033E+03  0.21020946154E+02 -0.28770303165E+03  0.44689380875E+03  0.18800000000E+03 0.  0.
<mgrwt>
<rscale>  0 0.68488540E+03</rscale>
<asrwt>0</asrwt>
<pdfrwt beam="1">  1        2 0.11078314E+00 0.68488540E+03</pdfrwt>
<pdfrwt beam="2">  1       -2 0.21602603E-01 0.68488540E+03</pdfrwt>
<totfact> 0.73932838E+02</totfact>
</mgrwt>
</event>
<event>
 4    1  0.6034452E-005  0.5291788E+03  0.7818608E-02  0.1006431E+00
         -2   -1    0    0    0  501 -0.00000000000E+00  0.00000000000E+00  0.25822157898E+02  0.25822158024E+02  0.25500000000E-02 0. -1.
          2   -1    0    0  501    0  0.00000000000E+00 -0.00000000000E+00 -0.27111427814E+04  0.27111427814E+04  0.25500000000E-02 0.  1.
    5000001    1    1    2    0    0 -0.65168498669E+02  0.14964248806E+03 -0.18059530180E+04  0.18230332171E+04  0.18800000000E+03 0.  0.
   -5000001    1    1    2    0    0  0.65168498669E+02 -0.14964248806E+03 -0.87936760549E+03  0.91393172230E+03  0.18800000000E+03 0.  0.
<mgrwt>
<rscale>  0 0.52917882E+03</rscale>
<asrwt>0</asrwt>
<pdfrwt beam="1">  1        2 0.38730593E+00 0.52917882E+03</pdfrwt>
<pdfrwt beam="2">  1       -2 0.36888814E-02 0.52917882E+03</pdfrwt>
<totfact> 0.11856469E+03</totfact>
</mgrwt>
</event>
<event>
 4    1  0.6034452E-005  0.5509953E+03  0.7818608E-02  0.1001264E+00
         -2   -1    0    0    0  501 -0.00000000000E+00  0.00000000000E+00  0.96583201284E+02  0.96583201318E+02  0.25500000000E-02 0. -1.
          2   -1    0    0  501    0  0.00000000000E+00 -0.00000000000E+00 -0.78584021436E+03  0.78584021436E+03  0.25500000000E-02 0.  1.
    5000001    1    1    2    0    0 -0.19033478234E+03 -0.57532046601E+02 -0.39571881635E+03  0.48111812205E+03  0.18800000000E+03 0.  0.
   -5000001    1    1    2    0    0  0.19033478234E+03  0.57532046601E+02 -0.29353819673E+03  0.40130529363E+03  0.18800000000E+03 0.  0.
<mgrwt>
<rscale>  0 0.55099533E+03</rscale>
<asrwt>0</asrwt>
<pdfrwt beam="1">  1        2 0.11226288E+00 0.55099533E+03</pdfrwt>
<pdfrwt beam="2">  1       -2 0.13797601E-01 0.55099533E+03</pdfrwt>
<totfact> 0.15701458E+03</totfact>
</mgrwt>
</event>
<event>
 4    1  0.6034452E-005  0.7007437E+03  0.7818608E-02  0.9715961E-01
         -2   -1    0    0    0  501 -0.00000000000E+00  0.00000000000E+00  0.24128728643E+03  0.24128728644E+03  0.25500000000E-02 0. -1.
          2   -1    0    0  501    0  0.00000000000E+00 -0.00000000000E+00 -0.50877295811E+03  0.50877295812E+03  0.25500000000E-02 0.  1.
    5000001    1    1    2    0    0  0.25468139176E+03 -0.91716558068E+02 -0.26103185146E+03  0.42042379311E+03  0.18800000000E+03 0.  0.
   -5000001    1    1    2    0    0 -0.25468139176E+03  0.91716558068E+02 -0.64538202225E+01  0.32963645146E+03  0.18800000000E+03 0.  0.
<mgrwt>
<rscale>  0 0.70074374E+03</rscale>
<asrwt>0</asrwt>
<pdfrwt beam="1">  1        2 0.72681850E-01 0.70074374E+03</pdfrwt>
<pdfrwt beam="2">  1       -2 0.34469613E-01 0.70074374E+03</pdfrwt>
<totfact> 0.52187818E+02</totfact>
</mgrwt>
</event>
<event>
 4    1  0.6034452E-005  0.6961108E+03  0.7818608E-02  0.9723907E-01
          2   -1    0    0  501    0  0.00000000000E+00  0.00000000000E+00  0.77235699780E+03  0.77235699780E+03  0.25500000000E-02 0.  1.
         -2   -1    0    0    0  501 -0.00000000000E+00 -0.00000000000E+00 -0.15684786557E+03  0.15684786559E+03  0.25500000000E-02 0. -1.
    5000001    1    1    2    0    0  0.19480463807E+03 -0.19879358842E+03  0.42959086894E+03  0.54530730096E+03  0.18800000000E+03 0.  0.
   -5000001    1    1    2    0    0 -0.19480463807E+03  0.19879358842E+03  0.18591826329E+03  0.38389756243E+03  0.18800000000E+03 0.  0.
<mgrwt>
<rscale>  0 0.69611076E+03</rscale>
<asrwt>0</asrwt>
<pdfrwt beam="1">  1        2 0.11033671E+00 0.69611076E+03</pdfrwt>
<pdfrwt beam="2">  1       -2 0.22406838E-01 0.69611076E+03</pdfrwt>
<totfact> 0.69640354E+02</totfact>
</mgrwt>
</event>
<event>
 4    1  0.6034452E-005  0.5477581E+03  0.7818608E-02  0.1002014E+00
         -2   -1    0    0    0  501 -0.00000000000E+00  0.00000000000E+00  0.73862395497E+02  0.73862395541E+02  0.25500000000E-02 0. -1.
          2   -1    0    0  501    0  0.00000000000E+00 -0.00000000000E+00 -0.10155332813E+04  0.10155332813E+04  0.25500000000E-02 0.  1.
    5000001    1    1    2    0    0 -0.15114901218E+03  0.41413685893E+02 -0.22640711117E+03  0.33341460263E+03  0.18800000000E+03 0.  0.
   -5000001    1    1    2    0    0  0.15114901218E+03 -0.41413685893E+02 -0.71526377465E+03  0.75598107423E+03  0.18800000000E+03 0.  0.
<mgrwt>
<rscale>  0 0.54775805E+03</rscale>
<asrwt>0</asrwt>
<pdfrwt beam="1">  1        2 0.14507617E+00 0.54775805E+03</pdfrwt>
<pdfrwt beam="2">  1       -2 0.10551771E-01 0.54775805E+03</pdfrwt>
<totfact> 0.17344131E+03</totfact>
</mgrwt>
</event>
<event>
 4    1  0.6034452E-005  0.5767773E+03  0.7818608E-02  0.9954792E-01
         -2   -1    0    0    0  501 -0.00000000000E+00  0.00000000000E+00  0.24411931471E+03  0.24411931473E+03  0.25500000000E-02 0. -1.
          2   -1    0    0  501    0  0.00000000000E+00 -0.00000000000E+00 -0.34068597280E+03  0.34068597281E+03  0.25500000000E-02 0.  1.
    5000001    1    1    2    0    0 -0.19230194418E+03  0.10405984844E+03 -0.44286839880E+02  0.29174271881E+03  0.18800000000E+03 0.  0.
   -5000001    1    1    2    0    0  0.19230194418E+03 -0.10405984844E+03 -0.52279818207E+02  0.29306256872E+03  0.18800000000E+03 0.  0.
<mgrwt>
<rscale>  0 0.57677734E+03</rscale>
<asrwt>0</asrwt>
<pdfrwt beam="1">  1        2 0.48669425E-01 0.57677734E+03</pdfrwt>
<pdfrwt beam="2">  1       -2 0.34874188E-01 0.57677734E+03</pdfrwt>
<totfact> 0.80155353E+02</totfact>
</mgrwt>
</event>
<event>
 4    1  0.6034452E-005  0.5356888E+03  0.7818608E-02  0.1004862E+00
          2   -1    0    0  501    0  0.00000000000E+00  0.00000000000E+00  0.12706680728E+04  0.12706680728E+04  0.25500000000E-02 0.  1.
         -2   -1    0    0    0  501 -0.00000000000E+00 -0.00000000000E+00 -0.56458988081E+02  0.56458988139E+02  0.25500000000E-02 0. -1.
    5000001    1    1    2    0    0 -0.10951510806E+03 -0.91709695503E+02  0.92040195973E+03  0.95020418575E+03  0.18800000000E+03 0.  0.
   -5000001    1    1    2    0    0  0.10951510806E+03  0.91709695503E+02  0.29380712496E+03  0.37692287516E+03  0.18800000000E+03 0.  0.
<mgrwt>
<rscale>  0 0.53568884E+03</rscale>
<asrwt>0</asrwt>
<pdfrwt beam="1">  1        2 0.18152399E+00 0.53568884E+03</pdfrwt>
<pdfrwt beam="2">  1       -2 0.80655706E-02 0.53568884E+03</pdfrwt>
<totfact> 0.19100059E+03</totfact>
</mgrwt>
</event>
<event>
 4    1  0.6034452E-005  0.1003436E+04  0.7818608E-02  0.9304785E-01
          2   -1    0    0  501    0  0.00000000000E+00  0.00000000000E+00  0.98586443734E+03  0.98586443735E+03  0.25500000000E-02 0. -1.
         -2   -1    0    0    0  501 -0.00000000000E+00 -0.00000000000E+00 -0.25533002118E+03  0.25533002119E+03  0.25500000000E-02 0.  1.
    5000001    1    1    2    0    0 -0.34845797437E+03  0.21623445964E+03  0.63682231826E+03  0.78042742550E+03  0.18800000000E+03 0.  0.
   -5000001    1    1    2    0    0  0.34845797437E+03 -0.21623445964E+03  0.93712097904E+02  0.46076703303E+03  0.18800000000E+03 0.  0.
<mgrwt>
<rscale>  0 0.10034357E+04</rscale>
<asrwt>0</asrwt>
<pdfrwt beam="1">  1        2 0.14083777E+00 0.10034357E+04</pdfrwt>
<pdfrwt beam="2">  1       -2 0.36475718E-01 0.10034357E+04</pdfrwt>
<totfact> 0.20201795E+02</totfact>
</mgrwt>
</event>
<event>
 4    1  0.6034452E-005  0.4895525E+03  0.7818608E-02  0.1016542E+00
          2   -1    0    0  501    0  0.00000000000E+00  0.00000000000E+00  0.22346200675E+03  0.22346200676E+03  0.25500000000E-02 0.  1.
         -2   -1    0    0    0  501 -0.00000000000E+00 -0.00000000000E+00 -0.26812345524E+03  0.26812345526E+03  0.25500000000E-02 0. -1.
    5000001    1    1    2    0    0  0.12930890412E+03 -0.78679187269E+02  0.18584011484E+02  0.24207555159E+03  0.18800000000E+03 0.  0.
   -5000001    1    1    2    0    0 -0.12930890412E+03  0.78679187269E+02 -0.63245459978E+02  0.24950991043E+03  0.18800000000E+03 0.  0.
<mgrwt>
<rscale>  0 0.48955247E+03</rscale>
<asrwt>0</asrwt>
<pdfrwt beam="1">  1        2 0.31923144E-01 0.48955247E+03</pdfrwt>
<pdfrwt beam="2">  1       -2 0.38303350E-01 0.48955247E+03</pdfrwt>
<totfact> 0.10683667E+03</totfact>
</mgrwt>
</event>
<event>
 4    1  0.6034452E-005  0.5163962E+03  0.7818608E-02  0.1009586E+00
         -2   -1    0    0    0  501 -0.00000000000E+00  0.00000000000E+00  0.12305290814E+03  0.12305290817E+03  0.25500000000E-02 0. -1.
          2   -1    0    0  501    0  0.00000000000E+00 -0.00000000000E+00 -0.54176904754E+03  0.54176904755E+03  0.25500000000E-02 0.  1.
    5000001    1    1    2    0    0 -0.17045330450E+03  0.21298150467E+02 -0.26419572307E+03  0.36694866169E+03  0.18800000000E+03 0.  0.
   -5000001    1    1    2    0    0  0.17045330450E+03 -0.21298150467E+02 -0.15452041633E+03  0.29787329402E+03  0.18800000000E+03 0.  0.
<mgrwt>
<rscale>  0 0.51639619E+03</rscale>
<asrwt>0</asrwt>
<pdfrwt beam="1">  1        2 0.77395577E-01 0.51639619E+03</pdfrwt>
<pdfrwt beam="2">  1       -2 0.17578987E-01 0.51639619E+03</pdfrwt>
<totfact> 0.16303841E+03</totfact>
</mgrwt>
</event>
<event>
 4    1  0.6034452E-005  0.6258372E+03  0.7818608E-02  0.9853206E-01
          2   -1    0    0  501    0  0.00000000000E+00  0.00000000000E+00  0.12636477634E+04  0.12636477634E+04  0.25500000000E-02 0.  1.
         -2   -1    0    0    0  501 -0.00000000000E+00 -0.00000000000E+00 -0.77488407340E+02  0.77488407382E+02  0.25500000000E-02 0. -1.
    5000001    1    1    2    0    0  0.75522572951E+02 -0.12651060112E+03  0.10262809266E+04  0.10537101744E+04  0.18800000000E+03 0.  0.
   -5000001    1    1    2    0    0 -0.75522572951E+02  0.12651060112E+03  0.15987842946E+03  0.28742599644E+03  0.18800000000E+03 0.  0.
<mgrwt>
<rscale>  0 0.62583721E+03</rscale>
<asrwt>0</asrwt>
<pdfrwt beam="1">  1        2 0.18052111E+00 0.62583721E+03</pdfrwt>
<pdfrwt beam="2">  1       -2 0.11069772E-01 0.62583721E+03</pdfrwt>
<totfact> 0.11538171E+03</totfact>
</mgrwt>
</event>
<event>
 4    1  0.6034452E-005  0.4360630E+03  0.7818608E-02  0.1031962E+00
          2   -1    0    0  501    0  0.00000000000E+00  0.00000000000E+00  0.55036276833E+03  0.55036276834E+03  0.25500000000E-02 0.  1.
         -2   -1    0    0    0  501 -0.00000000000E+00 -0.00000000000E+00 -0.86375271414E+02  0.86375271452E+02  0.25500000000E-02 0. -1.
    5000001    1    1    2    0    0 -0.61329042053E+01  0.16607872229E+02  0.39115057113E+03  0.43434571856E+03  0.18800000000E+03 0.  0.
   -5000001    1    1    2    0    0  0.61329042053E+01 -0.16607872229E+02  0.72836925782E+02  0.20239232123E+03  0.18800000000E+03 0.  0.
<mgrwt>
<rscale>  0 0.43606299E+03</rscale>
<asrwt>0</asrwt>
<pdfrwt beam="1">  1        2 0.78623249E-01 0.43606299E+03</pdfrwt>
<pdfrwt beam="2">  1       -2 0.12339325E-01 0.43606299E+03</pdfrwt>
<totfact> 0.28901295E+03</totfact>
</mgrwt>
</event>
<event>
 4    1  0.6034452E-005  0.1523049E+04  0.7818608E-02  0.8869268E-01
         -2   -1    0    0    0  501 -0.00000000000E+00  0.00000000000E+00  0.21824762953E+04  0.21824762953E+04  0.25500000000E-02 0. -1.
          2   -1    0    0  501    0  0.00000000000E+00 -0.00000000000E+00 -0.26571643458E+03  0.26571643460E+03  0.25500000000E-02 0.  1.
    5000001    1    1    2    0    0  0.49232661697E+03  0.44406053422E+03  0.14792476559E+04  0.16318985518E+04  0.18800000000E+03 0.  0.
   -5000001    1    1    2    0    0 -0.49232661697E+03 -0.44406053422E+03  0.43751220477E+03  0.81629417807E+03  0.18800000000E+03 0.  0.
<mgrwt>
<rscale>  0 0.15230493E+04</rscale>
<asrwt>0</asrwt>
<pdfrwt beam="1">  1        2 0.37959491E-01 0.15230493E+04</pdfrwt>
<pdfrwt beam="2">  1       -2 0.31178233E+00 0.15230493E+04</pdfrwt>
<totfact> 0.35673511E+00</totfact>
</mgrwt>
</event>
<event>
 4    1  0.6034452E-005  0.7725896E+03  0.7818608E-02  0.9600562E-01
         -2   -1    0    0    0  501 -0.00000000000E+00  0.00000000000E+00  0.17583796441E+03  0.17583796443E+03  0.25500000000E-02 0. -1.
          2   -1    0    0  501    0  0.00000000000E+00 -0.00000000000E+00 -0.84864311906E+03  0.84864311907E+03  0.25500000000E-02 0.  1.
    5000001    1    1    2    0    0  0.14667907295E+03 -0.28276859305E+03 -0.48410440151E+03  0.60924042809E+03  0.18800000000E+03 0.  0.
   -5000001    1    1    2    0    0 -0.14667907295E+03  0.28276859305E+03 -0.18870075315E+03  0.41524065540E+03  0.18800000000E+03 0.  0.
<mgrwt>
<rscale>  0 0.77258962E+03</rscale>
<asrwt>0</asrwt>
<pdfrwt beam="1">  1        2 0.12123473E+00 0.77258962E+03</pdfrwt>
<pdfrwt beam="2">  1       -2 0.25119710E-01 0.77258962E+03</pdfrwt>
<totfact> 0.50139331E+02</totfact>
</mgrwt>
</event>
<event>
 4    1  0.6034452E-005  0.5711277E+03  0.7818608E-02  0.9967186E-01
          2   -1    0    0  501    0  0.00000000000E+00  0.00000000000E+00  0.13019538764E+04  0.13019538764E+04  0.25500000000E-02 0.  1.
         -2   -1    0    0    0  501 -0.00000000000E+00 -0.00000000000E+00 -0.62634105008E+02  0.62634105060E+02  0.25500000000E-02 0. -1.
    5000001    1    1    2    0    0 -0.19909875066E+03 -0.72440773247E+02  0.53302598528E+03  0.60361302100E+03  0.18800000000E+03 0.  0.
   -5000001    1    1    2    0    0  0.19909875066E+03  0.72440773247E+02  0.70629378610E+03  0.76097496045E+03  0.18800000000E+03 0.  0.
<mgrwt>
<rscale>  0 0.57112771E+03</rscale>
<asrwt>0</asrwt>
<pdfrwt beam="1">  1        2 0.18599343E+00 0.57112771E+03</pdfrwt>
<pdfrwt beam="2">  1       -2 0.89477285E-02 0.57112771E+03</pdfrwt>
<totfact> 0.15547039E+03</totfact>
</mgrwt>
</event>
<event>
 4    1  0.6034452E-005  0.6724586E+03  0.7818608E-02  0.9765527E-01
         -2   -1    0    0    0  501 -0.00000000000E+00  0.00000000000E+00  0.15719818330E+03  0.15719818332E+03  0.25500000000E-02 0. -1.
          2   -1    0    0  501    0  0.00000000000E+00 -0.00000000000E+00 -0.71915677465E+03  0.71915677465E+03  0.25500000000E-02 0.  1.
    5000001    1    1    2    0    0  0.12410959170E+03  0.24670398732E+03 -0.33043420132E+03  0.46989021006E+03  0.18800000000E+03 0.  0.
   -5000001    1    1    2    0    0 -0.12410959170E+03 -0.24670398732E+03 -0.23152439003E+03  0.40646474791E+03  0.18800000000E+03 0.  0.
<mgrwt>
<rscale>  0 0.67245859E+03</rscale>
<asrwt>0</asrwt>
<pdfrwt beam="1">  1        2 0.10273668E+00 0.67245859E+03</pdfrwt>
<pdfrwt beam="2">  1       -2 0.22456884E-01 0.67245859E+03</pdfrwt>
<totfact> 0.75900019E+02</totfact>
</mgrwt>
</event>
<event>
 4    1  0.6034452E-005  0.4851083E+03  0.7818608E-02  0.1017741E+00
         -2   -1    0    0    0  501 -0.00000000000E+00  0.00000000000E+00  0.43982944932E+02  0.43982945006E+02  0.25500000000E-02 0. -1.
          2   -1    0    0  501    0  0.00000000000E+00 -0.00000000000E+00 -0.13376211820E+04  0.13376211820E+04  0.25500000000E-02 0.  1.
    5000001    1    1    2    0    0 -0.13157130181E+03 -0.66822097266E+02 -0.52896705150E+03  0.58045356552E+03  0.18800000000E+03 0.  0.
   -5000001    1    1    2    0    0  0.13157130181E+03  0.66822097266E+02 -0.76467118553E+03  0.80115056146E+03  0.18800000000E+03 0.  0.
<mgrwt>
<rscale>  0 0.48510831E+03</rscale>
<asrwt>0</asrwt>
<pdfrwt beam="1">  1        2 0.19108871E+00 0.48510831E+03</pdfrwt>
<pdfrwt beam="2">  1       -2 0.62832787E-02 0.48510831E+03</pdfrwt>
<totfact> 0.26069998E+03</totfact>
</mgrwt>
</event>
<event>
 4    1  0.6034452E-005  0.6317713E+03  0.7818608E-02  0.9841598E-01
         -2   -1    0    0    0  501 -0.00000000000E+00  0.00000000000E+00  0.45639100348E+03  0.45639100348E+03  0.25500000000E-02 0. -1.
          2   -1    0    0  501    0  0.00000000000E+00 -0.00000000000E+00 -0.21863649883E+03  0.21863649885E+03  0.25500000000E-02 0.  1.
    5000001    1    1    2    0    0 -0.10217323730E+03  0.20137312956E+03 -0.50338457782E+01  0.29387046012E+03  0.18800000000E+03 0.  0.
   -5000001    1    1    2    0    0  0.10217323730E+03 -0.20137312956E+03  0.24278835042E+03  0.38115704221E+03  0.18800000000E+03 0.  0.
<mgrwt>
<rscale>  0 0.63177126E+03</rscale>
<asrwt>0</asrwt>
<pdfrwt beam="1">  1        2 0.31233785E-01 0.63177126E+03</pdfrwt>
<pdfrwt beam="2">  1       -2 0.65198715E-01 0.63177126E+03</pdfrwt>
<totfact> 0.37222222E+02</totfact>
</mgrwt>
</event>
<event>
 4    1  0.6034452E-005  0.8240951E+03  0.7818608E-02  0.9525781E-01
         -2   -1    0    0    0  501 -0.00000000000E+00  0.00000000000E+00  0.20538655958E+03  0.20538655959E+03  0.25500000000E-02 0. -1.
          2   -1    0    0  501    0  0.00000000000E+00 -0.00000000000E+00 -0.82665191480E+03  0.82665191480E+03  0.25500000000E-02 0.  1.
    5000001    1    1    2    0    0  0.29039478874E+03 -0.56888401004E+02 -0.39498988478E+02  0.35280248524E+03  0.18800000000E+03 0.  0.
   -5000001    1    1    2    0    0 -0.29039478874E+03  0.56888401004E+02 -0.58176636674E+03  0.67923598916E+03  0.18800000000E+03 0.  0.
<mgrwt>
<rscale>  0 0.82409512E+03</rscale>
<asrwt>0</asrwt>
<pdfrwt beam="1">  1        2 0.11809313E+00 0.82409512E+03</pdfrwt>
<pdfrwt beam="2">  1       -2 0.29340938E-01 0.82409512E+03</pdfrwt>
<totfact> 0.38998213E+02</totfact>
</mgrwt>
</event>
<event>
 4    1  0.6034452E-005  0.6472051E+03  0.7818608E-02  0.9812038E-01
         -2   -1    0    0    0  501 -0.00000000000E+00  0.00000000000E+00  0.98450431732E+02  0.98450431765E+02  0.25500000000E-02 0. -1.
          2   -1    0    0  501    0  0.00000000000E+00 -0.00000000000E+00 -0.10636683390E+04  0.10636683390E+04  0.25500000000E-02 0.  1.
    5000001    1    1    2    0    0  0.20860039936E+03  0.84251705990E+01 -0.19425226581E+03  0.34155973546E+03  0.18800000000E+03 0.  0.
   -5000001    1    1    2    0    0 -0.20860039936E+03 -0.84251705990E+01 -0.77096564142E+03  0.82055903527E+03  0.18800000000E+03 0.  0.
<mgrwt>
<rscale>  0 0.64720509E+03</rscale>
<asrwt>0</asrwt>
<pdfrwt beam="1">  1        2 0.15195261E+00 0.64720509E+03</pdfrwt>
<pdfrwt beam="2">  1       -2 0.14064348E-01 0.64720509E+03</pdfrwt>
<totfact> 0.10086041E+03</totfact>
</mgrwt>
</event>
<event>
 4    1  0.6034452E-005  0.5251993E+03  0.7818608E-02  0.1007403E+00
         -2   -1    0    0    0  501 -0.00000000000E+00  0.00000000000E+00  0.28197343710E+03  0.28197343711E+03  0.25500000000E-02 0. -1.
          2   -1    0    0  501    0  0.00000000000E+00 -0.00000000000E+00 -0.24455695599E+03  0.24455695600E+03  0.25500000000E-02 0.  1.
    5000001    1    1    2    0    0 -0.68721422660E+02  0.14126755540E+03 -0.76058635826E+02  0.25653084069E+03  0.18800000000E+03 0.  0.
   -5000001    1    1    2    0    0  0.68721422660E+02 -0.14126755540E+03  0.11347511694E+03  0.26999955242E+03  0.18800000000E+03 0.  0.
<mgrwt>
<rscale>  0 0.52519926E+03</rscale>
<asrwt>0</asrwt>
<pdfrwt beam="1">  1        2 0.34936708E-01 0.52519926E+03</pdfrwt>
<pdfrwt beam="2">  1       -2 0.40281920E-01 0.52519926E+03</pdfrwt>
<totfact> 0.87706628E+02</totfact>
</mgrwt>
</event>
<event>
 4    1  0.6034452E-005  0.7103910E+03  0.7818608E-02  0.9699625E-01
          2   -1    0    0  501    0  0.00000000000E+00  0.00000000000E+00  0.10057933440E+04  0.10057933440E+04  0.25500000000E-02 0.  1.
         -2   -1    0    0    0  501 -0.00000000000E+00 -0.00000000000E+00 -0.12543713621E+03  0.12543713624E+03  0.25500000000E-02 0. -1.
    5000001    1    1    2    0    0  0.21047313994E+03 -0.21567520766E+03  0.44377386099E+03  0.56841356206E+03  0.18800000000E+03 0.  0.
   -5000001    1    1    2    0    0 -0.21047313994E+03  0.21567520766E+03  0.43658234676E+03  0.56281691814E+03  0.18800000000E+03 0.  0.
<mgrwt>
<rscale>  0 0.71039098E+03</rscale>
<asrwt>0</asrwt>
<pdfrwt beam="1">  1        2 0.14368477E+00 0.71039098E+03</pdfrwt>
<pdfrwt beam="2">  1       -2 0.17919591E-01 0.71039098E+03</pdfrwt>
<totfact> 0.72282721E+02</totfact>
</mgrwt>
</event>
<event>
 4    1  0.6034452E-005  0.1026464E+04  0.7818608E-02  0.9279987E-01
          2   -1    0    0  501    0  0.00000000000E+00  0.00000000000E+00  0.70972682965E+03  0.70972682966E+03  0.25500000000E-02 0.  1.
         -2   -1    0    0    0  501 -0.00000000000E+00 -0.00000000000E+00 -0.37113852458E+03  0.37113852458E+03  0.25500000000E-02 0. -1.
    5000001    1    1    2    0    0 -0.24740556701E+03  0.36750707341E+03  0.35704717131E+03  0.59924756664E+03  0.18800000000E+03 0.  0.
   -5000001    1    1    2    0    0  0.24740556701E+03 -0.36750707341E+03 -0.18458866231E+02  0.48161778760E+03  0.18800000000E+03 0.  0.
<mgrwt>
<rscale>  0 0.10264638E+04</rscale>
<asrwt>0</asrwt>
<pdfrwt beam="1">  1        2 0.10138955E+00 0.10264638E+04</pdfrwt>
<pdfrwt beam="2">  1       -2 0.53019790E-01 0.10264638E+04</pdfrwt>
<totfact> 0.14798622E+02</totfact>
</mgrwt>
</event>
<event>
 4    1  0.6034452E-005  0.6802071E+03  0.7818608E-02  0.9751692E-01
          2   -1    0    0  501    0  0.00000000000E+00  0.00000000000E+00  0.97172423680E+03  0.97172423681E+03  0.25500000000E-02 0.  1.
         -2   -1    0    0    0  501 -0.00000000000E+00 -0.00000000000E+00 -0.11903626410E+03  0.11903626412E+03  0.25500000000E-02 0. -1.
    5000001    1    1    2    0    0  0.33539162741E+02  0.27696279694E+03  0.34627524129E+03  0.48278754029E+03  0.18800000000E+03 0.  0.
   -5000001    1    1    2    0    0 -0.33539162741E+02 -0.27696279694E+03  0.50641273142E+03  0.60797296064E+03  0.18800000000E+03 0.  0.
<mgrwt>
<rscale>  0 0.68020709E+03</rscale>
<asrwt>0</asrwt>
<pdfrwt beam="1">  1        2 0.13881776E+00 0.68020709E+03</pdfrwt>
<pdfrwt beam="2">  1       -2 0.17005179E-01 0.68020709E+03</pdfrwt>
<totfact> 0.83079016E+02</totfact>
</mgrwt>
</event>
<event>
 4    1  0.6034452E-005  0.1123857E+04  0.7818608E-02  0.9182246E-01
          2   -1    0    0  501    0  0.00000000000E+00  0.00000000000E+00  0.78577016961E+03  0.78577016961E+03  0.25500000000E-02 0.  1.
         -2   -1    0    0    0  501 -0.00000000000E+00 -0.00000000000E+00 -0.40185236406E+03  0.40185236407E+03  0.25500000000E-02 0. -1.
    5000001    1    1    2    0    0 -0.37603731814E+02 -0.52701981231E+03  0.15451282102E+03  0.58170622747E+03  0.18800000000E+03 0.  0.
   -5000001    1    1    2    0    0  0.37603731814E+02  0.52701981231E+03  0.22940498452E+03  0.60591630621E+03  0.18800000000E+03 0.  0.
<mgrwt>
<rscale>  0 0.11238569E+04</rscale>
<asrwt>0</asrwt>
<pdfrwt beam="1">  1        2 0.11225288E+00 0.11238569E+04</pdfrwt>
<pdfrwt beam="2">  1       -2 0.57407481E-01 0.11238569E+04</pdfrwt>
<totfact> 0.10969041E+02</totfact>
</mgrwt>
</event>
<event>
 4    1  0.6034452E-005  0.2888939E+04  0.7818608E-02  0.8276176E-01
          2   -1    0    0  501    0  0.00000000000E+00  0.00000000000E+00  0.11587078030E+04  0.11587078030E+04  0.25500000000E-02 0.  1.
         -2   -1    0    0    0  501 -0.00000000000E+00 -0.00000000000E+00 -0.18007065568E+04  0.18007065568E+04  0.25500000000E-02 0. -1.
    5000001    1    1    2    0    0 -0.10006299703E+03  0.10585212969E+04  0.66192262161E+03  0.12664775941E+04  0.18800000000E+03 0.  0.
   -5000001    1    1    2    0    0  0.10006299703E+03 -0.10585212969E+04 -0.13039213755E+04  0.16929367657E+04  0.18800000000E+03 0.  0.
<mgrwt>
<rscale>  0 0.28889394E+04</rscale>
<asrwt>0</asrwt>
<pdfrwt beam="1">  1        2 0.16552969E+00 0.28889394E+04</pdfrwt>
<pdfrwt beam="2">  1       -2 0.25724379E+00 0.28889394E+04</pdfrwt>
<totfact> 0.11384543E+00</totfact>
</mgrwt>
</event>
<event>
 4    1  0.6034452E-005  0.7533657E+03  0.7818608E-02  0.9630085E-01
          2   -1    0    0  501    0  0.00000000000E+00  0.00000000000E+00  0.10443361098E+04  0.10443361098E+04  0.25500000000E-02 0.  1.
         -2   -1    0    0    0  501 -0.00000000000E+00 -0.00000000000E+00 -0.13586618460E+03  0.13586618462E+03  0.25500000000E-02 0. -1.
    5000001    1    1    2    0    0  0.26074394481E+03  0.11759507369E+03  0.70059048311E+03  0.77973523143E+03  0.18800000000E+03 0.  0.
   -5000001    1    1    2    0    0 -0.26074394481E+03 -0.11759507369E+03  0.20787944214E+03  0.40046706304E+03  0.18800000000E+03 0.  0.
<mgrwt>
<rscale>  0 0.75336568E+03</rscale>
<asrwt>0</asrwt>
<pdfrwt beam="1">  1        2 0.14919088E+00 0.75336568E+03</pdfrwt>
<pdfrwt beam="2">  1       -2 0.19409454E-01 0.75336568E+03</pdfrwt>
<totfact> 0.59555402E+02</totfact>
</mgrwt>
</event>
<event>
 4    1  0.6034452E-005  0.4918220E+03  0.7818608E-02  0.1015936E+00
         -2   -1    0    0    0  501 -0.00000000000E+00  0.00000000000E+00  0.45452232955E+02  0.45452233027E+02  0.25500000000E-02 0. -1.
          2   -1    0    0  501    0  0.00000000000E+00 -0.00000000000E+00 -0.13304567386E+04  0.13304567386E+04  0.25500000000E-02 0.  1.
    5000001    1    1    2    0    0  0.13024478877E+03  0.76179918766E+02 -0.50656358410E+03  0.56099710317E+03  0.18800000000E+03 0.  0.
   -5000001    1    1    2    0    0 -0.13024478877E+03 -0.76179918766E+02 -0.77844092157E+03  0.81491186848E+03  0.18800000000E+03 0.  0.
<mgrwt>
<rscale>  0 0.49182204E+03</rscale>
<asrwt>0</asrwt>
<pdfrwt beam="1">  1        2 0.19006522E+00 0.49182204E+03</pdfrwt>
<pdfrwt beam="2">  1       -2 0.64931770E-02 0.49182204E+03</pdfrwt>
<totfact> 0.24981622E+03</totfact>
</mgrwt>
</event>
<event>
 4    1  0.6034452E-005  0.6831134E+03  0.7818608E-02  0.9746554E-01
          2   -1    0    0  501    0  0.00000000000E+00  0.00000000000E+00  0.83476534497E+03  0.83476534497E+03  0.25500000000E-02 0.  1.
         -2   -1    0    0    0  501 -0.00000000000E+00 -0.00000000000E+00 -0.13975303170E+03  0.13975303173E+03  0.25500000000E-02 0. -1.
    5000001    1    1    2    0    0 -0.58614495107E+02 -0.24890310553E+03  0.16745925811E+03  0.35885236254E+03  0.18800000000E+03 0.  0.
   -5000001    1    1    2    0    0  0.58614495107E+02  0.24890310553E+03  0.52755305516E+03  0.61566601415E+03  0.18800000000E+03 0.  0.
<mgrwt>
<rscale>  0 0.68311342E+03</rscale>
<asrwt>0</asrwt>
<pdfrwt beam="1">  1        2 0.11925219E+00 0.68311342E+03</pdfrwt>
<pdfrwt beam="2">  1       -2 0.19964719E-01 0.68311342E+03</pdfrwt>
<totfact> 0.77232233E+02</totfact>
</mgrwt>
</event>
<event>
 4    1  0.6034452E-005  0.5393379E+03  0.7818608E-02  0.1003992E+00
          2   -1    0    0  501    0  0.00000000000E+00  0.00000000000E+00  0.49328858676E+03  0.49328858677E+03  0.25500000000E-02 0.  1.
         -2   -1    0    0    0  501 -0.00000000000E+00 -0.00000000000E+00 -0.14742148062E+03  0.14742148064E+03  0.25500000000E-02 0. -1.
    5000001    1    1    2    0    0 -0.15083883166E+03 -0.44147629832E+02  0.39184353188E+02  0.24815474989E+03  0.18800000000E+03 0.  0.
   -5000001    1    1    2    0    0  0.15083883166E+03  0.44147629832E+02  0.30668275295E+03  0.39255531752E+03  0.18800000000E+03 0.  0.
<mgrwt>
<rscale>  0 0.53933787E+03</rscale>
<asrwt>0</asrwt>
<pdfrwt beam="1">  1        2 0.70469799E-01 0.53933787E+03</pdfrwt>
<pdfrwt beam="2">  1       -2 0.21060211E-01 0.53933787E+03</pdfrwt>
<totfact> 0.13275674E+03</totfact>
</mgrwt>
</event>
<event>
 4    1  0.6034452E-005  0.5818818E+03  0.7818608E-02  0.9943725E-01
         -2   -1    0    0    0  501 -0.00000000000E+00  0.00000000000E+00  0.59748760759E+02  0.59748760813E+02  0.25500000000E-02 0. -1.
          2   -1    0    0  501    0  0.00000000000E+00 -0.00000000000E+00 -0.14167090534E+04  0.14167090534E+04  0.25500000000E-02 0.  1.
    5000001    1    1    2    0    0  0.10679232276E+03  0.19074330175E+03 -0.57971743497E+03  0.64745958311E+03  0.18800000000E+03 0.  0.
   -5000001    1    1    2    0    0 -0.10679232276E+03 -0.19074330175E+03 -0.77724285769E+03  0.82899823111E+03  0.18800000000E+03 0.  0.
<mgrwt>
<rscale>  0 0.58188181E+03</rscale>
<asrwt>0</asrwt>
<pdfrwt beam="1">  1        2 0.20238699E+00 0.58188181E+03</pdfrwt>
<pdfrwt beam="2">  1       -2 0.85355381E-02 0.58188181E+03</pdfrwt>
<totfact> 0.14551681E+03</totfact>
</mgrwt>
</event>
<event>
 4    1  0.6034452E-005  0.7962467E+03  0.7818608E-02  0.9565466E-01
          2   -1    0    0  501    0  0.00000000000E+00  0.00000000000E+00  0.12964329679E+04  0.12964329679E+04  0.25500000000E-02 0.  1.
         -2   -1    0    0    0  501 -0.00000000000E+00 -0.00000000000E+00 -0.12226023020E+03  0.12226023022E+03  0.25500000000E-02 0. -1.
    5000001    1    1    2    0    0 -0.22594552132E+03 -0.22885464901E+03  0.33680390964E+03  0.50220185436E+03  0.18800000000E+03 0.  0.
   -5000001    1    1    2    0    0  0.22594552132E+03  0.22885464901E+03  0.83736882807E+03  0.91649134377E+03  0.18800000000E+03 0.  0.
<mgrwt>
<rscale>  0 0.79624668E+03</rscale>
<asrwt>0</asrwt>
<pdfrwt beam="1">  1        2 0.18520473E+00 0.79624668E+03</pdfrwt>
<pdfrwt beam="2">  1       -2 0.17465745E-01 0.79624668E+03</pdfrwt>
<totfact> 0.51185945E+02</totfact>
</mgrwt>
</event>
<event>
 4    1  0.6034452E-005  0.4580627E+03  0.7818608E-02  0.1025345E+00
          2   -1    0    0  501    0  0.00000000000E+00  0.00000000000E+00  0.26947241730E+04  0.26947241730E+04  0.25500000000E-02 0.  1.
         -2   -1    0    0    0  501 -0.00000000000E+00 -0.00000000000E+00 -0.19465948389E+02  0.19465948556E+02  0.25500000000E-02 0. -1.
    5000001    1    1    2    0    0  0.10845872166E+03 -0.61261354492E+02  0.15742816661E+04  0.15903531092E+04  0.18800000000E+03 0.  0.
   -5000001    1    1    2    0    0 -0.10845872166E+03  0.61261354492E+02  0.11009765585E+04  0.11238370123E+04  0.18800000000E+03 0.  0.
<mgrwt>
<rscale>  0 0.45806271E+03</rscale>
<asrwt>0</asrwt>
<pdfrwt beam="1">  1        2 0.38496040E+00 0.45806271E+03</pdfrwt>
<pdfrwt beam="2">  1       -2 0.27808512E-02 0.45806271E+03</pdfrwt>
<totfact> 0.18661038E+03</totfact>
</mgrwt>
</event>
<event>
 4    1  0.6034452E-005  0.4180424E+03  0.7818608E-02  0.1037705E+00
         -2   -1    0    0    0  501 -0.00000000000E+00  0.00000000000E+00  0.28994624112E+03  0.28994624113E+03  0.25500000000E-02 0. -1.
          2   -1    0    0  501    0  0.00000000000E+00 -0.00000000000E+00 -0.15068262580E+03  0.15068262582E+03  0.25500000000E-02 0.  1.
    5000001    1    1    2    0    0 -0.58535178422E+02 -0.70091938083E+02  0.66921074711E+02  0.21945768872E+03  0.18800000000E+03 0.  0.
   -5000001    1    1    2    0    0  0.58535178422E+02  0.70091938083E+02  0.72342540611E+02  0.22117117823E+03  0.18800000000E+03 0.  0.
<mgrwt>
<rscale>  0 0.41804239E+03</rscale>
<asrwt>0</asrwt>
<pdfrwt beam="1">  1        2 0.21526089E-01 0.41804239E+03</pdfrwt>
<pdfrwt beam="2">  1       -2 0.41420892E-01 0.41804239E+03</pdfrwt>
<totfact> 0.14325589E+03</totfact>
</mgrwt>
</event>
<event>
 4    1  0.6034452E-005  0.4487899E+03  0.7818608E-02  0.1028084E+00
         -2   -1    0    0    0  501 -0.00000000000E+00  0.00000000000E+00  0.86909203057E+03  0.86909203057E+03  0.25500000000E-02 0. -1.
          2   -1    0    0  501    0  0.00000000000E+00 -0.00000000000E+00 -0.57937577605E+02  0.57937577662E+02  0.25500000000E-02 0.  1.
    5000001    1    1    2    0    0  0.93138792155E+01  0.11657741725E+03  0.48096656203E+03  0.52948076108E+03  0.18800000000E+03 0.  0.
   -5000001    1    1    2    0    0 -0.93138792155E+01 -0.11657741725E+03  0.33018789093E+03  0.39754884715E+03  0.18800000000E+03 0.  0.
<mgrwt>
<rscale>  0 0.44878987E+03</rscale>
<asrwt>0</asrwt>
<pdfrwt beam="1">  1        2 0.82767969E-02 0.44878987E+03</pdfrwt>
<pdfrwt beam="2">  1       -2 0.12415600E+00 0.44878987E+03</pdfrwt>
<totfact> 0.41802855E+02</totfact>
</mgrwt>
</event>
<event>
 4    1  0.6034452E-005  0.6547580E+03  0.7818608E-02  0.9797892E-01
         -2   -1    0    0    0  501 -0.00000000000E+00  0.00000000000E+00  0.12895545037E+03  0.12895545039E+03  0.25500000000E-02 0. -1.
          2   -1    0    0  501    0  0.00000000000E+00 -0.00000000000E+00 -0.83111657609E+03  0.83111657609E+03  0.25500000000E-02 0.  1.
    5000001    1    1    2    0    0 -0.67349802918E+02  0.21173020552E+03 -0.57086593875E+03  0.64077889784E+03  0.18800000000E+03 0.  0.
   -5000001    1    1    2    0    0  0.67349802918E+02 -0.21173020552E+03 -0.13129518696E+03  0.31929312865E+03  0.18800000000E+03 0.  0.
<mgrwt>
<rscale>  0 0.65475801E+03</rscale>
<asrwt>0</asrwt>
<pdfrwt beam="1">  1        2 0.11873094E+00 0.65475801E+03</pdfrwt>
<pdfrwt beam="2">  1       -2 0.18422208E-01 0.65475801E+03</pdfrwt>
<totfact> 0.89374532E+02</totfact>
</mgrwt>
</event>
<event>
 4    1  0.6034452E-005  0.6573035E+03  0.7818608E-02  0.9793170E-01
         -2   -1    0    0    0  501 -0.00000000000E+00  0.00000000000E+00  0.46594474536E+02  0.46594474605E+02  0.25500000000E-02 0. -1.
          2   -1    0    0  501    0  0.00000000000E+00 -0.00000000000E+00 -0.23181281288E+04  0.23181281288E+04  0.25500000000E-02 0.  1.
    5000001    1    1    2    0    0  0.25278155873E+03  0.71776434715E+02 -0.13521502068E+04  0.13902174487E+04  0.18800000000E+03 0.  0.
   -5000001    1    1    2    0    0 -0.25278155873E+03 -0.71776434715E+02 -0.91938344749E+03  0.97450515469E+03  0.18800000000E+03 0.  0.
<mgrwt>
<rscale>  0 0.65730347E+03</rscale>
<asrwt>0</asrwt>
<pdfrwt beam="1">  1        2 0.33116109E+00 0.65730347E+03</pdfrwt>
<pdfrwt beam="2">  1       -2 0.66563550E-02 0.65730347E+03</pdfrwt>
<totfact> 0.74860716E+02</totfact>
</mgrwt>
</event>
<event>
 4    1  0.6034452E-005  0.8318015E+03  0.7818608E-02  0.9515093E-01
         -2   -1    0    0    0  501 -0.00000000000E+00  0.00000000000E+00  0.12536290270E+03  0.12536290272E+03  0.25500000000E-02 0.  1.
          2   -1    0    0  501    0  0.00000000000E+00 -0.00000000000E+00 -0.13797815786E+04  0.13797815786E+04  0.25500000000E-02 0. -1.
    5000001    1    1    2    0    0  0.17007342431E+03 -0.31523576010E+03 -0.45241813692E+03  0.60689762293E+03  0.18800000000E+03 0.  0.
   -5000001    1    1    2    0    0 -0.17007342431E+03  0.31523576010E+03 -0.80200053896E+03  0.89824685838E+03  0.18800000000E+03 0.  0.
<mgrwt>
<rscale>  0 0.83180148E+03</rscale>
<asrwt>0</asrwt>
<pdfrwt beam="1">  1        2 0.19711165E+00 0.83180148E+03</pdfrwt>
<pdfrwt beam="2">  1       -2 0.17908987E-01 0.83180148E+03</pdfrwt>
<totfact> 0.44083914E+02</totfact>
</mgrwt>
</event>
<event>
 4    1  0.6034452E-005  0.5878889E+03  0.7818608E-02  0.9930856E-01
          2   -1    0    0  501    0  0.00000000000E+00  0.00000000000E+00  0.15877402874E+04  0.15877402874E+04  0.25500000000E-02 0.  1.
         -2   -1    0    0    0  501 -0.00000000000E+00 -0.00000000000E+00 -0.54419055438E+02  0.54419055498E+02  0.25500000000E-02 0. -1.
    5000001    1    1    2    0    0  0.11500880429E+03  0.14205211002E+03  0.39552257116E+03  0.47453970468E+03  0.18800000000E+03 0.  0.
   -5000001    1    1    2    0    0 -0.11500880429E+03 -0.14205211002E+03  0.11377986608E+04  0.11676196382E+04  0.18800000000E+03 0.  0.
<mgrwt>
<rscale>  0 0.58788886E+03</rscale>
<asrwt>0</asrwt>
<pdfrwt beam="1">  1        2 0.22682000E+00 0.58788886E+03</pdfrwt>
<pdfrwt beam="2">  1       -2 0.77741522E-02 0.58788886E+03</pdfrwt>
<totfact> 0.13754833E+03</totfact>
</mgrwt>
</event>
<event>
 4    1  0.6034452E-005  0.6331267E+03  0.7818608E-02  0.9838966E-01
         -2   -1    0    0    0  501 -0.00000000000E+00  0.00000000000E+00  0.30948365340E+02  0.30948365445E+02  0.25500000000E-02 0. -1.
          2   -1    0    0  501    0  0.00000000000E+00 -0.00000000000E+00 -0.32380503292E+04  0.32380503292E+04  0.25500000000E-02 0.  1.
    5000001    1    1    2    0    0 -0.23100642671E+03 -0.35805490282E+02 -0.21255861170E+04  0.21466500281E+04  0.18800000000E+03 0.  0.
   -5000001    1    1    2    0    0  0.23100642671E+03  0.35805490282E+02 -0.10815158469E+04  0.11223486666E+04  0.18800000000E+03 0.  0.
<mgrwt>
<rscale>  0 0.63312673E+03</rscale>
<asrwt>0</asrwt>
<pdfrwt beam="1">  1        2 0.46257840E+00 0.63312673E+03</pdfrwt>
<pdfrwt beam="2">  1       -2 0.44211971E-02 0.63312673E+03</pdfrwt>
<totfact> 0.46048844E+02</totfact>
</mgrwt>
</event>
<event>
 4    1  0.6034452E-005  0.5582272E+03  0.7818608E-02  0.9996074E-01
         -2   -1    0    0    0  501 -0.00000000000E+00  0.00000000000E+00  0.15459922993E+03  0.15459922995E+03  0.25500000000E-02 0. -1.
          2   -1    0    0  501    0  0.00000000000E+00 -0.00000000000E+00 -0.50391200682E+03  0.50391200682E+03  0.25500000000E-02 0.  1.
    5000001    1    1    2    0    0 -0.16716171528E+03  0.11934430206E+03 -0.19747903436E+03  0.34136208123E+03  0.18800000000E+03 0.  0.
   -5000001    1    1    2    0    0  0.16716171528E+03 -0.11934430206E+03 -0.15183374253E+03  0.31714915554E+03  0.18800000000E+03 0.  0.
<mgrwt>
<rscale>  0 0.55822722E+03</rscale>
<asrwt>0</asrwt>
<pdfrwt beam="1">  1        2 0.71987429E-01 0.55822722E+03</pdfrwt>
<pdfrwt beam="2">  1       -2 0.22085605E-01 0.55822722E+03</pdfrwt>
<totfact> 0.11920208E+03</totfact>
</mgrwt>
</event>
<event>
 4    1  0.6034452E-005  0.5648021E+03  0.7818608E-02  0.9981247E-01
         -2   -1    0    0    0  501 -0.00000000000E+00  0.00000000000E+00  0.43057544917E+02  0.43057544993E+02  0.25500000000E-02 0. -1.
          2   -1    0    0  501    0  0.00000000000E+00 -0.00000000000E+00 -0.18521808748E+04  0.18521808748E+04  0.25500000000E-02 0.  1.
    5000001    1    1    2    0    0 -0.17496565437E+03  0.58259341928E+02 -0.12467523013E+04  0.12742615242E+04  0.18800000000E+03 0.  0.
   -5000001    1    1    2    0    0  0.17496565437E+03 -0.58259341928E+02 -0.56237102855E+03  0.62097689561E+03  0.18800000000E+03 0.  0.
<mgrwt>
<rscale>  0 0.56480213E+03</rscale>
<asrwt>0</asrwt>
<pdfrwt beam="1">  1        2 0.26459722E+00 0.56480213E+03</pdfrwt>
<pdfrwt beam="2">  1       -2 0.61510790E-02 0.56480213E+03</pdfrwt>
<totfact> 0.14626129E+03</totfact>
</mgrwt>
</event>
<event>
 4    1  0.6034452E-005  0.5433329E+03  0.7818608E-02  0.1003049E+00
         -2   -1    0    0    0  501 -0.00000000000E+00  0.00000000000E+00  0.53276650860E+03  0.53276650860E+03  0.25500000000E-02 0. -1.
          2   -1    0    0  501    0  0.00000000000E+00 -0.00000000000E+00 -0.13852722974E+03  0.13852722977E+03  0.25500000000E-02 0.  1.
    5000001    1    1    2    0    0  0.14250651666E+03  0.49817131528E+02  0.42464399265E+02  0.24482050382E+03  0.18800000000E+03 0.  0.
   -5000001    1    1    2    0    0 -0.14250651666E+03 -0.49817131528E+02  0.35177487959E+03  0.42647323455E+03  0.18800000000E+03 0.  0.
<mgrwt>
<rscale>  0 0.54333293E+03</rscale>
<asrwt>0</asrwt>
<pdfrwt beam="1">  1        2 0.19789604E-01 0.54333293E+03</pdfrwt>
<pdfrwt beam="2">  1       -2 0.76109503E-01 0.54333293E+03</pdfrwt>
<totfact> 0.44879035E+02</totfact>
</mgrwt>
</event>
<event>
 4    1  0.6034452E-005  0.4221887E+03  0.7818608E-02  0.1036356E+00
          2   -1    0    0  501    0  0.00000000000E+00  0.00000000000E+00  0.15884482749E+03  0.15884482751E+03  0.25500000000E-02 0.  1.
         -2   -1    0    0    0  501 -0.00000000000E+00 -0.00000000000E+00 -0.28053057205E+03  0.28053057207E+03  0.25500000000E-02 0. -1.
    5000001    1    1    2    0    0  0.92474280858E+02 -0.23946381994E+02 -0.50865712139E+02  0.21692450876E+03  0.18800000000E+03 0.  0.
   -5000001    1    1    2    0    0 -0.92474280858E+02  0.23946381994E+02 -0.70820032425E+02  0.22245089081E+03  0.18800000000E+03 0.  0.
<mgrwt>
<rscale>  0 0.42218873E+03</rscale>
<asrwt>0</asrwt>
<pdfrwt beam="1">  1        2 0.22692118E-01 0.42218873E+03</pdfrwt>
<pdfrwt beam="2">  1       -2 0.40075796E-01 0.42218873E+03</pdfrwt>
<totfact> 0.14374894E+03</totfact>
</mgrwt>
</event>
<event>
 4    1  0.6034452E-005  0.5772472E+03  0.7818608E-02  0.9953769E-01
          2   -1    0    0  501    0  0.00000000000E+00  0.00000000000E+00  0.77279484023E+02  0.77279484065E+02  0.25500000000E-02 0.  1.
         -2   -1    0    0    0  501 -0.00000000000E+00 -0.00000000000E+00 -0.10779521895E+04  0.10779521895E+04  0.25500000000E-02 0. -1.
    5000001    1    1    2    0    0 -0.49505414348E+02  0.18940828290E+03 -0.30391219533E+03  0.40747135623E+03  0.18800000000E+03 0.  0.
   -5000001    1    1    2    0    0  0.49505414348E+02 -0.18940828290E+03 -0.69676051015E+03  0.74776031734E+03  0.18800000000E+03 0.  0.
<mgrwt>
<rscale>  0 0.57724722E+03</rscale>
<asrwt>0</asrwt>
<pdfrwt beam="1">  1        2 0.11039927E-01 0.57724722E+03</pdfrwt>
<pdfrwt beam="2">  1       -2 0.15399316E+00 0.57724722E+03</pdfrwt>
<totfact> 0.16662654E+02</totfact>
</mgrwt>
</event>
<event>
 4    1  0.6034452E-005  0.6020869E+03  0.7818608E-02  0.9901086E-01
          2   -1    0    0  501    0  0.00000000000E+00  0.00000000000E+00  0.13051541368E+04  0.13051541368E+04  0.25500000000E-02 0.  1.
         -2   -1    0    0    0  501 -0.00000000000E+00 -0.00000000000E+00 -0.69437900725E+02  0.69437900772E+02  0.25500000000E-02 0. -1.
    5000001    1    1    2    0    0 -0.23418067999E+03  0.69322835365E+01  0.57251128763E+03  0.64653060399E+03  0.18800000000E+03 0.  0.
   -5000001    1    1    2    0    0  0.23418067999E+03 -0.69322835365E+01  0.66320494848E+03  0.72806143362E+03  0.18800000000E+03 0.  0.
<mgrwt>
<rscale>  0 0.60208692E+03</rscale>
<asrwt>0</asrwt>
<pdfrwt beam="1">  1        2 0.18645058E+00 0.60208692E+03</pdfrwt>
<pdfrwt beam="2">  1       -2 0.99197005E-02 0.60208692E+03</pdfrwt>
<totfact> 0.13101410E+03</totfact>
</mgrwt>
</event>
<event>
 4    1  0.6034452E-005  0.5684382E+03  0.7818608E-02  0.9973141E-01
         -2   -1    0    0    0  501 -0.00000000000E+00  0.00000000000E+00  0.54520170965E+02  0.54520171024E+02  0.25500000000E-02 0. -1.
          2   -1    0    0  501    0  0.00000000000E+00 -0.00000000000E+00 -0.14816626105E+04  0.14816626105E+04  0.25500000000E-02 0.  1.
    5000001    1    1    2    0    0 -0.18246991117E+02  0.20863663523E+03 -0.60634438962E+03  0.66847566678E+03  0.18800000000E+03 0.  0.
   -5000001    1    1    2    0    0  0.18246991117E+02 -0.20863663523E+03 -0.82079804992E+03  0.86770711475E+03  0.18800000000E+03 0.  0.
<mgrwt>
<rscale>  0 0.56843821E+03</rscale>
<asrwt>0</asrwt>
<pdfrwt beam="1">  1        2 0.21166606E+00 0.56843821E+03</pdfrwt>
<pdfrwt beam="2">  1       -2 0.77885968E-02 0.56843821E+03</pdfrwt>
<totfact> 0.15573981E+03</totfact>
</mgrwt>
</event>
<event>
 4    1  0.6034452E-005  0.7892403E+03  0.7818608E-02  0.9575723E-01
         -2   -1    0    0    0  501 -0.00000000000E+00  0.00000000000E+00  0.50626906431E+02  0.50626906496E+02  0.25500000000E-02 0. -1.
          2   -1    0    0  501    0  0.00000000000E+00 -0.00000000000E+00 -0.30759344443E+04  0.30759344443E+04  0.25500000000E-02 0.  1.
    5000001    1    1    2    0    0 -0.18358970648E+03 -0.26158250220E+03 -0.97748023328E+03  0.10454387559E+04  0.18800000000E+03 0.  0.
   -5000001    1    1    2    0    0  0.18358970648E+03  0.26158250220E+03 -0.20478273045E+04  0.20811225949E+04  0.18800000000E+03 0.  0.
<mgrwt>
<rscale>  0 0.78924026E+03</rscale>
<asrwt>0</asrwt>
<pdfrwt beam="1">  1        2 0.43941909E+00 0.78924026E+03</pdfrwt>
<pdfrwt beam="2">  1       -2 0.72324171E-02 0.78924026E+03</pdfrwt>
<totfact> 0.25835734E+02</totfact>
</mgrwt>
</event>
<event>
 4    1  0.6034452E-005  0.7290412E+03  0.7818608E-02  0.9668818E-01
         -2   -1    0    0    0  501 -0.00000000000E+00  0.00000000000E+00  0.11075126585E+03  0.11075126588E+03  0.25500000000E-02 0. -1.
          2   -1    0    0  501    0  0.00000000000E+00 -0.00000000000E+00 -0.11997628171E+04  0.11997628171E+04  0.25500000000E-02 0.  1.
    5000001    1    1    2    0    0 -0.31102355395E+03 -0.25042926655E+02 -0.56783643564E+03  0.67464436329E+03  0.18800000000E+03 0.  0.
   -5000001    1    1    2    0    0  0.31102355395E+03  0.25042926655E+02 -0.52117511565E+03  0.63586971972E+03  0.18800000000E+03 0.  0.
<mgrwt>
<rscale>  0 0.72904115E+03</rscale>
<asrwt>0</asrwt>
<pdfrwt beam="1">  1        2 0.17139468E+00 0.72904115E+03</pdfrwt>
<pdfrwt beam="2">  1       -2 0.15821610E-01 0.72904115E+03</pdfrwt>
<totfact> 0.68808550E+02</totfact>
</mgrwt>
</event>
<event>
 4    1  0.6034452E-005  0.6639345E+03  0.7818608E-02  0.9780978E-01
         -2   -1    0    0    0  501 -0.00000000000E+00  0.00000000000E+00  0.59183154865E+02  0.59183154920E+02  0.25500000000E-02 0. -1.
          2   -1    0    0  501    0  0.00000000000E+00 -0.00000000000E+00 -0.18620546506E+04  0.18620546506E+04  0.25500000000E-02 0.  1.
    5000001    1    1    2    0    0 -0.25185008336E+03  0.10568295385E+03 -0.85469372145E+03  0.91675662458E+03  0.18800000000E+03 0.  0.
   -5000001    1    1    2    0    0  0.25185008336E+03 -0.10568295385E+03 -0.94817777431E+03  0.10044811810E+04  0.18800000000E+03 0.  0.
<mgrwt>
<rscale>  0 0.66393454E+03</rscale>
<asrwt>0</asrwt>
<pdfrwt beam="1">  1        2 0.26600777E+00 0.66393454E+03</pdfrwt>
<pdfrwt beam="2">  1       -2 0.84547376E-02 0.66393454E+03</pdfrwt>
<totfact> 0.86925277E+02</totfact>
</mgrwt>
</event>
<event>
 4    1  0.6034452E-005  0.7510473E+03  0.7818608E-02  0.9633709E-01
          2   -1    0    0  501    0  0.00000000000E+00  0.00000000000E+00  0.19539441959E+03  0.19539441961E+03  0.25500000000E-02 0.  1.
         -2   -1    0    0    0  501 -0.00000000000E+00 -0.00000000000E+00 -0.72170960950E+03  0.72170960950E+03  0.25500000000E-02 0. -1.
    5000001    1    1    2    0    0 -0.22313797949E+03  0.21372103075E+03 -0.38652372622E+03  0.52935038284E+03  0.18800000000E+03 0.  0.
   -5000001    1    1    2    0    0  0.22313797949E+03 -0.21372103075E+03 -0.13979146368E+03  0.38775364627E+03  0.18800000000E+03 0.  0.
<mgrwt>
<rscale>  0 0.75104735E+03</rscale>
<asrwt>0</asrwt>
<pdfrwt beam="1">  1        2 0.27913489E-01 0.75104735E+03</pdfrwt>
<pdfrwt beam="2">  1       -2 0.10310137E+00 0.75104735E+03</pdfrwt>
<totfact> 0.14964553E+02</totfact>
</mgrwt>
</event>
<event>
 4    1  0.6034452E-005  0.5226200E+03  0.7818608E-02  0.1008038E+00
          2   -1    0    0  501    0  0.00000000000E+00  0.00000000000E+00  0.68483042432E+03  0.68483042432E+03  0.25500000000E-02 0.  1.
         -2   -1    0    0    0  501 -0.00000000000E+00 -0.00000000000E+00 -0.99707765234E+02  0.99707765267E+02  0.25500000000E-02 0. -1.
    5000001    1    1    2    0    0 -0.11312396275E+03  0.10686060329E+03  0.15235960992E+03  0.28770413660E+03  0.18800000000E+03 0.  0.
   -5000001    1    1    2    0    0  0.11312396275E+03 -0.10686060329E+03  0.43276304917E+03  0.49683405299E+03  0.18800000000E+03 0.  0.
<mgrwt>
<rscale>  0 0.52261998E+03</rscale>
<asrwt>0</asrwt>
<pdfrwt beam="1">  1        2 0.97832918E-01 0.52261998E+03</pdfrwt>
<pdfrwt beam="2">  1       -2 0.14243966E-01 0.52261998E+03</pdfrwt>
<totfact> 0.17653534E+03</totfact>
</mgrwt>
</event>
<event>
 4    1  0.6034452E-005  0.5336598E+03  0.7818608E-02  0.1005348E+00
          2   -1    0    0  501    0  0.00000000000E+00  0.00000000000E+00  0.64053473696E+03  0.64053473697E+03  0.25500000000E-02 0.  1.
         -2   -1    0    0    0  501 -0.00000000000E+00 -0.00000000000E+00 -0.11115429512E+03  0.11115429515E+03  0.25500000000E-02 0. -1.
    5000001    1    1    2    0    0 -0.14685986181E+03 -0.11702929444E+03  0.29891875276E+03  0.39995011629E+03  0.18800000000E+03 0.  0.
   -5000001    1    1    2    0    0  0.14685986181E+03  0.11702929444E+03  0.23046168908E+03  0.35173891582E+03  0.18800000000E+03 0.  0.
<mgrwt>
<rscale>  0 0.53365977E+03</rscale>
<asrwt>0</asrwt>
<pdfrwt beam="1">  1        2 0.91504961E-01 0.53365977E+03</pdfrwt>
<pdfrwt beam="2">  1       -2 0.15879185E-01 0.53365977E+03</pdfrwt>
<totfact> 0.15937299E+03</totfact>
</mgrwt>
</event>
<event>
 4    1  0.6034452E-005  0.5762193E+03  0.7818608E-02  0.9956010E-01
         -2   -1    0    0    0  501 -0.00000000000E+00  0.00000000000E+00  0.16291404028E+03  0.16291404030E+03  0.25500000000E-02 0. -1.
          2   -1    0    0  501    0  0.00000000000E+00 -0.00000000000E+00 -0.50951509959E+03  0.50951509960E+03  0.25500000000E-02 0.  1.
    5000001    1    1    2    0    0 -0.93122038669E+00  0.12234418150E+03 -0.38430617965E+03  0.44497663493E+03  0.18800000000E+03 0.  0.
   -5000001    1    1    2    0    0  0.93122038669E+00 -0.12234418150E+03  0.37705120342E+02  0.22745250497E+03  0.18800000000E+03 0.  0.
<mgrwt>
<rscale>  0 0.57621928E+03</rscale>
<asrwt>0</asrwt>
<pdfrwt beam="1">  1        2 0.72787871E-01 0.57621928E+03</pdfrwt>
<pdfrwt beam="2">  1       -2 0.23273435E-01 0.57621928E+03</pdfrwt>
<totfact> 0.10728128E+03</totfact>
</mgrwt>
</event>
<event>
 4    1  0.6034452E-005  0.6907344E+03  0.7818608E-02  0.9733210E-01
          2   -1    0    0  501    0  0.00000000000E+00  0.00000000000E+00  0.85920183941E+03  0.85920183941E+03  0.25500000000E-02 0. -1.
         -2   -1    0    0    0  501 -0.00000000000E+00 -0.00000000000E+00 -0.13882475707E+03  0.13882475709E+03  0.25500000000E-02 0.  1.
    5000001    1    1    2    0    0  0.25062790033E+03 -0.81282547528E+02  0.18612252449E+03  0.37337218842E+03  0.18800000000E+03 0.  0.
   -5000001    1    1    2    0    0 -0.25062790033E+03  0.81282547528E+02  0.53425455785E+03  0.62465440808E+03  0.18800000000E+03 0.  0.
<mgrwt>
<rscale>  0 0.69073435E+03</rscale>
<asrwt>0</asrwt>
<pdfrwt beam="1">  1        2 0.12274312E+00 0.69073435E+03</pdfrwt>
<pdfrwt beam="2">  1       -2 0.19832108E-01 0.69073435E+03</pdfrwt>
<totfact> 0.75218812E+02</totfact>
</mgrwt>
</event>
<event>
 4    1  0.6034452E-005  0.4156301E+03  0.7818608E-02  0.1038498E+00
         -2   -1    0    0    0  501 -0.00000000000E+00  0.00000000000E+00  0.46827202092E+02  0.46827202162E+02  0.25500000000E-02 0. -1.
          2   -1    0    0  501    0  0.00000000000E+00 -0.00000000000E+00 -0.92226496192E+03  0.92226496192E+03  0.25500000000E-02 0.  1.
    5000001    1    1    2    0    0 -0.57059346734E+02  0.53074581895E+02 -0.53582469413E+03  0.57317081497E+03  0.18800000000E+03 0.  0.
   -5000001    1    1    2    0    0  0.57059346734E+02 -0.53074581895E+02 -0.33961306569E+03  0.39592134911E+03  0.18800000000E+03 0.  0.
<mgrwt>
<rscale>  0 0.41563007E+03</rscale>
<asrwt>0</asrwt>
<pdfrwt beam="1">  1        2 0.13175213E+00 0.41563007E+03</pdfrwt>
<pdfrwt beam="2">  1       -2 0.66896009E-02 0.41563007E+03</pdfrwt>
<totfact> 0.40854220E+03</totfact>
</mgrwt>
</event>
<event>
 4    1  0.6034452E-005  0.6482807E+03  0.7818608E-02  0.9810011E-01
         -2   -1    0    0    0  501 -0.00000000000E+00  0.00000000000E+00  0.14652946249E+03  0.14652946252E+03  0.25500000000E-02 0. -1.
          2   -1    0    0  501    0  0.00000000000E+00 -0.00000000000E+00 -0.71703635020E+03  0.71703635020E+03  0.25500000000E-02 0.  1.
    5000001    1    1    2    0    0 -0.25293374495E+03  0.73658562290E+02 -0.26135417134E+03  0.41599406968E+03  0.18800000000E+03 0.  0.
   -5000001    1    1    2    0    0  0.25293374495E+03 -0.73658562290E+02 -0.30915271636E+03  0.44757174304E+03  0.18800000000E+03 0.  0.
<mgrwt>
<rscale>  0 0.64828065E+03</rscale>
<asrwt>0</asrwt>
<pdfrwt beam="1">  1        2 0.10243376E+00 0.64828065E+03</pdfrwt>
<pdfrwt beam="2">  1       -2 0.20932781E-01 0.64828065E+03</pdfrwt>
<totfact> 0.86276550E+02</totfact>
</mgrwt>
</event>
<event>
 4    1  0.6034452E-005  0.5841002E+03  0.7818608E-02  0.9938953E-01
          2   -1    0    0  501    0  0.00000000000E+00  0.00000000000E+00  0.85616994982E+03  0.85616994982E+03  0.25500000000E-02 0.  1.
         -2   -1    0    0    0  501 -0.00000000000E+00 -0.00000000000E+00 -0.99621870396E+02  0.99621870428E+02  0.25500000000E-02 0. -1.
    5000001    1    1    2    0    0 -0.55927041249E+02 -0.20246551106E+03  0.25334079407E+03  0.37900616756E+03  0.18800000000E+03 0.  0.
   -5000001    1    1    2    0    0  0.55927041249E+02  0.20246551106E+03  0.50320728536E+03  0.57678565269E+03  0.18800000000E+03 0.  0.
<mgrwt>
<rscale>  0 0.58410017E+03</rscale>
<asrwt>0</asrwt>
<pdfrwt beam="1">  1        2 0.12231000E+00 0.58410017E+03</pdfrwt>
<pdfrwt beam="2">  1       -2 0.14231695E-01 0.58410017E+03</pdfrwt>
<totfact> 0.13347898E+03</totfact>
</mgrwt>
</event>
<event>
 4    1  0.6034452E-005  0.6425931E+03  0.7818608E-02  0.9820778E-01
          2   -1    0    0  501    0  0.00000000000E+00  0.00000000000E+00  0.17880574086E+04  0.17880574086E+04  0.25500000000E-02 0.  1.
         -2   -1    0    0    0  501 -0.00000000000E+00 -0.00000000000E+00 -0.57733874629E+02  0.57733874685E+02  0.25500000000E-02 0. -1.
    5000001    1    1    2    0    0 -0.25143484055E+01 -0.24205254591E+03  0.58827978430E+03  0.66333465276E+03  0.18800000000E+03 0.  0.
   -5000001    1    1    2    0    0  0.25143484055E+01  0.24205254591E+03  0.11420437496E+04  0.11824566305E+04  0.18800000000E+03 0.  0.
<mgrwt>
<rscale>  0 0.64259313E+03</rscale>
<asrwt>0</asrwt>
<pdfrwt beam="1">  1        2 0.25543675E+00 0.64259313E+03</pdfrwt>
<pdfrwt beam="2">  1       -2 0.82476971E-02 0.64259313E+03</pdfrwt>
<totfact> 0.98698416E+02</totfact>
</mgrwt>
</event>
<event>
 4    1  0.6034452E-005  0.4311086E+03  0.7818608E-02  0.1033510E+00
         -2   -1    0    0    0  501 -0.00000000000E+00  0.00000000000E+00  0.47123957372E+02  0.47123957441E+02  0.25500000000E-02 0. -1.
          2   -1    0    0  501    0  0.00000000000E+00 -0.00000000000E+00 -0.98598810897E+03  0.98598810897E+03  0.25500000000E-02 0.  1.
    5000001    1    1    2    0    0 -0.80004419083E+02 -0.41227141462E+02 -0.60110977499E+03  0.63622114540E+03  0.18800000000E+03 0.  0.
   -5000001    1    1    2    0    0  0.80004419083E+02  0.41227141462E+02 -0.33775437660E+03  0.39689092101E+03  0.18800000000E+03 0.  0.
<mgrwt>
<rscale>  0 0.43110863E+03</rscale>
<asrwt>0</asrwt>
<pdfrwt beam="1">  1        2 0.14085543E+00 0.43110863E+03</pdfrwt>
<pdfrwt beam="2">  1       -2 0.67319945E-02 0.43110863E+03</pdfrwt>
<totfact> 0.36966804E+03</totfact>
</mgrwt>
</event>
<event>
 4    1  0.6034452E-005  0.4173469E+03  0.7818608E-02  0.1037933E+00
         -2   -1    0    0    0  501 -0.00000000000E+00  0.00000000000E+00  0.24682396529E+02  0.24682396661E+02  0.25500000000E-02 0. -1.
          2   -1    0    0  501    0  0.00000000000E+00 -0.00000000000E+00 -0.17641966444E+04  0.17641966444E+04  0.25500000000E-02 0.  1.
    5000001    1    1    2    0    0 -0.11028587159E+01 -0.73835631041E+02 -0.10944385939E+04  0.11129208204E+04  0.18800000000E+03 0.  0.
   -5000001    1    1    2    0    0  0.11028587159E+01  0.73835631041E+02 -0.64507565400E+03  0.67595822067E+03  0.18800000000E+03 0.  0.
<mgrwt>
<rscale>  0 0.41734686E+03</rscale>
<asrwt>0</asrwt>
<pdfrwt beam="1">  1        2 0.25202801E+00 0.41734686E+03</pdfrwt>
<pdfrwt beam="2">  1       -2 0.35260578E-02 0.41734686E+03</pdfrwt>
<totfact> 0.38292353E+03</totfact>
</mgrwt>
</event>
<event>
 4    1  0.6034452E-005  0.9539250E+03  0.7818608E-02  0.9360575E-01
         -2   -1    0    0    0  501 -0.00000000000E+00  0.00000000000E+00  0.39066543185E+03  0.39066543186E+03  0.25500000000E-02 0. -1.
          2   -1    0    0  501    0  0.00000000000E+00 -0.00000000000E+00 -0.58232233021E+03  0.58232233022E+03  0.25500000000E-02 0.  1.
    5000001    1    1    2    0    0  0.31891745331E+03  0.12785713250E+03  0.18181215301E+03  0.43180487184E+03  0.18800000000E+03 0.  0.
   -5000001    1    1    2    0    0 -0.31891745331E+03 -0.12785713250E+03 -0.37346905137E+03  0.54118289024E+03  0.18800000000E+03 0.  0.
<mgrwt>
<rscale>  0 0.95392495E+03</rscale>
<asrwt>0</asrwt>
<pdfrwt beam="1">  1        2 0.83188904E-01 0.95392495E+03</pdfrwt>
<pdfrwt beam="2">  1       -2 0.55809347E-01 0.95392495E+03</pdfrwt>
<totfact> 0.16969802E+02</totfact>
</mgrwt>
</event>
<event>
 4    1  0.6034452E-005  0.6647372E+03  0.7818608E-02  0.9779512E-01
          2   -1    0    0  501    0  0.00000000000E+00  0.00000000000E+00  0.80737429076E+03  0.80737429077E+03  0.25500000000E-02 0.  1.
         -2   -1    0    0    0  501 -0.00000000000E+00 -0.00000000000E+00 -0.13682487920E+03  0.13682487922E+03  0.25500000000E-02 0. -1.
    5000001    1    1    2    0    0 -0.20126297795E+03  0.12847796442E+03  0.14411734401E+03  0.33634384561E+03  0.18800000000E+03 0.  0.
   -5000001    1    1    2    0    0  0.20126297795E+03 -0.12847796442E+03  0.52643206755E+03  0.60785532438E+03  0.18800000000E+03 0.  0.
<mgrwt>
<rscale>  0 0.66473721E+03</rscale>
<asrwt>0</asrwt>
<pdfrwt beam="1">  1        2 0.11533919E+00 0.66473721E+03</pdfrwt>
<pdfrwt beam="2">  1       -2 0.19546411E-01 0.66473721E+03</pdfrwt>
<totfact> 0.83713097E+02</totfact>
</mgrwt>
</event>
<event>
 4    1  0.6034452E-005  0.4923299E+03  0.7818608E-02  0.1015801E+00
         -2   -1    0    0    0  501 -0.00000000000E+00  0.00000000000E+00  0.42541318114E+02  0.42541318190E+02  0.25500000000E-02 0. -1.
          2   -1    0    0  501    0  0.00000000000E+00 -0.00000000000E+00 -0.14244309939E+04  0.14244309939E+04  0.25500000000E-02 0.  1.
    5000001    1    1    2    0    0  0.55131814903E+02  0.12545412648E+03 -0.45118145730E+03  0.50762876423E+03  0.18800000000E+03 0.  0.
   -5000001    1    1    2    0    0 -0.55131814903E+02 -0.12545412648E+03 -0.93070821851E+03  0.95934354788E+03  0.18800000000E+03 0.  0.
<mgrwt>
<rscale>  0 0.49232986E+03</rscale>
<asrwt>0</asrwt>
<pdfrwt beam="1">  1        2 0.20349011E+00 0.49232986E+03</pdfrwt>
<pdfrwt beam="2">  1       -2 0.60773321E-02 0.49232986E+03</pdfrwt>
<totfact> 0.24703384E+03</totfact>
</mgrwt>
</event>
<event>
 4    1  0.6034452E-005  0.5182564E+03  0.7818608E-02  0.1009121E+00
         -2   -1    0    0    0  501 -0.00000000000E+00  0.00000000000E+00  0.60206231235E+02  0.60206231289E+02  0.25500000000E-02 0. -1.
          2   -1    0    0  501    0  0.00000000000E+00 -0.00000000000E+00 -0.11152901108E+04  0.11152901108E+04  0.25500000000E-02 0.  1.
    5000001    1    1    2    0    0  0.15778719256E+03  0.57005852803E+02 -0.39037921999E+03  0.46463577218E+03  0.18800000000E+03 0.  0.
   -5000001    1    1    2    0    0 -0.15778719256E+03 -0.57005852803E+02 -0.66470465954E+03  0.71086056988E+03  0.18800000000E+03 0.  0.
<mgrwt>
<rscale>  0 0.51825636E+03</rscale>
<asrwt>0</asrwt>
<pdfrwt beam="1">  1        2 0.15932715E+00 0.51825636E+03</pdfrwt>
<pdfrwt beam="2">  1       -2 0.86008909E-02 0.51825636E+03</pdfrwt>
<totfact> 0.21067121E+03</totfact>
</mgrwt>
</event>
<event>
 4    1  0.6034452E-005  0.4684759E+03  0.7818608E-02  0.1022351E+00
          2   -1    0    0  501    0  0.00000000000E+00  0.00000000000E+00  0.43149190639E+03  0.43149190639E+03  0.25500000000E-02 0.  1.
         -2   -1    0    0    0  501 -0.00000000000E+00 -0.00000000000E+00 -0.12715749192E+03  0.12715749194E+03  0.25500000000E-02 0. -1.
    5000001    1    1    2    0    0  0.32362375012E+02 -0.13518604503E+03  0.13526764159E+03  0.27011835359E+03  0.18800000000E+03 0.  0.
   -5000001    1    1    2    0    0 -0.32362375012E+02  0.13518604503E+03  0.16906677289E+03  0.28853104474E+03  0.18800000000E+03 0.  0.
<mgrwt>
<rscale>  0 0.46847595E+03</rscale>
<asrwt>0</asrwt>
<pdfrwt beam="1">  1        2 0.61641701E-01 0.46847595E+03</pdfrwt>
<pdfrwt beam="2">  1       -2 0.18165356E-01 0.46847595E+03</pdfrwt>
<totfact> 0.19908499E+03</totfact>
</mgrwt>
</event>
<event>
 4    1  0.6034452E-005  0.4520306E+03  0.7818608E-02  0.1027118E+00
         -2   -1    0    0    0  501 -0.00000000000E+00  0.00000000000E+00  0.29746384443E+03  0.29746384444E+03  0.25500000000E-02 0. -1.
          2   -1    0    0  501    0  0.00000000000E+00 -0.00000000000E+00 -0.17172816278E+03  0.17172816280E+03  0.25500000000E-02 0.  1.
    5000001    1    1    2    0    0 -0.43292341614E+02  0.10447026376E+03  0.64856311106E+01  0.21948650588E+03  0.18800000000E+03 0.  0.
   -5000001    1    1    2    0    0  0.43292341614E+02 -0.10447026376E+03  0.11925005054E+03  0.24970550135E+03  0.18800000000E+03 0.  0.
<mgrwt>
<rscale>  0 0.45203062E+03</rscale>
<asrwt>0</asrwt>
<pdfrwt beam="1">  1        2 0.24532595E-01 0.45203062E+03</pdfrwt>
<pdfrwt beam="2">  1       -2 0.42494835E-01 0.45203062E+03</pdfrwt>
<totfact> 0.11743776E+03</totfact>
</mgrwt>
</event>
<event>
 4    1  0.6034452E-005  0.9571087E+03  0.7818608E-02  0.9356880E-01
         -2   -1    0    0    0  501 -0.00000000000E+00  0.00000000000E+00  0.11382217283E+03  0.11382217286E+03  0.25500000000E-02 0. -1.
          2   -1    0    0  501    0  0.00000000000E+00 -0.00000000000E+00 -0.20120354771E+04  0.20120354771E+04  0.25500000000E-02 0.  1.
    5000001    1    1    2    0    0 -0.37903247512E+03  0.41224540432E+02 -0.46093816754E+03  0.62703514592E+03  0.18800000000E+03 0.  0.
   -5000001    1    1    2    0    0  0.37903247512E+03 -0.41224540432E+02 -0.14372751367E+04  0.14988225040E+04  0.18800000000E+03 0.  0.
<mgrwt>
<rscale>  0 0.95710867E+03</rscale>
<asrwt>0</asrwt>
<pdfrwt beam="1">  1        2 0.28743362E+00 0.95710867E+03</pdfrwt>
<pdfrwt beam="2">  1       -2 0.16260312E-01 0.95710867E+03</pdfrwt>
<totfact> 0.24286569E+02</totfact>
</mgrwt>
</event>
<event>
 4    1  0.6034452E-005  0.4430800E+03  0.7818608E-02  0.1029806E+00
          2   -1    0    0  501    0  0.00000000000E+00  0.00000000000E+00  0.44777549247E+03  0.44777549248E+03  0.25500000000E-02 0.  1.
         -2   -1    0    0    0  501 -0.00000000000E+00 -0.00000000000E+00 -0.10960841974E+03  0.10960841977E+03  0.25500000000E-02 0. -1.
    5000001    1    1    2    0    0 -0.93021536961E+02  0.11680030939E+02  0.25755899946E+03  0.33237037724E+03  0.18800000000E+03 0.  0.
   -5000001    1    1    2    0    0  0.93021536961E+02 -0.11680030939E+02  0.80608073266E+02  0.22501353501E+03  0.18800000000E+03 0.  0.
<mgrwt>
<rscale>  0 0.44307997E+03</rscale>
<asrwt>0</asrwt>
<pdfrwt beam="1">  1        2 0.63967928E-01 0.44307997E+03</pdfrwt>
<pdfrwt beam="2">  1       -2 0.15658346E-01 0.44307997E+03</pdfrwt>
<totfact> 0.24562107E+03</totfact>
</mgrwt>
</event>
<event>
 4    1  0.6034452E-005  0.1003585E+04  0.7818608E-02  0.9304622E-01
          2   -1    0    0  501    0  0.00000000000E+00  0.00000000000E+00  0.12749474023E+04  0.12749474023E+04  0.25500000000E-02 0.  1.
         -2   -1    0    0    0  501 -0.00000000000E+00 -0.00000000000E+00 -0.19749487268E+03  0.19749487270E+03  0.25500000000E-02 0. -1.
    5000001    1    1    2    0    0  0.17955702079E+02  0.11472989457E+03 -0.12226560267E+03  0.25254352801E+03  0.18800000000E+03 0.  0.
   -5000001    1    1    2    0    0 -0.17955702079E+02 -0.11472989457E+03  0.11997181323E+04  0.12198987470E+04  0.18800000000E+03 0.  0.
<mgrwt>
<rscale>  0 0.10035847E+04</rscale>
<asrwt>0</asrwt>
<pdfrwt beam="1">  1        2 0.18213535E+00 0.10035847E+04</pdfrwt>
<pdfrwt beam="2">  1       -2 0.28213552E-01 0.10035847E+04</pdfrwt>
<totfact> 0.22179956E+02</totfact>
</mgrwt>
</event>
<event>
 4    1  0.6034452E-005  0.1028615E+04  0.7818608E-02  0.9277706E-01
          2   -1    0    0  501    0  0.00000000000E+00  0.00000000000E+00  0.41932460668E+04  0.41932460668E+04  0.25500000000E-02 0.  1.
         -2   -1    0    0    0  501 -0.00000000000E+00 -0.00000000000E+00 -0.63080503438E+02  0.63080503489E+02  0.25500000000E-02 0. -1.
    5000001    1    1    2    0    0  0.16459846056E+03 -0.41744745794E+03  0.13749916845E+04  0.14585270535E+04  0.18800000000E+03 0.  0.
   -5000001    1    1    2    0    0 -0.16459846056E+03  0.41744745794E+03  0.27551738788E+04  0.27977995167E+04  0.18800000000E+03 0.  0.
<mgrwt>
<rscale>  0 0.10286147E+04</rscale>
<asrwt>0</asrwt>
<pdfrwt beam="1">  1        2 0.59903526E+00 0.10286147E+04</pdfrwt>
<pdfrwt beam="2">  1       -2 0.90114989E-02 0.10286147E+04</pdfrwt>
<totfact> 0.35556260E+01</totfact>
</mgrwt>
</event>
<event>
 4    1  0.6034452E-005  0.5603328E+03  0.7818608E-02  0.9991302E-01
         -2   -1    0    0    0  501 -0.00000000000E+00  0.00000000000E+00  0.11477689768E+03  0.11477689771E+03  0.25500000000E-02 0. -1.
          2   -1    0    0  501    0  0.00000000000E+00 -0.00000000000E+00 -0.68387648783E+03  0.68387648784E+03  0.25500000000E-02 0.  1.
    5000001    1    1    2    0    0 -0.40733644502E+02 -0.12605951623E+03 -0.56503153111E+02  0.23682659846E+03  0.18800000000E+03 0.  0.
   -5000001    1    1    2    0    0  0.40733644502E+02  0.12605951623E+03 -0.51259643704E+03  0.56182678709E+03  0.18800000000E+03 0.  0.
<mgrwt>
<rscale>  0 0.56033284E+03</rscale>
<asrwt>0</asrwt>
<pdfrwt beam="1">  1        2 0.97696639E-01 0.56033284E+03</pdfrwt>
<pdfrwt beam="2">  1       -2 0.16396700E-01 0.56033284E+03</pdfrwt>
<totfact> 0.13951584E+03</totfact>
</mgrwt>
</event>
<event>
 4    1  0.6034452E-005  0.4992578E+03  0.7818608E-02  0.1013973E+00
          2   -1    0    0  501    0  0.00000000000E+00  0.00000000000E+00  0.59613212977E+03  0.59613212978E+03  0.25500000000E-02 0.  1.
         -2   -1    0    0    0  501 -0.00000000000E+00 -0.00000000000E+00 -0.10453150067E+03  0.10453150071E+03  0.25500000000E-02 0. -1.
    5000001    1    1    2    0    0 -0.21633246877E+02  0.16273102821E+03  0.25226228826E+03  0.35486567457E+03  0.18800000000E+03 0.  0.
   -5000001    1    1    2    0    0  0.21633246877E+02 -0.16273102821E+03  0.23933834084E+03  0.34579795591E+03  0.18800000000E+03 0.  0.
<mgrwt>
<rscale>  0 0.49925779E+03</rscale>
<asrwt>0</asrwt>
<pdfrwt beam="1">  1        2 0.85161731E-01 0.49925779E+03</pdfrwt>
<pdfrwt beam="2">  1       -2 0.14933072E-01 0.49925779E+03</pdfrwt>
<totfact> 0.19232716E+03</totfact>
</mgrwt>
</event>
<event>
 4    1  0.6034452E-005  0.4237119E+03  0.7818608E-02  0.1035865E+00
         -2   -1    0    0    0  501 -0.00000000000E+00  0.00000000000E+00  0.17025795310E+02  0.17025795501E+02  0.25500000000E-02 0. -1.
          2   -1    0    0  501    0  0.00000000000E+00 -0.00000000000E+00 -0.26361728863E+04  0.26361728863E+04  0.25500000000E-02 0.  1.
    5000001    1    1    2    0    0  0.21755054200E+01  0.79736508490E+02 -0.95666704910E+03  0.97822210486E+03  0.18800000000E+03 0.  0.
   -5000001    1    1    2    0    0 -0.21755054200E+01 -0.79736508490E+02 -0.16624800419E+04  0.16749765770E+04  0.18800000000E+03 0.  0.
<mgrwt>
<rscale>  0 0.42371188E+03</rscale>
<asrwt>0</asrwt>
<pdfrwt beam="1">  1        2 0.37659587E+00 0.42371188E+03</pdfrwt>
<pdfrwt beam="2">  1       -2 0.24322582E-02 0.42371188E+03</pdfrwt>
<totfact> 0.24519194E+03</totfact>
</mgrwt>
</event>
<event>
 4    1  0.6034452E-005  0.6568907E+03  0.7818608E-02  0.9793934E-01
          2   -1    0    0  501    0  0.00000000000E+00  0.00000000000E+00  0.70251080843E+03  0.70251080844E+03  0.25500000000E-02 0.  1.
         -2   -1    0    0    0  501 -0.00000000000E+00 -0.00000000000E+00 -0.15355828353E+03  0.15355828355E+03  0.25500000000E-02 0. -1.
    5000001    1    1    2    0    0 -0.23738140912E+03  0.17538706410E+02  0.11027744738E+03  0.32274239731E+03  0.18800000000E+03 0.  0.
   -5000001    1    1    2    0    0  0.23738140912E+03 -0.17538706410E+02  0.43867507752E+03  0.53332669468E+03  0.18800000000E+03 0.  0.
<mgrwt>
<rscale>  0 0.65689072E+03</rscale>
<asrwt>0</asrwt>
<pdfrwt beam="1">  1        2 0.10035869E+00 0.65689072E+03</pdfrwt>
<pdfrwt beam="2">  1       -2 0.21936898E-01 0.65689072E+03</pdfrwt>
<totfact> 0.81460017E+02</totfact>
</mgrwt>
</event>
<event>
 4    1  0.6034452E-005  0.7617495E+03  0.7818608E-02  0.9617096E-01
         -2   -1    0    0    0  501 -0.00000000000E+00  0.00000000000E+00  0.80778405273E+03  0.80778405273E+03  0.25500000000E-02 0. -1.
          2   -1    0    0  501    0  0.00000000000E+00 -0.00000000000E+00 -0.17958457677E+03  0.17958457679E+03  0.25500000000E-02 0.  1.
    5000001    1    1    2    0    0 -0.18203875406E+03 -0.12528832186E+03  0.63393542054E+03  0.69717529287E+03  0.18800000000E+03 0.  0.
   -5000001    1    1    2    0    0  0.18203875406E+03  0.12528832186E+03 -0.57359445839E+01  0.29019333665E+03  0.18800000000E+03 0.  0.
<mgrwt>
<rscale>  0 0.76174945E+03</rscale>
<asrwt>0</asrwt>
<pdfrwt beam="1">  1        2 0.25654939E-01 0.76174945E+03</pdfrwt>
<pdfrwt beam="2">  1       -2 0.11539772E+00 0.76174945E+03</pdfrwt>
<totfact> 0.12546957E+02</totfact>
</mgrwt>
</event>
<event>
 4    1  0.6034452E-005  0.7117165E+03  0.7818608E-02  0.9697403E-01
          2   -1    0    0  501    0  0.00000000000E+00  0.00000000000E+00  0.22822571107E+03  0.22822571108E+03  0.25500000000E-02 0.  1.
         -2   -1    0    0    0  501 -0.00000000000E+00 -0.00000000000E+00 -0.55486785403E+03  0.55486785403E+03  0.25500000000E-02 0. -1.
    5000001    1    1    2    0    0  0.28755542861E+03  0.33894166161E+02 -0.25831728247E+03  0.43117137828E+03  0.18800000000E+03 0.  0.
   -5000001    1    1    2    0    0 -0.28755542861E+03 -0.33894166161E+02 -0.68324860492E+02  0.35192218684E+03  0.18800000000E+03 0.  0.
<mgrwt>
<rscale>  0 0.71171655E+03</rscale>
<asrwt>0</asrwt>
<pdfrwt beam="1">  1        2 0.32603673E-01 0.71171655E+03</pdfrwt>
<pdfrwt beam="2">  1       -2 0.79266836E-01 0.71171655E+03</pdfrwt>
<totfact> 0.23073731E+02</totfact>
</mgrwt>
</event>
<event>
 4    1  0.6034452E-005  0.3879895E+03  0.7818608E-02  0.1048020E+00
          2   -1    0    0  501    0  0.00000000000E+00  0.00000000000E+00  0.39796686948E+03  0.39796686948E+03  0.25500000000E-02 0.  1.
         -2   -1    0    0    0  501 -0.00000000000E+00 -0.00000000000E+00 -0.94565583045E+02  0.94565583079E+02  0.25500000000E-02 0. -1.
    5000001    1    1    2    0    0 -0.41736566226E+02  0.40856227951E+01  0.18096233120E+03  0.26429150306E+03  0.18800000000E+03 0.  0.
   -5000001    1    1    2    0    0  0.41736566226E+02 -0.40856227951E+01  0.12243895523E+03  0.22824094951E+03  0.18800000000E+03 0.  0.
<mgrwt>
<rscale>  0 0.38798953E+03</rscale>
<asrwt>0</asrwt>
<pdfrwt beam="1">  1        2 0.56852409E-01 0.38798953E+03</pdfrwt>
<pdfrwt beam="2">  1       -2 0.13509369E-01 0.38798953E+03</pdfrwt>
<totfact> 0.35686151E+03</totfact>
</mgrwt>
</event>
<event>
 4    1  0.6034452E-005  0.5660826E+03  0.7818608E-02  0.9978385E-01
          2   -1    0    0  501    0  0.00000000000E+00  0.00000000000E+00  0.16911442639E+03  0.16911442641E+03  0.25500000000E-02 0.  1.
         -2   -1    0    0    0  501 -0.00000000000E+00 -0.00000000000E+00 -0.47371699398E+03  0.47371699399E+03  0.25500000000E-02 0. -1.
    5000001    1    1    2    0    0  0.17204353009E+02 -0.20779964787E+03 -0.11148841141E+03  0.30207672750E+03  0.18800000000E+03 0.  0.
   -5000001    1    1    2    0    0 -0.17204353009E+02  0.20779964787E+03 -0.19311415618E+03  0.34075469290E+03  0.18800000000E+03 0.  0.
<mgrwt>
<rscale>  0 0.56608260E+03</rscale>
<asrwt>0</asrwt>
<pdfrwt beam="1">  1        2 0.24159204E-01 0.56608260E+03</pdfrwt>
<pdfrwt beam="2">  1       -2 0.67673855E-01 0.56608260E+03</pdfrwt>
<totfact> 0.46021930E+02</totfact>
</mgrwt>
</event>
<event>
 4    1  0.6034452E-005  0.4591724E+03  0.7818608E-02  0.1025022E+00
          2   -1    0    0  501    0  0.00000000000E+00  0.00000000000E+00  0.11586813524E+04  0.11586813524E+04  0.25500000000E-02 0.  1.
         -2   -1    0    0    0  501 -0.00000000000E+00 -0.00000000000E+00 -0.45491224875E+02  0.45491224946E+02  0.25500000000E-02 0. -1.
    5000001    1    1    2    0    0 -0.36121404767E+02 -0.99512571255E+02  0.76239453777E+03  0.79233637992E+03  0.18800000000E+03 0.  0.
   -5000001    1    1    2    0    0  0.36121404767E+02  0.99512571255E+02  0.35079558973E+03  0.41183619741E+03  0.18800000000E+03 0.  0.
<mgrwt>
<rscale>  0 0.45917245E+03</rscale>
<asrwt>0</asrwt>
<pdfrwt beam="1">  1        2 0.16552591E+00 0.45917245E+03</pdfrwt>
<pdfrwt beam="2">  1       -2 0.64987463E-02 0.45917245E+03</pdfrwt>
<totfact> 0.30992059E+03</totfact>
</mgrwt>
</event>
<event>
 4    1  0.6034452E-005  0.6672183E+03  0.7818608E-02  0.9774996E-01
          2   -1    0    0  501    0  0.00000000000E+00  0.00000000000E+00  0.76644645399E+03  0.76644645399E+03  0.25500000000E-02 0.  1.
         -2   -1    0    0    0  501 -0.00000000000E+00 -0.00000000000E+00 -0.14520919745E+03  0.14520919747E+03  0.25500000000E-02 0. -1.
    5000001    1    1    2    0    0  0.26075490639E+03  0.59781526929E+02  0.40108854525E+03  0.51747750995E+03  0.18800000000E+03 0.  0.
   -5000001    1    1    2    0    0 -0.26075490639E+03 -0.59781526929E+02  0.22014871129E+03  0.39417814151E+03  0.18800000000E+03 0.  0.
<mgrwt>
<rscale>  0 0.66721833E+03</rscale>
<asrwt>0</asrwt>
<pdfrwt beam="1">  1        2 0.10949235E+00 0.66721833E+03</pdfrwt>
<pdfrwt beam="2">  1       -2 0.20744171E-01 0.66721833E+03</pdfrwt>
<totfact> 0.80620509E+02</totfact>
</mgrwt>
</event>
<event>
 4    1  0.6034452E-005  0.1473908E+04  0.7818608E-02  0.8901992E-01
         -2   -1    0    0    0  501 -0.00000000000E+00  0.00000000000E+00  0.28242475107E+03  0.28242475109E+03  0.25500000000E-02 0. -1.
          2   -1    0    0  501    0  0.00000000000E+00 -0.00000000000E+00 -0.19229934864E+04  0.19229934864E+04  0.25500000000E-02 0.  1.
    5000001    1    1    2    0    0 -0.13004604049E+03 -0.66250071041E+03 -0.11612906866E+04  0.13563772420E+04  0.18800000000E+03 0.  0.
   -5000001    1    1    2    0    0  0.13004604049E+03  0.66250071041E+03 -0.47927804871E+03  0.84904099543E+03  0.18800000000E+03 0.  0.
<mgrwt>
<rscale>  0 0.14739077E+04</rscale>
<asrwt>0</asrwt>
<pdfrwt beam="1">  1        2 0.27471335E+00 0.14739077E+04</pdfrwt>
<pdfrwt beam="2">  1       -2 0.40346394E-01 0.14739077E+04</pdfrwt>
<totfact> 0.49548989E+01</totfact>
</mgrwt>
</event>
<event>
 4    1  0.6034452E-005  0.6554516E+03  0.7818608E-02  0.9796603E-01
          2   -1    0    0  501    0  0.00000000000E+00  0.00000000000E+00  0.63339199716E+03  0.63339199717E+03  0.25500000000E-02 0.  1.
         -2   -1    0    0    0  501 -0.00000000000E+00 -0.00000000000E+00 -0.16956989245E+03  0.16956989247E+03  0.25500000000E-02 0. -1.
    5000001    1    1    2    0    0 -0.16027394654E+03 -0.18146727726E+03  0.37394359951E+03  0.48352448363E+03  0.18800000000E+03 0.  0.
   -5000001    1    1    2    0    0  0.16027394654E+03  0.18146727726E+03  0.89878505206E+02  0.31943740600E+03  0.18800000000E+03 0.  0.
<mgrwt>
<rscale>  0 0.65545164E+03</rscale>
<asrwt>0</asrwt>
<pdfrwt beam="1">  1        2 0.90484572E-01 0.65545164E+03</pdfrwt>
<pdfrwt beam="2">  1       -2 0.24224270E-01 0.65545164E+03</pdfrwt>
<totfact> 0.77419501E+02</totfact>
</mgrwt>
</event>
<event>
 4    1  0.6034452E-005  0.5580414E+03  0.7818608E-02  0.9996496E-01
          2   -1    0    0  501    0  0.00000000000E+00  0.00000000000E+00  0.39500797553E+03  0.39500797553E+03  0.25500000000E-02 0.  1.
         -2   -1    0    0    0  501 -0.00000000000E+00 -0.00000000000E+00 -0.19709109897E+03  0.19709109898E+03  0.25500000000E-02 0. -1.
    5000001    1    1    2    0    0 -0.99467823521E+02  0.16066145238E+03  0.18647003371E+03  0.32530143508E+03  0.18800000000E+03 0.  0.
   -5000001    1    1    2    0    0  0.99467823521E+02 -0.16066145238E+03  0.11446842850E+02  0.26679763943E+03  0.18800000000E+03 0.  0.
<mgrwt>
<rscale>  0 0.55804142E+03</rscale>
<asrwt>0</asrwt>
<pdfrwt beam="1">  1        2 0.56429711E-01 0.55804142E+03</pdfrwt>
<pdfrwt beam="2">  1       -2 0.28155871E-01 0.55804142E+03</pdfrwt>
<totfact> 0.10131694E+03</totfact>
</mgrwt>
</event>
<event>
 4    1  0.6034452E-005  0.4124574E+03  0.7818608E-02  0.1039549E+00
          2   -1    0    0  501    0  0.00000000000E+00  0.00000000000E+00  0.19050747499E+04  0.19050747499E+04  0.25500000000E-02 0.  1.
         -2   -1    0    0    0  501 -0.00000000000E+00 -0.00000000000E+00 -0.22324732065E+02  0.22324732210E+02  0.25500000000E-02 0. -1.
    5000001    1    1    2    0    0  0.73433454432E+02 -0.35407164395E+02  0.10499793968E+04  0.10697882376E+04  0.18800000000E+03 0.  0.
   -5000001    1    1    2    0    0 -0.73433454432E+02  0.35407164395E+02  0.83277062105E+03  0.85761124456E+03  0.18800000000E+03 0.  0.
<mgrwt>
<rscale>  0 0.41245743E+03</rscale>
<asrwt>0</asrwt>
<pdfrwt beam="1">  1        2 0.27215351E+00 0.41245743E+03</pdfrwt>
<pdfrwt beam="2">  1       -2 0.31892478E-02 0.41245743E+03</pdfrwt>
<totfact> 0.37931153E+03</totfact>
</mgrwt>
</event>
<event>
 4    1  0.6034452E-005  0.7136833E+03  0.7818608E-02  0.9694114E-01
          2   -1    0    0  501    0  0.00000000000E+00  0.00000000000E+00  0.37286786113E+03  0.37286786113E+03  0.25500000000E-02 0.  1.
         -2   -1    0    0    0  501 -0.00000000000E+00 -0.00000000000E+00 -0.34150421754E+03  0.34150421755E+03  0.25500000000E-02 0. -1.
    5000001    1    1    2    0    0 -0.14456330346E+03 -0.17834716265E+03  0.21407929942E+03  0.36589644105E+03  0.18800000000E+03 0.  0.
   -5000001    1    1    2    0    0  0.14456330346E+03  0.17834716265E+03 -0.18271565583E+03  0.34847563763E+03  0.18800000000E+03 0.  0.
<mgrwt>
<rscale>  0 0.71368326E+03</rscale>
<asrwt>0</asrwt>
<pdfrwt beam="1">  1        2 0.53266837E-01 0.71368326E+03</pdfrwt>
<pdfrwt beam="2">  1       -2 0.48786317E-01 0.71368326E+03</pdfrwt>
<totfact> 0.37518935E+02</totfact>
</mgrwt>
</event>
<event>
 4    1  0.6034452E-005  0.7965106E+03  0.7818608E-02  0.9565082E-01
          2   -1    0    0  501    0  0.00000000000E+00  0.00000000000E+00  0.12457390342E+04  0.12457390342E+04  0.25500000000E-02 0.  1.
         -2   -1    0    0    0  501 -0.00000000000E+00 -0.00000000000E+00 -0.12731981844E+03  0.12731981846E+03  0.25500000000E-02 0. -1.
    5000001    1    1    2    0    0  0.84951944115E+02  0.33830848844E+03  0.49038959768E+03  0.63047238137E+03  0.18800000000E+03 0.  0.
   -5000001    1    1    2    0    0 -0.84951944115E+02 -0.33830848844E+03  0.62802961805E+03  0.74258647127E+03  0.18800000000E+03 0.  0.
<mgrwt>
<rscale>  0 0.79651056E+03</rscale>
<asrwt>0</asrwt>
<pdfrwt beam="1">  1        2 0.17796272E+00 0.79651056E+03</pdfrwt>
<pdfrwt beam="2">  1       -2 0.18188545E-01 0.79651056E+03</pdfrwt>
<totfact> 0.50912978E+02</totfact>
</mgrwt>
</event>
<event>
 4    1  0.6034452E-005  0.1396586E+04  0.7818608E-02  0.8956293E-01
          2   -1    0    0  501    0  0.00000000000E+00  0.00000000000E+00  0.45684170717E+04  0.45684170717E+04  0.25500000000E-02 0.  1.
         -2   -1    0    0    0  501 -0.00000000000E+00 -0.00000000000E+00 -0.10673572266E+03  0.10673572269E+03  0.25500000000E-02 0. -1.
    5000001    1    1    2    0    0  0.38678621209E+03 -0.52566343883E+03  0.27741738271E+04  0.28561004968E+04  0.18800000000E+03 0.  0.
   -5000001    1    1    2    0    0 -0.38678621209E+03  0.52566343883E+03  0.16875075219E+04  0.18190522976E+04  0.18800000000E+03 0.  0.
<mgrwt>
<rscale>  0 0.13965863E+04</rscale>
<asrwt>0</asrwt>
<pdfrwt beam="1">  1        2 0.65263104E+00 0.13965863E+04</pdfrwt>
<pdfrwt beam="2">  1       -2 0.15247960E-01 0.13965863E+04</pdfrwt>
<totfact> 0.73670802E+00</totfact>
</mgrwt>
</event>
<event>
 4    1  0.6034452E-005  0.3996664E+03  0.7818608E-02  0.1043895E+00
          2   -1    0    0  501    0  0.00000000000E+00  0.00000000000E+00  0.10141677219E+04  0.10141677219E+04  0.25500000000E-02 0. -1.
         -2   -1    0    0    0  501 -0.00000000000E+00 -0.00000000000E+00 -0.39375438670E+02  0.39375438753E+02  0.25500000000E-02 0.  1.
    5000001    1    1    2    0    0  0.36381656049E+02 -0.15874753901E+02  0.63210740004E+03  0.66066587462E+03  0.18800000000E+03 0.  0.
   -5000001    1    1    2    0    0 -0.36381656049E+02  0.15874753901E+02  0.34268488315E+03  0.39287728599E+03  0.18800000000E+03 0.  0.
<mgrwt>
<rscale>  0 0.39966636E+03</rscale>
<asrwt>0</asrwt>
<pdfrwt beam="1">  1        2 0.14488111E+00 0.39966636E+03</pdfrwt>
<pdfrwt beam="2">  1       -2 0.56250624E-02 0.39966636E+03</pdfrwt>
<totfact> 0.46966800E+03</totfact>
</mgrwt>
</event>
<event>
 4    1  0.6034452E-005  0.5699982E+03  0.7818608E-02  0.9969683E-01
         -2   -1    0    0    0  501 -0.00000000000E+00  0.00000000000E+00  0.90345311605E+02  0.90345311641E+02  0.25500000000E-02 0. -1.
          2   -1    0    0  501    0  0.00000000000E+00 -0.00000000000E+00 -0.89904493665E+03  0.89904493665E+03  0.25500000000E-02 0.  1.
    5000001    1    1    2    0    0 -0.18137496672E+03 -0.80701156038E+02 -0.54397951119E+03  0.60882449337E+03  0.18800000000E+03 0.  0.
   -5000001    1    1    2    0    0  0.18137496672E+03  0.80701156038E+02 -0.26472011385E+03  0.38056575492E+03  0.18800000000E+03 0.  0.
<mgrwt>
<rscale>  0 0.56999823E+03</rscale>
<asrwt>0</asrwt>
<pdfrwt beam="1">  1        2 0.12843499E+00 0.56999823E+03</pdfrwt>
<pdfrwt beam="2">  1       -2 0.12906474E-01 0.56999823E+03</pdfrwt>
<totfact> 0.14726717E+03</totfact>
</mgrwt>
</event>
<event>
 4    1  0.6034452E-005  0.7450210E+03  0.7818608E-02  0.9643194E-01
          2   -1    0    0  501    0  0.00000000000E+00  0.00000000000E+00  0.31335682577E+04  0.31335682577E+04  0.25500000000E-02 0.  1.
         -2   -1    0    0    0  501 -0.00000000000E+00 -0.00000000000E+00 -0.44283080286E+02  0.44283080359E+02  0.25500000000E-02 0. -1.
    5000001    1    1    2    0    0 -0.31908928410E+02  0.25389712148E+03  0.23754551081E+04  0.23965835889E+04  0.18800000000E+03 0.  0.
   -5000001    1    1    2    0    0  0.31908928410E+02 -0.25389712148E+03  0.71383006925E+03  0.78126774909E+03  0.18800000000E+03 0.  0.
<mgrwt>
<rscale>  0 0.74502095E+03</rscale>
<asrwt>0</asrwt>
<pdfrwt beam="1">  1        2 0.44765260E+00 0.74502095E+03</pdfrwt>
<pdfrwt beam="2">  1       -2 0.63261544E-02 0.74502095E+03</pdfrwt>
<totfact> 0.29796419E+02</totfact>
</mgrwt>
</event>
<event>
 4    1  0.6034452E-005  0.7843483E+03  0.7818608E-02  0.9582953E-01
          2   -1    0    0  501    0  0.00000000000E+00  0.00000000000E+00  0.98103826221E+03  0.98103826221E+03  0.25500000000E-02 0.  1.
         -2   -1    0    0    0  501 -0.00000000000E+00 -0.00000000000E+00 -0.15677327575E+03  0.15677327577E+03  0.25500000000E-02 0. -1.
    5000001    1    1    2    0    0  0.24856385952E+03  0.82584747427E+02  0.73602743276E+03  0.80354502957E+03  0.18800000000E+03 0.  0.
   -5000001    1    1    2    0    0 -0.24856385952E+03 -0.82584747427E+02  0.88237553694E+02  0.33426650842E+03  0.18800000000E+03 0.  0.
<mgrwt>
<rscale>  0 0.78434835E+03</rscale>
<asrwt>0</asrwt>
<pdfrwt beam="1">  1        2 0.14014832E+00 0.78434835E+03</pdfrwt>
<pdfrwt beam="2">  1       -2 0.22396182E-01 0.78434835E+03</pdfrwt>
<totfact> 0.50548973E+02</totfact>
</mgrwt>
</event>
<event>
 4    1  0.6034452E-005  0.5578014E+03  0.7818608E-02  0.9997042E-01
         -2   -1    0    0    0  501 -0.00000000000E+00  0.00000000000E+00  0.83734955348E+02  0.83734955387E+02  0.25500000000E-02 0. -1.
          2   -1    0    0  501    0  0.00000000000E+00 -0.00000000000E+00 -0.92895014359E+03  0.92895014359E+03  0.25500000000E-02 0.  1.
    5000001    1    1    2    0    0  0.48589038839E+01  0.20530799977E+03 -0.45225162080E+03  0.53108427978E+03  0.18800000000E+03 0.  0.
   -5000001    1    1    2    0    0 -0.48589038839E+01 -0.20530799977E+03 -0.39296356744E+03  0.48160081919E+03  0.18800000000E+03 0.  0.
<mgrwt>
<rscale>  0 0.55780139E+03</rscale>
<asrwt>0</asrwt>
<pdfrwt beam="1">  1        2 0.13270716E+00 0.55780139E+03</pdfrwt>
<pdfrwt beam="2">  1       -2 0.11962137E-01 0.55780139E+03</pdfrwt>
<totfact> 0.15977213E+03</totfact>
</mgrwt>
</event>
<event>
 4    1  0.6034452E-005  0.4737023E+03  0.7818608E-02  0.1020880E+00
         -2   -1    0    0    0  501 -0.00000000000E+00  0.00000000000E+00  0.18000240823E+04  0.18000240823E+04  0.25500000000E-02 0. -1.
          2   -1    0    0  501    0  0.00000000000E+00 -0.00000000000E+00 -0.31165393345E+02  0.31165393449E+02  0.25500000000E-02 0.  1.
    5000001    1    1    2    0    0 -0.13896655363E+03 -0.19018227760E+02  0.75732709050E+03  0.79281884313E+03  0.18800000000E+03 0.  0.
   -5000001    1    1    2    0    0  0.13896655363E+03  0.19018227760E+02  0.10115315984E+04  0.10383706326E+04  0.18800000000E+03 0.  0.
<mgrwt>
<rscale>  0 0.47370226E+03</rscale>
<asrwt>0</asrwt>
<pdfrwt beam="1">  1        2 0.44522006E-02 0.47370226E+03</pdfrwt>
<pdfrwt beam="2">  1       -2 0.25714621E+00 0.47370226E+03</pdfrwt>
<totfact> 0.11794676E+02</totfact>
</mgrwt>
</event>
<event>
 4    1  0.6034452E-005  0.4649889E+03  0.7818608E-02  0.1023344E+00
          2   -1    0    0  501    0  0.00000000000E+00  0.00000000000E+00  0.50490185367E+03  0.50490185368E+03  0.25500000000E-02 0. -1.
         -2   -1    0    0    0  501 -0.00000000000E+00 -0.00000000000E+00 -0.10705778618E+03  0.10705778621E+03  0.25500000000E-02 0.  1.
    5000001    1    1    2    0    0  0.64349321515E+02  0.76508445173E+02  0.32178507949E+03  0.38585491411E+03  0.18800000000E+03 0.  0.
   -5000001    1    1    2    0    0 -0.64349321515E+02 -0.76508445173E+02  0.76058988004E+02  0.22610472578E+03  0.18800000000E+03 0.  0.
<mgrwt>
<rscale>  0 0.46498892E+03</rscale>
<asrwt>0</asrwt>
<pdfrwt beam="1">  1        2 0.72128838E-01 0.46498892E+03</pdfrwt>
<pdfrwt beam="2">  1       -2 0.15293969E-01 0.46498892E+03</pdfrwt>
<totfact> 0.22348107E+03</totfact>
</mgrwt>
</event>
<event>
 4    1  0.6034452E-005  0.5878657E+03  0.7818608E-02  0.9930906E-01
          2   -1    0    0  501    0  0.00000000000E+00  0.00000000000E+00  0.32444568772E+04  0.32444568773E+04  0.25500000000E-02 0. -1.
         -2   -1    0    0    0  501 -0.00000000000E+00 -0.00000000000E+00 -0.26628959094E+02  0.26628959216E+02  0.25500000000E-02 0.  1.
    5000001    1    1    2    0    0 -0.15986261648E+03  0.15826850455E+03  0.14912003009E+04  0.15197458055E+04  0.18800000000E+03 0.  0.
   -5000001    1    1    2    0    0  0.15986261648E+03 -0.15826850455E+03  0.17266276172E+04  0.17513400310E+04  0.18800000000E+03 0.  0.
<mgrwt>
<rscale>  0 0.58786566E+03</rscale>
<asrwt>0</asrwt>
<pdfrwt beam="1">  1        2 0.46349360E+00 0.58786566E+03</pdfrwt>
<pdfrwt beam="2">  1       -2 0.38041390E-02 0.58786566E+03</pdfrwt>
<totfact> 0.57821634E+02</totfact>
</mgrwt>
</event>
<event>
 4    1  0.6034452E-005  0.8856176E+03  0.7818608E-02  0.9443741E-01
         -2   -1    0    0    0  501 -0.00000000000E+00  0.00000000000E+00  0.25817645835E+03  0.25817645836E+03  0.25500000000E-02 0. -1.
          2   -1    0    0  501    0  0.00000000000E+00 -0.00000000000E+00 -0.75947920553E+03  0.75947920553E+03  0.25500000000E-02 0.  1.
    5000001    1    1    2    0    0  0.28471207523E+03 -0.27242563953E+03 -0.16575103602E+03  0.46700546121E+03  0.18800000000E+03 0.  0.
   -5000001    1    1    2    0    0 -0.28471207523E+03  0.27242563953E+03 -0.33555171116E+03  0.55065020269E+03  0.18800000000E+03 0.  0.
<mgrwt>
<rscale>  0 0.88561764E+03</rscale>
<asrwt>0</asrwt>
<pdfrwt beam="1">  1        2 0.10849703E+00 0.88561764E+03</pdfrwt>
<pdfrwt beam="2">  1       -2 0.36882351E-01 0.88561764E+03</pdfrwt>
<totfact> 0.28180286E+02</totfact>
</mgrwt>
</event>
<event>
 4    1  0.6034452E-005  0.1057684E+04  0.7818608E-02  0.9247447E-01
         -2   -1    0    0    0  501 -0.00000000000E+00  0.00000000000E+00  0.30533527067E+03  0.30533527068E+03  0.25500000000E-02 0.  1.
          2   -1    0    0  501    0  0.00000000000E+00 -0.00000000000E+00 -0.91595660479E+03  0.91595660480E+03  0.25500000000E-02 0. -1.
    5000001    1    1    2    0    0  0.40233082727E+03  0.24714142786E+03 -0.13647029416E+03  0.52622915268E+03  0.18800000000E+03 0.  0.
   -5000001    1    1    2    0    0 -0.40233082727E+03 -0.24714142786E+03 -0.47415103996E+03  0.69506272280E+03  0.18800000000E+03 0.  0.
<mgrwt>
<rscale>  0 0.10576840E+04</rscale>
<asrwt>0</asrwt>
<pdfrwt beam="1">  1        2 0.13085094E+00 0.10576840E+04</pdfrwt>
<pdfrwt beam="2">  1       -2 0.43619325E-01 0.10576840E+04</pdfrwt>
<totfact> 0.15733817E+02</totfact>
</mgrwt>
</event>
<event>
 4    1  0.6034452E-005  0.1062748E+04  0.7818608E-02  0.9242280E-01
          2   -1    0    0  501    0  0.00000000000E+00  0.00000000000E+00  0.35711205902E+04  0.35711205902E+04  0.25500000000E-02 0.  1.
         -2   -1    0    0    0  501 -0.00000000000E+00 -0.00000000000E+00 -0.79067204238E+02  0.79067204279E+02  0.25500000000E-02 0. -1.
    5000001    1    1    2    0    0 -0.55299287355E+02 -0.39902260468E+03  0.27458482874E+04  0.27816009541E+04  0.18800000000E+03 0.  0.
   -5000001    1    1    2    0    0  0.55299287355E+02  0.39902260468E+03  0.74620509857E+03  0.86858684043E+03  0.18800000000E+03 0.  0.
<mgrwt>
<rscale>  0 0.10627484E+04</rscale>
<asrwt>0</asrwt>
<pdfrwt beam="1">  1        2 0.51016010E+00 0.10627484E+04</pdfrwt>
<pdfrwt beam="2">  1       -2 0.11295315E-01 0.10627484E+04</pdfrwt>
<totfact> 0.62833819E+01</totfact>
</mgrwt>
</event>
<event>
 4    1  0.6034452E-005  0.6663573E+03  0.7818608E-02  0.9776561E-01
          2   -1    0    0  501    0  0.00000000000E+00  0.00000000000E+00  0.27824775725E+03  0.27824775726E+03  0.25500000000E-02 0.  1.
         -2   -1    0    0    0  501 -0.00000000000E+00 -0.00000000000E+00 -0.39895386765E+03  0.39895386765E+03  0.25500000000E-02 0. -1.
    5000001    1    1    2    0    0 -0.10072323713E+03  0.25262205499E+03 -0.18439350261E+02  0.33113000892E+03  0.18800000000E+03 0.  0.
   -5000001    1    1    2    0    0  0.10072323713E+03 -0.25262205499E+03 -0.10226676014E+03  0.34607161599E+03  0.18800000000E+03 0.  0.
<mgrwt>
<rscale>  0 0.66635732E+03</rscale>
<asrwt>0</asrwt>
<pdfrwt beam="1">  1        2 0.39749680E-01 0.66635732E+03</pdfrwt>
<pdfrwt beam="2">  1       -2 0.56993409E-01 0.66635732E+03</pdfrwt>
<totfact> 0.37764944E+02</totfact>
</mgrwt>
</event>
<event>
 4    1  0.6034452E-005  0.5314265E+03  0.7818608E-02  0.1005887E+00
         -2   -1    0    0    0  501 -0.00000000000E+00  0.00000000000E+00  0.17642600551E+03  0.17642600552E+03  0.25500000000E-02 0. -1.
          2   -1    0    0  501    0  0.00000000000E+00 -0.00000000000E+00 -0.40018780168E+03  0.40018780168E+03  0.25500000000E-02 0.  1.
    5000001    1    1    2    0    0 -0.47453546926E+02  0.15024648187E+03 -0.22271178298E+03  0.33131613711E+03  0.18800000000E+03 0.  0.
   -5000001    1    1    2    0    0  0.47453546926E+02 -0.15024648187E+03 -0.10500131902E+01  0.24529767010E+03  0.18800000000E+03 0.  0.
<mgrwt>
<rscale>  0 0.53142652E+03</rscale>
<asrwt>0</asrwt>
<pdfrwt beam="1">  1        2 0.57169686E-01 0.53142652E+03</pdfrwt>
<pdfrwt beam="2">  1       -2 0.25203715E-01 0.53142652E+03</pdfrwt>
<totfact> 0.12203242E+03</totfact>
</mgrwt>
</event>
<event>
 4    1  0.6034452E-005  0.4522169E+03  0.7818608E-02  0.1027063E+00
          2   -1    0    0  501    0  0.00000000000E+00  0.00000000000E+00  0.28809180402E+04  0.28809180402E+04  0.25500000000E-02 0.  1.
         -2   -1    0    0    0  501 -0.00000000000E+00 -0.00000000000E+00 -0.17746091386E+02  0.17746091570E+02  0.25500000000E-02 0. -1.
    5000001    1    1    2    0    0 -0.79822796881E+02  0.97001831668E+02  0.14314005742E+04  0.14491489358E+04  0.18800000000E+03 0.  0.
   -5000001    1    1    2    0    0  0.79822796881E+02 -0.97001831668E+02  0.14317713746E+04  0.14495151960E+04  0.18800000000E+03 0.  0.
<mgrwt>
<rscale>  0 0.45221692E+03</rscale>
<asrwt>0</asrwt>
<pdfrwt beam="1">  1        2 0.41156000E+00 0.45221692E+03</pdfrwt>
<pdfrwt beam="2">  1       -2 0.25351542E-02 0.45221692E+03</pdfrwt>
<totfact> 0.17138648E+03</totfact>
</mgrwt>
</event>
<event>
 4    1  0.6034452E-005  0.5804956E+03  0.7818608E-02  0.9946719E-01
          2   -1    0    0  501    0  0.00000000000E+00  0.00000000000E+00  0.40790628153E+03  0.40790628154E+03  0.25500000000E-02 0.  1.
         -2   -1    0    0    0  501 -0.00000000000E+00 -0.00000000000E+00 -0.20652729415E+03  0.20652729416E+03  0.25500000000E-02 0. -1.
    5000001    1    1    2    0    0  0.19621227779E+03  0.82303736650E+02  0.36947315387E+02  0.28632545667E+03  0.18800000000E+03 0.  0.
   -5000001    1    1    2    0    0 -0.19621227779E+03 -0.82303736650E+02  0.16443167199E+03  0.32810811903E+03  0.18800000000E+03 0.  0.
<mgrwt>
<rscale>  0 0.58049558E+03</rscale>
<asrwt>0</asrwt>
<pdfrwt beam="1">  1        2 0.58272326E-01 0.58049558E+03</pdfrwt>
<pdfrwt beam="2">  1       -2 0.29503899E-01 0.58049558E+03</pdfrwt>
<totfact> 0.89717831E+02</totfact>
</mgrwt>
</event>
<event>
 4    1  0.6034452E-005  0.7145231E+03  0.7818608E-02  0.9692713E-01
         -2   -1    0    0    0  501 -0.00000000000E+00  0.00000000000E+00  0.11185055656E+03  0.11185055659E+03  0.25500000000E-02 0. -1.
          2   -1    0    0  501    0  0.00000000000E+00 -0.00000000000E+00 -0.11411281037E+04  0.11411281037E+04  0.25500000000E-02 0.  1.
    5000001    1    1    2    0    0  0.25166449646E+03 -0.95434885408E+02 -0.76169538020E+03  0.82943757351E+03  0.18800000000E+03 0.  0.
   -5000001    1    1    2    0    0 -0.25166449646E+03  0.95434885408E+02 -0.26758216693E+03  0.42354108678E+03  0.18800000000E+03 0.  0.
<mgrwt>
<rscale>  0 0.71452310E+03</rscale>
<asrwt>0</asrwt>
<pdfrwt beam="1">  1        2 0.16301829E+00 0.71452310E+03</pdfrwt>
<pdfrwt beam="2">  1       -2 0.15978652E-01 0.71452310E+03</pdfrwt>
<totfact> 0.73115353E+02</totfact>
</mgrwt>
</event>
<event>
 4    1  0.6034452E-005  0.8023530E+03  0.7818608E-02  0.9556617E-01
          2   -1    0    0  501    0  0.00000000000E+00  0.00000000000E+00  0.61650504355E+03  0.61650504356E+03  0.25500000000E-02 0. -1.
         -2   -1    0    0    0  501 -0.00000000000E+00 -0.00000000000E+00 -0.26105639218E+03  0.26105639219E+03  0.25500000000E-02 0.  1.
    5000001    1    1    2    0    0  0.29593802126E+01 -0.20317626212E+03  0.49530174527E+03  0.56741269838E+03  0.18800000000E+03 0.  0.
   -5000001    1    1    2    0    0 -0.29593802126E+01  0.20317626212E+03 -0.13985309389E+03  0.31014873737E+03  0.18800000000E+03 0.  0.
<mgrwt>
<rscale>  0 0.80235300E+03</rscale>
<asrwt>0</asrwt>
<pdfrwt beam="1">  1        2 0.88072150E-01 0.80235300E+03</pdfrwt>
<pdfrwt beam="2">  1       -2 0.37293770E-01 0.80235300E+03</pdfrwt>
<totfact> 0.35761160E+02</totfact>
</mgrwt>
</event>
<event>
 4    1  0.6034452E-005  0.4218255E+03  0.7818608E-02  0.1036474E+00
         -2   -1    0    0    0  501 -0.00000000000E+00  0.00000000000E+00  0.21633818770E+03  0.21633818771E+03  0.25500000000E-02 0. -1.
          2   -1    0    0  501    0  0.00000000000E+00 -0.00000000000E+00 -0.20562339039E+03  0.20562339041E+03  0.25500000000E-02 0.  1.
    5000001    1    1    2    0    0  0.20163934936E+02  0.72832916458E+02  0.63933725388E+02  0.21246820758E+03  0.18800000000E+03 0.  0.
   -5000001    1    1    2    0    0 -0.20163934936E+02 -0.72832916458E+02 -0.53218928085E+02  0.20949337054E+03  0.18800000000E+03 0.  0.
<mgrwt>
<rscale>  0 0.42182552E+03</rscale>
<asrwt>0</asrwt>
<pdfrwt beam="1">  1        2 0.29374770E-01 0.42182552E+03</pdfrwt>
<pdfrwt beam="2">  1       -2 0.30905455E-01 0.42182552E+03</pdfrwt>
<totfact> 0.17526488E+03</totfact>
</mgrwt>
</event>
<event>
 4    1  0.6034452E-005  0.4682212E+03  0.7818608E-02  0.1022423E+00
          2   -1    0    0  501    0  0.00000000000E+00  0.00000000000E+00  0.10777935571E+04  0.10777935571E+04  0.25500000000E-02 0.  1.
         -2   -1    0    0    0  501 -0.00000000000E+00 -0.00000000000E+00 -0.50851833813E+02  0.50851833877E+02  0.25500000000E-02 0. -1.
    5000001    1    1    2    0    0  0.99678032665E+02  0.90431986155E+02  0.60204222622E+03  0.64491278207E+03  0.18800000000E+03 0.  0.
   -5000001    1    1    2    0    0 -0.99678032665E+02 -0.90431986155E+02  0.42489949702E+03  0.48373260887E+03  0.18800000000E+03 0.  0.
<mgrwt>
<rscale>  0 0.46822123E+03</rscale>
<asrwt>0</asrwt>
<pdfrwt beam="1">  1        2 0.15397050E+00 0.46822123E+03</pdfrwt>
<pdfrwt beam="2">  1       -2 0.72645482E-02 0.46822123E+03</pdfrwt>
<totfact> 0.28948579E+03</totfact>
</mgrwt>
</event>
<event>
 4    1  0.6034452E-005  0.5752260E+03  0.7818608E-02  0.9958180E-01
          2   -1    0    0  501    0  0.00000000000E+00  0.00000000000E+00  0.25819398733E+04  0.25819398733E+04  0.25500000000E-02 0.  1.
         -2   -1    0    0    0  501 -0.00000000000E+00 -0.00000000000E+00 -0.32038406901E+02  0.32038407003E+02  0.25500000000E-02 0. -1.
    5000001    1    1    2    0    0  0.12262306526E+03 -0.17651115808E+03  0.14313575942E+04  0.14595619780E+04  0.18800000000E+03 0.  0.
   -5000001    1    1    2    0    0 -0.12262306526E+03  0.17651115808E+03  0.11185438721E+04  0.11544163023E+04  0.18800000000E+03 0.  0.
<mgrwt>
<rscale>  0 0.57522601E+03</rscale>
<asrwt>0</asrwt>
<pdfrwt beam="1">  1        2 0.36884874E+00 0.57522601E+03</pdfrwt>
<pdfrwt beam="2">  1       -2 0.45769130E-02 0.57522601E+03</pdfrwt>
<totfact> 0.99002568E+02</totfact>
</mgrwt>
</event>
<event>
 4    1  0.6034452E-005  0.4953883E+03  0.7818608E-02  0.1014990E+00
          2   -1    0    0  501    0  0.00000000000E+00  0.00000000000E+00  0.11227212922E+04  0.11227212922E+04  0.25500000000E-02 0.  1.
         -2   -1    0    0    0  501 -0.00000000000E+00 -0.00000000000E+00 -0.54646149198E+02  0.54646149257E+02  0.25500000000E-02 0. -1.
    5000001    1    1    2    0    0  0.99753381132E+01  0.15550455263E+03  0.63281104976E+03  0.67828828528E+03  0.18800000000E+03 0.  0.
   -5000001    1    1    2    0    0 -0.99753381132E+01 -0.15550455263E+03  0.43526409323E+03  0.49907915616E+03  0.18800000000E+03 0.  0.
<mgrwt>
<rscale>  0 0.49538831E+03</rscale>
<asrwt>0</asrwt>
<pdfrwt beam="1">  1        2 0.16038875E+00 0.49538831E+03</pdfrwt>
<pdfrwt beam="2">  1       -2 0.78065932E-02 0.49538831E+03</pdfrwt>
<totfact> 0.24341494E+03</totfact>
</mgrwt>
</event>
<event>
 4    1  0.6034452E-005  0.7099785E+03  0.7818608E-02  0.9700318E-01
          2   -1    0    0  501    0  0.00000000000E+00  0.00000000000E+00  0.13226656834E+04  0.13226656834E+04  0.25500000000E-02 0.  1.
         -2   -1    0    0    0  501 -0.00000000000E+00 -0.00000000000E+00 -0.95275299568E+02  0.95275299602E+02  0.25500000000E-02 0. -1.
    5000001    1    1    2    0    0  0.11143129559E+03 -0.27446174669E+03  0.50564188672E+03  0.61543797546E+03  0.18800000000E+03 0.  0.
   -5000001    1    1    2    0    0 -0.11143129559E+03  0.27446174669E+03  0.72174849707E+03  0.80250300751E+03  0.18800000000E+03 0.  0.
<mgrwt>
<rscale>  0 0.70997850E+03</rscale>
<asrwt>0</asrwt>
<pdfrwt beam="1">  1        2 0.18895224E+00 0.70997850E+03</pdfrwt>
<pdfrwt beam="2">  1       -2 0.13610757E-01 0.70997850E+03</pdfrwt>
<totfact> 0.75879981E+02</totfact>
</mgrwt>
</event>
<event>
 4    1  0.6034452E-005  0.5313711E+03  0.7818608E-02  0.1005900E+00
         -2   -1    0    0    0  501 -0.00000000000E+00  0.00000000000E+00  0.37173242797E+02  0.37173242885E+02  0.25500000000E-02 0. -1.
          2   -1    0    0  501    0  0.00000000000E+00 -0.00000000000E+00 -0.18989142493E+04  0.18989142493E+04  0.25500000000E-02 0.  1.
    5000001    1    1    2    0    0  0.13908365784E+03 -0.12515909274E+03 -0.98681302232E+03  0.10218380515E+04  0.18800000000E+03 0.  0.
   -5000001    1    1    2    0    0 -0.13908365784E+03  0.12515909274E+03 -0.87492798414E+03  0.91424944069E+03  0.18800000000E+03 0.  0.
<mgrwt>
<rscale>  0 0.53137106E+03</rscale>
<asrwt>0</asrwt>
<pdfrwt beam="1">  1        2 0.27127340E+00 0.53137106E+03</pdfrwt>
<pdfrwt beam="2">  1       -2 0.53104645E-02 0.53137106E+03</pdfrwt>
<totfact> 0.17449631E+03</totfact>
</mgrwt>
</event>
<event>
 4    1  0.6034452E-005  0.7200105E+03  0.7818608E-02  0.9683611E-01
          2   -1    0    0  501    0  0.00000000000E+00  0.00000000000E+00  0.14025829802E+04  0.14025829802E+04  0.25500000000E-02 0. -1.
         -2   -1    0    0    0  501 -0.00000000000E+00 -0.00000000000E+00 -0.92403636576E+02  0.92403636612E+02  0.25500000000E-02 0.  1.
    5000001    1    1    2    0    0 -0.10156175821E+03  0.18182155695E+03  0.11234684611E+04  0.11579720430E+04  0.18800000000E+03 0.  0.
   -5000001    1    1    2    0    0  0.10156175821E+03 -0.18182155695E+03  0.18671088253E+03  0.33701457381E+03  0.18800000000E+03 0.  0.
<mgrwt>
<rscale>  0 0.72001047E+03</rscale>
<asrwt>0</asrwt>
<pdfrwt beam="1">  1        2 0.20036899E+00 0.72001047E+03</pdfrwt>
<pdfrwt beam="2">  1       -2 0.13200520E-01 0.72001047E+03</pdfrwt>
<totfact> 0.72289354E+02</totfact>
</mgrwt>
</event>
<event>
 4    1  0.6034452E-005  0.4373694E+03  0.7818608E-02  0.1031557E+00
         -2   -1    0    0    0  501 -0.00000000000E+00  0.00000000000E+00  0.10451526534E+03  0.10451526537E+03  0.25500000000E-02 0. -1.
          2   -1    0    0  501    0  0.00000000000E+00 -0.00000000000E+00 -0.45756946932E+03  0.45756946932E+03  0.25500000000E-02 0.  1.
    5000001    1    1    2    0    0  0.80972204769E+02  0.58795013462E+02 -0.11271272916E+03  0.24095956272E+03  0.18800000000E+03 0.  0.
   -5000001    1    1    2    0    0 -0.80972204769E+02 -0.58795013462E+02 -0.24034147482E+03  0.32112517197E+03  0.18800000000E+03 0.  0.
<mgrwt>
<rscale>  0 0.43736938E+03</rscale>
<asrwt>0</asrwt>
<pdfrwt beam="1">  1        2 0.65367066E-01 0.43736938E+03</pdfrwt>
<pdfrwt beam="2">  1       -2 0.14930752E-01 0.43736938E+03</pdfrwt>
<totfact> 0.25963646E+03</totfact>
</mgrwt>
</event>
<event>
 4    1  0.6034452E-005  0.5015192E+03  0.7818608E-02  0.1013383E+00
         -2   -1    0    0    0  501 -0.00000000000E+00  0.00000000000E+00  0.16318914681E+04  0.16318914681E+04  0.25500000000E-02 0. -1.
          2   -1    0    0  501    0  0.00000000000E+00 -0.00000000000E+00 -0.38532197666E+02  0.38532197751E+02  0.25500000000E-02 0.  1.
    5000001    1    1    2    0    0  0.15102579133E+03 -0.93768069340E+01  0.56980719216E+03  0.61880606848E+03  0.18800000000E+03 0.  0.
   -5000001    1    1    2    0    0 -0.15102579133E+03  0.93768069340E+01  0.10235520783E+04  0.10516175973E+04  0.18800000000E+03 0.  0.
<mgrwt>
<rscale>  0 0.50151915E+03</rscale>
<asrwt>0</asrwt>
<pdfrwt beam="1">  1        2 0.55045990E-02 0.50151915E+03</pdfrwt>
<pdfrwt beam="2">  1       -2 0.23312738E+00 0.50151915E+03</pdfrwt>
<totfact> 0.12338881E+02</totfact>
</mgrwt>
</event>
<event>
 4    1  0.6034452E-005  0.4909304E+03  0.7818608E-02  0.1016174E+00
         -2   -1    0    0    0  501 -0.00000000000E+00  0.00000000000E+00  0.15817790094E+04  0.15817790094E+04  0.25500000000E-02 0. -1.
          2   -1    0    0  501    0  0.00000000000E+00 -0.00000000000E+00 -0.38092018159E+02  0.38092018244E+02  0.25500000000E-02 0.  1.
    5000001    1    1    2    0    0  0.11631170034E+03 -0.89378228791E+02  0.57966442082E+03  0.62679479910E+03  0.18800000000E+03 0.  0.
   -5000001    1    1    2    0    0 -0.11631170034E+03  0.89378228791E+02  0.96402257045E+03  0.99307622857E+03  0.18800000000E+03 0.  0.
<mgrwt>
<rscale>  0 0.49093036E+03</rscale>
<asrwt>0</asrwt>
<pdfrwt beam="1">  1        2 0.54417160E-02 0.49093036E+03</pdfrwt>
<pdfrwt beam="2">  1       -2 0.22596847E+00 0.49093036E+03</pdfrwt>
<totfact> 0.13864421E+02</totfact>
</mgrwt>
</event>
<event>
 4    1  0.6034452E-005  0.4785764E+03  0.7818608E-02  0.1019527E+00
          2   -1    0    0  501    0  0.00000000000E+00  0.00000000000E+00  0.24140876291E+03  0.24140876292E+03  0.25500000000E-02 0. -1.
         -2   -1    0    0    0  501 -0.00000000000E+00 -0.00000000000E+00 -0.23718628283E+03  0.23718628284E+03  0.25500000000E-02 0.  1.
    5000001    1    1    2    0    0  0.11963596498E+03 -0.87172088771E+02  0.34766795783E+00  0.23928196349E+03  0.18800000000E+03 0.  0.
   -5000001    1    1    2    0    0 -0.11963596498E+03  0.87172088771E+02  0.38748121208E+01  0.23931308227E+03  0.18800000000E+03 0.  0.
<mgrwt>
<rscale>  0 0.47857642E+03</rscale>
<asrwt>0</asrwt>
<pdfrwt beam="1">  1        2 0.34486966E-01 0.47857642E+03</pdfrwt>
<pdfrwt beam="2">  1       -2 0.33883755E-01 0.47857642E+03</pdfrwt>
<totfact> 0.12372665E+03</totfact>
</mgrwt>
</event>
<event>
 4    1  0.6034452E-005  0.4551109E+03  0.7818608E-02  0.1026209E+00
          2   -1    0    0  501    0  0.00000000000E+00  0.00000000000E+00  0.11840766752E+04  0.11840766752E+04  0.25500000000E-02 0.  1.
         -2   -1    0    0    0  501 -0.00000000000E+00 -0.00000000000E+00 -0.43731532624E+02  0.43731532699E+02  0.25500000000E-02 0. -1.
    5000001    1    1    2    0    0  0.11277746875E+03 -0.31737617149E+02  0.42969260490E+03  0.48343124486E+03  0.18800000000E+03 0.  0.
   -5000001    1    1    2    0    0 -0.11277746875E+03  0.31737617149E+02  0.71065253765E+03  0.74437696302E+03  0.18800000000E+03 0.  0.
<mgrwt>
<rscale>  0 0.45511092E+03</rscale>
<asrwt>0</asrwt>
<pdfrwt beam="1">  1        2 0.16915381E+00 0.45511092E+03</pdfrwt>
<pdfrwt beam="2">  1       -2 0.62473619E-02 0.45511092E+03</pdfrwt>
<totfact> 0.31898439E+03</totfact>
</mgrwt>
</event>
<event>
 4    1  0.6034452E-005  0.8485637E+03  0.7818608E-02  0.9492267E-01
          2   -1    0    0  501    0  0.00000000000E+00  0.00000000000E+00  0.79796803235E+03  0.79796803235E+03  0.25500000000E-02 0.  1.
         -2   -1    0    0    0  501 -0.00000000000E+00 -0.00000000000E+00 -0.22559183743E+03  0.22559183744E+03  0.25500000000E-02 0. -1.
    5000001    1    1    2    0    0 -0.28048566969E+03 -0.13209663700E+03  0.55196699302E+03  0.66040388687E+03  0.18800000000E+03 0.  0.
   -5000001    1    1    2    0    0  0.28048566969E+03  0.13209663700E+03  0.20409201900E+02  0.36315598292E+03  0.18800000000E+03 0.  0.
<mgrwt>
<rscale>  0 0.84856367E+03</rscale>
<asrwt>0</asrwt>
<pdfrwt beam="1">  1        2 0.11399543E+00 0.84856367E+03</pdfrwt>
<pdfrwt beam="2">  1       -2 0.32227405E-01 0.84856367E+03</pdfrwt>
<totfact> 0.34240595E+02</totfact>
</mgrwt>
</event>
<event>
 4    1  0.6034452E-005  0.4998971E+03  0.7818608E-02  0.1013806E+00
          2   -1    0    0  501    0  0.00000000000E+00  0.00000000000E+00  0.72559349046E+03  0.72559349047E+03  0.25500000000E-02 0.  1.
         -2   -1    0    0    0  501 -0.00000000000E+00 -0.00000000000E+00 -0.86100935783E+02  0.86100935821E+02  0.25500000000E-02 0. -1.
    5000001    1    1    2    0    0 -0.14633299177E+03  0.21576788843E+02  0.43741160567E+03  0.49854971174E+03  0.18800000000E+03 0.  0.
   -5000001    1    1    2    0    0  0.14633299177E+03 -0.21576788843E+02  0.20208094901E+03  0.31314471455E+03  0.18800000000E+03 0.  0.
<mgrwt>
<rscale>  0 0.49989710E+03</rscale>
<asrwt>0</asrwt>
<pdfrwt beam="1">  1        2 0.10365622E+00 0.49989710E+03</pdfrwt>
<pdfrwt beam="2">  1       -2 0.12300133E-01 0.49989710E+03</pdfrwt>
<totfact> 0.20976011E+03</totfact>
</mgrwt>
</event>
<event>
 4    1  0.6034452E-005  0.4379395E+03  0.7818608E-02  0.1031381E+00
         -2   -1    0    0    0  501 -0.00000000000E+00  0.00000000000E+00  0.41502387213E+03  0.41502387214E+03  0.25500000000E-02 0. -1.
          2   -1    0    0  501    0  0.00000000000E+00 -0.00000000000E+00 -0.11553008934E+03  0.11553008937E+03  0.25500000000E-02 0.  1.
    5000001    1    1    2    0    0 -0.38507184623E+02 -0.89559860477E+02  0.82294952299E+02  0.22720086058E+03  0.18800000000E+03 0.  0.
   -5000001    1    1    2    0    0  0.38507184623E+02  0.89559860477E+02  0.21719883049E+03  0.30335310092E+03  0.18800000000E+03 0.  0.
<mgrwt>
<rscale>  0 0.43793947E+03</rscale>
<asrwt>0</asrwt>
<pdfrwt beam="1">  1        2 0.16504298E-01 0.43793947E+03</pdfrwt>
<pdfrwt beam="2">  1       -2 0.59289125E-01 0.43793947E+03</pdfrwt>
<totfact> 0.95044653E+02</totfact>
</mgrwt>
</event>
<event>
 4    1  0.6034452E-005  0.4558682E+03  0.7818608E-02  0.1025986E+00
          2   -1    0    0  501    0  0.00000000000E+00  0.00000000000E+00  0.19379362636E+03  0.19379362637E+03  0.25500000000E-02 0.  1.
         -2   -1    0    0    0  501 -0.00000000000E+00 -0.00000000000E+00 -0.26808908843E+03  0.26808908844E+03  0.25500000000E-02 0. -1.
    5000001    1    1    2    0    0 -0.20374055156E+02  0.12597840025E+03 -0.55393576439E+02  0.23387626593E+03  0.18800000000E+03 0.  0.
   -5000001    1    1    2    0    0  0.20374055156E+02 -0.12597840025E+03 -0.18901885636E+02  0.22800644889E+03  0.18800000000E+03 0.  0.
<mgrwt>
<rscale>  0 0.45586821E+03</rscale>
<asrwt>0</asrwt>
<pdfrwt beam="1">  1        2 0.27684804E-01 0.45586821E+03</pdfrwt>
<pdfrwt beam="2">  1       -2 0.38298441E-01 0.45586821E+03</pdfrwt>
<totfact> 0.12526063E+03</totfact>
</mgrwt>
</event>
<event>
 4    1  0.6034452E-005  0.4757895E+03  0.7818608E-02  0.1020299E+00
         -2   -1    0    0    0  501 -0.00000000000E+00  0.00000000000E+00  0.72503444598E+02  0.72503444643E+02  0.25500000000E-02 0. -1.
          2   -1    0    0  501    0  0.00000000000E+00 -0.00000000000E+00 -0.78056844092E+03  0.78056844093E+03  0.25500000000E-02 0.  1.
    5000001    1    1    2    0    0  0.49768845206E+02 -0.13630879730E+03 -0.37893301090E+03  0.44720381587E+03  0.18800000000E+03 0.  0.
   -5000001    1    1    2    0    0 -0.49768845206E+02  0.13630879730E+03 -0.32913198542E+03  0.40586806970E+03  0.18800000000E+03 0.  0.
<mgrwt>
<rscale>  0 0.47578945E+03</rscale>
<asrwt>0</asrwt>
<pdfrwt beam="1">  1        2 0.11150977E+00 0.47578945E+03</pdfrwt>
<pdfrwt beam="2">  1       -2 0.10357635E-01 0.47578945E+03</pdfrwt>
<totfact> 0.25344991E+03</totfact>
</mgrwt>
</event>
<event>
 4    1  0.6034452E-005  0.5518354E+03  0.7818608E-02  0.1001070E+00
          2   -1    0    0  501    0  0.00000000000E+00  0.00000000000E+00  0.62532688358E+03  0.62532688358E+03  0.25500000000E-02 0.  1.
         -2   -1    0    0    0  501 -0.00000000000E+00 -0.00000000000E+00 -0.12174523892E+03  0.12174523895E+03  0.25500000000E-02 0. -1.
    5000001    1    1    2    0    0  0.62052269218E+02 -0.18812267865E+03  0.30502002293E+03  0.40941646367E+03  0.18800000000E+03 0.  0.
   -5000001    1    1    2    0    0 -0.62052269218E+02  0.18812267865E+03  0.19856162172E+03  0.33765565886E+03  0.18800000000E+03 0.  0.
<mgrwt>
<rscale>  0 0.55183538E+03</rscale>
<asrwt>0</asrwt>
<pdfrwt beam="1">  1        2 0.89332411E-01 0.55183538E+03</pdfrwt>
<pdfrwt beam="2">  1       -2 0.17392177E-01 0.55183538E+03</pdfrwt>
<totfact> 0.14048613E+03</totfact>
</mgrwt>
</event>
<event>
 4    1  0.6034452E-005  0.8599641E+03  0.7818608E-02  0.9477060E-01
         -2   -1    0    0    0  501 -0.00000000000E+00  0.00000000000E+00  0.42482569912E+03  0.42482569913E+03  0.25500000000E-02 0. -1.
          2   -1    0    0  501    0  0.00000000000E+00 -0.00000000000E+00 -0.43520101453E+03  0.43520101453E+03  0.25500000000E-02 0.  1.
    5000001    1    1    2    0    0 -0.19139108550E+03  0.33498705244E+03  0.21152489006E+02  0.42969559074E+03  0.18800000000E+03 0.  0.
   -5000001    1    1    2    0    0  0.19139108550E+03 -0.33498705244E+03 -0.31527804408E+02  0.43033112293E+03  0.18800000000E+03 0.  0.
<mgrwt>
<rscale>  0 0.85996413E+03</rscale>
<asrwt>0</asrwt>
<pdfrwt beam="1">  1        2 0.62171573E-01 0.85996413E+03</pdfrwt>
<pdfrwt beam="2">  1       -2 0.60689386E-01 0.85996413E+03</pdfrwt>
<totfact> 0.19983796E+02</totfact>
</mgrwt>
</event>
<event>
 4    1  0.6034452E-005  0.7184325E+03  0.7818608E-02  0.9686219E-01
          2   -1    0    0  501    0  0.00000000000E+00  0.00000000000E+00  0.16554838438E+04  0.16554838438E+04  0.25500000000E-02 0.  1.
         -2   -1    0    0    0  501 -0.00000000000E+00 -0.00000000000E+00 -0.77944768391E+02  0.77944768433E+02  0.25500000000E-02 0. -1.
    5000001    1    1    2    0    0  0.20609505779E+02  0.30500258876E+03  0.75131494777E+03  0.83262805720E+03  0.18800000000E+03 0.  0.
   -5000001    1    1    2    0    0 -0.20609505779E+02 -0.30500258876E+03  0.82622412766E+03  0.90080055507E+03  0.18800000000E+03 0.  0.
<mgrwt>
<rscale>  0 0.71843247E+03</rscale>
<asrwt>0</asrwt>
<pdfrwt beam="1">  1        2 0.23649770E+00 0.71843247E+03</pdfrwt>
<pdfrwt beam="2">  1       -2 0.11134967E-01 0.71843247E+03</pdfrwt>
<totfact> 0.70649061E+02</totfact>
</mgrwt>
</event>
<event>
 4    1  0.6034452E-005  0.5314350E+03  0.7818608E-02  0.1005885E+00
         -2   -1    0    0    0  501 -0.00000000000E+00  0.00000000000E+00  0.10920237468E+03  0.10920237471E+03  0.25500000000E-02 0. -1.
          2   -1    0    0  501    0  0.00000000000E+00 -0.00000000000E+00 -0.64655916473E+03  0.64655916473E+03  0.25500000000E-02 0.  1.
    5000001    1    1    2    0    0  0.13168592837E+03  0.84402999400E+02 -0.12091016924E+03  0.27281554037E+03  0.18800000000E+03 0.  0.
   -5000001    1    1    2    0    0 -0.13168592837E+03 -0.84402999400E+02 -0.41644662081E+03  0.48294599907E+03  0.18800000000E+03 0.  0.
<mgrwt>
<rscale>  0 0.53143502E+03</rscale>
<asrwt>0</asrwt>
<pdfrwt beam="1">  1        2 0.92365593E-01 0.53143502E+03</pdfrwt>
<pdfrwt beam="2">  1       -2 0.15600340E-01 0.53143502E+03</pdfrwt>
<totfact> 0.16238988E+03</totfact>
</mgrwt>
</event>
<event>
 4    1  0.6034452E-005  0.5917231E+03  0.7818608E-02  0.9922728E-01
         -2   -1    0    0    0  501 -0.00000000000E+00  0.00000000000E+00  0.54962430257E+03  0.54962430257E+03  0.25500000000E-02 0. -1.
          2   -1    0    0  501    0  0.00000000000E+00 -0.00000000000E+00 -0.15926161769E+03  0.15926161771E+03  0.25500000000E-02 0.  1.
    5000001    1    1    2    0    0  0.94293697697E+02 -0.16264694067E+03  0.39695870591E+02  0.26882167114E+03  0.18800000000E+03 0.  0.
   -5000001    1    1    2    0    0 -0.94293697697E+02  0.16264694067E+03  0.35066681428E+03  0.44006424914E+03  0.18800000000E+03 0.  0.
<mgrwt>
<rscale>  0 0.59172310E+03</rscale>
<asrwt>0</asrwt>
<pdfrwt beam="1">  1        2 0.22751659E-01 0.59172310E+03</pdfrwt>
<pdfrwt beam="2">  1       -2 0.78517759E-01 0.59172310E+03</pdfrwt>
<totfact> 0.35587063E+02</totfact>
</mgrwt>
</event>
<event>
 4    1  0.6034452E-005  0.4804917E+03  0.7818608E-02  0.1019000E+00
          2   -1    0    0  501    0  0.00000000000E+00  0.00000000000E+00  0.16982531100E+04  0.16982531100E+04  0.25500000000E-02 0.  1.
         -2   -1    0    0    0  501 -0.00000000000E+00 -0.00000000000E+00 -0.33986735709E+02  0.33986735804E+02  0.25500000000E-02 0. -1.
    5000001    1    1    2    0    0  0.92711737593E+02  0.10465255210E+03  0.10237983861E+04  0.10502641374E+04  0.18800000000E+03 0.  0.
   -5000001    1    1    2    0    0 -0.92711737593E+02 -0.10465255210E+03  0.64046798824E+03  0.68197570844E+03  0.18800000000E+03 0.  0.
<mgrwt>
<rscale>  0 0.48049175E+03</rscale>
<asrwt>0</asrwt>
<pdfrwt beam="1">  1        2 0.24260763E+00 0.48049175E+03</pdfrwt>
<pdfrwt beam="2">  1       -2 0.48552472E-02 0.48049175E+03</pdfrwt>
<totfact> 0.25321533E+03</totfact>
</mgrwt>
</event>
<event>
 4    1  0.6034452E-005  0.9669399E+03  0.7818608E-02  0.9345567E-01
         -2   -1    0    0    0  501 -0.00000000000E+00  0.00000000000E+00  0.32690358144E+03  0.32690358145E+03  0.25500000000E-02 0. -1.
          2   -1    0    0  501    0  0.00000000000E+00 -0.00000000000E+00 -0.71502175425E+03  0.71502175425E+03  0.25500000000E-02 0.  1.
    5000001    1    1    2    0    0 -0.15020584644E+03 -0.38233340889E+03 -0.84872681052E+01  0.45183699005E+03  0.18800000000E+03 0.  0.
   -5000001    1    1    2    0    0  0.15020584644E+03  0.38233340889E+03 -0.37963090471E+03  0.59008834565E+03  0.18800000000E+03 0.  0.
<mgrwt>
<rscale>  0 0.96693986E+03</rscale>
<asrwt>0</asrwt>
<pdfrwt beam="1">  1        2 0.10214596E+00 0.96693986E+03</pdfrwt>
<pdfrwt beam="2">  1       -2 0.46700512E-01 0.96693986E+03</pdfrwt>
<totfact> 0.19042790E+02</totfact>
</mgrwt>
</event>
<event>
 4    1  0.6034452E-005  0.5005467E+03  0.7818608E-02  0.1013636E+00
         -2   -1    0    0    0  501 -0.00000000000E+00  0.00000000000E+00  0.10113185721E+03  0.10113185725E+03  0.25500000000E-02 0. -1.
          2   -1    0    0  501    0  0.00000000000E+00 -0.00000000000E+00 -0.61935735731E+03  0.61935735732E+03  0.25500000000E-02 0.  1.
    5000001    1    1    2    0    0  0.78923208449E+02 -0.13103495312E+03 -0.34893122053E+03  0.42484824165E+03  0.18800000000E+03 0.  0.
   -5000001    1    1    2    0    0 -0.78923208449E+02  0.13103495312E+03 -0.16929427956E+03  0.29564097291E+03  0.18800000000E+03 0.  0.
<mgrwt>
<rscale>  0 0.50054674E+03</rscale>
<asrwt>0</asrwt>
<pdfrwt beam="1">  1        2 0.88479620E-01 0.50054674E+03</pdfrwt>
<pdfrwt beam="2">  1       -2 0.14447409E-01 0.50054674E+03</pdfrwt>
<totfact> 0.19435932E+03</totfact>
</mgrwt>
</event>
<event>
 4    1  0.6034452E-005  0.1273186E+04  0.7818608E-02  0.9051103E-01
         -2   -1    0    0    0  501 -0.00000000000E+00  0.00000000000E+00  0.91547512912E+03  0.91547512912E+03  0.25500000000E-02 0. -1.
          2   -1    0    0  501    0  0.00000000000E+00 -0.00000000000E+00 -0.44266698310E+03  0.44266698311E+03  0.25500000000E-02 0.  1.
    5000001    1    1    2    0    0  0.46832864752E+03 -0.22200013522E+03  0.57590303239E+03  0.79726036201E+03  0.18800000000E+03 0.  0.
   -5000001    1    1    2    0    0 -0.46832864752E+03  0.22200013522E+03 -0.10309488637E+03  0.56088175022E+03  0.18800000000E+03 0.  0.
<mgrwt>
<rscale>  0 0.12731859E+04</rscale>
<asrwt>0</asrwt>
<pdfrwt beam="1">  1        2 0.63238140E-01 0.12731859E+04</pdfrwt>
<pdfrwt beam="2">  1       -2 0.13078216E+00 0.12731859E+04</pdfrwt>
<totfact> 0.32427845E+01</totfact>
</mgrwt>
</event>
<event>
 4    1  0.6034452E-005  0.5150897E+03  0.7818608E-02  0.1009914E+00
         -2   -1    0    0    0  501 -0.00000000000E+00  0.00000000000E+00  0.59281254520E+02  0.59281254575E+02  0.25500000000E-02 0. -1.
          2   -1    0    0  501    0  0.00000000000E+00 -0.00000000000E+00 -0.11188923977E+04  0.11188923977E+04  0.25500000000E-02 0.  1.
    5000001    1    1    2    0    0 -0.15791668213E+03  0.98091260060E+00 -0.35194248540E+03  0.42912253927E+03  0.18800000000E+03 0.  0.
   -5000001    1    1    2    0    0  0.15791668213E+03 -0.98091260060E+00 -0.70766865774E+03  0.74905111296E+03  0.18800000000E+03 0.  0.
<mgrwt>
<rscale>  0 0.51508968E+03</rscale>
<asrwt>0</asrwt>
<pdfrwt beam="1">  1        2 0.15984176E+00 0.51508968E+03</pdfrwt>
<pdfrwt beam="2">  1       -2 0.84687513E-02 0.51508968E+03</pdfrwt>
<totfact> 0.21492073E+03</totfact>
</mgrwt>
</event>
<event>
 4    1  0.6034452E-005  0.8872132E+03  0.7818608E-02  0.9441708E-01
          2   -1    0    0  501    0  0.00000000000E+00  0.00000000000E+00  0.10840053099E+04  0.10840053099E+04  0.25500000000E-02 0.  1.
         -2   -1    0    0    0  501 -0.00000000000E+00 -0.00000000000E+00 -0.18153674372E+03  0.18153674374E+03  0.25500000000E-02 0. -1.
    5000001    1    1    2    0    0 -0.10105459561E+03 -0.15298046784E+03  0.96122370058E+03  0.99644872291E+03  0.18800000000E+03 0.  0.
   -5000001    1    1    2    0    0  0.10105459561E+03  0.15298046784E+03 -0.58755134381E+02  0.26909333075E+03  0.18800000000E+03 0.  0.
<mgrwt>
<rscale>  0 0.88721315E+03</rscale>
<asrwt>0</asrwt>
<pdfrwt beam="1">  1        2 0.15485789E+00 0.88721315E+03</pdfrwt>
<pdfrwt beam="2">  1       -2 0.25933822E-01 0.88721315E+03</pdfrwt>
<totfact> 0.33492891E+02</totfact>
</mgrwt>
</event>
<event>
 4    1  0.6034452E-005  0.1442885E+04  0.7818608E-02  0.8923348E-01
          2   -1    0    0  501    0  0.00000000000E+00  0.00000000000E+00  0.24398052104E+04  0.24398052104E+04  0.25500000000E-02 0.  1.
         -2   -1    0    0    0  501 -0.00000000000E+00 -0.00000000000E+00 -0.21332829532E+03  0.21332829533E+03  0.25500000000E-02 0. -1.
    5000001    1    1    2    0    0  0.27092430473E+03  0.57675867220E+03  0.59613886087E+03  0.89262314909E+03  0.18800000000E+03 0.  0.
   -5000001    1    1    2    0    0 -0.27092430473E+03 -0.57675867220E+03  0.16303380542E+04  0.17605103566E+04  0.18800000000E+03 0.  0.
<mgrwt>
<rscale>  0 0.14428853E+04</rscale>
<asrwt>0</asrwt>
<pdfrwt beam="1">  1        2 0.34854358E+00 0.14428853E+04</pdfrwt>
<pdfrwt beam="2">  1       -2 0.30475472E-01 0.14428853E+04</pdfrwt>
<totfact> 0.45943009E+01</totfact>
</mgrwt>
</event>
<event>
 4    1  0.6034452E-005  0.1068879E+04  0.7818608E-02  0.9236067E-01
          2   -1    0    0  501    0  0.00000000000E+00  0.00000000000E+00  0.19830826774E+04  0.19830826774E+04  0.25500000000E-02 0.  1.
         -2   -1    0    0    0  501 -0.00000000000E+00 -0.00000000000E+00 -0.14403112266E+03  0.14403112268E+03  0.25500000000E-02 0. -1.
    5000001    1    1    2    0    0  0.31388380832E+03 -0.15554478867E+03  0.16302921754E+04  0.16780684740E+04  0.18800000000E+03 0.  0.
   -5000001    1    1    2    0    0 -0.31388380832E+03  0.15554478867E+03  0.20875937943E+03  0.44904532612E+03  0.18800000000E+03 0.  0.
<mgrwt>
<rscale>  0 0.10688791E+04</rscale>
<asrwt>0</asrwt>
<pdfrwt beam="1">  1        2 0.28329753E+00 0.10688791E+04</pdfrwt>
<pdfrwt beam="2">  1       -2 0.20575875E-01 0.10688791E+04</pdfrwt>
<totfact> 0.16567710E+02</totfact>
</mgrwt>
</event>
<event>
 4    1  0.6034452E-005  0.5024072E+03  0.7818608E-02  0.1013153E+00
          2   -1    0    0  501    0  0.00000000000E+00  0.00000000000E+00  0.63757487658E+03  0.63757487658E+03  0.25500000000E-02 0.  1.
         -2   -1    0    0    0  501 -0.00000000000E+00 -0.00000000000E+00 -0.98973847684E+02  0.98973847717E+02  0.25500000000E-02 0. -1.
    5000001    1    1    2    0    0 -0.67114318753E+02 -0.85804286376E+02  0.84483393698E+02  0.23312689925E+03  0.18800000000E+03 0.  0.
   -5000001    1    1    2    0    0  0.67114318753E+02  0.85804286376E+02  0.45411763520E+03  0.50342182505E+03  0.18800000000E+03 0.  0.
<mgrwt>
<rscale>  0 0.50240716E+03</rscale>
<asrwt>0</asrwt>
<pdfrwt beam="1">  1        2 0.91082124E-01 0.50240716E+03</pdfrwt>
<pdfrwt beam="2">  1       -2 0.14139121E-01 0.50240716E+03</pdfrwt>
<totfact> 0.19469704E+03</totfact>
</mgrwt>
</event>
<event>
 4    1  0.6034452E-005  0.6944014E+03  0.7818608E-02  0.9726855E-01
         -2   -1    0    0    0  501 -0.00000000000E+00  0.00000000000E+00  0.63537245184E+02  0.63537245235E+02  0.25500000000E-02 0. -1.
          2   -1    0    0  501    0  0.00000000000E+00 -0.00000000000E+00 -0.18972861114E+04  0.18972861114E+04  0.25500000000E-02 0.  1.
    5000001    1    1    2    0    0 -0.12541239008E+03 -0.24407220018E+03 -0.63584532458E+03  0.71759513883E+03  0.18800000000E+03 0.  0.
   -5000001    1    1    2    0    0  0.12541239008E+03  0.24407220018E+03 -0.11979035416E+04  0.12432282178E+04  0.18800000000E+03 0.  0.
<mgrwt>
<rscale>  0 0.69440142E+03</rscale>
<asrwt>0</asrwt>
<pdfrwt beam="1">  1        2 0.27104084E+00 0.69440142E+03</pdfrwt>
<pdfrwt beam="2">  1       -2 0.90767506E-02 0.69440142E+03</pdfrwt>
<totfact> 0.74304644E+02</totfact>
</mgrwt>
</event>
<event>
 4    1  0.6034452E-005  0.4257066E+03  0.7818608E-02  0.1035225E+00
          2   -1    0    0  501    0  0.00000000000E+00  0.00000000000E+00  0.11348767419E+03  0.11348767422E+03  0.25500000000E-02 0.  1.
         -2   -1    0    0    0  501 -0.00000000000E+00 -0.00000000000E+00 -0.39921985017E+03  0.39921985018E+03  0.25500000000E-02 0. -1.
    5000001    1    1    2    0    0  0.44876705382E+02  0.71768376485E+02 -0.79160658953E+02  0.22085069272E+03  0.18800000000E+03 0.  0.
   -5000001    1    1    2    0    0 -0.44876705382E+02 -0.71768376485E+02 -0.20657151702E+03  0.29185683167E+03  0.18800000000E+03 0.  0.
<mgrwt>
<rscale>  0 0.42570662E+03</rscale>
<asrwt>0</asrwt>
<pdfrwt beam="1">  1        2 0.16212525E-01 0.42570662E+03</pdfrwt>
<pdfrwt beam="2">  1       -2 0.57031406E-01 0.42570662E+03</pdfrwt>
<totfact> 0.10521462E+03</totfact>
</mgrwt>
</event>
<event>
 4    1  0.6034452E-005  0.4890293E+03  0.7818608E-02  0.1016683E+00
          2   -1    0    0  501    0  0.00000000000E+00  0.00000000000E+00  0.52934658491E+03  0.52934658491E+03  0.25500000000E-02 0.  1.
         -2   -1    0    0    0  501 -0.00000000000E+00 -0.00000000000E+00 -0.11294570445E+03  0.11294570448E+03  0.25500000000E-02 0. -1.
    5000001    1    1    2    0    0  0.13665947966E+03 -0.31723194415E+01  0.30785943494E+03  0.38575550375E+03  0.18800000000E+03 0.  0.
   -5000001    1    1    2    0    0 -0.13665947966E+03  0.31723194415E+01  0.10854144551E+03  0.25653678564E+03  0.18800000000E+03 0.  0.
<mgrwt>
<rscale>  0 0.48902934E+03</rscale>
<asrwt>0</asrwt>
<pdfrwt beam="1">  1        2 0.75620940E-01 0.48902934E+03</pdfrwt>
<pdfrwt beam="2">  1       -2 0.16135101E-01 0.48902934E+03</pdfrwt>
<totfact> 0.19362324E+03</totfact>
</mgrwt>
</event>
<event>
 4    1  0.6034452E-005  0.7966035E+03  0.7818608E-02  0.9564946E-01
         -2   -1    0    0    0  501 -0.00000000000E+00  0.00000000000E+00  0.46094309998E+02  0.46094310069E+02  0.25500000000E-02 0. -1.
          2   -1    0    0  501    0  0.00000000000E+00 -0.00000000000E+00 -0.34417325790E+04  0.34417325790E+04  0.25500000000E-02 0.  1.
    5000001    1    1    2    0    0  0.80809326103E+01 -0.30916336272E+03 -0.24259070946E+04  0.24527569219E+04  0.18800000000E+03 0.  0.
   -5000001    1    1    2    0    0 -0.80809326103E+01  0.30916336272E+03 -0.96973117439E+03  0.10350699671E+04  0.18800000000E+03 0.  0.
<mgrwt>
<rscale>  0 0.79660351E+03</rscale>
<asrwt>0</asrwt>
<pdfrwt beam="1">  1        2 0.49167592E+00 0.79660351E+03</pdfrwt>
<pdfrwt beam="2">  1       -2 0.65849036E-02 0.79660351E+03</pdfrwt>
<totfact> 0.18502919E+02</totfact>
</mgrwt>
</event>
<event>
 4    1  0.6034452E-005  0.6389509E+03  0.7818608E-02  0.9827736E-01
          2   -1    0    0  501    0  0.00000000000E+00  0.00000000000E+00  0.16918821669E+03  0.16918821671E+03  0.25500000000E-02 0.  1.
         -2   -1    0    0    0  501 -0.00000000000E+00 -0.00000000000E+00 -0.60326040526E+03  0.60326040526E+03  0.25500000000E-02 0. -1.
    5000001    1    1    2    0    0 -0.40877389371E+02  0.25494436455E+03 -0.22583411818E+03  0.39116829998E+03  0.18800000000E+03 0.  0.
   -5000001    1    1    2    0    0  0.40877389371E+02 -0.25494436455E+03 -0.20823807039E+03  0.38128032199E+03  0.18800000000E+03 0.  0.
<mgrwt>
<rscale>  0 0.63895087E+03</rscale>
<asrwt>0</asrwt>
<pdfrwt beam="1">  1        2 0.24169746E-01 0.63895087E+03</pdfrwt>
<pdfrwt beam="2">  1       -2 0.86180057E-01 0.63895087E+03</pdfrwt>
<totfact> 0.26882256E+02</totfact>
</mgrwt>
</event>
<event>
 4    1  0.6034452E-005  0.6970360E+03  0.7818608E-02  0.9722314E-01
          2   -1    0    0  501    0  0.00000000000E+00  0.00000000000E+00  0.13496734324E+03  0.13496734327E+03  0.25500000000E-02 0.  1.
         -2   -1    0    0    0  501 -0.00000000000E+00 -0.00000000000E+00 -0.89995702696E+03  0.89995702697E+03  0.25500000000E-02 0. -1.
    5000001    1    1    2    0    0  0.20920723379E+03  0.32521554789E+02 -0.80774425536E+02  0.29443815313E+03  0.18800000000E+03 0.  0.
   -5000001    1    1    2    0    0 -0.20920723379E+03 -0.32521554789E+02 -0.68421525819E+03  0.74048621711E+03  0.18800000000E+03 0.  0.
<mgrwt>
<rscale>  0 0.69703604E+03</rscale>
<asrwt>0</asrwt>
<pdfrwt beam="1">  1        2 0.19281050E-01 0.69703604E+03</pdfrwt>
<pdfrwt beam="2">  1       -2 0.12856529E+00 0.69703604E+03</pdfrwt>
<totfact> 0.13405838E+02</totfact>
</mgrwt>
</event>
<event>
 4    1  0.6034452E-005  0.9658132E+03  0.7818608E-02  0.9346856E-01
          2   -1    0    0  501    0  0.00000000000E+00  0.00000000000E+00  0.27089544802E+04  0.27089544802E+04  0.25500000000E-02 0.  1.
         -2   -1    0    0    0  501 -0.00000000000E+00 -0.00000000000E+00 -0.86084420578E+02  0.86084420616E+02  0.25500000000E-02 0. -1.
    5000001    1    1    2    0    0  0.34162771164E+03  0.28319039828E+03  0.12223080415E+04  0.13138825075E+04  0.18800000000E+03 0.  0.
   -5000001    1    1    2    0    0 -0.34162771164E+03 -0.28319039828E+03  0.14005620181E+04  0.14811563933E+04  0.18800000000E+03 0.  0.
<mgrwt>
<rscale>  0 0.96581318E+03</rscale>
<asrwt>0</asrwt>
<pdfrwt beam="1">  1        2 0.38699353E+00 0.96581318E+03</pdfrwt>
<pdfrwt beam="2">  1       -2 0.12297773E-01 0.96581318E+03</pdfrwt>
<totfact> 0.16961120E+02</totfact>
</mgrwt>
</event>
<event>
 4    1  0.6034452E-005  0.6020813E+03  0.7818608E-02  0.9901097E-01
          2   -1    0    0  501    0  0.00000000000E+00  0.00000000000E+00  0.12840654461E+04  0.12840654461E+04  0.25500000000E-02 0.  1.
         -2   -1    0    0    0  501 -0.00000000000E+00 -0.00000000000E+00 -0.70576992232E+02  0.70576992278E+02  0.25500000000E-02 0. -1.
    5000001    1    1    2    0    0  0.19483518344E+03 -0.12808517134E+03  0.53868916532E+03  0.61635750718E+03  0.18800000000E+03 0.  0.
   -5000001    1    1    2    0    0 -0.19483518344E+03  0.12808517134E+03  0.67479928859E+03  0.73828493124E+03  0.18800000000E+03 0.  0.
<mgrwt>
<rscale>  0 0.60208131E+03</rscale>
<asrwt>0</asrwt>
<pdfrwt beam="1">  1        2 0.18343790E+00 0.60208131E+03</pdfrwt>
<pdfrwt beam="2">  1       -2 0.10082429E-01 0.60208131E+03</pdfrwt>
<totfact> 0.13102411E+03</totfact>
</mgrwt>
</event>
<event>
 4    1  0.6034452E-005  0.9631832E+03  0.7818608E-02  0.9349873E-01
          2   -1    0    0  501    0  0.00000000000E+00  0.00000000000E+00  0.95343699191E+03  0.95343699192E+03  0.25500000000E-02 0.  1.
         -2   -1    0    0    0  501 -0.00000000000E+00 -0.00000000000E+00 -0.24325725032E+03  0.24325725033E+03  0.25500000000E-02 0. -1.
    5000001    1    1    2    0    0 -0.15188368785E+03  0.40552858937E+03  0.47337853096E+03  0.66854567907E+03  0.18800000000E+03 0.  0.
   -5000001    1    1    2    0    0  0.15188368785E+03 -0.40552858937E+03  0.23680121064E+03  0.52814856318E+03  0.18800000000E+03 0.  0.
<mgrwt>
<rscale>  0 0.96318318E+03</rscale>
<asrwt>0</asrwt>
<pdfrwt beam="1">  1        2 0.13620529E+00 0.96318318E+03</pdfrwt>
<pdfrwt beam="2">  1       -2 0.34751035E-01 0.96318318E+03</pdfrwt>
<totfact> 0.23275767E+02</totfact>
</mgrwt>
</event>
<event>
 4    1  0.6034452E-005  0.7671019E+03  0.7818608E-02  0.9608896E-01
          2   -1    0    0  501    0  0.00000000000E+00  0.00000000000E+00  0.25528089501E+04  0.25528089501E+04  0.25500000000E-02 0.  1.
         -2   -1    0    0    0  501 -0.00000000000E+00 -0.00000000000E+00 -0.57627245713E+02  0.57627245769E+02  0.25500000000E-02 0. -1.
    5000001    1    1    2    0    0  0.86703753991E+02  0.29064753737E+03  0.76906516989E+03  0.84782000889E+03  0.18800000000E+03 0.  0.
   -5000001    1    1    2    0    0 -0.86703753991E+02 -0.29064753737E+03  0.17261165345E+04  0.17626161870E+04  0.18800000000E+03 0.  0.
<mgrwt>
<rscale>  0 0.76710195E+03</rscale>
<asrwt>0</asrwt>
<pdfrwt beam="1">  1        2 0.36468704E+00 0.76710195E+03</pdfrwt>
<pdfrwt beam="2">  1       -2 0.82324626E-02 0.76710195E+03</pdfrwt>
<totfact> 0.40111798E+02</totfact>
</mgrwt>
</event>
<event>
 4    1  0.6034452E-005  0.4731137E+03  0.7818608E-02  0.1021045E+00
         -2   -1    0    0    0  501 -0.00000000000E+00  0.00000000000E+00  0.20845574939E+02  0.20845575095E+02  0.25500000000E-02 0. -1.
          2   -1    0    0  501    0  0.00000000000E+00 -0.00000000000E+00 -0.26844618140E+04  0.26844618140E+04  0.25500000000E-02 0.  1.
    5000001    1    1    2    0    0 -0.11602242067E+03  0.60735076164E+02 -0.99520733015E+03  0.10212402174E+04  0.18800000000E+03 0.  0.
   -5000001    1    1    2    0    0  0.11602242067E+03 -0.60735076164E+02 -0.16684089089E+04  0.16840671717E+04  0.18800000000E+03 0.  0.
<mgrwt>
<rscale>  0 0.47311373E+03</rscale>
<asrwt>0</asrwt>
<pdfrwt beam="1">  1        2 0.38349433E+00 0.47311373E+03</pdfrwt>
<pdfrwt beam="2">  1       -2 0.29779410E-02 0.47311373E+03</pdfrwt>
<totfact> 0.17018047E+03</totfact>
</mgrwt>
</event>
<event>
 4    1  0.6034452E-005  0.7062338E+03  0.7818608E-02  0.9706631E-01
         -2   -1    0    0    0  501 -0.00000000000E+00  0.00000000000E+00  0.66178767010E+03  0.66178767010E+03  0.25500000000E-02 0. -1.
          2   -1    0    0  501    0  0.00000000000E+00 -0.00000000000E+00 -0.18841623388E+03  0.18841623390E+03  0.25500000000E-02 0.  1.
    5000001    1    1    2    0    0  0.56869755068E+01 -0.29443570059E+03  0.17503209598E+03  0.39077481763E+03  0.18800000000E+03 0.  0.
   -5000001    1    1    2    0    0 -0.56869755068E+01  0.29443570059E+03  0.29833934024E+03  0.45942908637E+03  0.18800000000E+03 0.  0.
<mgrwt>
<rscale>  0 0.70623379E+03</rscale>
<asrwt>0</asrwt>
<pdfrwt beam="1">  1        2 0.26916605E-01 0.70623379E+03</pdfrwt>
<pdfrwt beam="2">  1       -2 0.94541095E-01 0.70623379E+03</pdfrwt>
<totfact> 0.19164361E+02</totfact>
</mgrwt>
</event>
<event>
 4    1  0.6034452E-005  0.5081948E+03  0.7818608E-02  0.1011662E+00
          2   -1    0    0  501    0  0.00000000000E+00  0.00000000000E+00  0.11551169983E+04  0.11551169983E+04  0.25500000000E-02 0.  1.
         -2   -1    0    0    0  501 -0.00000000000E+00 -0.00000000000E+00 -0.55895190086E+02  0.55895190144E+02  0.25500000000E-02 0. -1.
    5000001    1    1    2    0    0  0.12866690976E+03  0.11215044237E+03  0.57203979583E+03  0.62586454078E+03  0.18800000000E+03 0.  0.
   -5000001    1    1    2    0    0 -0.12866690976E+03 -0.11215044237E+03  0.52718201241E+03  0.58514764769E+03  0.18800000000E+03 0.  0.
<mgrwt>
<rscale>  0 0.50819478E+03</rscale>
<asrwt>0</asrwt>
<pdfrwt beam="1">  1        2 0.16501672E+00 0.50819478E+03</pdfrwt>
<pdfrwt beam="2">  1       -2 0.79850271E-02 0.50819478E+03</pdfrwt>
<totfact> 0.22506397E+03</totfact>
</mgrwt>
</event>
<event>
 4    1  0.6034452E-005  0.1229411E+04  0.7818608E-02  0.9087496E-01
         -2   -1    0    0    0  501 -0.00000000000E+00  0.00000000000E+00  0.34777181232E+03  0.34777181233E+03  0.25500000000E-02 0. -1.
          2   -1    0    0  501    0  0.00000000000E+00 -0.00000000000E+00 -0.10865253866E+04  0.10865253866E+04  0.25500000000E-02 0.  1.
    5000001    1    1    2    0    0 -0.54681783290E+03  0.11955634522E+03 -0.56878739071E+03  0.81985764489E+03  0.18800000000E+03 0.  0.
   -5000001    1    1    2    0    0  0.54681783290E+03 -0.11955634522E+03 -0.16996618362E+03  0.61443955409E+03  0.18800000000E+03 0.  0.
<mgrwt>
<rscale>  0 0.12294111E+04</rscale>
<asrwt>0</asrwt>
<pdfrwt beam="1">  1        2 0.15521791E+00 0.12294111E+04</pdfrwt>
<pdfrwt beam="2">  1       -2 0.49681688E-01 0.12294111E+04</pdfrwt>
<totfact> 0.93976584E+01</totfact>
</mgrwt>
</event>
<event>
 4    1  0.6034452E-005  0.1323037E+04  0.7818608E-02  0.9011493E-01
         -2   -1    0    0    0  501 -0.00000000000E+00  0.00000000000E+00  0.46221335345E+03  0.46221335345E+03  0.25500000000E-02 0. -1.
          2   -1    0    0  501    0  0.00000000000E+00 -0.00000000000E+00 -0.94676403813E+03  0.94676403813E+03  0.25500000000E-02 0.  1.
    5000001    1    1    2    0    0  0.25787006291E+03  0.46110193300E+03 -0.61599927736E+03  0.83301324819E+03  0.18800000000E+03 0.  0.
   -5000001    1    1    2    0    0 -0.25787006291E+03 -0.46110193300E+03  0.13144859267E+03  0.57596414340E+03  0.18800000000E+03 0.  0.
<mgrwt>
<rscale>  0 0.13230374E+04</rscale>
<asrwt>0</asrwt>
<pdfrwt beam="1">  1        2 0.13525200E+00 0.13230374E+04</pdfrwt>
<pdfrwt beam="2">  1       -2 0.66030480E-01 0.13230374E+04</pdfrwt>
<totfact> 0.62723710E+01</totfact>
</mgrwt>
</event>
<event>
 4    1  0.6034452E-005  0.1140911E+04  0.7818608E-02  0.9166210E-01
         -2   -1    0    0    0  501 -0.00000000000E+00  0.00000000000E+00  0.12946317896E+04  0.12946317896E+04  0.25500000000E-02 0. -1.
          2   -1    0    0  501    0  0.00000000000E+00 -0.00000000000E+00 -0.25136054186E+03  0.25136054187E+03  0.25500000000E-02 0.  1.
    5000001    1    1    2    0    0  0.35488945096E+03 -0.14191840795E+03  0.74513488175E+01  0.42601276919E+03  0.18800000000E+03 0.  0.
   -5000001    1    1    2    0    0 -0.35488945096E+03  0.14191840795E+03  0.10358198989E+04  0.11199795623E+04  0.18800000000E+03 0.  0.
<mgrwt>
<rscale>  0 0.11409108E+04</rscale>
<asrwt>0</asrwt>
<pdfrwt beam="1">  1        2 0.35908648E-01 0.11409108E+04</pdfrwt>
<pdfrwt beam="2">  1       -2 0.18494740E+00 0.11409108E+04</pdfrwt>
<totfact> 0.24147171E+01</totfact>
</mgrwt>
</event>
<event>
 4    1  0.6034452E-005  0.4526394E+03  0.7818608E-02  0.1026938E+00
         -2   -1    0    0    0  501 -0.00000000000E+00  0.00000000000E+00  0.29177543922E+03  0.29177543924E+03  0.25500000000E-02 0.  1.
          2   -1    0    0  501    0  0.00000000000E+00 -0.00000000000E+00 -0.17554807828E+03  0.17554807829E+03  0.25500000000E-02 0. -1.
    5000001    1    1    2    0    0 -0.12147708960E+03  0.32665532292E+02  0.65622682265E+02  0.23552931182E+03  0.18800000000E+03 0.  0.
   -5000001    1    1    2    0    0  0.12147708960E+03 -0.32665532292E+02  0.50604678684E+02  0.23179420571E+03  0.18800000000E+03 0.  0.
<mgrwt>
<rscale>  0 0.45263945E+03</rscale>
<asrwt>0</asrwt>
<pdfrwt beam="1">  1        2 0.25078297E-01 0.45263945E+03</pdfrwt>
<pdfrwt beam="2">  1       -2 0.41682205E-01 0.45263945E+03</pdfrwt>
<totfact> 0.11893317E+03</totfact>
</mgrwt>
</event>
<event>
 4    1  0.6034452E-005  0.6894459E+03  0.7818608E-02  0.9735453E-01
          2   -1    0    0  501    0  0.00000000000E+00  0.00000000000E+00  0.76774592123E+03  0.76774592124E+03  0.25500000000E-02 0.  1.
         -2   -1    0    0    0  501 -0.00000000000E+00 -0.00000000000E+00 -0.15478284461E+03  0.15478284463E+03  0.25500000000E-02 0. -1.
    5000001    1    1    2    0    0  0.23142980305E+03  0.90602488491E+02  0.50368883827E+03  0.59229638734E+03  0.18800000000E+03 0.  0.
   -5000001    1    1    2    0    0 -0.23142980305E+03 -0.90602488491E+02  0.10927423835E+03  0.33023237852E+03  0.18800000000E+03 0.  0.
<mgrwt>
<rscale>  0 0.68944586E+03</rscale>
<asrwt>0</asrwt>
<pdfrwt beam="1">  1        2 0.10967799E+00 0.68944586E+03</pdfrwt>
<pdfrwt beam="2">  1       -2 0.22111835E-01 0.68944586E+03</pdfrwt>
<totfact> 0.71850159E+02</totfact>
</mgrwt>
</event>
<event>
 4    1  0.6034452E-005  0.4573509E+03  0.7818608E-02  0.1025552E+00
          2   -1    0    0  501    0  0.00000000000E+00  0.00000000000E+00  0.60156366348E+03  0.60156366349E+03  0.25500000000E-02 0.  1.
         -2   -1    0    0    0  501 -0.00000000000E+00 -0.00000000000E+00 -0.86927545314E+02  0.86927545351E+02  0.25500000000E-02 0. -1.
    5000001    1    1    2    0    0 -0.10235114529E+03 -0.48361733034E+02  0.16052913797E+03  0.27189744078E+03  0.18800000000E+03 0.  0.
   -5000001    1    1    2    0    0  0.10235114529E+03  0.48361733034E+02  0.35410698019E+03  0.41659376806E+03  0.18800000000E+03 0.  0.
<mgrwt>
<rscale>  0 0.45735086E+03</rscale>
<asrwt>0</asrwt>
<pdfrwt beam="1">  1        2 0.85937667E-01 0.45735086E+03</pdfrwt>
<pdfrwt beam="2">  1       -2 0.12418221E-01 0.45735086E+03</pdfrwt>
<totfact> 0.25822600E+03</totfact>
</mgrwt>
</event>
<event>
 4    1  0.6034452E-005  0.5046345E+03  0.7818608E-02  0.1012576E+00
         -2   -1    0    0    0  501 -0.00000000000E+00  0.00000000000E+00  0.68939886916E+02  0.68939886963E+02  0.25500000000E-02 0. -1.
          2   -1    0    0  501    0  0.00000000000E+00 -0.00000000000E+00 -0.92347101137E+03  0.92347101137E+03  0.25500000000E-02 0.  1.
    5000001    1    1    2    0    0 -0.10201988678E+02 -0.16513306409E+03 -0.36674757353E+03  0.44409547636E+03  0.18800000000E+03 0.  0.
   -5000001    1    1    2    0    0  0.10201988678E+02  0.16513306409E+03 -0.48778355092E+03  0.54831542198E+03  0.18800000000E+03 0.  0.
<mgrwt>
<rscale>  0 0.50463447E+03</rscale>
<asrwt>0</asrwt>
<pdfrwt beam="1">  1        2 0.13192442E+00 0.50463447E+03</pdfrwt>
<pdfrwt beam="2">  1       -2 0.98485558E-02 0.50463447E+03</pdfrwt>
<totfact> 0.22107809E+03</totfact>
</mgrwt>
</event>
<event>
 4    1  0.6034452E-005  0.6058398E+03  0.7818608E-02  0.9893364E-01
          2   -1    0    0  501    0  0.00000000000E+00  0.00000000000E+00  0.17248808967E+04  0.17248808967E+04  0.25500000000E-02 0.  1.
         -2   -1    0    0    0  501 -0.00000000000E+00 -0.00000000000E+00 -0.53198153998E+02  0.53198154059E+02  0.25500000000E-02 0. -1.
    5000001    1    1    2    0    0 -0.89539222423E+02 -0.20363422827E+03  0.59148021702E+03  0.65930040073E+03  0.18800000000E+03 0.  0.
   -5000001    1    1    2    0    0  0.89539222423E+02  0.20363422827E+03  0.10802025257E+04  0.11187786500E+04  0.18800000000E+03 0.  0.
<mgrwt>
<rscale>  0 0.60583985E+03</rscale>
<asrwt>0</asrwt>
<pdfrwt beam="1">  1        2 0.24641156E+00 0.60583985E+03</pdfrwt>
<pdfrwt beam="2">  1       -2 0.75997362E-02 0.60583985E+03</pdfrwt>
<totfact> 0.12126901E+03</totfact>
</mgrwt>
</event>
<event>
 4    1  0.6034452E-005  0.7298026E+03  0.7818608E-02  0.9667581E-01
          2   -1    0    0  501    0  0.00000000000E+00  0.00000000000E+00  0.13187418552E+04  0.13187418552E+04  0.25500000000E-02 0.  1.
         -2   -1    0    0    0  501 -0.00000000000E+00 -0.00000000000E+00 -0.10096970071E+03  0.10096970075E+03  0.25500000000E-02 0. -1.
    5000001    1    1    2    0    0 -0.28264826471E+03  0.13302122492E+03  0.57975258635E+03  0.68486622723E+03  0.18800000000E+03 0.  0.
   -5000001    1    1    2    0    0  0.28264826471E+03 -0.13302122492E+03  0.63801956816E+03  0.73484532874E+03  0.18800000000E+03 0.  0.
<mgrwt>
<rscale>  0 0.72980263E+03</rscale>
<asrwt>0</asrwt>
<pdfrwt beam="1">  1        2 0.18839170E+00 0.72980263E+03</pdfrwt>
<pdfrwt beam="2">  1       -2 0.14424242E-01 0.72980263E+03</pdfrwt>
<totfact> 0.69121071E+02</totfact>
</mgrwt>
</event>
<event>
 4    1  0.6034452E-005  0.5838511E+03  0.7818608E-02  0.9939488E-01
         -2   -1    0    0    0  501 -0.00000000000E+00  0.00000000000E+00  0.18176996103E+03  0.18176996105E+03  0.25500000000E-02 0. -1.
          2   -1    0    0  501    0  0.00000000000E+00 -0.00000000000E+00 -0.46883721597E+03  0.46883721598E+03  0.25500000000E-02 0.  1.
    5000001    1    1    2    0    0  0.22241511167E+03 -0.20195997012E+02 -0.14308471054E+03  0.32510551300E+03  0.18800000000E+03 0.  0.
   -5000001    1    1    2    0    0 -0.22241511167E+03  0.20195997012E+02 -0.14398254441E+03  0.32550166403E+03  0.18800000000E+03 0.  0.
<mgrwt>
<rscale>  0 0.58385109E+03</rscale>
<asrwt>0</asrwt>
<pdfrwt beam="1">  1        2 0.66976745E-01 0.58385109E+03</pdfrwt>
<pdfrwt beam="2">  1       -2 0.25967137E-01 0.58385109E+03</pdfrwt>
<totfact> 0.96896666E+02</totfact>
</mgrwt>
</event>
<event>
 4    1  0.6034452E-005  0.4383504E+03  0.7818608E-02  0.1031254E+00
          2   -1    0    0  501    0  0.00000000000E+00  0.00000000000E+00  0.35060581999E+04  0.35060581999E+04  0.25500000000E-02 0.  1.
         -2   -1    0    0    0  501 -0.00000000000E+00 -0.00000000000E+00 -0.13701361500E+02  0.13701361738E+02  0.25500000000E-02 0. -1.
    5000001    1    1    2    0    0 -0.29983906641E+02  0.10788206136E+03  0.16458258426E+04  0.16603084888E+04  0.18800000000E+03 0.  0.
   -5000001    1    1    2    0    0  0.29983906641E+02 -0.10788206136E+03  0.18465309958E+04  0.18594510728E+04  0.18800000000E+03 0.  0.
<mgrwt>
<rscale>  0 0.43835041E+03</rscale>
<asrwt>0</asrwt>
<pdfrwt beam="1">  1        2 0.50086580E+00 0.43835041E+03</pdfrwt>
<pdfrwt beam="2">  1       -2 0.19573360E-02 0.43835041E+03</pdfrwt>
<totfact> 0.11335034E+03</totfact>
</mgrwt>
</event>
<event>
 4    1  0.6034452E-005  0.4730506E+03  0.7818608E-02  0.1021063E+00
          2   -1    0    0  501    0  0.00000000000E+00  0.00000000000E+00  0.35266973015E+03  0.35266973016E+03  0.25500000000E-02 0.  1.
         -2   -1    0    0    0  501 -0.00000000000E+00 -0.00000000000E+00 -0.15863060464E+03  0.15863060466E+03  0.25500000000E-02 0. -1.
    5000001    1    1    2    0    0 -0.97886006682E+02  0.62489928388E+02  0.18818111809E+03  0.29024609327E+03  0.18800000000E+03 0.  0.
   -5000001    1    1    2    0    0  0.97886006682E+02 -0.62489928388E+02  0.58580074206E+01  0.22105424154E+03  0.18800000000E+03 0.  0.
<mgrwt>
<rscale>  0 0.47305058E+03</rscale>
<asrwt>0</asrwt>
<pdfrwt beam="1">  1        2 0.50381389E-01 0.47305058E+03</pdfrwt>
<pdfrwt beam="2">  1       -2 0.22661515E-01 0.47305058E+03</pdfrwt>
<totfact> 0.16939875E+03</totfact>
</mgrwt>
</event>
<event>
 4    1  0.6034452E-005  0.1091965E+04  0.7818608E-02  0.9213059E-01
          2   -1    0    0  501    0  0.00000000000E+00  0.00000000000E+00  0.76589850845E+03  0.76589850846E+03  0.25500000000E-02 0.  1.
         -2   -1    0    0    0  501 -0.00000000000E+00 -0.00000000000E+00 -0.38921200698E+03  0.38921200698E+03  0.25500000000E-02 0. -1.
    5000001    1    1    2    0    0  0.10920005109E+03  0.45894422061E+03 -0.23746387733E+02  0.50839191547E+03  0.18800000000E+03 0.  0.
   -5000001    1    1    2    0    0 -0.10920005109E+03 -0.45894422061E+03  0.40043288921E+03  0.64671859997E+03  0.18800000000E+03 0.  0.
<mgrwt>
<rscale>  0 0.10919650E+04</rscale>
<asrwt>0</asrwt>
<pdfrwt beam="1">  1        2 0.10941407E+00 0.10919650E+04</pdfrwt>
<pdfrwt beam="2">  1       -2 0.55601716E-01 0.10919650E+04</pdfrwt>
<totfact> 0.12139865E+02</totfact>
</mgrwt>
</event>
<event>
 4    1  0.6034452E-005  0.6875193E+03  0.7818608E-02  0.9738817E-01
         -2   -1    0    0    0  501 -0.00000000000E+00  0.00000000000E+00  0.15028600206E+03  0.15028600208E+03  0.25500000000E-02 0. -1.
          2   -1    0    0  501    0  0.00000000000E+00 -0.00000000000E+00 -0.78630531334E+03  0.78630531334E+03  0.25500000000E-02 0.  1.
    5000001    1    1    2    0    0  0.22337230000E+03  0.13299869198E+03 -0.14982038649E+03  0.35408188980E+03  0.18800000000E+03 0.  0.
   -5000001    1    1    2    0    0 -0.22337230000E+03 -0.13299869198E+03 -0.48619892479E+03  0.58250942563E+03  0.18800000000E+03 0.  0.
<mgrwt>
<rscale>  0 0.68751926E+03</rscale>
<asrwt>0</asrwt>
<pdfrwt beam="1">  1        2 0.11232933E+00 0.68751926E+03</pdfrwt>
<pdfrwt beam="2">  1       -2 0.21469429E-01 0.68751926E+03</pdfrwt>
<totfact> 0.73431538E+02</totfact>
</mgrwt>
</event>
<event>
 4    1  0.6034452E-005  0.5433119E+03  0.7818608E-02  0.1003054E+00
          2   -1    0    0  501    0  0.00000000000E+00  0.00000000000E+00  0.32691314067E+04  0.32691314067E+04  0.25500000000E-02 0.  1.
         -2   -1    0    0    0  501 -0.00000000000E+00 -0.00000000000E+00 -0.22573872123E+02  0.22573872267E+02  0.25500000000E-02 0. -1.
    5000001    1    1    2    0    0  0.58525015801E+02 -0.18555092345E+03  0.14750434605E+04  0.14996504703E+04  0.18800000000E+03 0.  0.
   -5000001    1    1    2    0    0 -0.58525015801E+02  0.18555092345E+03  0.17715140741E+04  0.17920548087E+04  0.18800000000E+03 0.  0.
<mgrwt>
<rscale>  0 0.54331190E+03</rscale>
<asrwt>0</asrwt>
<pdfrwt beam="1">  1        2 0.46701926E+00 0.54331190E+03</pdfrwt>
<pdfrwt beam="2">  1       -2 0.32248355E-02 0.54331190E+03</pdfrwt>
<totfact> 0.72399500E+02</totfact>
</mgrwt>
</event>
<event>
 4    1  0.6034452E-005  0.7778394E+03  0.7818608E-02  0.9592659E-01
          2   -1    0    0  501    0  0.00000000000E+00  0.00000000000E+00  0.17636004743E+04  0.17636004743E+04  0.25500000000E-02 0.  1.
         -2   -1    0    0    0  501 -0.00000000000E+00 -0.00000000000E+00 -0.85766900948E+02  0.85766900986E+02  0.25500000000E-02 0. -1.
    5000001    1    1    2    0    0  0.16823590589E+03  0.18307149504E+03  0.28592837430E+03  0.42298643898E+03  0.18800000000E+03 0.  0.
   -5000001    1    1    2    0    0 -0.16823590589E+03 -0.18307149504E+03  0.13919051990E+04  0.14263809363E+04  0.18800000000E+03 0.  0.
<mgrwt>
<rscale>  0 0.77783944E+03</rscale>
<asrwt>0</asrwt>
<pdfrwt beam="1">  1        2 0.25194290E+00 0.77783944E+03</pdfrwt>
<pdfrwt beam="2">  1       -2 0.12252416E-01 0.77783944E+03</pdfrwt>
<totfact> 0.52946875E+02</totfact>
</mgrwt>
</event>
<event>
 4    1  0.6034452E-005  0.1017293E+04  0.7818608E-02  0.9289778E-01
         -2   -1    0    0    0  501 -0.00000000000E+00  0.00000000000E+00  0.14651571064E+03  0.14651571066E+03  0.25500000000E-02 0. -1.
          2   -1    0    0  501    0  0.00000000000E+00 -0.00000000000E+00 -0.17658277039E+04  0.17658277039E+04  0.25500000000E-02 0.  1.
    5000001    1    1    2    0    0  0.22044303610E+03  0.39430309919E+03 -0.54845073825E+03  0.73499134586E+03  0.18800000000E+03 0.  0.
   -5000001    1    1    2    0    0 -0.22044303610E+03 -0.39430309919E+03 -0.10708612550E+04  0.11773520687E+04  0.18800000000E+03 0.  0.
<mgrwt>
<rscale>  0 0.10172935E+04</rscale>
<asrwt>0</asrwt>
<pdfrwt beam="1">  1        2 0.25226109E+00 0.10172935E+04</pdfrwt>
<pdfrwt beam="2">  1       -2 0.20930817E-01 0.10172935E+04</pdfrwt>
<totfact> 0.20842723E+02</totfact>
</mgrwt>
</event>
<event>
 4    1  0.6034452E-005  0.6015845E+03  0.7818608E-02  0.9902124E-01
         -2   -1    0    0    0  501 -0.00000000000E+00  0.00000000000E+00  0.23472117525E+03  0.23472117526E+03  0.25500000000E-02 0. -1.
          2   -1    0    0  501    0  0.00000000000E+00 -0.00000000000E+00 -0.38546156313E+03  0.38546156314E+03  0.25500000000E-02 0.  1.
    5000001    1    1    2    0    0  0.13698110099E+03  0.17228974295E+03  0.89156539308E+01  0.28960501798E+03  0.18800000000E+03 0.  0.
   -5000001    1    1    2    0    0 -0.13698110099E+03 -0.17228974295E+03 -0.15965604181E+03  0.33057772042E+03  0.18800000000E+03 0.  0.
<mgrwt>
<rscale>  0 0.60158454E+03</rscale>
<asrwt>0</asrwt>
<pdfrwt beam="1">  1        2 0.55065937E-01 0.60158454E+03</pdfrwt>
<pdfrwt beam="2">  1       -2 0.33531597E-01 0.60158454E+03</pdfrwt>
<totfact> 0.75276122E+02</totfact>
</mgrwt>
</event>
<event>
 4    1  0.6034452E-005  0.5104952E+03  0.7818608E-02  0.1011075E+00
         -2   -1    0    0    0  501 -0.00000000000E+00  0.00000000000E+00  0.15019790491E+03  0.15019790493E+03  0.25500000000E-02 0. -1.
          2   -1    0    0  501    0  0.00000000000E+00 -0.00000000000E+00 -0.43376998288E+03  0.43376998288E+03  0.25500000000E-02 0.  1.
    5000001    1    1    2    0    0 -0.60846327751E+02 -0.75975533398E+02 -0.30490172371E+03  0.37119215832E+03  0.18800000000E+03 0.  0.
   -5000001    1    1    2    0    0  0.60846327751E+02  0.75975533398E+02  0.21329645745E+02  0.21277572950E+03  0.18800000000E+03 0.  0.
<mgrwt>
<rscale>  0 0.51049522E+03</rscale>
<asrwt>0</asrwt>
<pdfrwt beam="1">  1        2 0.61967140E-01 0.51049522E+03</pdfrwt>
<pdfrwt beam="2">  1       -2 0.21456844E-01 0.51049522E+03</pdfrwt>
<totfact> 0.14842080E+03</totfact>
</mgrwt>
</event>
<event>
 4    1  0.6034452E-005  0.7246434E+03  0.7818608E-02  0.9675993E-01
          2   -1    0    0  501    0  0.00000000000E+00  0.00000000000E+00  0.24430867707E+03  0.24430867709E+03  0.25500000000E-02 0.  1.
         -2   -1    0    0    0  501 -0.00000000000E+00 -0.00000000000E+00 -0.53734084600E+03  0.53734084601E+03  0.25500000000E-02 0. -1.
    5000001    1    1    2    0    0 -0.11173128048E+03 -0.20990690240E+03  0.67561408843E+02  0.31056936532E+03  0.18800000000E+03 0.  0.
   -5000001    1    1    2    0    0  0.11173128048E+03  0.20990690240E+03 -0.36059357777E+03  0.47108015777E+03  0.18800000000E+03 0.  0.
<mgrwt>
<rscale>  0 0.72464345E+03</rscale>
<asrwt>0</asrwt>
<pdfrwt beam="1">  1        2 0.34901240E-01 0.72464345E+03</pdfrwt>
<pdfrwt beam="2">  1       -2 0.76762978E-01 0.72464345E+03</pdfrwt>
<totfact> 0.22958364E+02</totfact>
</mgrwt>
</event>
<event>
 4    1  0.6034452E-005  0.5706616E+03  0.7818608E-02  0.9968216E-01
         -2   -1    0    0    0  501 -0.00000000000E+00  0.00000000000E+00  0.63931012392E+02  0.63931012442E+02  0.25500000000E-02 0. -1.
          2   -1    0    0  501    0  0.00000000000E+00 -0.00000000000E+00 -0.12734614270E+04  0.12734614270E+04  0.25500000000E-02 0.  1.
    5000001    1    1    2    0    0  0.14898211997E+03  0.15442646884E+03 -0.61682314964E+03  0.67960135689E+03  0.18800000000E+03 0.  0.
   -5000001    1    1    2    0    0 -0.14898211997E+03 -0.15442646884E+03 -0.59270726499E+03  0.65779108258E+03  0.18800000000E+03 0.  0.
<mgrwt>
<rscale>  0 0.57066165E+03</rscale>
<asrwt>0</asrwt>
<pdfrwt beam="1">  1        2 0.18192305E+00 0.57066165E+03</pdfrwt>
<pdfrwt beam="2">  1       -2 0.91330026E-02 0.57066165E+03</pdfrwt>
<totfact> 0.15590964E+03</totfact>
</mgrwt>
</event>
<event>
 4    1  0.6034452E-005  0.8347709E+03  0.7818608E-02  0.9511008E-01
         -2   -1    0    0    0  501 -0.00000000000E+00  0.00000000000E+00  0.22038312559E+03  0.22038312560E+03  0.25500000000E-02 0. -1.
          2   -1    0    0  501    0  0.00000000000E+00 -0.00000000000E+00 -0.79048986065E+03  0.79048986066E+03  0.25500000000E-02 0.  1.
    5000001    1    1    2    0    0  0.28917475060E+03 -0.22170321708E+03 -0.19053440053E+03  0.45213019213E+03  0.18800000000E+03 0.  0.
   -5000001    1    1    2    0    0 -0.28917475060E+03  0.22170321708E+03 -0.37957233453E+03  0.55874279413E+03  0.18800000000E+03 0.  0.
<mgrwt>
<rscale>  0 0.83477093E+03</rscale>
<asrwt>0</asrwt>
<pdfrwt beam="1">  1        2 0.11292712E+00 0.83477093E+03</pdfrwt>
<pdfrwt beam="2">  1       -2 0.31483304E-01 0.83477093E+03</pdfrwt>
<totfact> 0.36230103E+02</totfact>
</mgrwt>
</event>
<event>
 4    1  0.6034452E-005  0.6913936E+03  0.7818608E-02  0.9732065E-01
         -2   -1    0    0    0  501 -0.00000000000E+00  0.00000000000E+00  0.38425829636E+03  0.38425829637E+03  0.25500000000E-02 0. -1.
          2   -1    0    0  501    0  0.00000000000E+00 -0.00000000000E+00 -0.31100505673E+03  0.31100505674E+03  0.25500000000E-02 0.  1.
    5000001    1    1    2    0    0 -0.28499919086E+03 -0.45944378816E+02  0.65542536884E+02  0.35067826975E+03  0.18800000000E+03 0.  0.
   -5000001    1    1    2    0    0  0.28499919086E+03  0.45944378816E+02  0.77107027416E+01  0.34458508336E+03  0.18800000000E+03 0.  0.
<mgrwt>
<rscale>  0 0.69139359E+03</rscale>
<asrwt>0</asrwt>
<pdfrwt beam="1">  1        2 0.44429294E-01 0.69139359E+03</pdfrwt>
<pdfrwt beam="2">  1       -2 0.54894042E-01 0.69139359E+03</pdfrwt>
<totfact> 0.36069130E+02</totfact>
</mgrwt>
</event>
<event>
 4    1  0.6034452E-005  0.5354383E+03  0.7818608E-02  0.1004922E+00
         -2   -1    0    0    0  501 -0.00000000000E+00  0.00000000000E+00  0.32306473044E+02  0.32306473145E+02  0.25500000000E-02 0.  1.
          2   -1    0    0  501    0  0.00000000000E+00 -0.00000000000E+00 -0.22185507502E+04  0.22185507502E+04  0.25500000000E-02 0. -1.
    5000001    1    1    2    0    0  0.17895618841E+03  0.65469881835E+02 -0.11109211652E+04  0.11427167007E+04  0.18800000000E+03 0.  0.
   -5000001    1    1    2    0    0 -0.17895618841E+03 -0.65469881835E+02 -0.10753231120E+04  0.11081405227E+04  0.18800000000E+03 0.  0.
<mgrwt>
<rscale>  0 0.53543833E+03</rscale>
<asrwt>0</asrwt>
<pdfrwt beam="1">  1        2 0.31693572E+00 0.53543833E+03</pdfrwt>
<pdfrwt beam="2">  1       -2 0.46152119E-02 0.53543833E+03</pdfrwt>
<totfact> 0.14995015E+03</totfact>
</mgrwt>
</event>
<event>
 4    1  0.6034452E-005  0.6413446E+03  0.7818608E-02  0.9823157E-01
         -2   -1    0    0    0  501 -0.00000000000E+00  0.00000000000E+00  0.47293120106E+02  0.47293120175E+02  0.25500000000E-02 0. -1.
          2   -1    0    0  501    0  0.00000000000E+00 -0.00000000000E+00 -0.21743272855E+04  0.21743272855E+04  0.25500000000E-02 0.  1.
    5000001    1    1    2    0    0  0.19591002311E+03  0.51680204326E+02 -0.50030854064E+03  0.57158045497E+03  0.18800000000E+03 0.  0.
   -5000001    1    1    2    0    0 -0.19591002311E+03 -0.51680204326E+02 -0.16267256248E+04  0.16500399507E+04  0.18800000000E+03 0.  0.
<mgrwt>
<rscale>  0 0.64134459E+03</rscale>
<asrwt>0</asrwt>
<pdfrwt beam="1">  1        2 0.31061812E+00 0.64134459E+03</pdfrwt>
<pdfrwt beam="2">  1       -2 0.67561614E-02 0.64134459E+03</pdfrwt>
<totfact> 0.86555131E+02</totfact>
</mgrwt>
</event>
<event>
 4    1  0.6034452E-005  0.5023100E+03  0.7818608E-02  0.1013178E+00
         -2   -1    0    0    0  501 -0.00000000000E+00  0.00000000000E+00  0.53807126224E+02  0.53807126285E+02  0.25500000000E-02 0. -1.
          2   -1    0    0  501    0  0.00000000000E+00 -0.00000000000E+00 -0.11723137418E+04  0.11723137418E+04  0.25500000000E-02 0.  1.
    5000001    1    1    2    0    0  0.22631118159E+01  0.14455434349E+03 -0.76103934906E+03  0.79713610552E+03  0.18800000000E+03 0.  0.
   -5000001    1    1    2    0    0 -0.22631118159E+01 -0.14455434349E+03 -0.35746726655E+03  0.42898476261E+03  0.18800000000E+03 0.  0.
<mgrwt>
<rscale>  0 0.50231000E+03</rscale>
<asrwt>0</asrwt>
<pdfrwt beam="1">  1        2 0.16747338E+00 0.50231000E+03</pdfrwt>
<pdfrwt beam="2">  1       -2 0.76867330E-02 0.50231000E+03</pdfrwt>
<totfact> 0.23380083E+03</totfact>
</mgrwt>
</event>
<event>
 4    1  0.6034452E-005  0.4313965E+03  0.7818608E-02  0.1033420E+00
          2   -1    0    0  501    0  0.00000000000E+00  0.00000000000E+00  0.53645075614E+03  0.53645075615E+03  0.25500000000E-02 0.  1.
         -2   -1    0    0    0  501 -0.00000000000E+00 -0.00000000000E+00 -0.86728795737E+02  0.86728795774E+02  0.25500000000E-02 0. -1.
    5000001    1    1    2    0    0  0.46673786371E+02  0.68182295513E+02  0.12953664654E+03  0.24279829190E+03  0.18800000000E+03 0.  0.
   -5000001    1    1    2    0    0 -0.46673786371E+02 -0.68182295513E+02  0.32018531387E+03  0.38038126002E+03  0.18800000000E+03 0.  0.
<mgrwt>
<rscale>  0 0.43139647E+03</rscale>
<asrwt>0</asrwt>
<pdfrwt beam="1">  1        2 0.76635824E-01 0.43139647E+03</pdfrwt>
<pdfrwt beam="2">  1       -2 0.12389828E-01 0.43139647E+03</pdfrwt>
<totfact> 0.29555520E+03</totfact>
</mgrwt>
</event>
<event>
 4    1  0.6034452E-005  0.5665125E+03  0.7818608E-02  0.9977426E-01
         -2   -1    0    0    0  501 -0.00000000000E+00  0.00000000000E+00  0.24898262455E+02  0.24898262585E+02  0.25500000000E-02 0. -1.
          2   -1    0    0  501    0  0.00000000000E+00 -0.00000000000E+00 -0.32224779431E+04  0.32224779431E+04  0.25500000000E-02 0.  1.
    5000001    1    1    2    0    0 -0.33241148837E+02  0.18167116935E+03 -0.10036118340E+04  0.10376367867E+04  0.18800000000E+03 0.  0.
   -5000001    1    1    2    0    0  0.33241148837E+02 -0.18167116935E+03 -0.21939678467E+04  0.22097394190E+04  0.18800000000E+03 0.  0.
<mgrwt>
<rscale>  0 0.56651250E+03</rscale>
<asrwt>0</asrwt>
<pdfrwt beam="1">  1        2 0.46035373E+00 0.56651250E+03</pdfrwt>
<pdfrwt beam="2">  1       -2 0.35568967E-02 0.56651250E+03</pdfrwt>
<totfact> 0.66090641E+02</totfact>
</mgrwt>
</event>
<event>
 4    1  0.6034452E-005  0.7713039E+03  0.7818608E-02  0.9602508E-01
          2   -1    0    0  501    0  0.00000000000E+00  0.00000000000E+00  0.19252349814E+04  0.19252349814E+04  0.25500000000E-02 0.  1.
         -2   -1    0    0    0  501 -0.00000000000E+00 -0.00000000000E+00 -0.77251577257E+02  0.77251577299E+02  0.25500000000E-02 0. -1.
    5000001    1    1    2    0    0  0.31406001203E+03 -0.83369093013E+01  0.12385569179E+04  0.12915380111E+04  0.18800000000E+03 0.  0.
   -5000001    1    1    2    0    0 -0.31406001203E+03  0.83369093013E+01  0.60942648623E+03  0.71094854760E+03  0.18800000000E+03 0.  0.
<mgrwt>
<rscale>  0 0.77130393E+03</rscale>
<asrwt>0</asrwt>
<pdfrwt beam="1">  1        2 0.27503356E+00 0.77130393E+03</pdfrwt>
<pdfrwt beam="2">  1       -2 0.11035940E-01 0.77130393E+03</pdfrwt>
<totfact> 0.52088300E+02</totfact>
</mgrwt>
</event>
<event>
 4    1  0.6034452E-005  0.5486218E+03  0.7818608E-02  0.1001813E+00
         -2   -1    0    0    0  501 -0.00000000000E+00  0.00000000000E+00  0.54725377020E+03  0.54725377021E+03  0.25500000000E-02 0. -1.
          2   -1    0    0  501    0  0.00000000000E+00 -0.00000000000E+00 -0.13749829487E+03  0.13749829489E+03  0.25500000000E-02 0.  1.
    5000001    1    1    2    0    0  0.11109713924E+03  0.16222221716E+03  0.24889694936E+03  0.36871711851E+03  0.18800000000E+03 0.  0.
   -5000001    1    1    2    0    0 -0.11109713924E+03 -0.16222221716E+03  0.16085852598E+03  0.31603494659E+03  0.18800000000E+03 0.  0.
<mgrwt>
<rscale>  0 0.54862177E+03</rscale>
<asrwt>0</asrwt>
<pdfrwt beam="1">  1        2 0.19642613E-01 0.54862177E+03</pdfrwt>
<pdfrwt beam="2">  1       -2 0.78179110E-01 0.54862177E+03</pdfrwt>
<totfact> 0.42654820E+02</totfact>
</mgrwt>
</event>
<event>
 4    1  0.6034452E-005  0.5584237E+03  0.7818608E-02  0.9995628E-01
          2   -1    0    0  501    0  0.00000000000E+00  0.00000000000E+00  0.92548666231E+03  0.92548666231E+03  0.25500000000E-02 0.  1.
         -2   -1    0    0    0  501 -0.00000000000E+00 -0.00000000000E+00 -0.84235965073E+02  0.84235965112E+02  0.25500000000E-02 0. -1.
    5000001    1    1    2    0    0 -0.13887251251E+03  0.51454766175E+02  0.16058814213E+03  0.28821124039E+03  0.18800000000E+03 0.  0.
   -5000001    1    1    2    0    0  0.13887251251E+03 -0.51454766175E+02  0.68066255511E+03  0.72151138704E+03  0.18800000000E+03 0.  0.
<mgrwt>
<rscale>  0 0.55842372E+03</rscale>
<asrwt>0</asrwt>
<pdfrwt beam="1">  1        2 0.13221237E+00 0.55842372E+03</pdfrwt>
<pdfrwt beam="2">  1       -2 0.12033711E-01 0.55842372E+03</pdfrwt>
<totfact> 0.15901287E+03</totfact>
</mgrwt>
</event>
<event>
 4    1  0.6034452E-005  0.5526010E+03  0.7818608E-02  0.1000894E+00
         -2   -1    0    0    0  501 -0.00000000000E+00  0.00000000000E+00  0.18944201515E+02  0.18944201687E+02  0.25500000000E-02 0. -1.
          2   -1    0    0  501    0  0.00000000000E+00 -0.00000000000E+00 -0.40298326622E+04  0.40298326622E+04  0.25500000000E-02 0.  1.
    5000001    1    1    2    0    0  0.17446779586E+03  0.67039559788E+02 -0.25760221837E+04  0.25896269240E+04  0.18800000000E+03 0.  0.
   -5000001    1    1    2    0    0 -0.17446779586E+03 -0.67039559788E+02 -0.14348662770E+04  0.14591499399E+04  0.18800000000E+03 0.  0.
<mgrwt>
<rscale>  0 0.55260099E+03</rscale>
<asrwt>0</asrwt>
<pdfrwt beam="1">  1        2 0.57568983E+00 0.55260099E+03</pdfrwt>
<pdfrwt beam="2">  1       -2 0.27063171E-02 0.55260099E+03</pdfrwt>
<totfact> 0.32194868E+02</totfact>
</mgrwt>
</event>
<event>
 4    1  0.6034452E-005  0.3946202E+03  0.7818608E-02  0.1045659E+00
          2   -1    0    0  501    0  0.00000000000E+00  0.00000000000E+00  0.56313002944E+03  0.56313002944E+03  0.25500000000E-02 0.  1.
         -2   -1    0    0    0  501 -0.00000000000E+00 -0.00000000000E+00 -0.69133737418E+02  0.69133737465E+02  0.25500000000E-02 0. -1.
    5000001    1    1    2    0    0 -0.58027134862E+02 -0.14047475929E+02  0.25464919639E+03  0.32210975331E+03  0.18800000000E+03 0.  0.
   -5000001    1    1    2    0    0  0.58027134862E+02  0.14047475929E+02  0.23934709563E+03  0.31015401359E+03  0.18800000000E+03 0.  0.
<mgrwt>
<rscale>  0 0.39462024E+03</rscale>
<asrwt>0</asrwt>
<pdfrwt beam="1">  1        2 0.80447147E-01 0.39462024E+03</pdfrwt>
<pdfrwt beam="2">  1       -2 0.98762483E-02 0.39462024E+03</pdfrwt>
<totfact> 0.40320342E+03</totfact>
</mgrwt>
</event>
<event>
 4    1  0.6034452E-005  0.5751874E+03  0.7818608E-02  0.9958265E-01
          2   -1    0    0  501    0  0.00000000000E+00  0.00000000000E+00  0.21129622647E+04  0.21129622647E+04  0.25500000000E-02 0.  1.
         -2   -1    0    0    0  501 -0.00000000000E+00 -0.00000000000E+00 -0.39144157038E+02  0.39144157121E+02  0.25500000000E-02 0. -1.
    5000001    1    1    2    0    0  0.14027934410E+03 -0.15052376891E+03  0.77153598448E+03  0.82033375814E+03  0.18800000000E+03 0.  0.
   -5000001    1    1    2    0    0 -0.14027934410E+03  0.15052376891E+03  0.13022821232E+04  0.13317726637E+04  0.18800000000E+03 0.  0.
<mgrwt>
<rscale>  0 0.57518737E+03</rscale>
<asrwt>0</asrwt>
<pdfrwt beam="1">  1        2 0.30185179E+00 0.57518737E+03</pdfrwt>
<pdfrwt beam="2">  1       -2 0.55920218E-02 0.57518737E+03</pdfrwt>
<totfact> 0.12552524E+03</totfact>
</mgrwt>
</event>
<event>
 4    1  0.6034452E-005  0.7136897E+03  0.7818608E-02  0.9694103E-01
          2   -1    0    0  501    0  0.00000000000E+00  0.00000000000E+00  0.10813035536E+04  0.10813035536E+04  0.25500000000E-02 0.  1.
         -2   -1    0    0    0  501 -0.00000000000E+00 -0.00000000000E+00 -0.11776364690E+03  0.11776364692E+03  0.25500000000E-02 0. -1.
    5000001    1    1    2    0    0  0.65646867726E+02 -0.14861323001E+03  0.91208069843E+03  0.94532037100E+03  0.18800000000E+03 0.  0.
   -5000001    1    1    2    0    0 -0.65646867726E+02  0.14861323001E+03  0.51459208260E+02  0.25374682952E+03  0.18800000000E+03 0.  0.
<mgrwt>
<rscale>  0 0.71368971E+03</rscale>
<asrwt>0</asrwt>
<pdfrwt beam="1">  1        2 0.15447194E+00 0.71368971E+03</pdfrwt>
<pdfrwt beam="2">  1       -2 0.16823377E-01 0.71368971E+03</pdfrwt>
<totfact> 0.72564510E+02</totfact>
</mgrwt>
</event>
<event>
 4    1  0.6034452E-005  0.4393821E+03  0.7818608E-02  0.1030937E+00
         -2   -1    0    0    0  501 -0.00000000000E+00  0.00000000000E+00  0.66852962560E+02  0.66852962609E+02  0.25500000000E-02 0. -1.
          2   -1    0    0  501    0  0.00000000000E+00 -0.00000000000E+00 -0.72194478095E+03  0.72194478096E+03  0.25500000000E-02 0.  1.
    5000001    1    1    2    0    0 -0.10638753863E+03 -0.15483231958E+02 -0.39380251887E+03  0.44942459069E+03  0.18800000000E+03 0.  0.
   -5000001    1    1    2    0    0  0.10638753863E+03  0.15483231958E+02 -0.26128929953E+03  0.33937315288E+03  0.18800000000E+03 0.  0.
<mgrwt>
<rscale>  0 0.43938205E+03</rscale>
<asrwt>0</asrwt>
<pdfrwt beam="1">  1        2 0.10313496E+00 0.43938205E+03</pdfrwt>
<pdfrwt beam="2">  1       -2 0.95504237E-02 0.43938205E+03</pdfrwt>
<totfact> 0.31792460E+03</totfact>
</mgrwt>
</event>
<event>
 4    1  0.6034452E-005  0.7628451E+03  0.7818608E-02  0.9615411E-01
         -2   -1    0    0    0  501 -0.00000000000E+00  0.00000000000E+00  0.85709037877E+02  0.85709037915E+02  0.25500000000E-02 0. -1.
          2   -1    0    0  501    0  0.00000000000E+00 -0.00000000000E+00 -0.16974076517E+04  0.16974076517E+04  0.25500000000E-02 0.  1.
    5000001    1    1    2    0    0 -0.10455798891E+03 -0.28708875587E+03 -0.11086995912E+04  0.11652944308E+04  0.18800000000E+03 0.  0.
   -5000001    1    1    2    0    0  0.10455798891E+03  0.28708875587E+03 -0.50299902260E+03  0.61782225885E+03  0.18800000000E+03 0.  0.
<mgrwt>
<rscale>  0 0.76284514E+03</rscale>
<asrwt>0</asrwt>
<pdfrwt beam="1">  1        2 0.24248679E+00 0.76284514E+03</pdfrwt>
<pdfrwt beam="2">  1       -2 0.12244149E-01 0.76284514E+03</pdfrwt>
<totfact> 0.57353778E+02</totfact>
</mgrwt>
</event>
<event>
 4    1  0.6034452E-005  0.6024407E+03  0.7818608E-02  0.9900355E-01
         -2   -1    0    0    0  501 -0.00000000000E+00  0.00000000000E+00  0.36063835265E+03  0.36063835266E+03  0.25500000000E-02 0.  1.
          2   -1    0    0  501    0  0.00000000000E+00 -0.00000000000E+00 -0.25159194011E+03  0.25159194012E+03  0.25500000000E-02 0. -1.
    5000001    1    1    2    0    0 -0.36044376512E+02 -0.22727809538E+03  0.43738432410E+01  0.29718287337E+03  0.18800000000E+03 0.  0.
   -5000001    1    1    2    0    0  0.36044376512E+02  0.22727809538E+03  0.10467256930E+03  0.31504741942E+03  0.18800000000E+03 0.  0.
<mgrwt>
<rscale>  0 0.60244071E+03</rscale>
<asrwt>0</asrwt>
<pdfrwt beam="1">  1        2 0.35941706E-01 0.60244071E+03</pdfrwt>
<pdfrwt beam="2">  1       -2 0.51519764E-01 0.60244071E+03</pdfrwt>
<totfact> 0.52074730E+02</totfact>
</mgrwt>
</event>
<event>
 4    1  0.6034452E-005  0.4431799E+03  0.7818608E-02  0.1029776E+00
         -2   -1    0    0    0  501 -0.00000000000E+00  0.00000000000E+00  0.15109429179E+02  0.15109429395E+02  0.25500000000E-02 0. -1.
          2   -1    0    0  501    0  0.00000000000E+00 -0.00000000000E+00 -0.32497654890E+04  0.32497654890E+04  0.25500000000E-02 0.  1.
    5000001    1    1    2    0    0 -0.35597187242E+02  0.82534317000E+02 -0.21724948978E+04  0.21824658426E+04  0.18800000000E+03 0.  0.
   -5000001    1    1    2    0    0  0.35597187242E+02 -0.82534317000E+02 -0.10621611620E+04  0.10824090758E+04  0.18800000000E+03 0.  0.
<mgrwt>
<rscale>  0 0.44317988E+03</rscale>
<asrwt>0</asrwt>
<pdfrwt beam="1">  1        2 0.46425177E+00 0.44317988E+03</pdfrwt>
<pdfrwt beam="2">  1       -2 0.21584920E-02 0.44317988E+03</pdfrwt>
<totfact> 0.13741906E+03</totfact>
</mgrwt>
</event>
<event>
 4    1  0.6034452E-005  0.4365919E+03  0.7818608E-02  0.1031798E+00
          2   -1    0    0  501    0  0.00000000000E+00  0.00000000000E+00  0.68830096923E+03  0.68830096923E+03  0.25500000000E-02 0.  1.
         -2   -1    0    0    0  501 -0.00000000000E+00 -0.00000000000E+00 -0.69232959985E+02  0.69232960032E+02  0.25500000000E-02 0. -1.
    5000001    1    1    2    0    0 -0.65189316865E+02  0.75148795344E+02  0.22431698161E+03  0.30912634426E+03  0.18800000000E+03 0.  0.
   -5000001    1    1    2    0    0  0.65189316865E+02 -0.75148795344E+02  0.39475102763E+03  0.44840758501E+03  0.18800000000E+03 0.  0.
<mgrwt>
<rscale>  0 0.43659186E+03</rscale>
<asrwt>0</asrwt>
<pdfrwt beam="1">  1        2 0.98328707E-01 0.43659186E+03</pdfrwt>
<pdfrwt beam="2">  1       -2 0.98904231E-02 0.43659186E+03</pdfrwt>
<totfact> 0.31844350E+03</totfact>
</mgrwt>
</event>
<event>
 4    1  0.6034452E-005  0.4174462E+03  0.7818608E-02  0.1037901E+00
         -2   -1    0    0    0  501 -0.00000000000E+00  0.00000000000E+00  0.24963929981E+02  0.24963930111E+02  0.25500000000E-02 0. -1.
          2   -1    0    0  501    0  0.00000000000E+00 -0.00000000000E+00 -0.17451314734E+04  0.17451314734E+04  0.25500000000E-02 0.  1.
    5000001    1    1    2    0    0 -0.81855256794E+02 -0.20955237432E+02 -0.99955887976E+03  0.10205887316E+04  0.18800000000E+03 0.  0.
   -5000001    1    1    2    0    0  0.81855256794E+02  0.20955237432E+02 -0.72060866362E+03  0.74950667183E+03  0.18800000000E+03 0.  0.
<mgrwt>
<rscale>  0 0.41744624E+03</rscale>
<asrwt>0</asrwt>
<pdfrwt beam="1">  1        2 0.24930442E+00 0.41744624E+03</pdfrwt>
<pdfrwt beam="2">  1       -2 0.35662768E-02 0.41744624E+03</pdfrwt>
<totfact> 0.38474472E+03</totfact>
</mgrwt>
</event>
<event>
 4    1  0.6034452E-005  0.4851848E+03  0.7818608E-02  0.1017720E+00
         -2   -1    0    0    0  501 -0.00000000000E+00  0.00000000000E+00  0.12453323555E+03  0.12453323557E+03  0.25500000000E-02 0. -1.
          2   -1    0    0  501    0  0.00000000000E+00 -0.00000000000E+00 -0.47257317451E+03  0.47257317451E+03  0.25500000000E-02 0.  1.
    5000001    1    1    2    0    0  0.10434655452E+03  0.93171149992E+02 -0.96790613035E+02  0.25353794470E+03  0.18800000000E+03 0.  0.
   -5000001    1    1    2    0    0 -0.10434655452E+03 -0.93171149992E+02 -0.25124932593E+03  0.34356846539E+03  0.18800000000E+03 0.  0.
<mgrwt>
<rscale>  0 0.48518477E+03</rscale>
<asrwt>0</asrwt>
<pdfrwt beam="1">  1        2 0.67510452E-01 0.48518477E+03</pdfrwt>
<pdfrwt beam="2">  1       -2 0.17790463E-01 0.48518477E+03</pdfrwt>
<totfact> 0.18646615E+03</totfact>
</mgrwt>
</event>
<event>
 4    1  0.6034452E-005  0.4871166E+03  0.7818608E-02  0.1017197E+00
          2   -1    0    0  501    0  0.00000000000E+00  0.00000000000E+00  0.40761916736E+03  0.40761916737E+03  0.25500000000E-02 0.  1.
         -2   -1    0    0    0  501 -0.00000000000E+00 -0.00000000000E+00 -0.14552958977E+03  0.14552958979E+03  0.25500000000E-02 0. -1.
    5000001    1    1    2    0    0 -0.11934450475E+02  0.10530491791E+03  0.25924256883E+03  0.33731627049E+03  0.18800000000E+03 0.  0.
   -5000001    1    1    2    0    0  0.11934450475E+02 -0.10530491791E+03  0.28470087667E+01  0.21583248667E+03  0.18800000000E+03 0.  0.
<mgrwt>
<rscale>  0 0.48711662E+03</rscale>
<asrwt>0</asrwt>
<pdfrwt beam="1">  1        2 0.58231310E-01 0.48711662E+03</pdfrwt>
<pdfrwt beam="2">  1       -2 0.20789941E-01 0.48711662E+03</pdfrwt>
<totfact> 0.16800436E+03</totfact>
</mgrwt>
</event>
<event>
 4    1  0.6034452E-005  0.7225788E+03  0.7818608E-02  0.9679380E-01
          2   -1    0    0  501    0  0.00000000000E+00  0.00000000000E+00  0.12397346022E+04  0.12397346022E+04  0.25500000000E-02 0.  1.
         -2   -1    0    0    0  501 -0.00000000000E+00 -0.00000000000E+00 -0.10528867957E+03  0.10528867960E+03  0.25500000000E-02 0. -1.
    5000001    1    1    2    0    0  0.89142168171E+02 -0.20656596855E+03  0.96019972005E+03  0.10039638081E+04  0.18800000000E+03 0.  0.
   -5000001    1    1    2    0    0 -0.89142168171E+02  0.20656596855E+03  0.17424620255E+03  0.34105947372E+03  0.18800000000E+03 0.  0.
<mgrwt>
<rscale>  0 0.72257877E+03</rscale>
<asrwt>0</asrwt>
<pdfrwt beam="1">  1        2 0.17710493E+00 0.72257877E+03</pdfrwt>
<pdfrwt beam="2">  1       -2 0.15041241E-01 0.72257877E+03</pdfrwt>
<totfact> 0.71215593E+02</totfact>
</mgrwt>
</event>
<event>
 4    1  0.6034452E-005  0.5343484E+03  0.7818608E-02  0.1005183E+00
          2   -1    0    0  501    0  0.00000000000E+00  0.00000000000E+00  0.19595548916E+04  0.19595548916E+04  0.25500000000E-02 0.  1.
         -2   -1    0    0    0  501 -0.00000000000E+00 -0.00000000000E+00 -0.36427691927E+02  0.36427692016E+02  0.25500000000E-02 0. -1.
    5000001    1    1    2    0    0 -0.81663957678E+02  0.14430542168E+03  0.13068570775E+04  0.13306812082E+04  0.18800000000E+03 0.  0.
   -5000001    1    1    2    0    0  0.81663957678E+02 -0.14430542168E+03  0.61627012207E+03  0.66530137537E+03  0.18800000000E+03 0.  0.
<mgrwt>
<rscale>  0 0.53434843E+03</rscale>
<asrwt>0</asrwt>
<pdfrwt beam="1">  1        2 0.27993639E+00 0.53434843E+03</pdfrwt>
<pdfrwt beam="2">  1       -2 0.52039565E-02 0.53434843E+03</pdfrwt>
<totfact> 0.16789055E+03</totfact>
</mgrwt>
</event>
<event>
 4    1  0.6034452E-005  0.6126085E+03  0.7818608E-02  0.9879587E-01
         -2   -1    0    0    0  501 -0.00000000000E+00  0.00000000000E+00  0.15204445130E+03  0.15204445133E+03  0.25500000000E-02 0. -1.
          2   -1    0    0  501    0  0.00000000000E+00 -0.00000000000E+00 -0.61707156932E+03  0.61707156932E+03  0.25500000000E-02 0.  1.
    5000001    1    1    2    0    0 -0.12076838959E+03 -0.20814097647E+03 -0.26250443944E+03  0.40269125982E+03  0.18800000000E+03 0.  0.
   -5000001    1    1    2    0    0  0.12076838959E+03  0.20814097647E+03 -0.20252267857E+03  0.36642476082E+03  0.18800000000E+03 0.  0.
<mgrwt>
<rscale>  0 0.61260855E+03</rscale>
<asrwt>0</asrwt>
<pdfrwt beam="1">  1        2 0.88153080E-01 0.61260855E+03</pdfrwt>
<pdfrwt beam="2">  1       -2 0.21720636E-01 0.61260855E+03</pdfrwt>
<totfact> 0.97009522E+02</totfact>
</mgrwt>
</event>
<event>
 4    1  0.6034452E-005  0.4802754E+03  0.7818608E-02  0.1019060E+00
         -2   -1    0    0    0  501 -0.00000000000E+00  0.00000000000E+00  0.56736389149E+02  0.56736389206E+02  0.25500000000E-02 0. -1.
          2   -1    0    0  501    0  0.00000000000E+00 -0.00000000000E+00 -0.10163866365E+04  0.10163866365E+04  0.25500000000E-02 0.  1.
    5000001    1    1    2    0    0  0.18051930902E+02  0.10989858878E+03 -0.70235226017E+03  0.73555847449E+03  0.18800000000E+03 0.  0.
   -5000001    1    1    2    0    0 -0.18051930902E+02 -0.10989858878E+03 -0.25729798714E+03  0.33756455118E+03  0.18800000000E+03 0.  0.
<mgrwt>
<rscale>  0 0.48027537E+03</rscale>
<asrwt>0</asrwt>
<pdfrwt beam="1">  1        2 0.14519808E+00 0.48027537E+03</pdfrwt>
<pdfrwt beam="2">  1       -2 0.81051991E-02 0.48027537E+03</pdfrwt>
<totfact> 0.26468106E+03</totfact>
</mgrwt>
</event>
<event>
 4    1  0.6034452E-005  0.7034346E+03  0.7818608E-02  0.9711377E-01
          2   -1    0    0  501    0  0.00000000000E+00  0.00000000000E+00  0.24433225138E+04  0.24433225138E+04  0.25500000000E-02 0.  1.
         -2   -1    0    0    0  501 -0.00000000000E+00 -0.00000000000E+00 -0.50629846161E+02  0.50629846226E+02  0.25500000000E-02 0. -1.
    5000001    1    1    2    0    0  0.81252278309E+02  0.19748196646E+03  0.46321257430E+03  0.54360918756E+03  0.18800000000E+03 0.  0.
   -5000001    1    1    2    0    0 -0.81252278309E+02 -0.19748196646E+03  0.19294800934E+04  0.19503431725E+04  0.18800000000E+03 0.  0.
<mgrwt>
<rscale>  0 0.70343455E+03</rscale>
<asrwt>0</asrwt>
<pdfrwt beam="1">  1        2 0.34904609E+00 0.70343455E+03</pdfrwt>
<pdfrwt beam="2">  1       -2 0.72328349E-02 0.70343455E+03</pdfrwt>
<totfact> 0.56458410E+02</totfact>
</mgrwt>
</event>
<event>
 4    1  0.6034452E-005  0.8996585E+03  0.7818608E-02  0.9426008E-01
          2   -1    0    0  501    0  0.00000000000E+00  0.00000000000E+00  0.47806182677E+03  0.47806182678E+03  0.25500000000E-02 0.  1.
         -2   -1    0    0    0  501 -0.00000000000E+00 -0.00000000000E+00 -0.42326401585E+03  0.42326401586E+03  0.25500000000E-02 0. -1.
    5000001    1    1    2    0    0 -0.31697412092E+03 -0.25146062680E+03  0.84927693683E+02  0.45416049291E+03  0.18800000000E+03 0.  0.
   -5000001    1    1    2    0    0  0.31697412092E+03  0.25146062680E+03 -0.30129882757E+02  0.44716534973E+03  0.18800000000E+03 0.  0.
<mgrwt>
<rscale>  0 0.89965853E+03</rscale>
<asrwt>0</asrwt>
<pdfrwt beam="1">  1        2 0.68294547E-01 0.89965853E+03</pdfrwt>
<pdfrwt beam="2">  1       -2 0.60466288E-01 0.89965853E+03</pdfrwt>
<totfact> 0.18074192E+02</totfact>
</mgrwt>
</event>
<event>
 4    1  0.6034452E-005  0.4398280E+03  0.7818608E-02  0.1030800E+00
         -2   -1    0    0    0  501 -0.00000000000E+00  0.00000000000E+00  0.51223073789E+02  0.51223073852E+02  0.25500000000E-02 0. -1.
          2   -1    0    0  501    0  0.00000000000E+00 -0.00000000000E+00 -0.94414798265E+03  0.94414798265E+03  0.25500000000E-02 0.  1.
    5000001    1    1    2    0    0  0.56848578175E+02  0.57490855363E+02 -0.62865472817E+03  0.66112610487E+03  0.18800000000E+03 0.  0.
   -5000001    1    1    2    0    0 -0.56848578175E+02 -0.57490855363E+02 -0.26427018069E+03  0.33424495164E+03  0.18800000000E+03 0.  0.
<mgrwt>
<rscale>  0 0.43982797E+03</rscale>
<asrwt>0</asrwt>
<pdfrwt beam="1">  1        2 0.13487827E+00 0.43982797E+03</pdfrwt>
<pdfrwt beam="2">  1       -2 0.73175826E-02 0.43982797E+03</pdfrwt>
<totfact> 0.34413717E+03</totfact>
</mgrwt>
</event>
<event>
 4    1  0.6034452E-005  0.8841831E+03  0.7818608E-02  0.9445572E-01
          2   -1    0    0  501    0  0.00000000000E+00  0.00000000000E+00  0.21776496692E+03  0.21776496693E+03  0.25500000000E-02 0.  1.
         -2   -1    0    0    0  501 -0.00000000000E+00 -0.00000000000E+00 -0.89750395058E+03  0.89750395058E+03  0.25500000000E-02 0. -1.
    5000001    1    1    2    0    0  0.12882607950E+03 -0.37302028118E+03 -0.25657582329E+03  0.50686826891E+03  0.18800000000E+03 0.  0.
   -5000001    1    1    2    0    0 -0.12882607950E+03  0.37302028118E+03 -0.42316316037E+03  0.60840064861E+03  0.18800000000E+03 0.  0.
<mgrwt>
<rscale>  0 0.88418305E+03</rscale>
<asrwt>0</asrwt>
<pdfrwt beam="1">  1        2 0.31109281E-01 0.88418305E+03</pdfrwt>
<pdfrwt beam="2">  1       -2 0.12821485E+00 0.88418305E+03</pdfrwt>
<totfact> 0.77127231E+01</totfact>
</mgrwt>
</event>
<event>
 4    1  0.6034452E-005  0.6317529E+03  0.7818608E-02  0.9841634E-01
          2   -1    0    0  501    0  0.00000000000E+00  0.00000000000E+00  0.80941085758E+03  0.80941085759E+03  0.25500000000E-02 0.  1.
         -2   -1    0    0    0  501 -0.00000000000E+00 -0.00000000000E+00 -0.12327228962E+03  0.12327228965E+03  0.25500000000E-02 0. -1.
    5000001    1    1    2    0    0  0.66539246286E+01  0.16214273024E+03  0.63123738247E+03  0.67833559004E+03  0.18800000000E+03 0.  0.
   -5000001    1    1    2    0    0 -0.66539246286E+01 -0.16214273024E+03  0.54901185489E+02  0.25434755719E+03  0.18800000000E+03 0.  0.
<mgrwt>
<rscale>  0 0.63175289E+03</rscale>
<asrwt>0</asrwt>
<pdfrwt beam="1">  1        2 0.11563012E+00 0.63175289E+03</pdfrwt>
<pdfrwt beam="2">  1       -2 0.17610327E-01 0.63175289E+03</pdfrwt>
<totfact> 0.99993947E+02</totfact>
</mgrwt>
</event>
<event>
 4    1  0.6034452E-005  0.6574728E+03  0.7818608E-02  0.9792857E-01
         -2   -1    0    0    0  501 -0.00000000000E+00  0.00000000000E+00  0.46501630470E+02  0.46501630540E+02  0.25500000000E-02 0. -1.
          2   -1    0    0  501    0  0.00000000000E+00 -0.00000000000E+00 -0.23239532238E+04  0.23239532238E+04  0.25500000000E-02 0.  1.
    5000001    1    1    2    0    0  0.12578130668E+03 -0.29111542952E+02 -0.28511117543E+03  0.36510382276E+03  0.18800000000E+03 0.  0.
   -5000001    1    1    2    0    0 -0.12578130668E+03  0.29111542952E+02 -0.19923404179E+04  0.20053510315E+04  0.18800000000E+03 0.  0.
<mgrwt>
<rscale>  0 0.65747278E+03</rscale>
<asrwt>0</asrwt>
<pdfrwt beam="1">  1        2 0.33199324E+00 0.65747278E+03</pdfrwt>
<pdfrwt beam="2">  1       -2 0.66430916E-02 0.65747278E+03</pdfrwt>
<totfact> 0.74585775E+02</totfact>
</mgrwt>
</event>
<event>
 4    1  0.6034452E-005  0.1158798E+04  0.7818608E-02  0.9149705E-01
         -2   -1    0    0    0  501 -0.00000000000E+00  0.00000000000E+00  0.15995389933E+03  0.15995389935E+03  0.25500000000E-02 0.  1.
          2   -1    0    0  501    0  0.00000000000E+00 -0.00000000000E+00 -0.20987499913E+04  0.20987499913E+04  0.25500000000E-02 0. -1.
    5000001    1    1    2    0    0 -0.28264263331E+03  0.11910786031E+03 -0.18546891514E+04  0.18892563057E+04  0.18800000000E+03 0.  0.
   -5000001    1    1    2    0    0  0.28264263331E+03 -0.11910786031E+03 -0.84106940612E+02  0.36944758493E+03  0.18800000000E+03 0.  0.
<mgrwt>
<rscale>  0 0.11587981E+04</rscale>
<asrwt>0</asrwt>
<pdfrwt beam="1">  1        2 0.29982141E+00 0.11587981E+04</pdfrwt>
<pdfrwt beam="2">  1       -2 0.22850558E-01 0.11587981E+04</pdfrwt>
<totfact> 0.11924690E+02</totfact>
</mgrwt>
</event>
<event>
 4    1  0.6034452E-005  0.3882251E+03  0.7818608E-02  0.1047935E+00
          2   -1    0    0  501    0  0.00000000000E+00  0.00000000000E+00  0.99620046013E+03  0.99620046014E+03  0.25500000000E-02 0.  1.
         -2   -1    0    0    0  501 -0.00000000000E+00 -0.00000000000E+00 -0.37823402505E+02  0.37823402591E+02  0.25500000000E-02 0. -1.
    5000001    1    1    2    0    0  0.38564610353E+02  0.27226153279E+02  0.50676515391E+03  0.54257111406E+03  0.18800000000E+03 0.  0.
   -5000001    1    1    2    0    0 -0.38564610353E+02 -0.27226153279E+02  0.45161190372E+03  0.49145274867E+03  0.18800000000E+03 0.  0.
<mgrwt>
<rscale>  0 0.38822515E+03</rscale>
<asrwt>0</asrwt>
<pdfrwt beam="1">  1        2 0.14231436E+00 0.38822515E+03</pdfrwt>
<pdfrwt beam="2">  1       -2 0.54033430E-02 0.38822515E+03</pdfrwt>
<totfact> 0.51202796E+03</totfact>
</mgrwt>
</event>
<event>
 4    1  0.6034452E-005  0.5357191E+03  0.7818608E-02  0.1004855E+00
          2   -1    0    0  501    0  0.00000000000E+00  0.00000000000E+00  0.21568130069E+03  0.21568130071E+03  0.25500000000E-02 0.  1.
         -2   -1    0    0    0  501 -0.00000000000E+00 -0.00000000000E+00 -0.33266086480E+03  0.33266086481E+03  0.25500000000E-02 0. -1.
    5000001    1    1    2    0    0  0.11558076466E+03 -0.14853081292E+03 -0.90604425000E+02  0.28102220086E+03  0.18800000000E+03 0.  0.
   -5000001    1    1    2    0    0 -0.11558076466E+03  0.14853081292E+03 -0.26375139110E+02  0.26731996466E+03  0.18800000000E+03 0.  0.
<mgrwt>
<rscale>  0 0.53571906E+03</rscale>
<asrwt>0</asrwt>
<pdfrwt beam="1">  1        2 0.30811615E-01 0.53571906E+03</pdfrwt>
<pdfrwt beam="2">  1       -2 0.47522980E-01 0.53571906E+03</pdfrwt>
<totfact> 0.72835333E+02</totfact>
</mgrwt>
</event>
<event>
 4    1  0.6034452E-005  0.7895375E+03  0.7818608E-02  0.9575286E-01
          2   -1    0    0  501    0  0.00000000000E+00  0.00000000000E+00  0.27578901153E+04  0.27578901153E+04  0.25500000000E-02 0.  1.
         -2   -1    0    0    0  501 -0.00000000000E+00 -0.00000000000E+00 -0.56507827269E+02  0.56507827327E+02  0.25500000000E-02 0. -1.
    5000001    1    1    2    0    0 -0.19515784494E+03 -0.28534355964E+02  0.33244827708E+03  0.42984491488E+03  0.18800000000E+03 0.  0.
   -5000001    1    1    2    0    0  0.19515784494E+03  0.28534355964E+02  0.23689340110E+04  0.23845530278E+04  0.18800000000E+03 0.  0.
<mgrwt>
<rscale>  0 0.78953753E+03</rscale>
<asrwt>0</asrwt>
<pdfrwt beam="1">  1        2 0.39398438E+00 0.78953753E+03</pdfrwt>
<pdfrwt beam="2">  1       -2 0.80725452E-02 0.78953753E+03</pdfrwt>
<totfact> 0.32243270E+02</totfact>
</mgrwt>
</event>
<event>
 4    1  0.6034452E-005  0.6602087E+03  0.7818608E-02  0.9787810E-01
         -2   -1    0    0    0  501 -0.00000000000E+00  0.00000000000E+00  0.50686713221E+02  0.50686713285E+02  0.25500000000E-02 0. -1.
          2   -1    0    0  501    0  0.00000000000E+00 -0.00000000000E+00 -0.21498512497E+04  0.21498512497E+04  0.25500000000E-02 0.  1.
    5000001    1    1    2    0    0  0.20741031332E+03  0.48184144728E+01 -0.16324702153E+04  0.16563046999E+04  0.18800000000E+03 0.  0.
   -5000001    1    1    2    0    0 -0.20741031332E+03 -0.48184144728E+01 -0.46669432117E+03  0.54423326304E+03  0.18800000000E+03 0.  0.
<mgrwt>
<rscale>  0 0.66020874E+03</rscale>
<asrwt>0</asrwt>
<pdfrwt beam="1">  1        2 0.30712155E+00 0.66020874E+03</pdfrwt>
<pdfrwt beam="2">  1       -2 0.72409604E-02 0.66020874E+03</pdfrwt>
<totfact> 0.79703746E+02</totfact>
</mgrwt>
</event>
<event>
 4    1  0.6034452E-005  0.4500455E+03  0.7818608E-02  0.1027708E+00
          2   -1    0    0  501    0  0.00000000000E+00  0.00000000000E+00  0.46823977775E+03  0.46823977776E+03  0.25500000000E-02 0.  1.
         -2   -1    0    0    0  501 -0.00000000000E+00 -0.00000000000E+00 -0.10813957086E+03  0.10813957089E+03  0.25500000000E-02 0. -1.
    5000001    1    1    2    0    0 -0.12066896277E+03  0.26795404735E+02  0.17556644585E+03  0.28538845317E+03  0.18800000000E+03 0.  0.
   -5000001    1    1    2    0    0  0.12066896277E+03 -0.26795404735E+02  0.18453376103E+03  0.29099089548E+03  0.18800000000E+03 0.  0.
<mgrwt>
<rscale>  0 0.45004555E+03</rscale>
<asrwt>0</asrwt>
<pdfrwt beam="1">  1        2 0.66891397E-01 0.45004555E+03</pdfrwt>
<pdfrwt beam="2">  1       -2 0.15448510E-01 0.45004555E+03</pdfrwt>
<totfact> 0.23908728E+03</totfact>
</mgrwt>
</event>
<event>
 4    1  0.6034452E-005  0.1164504E+04  0.7818608E-02  0.9144506E-01
          2   -1    0    0  501    0  0.00000000000E+00  0.00000000000E+00  0.78957616721E+03  0.78957616722E+03  0.25500000000E-02 0.  1.
         -2   -1    0    0    0  501 -0.00000000000E+00 -0.00000000000E+00 -0.42936651793E+03  0.42936651794E+03  0.25500000000E-02 0. -1.
    5000001    1    1    2    0    0  0.41966718044E+03 -0.29145923696E+01 -0.19372427930E+03  0.49900113584E+03  0.18800000000E+03 0.  0.
   -5000001    1    1    2    0    0 -0.41966718044E+03  0.29145923696E+01  0.55393392859E+03  0.71994154931E+03  0.18800000000E+03 0.  0.
<mgrwt>
<rscale>  0 0.11645043E+04</rscale>
<asrwt>0</asrwt>
<pdfrwt beam="1">  1        2 0.11279660E+00 0.11645043E+04</pdfrwt>
<pdfrwt beam="2">  1       -2 0.61338074E-01 0.11645043E+04</pdfrwt>
<totfact> 0.94568567E+01</totfact>
</mgrwt>
</event>
<event>
 4    1  0.6034452E-005  0.1814924E+04  0.7818608E-02  0.8698403E-01
          2   -1    0    0  501    0  0.00000000000E+00  0.00000000000E+00  0.30873529471E+04  0.30873529471E+04  0.25500000000E-02 0.  1.
         -2   -1    0    0    0  501 -0.00000000000E+00 -0.00000000000E+00 -0.26672917923E+03  0.26672917925E+03  0.25500000000E-02 0. -1.
    5000001    1    1    2    0    0 -0.47990753547E+03 -0.69757511643E+03  0.19035070520E+04  0.20917947755E+04  0.18800000000E+03 0.  0.
   -5000001    1    1    2    0    0  0.47990753547E+03  0.69757511643E+03  0.91711671586E+03  0.12622873509E+04  0.18800000000E+03 0.  0.
<mgrwt>
<rscale>  0 0.18149238E+04</rscale>
<asrwt>0</asrwt>
<pdfrwt beam="1">  1        2 0.44105040E+00 0.18149238E+04</pdfrwt>
<pdfrwt beam="2">  1       -2 0.38104170E-01 0.18149238E+04</pdfrwt>
<totfact> 0.12976548E+01</totfact>
</mgrwt>
</event>
<event>
 4    1  0.6034452E-005  0.4881314E+03  0.7818608E-02  0.1016924E+00
         -2   -1    0    0    0  501 -0.00000000000E+00  0.00000000000E+00  0.28328545002E+02  0.28328545117E+02  0.25500000000E-02 0. -1.
          2   -1    0    0  501    0  0.00000000000E+00 -0.00000000000E+00 -0.21027580925E+04  0.21027580925E+04  0.25500000000E-02 0.  1.
    5000001    1    1    2    0    0  0.12536611057E+03  0.90652041888E+02 -0.96291613763E+03  0.99321998695E+03  0.18800000000E+03 0.  0.
   -5000001    1    1    2    0    0 -0.12536611057E+03 -0.90652041888E+02 -0.11115134099E+04  0.11378666507E+04  0.18800000000E+03 0.  0.
<mgrwt>
<rscale>  0 0.48813145E+03</rscale>
<asrwt>0</asrwt>
<pdfrwt beam="1">  1        2 0.30039391E+00 0.48813145E+03</pdfrwt>
<pdfrwt beam="2">  1       -2 0.40469363E-02 0.48813145E+03</pdfrwt>
<totfact> 0.21016291E+03</totfact>
</mgrwt>
</event>
<event>
 4    1  0.6034452E-005  0.4631526E+03  0.7818608E-02  0.1023871E+00
         -2   -1    0    0    0  501 -0.00000000000E+00  0.00000000000E+00  0.45428592719E+02  0.45428592791E+02  0.25500000000E-02 0. -1.
          2   -1    0    0  501    0  0.00000000000E+00 -0.00000000000E+00 -0.11804805829E+04  0.11804805829E+04  0.25500000000E-02 0.  1.
    5000001    1    1    2    0    0 -0.21989409349E+02  0.11005772039E+03 -0.36791306641E+03  0.42813579666E+03  0.18800000000E+03 0.  0.
   -5000001    1    1    2    0    0  0.21989409349E+02 -0.11005772039E+03 -0.76713892379E+03  0.79777337906E+03  0.18800000000E+03 0.  0.
<mgrwt>
<rscale>  0 0.46315255E+03</rscale>
<asrwt>0</asrwt>
<pdfrwt beam="1">  1        2 0.16864006E+00 0.46315255E+03</pdfrwt>
<pdfrwt beam="2">  1       -2 0.64897997E-02 0.46315255E+03</pdfrwt>
<totfact> 0.30197343E+03</totfact>
</mgrwt>
</event>
<event>
 4    1  0.6034452E-005  0.5322601E+03  0.7818608E-02  0.1005685E+00
          2   -1    0    0  501    0  0.00000000000E+00  0.00000000000E+00  0.25430890418E+03  0.25430890419E+03  0.25500000000E-02 0.  1.
         -2   -1    0    0    0  501 -0.00000000000E+00 -0.00000000000E+00 -0.27850071471E+03  0.27850071472E+03  0.25500000000E-02 0. -1.
    5000001    1    1    2    0    0 -0.69143207655E+02  0.88351407709E+02 -0.16356125642E+03  0.27328197711E+03  0.18800000000E+03 0.  0.
   -5000001    1    1    2    0    0  0.69143207655E+02 -0.88351407709E+02  0.13936944589E+03  0.25952764180E+03  0.18800000000E+03 0.  0.
<mgrwt>
<rscale>  0 0.53226013E+03</rscale>
<asrwt>0</asrwt>
<pdfrwt beam="1">  1        2 0.36329843E-01 0.53226013E+03</pdfrwt>
<pdfrwt beam="2">  1       -2 0.39785817E-01 0.53226013E+03</pdfrwt>
<totfact> 0.86026275E+02</totfact>
</mgrwt>
</event>
<event>
 4    1  0.6034452E-005  0.9186333E+03  0.7818608E-02  0.9402584E-01
          2   -1    0    0  501    0  0.00000000000E+00  0.00000000000E+00  0.23450450858E+04  0.23450450858E+04  0.25500000000E-02 0. -1.
         -2   -1    0    0    0  501 -0.00000000000E+00 -0.00000000000E+00 -0.89964916366E+02  0.89964916402E+02  0.25500000000E-02 0.  1.
    5000001    1    1    2    0    0  0.36131388832E+03  0.17591035387E+02  0.16884008929E+04  0.17369222048E+04  0.18800000000E+03 0.  0.
   -5000001    1    1    2    0    0 -0.36131388832E+03 -0.17591035387E+02  0.56667927657E+03  0.69808779742E+03  0.18800000000E+03 0.  0.
<mgrwt>
<rscale>  0 0.91863330E+03</rscale>
<asrwt>0</asrwt>
<pdfrwt beam="1">  1        2 0.33500643E+00 0.91863330E+03</pdfrwt>
<pdfrwt beam="2">  1       -2 0.12852131E-01 0.91863330E+03</pdfrwt>
<totfact> 0.24494811E+02</totfact>
</mgrwt>
</event>
<event>
 4    1  0.6034452E-005  0.1110287E+04  0.7818608E-02  0.9195223E-01
         -2   -1    0    0    0  501 -0.00000000000E+00  0.00000000000E+00  0.14305287311E+03  0.14305287313E+03  0.25500000000E-02 0. -1.
          2   -1    0    0  501    0  0.00000000000E+00 -0.00000000000E+00 -0.21543371980E+04  0.21543371980E+04  0.25500000000E-02 0.  1.
    5000001    1    1    2    0    0  0.46458914653E+03 -0.11586757823E+03 -0.57372333196E+03  0.77056526809E+03  0.18800000000E+03 0.  0.
   -5000001    1    1    2    0    0 -0.46458914653E+03  0.11586757823E+03 -0.14375609929E+04  0.15268248030E+04  0.18800000000E+03 0.  0.
<mgrwt>
<rscale>  0 0.11102867E+04</rscale>
<asrwt>0</asrwt>
<pdfrwt beam="1">  1        2 0.30776244E+00 0.11102867E+04</pdfrwt>
<pdfrwt beam="2">  1       -2 0.20436126E-01 0.11102867E+04</pdfrwt>
<totfact> 0.13665101E+02</totfact>
</mgrwt>
</event>
<event>
 4    1  0.6034452E-005  0.5620748E+03  0.7818608E-02  0.9987371E-01
         -2   -1    0    0    0  501 -0.00000000000E+00  0.00000000000E+00  0.24465962236E+03  0.24465962237E+03  0.25500000000E-02 0. -1.
          2   -1    0    0  501    0  0.00000000000E+00 -0.00000000000E+00 -0.32282412483E+03  0.32282412484E+03  0.25500000000E-02 0.  1.
    5000001    1    1    2    0    0  0.13218808357E+03 -0.96884604431E+02 -0.16985753287E+03  0.30175469754E+03  0.18800000000E+03 0.  0.
   -5000001    1    1    2    0    0 -0.13218808357E+03  0.96884604431E+02  0.91693030404E+02  0.26572904967E+03  0.18800000000E+03 0.  0.
<mgrwt>
<rscale>  0 0.56207483E+03</rscale>
<asrwt>0</asrwt>
<pdfrwt beam="1">  1        2 0.46117732E-01 0.56207483E+03</pdfrwt>
<pdfrwt beam="2">  1       -2 0.34951375E-01 0.56207483E+03</pdfrwt>
<totfact> 0.84712975E+02</totfact>
</mgrwt>
</event>
<event>
 4    1  0.6034452E-005  0.7054613E+03  0.7818608E-02  0.9707938E-01
         -2   -1    0    0    0  501 -0.00000000000E+00  0.00000000000E+00  0.54952264916E+03  0.54952264917E+03  0.25500000000E-02 0. -1.
          2   -1    0    0  501    0  0.00000000000E+00 -0.00000000000E+00 -0.22641267768E+03  0.22641267769E+03  0.25500000000E-02 0.  1.
    5000001    1    1    2    0    0  0.17294919468E+03  0.23945728413E+03  0.11458432938E+03  0.36840844643E+03  0.18800000000E+03 0.  0.
   -5000001    1    1    2    0    0 -0.17294919468E+03 -0.23945728413E+03  0.20852564210E+03  0.40752688043E+03  0.18800000000E+03 0.  0.
<mgrwt>
<rscale>  0 0.70546125E+03</rscale>
<asrwt>0</asrwt>
<pdfrwt beam="1">  1        2 0.32344669E-01 0.70546125E+03</pdfrwt>
<pdfrwt beam="2">  1       -2 0.78503233E-01 0.70546125E+03</pdfrwt>
<totfact> 0.23795354E+02</totfact>
</mgrwt>
</event>
<event>
 4    1  0.6034452E-005  0.1189260E+04  0.7818608E-02  0.9122309E-01
          2   -1    0    0  501    0  0.00000000000E+00  0.00000000000E+00  0.50485463866E+03  0.50485463867E+03  0.25500000000E-02 0.  1.
         -2   -1    0    0    0  501 -0.00000000000E+00 -0.00000000000E+00 -0.70037004264E+03  0.70037004264E+03  0.25500000000E-02 0. -1.
    5000001    1    1    2    0    0  0.38199240544E+03  0.37213185040E+03 -0.28418567322E+03  0.63285528263E+03  0.18800000000E+03 0.  0.
   -5000001    1    1    2    0    0 -0.38199240544E+03 -0.37213185040E+03  0.88670269240E+02  0.57236939868E+03  0.18800000000E+03 0.  0.
<mgrwt>
<rscale>  0 0.11892604E+04</rscale>
<asrwt>0</asrwt>
<pdfrwt beam="1">  1        2 0.72122092E-01 0.11892604E+04</pdfrwt>
<pdfrwt beam="2">  1       -2 0.10005286E+00 0.11892604E+04</pdfrwt>
<totfact> 0.54154923E+01</totfact>
</mgrwt>
</event>
<event>
 4    1  0.6034452E-005  0.4342578E+03  0.7818608E-02  0.1032523E+00
         -2   -1    0    0    0  501 -0.00000000000E+00  0.00000000000E+00  0.40559774016E+03  0.40559774017E+03  0.25500000000E-02 0. -1.
          2   -1    0    0  501    0  0.00000000000E+00 -0.00000000000E+00 -0.11623576622E+03  0.11623576625E+03  0.25500000000E-02 0.  1.
    5000001    1    1    2    0    0 -0.10263514184E+03  0.12909298227E+02  0.10481999383E+03  0.23881342807E+03  0.18800000000E+03 0.  0.
   -5000001    1    1    2    0    0  0.10263514184E+03 -0.12909298227E+02  0.18454198011E+03  0.28302007834E+03  0.18800000000E+03 0.  0.
<mgrwt>
<rscale>  0 0.43425782E+03</rscale>
<asrwt>0</asrwt>
<pdfrwt beam="1">  1        2 0.16605109E-01 0.43425782E+03</pdfrwt>
<pdfrwt beam="2">  1       -2 0.57942535E-01 0.43425782E+03</pdfrwt>
<totfact> 0.98973561E+02</totfact>
</mgrwt>
</event>
<event>
 4    1  0.6034452E-005  0.9270224E+03  0.7818608E-02  0.9392419E-01
         -2   -1    0    0    0  501 -0.00000000000E+00  0.00000000000E+00  0.13825190107E+03  0.13825190110E+03  0.25500000000E-02 0. -1.
          2   -1    0    0  501    0  0.00000000000E+00 -0.00000000000E+00 -0.15539941885E+04  0.15539941885E+04  0.25500000000E-02 0.  1.
    5000001    1    1    2    0    0 -0.11479253851E+03 -0.33438940942E+03 -0.11340497363E+04  0.12026663745E+04  0.18800000000E+03 0.  0.
   -5000001    1    1    2    0    0  0.11479253851E+03  0.33438940942E+03 -0.28169255110E+03  0.48957971504E+03  0.18800000000E+03 0.  0.
<mgrwt>
<rscale>  0 0.92702244E+03</rscale>
<asrwt>0</asrwt>
<pdfrwt beam="1">  1        2 0.22199916E+00 0.92702244E+03</pdfrwt>
<pdfrwt beam="2">  1       -2 0.19750273E-01 0.92702244E+03</pdfrwt>
<totfact> 0.29894517E+02</totfact>
</mgrwt>
</event>
<event>
 4    1  0.6034452E-005  0.3865042E+03  0.7818608E-02  0.1048556E+00
          2   -1    0    0  501    0  0.00000000000E+00  0.00000000000E+00  0.25031096491E+03  0.25031096493E+03  0.25500000000E-02 0. -1.
         -2   -1    0    0    0  501 -0.00000000000E+00 -0.00000000000E+00 -0.14919994183E+03  0.14919994185E+03  0.25500000000E-02 0.  1.
    5000001    1    1    2    0    0 -0.37498577843E+00  0.29927284126E+02  0.16170481233E+02  0.19105304869E+03  0.18800000000E+03 0.  0.
   -5000001    1    1    2    0    0  0.37498577843E+00 -0.29927284126E+02  0.84940541851E+02  0.20845785809E+03  0.18800000000E+03 0.  0.
<mgrwt>
<rscale>  0 0.38650424E+03</rscale>
<asrwt>0</asrwt>
<pdfrwt beam="1">  1        2 0.35758709E-01 0.38650424E+03</pdfrwt>
<pdfrwt beam="2">  1       -2 0.21314278E-01 0.38650424E+03</pdfrwt>
<totfact> 0.27374363E+03</totfact>
</mgrwt>
</event>
<event>
 4    1  0.6034452E-005  0.5787730E+03  0.7818608E-02  0.9950451E-01
          2   -1    0    0  501    0  0.00000000000E+00  0.00000000000E+00  0.18592322437E+04  0.18592322437E+04  0.25500000000E-02 0.  1.
         -2   -1    0    0    0  501 -0.00000000000E+00 -0.00000000000E+00 -0.45042543885E+02  0.45042543957E+02  0.25500000000E-02 0. -1.
    5000001    1    1    2    0    0 -0.14516471735E+03 -0.58965536103E+02  0.39896699136E+03  0.46804742260E+03  0.18800000000E+03 0.  0.
   -5000001    1    1    2    0    0  0.14516471735E+03  0.58965536103E+02  0.14152227084E+04  0.14362273650E+04  0.18800000000E+03 0.  0.
<mgrwt>
<rscale>  0 0.57877301E+03</rscale>
<asrwt>0</asrwt>
<pdfrwt beam="1">  1        2 0.26560453E+00 0.57877301E+03</pdfrwt>
<pdfrwt beam="2">  1       -2 0.64346511E-02 0.57877301E+03</pdfrwt>
<totfact> 0.13508225E+03</totfact>
</mgrwt>
</event>
<event>
 4    1  0.6034452E-005  0.4846376E+03  0.7818608E-02  0.1017868E+00
          2   -1    0    0  501    0  0.00000000000E+00  0.00000000000E+00  0.19856787039E+04  0.19856787039E+04  0.25500000000E-02 0.  1.
         -2   -1    0    0    0  501 -0.00000000000E+00 -0.00000000000E+00 -0.29570944793E+02  0.29570944903E+02  0.25500000000E-02 0. -1.
    5000001    1    1    2    0    0  0.61931387889E+01  0.15201888304E+03  0.10406076846E+04  0.10683428519E+04  0.18800000000E+03 0.  0.
   -5000001    1    1    2    0    0 -0.61931387889E+01 -0.15201888304E+03  0.91550007446E+03  0.94690679695E+03  0.18800000000E+03 0.  0.
<mgrwt>
<rscale>  0 0.48463758E+03</rscale>
<asrwt>0</asrwt>
<pdfrwt beam="1">  1        2 0.28366836E+00 0.48463758E+03</pdfrwt>
<pdfrwt beam="2">  1       -2 0.42244211E-02 0.48463758E+03</pdfrwt>
<totfact> 0.22513948E+03</totfact>
</mgrwt>
</event>
<event>
 4    1  0.6034452E-005  0.9547455E+03  0.7818608E-02  0.9359621E-01
          2   -1    0    0  501    0  0.00000000000E+00  0.00000000000E+00  0.60403821327E+03  0.60403821328E+03  0.25500000000E-02 0. -1.
         -2   -1    0    0    0  501 -0.00000000000E+00 -0.00000000000E+00 -0.37726877943E+03  0.37726877944E+03  0.25500000000E-02 0.  1.
    5000001    1    1    2    0    0 -0.17833997375E+03 -0.12095426541E+03  0.50625647075E+03  0.58144191002E+03  0.18800000000E+03 0.  0.
   -5000001    1    1    2    0    0  0.17833997375E+03  0.12095426541E+03 -0.27948703691E+03  0.39986508269E+03  0.18800000000E+03 0.  0.
<mgrwt>
<rscale>  0 0.95474554E+03</rscale>
<asrwt>0</asrwt>
<pdfrwt beam="1">  1        2 0.86291174E-01 0.95474554E+03</pdfrwt>
<pdfrwt beam="2">  1       -2 0.53895539E-01 0.95474554E+03</pdfrwt>
<totfact> 0.17468454E+02</totfact>
</mgrwt>
</event>
<event>
 4    1  0.6034452E-005  0.1066409E+04  0.7818608E-02  0.9238565E-01
          2   -1    0    0  501    0  0.00000000000E+00  0.00000000000E+00  0.11007769797E+04  0.11007769797E+04  0.25500000000E-02 0.  1.
         -2   -1    0    0    0  501 -0.00000000000E+00 -0.00000000000E+00 -0.25827836112E+03  0.25827836113E+03  0.25500000000E-02 0. -1.
    5000001    1    1    2    0    0  0.50080596631E+02 -0.49097299522E+03  0.51490268981E+03  0.73758479388E+03  0.18800000000E+03 0.  0.
   -5000001    1    1    2    0    0 -0.50080596631E+02  0.49097299522E+03  0.32759592879E+03  0.62147054697E+03  0.18800000000E+03 0.  0.
<mgrwt>
<rscale>  0 0.10664087E+04</rscale>
<asrwt>0</asrwt>
<pdfrwt beam="1">  1        2 0.15725386E+00 0.10664087E+04</pdfrwt>
<pdfrwt beam="2">  1       -2 0.36896908E-01 0.10664087E+04</pdfrwt>
<totfact> 0.16774617E+02</totfact>
</mgrwt>
</event>
<event>
 4    1  0.6034452E-005  0.3949959E+03  0.7818608E-02  0.1045526E+00
          2   -1    0    0  501    0  0.00000000000E+00  0.00000000000E+00  0.66502537115E+03  0.66502537115E+03  0.25500000000E-02 0.  1.
         -2   -1    0    0    0  501 -0.00000000000E+00 -0.00000000000E+00 -0.58652572310E+02  0.58652572366E+02  0.25500000000E-02 0. -1.
    5000001    1    1    2    0    0 -0.52384067011E+02 -0.28048722457E+02  0.28224673030E+03  0.34429353475E+03  0.18800000000E+03 0.  0.
   -5000001    1    1    2    0    0  0.52384067011E+02  0.28048722457E+02  0.32412606854E+03  0.37938440877E+03  0.18800000000E+03 0.  0.
<mgrwt>
<rscale>  0 0.39499594E+03</rscale>
<asrwt>0</asrwt>
<pdfrwt beam="1">  1        2 0.95003623E-01 0.39499594E+03</pdfrwt>
<pdfrwt beam="2">  1       -2 0.83789391E-02 0.39499594E+03</pdfrwt>
<totfact> 0.43165859E+03</totfact>
</mgrwt>
</event>
<event>
 4    1  0.6034452E-005  0.4380500E+03  0.7818608E-02  0.1031347E+00
          2   -1    0    0  501    0  0.00000000000E+00  0.00000000000E+00  0.77577327309E+03  0.77577327310E+03  0.25500000000E-02 0.  1.
         -2   -1    0    0    0  501 -0.00000000000E+00 -0.00000000000E+00 -0.61837585933E+02  0.61837585986E+02  0.25500000000E-02 0. -1.
    5000001    1    1    2    0    0 -0.99992487682E+01  0.11187658308E+03  0.36347799626E+03  0.42435434319E+03  0.18800000000E+03 0.  0.
   -5000001    1    1    2    0    0  0.99992487682E+01 -0.11187658308E+03  0.35045769090E+03  0.41325651589E+03  0.18800000000E+03 0.  0.
<mgrwt>
<rscale>  0 0.43804998E+03</rscale>
<asrwt>0</asrwt>
<pdfrwt beam="1">  1        2 0.11082475E+00 0.43804998E+03</pdfrwt>
<pdfrwt beam="2">  1       -2 0.88339412E-02 0.43804998E+03</pdfrwt>
<totfact> 0.32951761E+03</totfact>
</mgrwt>
</event>
<event>
 4    1  0.6034452E-005  0.4554582E+03  0.7818608E-02  0.1026107E+00
          2   -1    0    0  501    0  0.00000000000E+00  0.00000000000E+00  0.86280656651E+03  0.86280656651E+03  0.25500000000E-02 0.  1.
         -2   -1    0    0    0  501 -0.00000000000E+00 -0.00000000000E+00 -0.60106796184E+02  0.60106796238E+02  0.25500000000E-02 0. -1.
    5000001    1    1    2    0    0 -0.49613380351E+01  0.12818263086E+03  0.41719383850E+03  0.47523688895E+03  0.18800000000E+03 0.  0.
   -5000001    1    1    2    0    0  0.49613380351E+01 -0.12818263086E+03  0.38550593182E+03  0.44767647381E+03  0.18800000000E+03 0.  0.
<mgrwt>
<rscale>  0 0.45545818E+03</rscale>
<asrwt>0</asrwt>
<pdfrwt beam="1">  1        2 0.12325808E+00 0.45545818E+03</pdfrwt>
<pdfrwt beam="2">  1       -2 0.85866850E-02 0.45545818E+03</pdfrwt>
<totfact> 0.30116532E+03</totfact>
</mgrwt>
</event>
<event>
 4    1  0.6034452E-005  0.6592951E+03  0.7818608E-02  0.9789492E-01
          2   -1    0    0  501    0  0.00000000000E+00  0.00000000000E+00  0.49468509299E+04  0.49468509299E+04  0.25500000000E-02 0.  1.
         -2   -1    0    0    0  501 -0.00000000000E+00 -0.00000000000E+00 -0.21967004347E+02  0.21967004495E+02  0.25500000000E-02 0. -1.
    5000001    1    1    2    0    0 -0.20357687309E+03 -0.10283316590E+03  0.13623803421E+04  0.13940740295E+04  0.18800000000E+03 0.  0.
   -5000001    1    1    2    0    0  0.20357687309E+03  0.10283316590E+03  0.35625035835E+04  0.35747439049E+04  0.18800000000E+03 0.  0.
<mgrwt>
<rscale>  0 0.65929507E+03</rscale>
<asrwt>0</asrwt>
<pdfrwt beam="1">  1        2 0.70669331E+00 0.65929507E+03</pdfrwt>
<pdfrwt beam="2">  1       -2 0.31381421E-02 0.65929507E+03</pdfrwt>
<totfact> 0.48683660E+01</totfact>
</mgrwt>
</event>
<event>
 4    1  0.6034452E-005  0.6269185E+03  0.7818608E-02  0.9851081E-01
          2   -1    0    0  501    0  0.00000000000E+00  0.00000000000E+00  0.19122583075E+03  0.19122583077E+03  0.25500000000E-02 0.  1.
         -2   -1    0    0    0  501 -0.00000000000E+00 -0.00000000000E+00 -0.51382551680E+03  0.51382551681E+03  0.25500000000E-02 0. -1.
    5000001    1    1    2    0    0  0.16074988495E+03  0.16556621695E+03 -0.50765175680E+02  0.30194999713E+03  0.18800000000E+03 0.  0.
   -5000001    1    1    2    0    0 -0.16074988495E+03 -0.16556621695E+03 -0.27183451037E+03  0.40310135045E+03  0.18800000000E+03 0.  0.
<mgrwt>
<rscale>  0 0.62691853E+03</rscale>
<asrwt>0</asrwt>
<pdfrwt beam="1">  1        2 0.27317976E-01 0.62691853E+03</pdfrwt>
<pdfrwt beam="2">  1       -2 0.73403645E-01 0.62691853E+03</pdfrwt>
<totfact> 0.33479734E+02</totfact>
</mgrwt>
</event>
<event>
 4    1  0.6034452E-005  0.4335051E+03  0.7818608E-02  0.1032758E+00
         -2   -1    0    0    0  501 -0.00000000000E+00  0.00000000000E+00  0.50292206123E+02  0.50292206188E+02  0.25500000000E-02 0. -1.
          2   -1    0    0  501    0  0.00000000000E+00 -0.00000000000E+00 -0.93417375183E+03  0.93417375183E+03  0.25500000000E-02 0.  1.
    5000001    1    1    2    0    0 -0.22630240781E+02 -0.10341882468E+03 -0.39484520295E+03  0.44994923646E+03  0.18800000000E+03 0.  0.
   -5000001    1    1    2    0    0  0.22630240781E+02  0.10341882468E+03 -0.48903634275E+03  0.53451672156E+03  0.18800000000E+03 0.  0.
<mgrwt>
<rscale>  0 0.43350506E+03</rscale>
<asrwt>0</asrwt>
<pdfrwt beam="1">  1        2 0.13345338E+00 0.43350506E+03</pdfrwt>
<pdfrwt beam="2">  1       -2 0.71846015E-02 0.43350506E+03</pdfrwt>
<totfact> 0.35925942E+03</totfact>
</mgrwt>
</event>
<event>
 4    1  0.6034452E-005  0.5377644E+03  0.7818608E-02  0.1004366E+00
          2   -1    0    0  501    0  0.00000000000E+00  0.00000000000E+00  0.11036502227E+04  0.11036502227E+04  0.25500000000E-02 0.  1.
         -2   -1    0    0    0  501 -0.00000000000E+00 -0.00000000000E+00 -0.65507738459E+02  0.65507738509E+02  0.25500000000E-02 0. -1.
    5000001    1    1    2    0    0  0.14888977603E+03  0.74105858793E+02  0.30947788720E+03  0.39847259175E+03  0.18800000000E+03 0.  0.
   -5000001    1    1    2    0    0 -0.14888977603E+03 -0.74105858793E+02  0.72866459708E+03  0.77068536949E+03  0.18800000000E+03 0.  0.
<mgrwt>
<rscale>  0 0.53776437E+03</rscale>
<asrwt>0</asrwt>
<pdfrwt beam="1">  1        2 0.15766432E+00 0.53776437E+03</pdfrwt>
<pdfrwt beam="2">  1       -2 0.93582482E-02 0.53776437E+03</pdfrwt>
<totfact> 0.18684492E+03</totfact>
</mgrwt>
</event>
<event>
 4    1  0.6034452E-005  0.7447924E+03  0.7818608E-02  0.9643556E-01
          2   -1    0    0  501    0  0.00000000000E+00  0.00000000000E+00  0.13120036429E+04  0.13120036429E+04  0.25500000000E-02 0.  1.
         -2   -1    0    0    0  501 -0.00000000000E+00 -0.00000000000E+00 -0.10570010619E+03  0.10570010622E+03  0.25500000000E-02 0. -1.
    5000001    1    1    2    0    0  0.11951310221E+03  0.29813657182E+03  0.62768590743E+03  0.72972761729E+03  0.18800000000E+03 0.  0.
   -5000001    1    1    2    0    0 -0.11951310221E+03 -0.29813657182E+03  0.57861762933E+03  0.68797613188E+03  0.18800000000E+03 0.  0.
<mgrwt>
<rscale>  0 0.74479239E+03</rscale>
<asrwt>0</asrwt>
<pdfrwt beam="1">  1        2 0.18742910E+00 0.74479239E+03</pdfrwt>
<pdfrwt beam="2">  1       -2 0.15100015E-01 0.74479239E+03</pdfrwt>
<totfact> 0.64484772E+02</totfact>
</mgrwt>
</event>
<event>
 4    1  0.6034452E-005  0.1038700E+04  0.7818608E-02  0.9267089E-01
          2   -1    0    0  501    0  0.00000000000E+00  0.00000000000E+00  0.71500048881E+03  0.71500048882E+03  0.25500000000E-02 0.  1.
         -2   -1    0    0    0  501 -0.00000000000E+00 -0.00000000000E+00 -0.37723666442E+03  0.37723666443E+03  0.25500000000E-02 0. -1.
    5000001    1    1    2    0    0  0.10755219788E+03 -0.46281253874E+03  0.26649699532E+03  0.57630510131E+03  0.18800000000E+03 0.  0.
   -5000001    1    1    2    0    0 -0.10755219788E+03  0.46281253874E+03  0.71266829068E+02  0.51593205193E+03  0.18800000000E+03 0.  0.
<mgrwt>
<rscale>  0 0.10387000E+04</rscale>
<asrwt>0</asrwt>
<pdfrwt beam="1">  1        2 0.10214293E+00 0.10387000E+04</pdfrwt>
<pdfrwt beam="2">  1       -2 0.53890953E-01 0.10387000E+04</pdfrwt>
<totfact> 0.14168234E+02</totfact>
</mgrwt>
</event>
<event>
 4    1  0.6034452E-005  0.5669184E+03  0.7818608E-02  0.9976521E-01
          2   -1    0    0  501    0  0.00000000000E+00  0.00000000000E+00  0.21828710589E+03  0.21828710591E+03  0.25500000000E-02 0. -1.
         -2   -1    0    0    0  501 -0.00000000000E+00 -0.00000000000E+00 -0.36808919606E+03  0.36808919607E+03  0.25500000000E-02 0.  1.
    5000001    1    1    2    0    0 -0.19533446862E+03 -0.35583230104E+02  0.23857647481E+01  0.27344361899E+03  0.18800000000E+03 0.  0.
   -5000001    1    1    2    0    0  0.19533446862E+03  0.35583230104E+02 -0.15218785492E+03  0.31293268298E+03  0.18800000000E+03 0.  0.
<mgrwt>
<rscale>  0 0.56691843E+03</rscale>
<asrwt>0</asrwt>
<pdfrwt beam="1">  1        2 0.31183872E-01 0.56691843E+03</pdfrwt>
<pdfrwt beam="2">  1       -2 0.52584171E-01 0.56691843E+03</pdfrwt>
<totfact> 0.58541574E+02</totfact>
</mgrwt>
</event>
<event>
 4    1  0.6034452E-005  0.5738483E+03  0.7818608E-02  0.9961199E-01
          2   -1    0    0  501    0  0.00000000000E+00  0.00000000000E+00  0.78498113541E+03  0.78498113542E+03  0.25500000000E-02 0.  1.
         -2   -1    0    0    0  501 -0.00000000000E+00 -0.00000000000E+00 -0.10487572100E+03  0.10487572103E+03  0.25500000000E-02 0. -1.
    5000001    1    1    2    0    0 -0.15683038095E+02 -0.21598297889E+03  0.35450468384E+03  0.45597387614E+03  0.18800000000E+03 0.  0.
   -5000001    1    1    2    0    0  0.15683038095E+02  0.21598297889E+03  0.32560073057E+03  0.43388298031E+03  0.18800000000E+03 0.  0.
<mgrwt>
<rscale>  0 0.57384828E+03</rscale>
<asrwt>0</asrwt>
<pdfrwt beam="1">  1        2 0.11214016E+00 0.57384828E+03</pdfrwt>
<pdfrwt beam="2">  1       -2 0.14982246E-01 0.57384828E+03</pdfrwt>
<totfact> 0.13695444E+03</totfact>
</mgrwt>
</event>
<event>
 4    1  0.6034452E-005  0.5656087E+03  0.7818608E-02  0.9979443E-01
         -2   -1    0    0    0  501 -0.00000000000E+00  0.00000000000E+00  0.39506957503E+02  0.39506957586E+02  0.25500000000E-02 0. -1.
          2   -1    0    0  501    0  0.00000000000E+00 -0.00000000000E+00 -0.20244105388E+04  0.20244105388E+04  0.25500000000E-02 0.  1.
    5000001    1    1    2    0    0 -0.66919642087E+02 -0.15404050578E+03 -0.52475637302E+03  0.58216833214E+03  0.18800000000E+03 0.  0.
   -5000001    1    1    2    0    0  0.66919642087E+02  0.15404050578E+03 -0.14601472083E+04  0.14817491643E+04  0.18800000000E+03 0.  0.
<mgrwt>
<rscale>  0 0.56560870E+03</rscale>
<asrwt>0</asrwt>
<pdfrwt beam="1">  1        2 0.28920144E+00 0.56560870E+03</pdfrwt>
<pdfrwt beam="2">  1       -2 0.56438524E-02 0.56560870E+03</pdfrwt>
<totfact> 0.13712400E+03</totfact>
</mgrwt>
</event>
<event>
 4    1  0.6034452E-005  0.5317522E+03  0.7818608E-02  0.1005808E+00
         -2   -1    0    0    0  501 -0.00000000000E+00  0.00000000000E+00  0.48171797216E+03  0.48171797217E+03  0.25500000000E-02 0. -1.
          2   -1    0    0  501    0  0.00000000000E+00 -0.00000000000E+00 -0.14674581229E+03  0.14674581231E+03  0.25500000000E-02 0.  1.
    5000001    1    1    2    0    0  0.17455557936E+03 -0.60207343602E+02  0.12567513512E+03  0.29194659460E+03  0.18800000000E+03 0.  0.
   -5000001    1    1    2    0    0 -0.17455557936E+03  0.60207343602E+02  0.20929702476E+03  0.33651718988E+03  0.18800000000E+03 0.  0.
<mgrwt>
<rscale>  0 0.53175218E+03</rscale>
<asrwt>0</asrwt>
<pdfrwt beam="1">  1        2 0.20963688E-01 0.53175218E+03</pdfrwt>
<pdfrwt beam="2">  1       -2 0.68816853E-01 0.53175218E+03</pdfrwt>
<totfact> 0.52302983E+02</totfact>
</mgrwt>
</event>
<event>
 4    1  0.6034452E-005  0.3997060E+03  0.7818608E-02  0.1043882E+00
          2   -1    0    0  501    0  0.00000000000E+00  0.00000000000E+00  0.77688637836E+02  0.77688637878E+02  0.25500000000E-02 0.  1.
         -2   -1    0    0    0  501 -0.00000000000E+00 -0.00000000000E+00 -0.51411919161E+03  0.51411919162E+03  0.25500000000E-02 0. -1.
    5000001    1    1    2    0    0 -0.53705337324E+02  0.19718837111E+02 -0.27209239559E+03  0.33563576617E+03  0.18800000000E+03 0.  0.
   -5000001    1    1    2    0    0  0.53705337324E+02 -0.19718837111E+02 -0.16433815819E+03  0.25617206333E+03  0.18800000000E+03 0.  0.
<mgrwt>
<rscale>  0 0.39970599E+03</rscale>
<asrwt>0</asrwt>
<pdfrwt beam="1">  1        2 0.11098377E-01 0.39970599E+03</pdfrwt>
<pdfrwt beam="2">  1       -2 0.73445597E-01 0.39970599E+03</pdfrwt>
<totfact> 0.97463269E+02</totfact>
</mgrwt>
</event>
<event>
 4    1  0.6034452E-005  0.5570960E+03  0.7818608E-02  0.9998647E-01
         -2   -1    0    0    0  501 -0.00000000000E+00  0.00000000000E+00  0.28287688913E+02  0.28287689028E+02  0.25500000000E-02 0. -1.
          2   -1    0    0  501    0  0.00000000000E+00 -0.00000000000E+00 -0.27428532777E+04  0.27428532777E+04  0.25500000000E-02 0.  1.
    5000001    1    1    2    0    0  0.18066013329E+03  0.97132753712E+02 -0.14225432859E+04  0.14494986222E+04  0.18800000000E+03 0.  0.
   -5000001    1    1    2    0    0 -0.18066013329E+03 -0.97132753712E+02 -0.12920223030E+04  0.13216423446E+04  0.18800000000E+03 0.  0.
<mgrwt>
<rscale>  0 0.55709597E+03</rscale>
<asrwt>0</asrwt>
<pdfrwt beam="1">  1        2 0.39183601E+00 0.55709597E+03</pdfrwt>
<pdfrwt beam="2">  1       -2 0.40411002E-02 0.55709597E+03</pdfrwt>
<totfact> 0.99030898E+02</totfact>
</mgrwt>
</event>
<event>
 4    1  0.6034452E-005  0.4953250E+03  0.7818608E-02  0.1015006E+00
         -2   -1    0    0    0  501 -0.00000000000E+00  0.00000000000E+00  0.52251071423E+02  0.52251071485E+02  0.25500000000E-02 0. -1.
          2   -1    0    0  501    0  0.00000000000E+00 -0.00000000000E+00 -0.11738841779E+04  0.11738841780E+04  0.25500000000E-02 0.  1.
    5000001    1    1    2    0    0  0.15911870013E+03  0.12341451415E+02 -0.61735333267E+03  0.66478583733E+03  0.18800000000E+03 0.  0.
   -5000001    1    1    2    0    0 -0.15911870013E+03 -0.12341451415E+02 -0.50427977385E+03  0.56134941211E+03  0.18800000000E+03 0.  0.
<mgrwt>
<rscale>  0 0.49532497E+03</rscale>
<asrwt>0</asrwt>
<pdfrwt beam="1">  1        2 0.16769772E+00 0.49532497E+03</pdfrwt>
<pdfrwt beam="2">  1       -2 0.74644395E-02 0.49532497E+03</pdfrwt>
<totfact> 0.24442346E+03</totfact>
</mgrwt>
</event>
<event>
 4    1  0.6034452E-005  0.7624732E+03  0.7818608E-02  0.9615983E-01
         -2   -1    0    0    0  501 -0.00000000000E+00  0.00000000000E+00  0.11310815604E+03  0.11310815607E+03  0.25500000000E-02 0. -1.
          2   -1    0    0  501    0  0.00000000000E+00 -0.00000000000E+00 -0.12849766211E+04  0.12849766211E+04  0.25500000000E-02 0.  1.
    5000001    1    1    2    0    0 -0.29947463989E+03  0.14205173993E+03 -0.60712656426E+03  0.71680570714E+03  0.18800000000E+03 0.  0.
   -5000001    1    1    2    0    0  0.29947463989E+03 -0.14205173993E+03 -0.56474190081E+03  0.68127907005E+03  0.18800000000E+03 0.  0.
<mgrwt>
<rscale>  0 0.76247318E+03</rscale>
<asrwt>0</asrwt>
<pdfrwt beam="1">  1        2 0.18356808E+00 0.76247318E+03</pdfrwt>
<pdfrwt beam="2">  1       -2 0.16158309E-01 0.76247318E+03</pdfrwt>
<totfact> 0.59427743E+02</totfact>
</mgrwt>
</event>
<event>
 4    1  0.6034452E-005  0.1367506E+04  0.7818608E-02  0.8977681E-01
         -2   -1    0    0    0  501 -0.00000000000E+00  0.00000000000E+00  0.74927908444E+03  0.74927908445E+03  0.25500000000E-02 0. -1.
          2   -1    0    0  501    0  0.00000000000E+00 -0.00000000000E+00 -0.62395759176E+03  0.62395759176E+03  0.25500000000E-02 0.  1.
    5000001    1    1    2    0    0 -0.16246492215E+03  0.63552635145E+03  0.19053222430E+02  0.68263871822E+03  0.18800000000E+03 0.  0.
   -5000001    1    1    2    0    0  0.16246492215E+03 -0.63552635145E+03  0.10626827025E+03  0.69059795799E+03  0.18800000000E+03 0.  0.
<mgrwt>
<rscale>  0 0.13675063E+04</rscale>
<asrwt>0</asrwt>
<pdfrwt beam="1">  1        2 0.89136798E-01 0.13675063E+04</pdfrwt>
<pdfrwt beam="2">  1       -2 0.10703987E+00 0.13675063E+04</pdfrwt>
<totfact> 0.35511830E+01</totfact>
</mgrwt>
</event>
<event>
 4    1  0.6034452E-005  0.7145504E+03  0.7818608E-02  0.9692668E-01
         -2   -1    0    0    0  501 -0.00000000000E+00  0.00000000000E+00  0.46501233253E+03  0.46501233253E+03  0.25500000000E-02 0. -1.
          2   -1    0    0  501    0  0.00000000000E+00 -0.00000000000E+00 -0.27449929508E+03  0.27449929509E+03  0.25500000000E-02 0.  1.
    5000001    1    1    2    0    0 -0.18258488430E+03 -0.14165220952E+03 -0.10886143444E+03  0.31717093238E+03  0.18800000000E+03 0.  0.
   -5000001    1    1    2    0    0  0.18258488430E+03  0.14165220952E+03  0.29937447189E+03  0.42234069524E+03  0.18800000000E+03 0.  0.
<mgrwt>
<rscale>  0 0.71455037E+03</rscale>
<asrwt>0</asrwt>
<pdfrwt beam="1">  1        2 0.39214185E-01 0.71455037E+03</pdfrwt>
<pdfrwt beam="2">  1       -2 0.66430333E-01 0.71455037E+03</pdfrwt>
<totfact> 0.27676220E+02</totfact>
</mgrwt>
</event>
<event>
 4    1  0.6034452E-005  0.4923236E+03  0.7818608E-02  0.1015802E+00
          2   -1    0    0  501    0  0.00000000000E+00  0.00000000000E+00  0.66193279842E+03  0.66193279842E+03  0.25500000000E-02 0. -1.
         -2   -1    0    0    0  501 -0.00000000000E+00 -0.00000000000E+00 -0.91543490402E+02  0.91543490437E+02  0.25500000000E-02 0.  1.
    5000001    1    1    2    0    0 -0.13969178260E+03 -0.12340709873E+02  0.39957514129E+03  0.46332535090E+03  0.18800000000E+03 0.  0.
   -5000001    1    1    2    0    0  0.13969178260E+03  0.12340709873E+02  0.17081416672E+03  0.29015093796E+03  0.18800000000E+03 0.  0.
<mgrwt>
<rscale>  0 0.49232363E+03</rscale>
<asrwt>0</asrwt>
<pdfrwt beam="1">  1        2 0.94561828E-01 0.49232363E+03</pdfrwt>
<pdfrwt beam="2">  1       -2 0.13077642E-01 0.49232363E+03</pdfrwt>
<totfact> 0.21192699E+03</totfact>
</mgrwt>
</event>
<event>
 4    1  0.6034452E-005  0.6960979E+03  0.7818608E-02  0.9723929E-01
         -2   -1    0    0    0  501 -0.00000000000E+00  0.00000000000E+00  0.91169960425E+02  0.91169960461E+02  0.25500000000E-02 0. -1.
          2   -1    0    0  501    0  0.00000000000E+00 -0.00000000000E+00 -0.13287060607E+04  0.13287060607E+04  0.25500000000E-02 0.  1.
    5000001    1    1    2    0    0  0.82500838600E+02 -0.27914423882E+03 -0.55216466807E+03  0.65188780868E+03  0.18800000000E+03 0.  0.
   -5000001    1    1    2    0    0 -0.82500838600E+02  0.27914423882E+03 -0.68537143223E+03  0.76798821251E+03  0.18800000000E+03 0.  0.
<mgrwt>
<rscale>  0 0.69609792E+03</rscale>
<asrwt>0</asrwt>
<pdfrwt beam="1">  1        2 0.18981514E+00 0.69609792E+03</pdfrwt>
<pdfrwt beam="2">  1       -2 0.13024281E-01 0.69609792E+03</pdfrwt>
<totfact> 0.81096701E+02</totfact>
</mgrwt>
</event>
<event>
 4    1  0.6034452E-005  0.4553064E+03  0.7818608E-02  0.1026151E+00
         -2   -1    0    0    0  501 -0.00000000000E+00  0.00000000000E+00  0.13488782773E+02  0.13488783014E+02  0.25500000000E-02 0. -1.
          2   -1    0    0  501    0  0.00000000000E+00 -0.00000000000E+00 -0.38421536771E+04  0.38421536771E+04  0.25500000000E-02 0.  1.
    5000001    1    1    2    0    0  0.97014532877E+02 -0.54421403885E+02 -0.24571238561E+04  0.24668147788E+04  0.18800000000E+03 0.  0.
   -5000001    1    1    2    0    0 -0.97014532877E+02  0.54421403885E+02 -0.13715410383E+04  0.13888276814E+04  0.18800000000E+03 0.  0.
<mgrwt>
<rscale>  0 0.45530639E+03</rscale>
<asrwt>0</asrwt>
<pdfrwt beam="1">  1        2 0.54887840E+00 0.45530639E+03</pdfrwt>
<pdfrwt beam="2">  1       -2 0.19269714E-02 0.45530639E+03</pdfrwt>
<totfact> 0.72123571E+02</totfact>
</mgrwt>
</event>
<event>
 4    1  0.6034452E-005  0.5302173E+03  0.7818608E-02  0.1006179E+00
          2   -1    0    0  501    0  0.00000000000E+00  0.00000000000E+00  0.14814106553E+04  0.14814106553E+04  0.25500000000E-02 0.  1.
         -2   -1    0    0    0  501 -0.00000000000E+00 -0.00000000000E+00 -0.47443028375E+02  0.47443028444E+02  0.25500000000E-02 0. -1.
    5000001    1    1    2    0    0 -0.17676702498E+03 -0.51738204451E+02  0.62511151812E+03  0.67825646551E+03  0.18800000000E+03 0.  0.
   -5000001    1    1    2    0    0  0.17676702498E+03  0.51738204451E+02  0.80885610880E+03  0.85059721823E+03  0.18800000000E+03 0.  0.
<mgrwt>
<rscale>  0 0.53021734E+03</rscale>
<asrwt>0</asrwt>
<pdfrwt beam="1">  1        2 0.21163006E+00 0.53021734E+03</pdfrwt>
<pdfrwt beam="2">  1       -2 0.67775767E-02 0.53021734E+03</pdfrwt>
<totfact> 0.19429503E+03</totfact>
</mgrwt>
</event>
<event>
 4    1  0.6034452E-005  0.4788507E+03  0.7818608E-02  0.1019452E+00
          2   -1    0    0  501    0  0.00000000000E+00  0.00000000000E+00  0.15910998871E+03  0.15910998873E+03  0.25500000000E-02 0.  1.
         -2   -1    0    0    0  501 -0.00000000000E+00 -0.00000000000E+00 -0.36028216218E+03  0.36028216219E+03  0.25500000000E-02 0. -1.
    5000001    1    1    2    0    0  0.56825128246E+02  0.12748022314E+03 -0.46350837468E+02  0.23868955282E+03  0.18800000000E+03 0.  0.
   -5000001    1    1    2    0    0 -0.56825128246E+02 -0.12748022314E+03 -0.15482133600E+03  0.28070259809E+03  0.18800000000E+03 0.  0.
<mgrwt>
<rscale>  0 0.47885067E+03</rscale>
<asrwt>0</asrwt>
<pdfrwt beam="1">  1        2 0.22729999E-01 0.47885067E+03</pdfrwt>
<pdfrwt beam="2">  1       -2 0.51468880E-01 0.47885067E+03</pdfrwt>
<totfact> 0.87529554E+02</totfact>
</mgrwt>
</event>
<event>
 4    1  0.6034452E-005  0.4860718E+03  0.7818608E-02  0.1017480E+00
          2   -1    0    0  501    0  0.00000000000E+00  0.00000000000E+00  0.26921021894E+04  0.26921021894E+04  0.25500000000E-02 0.  1.
         -2   -1    0    0    0  501 -0.00000000000E+00 -0.00000000000E+00 -0.21940637901E+02  0.21940638049E+02  0.25500000000E-02 0. -1.
    5000001    1    1    2    0    0  0.10641072820E+03 -0.75748362928E+02  0.87936037242E+03  0.90866920391E+03  0.18800000000E+03 0.  0.
   -5000001    1    1    2    0    0 -0.10641072820E+03  0.75748362928E+02  0.17908011790E+04  0.18053736235E+04  0.18800000000E+03 0.  0.
<mgrwt>
<rscale>  0 0.48607176E+03</rscale>
<asrwt>0</asrwt>
<pdfrwt beam="1">  1        2 0.38458598E+00 0.48607176E+03</pdfrwt>
<pdfrwt beam="2">  1       -2 0.31343773E-02 0.48607176E+03</pdfrwt>
<totfact> 0.15591146E+03</totfact>
</mgrwt>
</event>
<event>
 4    1  0.6034452E-005  0.4167948E+03  0.7818608E-02  0.1038115E+00
         -2   -1    0    0    0  501 -0.00000000000E+00  0.00000000000E+00  0.32318223911E+02  0.32318224012E+02  0.25500000000E-02 0. -1.
          2   -1    0    0  501    0  0.00000000000E+00 -0.00000000000E+00 -0.13438078045E+04  0.13438078045E+04  0.25500000000E-02 0.  1.
    5000001    1    1    2    0    0 -0.57232381795E+02 -0.33586880636E+02 -0.85608557921E+03  0.87899382422E+03  0.18800000000E+03 0.  0.
   -5000001    1    1    2    0    0  0.57232381795E+02  0.33586880636E+02 -0.45540400134E+03  0.49713220426E+03  0.18800000000E+03 0.  0.
<mgrwt>
<rscale>  0 0.41679483E+03</rscale>
<asrwt>0</asrwt>
<pdfrwt beam="1">  1        2 0.19197251E+00 0.41679483E+03</pdfrwt>
<pdfrwt beam="2">  1       -2 0.46168900E-02 0.41679483E+03</pdfrwt>
<totfact> 0.41672247E+03</totfact>
</mgrwt>
</event>
<event>
 4    1  0.6034452E-005  0.4431786E+03  0.7818608E-02  0.1029776E+00
          2   -1    0    0  501    0  0.00000000000E+00  0.00000000000E+00  0.81939376951E+02  0.81939376990E+02  0.25500000000E-02 0.  1.
         -2   -1    0    0    0  501 -0.00000000000E+00 -0.00000000000E+00 -0.59924567374E+03  0.59924567375E+03  0.25500000000E-02 0. -1.
    5000001    1    1    2    0    0 -0.10199863010E+03  0.40586398311E+02 -0.19515181425E+03  0.29236827269E+03  0.18800000000E+03 0.  0.
   -5000001    1    1    2    0    0  0.10199863010E+03 -0.40586398311E+02 -0.32215448254E+03  0.38881677805E+03  0.18800000000E+03 0.  0.
<mgrwt>
<rscale>  0 0.44317860E+03</rscale>
<asrwt>0</asrwt>
<pdfrwt beam="1">  1        2 0.11705626E-01 0.44317860E+03</pdfrwt>
<pdfrwt beam="2">  1       -2 0.85606523E-01 0.44317860E+03</pdfrwt>
<totfact> 0.64965049E+02</totfact>
</mgrwt>
</event>
<event>
 4    1  0.6034452E-005  0.6314541E+03  0.7818608E-02  0.9842215E-01
         -2   -1    0    0    0  501 -0.00000000000E+00  0.00000000000E+00  0.33662917968E+02  0.33662918064E+02  0.25500000000E-02 0. -1.
          2   -1    0    0  501    0  0.00000000000E+00 -0.00000000000E+00 -0.29612278682E+04  0.29612278682E+04  0.25500000000E-02 0.  1.
    5000001    1    1    2    0    0 -0.52391390460E+02 -0.15070082963E+03 -0.23990255853E+04  0.24116640224E+04  0.18800000000E+03 0.  0.
   -5000001    1    1    2    0    0  0.52391390460E+02  0.15070082963E+03 -0.52853936492E+03  0.58322676389E+03  0.18800000000E+03 0.  0.
<mgrwt>
<rscale>  0 0.63145410E+03</rscale>
<asrwt>0</asrwt>
<pdfrwt beam="1">  1        2 0.42303239E+00 0.63145410E+03</pdfrwt>
<pdfrwt beam="2">  1       -2 0.48089902E-02 0.63145410E+03</pdfrwt>
<totfact> 0.57544130E+02</totfact>
</mgrwt>
</event>
<event>
 4    1  0.6034452E-005  0.4185988E+03  0.7818608E-02  0.1037523E+00
          2   -1    0    0  501    0  0.00000000000E+00  0.00000000000E+00  0.58732110104E+03  0.58732110105E+03  0.25500000000E-02 0. -1.
         -2   -1    0    0    0  501 -0.00000000000E+00 -0.00000000000E+00 -0.74586528973E+02  0.74586529016E+02  0.25500000000E-02 0.  1.
    5000001    1    1    2    0    0  0.25530050292E+02  0.71453084560E+02  0.17412858381E+03  0.26724911685E+03  0.18800000000E+03 0.  0.
   -5000001    1    1    2    0    0 -0.25530050292E+02 -0.71453084560E+02  0.33860598826E+03  0.39465851321E+03  0.18800000000E+03 0.  0.
<mgrwt>
<rscale>  0 0.41859882E+03</rscale>
<asrwt>0</asrwt>
<pdfrwt beam="1">  1        2 0.83903009E-01 0.41859882E+03</pdfrwt>
<pdfrwt beam="2">  1       -2 0.10655219E-01 0.41859882E+03</pdfrwt>
<totfact> 0.34032288E+03</totfact>
</mgrwt>
</event>
<event>
 4    1  0.6034452E-005  0.1029570E+04  0.7818608E-02  0.9276695E-01
          2   -1    0    0  501    0  0.00000000000E+00  0.00000000000E+00  0.14037567127E+04  0.14037567127E+04  0.25500000000E-02 0.  1.
         -2   -1    0    0    0  501 -0.00000000000E+00 -0.00000000000E+00 -0.18878161984E+03  0.18878161986E+03  0.25500000000E-02 0. -1.
    5000001    1    1    2    0    0  0.35151905724E+03 -0.31054986105E+03  0.45551808358E+03  0.68032902942E+03  0.18800000000E+03 0.  0.
   -5000001    1    1    2    0    0 -0.35151905724E+03  0.31054986105E+03  0.75945700928E+03  0.91220930314E+03  0.18800000000E+03 0.  0.
<mgrwt>
<rscale>  0 0.10295697E+04</rscale>
<asrwt>0</asrwt>
<pdfrwt beam="1">  1        2 0.20053668E+00 0.10295697E+04</pdfrwt>
<pdfrwt beam="2">  1       -2 0.26968801E-01 0.10295697E+04</pdfrwt>
<totfact> 0.20454556E+02</totfact>
</mgrwt>
</event>
<event>
 4    1  0.6034452E-005  0.6063029E+03  0.7818608E-02  0.9892415E-01
          2   -1    0    0  501    0  0.00000000000E+00  0.00000000000E+00  0.10705285824E+04  0.10705285824E+04  0.25500000000E-02 0.  1.
         -2   -1    0    0    0  501 -0.00000000000E+00 -0.00000000000E+00 -0.85846205306E+02  0.85846205344E+02  0.25500000000E-02 0. -1.
    5000001    1    1    2    0    0  0.21491981109E+03 -0.10144182203E+03  0.50895162737E+03  0.59233160262E+03  0.18800000000E+03 0.  0.
   -5000001    1    1    2    0    0 -0.21491981109E+03  0.10144182203E+03  0.47573074971E+03  0.56404318512E+03  0.18800000000E+03 0.  0.
<mgrwt>
<rscale>  0 0.60630295E+03</rscale>
<asrwt>0</asrwt>
<pdfrwt beam="1">  1        2 0.15293265E+00 0.60630295E+03</pdfrwt>
<pdfrwt beam="2">  1       -2 0.12263744E-01 0.60630295E+03</pdfrwt>
<totfact> 0.12561147E+03</totfact>
</mgrwt>
</event>
<event>
 4    1  0.6034452E-005  0.7863551E+03  0.7818608E-02  0.9579980E-01
          2   -1    0    0  501    0  0.00000000000E+00  0.00000000000E+00  0.23691971509E+04  0.23691971509E+04  0.25500000000E-02 0.  1.
         -2   -1    0    0    0  501 -0.00000000000E+00 -0.00000000000E+00 -0.65249355094E+02  0.65249355144E+02  0.25500000000E-02 0. -1.
    5000001    1    1    2    0    0  0.27747605000E+03  0.12544325384E+03  0.16560921296E+04  0.16943181844E+04  0.18800000000E+03 0.  0.
   -5000001    1    1    2    0    0 -0.27747605000E+03 -0.12544325384E+03  0.64785566613E+03  0.74012832158E+03  0.18800000000E+03 0.  0.
<mgrwt>
<rscale>  0 0.78635510E+03</rscale>
<asrwt>0</asrwt>
<pdfrwt beam="1">  1        2 0.33845673E+00 0.78635510E+03</pdfrwt>
<pdfrwt beam="2">  1       -2 0.93213366E-02 0.78635510E+03</pdfrwt>
<totfact> 0.40769892E+02</totfact>
</mgrwt>
</event>
<event>
 4    1  0.6034452E-005  0.8567801E+03  0.7818608E-02  0.9481282E-01
         -2   -1    0    0    0  501 -0.00000000000E+00  0.00000000000E+00  0.18695249365E+03  0.18695249367E+03  0.25500000000E-02 0. -1.
          2   -1    0    0  501    0  0.00000000000E+00 -0.00000000000E+00 -0.98162918916E+03  0.98162918916E+03  0.25500000000E-02 0.  1.
    5000001    1    1    2    0    0  0.32780554134E+03  0.13066560098E+03 -0.60706357507E+03  0.72691138139E+03  0.18800000000E+03 0.  0.
   -5000001    1    1    2    0    0 -0.32780554134E+03 -0.13066560098E+03 -0.18761312044E+03  0.44167030144E+03  0.18800000000E+03 0.  0.
<mgrwt>
<rscale>  0 0.85678008E+03</rscale>
<asrwt>0</asrwt>
<pdfrwt beam="1">  1        2 0.14023274E+00 0.85678008E+03</pdfrwt>
<pdfrwt beam="2">  1       -2 0.26707500E-01 0.85678008E+03</pdfrwt>
<totfact> 0.36682708E+02</totfact>
</mgrwt>
</event>
<event>
 4    1  0.6034452E-005  0.1095271E+04  0.7818608E-02  0.9209814E-01
          2   -1    0    0  501    0  0.00000000000E+00  0.00000000000E+00  0.35842334085E+03  0.35842334086E+03  0.25500000000E-02 0.  1.
         -2   -1    0    0    0  501 -0.00000000000E+00 -0.00000000000E+00 -0.83673266521E+03  0.83673266522E+03  0.25500000000E-02 0. -1.
    5000001    1    1    2    0    0 -0.40417159193E+03 -0.13711570953E+03  0.74087495586E+02  0.47221642339E+03  0.18800000000E+03 0.  0.
   -5000001    1    1    2    0    0  0.40417159193E+03  0.13711570953E+03 -0.55239681995E+03  0.72293958268E+03  0.18800000000E+03 0.  0.
<mgrwt>
<rscale>  0 0.10952708E+04</rscale>
<asrwt>0</asrwt>
<pdfrwt beam="1">  1        2 0.51203335E-01 0.10952708E+04</pdfrwt>
<pdfrwt beam="2">  1       -2 0.11953324E+00 0.10952708E+04</pdfrwt>
<totfact> 0.52094317E+01</totfact>
</mgrwt>
</event>
<event>
 4    1  0.6034452E-005  0.4882545E+03  0.7818608E-02  0.1016891E+00
          2   -1    0    0  501    0  0.00000000000E+00  0.00000000000E+00  0.27232029579E+03  0.27232029580E+03  0.25500000000E-02 0.  1.
         -2   -1    0    0    0  501 -0.00000000000E+00 -0.00000000000E+00 -0.21885302856E+03  0.21885302857E+03  0.25500000000E-02 0. -1.
    5000001    1    1    2    0    0 -0.28671643627E+02  0.10145775733E+03 -0.88574363957E+02  0.23303467043E+03  0.18800000000E+03 0.  0.
   -5000001    1    1    2    0    0  0.28671643627E+02 -0.10145775733E+03  0.14204163119E+03  0.25813865394E+03  0.18800000000E+03 0.  0.
<mgrwt>
<rscale>  0 0.48825453E+03</rscale>
<asrwt>0</asrwt>
<pdfrwt beam="1">  1        2 0.38902899E-01 0.48825453E+03</pdfrwt>
<pdfrwt beam="2">  1       -2 0.31264718E-01 0.48825453E+03</pdfrwt>
<totfact> 0.12585808E+03</totfact>
</mgrwt>
</event>
<event>
 4    1  0.6034452E-005  0.7950077E+03  0.7818608E-02  0.9567272E-01
         -2   -1    0    0    0  501 -0.00000000000E+00  0.00000000000E+00  0.38205721658E+03  0.38205721659E+03  0.25500000000E-02 0. -1.
          2   -1    0    0  501    0  0.00000000000E+00 -0.00000000000E+00 -0.41357494949E+03  0.41357494949E+03  0.25500000000E-02 0.  1.
    5000001    1    1    2    0    0  0.10549286255E+03 -0.32450671335E+03 -0.94763535241E+02  0.40094573033E+03  0.18800000000E+03 0.  0.
   -5000001    1    1    2    0    0 -0.10549286255E+03  0.32450671335E+03  0.63245802338E+02  0.39468643576E+03  0.18800000000E+03 0.  0.
<mgrwt>
<rscale>  0 0.79500766E+03</rscale>
<asrwt>0</asrwt>
<pdfrwt beam="1">  1        2 0.59082136E-01 0.79500766E+03</pdfrwt>
<pdfrwt beam="2">  1       -2 0.54579602E-01 0.79500766E+03</pdfrwt>
<totfact> 0.26492948E+02</totfact>
</mgrwt>
</event>
<event>
 4    1  0.6034452E-005  0.1085102E+04  0.7818608E-02  0.9219835E-01
         -2   -1    0    0    0  501 -0.00000000000E+00  0.00000000000E+00  0.23065638105E+03  0.23065638107E+03  0.25500000000E-02 0. -1.
          2   -1    0    0  501    0  0.00000000000E+00 -0.00000000000E+00 -0.12761919837E+04  0.12761919838E+04  0.25500000000E-02 0.  1.
    5000001    1    1    2    0    0  0.17392367487E+02  0.26715285307E+03 -0.11238301148E+04  0.11704748046E+04  0.18800000000E+03 0.  0.
   -5000001    1    1    2    0    0 -0.17392367487E+02 -0.26715285307E+03  0.78294512118E+02  0.33637356017E+03  0.18800000000E+03 0.  0.
<mgrwt>
<rscale>  0 0.10851024E+04</rscale>
<asrwt>0</asrwt>
<pdfrwt beam="1">  1        2 0.18231314E+00 0.10851024E+04</pdfrwt>
<pdfrwt beam="2">  1       -2 0.32950912E-01 0.10851024E+04</pdfrwt>
<totfact> 0.16498526E+02</totfact>
</mgrwt>
</event>
<event>
 4    1  0.6034452E-005  0.4766033E+03  0.7818608E-02  0.1020073E+00
         -2   -1    0    0    0  501 -0.00000000000E+00  0.00000000000E+00  0.70914506942E+02  0.70914506988E+02  0.25500000000E-02 0. -1.
          2   -1    0    0  501    0  0.00000000000E+00 -0.00000000000E+00 -0.80079076147E+03  0.80079076147E+03  0.25500000000E-02 0.  1.
    5000001    1    1    2    0    0  0.11584423719E+03 -0.73118545411E+02 -0.27029803407E+03  0.35661076287E+03  0.18800000000E+03 0.  0.
   -5000001    1    1    2    0    0 -0.11584423719E+03  0.73118545411E+02 -0.45957822046E+03  0.51509450559E+03  0.18800000000E+03 0.  0.
<mgrwt>
<rscale>  0 0.47660332E+03</rscale>
<asrwt>0</asrwt>
<pdfrwt beam="1">  1        2 0.11439867E+00 0.47660332E+03</pdfrwt>
<pdfrwt beam="2">  1       -2 0.10130644E-01 0.47660332E+03</pdfrwt>
<totfact> 0.25434851E+03</totfact>
</mgrwt>
</event>
<event>
 4    1  0.6034452E-005  0.4999776E+03  0.7818608E-02  0.1013785E+00
         -2   -1    0    0    0  501 -0.00000000000E+00  0.00000000000E+00  0.22624665975E+02  0.22624666119E+02  0.25500000000E-02 0.  1.
          2   -1    0    0  501    0  0.00000000000E+00 -0.00000000000E+00 -0.27622244022E+04  0.27622244022E+04  0.25500000000E-02 0. -1.
    5000001    1    1    2    0    0  0.67231030067E+02  0.78913016129E+02 -0.20831692269E+04  0.20942027847E+04  0.18800000000E+03 0.  0.
   -5000001    1    1    2    0    0 -0.67231030067E+02 -0.78913016129E+02 -0.65643050941E+03  0.69064628371E+03  0.18800000000E+03 0.  0.
<mgrwt>
<rscale>  0 0.49997762E+03</rscale>
<asrwt>0</asrwt>
<pdfrwt beam="1">  1        2 0.39460327E+00 0.49997762E+03</pdfrwt>
<pdfrwt beam="2">  1       -2 0.32320969E-02 0.49997762E+03</pdfrwt>
<totfact> 0.13665267E+03</totfact>
</mgrwt>
</event>
<event>
 4    1  0.6034452E-005  0.7404600E+03  0.7818608E-02  0.9650437E-01
         -2   -1    0    0    0  501 -0.00000000000E+00  0.00000000000E+00  0.44082919559E+02  0.44082919633E+02  0.25500000000E-02 0. -1.
          2   -1    0    0  501    0  0.00000000000E+00 -0.00000000000E+00 -0.31093731761E+04  0.31093731761E+04  0.25500000000E-02 0.  1.
    5000001    1    1    2    0    0 -0.24604526943E+03 -0.19973895442E+03 -0.16857435680E+04  0.17255460879E+04  0.18800000000E+03 0.  0.
   -5000001    1    1    2    0    0  0.24604526943E+03  0.19973895442E+03 -0.13795466886E+04  0.14279100078E+04  0.18800000000E+03 0.  0.
<mgrwt>
<rscale>  0 0.74045999E+03</rscale>
<asrwt>0</asrwt>
<pdfrwt beam="1">  1        2 0.44419603E+00 0.74045999E+03</pdfrwt>
<pdfrwt beam="2">  1       -2 0.62975619E-02 0.74045999E+03</pdfrwt>
<totfact> 0.30971231E+02</totfact>
</mgrwt>
</event>
<event>
 4    1  0.6034452E-005  0.5209991E+03  0.7818608E-02  0.1008439E+00
         -2   -1    0    0    0  501 -0.00000000000E+00  0.00000000000E+00  0.50510470212E+03  0.50510470213E+03  0.25500000000E-02 0. -1.
          2   -1    0    0  501    0  0.00000000000E+00 -0.00000000000E+00 -0.13434842792E+03  0.13434842794E+03  0.25500000000E-02 0.  1.
    5000001    1    1    2    0    0 -0.14804116843E+03  0.30709700611E+02  0.64767058138E+02  0.24979600694E+03  0.18800000000E+03 0.  0.
   -5000001    1    1    2    0    0  0.14804116843E+03 -0.30709700611E+02  0.30598921607E+03  0.38965712314E+03  0.18800000000E+03 0.  0.
<mgrwt>
<rscale>  0 0.52099913E+03</rscale>
<asrwt>0</asrwt>
<pdfrwt beam="1">  1        2 0.19192632E-01 0.52099913E+03</pdfrwt>
<pdfrwt beam="2">  1       -2 0.72157815E-01 0.52099913E+03</pdfrwt>
<totfact> 0.52311057E+02</totfact>
</mgrwt>
</event>
<event>
 4    1  0.6034452E-005  0.8030903E+03  0.7818608E-02  0.9555555E-01
         -2   -1    0    0    0  501 -0.00000000000E+00  0.00000000000E+00  0.82725482034E+02  0.82725482073E+02  0.25500000000E-02 0. -1.
          2   -1    0    0  501    0  0.00000000000E+00 -0.00000000000E+00 -0.19490789885E+04  0.19490789885E+04  0.25500000000E-02 0.  1.
    5000001    1    1    2    0    0  0.10697626052E+03  0.33710578359E+03 -0.86116021863E+03  0.94975004701E+03  0.18800000000E+03 0.  0.
   -5000001    1    1    2    0    0 -0.10697626052E+03 -0.33710578359E+03 -0.10051932879E+04  0.10820544236E+04  0.18800000000E+03 0.  0.
<mgrwt>
<rscale>  0 0.80309028E+03</rscale>
<asrwt>0</asrwt>
<pdfrwt beam="1">  1        2 0.27843983E+00 0.80309028E+03</pdfrwt>
<pdfrwt beam="2">  1       -2 0.11817927E-01 0.80309028E+03</pdfrwt>
<totfact> 0.45165532E+02</totfact>
</mgrwt>
</event>
<event>
 4    1  0.6034452E-005  0.7544611E+03  0.7818608E-02  0.9628378E-01
          2   -1    0    0  501    0  0.00000000000E+00  0.00000000000E+00  0.30099108485E+03  0.30099108486E+03  0.25500000000E-02 0.  1.
         -2   -1    0    0    0  501 -0.00000000000E+00 -0.00000000000E+00 -0.47278103410E+03  0.47278103411E+03  0.25500000000E-02 0. -1.
    5000001    1    1    2    0    0 -0.23781030383E+03  0.31216324281E+02 -0.31391580379E+03  0.43751037859E+03  0.18800000000E+03 0.  0.
   -5000001    1    1    2    0    0  0.23781030383E+03 -0.31216324281E+02  0.14212585454E+03  0.33626174037E+03  0.18800000000E+03 0.  0.
<mgrwt>
<rscale>  0 0.75446107E+03</rscale>
<asrwt>0</asrwt>
<pdfrwt beam="1">  1        2 0.42998727E-01 0.75446107E+03</pdfrwt>
<pdfrwt beam="2">  1       -2 0.67540147E-01 0.75446107E+03</pdfrwt>
<totfact> 0.24077272E+02</totfact>
</mgrwt>
</event>
<event>
 4    1  0.6034452E-005  0.4041427E+03  0.7818608E-02  0.1042355E+00
         -2   -1    0    0    0  501 -0.00000000000E+00  0.00000000000E+00  0.38303531277E+02  0.38303531362E+02  0.25500000000E-02 0. -1.
          2   -1    0    0  501    0  0.00000000000E+00 -0.00000000000E+00 -0.10660331158E+04  0.10660331158E+04  0.25500000000E-02 0.  1.
    5000001    1    1    2    0    0 -0.25311813950E+02 -0.54565959261E+02 -0.63205157848E+03  0.66215657491E+03  0.18800000000E+03 0.  0.
   -5000001    1    1    2    0    0  0.25311813950E+02  0.54565959261E+02 -0.39567800605E+03  0.44218007227E+03  0.18800000000E+03 0.  0.
<mgrwt>
<rscale>  0 0.40414271E+03</rscale>
<asrwt>0</asrwt>
<pdfrwt beam="1">  1        2 0.15229043E+00 0.40414271E+03</pdfrwt>
<pdfrwt beam="2">  1       -2 0.54719337E-02 0.40414271E+03</pdfrwt>
<totfact> 0.45692860E+03</totfact>
</mgrwt>
</event>
<event>
 4    1  0.6034452E-005  0.6451027E+03  0.7818608E-02  0.9816012E-01
         -2   -1    0    0    0  501 -0.00000000000E+00  0.00000000000E+00  0.96949056201E+03  0.96949056201E+03  0.25500000000E-02 0. -1.
          2   -1    0    0  501    0  0.00000000000E+00 -0.00000000000E+00 -0.10731346115E+03  0.10731346118E+03  0.25500000000E-02 0.  1.
    5000001    1    1    2    0    0  0.15325098201E+03 -0.20719480546E+03  0.35138830336E+03  0.47458749524E+03  0.18800000000E+03 0.  0.
   -5000001    1    1    2    0    0 -0.15325098201E+03  0.20719480546E+03  0.51078879749E+03  0.60221652795E+03  0.18800000000E+03 0.  0.
<mgrwt>
<rscale>  0 0.64510274E+03</rscale>
<asrwt>0</asrwt>
<pdfrwt beam="1">  1        2 0.15330494E-01 0.64510274E+03</pdfrwt>
<pdfrwt beam="2">  1       -2 0.13849866E+00 0.64510274E+03</pdfrwt>
<totfact> 0.14624828E+02</totfact>
</mgrwt>
</event>
<event>
 4    1  0.6034452E-005  0.9434802E+03  0.7818608E-02  0.9372804E-01
          2   -1    0    0  501    0  0.00000000000E+00  0.00000000000E+00  0.11487493480E+04  0.11487493480E+04  0.25500000000E-02 0.  1.
         -2   -1    0    0    0  501 -0.00000000000E+00 -0.00000000000E+00 -0.19372262972E+03  0.19372262973E+03  0.25500000000E-02 0. -1.
    5000001    1    1    2    0    0 -0.16551748835E+03 -0.35727446439E+03  0.73265870026E+03  0.85274489322E+03  0.18800000000E+03 0.  0.
   -5000001    1    1    2    0    0  0.16551748835E+03  0.35727446439E+03  0.22236801800E+03  0.48972708449E+03  0.18800000000E+03 0.  0.
<mgrwt>
<rscale>  0 0.94348025E+03</rscale>
<asrwt>0</asrwt>
<pdfrwt beam="1">  1        2 0.16410705E+00 0.94348025E+03</pdfrwt>
<pdfrwt beam="2">  1       -2 0.27674661E-01 0.94348025E+03</pdfrwt>
<totfact> 0.27183584E+02</totfact>
</mgrwt>
</event>
<event>
 4    1  0.6034452E-005  0.1361423E+04  0.7818608E-02  0.8982226E-01
         -2   -1    0    0    0  501 -0.00000000000E+00  0.00000000000E+00  0.25499512120E+03  0.25499512122E+03  0.25500000000E-02 0. -1.
          2   -1    0    0  501    0  0.00000000000E+00 -0.00000000000E+00 -0.18171648328E+04  0.18171648328E+04  0.25500000000E-02 0.  1.
    5000001    1    1    2    0    0  0.13698867459E+03 -0.62217748061E+03 -0.55454172807E+03  0.86529257625E+03  0.18800000000E+03 0.  0.
   -5000001    1    1    2    0    0 -0.13698867459E+03  0.62217748061E+03 -0.10076279836E+04  0.12068673778E+04  0.18800000000E+03 0.  0.
<mgrwt>
<rscale>  0 0.13614230E+04</rscale>
<asrwt>0</asrwt>
<pdfrwt beam="1">  1        2 0.25959497E+00 0.13614230E+04</pdfrwt>
<pdfrwt beam="2">  1       -2 0.36427876E-01 0.13614230E+04</pdfrwt>
<totfact> 0.69069773E+01</totfact>
</mgrwt>
</event>
<event>
 4    1  0.6034452E-005  0.6006256E+03  0.7818608E-02  0.9904109E-01
         -2   -1    0    0    0  501 -0.00000000000E+00  0.00000000000E+00  0.32342109581E+03  0.32342109582E+03  0.25500000000E-02 0. -1.
          2   -1    0    0  501    0  0.00000000000E+00 -0.00000000000E+00 -0.27885554943E+03  0.27885554944E+03  0.25500000000E-02 0.  1.
    5000001    1    1    2    0    0 -0.21691150901E+03  0.30301411004E+01  0.11075218605E+03  0.30768462947E+03  0.18800000000E+03 0.  0.
   -5000001    1    1    2    0    0  0.21691150901E+03 -0.30301411004E+01 -0.66186639662E+02  0.29459201579E+03  0.18800000000E+03 0.  0.
<mgrwt>
<rscale>  0 0.60062557E+03</rscale>
<asrwt>0</asrwt>
<pdfrwt beam="1">  1        2 0.39836507E-01 0.60062557E+03</pdfrwt>
<pdfrwt beam="2">  1       -2 0.46203014E-01 0.60062557E+03</pdfrwt>
<totfact> 0.57873940E+02</totfact>
</mgrwt>
</event>
<event>
 4    1  0.6034452E-005  0.5171381E+03  0.7818608E-02  0.1009400E+00
          2   -1    0    0  501    0  0.00000000000E+00  0.00000000000E+00  0.22801639341E+04  0.22801639341E+04  0.25500000000E-02 0.  1.
         -2   -1    0    0    0  501 -0.00000000000E+00 -0.00000000000E+00 -0.29321554935E+02  0.29321555046E+02  0.25500000000E-02 0. -1.
    5000001    1    1    2    0    0  0.25495793912E+02  0.17235701898E+03  0.12773256880E+04  0.13027900410E+04  0.18800000000E+03 0.  0.
   -5000001    1    1    2    0    0 -0.25495793912E+02 -0.17235701898E+03  0.97351669109E+03  0.10066954482E+04  0.18800000000E+03 0.  0.
<mgrwt>
<rscale>  0 0.51713809E+03</rscale>
<asrwt>0</asrwt>
<pdfrwt beam="1">  1        2 0.32573787E+00 0.51713809E+03</pdfrwt>
<pdfrwt beam="2">  1       -2 0.41887915E-02 0.51713809E+03</pdfrwt>
<totfact> 0.16224764E+03</totfact>
</mgrwt>
</event>
<event>
 4    1  0.6034452E-005  0.5364395E+03  0.7818608E-02  0.1004682E+00
         -2   -1    0    0    0  501 -0.00000000000E+00  0.00000000000E+00  0.17467432510E+03  0.17467432512E+03  0.25500000000E-02 0. -1.
          2   -1    0    0  501    0  0.00000000000E+00 -0.00000000000E+00 -0.41186265639E+03  0.41186265640E+03  0.25500000000E-02 0.  1.
    5000001    1    1    2    0    0  0.16437892574E+03 -0.89412494900E+02 -0.16209409117E+03  0.31085932488E+03  0.18800000000E+03 0.  0.
   -5000001    1    1    2    0    0 -0.16437892574E+03  0.89412494900E+02 -0.75094240128E+02  0.27567765664E+03  0.18800000000E+03 0.  0.
<mgrwt>
<rscale>  0 0.53643949E+03</rscale>
<asrwt>0</asrwt>
<pdfrwt beam="1">  1        2 0.58837522E-01 0.53643949E+03</pdfrwt>
<pdfrwt beam="2">  1       -2 0.24953475E-01 0.53643949E+03</pdfrwt>
<totfact> 0.12033689E+03</totfact>
</mgrwt>
</event>
<event>
 4    1  0.6034452E-005  0.4182971E+03  0.7818608E-02  0.1037622E+00
         -2   -1    0    0    0  501 -0.00000000000E+00  0.00000000000E+00  0.21816064026E+02  0.21816064175E+02  0.25500000000E-02 0. -1.
          2   -1    0    0  501    0  0.00000000000E+00 -0.00000000000E+00 -0.20050870445E+04  0.20050870445E+04  0.25500000000E-02 0.  1.
    5000001    1    1    2    0    0 -0.71229997782E+00 -0.78377804108E+02 -0.76150640404E+03  0.78827634173E+03  0.18800000000E+03 0.  0.
   -5000001    1    1    2    0    0  0.71229997782E+00  0.78377804108E+02 -0.12217645764E+04  0.12386267669E+04  0.18800000000E+03 0.  0.
<mgrwt>
<rscale>  0 0.41829706E+03</rscale>
<asrwt>0</asrwt>
<pdfrwt beam="1">  1        2 0.28644089E+00 0.41829706E+03</pdfrwt>
<pdfrwt beam="2">  1       -2 0.31165819E-02 0.41829706E+03</pdfrwt>
<totfact> 0.35033104E+03</totfact>
</mgrwt>
</event>
<event>
 4    1  0.6034452E-005  0.6520662E+03  0.7818608E-02  0.9802910E-01
          2   -1    0    0  501    0  0.00000000000E+00  0.00000000000E+00  0.16393769532E+04  0.16393769532E+04  0.25500000000E-02 0.  1.
         -2   -1    0    0    0  501 -0.00000000000E+00 -0.00000000000E+00 -0.64840240973E+02  0.64840241023E+02  0.25500000000E-02 0. -1.
    5000001    1    1    2    0    0 -0.23229760544E+03  0.12936017730E+03  0.74534008748E+03  0.81337081271E+03  0.18800000000E+03 0.  0.
   -5000001    1    1    2    0    0  0.23229760544E+03 -0.12936017730E+03  0.82919662471E+03  0.89084638148E+03  0.18800000000E+03 0.  0.
<mgrwt>
<rscale>  0 0.65206624E+03</rscale>
<asrwt>0</asrwt>
<pdfrwt beam="1">  1        2 0.23419668E+00 0.65206624E+03</pdfrwt>
<pdfrwt beam="2">  1       -2 0.92628927E-02 0.65206624E+03</pdfrwt>
<totfact> 0.97471983E+02</totfact>
</mgrwt>
</event>
<event>
 4    1  0.6034452E-005  0.4374606E+03  0.7818608E-02  0.1031529E+00
          2   -1    0    0  501    0  0.00000000000E+00  0.00000000000E+00  0.13254334552E+04  0.13254334552E+04  0.25500000000E-02 0.  1.
         -2   -1    0    0    0  501 -0.00000000000E+00 -0.00000000000E+00 -0.36096066097E+02  0.36096066187E+02  0.25500000000E-02 0. -1.
    5000001    1    1    2    0    0 -0.10671232512E+03  0.22293595695E+02  0.72181531834E+03  0.75382085308E+03  0.18800000000E+03 0.  0.
   -5000001    1    1    2    0    0  0.10671232512E+03 -0.22293595695E+02  0.56752207079E+03  0.60770866834E+03  0.18800000000E+03 0.  0.
<mgrwt>
<rscale>  0 0.43746055E+03</rscale>
<asrwt>0</asrwt>
<pdfrwt beam="1">  1        2 0.18934765E+00 0.43746055E+03</pdfrwt>
<pdfrwt beam="2">  1       -2 0.51565806E-02 0.43746055E+03</pdfrwt>
<totfact> 0.35966450E+03</totfact>
</mgrwt>
</event>
<event>
 4    1  0.6034452E-005  0.7017852E+03  0.7818608E-02  0.9714184E-01
         -2   -1    0    0    0  501 -0.00000000000E+00  0.00000000000E+00  0.19787686357E+03  0.19787686359E+03  0.25500000000E-02 0. -1.
          2   -1    0    0  501    0  0.00000000000E+00 -0.00000000000E+00 -0.62223357456E+03  0.62223357456E+03  0.25500000000E-02 0.  1.
    5000001    1    1    2    0    0 -0.27281778392E+02  0.19430627597E+03  0.47247976858E+02  0.27581804805E+03  0.18800000000E+03 0.  0.
   -5000001    1    1    2    0    0  0.27281778392E+02 -0.19430627597E+03 -0.47160468785E+03  0.54429239009E+03  0.18800000000E+03 0.  0.
<mgrwt>
<rscale>  0 0.70178523E+03</rscale>
<asrwt>0</asrwt>
<pdfrwt beam="1">  1        2 0.88890510E-01 0.70178523E+03</pdfrwt>
<pdfrwt beam="2">  1       -2 0.28268124E-01 0.70178523E+03</pdfrwt>
<totfact> 0.59716888E+02</totfact>
</mgrwt>
</event>
<event>
 4    1  0.6034452E-005  0.4298107E+03  0.7818608E-02  0.1033920E+00
         -2   -1    0    0    0  501 -0.00000000000E+00  0.00000000000E+00  0.62640951629E+02  0.62640951681E+02  0.25500000000E-02 0. -1.
          2   -1    0    0  501    0  0.00000000000E+00 -0.00000000000E+00 -0.73728615481E+03  0.73728615481E+03  0.25500000000E-02 0.  1.
    5000001    1    1    2    0    0 -0.22563839041E+02  0.10152118961E+03 -0.32808659266E+03  0.39217405709E+03  0.18800000000E+03 0.  0.
   -5000001    1    1    2    0    0  0.22563839041E+02 -0.10152118961E+03 -0.34655861052E+03  0.40775304941E+03  0.18800000000E+03 0.  0.
<mgrwt>
<rscale>  0 0.42981069E+03</rscale>
<asrwt>0</asrwt>
<pdfrwt beam="1">  1        2 0.10532659E+00 0.42981069E+03</pdfrwt>
<pdfrwt beam="2">  1       -2 0.89487078E-02 0.42981069E+03</pdfrwt>
<totfact> 0.34373369E+03</totfact>
</mgrwt>
</event>
<event>
 4    1  0.6034452E-005  0.5647014E+03  0.7818608E-02  0.9981473E-01
          2   -1    0    0  501    0  0.00000000000E+00  0.00000000000E+00  0.58926434107E+03  0.58926434108E+03  0.25500000000E-02 0.  1.
         -2   -1    0    0    0  501 -0.00000000000E+00 -0.00000000000E+00 -0.13529060523E+03  0.13529060525E+03  0.25500000000E-02 0. -1.
    5000001    1    1    2    0    0 -0.19254925535E+03  0.50808095295E+01  0.33643934708E+03  0.43085550319E+03  0.18800000000E+03 0.  0.
   -5000001    1    1    2    0    0  0.19254925535E+03 -0.50808095295E+01  0.11753438876E+03  0.29369944314E+03  0.18800000000E+03 0.  0.
<mgrwt>
<rscale>  0 0.56470144E+03</rscale>
<asrwt>0</asrwt>
<pdfrwt beam="1">  1        2 0.84180621E-01 0.56470144E+03</pdfrwt>
<pdfrwt beam="2">  1       -2 0.19327229E-01 0.56470144E+03</pdfrwt>
<totfact> 0.12565162E+03</totfact>
</mgrwt>
</event>
<event>
 4    1  0.6034452E-005  0.4447886E+03  0.7818608E-02  0.1029288E+00
         -2   -1    0    0    0  501 -0.00000000000E+00  0.00000000000E+00  0.26079039976E+03  0.26079039977E+03  0.25500000000E-02 0. -1.
          2   -1    0    0  501    0  0.00000000000E+00 -0.00000000000E+00 -0.18965125452E+03  0.18965125454E+03  0.25500000000E-02 0.  1.
    5000001    1    1    2    0    0 -0.72018856864E+02 -0.85277300649E+02 -0.56452502704E+01  0.21871168830E+03  0.18800000000E+03 0.  0.
   -5000001    1    1    2    0    0  0.72018856864E+02  0.85277300649E+02  0.76784395511E+02  0.23172996600E+03  0.18800000000E+03 0.  0.
<mgrwt>
<rscale>  0 0.44478861E+03</rscale>
<asrwt>0</asrwt>
<pdfrwt beam="1">  1        2 0.27093036E-01 0.44478861E+03</pdfrwt>
<pdfrwt beam="2">  1       -2 0.37255771E-01 0.44478861E+03</pdfrwt>
<totfact> 0.13526509E+03</totfact>
</mgrwt>
</event>
<event>
 4    1  0.6034452E-005  0.5349940E+03  0.7818608E-02  0.1005028E+00
          2   -1    0    0  501    0  0.00000000000E+00  0.00000000000E+00  0.32124506280E+04  0.32124506280E+04  0.25500000000E-02 0.  1.
         -2   -1    0    0    0  501 -0.00000000000E+00 -0.00000000000E+00 -0.22274164484E+02  0.22274164630E+02  0.25500000000E-02 0. -1.
    5000001    1    1    2    0    0  0.18665199064E+03 -0.28886971778E+02  0.14549460090E+04  0.14791501992E+04  0.18800000000E+03 0.  0.
   -5000001    1    1    2    0    0 -0.18665199064E+03  0.28886971778E+02  0.17352304546E+04  0.17555745935E+04  0.18800000000E+03 0.  0.
<mgrwt>
<rscale>  0 0.53499403E+03</rscale>
<asrwt>0</asrwt>
<pdfrwt beam="1">  1        2 0.45892190E+00 0.53499403E+03</pdfrwt>
<pdfrwt beam="2">  1       -2 0.31820209E-02 0.53499403E+03</pdfrwt>
<totfact> 0.79596053E+02</totfact>
</mgrwt>
</event>
<event>
 4    1  0.6034452E-005  0.5199950E+03  0.7818608E-02  0.1008688E+00
         -2   -1    0    0    0  501 -0.00000000000E+00  0.00000000000E+00  0.66435229971E+02  0.66435230020E+02  0.25500000000E-02 0. -1.
          2   -1    0    0  501    0  0.00000000000E+00 -0.00000000000E+00 -0.10175128652E+04  0.10175128652E+04  0.25500000000E-02 0.  1.
    5000001    1    1    2    0    0 -0.94746897033E+02  0.12259272350E+03 -0.66486183110E+03  0.70808982821E+03  0.18800000000E+03 0.  0.
   -5000001    1    1    2    0    0  0.94746897033E+02 -0.12259272350E+03 -0.28621580412E+03  0.37585826701E+03  0.18800000000E+03 0.  0.
<mgrwt>
<rscale>  0 0.51999500E+03</rscale>
<asrwt>0</asrwt>
<pdfrwt beam="1">  1        2 0.14535897E+00 0.51999500E+03</pdfrwt>
<pdfrwt beam="2">  1       -2 0.94907478E-02 0.51999500E+03</pdfrwt>
<totfact> 0.20535039E+03</totfact>
</mgrwt>
</event>
<event>
 4    1  0.6034452E-005  0.6596469E+03  0.7818608E-02  0.9788844E-01
          2   -1    0    0  501    0  0.00000000000E+00  0.00000000000E+00  0.11869784757E+04  0.11869784757E+04  0.25500000000E-02 0.  1.
         -2   -1    0    0    0  501 -0.00000000000E+00 -0.00000000000E+00 -0.91647400856E+02  0.91647400892E+02  0.25500000000E-02 0. -1.
    5000001    1    1    2    0    0 -0.17615294630E+03 -0.18918918791E+03  0.38998965044E+03  0.50424035615E+03  0.18800000000E+03 0.  0.
   -5000001    1    1    2    0    0  0.17615294630E+03  0.18918918791E+03  0.70534142442E+03  0.77438552047E+03  0.18800000000E+03 0.  0.
<mgrwt>
<rscale>  0 0.65964685E+03</rscale>
<asrwt>0</asrwt>
<pdfrwt beam="1">  1        2 0.16956835E+00 0.65964685E+03</pdfrwt>
<pdfrwt beam="2">  1       -2 0.13092486E-01 0.65964685E+03</pdfrwt>
<totfact> 0.96425734E+02</totfact>
</mgrwt>
</event>
<event>
 4    1  0.6034452E-005  0.5623648E+03  0.7818608E-02  0.9986718E-01
          2   -1    0    0  501    0  0.00000000000E+00  0.00000000000E+00  0.35429767662E+03  0.35429767663E+03  0.25500000000E-02 0.  1.
         -2   -1    0    0    0  501 -0.00000000000E+00 -0.00000000000E+00 -0.22315566563E+03  0.22315566565E+03  0.25500000000E-02 0. -1.
    5000001    1    1    2    0    0  0.18542567862E+03  0.32669221780E+02  0.15894809843E+03  0.30993299008E+03  0.18800000000E+03 0.  0.
   -5000001    1    1    2    0    0 -0.18542567862E+03 -0.32669221780E+02 -0.27806087448E+02  0.26752035220E+03  0.18800000000E+03 0.  0.
<mgrwt>
<rscale>  0 0.56236477E+03</rscale>
<asrwt>0</asrwt>
<pdfrwt beam="1">  1        2 0.50613953E-01 0.56236477E+03</pdfrwt>
<pdfrwt beam="2">  1       -2 0.31879381E-01 0.56236477E+03</pdfrwt>
<totfact> 0.90872580E+02</totfact>
</mgrwt>
</event>
<event>
 4    1  0.6034452E-005  0.1455529E+04  0.7818608E-02  0.8914576E-01
         -2   -1    0    0    0  501 -0.00000000000E+00  0.00000000000E+00  0.47515743483E+03  0.47515743484E+03  0.25500000000E-02 0. -1.
          2   -1    0    0  501    0  0.00000000000E+00 -0.00000000000E+00 -0.11146653091E+04  0.11146653092E+04  0.25500000000E-02 0.  1.
    5000001    1    1    2    0    0  0.21340567004E+02  0.70184121562E+03 -0.35854081075E+03  0.81051343278E+03  0.18800000000E+03 0.  0.
   -5000001    1    1    2    0    0 -0.21340567004E+02 -0.70184121562E+03 -0.28096706356E+03  0.77930931121E+03  0.18800000000E+03 0.  0.
<mgrwt>
<rscale>  0 0.14555295E+04</rscale>
<asrwt>0</asrwt>
<pdfrwt beam="1">  1        2 0.15923790E+00 0.14555295E+04</pdfrwt>
<pdfrwt beam="2">  1       -2 0.67879634E-01 0.14555295E+04</pdfrwt>
<totfact> 0.46226264E+01</totfact>
</mgrwt>
</event>
<event>
 4    1  0.6034452E-005  0.6343727E+03  0.7818608E-02  0.9836553E-01
         -2   -1    0    0    0  501 -0.00000000000E+00  0.00000000000E+00  0.10344290895E+03  0.10344290898E+03  0.25500000000E-02 0. -1.
          2   -1    0    0  501    0  0.00000000000E+00 -0.00000000000E+00 -0.97258662163E+03  0.97258662163E+03  0.25500000000E-02 0.  1.
    5000001    1    1    2    0    0 -0.10113141426E+03 -0.20930328682E+03 -0.25483950447E+03  0.39283915521E+03  0.18800000000E+03 0.  0.
   -5000001    1    1    2    0    0  0.10113141426E+03  0.20930328682E+03 -0.61430420821E+03  0.68319037541E+03  0.18800000000E+03 0.  0.
<mgrwt>
<rscale>  0 0.63437273E+03</rscale>
<asrwt>0</asrwt>
<pdfrwt beam="1">  1        2 0.13894094E+00 0.63437273E+03</pdfrwt>
<pdfrwt beam="2">  1       -2 0.14777559E-01 0.63437273E+03</pdfrwt>
<totfact> 0.10542845E+03</totfact>
</mgrwt>
</event>
<event>
 4    1  0.6034452E-005  0.8282687E+03  0.7818608E-02  0.9519977E-01
          2   -1    0    0  501    0  0.00000000000E+00  0.00000000000E+00  0.11622584796E+04  0.11622584796E+04  0.25500000000E-02 0.  1.
         -2   -1    0    0    0  501 -0.00000000000E+00 -0.00000000000E+00 -0.14756377781E+03  0.14756377784E+03  0.25500000000E-02 0. -1.
    5000001    1    1    2    0    0 -0.35548468220E+03 -0.77683653554E+02  0.41038892969E+03  0.57979926088E+03  0.18800000000E+03 0.  0.
   -5000001    1    1    2    0    0  0.35548468220E+03  0.77683653554E+02  0.60430577205E+03  0.73002299652E+03  0.18800000000E+03 0.  0.
<mgrwt>
<rscale>  0 0.82826868E+03</rscale>
<asrwt>0</asrwt>
<pdfrwt beam="1">  1        2 0.16603693E+00 0.82826868E+03</pdfrwt>
<pdfrwt beam="2">  1       -2 0.21080539E-01 0.82826868E+03</pdfrwt>
<totfact> 0.43803343E+02</totfact>
</mgrwt>
</event>
<event>
 4    1  0.6034452E-005  0.4635898E+03  0.7818608E-02  0.1023745E+00
          2   -1    0    0  501    0  0.00000000000E+00  0.00000000000E+00  0.49472380814E+03  0.49472380815E+03  0.25500000000E-02 0.  1.
         -2   -1    0    0    0  501 -0.00000000000E+00 -0.00000000000E+00 -0.10860377372E+03  0.10860377375E+03  0.25500000000E-02 0. -1.
    5000001    1    1    2    0    0 -0.12874211507E+03  0.30278156786E+02  0.23196314094E+03  0.32656116996E+03  0.18800000000E+03 0.  0.
   -5000001    1    1    2    0    0  0.12874211507E+03 -0.30278156786E+02  0.15415689348E+03  0.27676641194E+03  0.18800000000E+03 0.  0.
<mgrwt>
<rscale>  0 0.46358979E+03</rscale>
<asrwt>0</asrwt>
<pdfrwt beam="1">  1        2 0.70674828E-01 0.46358979E+03</pdfrwt>
<pdfrwt beam="2">  1       -2 0.15514825E-01 0.46358979E+03</pdfrwt>
<totfact> 0.22323173E+03</totfact>
</mgrwt>
</event>
<event>
 4    1  0.6034452E-005  0.5897488E+03  0.7818608E-02  0.9926905E-01
          2   -1    0    0  501    0  0.00000000000E+00  0.00000000000E+00  0.17028816854E+04  0.17028816854E+04  0.25500000000E-02 0.  1.
         -2   -1    0    0    0  501 -0.00000000000E+00 -0.00000000000E+00 -0.51061039686E+02  0.51061039750E+02  0.25500000000E-02 0. -1.
    5000001    1    1    2    0    0 -0.56057315501E+02  0.18930200574E+03  0.49168687841E+03  0.56220784270E+03  0.18800000000E+03 0.  0.
   -5000001    1    1    2    0    0  0.56057315501E+02 -0.18930200574E+03  0.11601337673E+04  0.11917348824E+04  0.18800000000E+03 0.  0.
<mgrwt>
<rscale>  0 0.58974879E+03</rscale>
<asrwt>0</asrwt>
<pdfrwt beam="1">  1        2 0.24326882E+00 0.58974879E+03</pdfrwt>
<pdfrwt beam="2">  1       -2 0.72944339E-02 0.58974879E+03</pdfrwt>
<totfact> 0.13288469E+03</totfact>
</mgrwt>
</event>
<event>
 4    1  0.6034452E-005  0.4607807E+03  0.7818608E-02  0.1024555E+00
          2   -1    0    0  501    0  0.00000000000E+00  0.00000000000E+00  0.15566656303E+03  0.15566656305E+03  0.25500000000E-02 0.  1.
         -2   -1    0    0    0  501 -0.00000000000E+00 -0.00000000000E+00 -0.34098338363E+03  0.34098338364E+03  0.25500000000E-02 0. -1.
    5000001    1    1    2    0    0  0.76303808885E+02 -0.80149009720E+02 -0.12799103326E+02  0.21852677652E+03  0.18800000000E+03 0.  0.
   -5000001    1    1    2    0    0 -0.76303808885E+02  0.80149009720E+02 -0.17251771727E+03  0.27812317017E+03  0.18800000000E+03 0.  0.
<mgrwt>
<rscale>  0 0.46078069E+03</rscale>
<asrwt>0</asrwt>
<pdfrwt beam="1">  1        2 0.22238080E-01 0.46078069E+03</pdfrwt>
<pdfrwt beam="2">  1       -2 0.48711912E-01 0.46078069E+03</pdfrwt>
<totfact> 0.10028947E+03</totfact>
</mgrwt>
</event>
<event>
 4    1  0.6034452E-005  0.4329559E+03  0.7818608E-02  0.1032930E+00
         -2   -1    0    0    0  501 -0.00000000000E+00  0.00000000000E+00  0.27190067949E+02  0.27190068068E+02  0.25500000000E-02 0. -1.
          2   -1    0    0  501    0  0.00000000000E+00 -0.00000000000E+00 -0.17235228266E+04  0.17235228266E+04  0.25500000000E-02 0.  1.
    5000001    1    1    2    0    0  0.98283245171E+02 -0.21916721706E+02 -0.99831322741E+03  0.10208394776E+04  0.18800000000E+03 0.  0.
   -5000001    1    1    2    0    0 -0.98283245171E+02  0.21916721706E+02 -0.69801953120E+03  0.72987341704E+03  0.18800000000E+03 0.  0.
<mgrwt>
<rscale>  0 0.43295590E+03</rscale>
<asrwt>0</asrwt>
<pdfrwt beam="1">  1        2 0.24621748E+00 0.43295590E+03</pdfrwt>
<pdfrwt beam="2">  1       -2 0.38842965E-02 0.43295590E+03</pdfrwt>
<totfact> 0.34639474E+03</totfact>
</mgrwt>
</event>
<event>
 4    1  0.6034452E-005  0.7741555E+03  0.7818608E-02  0.9598198E-01
         -2   -1    0    0    0  501 -0.00000000000E+00  0.00000000000E+00  0.21556319922E+03  0.21556319923E+03  0.25500000000E-02 0. -1.
          2   -1    0    0  501    0  0.00000000000E+00 -0.00000000000E+00 -0.69505911819E+03  0.69505911820E+03  0.25500000000E-02 0.  1.
    5000001    1    1    2    0    0 -0.25227648668E+03 -0.23102016896E+02  0.24084850244E+02  0.31638775091E+03  0.18800000000E+03 0.  0.
   -5000001    1    1    2    0    0  0.25227648668E+03  0.23102016896E+02 -0.50358076922E+03  0.59423456652E+03  0.18800000000E+03 0.  0.
<mgrwt>
<rscale>  0 0.77415546E+03</rscale>
<asrwt>0</asrwt>
<pdfrwt beam="1">  1        2 0.99294159E-01 0.77415546E+03</pdfrwt>
<pdfrwt beam="2">  1       -2 0.30794743E-01 0.77415546E+03</pdfrwt>
<totfact> 0.44483181E+02</totfact>
</mgrwt>
</event>
<event>
 4    1  0.6034452E-005  0.5990776E+03  0.7818608E-02  0.9907322E-01
         -2   -1    0    0    0  501 -0.00000000000E+00  0.00000000000E+00  0.76210486162E+02  0.76210486205E+02  0.25500000000E-02 0. -1.
          2   -1    0    0  501    0  0.00000000000E+00 -0.00000000000E+00 -0.11773117871E+04  0.11773117871E+04  0.25500000000E-02 0.  1.
    5000001    1    1    2    0    0 -0.98392541832E+02  0.14832696236E+03 -0.23531292460E+03  0.34985447336E+03  0.18800000000E+03 0.  0.
   -5000001    1    1    2    0    0  0.98392541832E+02 -0.14832696236E+03 -0.86578837636E+03  0.90366779996E+03  0.18800000000E+03 0.  0.
<mgrwt>
<rscale>  0 0.59907764E+03</rscale>
<asrwt>0</asrwt>
<pdfrwt beam="1">  1        2 0.16818739E+00 0.59907764E+03</pdfrwt>
<pdfrwt beam="2">  1       -2 0.10887213E-01 0.59907764E+03</pdfrwt>
<totfact> 0.13255149E+03</totfact>
</mgrwt>
</event>
<event>
 4    1  0.6034452E-005  0.5264569E+03  0.7818608E-02  0.1007095E+00
         -2   -1    0    0    0  501 -0.00000000000E+00  0.00000000000E+00  0.18754933645E+03  0.18754933647E+03  0.25500000000E-02 0. -1.
          2   -1    0    0  501    0  0.00000000000E+00 -0.00000000000E+00 -0.36944524256E+03  0.36944524257E+03  0.25500000000E-02 0.  1.
    5000001    1    1    2    0    0  0.17129540319E+03 -0.55387654686E+02 -0.13240374045E+03  0.29203537103E+03  0.18800000000E+03 0.  0.
   -5000001    1    1    2    0    0 -0.17129540319E+03  0.55387654686E+02 -0.49492165664E+02  0.26495920801E+03  0.18800000000E+03 0.  0.
<mgrwt>
<rscale>  0 0.52645687E+03</rscale>
<asrwt>0</asrwt>
<pdfrwt beam="1">  1        2 0.52777891E-01 0.52645687E+03</pdfrwt>
<pdfrwt beam="2">  1       -2 0.26792763E-01 0.52645687E+03</pdfrwt>
<totfact> 0.11940912E+03</totfact>
</mgrwt>
</event>
<event>
 4    1  0.6034452E-005  0.5253306E+03  0.7818608E-02  0.1007371E+00
         -2   -1    0    0    0  501 -0.00000000000E+00  0.00000000000E+00  0.29646601163E+02  0.29646601273E+02  0.25500000000E-02 0. -1.
          2   -1    0    0  501    0  0.00000000000E+00 -0.00000000000E+00 -0.23271827394E+04  0.23271827394E+04  0.25500000000E-02 0.  1.
    5000001    1    1    2    0    0 -0.39732248827E+02 -0.15592316920E+03 -0.15439351425E+04  0.15636401155E+04  0.18800000000E+03 0.  0.
   -5000001    1    1    2    0    0  0.39732248827E+02  0.15592316920E+03 -0.75360099571E+03  0.79318922523E+03  0.18800000000E+03 0.  0.
<mgrwt>
<rscale>  0 0.52533060E+03</rscale>
<asrwt>0</asrwt>
<pdfrwt beam="1">  1        2 0.33245456E+00 0.52533060E+03</pdfrwt>
<pdfrwt beam="2">  1       -2 0.42352302E-02 0.52533060E+03</pdfrwt>
<totfact> 0.15098682E+03</totfact>
</mgrwt>
</event>
<event>
 4    1  0.6034452E-005  0.5430486E+03  0.7818608E-02  0.1003116E+00
         -2   -1    0    0    0  501 -0.00000000000E+00  0.00000000000E+00  0.24014604080E+03  0.24014604081E+03  0.25500000000E-02 0. -1.
          2   -1    0    0  501    0  0.00000000000E+00 -0.00000000000E+00 -0.30700259657E+03  0.30700259658E+03  0.25500000000E-02 0.  1.
    5000001    1    1    2    0    0 -0.10363949525E+03  0.15144983587E+03  0.35669820483E+02  0.26513116349E+03  0.18800000000E+03 0.  0.
   -5000001    1    1    2    0    0  0.10363949525E+03 -0.15144983587E+03 -0.10252637625E+03  0.28201747390E+03  0.18800000000E+03 0.  0.
<mgrwt>
<rscale>  0 0.54304865E+03</rscale>
<asrwt>0</asrwt>
<pdfrwt beam="1">  1        2 0.43857514E-01 0.54304865E+03</pdfrwt>
<pdfrwt beam="2">  1       -2 0.34306577E-01 0.54304865E+03</pdfrwt>
<totfact> 0.92746672E+02</totfact>
</mgrwt>
</event>
<event>
 4    1  0.6034452E-005  0.7225276E+03  0.7818608E-02  0.9679464E-01
         -2   -1    0    0    0  501 -0.00000000000E+00  0.00000000000E+00  0.18301624618E+03  0.18301624619E+03  0.25500000000E-02 0. -1.
          2   -1    0    0  501    0  0.00000000000E+00 -0.00000000000E+00 -0.71311441925E+03  0.71311441925E+03  0.25500000000E-02 0.  1.
    5000001    1    1    2    0    0 -0.24152158752E+03 -0.84701587392E+02 -0.47865145236E+03  0.57441992391E+03  0.18800000000E+03 0.  0.
   -5000001    1    1    2    0    0  0.24152158752E+03  0.84701587392E+02 -0.51446720718E+02  0.32171074154E+03  0.18800000000E+03 0.  0.
<mgrwt>
<rscale>  0 0.72252757E+03</rscale>
<asrwt>0</asrwt>
<pdfrwt beam="1">  1        2 0.10187349E+00 0.72252757E+03</pdfrwt>
<pdfrwt beam="2">  1       -2 0.26145178E-01 0.72252757E+03</pdfrwt>
<totfact> 0.58320283E+02</totfact>
</mgrwt>
</event>
<event>
 4    1  0.6034452E-005  0.5789800E+03  0.7818608E-02  0.9950002E-01
         -2   -1    0    0    0  501 -0.00000000000E+00  0.00000000000E+00  0.18071791693E+03  0.18071791695E+03  0.25500000000E-02 0. -1.
          2   -1    0    0  501    0  0.00000000000E+00 -0.00000000000E+00 -0.46373076948E+03  0.46373076949E+03  0.25500000000E-02 0.  1.
    5000001    1    1    2    0    0 -0.82963510109E+02  0.18789963455E+03 -0.53360638213E+02  0.28351468107E+03  0.18800000000E+03 0.  0.
   -5000001    1    1    2    0    0  0.82963510109E+02 -0.18789963455E+03 -0.22965221434E+03  0.36093400536E+03  0.18800000000E+03 0.  0.
<mgrwt>
<rscale>  0 0.57898000E+03</rscale>
<asrwt>0</asrwt>
<pdfrwt beam="1">  1        2 0.66247252E-01 0.57898000E+03</pdfrwt>
<pdfrwt beam="2">  1       -2 0.25816846E-01 0.57898000E+03</pdfrwt>
<totfact> 0.99135729E+02</totfact>
</mgrwt>
</event>
<event>
 4    1  0.6034452E-005  0.8172371E+03  0.7818608E-02  0.9535397E-01
         -2   -1    0    0    0  501 -0.00000000000E+00  0.00000000000E+00  0.35690457966E+03  0.35690457967E+03  0.25500000000E-02 0. -1.
          2   -1    0    0  501    0  0.00000000000E+00 -0.00000000000E+00 -0.46782560636E+03  0.46782560636E+03  0.25500000000E-02 0.  1.
    5000001    1    1    2    0    0 -0.24515720563E+03  0.22661375877E+03 -0.19878114623E+03  0.43164081739E+03  0.18800000000E+03 0.  0.
   -5000001    1    1    2    0    0  0.24515720563E+03 -0.22661375877E+03  0.87860119537E+02  0.39308936865E+03  0.18800000000E+03 0.  0.
<mgrwt>
<rscale>  0 0.81723706E+03</rscale>
<asrwt>0</asrwt>
<pdfrwt beam="1">  1        2 0.66832229E-01 0.81723706E+03</pdfrwt>
<pdfrwt beam="2">  1       -2 0.50986369E-01 0.81723706E+03</pdfrwt>
<totfact> 0.26497824E+02</totfact>
</mgrwt>
</event>
<event>
 4    1  0.6034452E-005  0.2671533E+04  0.7818608E-02  0.8344301E-01
          2   -1    0    0  501    0  0.00000000000E+00  0.00000000000E+00  0.12402331479E+04  0.12402331479E+04  0.25500000000E-02 0.  1.
         -2   -1    0    0    0  501 -0.00000000000E+00 -0.00000000000E+00 -0.14386585638E+04  0.14386585638E+04  0.25500000000E-02 0. -1.
    5000001    1    1    2    0    0 -0.11103034789E+04 -0.60526849310E+03  0.28889898934E+03  0.13106984360E+04  0.18800000000E+03 0.  0.
   -5000001    1    1    2    0    0  0.11103034789E+04  0.60526849310E+03 -0.48732440522E+03  0.13681932758E+04  0.18800000000E+03 0.  0.
<mgrwt>
<rscale>  0 0.26715329E+04</rscale>
<asrwt>0</asrwt>
<pdfrwt beam="1">  1        2 0.17717616E+00 0.26715329E+04</pdfrwt>
<pdfrwt beam="2">  1       -2 0.20552265E+00 0.26715329E+04</pdfrwt>
<totfact> 0.21959579E+00</totfact>
</mgrwt>
</event>
<event>
 4    1  0.6034452E-005  0.8112740E+03  0.7818608E-02  0.9543840E-01
         -2   -1    0    0    0  501 -0.00000000000E+00  0.00000000000E+00  0.11670732244E+03  0.11670732246E+03  0.25500000000E-02 0.  1.
          2   -1    0    0  501    0  0.00000000000E+00 -0.00000000000E+00 -0.14098631869E+04  0.14098631869E+04  0.25500000000E-02 0. -1.
    5000001    1    1    2    0    0 -0.26033790370E+03  0.12813073401E+03 -0.24739209322E+03  0.42513545710E+03  0.18800000000E+03 0.  0.
   -5000001    1    1    2    0    0  0.26033790370E+03 -0.12813073401E+03 -0.10457637712E+04  0.11014350522E+04  0.18800000000E+03 0.  0.
<mgrwt>
<rscale>  0 0.81127396E+03</rscale>
<asrwt>0</asrwt>
<pdfrwt beam="1">  1        2 0.20140902E+00 0.81127396E+03</pdfrwt>
<pdfrwt beam="2">  1       -2 0.16672475E-01 0.81127396E+03</pdfrwt>
<totfact> 0.48083103E+02</totfact>
</mgrwt>
</event>
<event>
 4    1  0.6034452E-005  0.5865705E+03  0.7818608E-02  0.9933666E-01
         -2   -1    0    0    0  501 -0.00000000000E+00  0.00000000000E+00  0.66043944343E+02  0.66043944393E+02  0.25500000000E-02 0. -1.
          2   -1    0    0  501    0  0.00000000000E+00 -0.00000000000E+00 -0.13024090624E+04  0.13024090624E+04  0.25500000000E-02 0.  1.
    5000001    1    1    2    0    0 -0.45369584997E+02 -0.20452994836E+03 -0.42606493339E+03  0.51065274550E+03  0.18800000000E+03 0.  0.
   -5000001    1    1    2    0    0  0.45369584997E+02  0.20452994836E+03 -0.81030018469E+03  0.85780026133E+03  0.18800000000E+03 0.  0.
<mgrwt>
<rscale>  0 0.58657048E+03</rscale>
<asrwt>0</asrwt>
<pdfrwt beam="1">  1        2 0.18605842E+00 0.58657048E+03</pdfrwt>
<pdfrwt beam="2">  1       -2 0.94348500E-02 0.58657048E+03</pdfrwt>
<totfact> 0.14261994E+03</totfact>
</mgrwt>
</event>
<event>
 4    1  0.6034452E-005  0.5412618E+03  0.7818608E-02  0.1003537E+00
          2   -1    0    0  501    0  0.00000000000E+00  0.00000000000E+00  0.12773600396E+04  0.12773600396E+04  0.25500000000E-02 0.  1.
         -2   -1    0    0    0  501 -0.00000000000E+00 -0.00000000000E+00 -0.57337857705E+02  0.57337857761E+02  0.25500000000E-02 0. -1.
    5000001    1    1    2    0    0  0.18906282691E+03  0.31409877098E+02  0.52581745002E+03  0.59038912900E+03  0.18800000000E+03 0.  0.
   -5000001    1    1    2    0    0 -0.18906282691E+03 -0.31409877098E+02  0.69420473187E+03  0.74430876835E+03  0.18800000000E+03 0.  0.
<mgrwt>
<rscale>  0 0.54126182E+03</rscale>
<asrwt>0</asrwt>
<pdfrwt beam="1">  1        2 0.18248002E+00 0.54126182E+03</pdfrwt>
<pdfrwt beam="2">  1       -2 0.81911219E-02 0.54126182E+03</pdfrwt>
<totfact> 0.18478188E+03</totfact>
</mgrwt>
</event>
<event>
 4    1  0.6034452E-005  0.4116394E+03  0.7818608E-02  0.1039822E+00
          2   -1    0    0  501    0  0.00000000000E+00  0.00000000000E+00  0.23239484552E+04  0.23239484552E+04  0.25500000000E-02 0.  1.
         -2   -1    0    0    0  501 -0.00000000000E+00 -0.00000000000E+00 -0.18228348199E+02  0.18228348377E+02  0.25500000000E-02 0. -1.
    5000001    1    1    2    0    0 -0.57720073095E+02  0.49042615492E+02  0.94921679869E+03  0.97061491637E+03  0.18800000000E+03 0.  0.
   -5000001    1    1    2    0    0  0.57720073095E+02 -0.49042615492E+02  0.13565033083E+04  0.13715618872E+04  0.18800000000E+03 0.  0.
<mgrwt>
<rscale>  0 0.41163937E+03</rscale>
<asrwt>0</asrwt>
<pdfrwt beam="1">  1        2 0.33199256E+00 0.41163937E+03</pdfrwt>
<pdfrwt beam="2">  1       -2 0.26040503E-02 0.41163937E+03</pdfrwt>
<totfact> 0.31873559E+03</totfact>
</mgrwt>
</event>
<event>
 4    1  0.6034452E-005  0.7467267E+03  0.7818608E-02  0.9640500E-01
          2   -1    0    0  501    0  0.00000000000E+00  0.00000000000E+00  0.27786361434E+04  0.27786361434E+04  0.25500000000E-02 0.  1.
         -2   -1    0    0    0  501 -0.00000000000E+00 -0.00000000000E+00 -0.50168562918E+02  0.50168562983E+02  0.25500000000E-02 0. -1.
    5000001    1    1    2    0    0 -0.20381377782E+03  0.24972269477E+03  0.13171155335E+04  0.13689553714E+04  0.18800000000E+03 0.  0.
   -5000001    1    1    2    0    0  0.20381377782E+03 -0.24972269477E+03  0.14113520470E+04  0.14598493350E+04  0.18800000000E+03 0.  0.
<mgrwt>
<rscale>  0 0.74672668E+03</rscale>
<asrwt>0</asrwt>
<pdfrwt beam="1">  1        2 0.39694808E+00 0.74672668E+03</pdfrwt>
<pdfrwt beam="2">  1       -2 0.71669364E-02 0.74672668E+03</pdfrwt>
<totfact> 0.38153063E+02</totfact>
</mgrwt>
</event>
<event>
 4    1  0.6034452E-005  0.4374183E+03  0.7818608E-02  0.1031542E+00
          2   -1    0    0  501    0  0.00000000000E+00  0.00000000000E+00  0.12863165649E+04  0.12863165650E+04  0.25500000000E-02 0.  1.
         -2   -1    0    0    0  501 -0.00000000000E+00 -0.00000000000E+00 -0.37186559454E+02  0.37186559542E+02  0.25500000000E-02 0. -1.
    5000001    1    1    2    0    0  0.52054527173E+02 -0.31413362229E+02  0.90829279220E+03  0.92953551276E+03  0.18800000000E+03 0.  0.
   -5000001    1    1    2    0    0 -0.52054527173E+02  0.31413362229E+02  0.34083721330E+03  0.39396761173E+03  0.18800000000E+03 0.  0.
<mgrwt>
<rscale>  0 0.43741828E+03</rscale>
<asrwt>0</asrwt>
<pdfrwt beam="1">  1        2 0.18375951E+00 0.43741828E+03</pdfrwt>
<pdfrwt beam="2">  1       -2 0.53123655E-02 0.43741828E+03</pdfrwt>
<totfact> 0.36052732E+03</totfact>
</mgrwt>
</event>
<event>
 4    1  0.6034452E-005  0.4120040E+03  0.7818608E-02  0.1039701E+00
         -2   -1    0    0    0  501 -0.00000000000E+00  0.00000000000E+00  0.75199804733E+02  0.75199804776E+02  0.25500000000E-02 0. -1.
          2   -1    0    0  501    0  0.00000000000E+00 -0.00000000000E+00 -0.56432092680E+03  0.56432092680E+03  0.25500000000E-02 0.  1.
    5000001    1    1    2    0    0 -0.57872421511E+02  0.55355252917E+02 -0.28501970694E+03  0.35070451172E+03  0.18800000000E+03 0.  0.
   -5000001    1    1    2    0    0  0.57872421511E+02 -0.55355252917E+02 -0.20410141512E+03  0.28881621985E+03  0.18800000000E+03 0.  0.
<mgrwt>
<rscale>  0 0.41200400E+03</rscale>
<asrwt>0</asrwt>
<pdfrwt beam="1">  1        2 0.80617273E-01 0.41200400E+03</pdfrwt>
<pdfrwt beam="2">  1       -2 0.10742830E-01 0.41200400E+03</pdfrwt>
<totfact> 0.35157752E+03</totfact>
</mgrwt>
</event>
<event>
 4    1  0.6034452E-005  0.4979935E+03  0.7818608E-02  0.1014304E+00
         -2   -1    0    0    0  501 -0.00000000000E+00  0.00000000000E+00  0.13030345605E+03  0.13030345608E+03  0.25500000000E-02 0. -1.
          2   -1    0    0  501    0  0.00000000000E+00 -0.00000000000E+00 -0.47580760813E+03  0.47580760814E+03  0.25500000000E-02 0.  1.
    5000001    1    1    2    0    0  0.19373936747E+00  0.15871307190E+03 -0.21934514600E+03  0.32961518442E+03  0.18800000000E+03 0.  0.
   -5000001    1    1    2    0    0 -0.19373936747E+00 -0.15871307190E+03 -0.12615900608E+03  0.27649587980E+03  0.18800000000E+03 0.  0.
<mgrwt>
<rscale>  0 0.49799348E+03</rscale>
<asrwt>0</asrwt>
<pdfrwt beam="1">  1        2 0.67972514E-01 0.49799348E+03</pdfrwt>
<pdfrwt beam="2">  1       -2 0.18614780E-01 0.49799348E+03</pdfrwt>
<totfact> 0.17125320E+03</totfact>
</mgrwt>
</event>
<event>
 4    1  0.6034452E-005  0.5774310E+03  0.7818608E-02  0.9953368E-01
          2   -1    0    0  501    0  0.00000000000E+00  0.00000000000E+00  0.10560146893E+04  0.10560146893E+04  0.25500000000E-02 0.  1.
         -2   -1    0    0    0  501 -0.00000000000E+00 -0.00000000000E+00 -0.78935105948E+02  0.78935105989E+02  0.25500000000E-02 0. -1.
    5000001    1    1    2    0    0  0.20815109331E+03  0.22807389976E+02  0.36168287648E+03  0.45826363354E+03  0.18800000000E+03 0.  0.
   -5000001    1    1    2    0    0 -0.20815109331E+03 -0.22807389976E+02  0.61539670692E+03  0.67668616180E+03  0.18800000000E+03 0.  0.
<mgrwt>
<rscale>  0 0.57743097E+03</rscale>
<asrwt>0</asrwt>
<pdfrwt beam="1">  1        2 0.15085923E+00 0.57743097E+03</pdfrwt>
<pdfrwt beam="2">  1       -2 0.11276445E-01 0.57743097E+03</pdfrwt>
<totfact> 0.14714545E+03</totfact>
</mgrwt>
</event>
<event>
 4    1  0.6034452E-005  0.8918937E+03  0.7818608E-02  0.9435772E-01
          2   -1    0    0  501    0  0.00000000000E+00  0.00000000000E+00  0.16253949969E+04  0.16253949969E+04  0.25500000000E-02 0.  1.
         -2   -1    0    0    0  501 -0.00000000000E+00 -0.00000000000E+00 -0.12235094525E+03  0.12235094528E+03  0.25500000000E-02 0. -1.
    5000001    1    1    2    0    0 -0.27739133370E+03  0.48218401464E+02  0.13203219634E+04  0.13630352356E+04  0.18800000000E+03 0.  0.
   -5000001    1    1    2    0    0  0.27739133370E+03 -0.48218401464E+02  0.18272208817E+03  0.38471070657E+03  0.18800000000E+03 0.  0.
<mgrwt>
<rscale>  0 0.89189375E+03</rscale>
<asrwt>0</asrwt>
<pdfrwt beam="1">  1        2 0.23219928E+00 0.89189375E+03</pdfrwt>
<pdfrwt beam="2">  1       -2 0.17478707E-01 0.89189375E+03</pdfrwt>
<totfact> 0.33995126E+02</totfact>
</mgrwt>
</event>
<event>
 4    1  0.6034452E-005  0.4365595E+03  0.7818608E-02  0.1031808E+00
         -2   -1    0    0    0  501 -0.00000000000E+00  0.00000000000E+00  0.40890677840E+02  0.40890677919E+02  0.25500000000E-02 0. -1.
          2   -1    0    0  501    0  0.00000000000E+00 -0.00000000000E+00 -0.11652056587E+04  0.11652056587E+04  0.25500000000E-02 0.  1.
    5000001    1    1    2    0    0  0.92867368132E+02 -0.55836659290E+02 -0.49678117809E+03  0.54210480490E+03  0.18800000000E+03 0.  0.
   -5000001    1    1    2    0    0 -0.92867368132E+02  0.55836659290E+02 -0.62753380273E+03  0.66399153169E+03  0.18800000000E+03 0.  0.
<mgrwt>
<rscale>  0 0.43655950E+03</rscale>
<asrwt>0</asrwt>
<pdfrwt beam="1">  1        2 0.16645793E+00 0.43655950E+03</pdfrwt>
<pdfrwt beam="2">  1       -2 0.58415261E-02 0.43655950E+03</pdfrwt>
<totfact> 0.36276697E+03</totfact>
</mgrwt>
</event>
<event>
 4    1  0.6034452E-005  0.1090777E+04  0.7818608E-02  0.9214228E-01
          2   -1    0    0  501    0  0.00000000000E+00  0.00000000000E+00  0.91602462910E+03  0.91602462910E+03  0.25500000000E-02 0.  1.
         -2   -1    0    0    0  501 -0.00000000000E+00 -0.00000000000E+00 -0.32471683842E+03  0.32471683843E+03  0.25500000000E-02 0. -1.
    5000001    1    1    2    0    0 -0.29927970800E+03 -0.16646872194E+03  0.72853263253E+03  0.82667041538E+03  0.18800000000E+03 0.  0.
   -5000001    1    1    2    0    0  0.29927970800E+03  0.16646872194E+03 -0.13722484186E+03  0.41407105215E+03  0.18800000000E+03 0.  0.
<mgrwt>
<rscale>  0 0.10907770E+04</rscale>
<asrwt>0</asrwt>
<pdfrwt beam="1">  1        2 0.13086066E+00 0.10907770E+04</pdfrwt>
<pdfrwt beam="2">  1       -2 0.46388120E-01 0.10907770E+04</pdfrwt>
<totfact> 0.13886900E+02</totfact>
</mgrwt>
</event>
<event>
 4    1  0.6034452E-005  0.5756215E+03  0.7818608E-02  0.9957316E-01
          2   -1    0    0  501    0  0.00000000000E+00  0.00000000000E+00  0.49708177777E+03  0.49708177778E+03  0.25500000000E-02 0.  1.
         -2   -1    0    0    0  501 -0.00000000000E+00 -0.00000000000E+00 -0.16664263744E+03  0.16664263746E+03  0.25500000000E-02 0. -1.
    5000001    1    1    2    0    0 -0.13010693320E+03  0.15611839289E+03  0.25593997282E+03  0.37702789864E+03  0.18800000000E+03 0.  0.
   -5000001    1    1    2    0    0  0.13010693320E+03 -0.15611839289E+03  0.74499167520E+02  0.28669651660E+03  0.18800000000E+03 0.  0.
<mgrwt>
<rscale>  0 0.57562147E+03</rscale>
<asrwt>0</asrwt>
<pdfrwt beam="1">  1        2 0.71011684E-01 0.57562147E+03</pdfrwt>
<pdfrwt beam="2">  1       -2 0.23806091E-01 0.57562147E+03</pdfrwt>
<totfact> 0.10598713E+03</totfact>
</mgrwt>
</event>
<event>
 4    1  0.6034452E-005  0.8937788E+03  0.7818608E-02  0.9433392E-01
          2   -1    0    0  501    0  0.00000000000E+00  0.00000000000E+00  0.33120195711E+04  0.33120195711E+04  0.25500000000E-02 0.  1.
         -2   -1    0    0    0  501 -0.00000000000E+00 -0.00000000000E+00 -0.60298596131E+02  0.60298596185E+02  0.25500000000E-02 0. -1.
    5000001    1    1    2    0    0 -0.78510564742E+02 -0.38861207074E+03  0.13060830539E+04  0.13778171845E+04  0.18800000000E+03 0.  0.
   -5000001    1    1    2    0    0  0.78510564742E+02  0.38861207074E+03  0.19456379210E+04  0.19945009827E+04  0.18800000000E+03 0.  0.
<mgrwt>
<rscale>  0 0.89377879E+03</rscale>
<asrwt>0</asrwt>
<pdfrwt beam="1">  1        2 0.47314580E+00 0.89377879E+03</pdfrwt>
<pdfrwt beam="2">  1       -2 0.86140825E-02 0.89377879E+03</pdfrwt>
<totfact> 0.14197150E+02</totfact>
</mgrwt>
</event>
<event>
 4    1  0.6034452E-005  0.6381066E+03  0.7818608E-02  0.9829356E-01
          2   -1    0    0  501    0  0.00000000000E+00  0.00000000000E+00  0.64905745736E+03  0.64905745737E+03  0.25500000000E-02 0.  1.
         -2   -1    0    0    0  501 -0.00000000000E+00 -0.00000000000E+00 -0.15683514971E+03  0.15683514973E+03  0.25500000000E-02 0. -1.
    5000001    1    1    2    0    0  0.15807185029E+03 -0.54420272697E+02  0.49392739399E+03  0.55430726720E+03  0.18800000000E+03 0.  0.
   -5000001    1    1    2    0    0 -0.15807185029E+03  0.54420272697E+02 -0.17050863403E+01  0.25158533990E+03  0.18800000000E+03 0.  0.
<mgrwt>
<rscale>  0 0.63810665E+03</rscale>
<asrwt>0</asrwt>
<pdfrwt beam="1">  1        2 0.92722496E-01 0.63810665E+03</pdfrwt>
<pdfrwt beam="2">  1       -2 0.22405021E-01 0.63810665E+03</pdfrwt>
<totfact> 0.86426620E+02</totfact>
</mgrwt>
</event>
<event>
 4    1  0.6034452E-005  0.5197571E+03  0.7818608E-02  0.1008747E+00
         -2   -1    0    0    0  501 -0.00000000000E+00  0.00000000000E+00  0.36805900128E+02  0.36805900217E+02  0.25500000000E-02 0. -1.
          2   -1    0    0  501    0  0.00000000000E+00 -0.00000000000E+00 -0.18349467622E+04  0.18349467622E+04  0.25500000000E-02 0.  1.
    5000001    1    1    2    0    0  0.13518609604E+03 -0.16542063662E+02 -0.47842321561E+03  0.53177221972E+03  0.18800000000E+03 0.  0.
   -5000001    1    1    2    0    0 -0.13518609604E+03  0.16542063662E+02 -0.13197176464E+04  0.13399804427E+04  0.18800000000E+03 0.  0.
<mgrwt>
<rscale>  0 0.51975713E+03</rscale>
<asrwt>0</asrwt>
<pdfrwt beam="1">  1        2 0.26213519E+00 0.51975713E+03</pdfrwt>
<pdfrwt beam="2">  1       -2 0.52579869E-02 0.51975713E+03</pdfrwt>
<totfact> 0.19086762E+03</totfact>
</mgrwt>
</event>
<event>
 4    1  0.6034452E-005  0.3923853E+03  0.7818608E-02  0.1046449E+00
          2   -1    0    0  501    0  0.00000000000E+00  0.00000000000E+00  0.14201831944E+04  0.14201831944E+04  0.25500000000E-02 0.  1.
         -2   -1    0    0    0  501 -0.00000000000E+00 -0.00000000000E+00 -0.27103238425E+02  0.27103238545E+02  0.25500000000E-02 0. -1.
    5000001    1    1    2    0    0 -0.11725046027E+02  0.40121698602E+02  0.83456502637E+03  0.85649869272E+03  0.18800000000E+03 0.  0.
   -5000001    1    1    2    0    0  0.11725046027E+02 -0.40121698602E+02  0.55851492961E+03  0.59078774022E+03  0.18800000000E+03 0.  0.
<mgrwt>
<rscale>  0 0.39238534E+03</rscale>
<asrwt>0</asrwt>
<pdfrwt beam="1">  1        2 0.20288336E+00 0.39238534E+03</pdfrwt>
<pdfrwt beam="2">  1       -2 0.38718903E-02 0.39238534E+03</pdfrwt>
<totfact> 0.49673303E+03</totfact>
</mgrwt>
</event>
<event>
 4    1  0.6034452E-005  0.4803877E+03  0.7818608E-02  0.1019029E+00
         -2   -1    0    0    0  501 -0.00000000000E+00  0.00000000000E+00  0.17267004086E+02  0.17267004275E+02  0.25500000000E-02 0. -1.
          2   -1    0    0  501    0  0.00000000000E+00 -0.00000000000E+00 -0.33412333384E+04  0.33412333384E+04  0.25500000000E-02 0.  1.
    5000001    1    1    2    0    0  0.26014462686E+02  0.14709139531E+03 -0.16197691229E+04  0.16374701958E+04  0.18800000000E+03 0.  0.
   -5000001    1    1    2    0    0 -0.26014462686E+02 -0.14709139531E+03 -0.17041972114E+04  0.17210301468E+04  0.18800000000E+03 0.  0.
<mgrwt>
<rscale>  0 0.48038772E+03</rscale>
<asrwt>0</asrwt>
<pdfrwt beam="1">  1        2 0.47731864E+00 0.48038772E+03</pdfrwt>
<pdfrwt beam="2">  1       -2 0.24667170E-02 0.48038772E+03</pdfrwt>
<totfact> 0.99446927E+02</totfact>
</mgrwt>
</event>
<event>
 4    1  0.6034452E-005  0.5580852E+03  0.7818608E-02  0.9996397E-01
          2   -1    0    0  501    0  0.00000000000E+00  0.00000000000E+00  0.13484988982E+04  0.13484988982E+04  0.25500000000E-02 0.  1.
         -2   -1    0    0    0  501 -0.00000000000E+00 -0.00000000000E+00 -0.57741808197E+02  0.57741808253E+02  0.25500000000E-02 0. -1.
    5000001    1    1    2    0    0  0.16007220324E+03 -0.89338433541E+02  0.88330979656E+03  0.92151216089E+03  0.18800000000E+03 0.  0.
   -5000001    1    1    2    0    0 -0.16007220324E+03  0.89338433541E+02  0.40744729345E+03  0.48472854557E+03  0.18800000000E+03 0.  0.
<mgrwt>
<rscale>  0 0.55808517E+03</rscale>
<asrwt>0</asrwt>
<pdfrwt beam="1">  1        2 0.19264267E+00 0.55808517E+03</pdfrwt>
<pdfrwt beam="2">  1       -2 0.82488312E-02 0.55808517E+03</pdfrwt>
<totfact> 0.16718502E+03</totfact>
</mgrwt>
</event>
<event>
 4    1  0.6034452E-005  0.5137217E+03  0.7818608E-02  0.1010258E+00
         -2   -1    0    0    0  501 -0.00000000000E+00  0.00000000000E+00  0.96661717353E+02  0.96661717387E+02  0.25500000000E-02 0. -1.
          2   -1    0    0  501    0  0.00000000000E+00 -0.00000000000E+00 -0.68256089804E+03  0.68256089804E+03  0.25500000000E-02 0.  1.
    5000001    1    1    2    0    0  0.10299764998E+03  0.11100200663E+03 -0.42608052222E+03  0.48971274518E+03  0.18800000000E+03 0.  0.
   -5000001    1    1    2    0    0 -0.10299764998E+03 -0.11100200663E+03 -0.15981865847E+03  0.28950987025E+03  0.18800000000E+03 0.  0.
<mgrwt>
<rscale>  0 0.51372175E+03</rscale>
<asrwt>0</asrwt>
<pdfrwt beam="1">  1        2 0.97508697E-01 0.51372175E+03</pdfrwt>
<pdfrwt beam="2">  1       -2 0.13808817E-01 0.51372175E+03</pdfrwt>
<totfact> 0.18664903E+03</totfact>
</mgrwt>
</event>
<event>
 4    1  0.6034452E-005  0.5224337E+03  0.7818608E-02  0.1008084E+00
         -2   -1    0    0    0  501 -0.00000000000E+00  0.00000000000E+00  0.55014325522E+02  0.55014325582E+02  0.25500000000E-02 0. -1.
          2   -1    0    0  501    0  0.00000000000E+00 -0.00000000000E+00 -0.12402996839E+04  0.12402996839E+04  0.25500000000E-02 0.  1.
    5000001    1    1    2    0    0  0.15364292908E+03  0.60397946494E+01 -0.83107157329E+03  0.86583288728E+03  0.18800000000E+03 0.  0.
   -5000001    1    1    2    0    0 -0.15364292908E+03 -0.60397946494E+01 -0.35421378508E+03  0.42948112219E+03  0.18800000000E+03 0.  0.
<mgrwt>
<rscale>  0 0.52243373E+03</rscale>
<asrwt>0</asrwt>
<pdfrwt beam="1">  1        2 0.17718565E+00 0.52243373E+03</pdfrwt>
<pdfrwt beam="2">  1       -2 0.78591901E-02 0.52243373E+03</pdfrwt>
<totfact> 0.20685416E+03</totfact>
</mgrwt>
</event>
<event>
 4    1  0.6034452E-005  0.1096487E+04  0.7818608E-02  0.9208622E-01
         -2   -1    0    0    0  501 -0.00000000000E+00  0.00000000000E+00  0.49132439219E+03  0.49132439219E+03  0.25500000000E-02 0. -1.
          2   -1    0    0  501    0  0.00000000000E+00 -0.00000000000E+00 -0.61175697825E+03  0.61175697826E+03  0.25500000000E-02 0.  1.
    5000001    1    1    2    0    0  0.11284502845E+03  0.47516492483E+03  0.10420286038E+03  0.53358967601E+03  0.18800000000E+03 0.  0.
   -5000001    1    1    2    0    0 -0.11284502845E+03 -0.47516492483E+03 -0.22463544644E+03  0.56949169444E+03  0.18800000000E+03 0.  0.
<mgrwt>
<rscale>  0 0.10964873E+04</rscale>
<asrwt>0</asrwt>
<pdfrwt beam="1">  1        2 0.87393854E-01 0.10964873E+04</pdfrwt>
<pdfrwt beam="2">  1       -2 0.70189199E-01 0.10964873E+04</pdfrwt>
<totfact> 0.97402982E+01</totfact>
</mgrwt>
</event>
<event>
 4    1  0.6034452E-005  0.5059323E+03  0.7818608E-02  0.1012242E+00
          2   -1    0    0  501    0  0.00000000000E+00  0.00000000000E+00  0.15766557006E+04  0.15766557006E+04  0.25500000000E-02 0.  1.
         -2   -1    0    0    0  501 -0.00000000000E+00 -0.00000000000E+00 -0.40587086484E+02  0.40587086564E+02  0.25500000000E-02 0. -1.
    5000001    1    1    2    0    0 -0.20278901687E+02  0.16049940370E+03  0.92711155292E+03  0.95971408451E+03  0.18800000000E+03 0.  0.
   -5000001    1    1    2    0    0  0.20278901687E+02 -0.16049940370E+03  0.60895706119E+03  0.65752870266E+03  0.18800000000E+03 0.  0.
<mgrwt>
<rscale>  0 0.50593225E+03</rscale>
<asrwt>0</asrwt>
<pdfrwt beam="1">  1        2 0.22523650E+00 0.50593225E+03</pdfrwt>
<pdfrwt beam="2">  1       -2 0.57981560E-02 0.50593225E+03</pdfrwt>
<totfact> 0.22162898E+03</totfact>
</mgrwt>
</event>
<event>
 4    1  0.6034452E-005  0.5213141E+03  0.7818608E-02  0.1008361E+00
          2   -1    0    0  501    0  0.00000000000E+00  0.00000000000E+00  0.50240146628E+03  0.50240146629E+03  0.25500000000E-02 0.  1.
         -2   -1    0    0    0  501 -0.00000000000E+00 -0.00000000000E+00 -0.13523465010E+03  0.13523465013E+03  0.25500000000E-02 0. -1.
    5000001    1    1    2    0    0 -0.33361443240E+02 -0.17692176458E+03  0.16700151085E+03  0.30926978724E+03  0.18800000000E+03 0.  0.
   -5000001    1    1    2    0    0  0.33361443240E+02  0.17692176458E+03  0.20016530533E+03  0.32836632917E+03  0.18800000000E+03 0.  0.
<mgrwt>
<rscale>  0 0.52131406E+03</rscale>
<asrwt>0</asrwt>
<pdfrwt beam="1">  1        2 0.71771637E-01 0.52131406E+03</pdfrwt>
<pdfrwt beam="2">  1       -2 0.19319236E-01 0.52131406E+03</pdfrwt>
<totfact> 0.15108455E+03</totfact>
</mgrwt>
</event>
<event>
 4    1  0.6034452E-005  0.6672354E+03  0.7818608E-02  0.9774965E-01
          2   -1    0    0  501    0  0.00000000000E+00  0.00000000000E+00  0.62833037959E+03  0.62833037959E+03  0.25500000000E-02 0.  1.
         -2   -1    0    0    0  501 -0.00000000000E+00 -0.00000000000E+00 -0.17713734374E+03  0.17713734376E+03  0.25500000000E-02 0. -1.
    5000001    1    1    2    0    0 -0.95719864305E+02  0.25840447323E+03  0.23120827404E+03  0.40587735856E+03  0.18800000000E+03 0.  0.
   -5000001    1    1    2    0    0  0.95719864305E+02 -0.25840447323E+03  0.21998476181E+03  0.39959036479E+03  0.18800000000E+03 0.  0.
<mgrwt>
<rscale>  0 0.66723541E+03</rscale>
<asrwt>0</asrwt>
<pdfrwt beam="1">  1        2 0.89761481E-01 0.66723541E+03</pdfrwt>
<pdfrwt beam="2">  1       -2 0.25305335E-01 0.66723541E+03</pdfrwt>
<totfact> 0.72250437E+02</totfact>
</mgrwt>
</event>
<event>
 4    1  0.6034452E-005  0.4934618E+03  0.7818608E-02  0.1015500E+00
         -2   -1    0    0    0  501 -0.00000000000E+00  0.00000000000E+00  0.75939169069E+02  0.75939169112E+02  0.25500000000E-02 0. -1.
          2   -1    0    0  501    0  0.00000000000E+00 -0.00000000000E+00 -0.80164338496E+03  0.80164338497E+03  0.25500000000E-02 0.  1.
    5000001    1    1    2    0    0  0.58020363371E+02  0.14819290683E+03 -0.38829237231E+03  0.45982873615E+03  0.18800000000E+03 0.  0.
   -5000001    1    1    2    0    0 -0.58020363371E+02 -0.14819290683E+03 -0.33741184359E+03  0.41775381793E+03  0.18800000000E+03 0.  0.
<mgrwt>
<rscale>  0 0.49346178E+03</rscale>
<asrwt>0</asrwt>
<pdfrwt beam="1">  1        2 0.11452048E+00 0.49346178E+03</pdfrwt>
<pdfrwt beam="2">  1       -2 0.10848453E-01 0.49346178E+03</pdfrwt>
<totfact> 0.22738814E+03</totfact>
</mgrwt>
</event>
<event>
 4    1  0.6034452E-005  0.5965656E+03  0.7818608E-02  0.9912557E-01
          2   -1    0    0  501    0  0.00000000000E+00  0.00000000000E+00  0.14569942648E+04  0.14569942648E+04  0.25500000000E-02 0.  1.
         -2   -1    0    0    0  501 -0.00000000000E+00 -0.00000000000E+00 -0.61065880937E+02  0.61065880990E+02  0.25500000000E-02 0. -1.
    5000001    1    1    2    0    0  0.34738673737E+02 -0.16917537362E+03  0.30537944508E+03  0.39802975765E+03  0.18800000000E+03 0.  0.
   -5000001    1    1    2    0    0 -0.34738673737E+02  0.16917537362E+03  0.10905489388E+04  0.11200303881E+04  0.18800000000E+03 0.  0.
<mgrwt>
<rscale>  0 0.59656563E+03</rscale>
<asrwt>0</asrwt>
<pdfrwt beam="1">  1        2 0.20814207E+00 0.59656563E+03</pdfrwt>
<pdfrwt beam="2">  1       -2 0.87236958E-02 0.59656563E+03</pdfrwt>
<totfact> 0.13375686E+03</totfact>
</mgrwt>
</event>
<event>
 4    1  0.6034452E-005  0.7930707E+03  0.7818608E-02  0.9570102E-01
         -2   -1    0    0    0  501 -0.00000000000E+00  0.00000000000E+00  0.40977793147E+03  0.40977793148E+03  0.25500000000E-02 0. -1.
          2   -1    0    0  501    0  0.00000000000E+00 -0.00000000000E+00 -0.38372070596E+03  0.38372070597E+03  0.25500000000E-02 0.  1.
    5000001    1    1    2    0    0 -0.15431261151E+03  0.14534664703E+03 -0.26453457934E+03  0.38763458765E+03  0.18800000000E+03 0.  0.
   -5000001    1    1    2    0    0  0.15431261151E+03 -0.14534664703E+03  0.29059180485E+03  0.40586404980E+03  0.18800000000E+03 0.  0.
<mgrwt>
<rscale>  0 0.79307068E+03</rscale>
<asrwt>0</asrwt>
<pdfrwt beam="1">  1        2 0.54817244E-01 0.79307068E+03</pdfrwt>
<pdfrwt beam="2">  1       -2 0.58539705E-01 0.79307068E+03</pdfrwt>
<totfact> 0.24896691E+02</totfact>
</mgrwt>
</event>
<event>
 4    1  0.6034452E-005  0.5570619E+03  0.7818608E-02  0.9998725E-01
         -2   -1    0    0    0  501 -0.00000000000E+00  0.00000000000E+00  0.11284486263E+04  0.11284486263E+04  0.25500000000E-02 0. -1.
          2   -1    0    0  501    0  0.00000000000E+00 -0.00000000000E+00 -0.68748811392E+02  0.68748811439E+02  0.25500000000E-02 0.  1.
    5000001    1    1    2    0    0 -0.71622655693E+02  0.15400670989E+02  0.94250776618E+03  0.96386299586E+03  0.18800000000E+03 0.  0.
   -5000001    1    1    2    0    0  0.71622655693E+02 -0.15400670989E+02  0.11719204869E+03  0.23333444185E+03  0.18800000000E+03 0.  0.
<mgrwt>
<rscale>  0 0.55706194E+03</rscale>
<asrwt>0</asrwt>
<pdfrwt beam="1">  1        2 0.98212585E-02 0.55706194E+03</pdfrwt>
<pdfrwt beam="2">  1       -2 0.16120695E+00 0.55706194E+03</pdfrwt>
<totfact> 0.17098464E+02</totfact>
</mgrwt>
</event>
<event>
 4    1  0.6034452E-005  0.4584548E+03  0.7818608E-02  0.1025230E+00
          2   -1    0    0  501    0  0.00000000000E+00  0.00000000000E+00  0.14083511252E+04  0.14083511252E+04  0.25500000000E-02 0.  1.
         -2   -1    0    0    0  501 -0.00000000000E+00 -0.00000000000E+00 -0.37309727785E+02  0.37309727872E+02  0.25500000000E-02 0. -1.
    5000001    1    1    2    0    0  0.40599205283E+01 -0.10913629666E+03  0.91452269783E+03  0.94001222282E+03  0.18800000000E+03 0.  0.
   -5000001    1    1    2    0    0 -0.40599205283E+01  0.10913629666E+03  0.45651869955E+03  0.50564863022E+03  0.18800000000E+03 0.  0.
<mgrwt>
<rscale>  0 0.45845478E+03</rscale>
<asrwt>0</asrwt>
<pdfrwt beam="1">  1        2 0.20119300E+00 0.45845478E+03</pdfrwt>
<pdfrwt beam="2">  1       -2 0.53299615E-02 0.45845478E+03</pdfrwt>
<totfact> 0.30891876E+03</totfact>
</mgrwt>
</event>
<event>
 4    1  0.6034452E-005  0.4555020E+03  0.7818608E-02  0.1026094E+00
         -2   -1    0    0    0  501 -0.00000000000E+00  0.00000000000E+00  0.31849370799E+02  0.31849370902E+02  0.25500000000E-02 0. -1.
          2   -1    0    0  501    0  0.00000000000E+00 -0.00000000000E+00 -0.16286198108E+04  0.16286198108E+04  0.25500000000E-02 0.  1.
    5000001    1    1    2    0    0 -0.12205359383E+03 -0.26685184876E+02 -0.68797606005E+03  0.72406093532E+03  0.18800000000E+03 0.  0.
   -5000001    1    1    2    0    0  0.12205359383E+03  0.26685184876E+02 -0.90879437991E+03  0.93640824634E+03  0.18800000000E+03 0.  0.
<mgrwt>
<rscale>  0 0.45550199E+03</rscale>
<asrwt>0</asrwt>
<pdfrwt beam="1">  1        2 0.23265992E+00 0.45550199E+03</pdfrwt>
<pdfrwt beam="2">  1       -2 0.45499111E-02 0.45550199E+03</pdfrwt>
<totfact> 0.30359741E+03</totfact>
</mgrwt>
</event>
<event>
 4    1  0.6034452E-005  0.7770828E+03  0.7818608E-02  0.9593794E-01
         -2   -1    0    0    0  501 -0.00000000000E+00  0.00000000000E+00  0.32543743825E+03  0.32543743826E+03  0.25500000000E-02 0. -1.
          2   -1    0    0  501    0  0.00000000000E+00 -0.00000000000E+00 -0.46388150036E+03  0.46388150036E+03  0.25500000000E-02 0.  1.
    5000001    1    1    2    0    0 -0.32135717426E+03  0.69017193190E+01  0.43440396976E+02  0.37489883338E+03  0.18800000000E+03 0.  0.
   -5000001    1    1    2    0    0  0.32135717426E+03 -0.69017193190E+01 -0.18188445908E+03  0.41442010525E+03  0.18800000000E+03 0.  0.
<mgrwt>
<rscale>  0 0.77708277E+03</rscale>
<asrwt>0</asrwt>
<pdfrwt beam="1">  1        2 0.66268785E-01 0.77708277E+03</pdfrwt>
<pdfrwt beam="2">  1       -2 0.46491063E-01 0.77708277E+03</pdfrwt>
<totfact> 0.32294196E+02</totfact>
</mgrwt>
</event>
<event>
 4    1  0.6034452E-005  0.4887656E+03  0.7818608E-02  0.1016754E+00
         -2   -1    0    0    0  501 -0.00000000000E+00  0.00000000000E+00  0.29324299463E+02  0.29324299574E+02  0.25500000000E-02 0.  1.
          2   -1    0    0  501    0  0.00000000000E+00 -0.00000000000E+00 -0.20366373649E+04  0.20366373649E+04  0.25500000000E-02 0. -1.
    5000001    1    1    2    0    0  0.11532026940E+03 -0.98278023804E+02 -0.11630295575E+04  0.11878295695E+04  0.18800000000E+03 0.  0.
   -5000001    1    1    2    0    0 -0.11532026940E+03  0.98278023804E+02 -0.84428350793E+03  0.87813209499E+03  0.18800000000E+03 0.  0.
<mgrwt>
<rscale>  0 0.48876565E+03</rscale>
<asrwt>0</asrwt>
<pdfrwt beam="1">  1        2 0.29094810E+00 0.48876565E+03</pdfrwt>
<pdfrwt beam="2">  1       -2 0.41891869E-02 0.48876565E+03</pdfrwt>
<totfact> 0.21505669E+03</totfact>
</mgrwt>
</event>
<event>
 4    1  0.6034452E-005  0.8689157E+03  0.7818608E-02  0.9465295E-01
         -2   -1    0    0    0  501 -0.00000000000E+00  0.00000000000E+00  0.17426279028E+03  0.17426279030E+03  0.25500000000E-02 0. -1.
          2   -1    0    0  501    0  0.00000000000E+00 -0.00000000000E+00 -0.10831551347E+04  0.10831551348E+04  0.25500000000E-02 0.  1.
    5000001    1    1    2    0    0  0.27632532171E+03  0.25962541445E+03 -0.31230036028E+03  0.52596250273E+03  0.18800000000E+03 0.  0.
   -5000001    1    1    2    0    0 -0.27632532171E+03 -0.25962541445E+03 -0.59659198418E+03  0.73145542232E+03  0.18800000000E+03 0.  0.
<mgrwt>
<rscale>  0 0.86891573E+03</rscale>
<asrwt>0</asrwt>
<pdfrwt beam="1">  1        2 0.15473644E+00 0.86891573E+03</pdfrwt>
<pdfrwt beam="2">  1       -2 0.24894685E-01 0.86891573E+03</pdfrwt>
<totfact> 0.36139923E+02</totfact>
</mgrwt>
</event>
<event>
 4    1  0.6034452E-005  0.6358575E+03  0.7818608E-02  0.9833685E-01
          2   -1    0    0  501    0  0.00000000000E+00  0.00000000000E+00  0.14115786518E+04  0.14115786518E+04  0.25500000000E-02 0.  1.
         -2   -1    0    0    0  501 -0.00000000000E+00 -0.00000000000E+00 -0.71606834147E+02  0.71606834192E+02  0.25500000000E-02 0. -1.
    5000001    1    1    2    0    0  0.12642405325E+03 -0.22304421220E+03  0.67396949719E+03  0.74519168338E+03  0.18800000000E+03 0.  0.
   -5000001    1    1    2    0    0 -0.12642405325E+03  0.22304421220E+03  0.66600232050E+03  0.73799380265E+03  0.18800000000E+03 0.  0.
<mgrwt>
<rscale>  0 0.63585746E+03</rscale>
<asrwt>0</asrwt>
<pdfrwt beam="1">  1        2 0.20165408E+00 0.63585746E+03</pdfrwt>
<pdfrwt beam="2">  1       -2 0.10229548E-01 0.63585746E+03</pdfrwt>
<totfact> 0.10914943E+03</totfact>
</mgrwt>
</event>
<event>
 4    1  0.6034452E-005  0.5225726E+03  0.7818608E-02  0.1008049E+00
         -2   -1    0    0    0  501 -0.00000000000E+00  0.00000000000E+00  0.90287309583E+03  0.90287309584E+03  0.25500000000E-02 0. -1.
          2   -1    0    0  501    0  0.00000000000E+00 -0.00000000000E+00 -0.75614756720E+02  0.75614756763E+02  0.25500000000E-02 0.  1.
    5000001    1    1    2    0    0 -0.57700318888E+02  0.15997457149E+03  0.29512641181E+03  0.38905628034E+03  0.18800000000E+03 0.  0.
   -5000001    1    1    2    0    0  0.57700318888E+02 -0.15997457149E+03  0.53213192731E+03  0.58943157226E+03  0.18800000000E+03 0.  0.
<mgrwt>
<rscale>  0 0.52257260E+03</rscale>
<asrwt>0</asrwt>
<pdfrwt beam="1">  1        2 0.10802108E-01 0.52257260E+03</pdfrwt>
<pdfrwt beam="2">  1       -2 0.12898187E+00 0.52257260E+03</pdfrwt>
<totfact> 0.27074756E+02</totfact>
</mgrwt>
</event>
<event>
 4    1  0.6034452E-005  0.5602604E+03  0.7818608E-02  0.9991466E-01
          2   -1    0    0  501    0  0.00000000000E+00  0.00000000000E+00  0.16317059346E+04  0.16317059346E+04  0.25500000000E-02 0. -1.
         -2   -1    0    0    0  501 -0.00000000000E+00 -0.00000000000E+00 -0.48092559719E+02  0.48092559787E+02  0.25500000000E-02 0.  1.
    5000001    1    1    2    0    0 -0.10184528708E+03  0.17500930626E+03  0.93012288692E+03  0.97029547281E+03  0.18800000000E+03 0.  0.
   -5000001    1    1    2    0    0  0.10184528708E+03 -0.17500930626E+03  0.65349048797E+03  0.70950302159E+03  0.18800000000E+03 0.  0.
<mgrwt>
<rscale>  0 0.56026035E+03</rscale>
<asrwt>0</asrwt>
<pdfrwt beam="1">  1        2 0.23310079E+00 0.56026035E+03</pdfrwt>
<pdfrwt beam="2">  1       -2 0.68703675E-02 0.56026035E+03</pdfrwt>
<totfact> 0.15897518E+03</totfact>
</mgrwt>
</event>
<event>
 4    1  0.6034452E-005  0.5599557E+03  0.7818608E-02  0.9992155E-01
          2   -1    0    0  501    0  0.00000000000E+00  0.00000000000E+00  0.68679290269E+03  0.68679290270E+03  0.25500000000E-02 0.  1.
         -2   -1    0    0    0  501 -0.00000000000E+00 -0.00000000000E+00 -0.11413569154E+03  0.11413569157E+03  0.25500000000E-02 0. -1.
    5000001    1    1    2    0    0 -0.13670984148E+02  0.97429987740E+02  0.25064484209E+02  0.21366264692E+03  0.18800000000E+03 0.  0.
   -5000001    1    1    2    0    0  0.13670984148E+02 -0.97429987740E+02  0.54759272694E+03  0.58726594735E+03  0.18800000000E+03 0.  0.
<mgrwt>
<rscale>  0 0.55995565E+03</rscale>
<asrwt>0</asrwt>
<pdfrwt beam="1">  1        2 0.98113271E-01 0.55995565E+03</pdfrwt>
<pdfrwt beam="2">  1       -2 0.16305099E-01 0.55995565E+03</pdfrwt>
<totfact> 0.14012326E+03</totfact>
</mgrwt>
</event>
<event>
 4    1  0.6034452E-005  0.5271748E+03  0.7818608E-02  0.1006920E+00
          2   -1    0    0  501    0  0.00000000000E+00  0.00000000000E+00  0.21648854283E+03  0.21648854285E+03  0.25500000000E-02 0.  1.
         -2   -1    0    0    0  501 -0.00000000000E+00 -0.00000000000E+00 -0.32093299301E+03  0.32093299302E+03  0.25500000000E-02 0. -1.
    5000001    1    1    2    0    0  0.14392197298E+03  0.78608067484E+02 -0.13897358628E+03  0.28557034206E+03  0.18800000000E+03 0.  0.
   -5000001    1    1    2    0    0 -0.14392197298E+03 -0.78608067484E+02  0.34529136104E+02  0.25185119380E+03  0.18800000000E+03 0.  0.
<mgrwt>
<rscale>  0 0.52717479E+03</rscale>
<asrwt>0</asrwt>
<pdfrwt beam="1">  1        2 0.30926935E-01 0.52717479E+03</pdfrwt>
<pdfrwt beam="2">  1       -2 0.45847570E-01 0.52717479E+03</pdfrwt>
<totfact> 0.77918000E+02</totfact>
</mgrwt>
</event>
<event>
 4    1  0.6034452E-005  0.4390860E+03  0.7818608E-02  0.1031028E+00
          2   -1    0    0  501    0  0.00000000000E+00  0.00000000000E+00  0.35560646141E+03  0.35560646142E+03  0.25500000000E-02 0.  1.
         -2   -1    0    0    0  501 -0.00000000000E+00 -0.00000000000E+00 -0.13554061978E+03  0.13554061980E+03  0.25500000000E-02 0. -1.
    5000001    1    1    2    0    0 -0.18467476353E+02  0.10960184846E+03  0.84983329060E+02  0.23434969402E+03  0.18800000000E+03 0.  0.
   -5000001    1    1    2    0    0  0.18467476353E+02 -0.10960184846E+03  0.13508251257E+03  0.25679738720E+03  0.18800000000E+03 0.  0.
<mgrwt>
<rscale>  0 0.43908596E+03</rscale>
<asrwt>0</asrwt>
<pdfrwt beam="1">  1        2 0.50800922E-01 0.43908596E+03</pdfrwt>
<pdfrwt beam="2">  1       -2 0.19362946E-01 0.43908596E+03</pdfrwt>
<totfact> 0.22063059E+03</totfact>
</mgrwt>
</event>
<event>
 4    1  0.6034452E-005  0.5466236E+03  0.7818608E-02  0.1002278E+00
         -2   -1    0    0    0  501 -0.00000000000E+00  0.00000000000E+00  0.12299692803E+03  0.12299692806E+03  0.25500000000E-02 0. -1.
          2   -1    0    0  501    0  0.00000000000E+00 -0.00000000000E+00 -0.60732690484E+03  0.60732690485E+03  0.25500000000E-02 0.  1.
    5000001    1    1    2    0    0  0.11752652199E+03 -0.13602226998E+02 -0.45492167132E+03  0.50625609229E+03  0.18800000000E+03 0.  0.
   -5000001    1    1    2    0    0 -0.11752652199E+03  0.13602226998E+02 -0.29408305491E+02  0.22406774061E+03  0.18800000000E+03 0.  0.
<mgrwt>
<rscale>  0 0.54662361E+03</rscale>
<asrwt>0</asrwt>
<pdfrwt beam="1">  1        2 0.86760985E-01 0.54662361E+03</pdfrwt>
<pdfrwt beam="2">  1       -2 0.17570990E-01 0.54662361E+03</pdfrwt>
<totfact> 0.14289604E+03</totfact>
</mgrwt>
</event>
<event>
 4    1  0.6034452E-005  0.1213500E+04  0.7818608E-02  0.9101121E-01
         -2   -1    0    0    0  501 -0.00000000000E+00  0.00000000000E+00  0.40327556200E+03  0.40327556201E+03  0.25500000000E-02 0. -1.
          2   -1    0    0  501    0  0.00000000000E+00 -0.00000000000E+00 -0.91288859362E+03  0.91288859363E+03  0.25500000000E-02 0.  1.
    5000001    1    1    2    0    0 -0.31922442273E+03  0.42456099680E+03 -0.10722031089E+02  0.56357362787E+03  0.18800000000E+03 0.  0.
   -5000001    1    1    2    0    0  0.31922442273E+03 -0.42456099680E+03 -0.49889100053E+03  0.75259052777E+03  0.18800000000E+03 0.  0.
<mgrwt>
<rscale>  0 0.12135002E+04</rscale>
<asrwt>0</asrwt>
<pdfrwt beam="1">  1        2 0.13041266E+00 0.12135002E+04</pdfrwt>
<pdfrwt beam="2">  1       -2 0.57610795E-01 0.12135002E+04</pdfrwt>
<totfact> 0.88778256E+01</totfact>
</mgrwt>
</event>
<event>
 4    1  0.6034452E-005  0.7023015E+03  0.7818608E-02  0.9713304E-01
         -2   -1    0    0    0  501 -0.00000000000E+00  0.00000000000E+00  0.60851626247E+03  0.60851626247E+03  0.25500000000E-02 0. -1.
          2   -1    0    0  501    0  0.00000000000E+00 -0.00000000000E+00 -0.20263527875E+03  0.20263527876E+03  0.25500000000E-02 0.  1.
    5000001    1    1    2    0    0  0.23993083163E+03 -0.16835543312E+03  0.15061411498E+03  0.37939289326E+03  0.18800000000E+03 0.  0.
   -5000001    1    1    2    0    0 -0.23993083163E+03  0.16835543312E+03  0.25526686874E+03  0.43175864797E+03  0.18800000000E+03 0.  0.
<mgrwt>
<rscale>  0 0.70230154E+03</rscale>
<asrwt>0</asrwt>
<pdfrwt beam="1">  1        2 0.28947897E-01 0.70230154E+03</pdfrwt>
<pdfrwt beam="2">  1       -2 0.86930893E-01 0.70230154E+03</pdfrwt>
<totfact> 0.21417071E+02</totfact>
</mgrwt>
</event>
<event>
 4    1  0.6034452E-005  0.1134474E+04  0.7818608E-02  0.9172228E-01
         -2   -1    0    0    0  501 -0.00000000000E+00  0.00000000000E+00  0.10965302332E+03  0.10965302335E+03  0.25500000000E-02 0. -1.
          2   -1    0    0  501    0  0.00000000000E+00 -0.00000000000E+00 -0.29343249730E+04  0.29343249730E+04  0.25500000000E-02 0.  1.
    5000001    1    1    2    0    0 -0.36398848927E+03 -0.39097750488E+03 -0.13248724614E+04  0.14408268697E+04  0.18800000000E+03 0.  0.
   -5000001    1    1    2    0    0  0.36398848927E+03  0.39097750488E+03 -0.14997994883E+04  0.16031511266E+04  0.18800000000E+03 0.  0.
<mgrwt>
<rscale>  0 0.11344736E+04</rscale>
<asrwt>0</asrwt>
<pdfrwt beam="1">  1        2 0.41918923E+00 0.11344736E+04</pdfrwt>
<pdfrwt beam="2">  1       -2 0.15664719E-01 0.11344736E+04</pdfrwt>
<totfact> 0.84016206E+01</totfact>
</mgrwt>
</event>
<event>
 4    1  0.6034452E-005  0.9484593E+03  0.7818608E-02  0.9366953E-01
         -2   -1    0    0    0  501 -0.00000000000E+00  0.00000000000E+00  0.51799552315E+02  0.51799552378E+02  0.25500000000E-02 0. -1.
          2   -1    0    0  501    0  0.00000000000E+00 -0.00000000000E+00 -0.43416158156E+04  0.43416158156E+04  0.25500000000E-02 0.  1.
    5000001    1    1    2    0    0 -0.30813494095E+03  0.12590613269E+03 -0.84500925720E+03  0.92746112633E+03  0.18800000000E+03 0.  0.
   -5000001    1    1    2    0    0  0.30813494095E+03 -0.12590613269E+03 -0.34448070061E+04  0.34659542417E+04  0.18800000000E+03 0.  0.
<mgrwt>
<rscale>  0 0.94845929E+03</rscale>
<asrwt>0</asrwt>
<pdfrwt beam="1">  1        2 0.62023060E+00 0.94845929E+03</pdfrwt>
<pdfrwt beam="2">  1       -2 0.73999388E-02 0.94845929E+03</pdfrwt>
<totfact> 0.38478169E+01</totfact>
</mgrwt>
</event>
<event>
 4    1  0.6034452E-005  0.5130005E+03  0.7818608E-02  0.1010440E+00
          2   -1    0    0  501    0  0.00000000000E+00  0.00000000000E+00  0.95273176912E+03  0.95273176912E+03  0.25500000000E-02 0.  1.
         -2   -1    0    0    0  501 -0.00000000000E+00 -0.00000000000E+00 -0.69056573042E+02  0.69056573089E+02  0.25500000000E-02 0. -1.
    5000001    1    1    2    0    0 -0.16914497137E+03  0.22174677413E+02  0.51492979639E+03  0.57410663893E+03  0.18800000000E+03 0.  0.
   -5000001    1    1    2    0    0  0.16914497137E+03 -0.22174677413E+02  0.36874539969E+03  0.44768170328E+03  0.18800000000E+03 0.  0.
<mgrwt>
<rscale>  0 0.51300055E+03</rscale>
<asrwt>0</asrwt>
<pdfrwt beam="1">  1        2 0.13610454E+00 0.51300055E+03</pdfrwt>
<pdfrwt beam="2">  1       -2 0.98652243E-02 0.51300055E+03</pdfrwt>
<totfact> 0.21135401E+03</totfact>
</mgrwt>
</event>
<event>
 4    1  0.6034452E-005  0.5630708E+03  0.7818608E-02  0.9985130E-01
         -2   -1    0    0    0  501 -0.00000000000E+00  0.00000000000E+00  0.42119479017E+02  0.42119479094E+02  0.25500000000E-02 0. -1.
          2   -1    0    0  501    0  0.00000000000E+00 -0.00000000000E+00 -0.18818412982E+04  0.18818412982E+04  0.25500000000E-02 0.  1.
    5000001    1    1    2    0    0 -0.68795287481E+02 -0.19739612765E+03 -0.97055938413E+03  0.10104590743E+04  0.18800000000E+03 0.  0.
   -5000001    1    1    2    0    0  0.68795287481E+02  0.19739612765E+03 -0.86916243502E+03  0.91350170292E+03  0.18800000000E+03 0.  0.
<mgrwt>
<rscale>  0 0.56307078E+03</rscale>
<asrwt>0</asrwt>
<pdfrwt beam="1">  1        2 0.26883442E+00 0.56307078E+03</pdfrwt>
<pdfrwt beam="2">  1       -2 0.60170696E-02 0.56307078E+03</pdfrwt>
<totfact> 0.14629616E+03</totfact>
</mgrwt>
</event>
<event>
 4    1  0.6034452E-005  0.6847449E+03  0.7818608E-02  0.9743682E-01
         -2   -1    0    0    0  501 -0.00000000000E+00  0.00000000000E+00  0.40656721568E+02  0.40656721648E+02  0.25500000000E-02 0. -1.
          2   -1    0    0  501    0  0.00000000000E+00 -0.00000000000E+00 -0.28831371356E+04  0.28831371356E+04  0.25500000000E-02 0.  1.
    5000001    1    1    2    0    0 -0.58247305116E+02 -0.27965955397E+03 -0.14917503985E+04  0.15304461657E+04  0.18800000000E+03 0.  0.
   -5000001    1    1    2    0    0  0.58247305116E+02  0.27965955397E+03 -0.13507300155E+04  0.13933476915E+04  0.18800000000E+03 0.  0.
<mgrwt>
<rscale>  0 0.68474493E+03</rscale>
<asrwt>0</asrwt>
<pdfrwt beam="1">  1        2 0.41187660E+00 0.68474493E+03</pdfrwt>
<pdfrwt beam="2">  1       -2 0.58081049E-02 0.68474493E+03</pdfrwt>
<totfact> 0.47011172E+02</totfact>
</mgrwt>
</event>
<event>
 4    1  0.6034452E-005  0.1055904E+04  0.7818608E-02  0.9249269E-01
          2   -1    0    0  501    0  0.00000000000E+00  0.00000000000E+00  0.11474335515E+04  0.11474335515E+04  0.25500000000E-02 0.  1.
         -2   -1    0    0    0  501 -0.00000000000E+00 -0.00000000000E+00 -0.24291913490E+03  0.24291913492E+03  0.25500000000E-02 0. -1.
    5000001    1    1    2    0    0 -0.28159136324E+03 -0.39366382766E+03  0.32647804247E+03  0.61334885447E+03  0.18800000000E+03 0.  0.
   -5000001    1    1    2    0    0  0.28159136324E+03  0.39366382766E+03  0.57803637414E+03  0.77700383196E+03  0.18800000000E+03 0.  0.
<mgrwt>
<rscale>  0 0.10559045E+04</rscale>
<asrwt>0</asrwt>
<pdfrwt beam="1">  1        2 0.16391908E+00 0.10559045E+04</pdfrwt>
<pdfrwt beam="2">  1       -2 0.34702734E-01 0.10559045E+04</pdfrwt>
<totfact> 0.17725961E+02</totfact>
</mgrwt>
</event>
<event>
 4    1  0.6034452E-005  0.7645737E+03  0.7818608E-02  0.9612760E-01
          2   -1    0    0  501    0  0.00000000000E+00  0.00000000000E+00  0.30535328557E+04  0.30535328557E+04  0.25500000000E-02 0.  1.
         -2   -1    0    0    0  501 -0.00000000000E+00 -0.00000000000E+00 -0.47860374345E+02  0.47860374413E+02  0.25500000000E-02 0. -1.
    5000001    1    1    2    0    0  0.32867728346E+03  0.51697347605E+02  0.14627103101E+04  0.15118091228E+04  0.18800000000E+03 0.  0.
   -5000001    1    1    2    0    0 -0.32867728346E+03 -0.51697347605E+02  0.15429621713E+04  0.15895841074E+04  0.18800000000E+03 0.  0.
<mgrwt>
<rscale>  0 0.76457367E+03</rscale>
<asrwt>0</asrwt>
<pdfrwt beam="1">  1        2 0.43621920E+00 0.76457367E+03</pdfrwt>
<pdfrwt beam="2">  1       -2 0.68371929E-02 0.76457367E+03</pdfrwt>
<totfact> 0.29136338E+02</totfact>
</mgrwt>
</event>
<event>
 4    1  0.6034452E-005  0.6450320E+03  0.7818608E-02  0.9816146E-01
          2   -1    0    0  501    0  0.00000000000E+00  0.00000000000E+00  0.18285851976E+03  0.18285851978E+03  0.25500000000E-02 0.  1.
         -2   -1    0    0    0  501 -0.00000000000E+00 -0.00000000000E+00 -0.56883636324E+03  0.56883636324E+03  0.25500000000E-02 0. -1.
    5000001    1    1    2    0    0 -0.22553798268E+03 -0.16265291418E+01 -0.34847854354E+03  0.45568774675E+03  0.18800000000E+03 0.  0.
   -5000001    1    1    2    0    0  0.22553798268E+03  0.16265291418E+01 -0.37499299937E+02  0.29600713627E+03  0.18800000000E+03 0.  0.
<mgrwt>
<rscale>  0 0.64503202E+03</rscale>
<asrwt>0</asrwt>
<pdfrwt beam="1">  1        2 0.26122646E-01 0.64503202E+03</pdfrwt>
<pdfrwt beam="2">  1       -2 0.81262337E-01 0.64503202E+03</pdfrwt>
<totfact> 0.28086021E+02</totfact>
</mgrwt>
</event>
<event>
 4    1  0.6034452E-005  0.4611548E+03  0.7818608E-02  0.1024447E+00
         -2   -1    0    0    0  501 -0.00000000000E+00  0.00000000000E+00  0.65814326594E+03  0.65814326595E+03  0.25500000000E-02 0. -1.
          2   -1    0    0  501    0  0.00000000000E+00 -0.00000000000E+00 -0.80781699983E+02  0.80781700024E+02  0.25500000000E-02 0.  1.
    5000001    1    1    2    0    0  0.11030811521E+03 -0.13699226198E+02  0.40714949031E+03  0.46202841530E+03  0.18800000000E+03 0.  0.
   -5000001    1    1    2    0    0 -0.11030811521E+03  0.13699226198E+02  0.17021207565E+03  0.27689655067E+03  0.18800000000E+03 0.  0.
<mgrwt>
<rscale>  0 0.46115478E+03</rscale>
<asrwt>0</asrwt>
<pdfrwt beam="1">  1        2 0.11540242E-01 0.46115478E+03</pdfrwt>
<pdfrwt beam="2">  1       -2 0.94020470E-01 0.46115478E+03</pdfrwt>
<totfact> 0.53378127E+02</totfact>
</mgrwt>
</event>
<event>
 4    1  0.6034452E-005  0.8417073E+03  0.7818608E-02  0.9501535E-01
         -2   -1    0    0    0  501 -0.00000000000E+00  0.00000000000E+00  0.99406471338E+02  0.99406471370E+02  0.25500000000E-02 0. -1.
          2   -1    0    0  501    0  0.00000000000E+00 -0.00000000000E+00 -0.17817533126E+04  0.17817533126E+04  0.25500000000E-02 0.  1.
    5000001    1    1    2    0    0 -0.11962500486E+03 -0.34969329349E+03 -0.68034720267E+03  0.79675081266E+03  0.18800000000E+03 0.  0.
   -5000001    1    1    2    0    0  0.11962500486E+03  0.34969329349E+03 -0.10019996386E+04  0.10844089713E+04  0.18800000000E+03 0.  0.
<mgrwt>
<rscale>  0 0.84170734E+03</rscale>
<asrwt>0</asrwt>
<pdfrwt beam="1">  1        2 0.25453617E+00 0.84170734E+03</pdfrwt>
<pdfrwt beam="2">  1       -2 0.14200926E-01 0.84170734E+03</pdfrwt>
<totfact> 0.40350608E+02</totfact>
</mgrwt>
</event>
<event>
 4    1  0.6034452E-005  0.7649895E+03  0.7818608E-02  0.9612123E-01
         -2   -1    0    0    0  501 -0.00000000000E+00  0.00000000000E+00  0.45058421236E+02  0.45058421308E+02  0.25500000000E-02 0. -1.
          2   -1    0    0  501    0  0.00000000000E+00 -0.00000000000E+00 -0.32469454891E+04  0.32469454891E+04  0.25500000000E-02 0.  1.
    5000001    1    1    2    0    0  0.28907907225E+03  0.13500886736E+03 -0.20128992793E+04  0.20466806328E+04  0.18800000000E+03 0.  0.
   -5000001    1    1    2    0    0 -0.28907907225E+03 -0.13500886736E+03 -0.11889877886E+04  0.12453232776E+04  0.18800000000E+03 0.  0.
<mgrwt>
<rscale>  0 0.76498951E+03</rscale>
<asrwt>0</asrwt>
<pdfrwt beam="1">  1        2 0.46384921E+00 0.76498951E+03</pdfrwt>
<pdfrwt beam="2">  1       -2 0.64369194E-02 0.76498951E+03</pdfrwt>
<totfact> 0.24968852E+02</totfact>
</mgrwt>
</event>
<event>
 4    1  0.6034452E-005  0.4468881E+03  0.7818608E-02  0.1028654E+00
          2   -1    0    0  501    0  0.00000000000E+00  0.00000000000E+00  0.10937986985E+04  0.10937986985E+04  0.25500000000E-02 0.  1.
         -2   -1    0    0    0  501 -0.00000000000E+00 -0.00000000000E+00 -0.45645739518E+02  0.45645739589E+02  0.25500000000E-02 0. -1.
    5000001    1    1    2    0    0  0.83632623910E+02 -0.77635185339E+02  0.62483481933E+03  0.66240787226E+03  0.18800000000E+03 0.  0.
   -5000001    1    1    2    0    0 -0.83632623910E+02  0.77635185339E+02  0.42331813967E+03  0.47703656585E+03  0.18800000000E+03 0.  0.
<mgrwt>
<rscale>  0 0.44688813E+03</rscale>
<asrwt>0</asrwt>
<pdfrwt beam="1">  1        2 0.15625697E+00 0.44688813E+03</pdfrwt>
<pdfrwt beam="2">  1       -2 0.65208195E-02 0.44688813E+03</pdfrwt>
<totfact> 0.33563302E+03</totfact>
</mgrwt>
</event>
<event>
 4    1  0.6034452E-005  0.4727537E+03  0.7818608E-02  0.1021146E+00
         -2   -1    0    0    0  501 -0.00000000000E+00  0.00000000000E+00  0.69352649182E+02  0.69352649229E+02  0.25500000000E-02 0. -1.
          2   -1    0    0  501    0  0.00000000000E+00 -0.00000000000E+00 -0.80565062601E+03  0.80565062602E+03  0.25500000000E-02 0.  1.
    5000001    1    1    2    0    0 -0.80184918481E+02 -0.17672484708E+02 -0.15081558581E+03  0.25461987117E+03  0.18800000000E+03 0.  0.
   -5000001    1    1    2    0    0  0.80184918481E+02  0.17672484708E+02 -0.58548239102E+03  0.62038340408E+03  0.18800000000E+03 0.  0.
<mgrwt>
<rscale>  0 0.47275366E+03</rscale>
<asrwt>0</asrwt>
<pdfrwt beam="1">  1        2 0.11509294E+00 0.47275366E+03</pdfrwt>
<pdfrwt beam="2">  1       -2 0.99075218E-02 0.47275366E+03</pdfrwt>
<totfact> 0.26162069E+03</totfact>
</mgrwt>
</event>
<event>
 4    1  0.6034452E-005  0.9602147E+03  0.7818608E-02  0.9353290E-01
         -2   -1    0    0    0  501 -0.00000000000E+00  0.00000000000E+00  0.15621767914E+04  0.15621767914E+04  0.25500000000E-02 0. -1.
          2   -1    0    0  501    0  0.00000000000E+00 -0.00000000000E+00 -0.14755249958E+03  0.14755249960E+03  0.25500000000E-02 0.  1.
    5000001    1    1    2    0    0  0.40576523649E+02  0.35954599696E+03  0.11586060022E+04  0.12282636714E+04  0.18800000000E+03 0.  0.
   -5000001    1    1    2    0    0 -0.40576523649E+02 -0.35954599696E+03  0.25601828959E+03  0.48146561955E+03  0.18800000000E+03 0.  0.
<mgrwt>
<rscale>  0 0.96021475E+03</rscale>
<asrwt>0</asrwt>
<pdfrwt beam="1">  1        2 0.21078927E-01 0.96021475E+03</pdfrwt>
<pdfrwt beam="2">  1       -2 0.22316813E+00 0.96021475E+03</pdfrwt>
<totfact> 0.25381917E+01</totfact>
</mgrwt>
</event>
<event>
 4    1  0.6034452E-005  0.4068231E+03  0.7818608E-02  0.1041442E+00
         -2   -1    0    0    0  501 -0.00000000000E+00  0.00000000000E+00  0.14169233255E+03  0.14169233257E+03  0.25500000000E-02 0. -1.
          2   -1    0    0  501    0  0.00000000000E+00 -0.00000000000E+00 -0.29201479207E+03  0.29201479209E+03  0.25500000000E-02 0.  1.
    5000001    1    1    2    0    0 -0.40632657591E+02 -0.66015200829E+02 -0.70022153898E+02  0.21507236373E+03  0.18800000000E+03 0.  0.
   -5000001    1    1    2    0    0  0.40632657591E+02  0.66015200829E+02 -0.80300305625E+02  0.21863476093E+03  0.18800000000E+03 0.  0.
<mgrwt>
<rscale>  0 0.40682309E+03</rscale>
<asrwt>0</asrwt>
<pdfrwt beam="1">  1        2 0.41716399E-01 0.40682309E+03</pdfrwt>
<pdfrwt beam="2">  1       -2 0.20241762E-01 0.40682309E+03</pdfrwt>
<totfact> 0.25317138E+03</totfact>
</mgrwt>
</event>
<event>
 4    1  0.6034452E-005  0.9746190E+03  0.7818608E-02  0.9336829E-01
          2   -1    0    0  501    0  0.00000000000E+00  0.00000000000E+00  0.10154440808E+04  0.10154440808E+04  0.25500000000E-02 0.  1.
         -2   -1    0    0    0  501 -0.00000000000E+00 -0.00000000000E+00 -0.23385883467E+03  0.23385883468E+03  0.25500000000E-02 0. -1.
    5000001    1    1    2    0    0  0.98891064331E+01 -0.44822743232E+03  0.43370917301E+03  0.65150078455E+03  0.18800000000E+03 0.  0.
   -5000001    1    1    2    0    0 -0.98891064331E+01  0.44822743232E+03  0.34787607313E+03  0.59780213095E+03  0.18800000000E+03 0.  0.
<mgrwt>
<rscale>  0 0.97461904E+03</rscale>
<asrwt>0</asrwt>
<pdfrwt beam="1">  1        2 0.14506344E+00 0.97461904E+03</pdfrwt>
<pdfrwt beam="2">  1       -2 0.33408405E-01 0.97461904E+03</pdfrwt>
<totfact> 0.22935582E+02</totfact>
</mgrwt>
</event>
<event>
 4    1  0.6034452E-005  0.4711590E+03  0.7818608E-02  0.1021594E+00
          2   -1    0    0  501    0  0.00000000000E+00  0.00000000000E+00  0.17460545302E+04  0.17460545302E+04  0.25500000000E-02 0.  1.
         -2   -1    0    0    0  501 -0.00000000000E+00 -0.00000000000E+00 -0.31784636675E+02  0.31784636777E+02  0.25500000000E-02 0. -1.
    5000001    1    1    2    0    0  0.12658709655E+03  0.43324440039E+02  0.67805433988E+03  0.71624226903E+03  0.18800000000E+03 0.  0.
   -5000001    1    1    2    0    0 -0.12658709655E+03 -0.43324440039E+02  0.10362155537E+04  0.10615968980E+04  0.18800000000E+03 0.  0.
<mgrwt>
<rscale>  0 0.47115903E+03</rscale>
<asrwt>0</asrwt>
<pdfrwt beam="1">  1        2 0.24943641E+00 0.47115903E+03</pdfrwt>
<pdfrwt beam="2">  1       -2 0.45406615E-02 0.47115903E+03</pdfrwt>
<totfact> 0.26563417E+03</totfact>
</mgrwt>
</event>
<event>
 4    1  0.6034452E-005  0.9456420E+03  0.7818608E-02  0.9370259E-01
         -2   -1    0    0    0  501 -0.00000000000E+00  0.00000000000E+00  0.12651074075E+03  0.12651074077E+03  0.25500000000E-02 0. -1.
          2   -1    0    0  501    0  0.00000000000E+00 -0.00000000000E+00 -0.17671204739E+04  0.17671204739E+04  0.25500000000E-02 0.  1.
    5000001    1    1    2    0    0 -0.19485576589E+02  0.43145919033E+03 -0.73825196968E+03  0.87572637927E+03  0.18800000000E+03 0.  0.
   -5000001    1    1    2    0    0  0.19485576589E+02 -0.43145919033E+03 -0.90235776344E+03  0.10179048354E+04  0.18800000000E+03 0.  0.
<mgrwt>
<rscale>  0 0.94564205E+03</rscale>
<asrwt>0</asrwt>
<pdfrwt beam="1">  1        2 0.25244577E+00 0.94564205E+03</pdfrwt>
<pdfrwt beam="2">  1       -2 0.18072964E-01 0.94564205E+03</pdfrwt>
<totfact> 0.27026384E+02</totfact>
</mgrwt>
</event>
<event>
 4    1  0.6034452E-005  0.4123365E+03  0.7818608E-02  0.1039590E+00
          2   -1    0    0  501    0  0.00000000000E+00  0.00000000000E+00  0.58362657685E+03  0.58362657686E+03  0.25500000000E-02 0.  1.
         -2   -1    0    0    0  501 -0.00000000000E+00 -0.00000000000E+00 -0.72829709114E+02  0.72829709159E+02  0.25500000000E-02 0. -1.
    5000001    1    1    2    0    0  0.31499116790E+02  0.78385267429E+02  0.26334418635E+03  0.33441083265E+03  0.18800000000E+03 0.  0.
   -5000001    1    1    2    0    0 -0.31499116790E+02 -0.78385267429E+02  0.24745268139E+03  0.32204545337E+03  0.18800000000E+03 0.  0.
<mgrwt>
<rscale>  0 0.41233653E+03</rscale>
<asrwt>0</asrwt>
<pdfrwt beam="1">  1        2 0.83375228E-01 0.41233653E+03</pdfrwt>
<pdfrwt beam="2">  1       -2 0.10404244E-01 0.41233653E+03</pdfrwt>
<totfact> 0.35617608E+03</totfact>
</mgrwt>
</event>
<event>
 4    1  0.6034452E-005  0.5048241E+03  0.7818608E-02  0.1012527E+00
         -2   -1    0    0    0  501 -0.00000000000E+00  0.00000000000E+00  0.37786403896E+03  0.37786403896E+03  0.25500000000E-02 0. -1.
          2   -1    0    0  501    0  0.00000000000E+00 -0.00000000000E+00 -0.16861047673E+03  0.16861047675E+03  0.25500000000E-02 0.  1.
    5000001    1    1    2    0    0 -0.14529201984E+03 -0.66879485828E+02  0.47497602254E+02  0.25136160979E+03  0.18800000000E+03 0.  0.
   -5000001    1    1    2    0    0  0.14529201984E+03  0.66879485828E+02  0.16175595998E+03  0.29511290592E+03  0.18800000000E+03 0.  0.
<mgrwt>
<rscale>  0 0.50482407E+03</rscale>
<asrwt>0</asrwt>
<pdfrwt beam="1">  1        2 0.24087211E-01 0.50482407E+03</pdfrwt>
<pdfrwt beam="2">  1       -2 0.53980577E-01 0.50482407E+03</pdfrwt>
<totfact> 0.74317815E+02</totfact>
</mgrwt>
</event>
<event>
 4    1  0.6034452E-005  0.5343780E+03  0.7818608E-02  0.1005176E+00
         -2   -1    0    0    0  501 -0.00000000000E+00  0.00000000000E+00  0.78959502815E+02  0.78959502856E+02  0.25500000000E-02 0. -1.
          2   -1    0    0  501    0  0.00000000000E+00 -0.00000000000E+00 -0.90413381501E+03  0.90413381501E+03  0.25500000000E-02 0.  1.
    5000001    1    1    2    0    0 -0.11960941465E+03 -0.76795206877E+02 -0.64414087028E+03  0.68590478686E+03  0.18800000000E+03 0.  0.
   -5000001    1    1    2    0    0  0.11960941465E+03  0.76795206877E+02 -0.18103344192E+03  0.29718853101E+03  0.18800000000E+03 0.  0.
<mgrwt>
<rscale>  0 0.53437798E+03</rscale>
<asrwt>0</asrwt>
<pdfrwt beam="1">  1        2 0.12916197E+00 0.53437798E+03</pdfrwt>
<pdfrwt beam="2">  1       -2 0.11279929E-01 0.53437798E+03</pdfrwt>
<totfact> 0.18246115E+03</totfact>
</mgrwt>
</event>
<event>
 4    1  0.6034452E-005  0.5179790E+03  0.7818608E-02  0.1009190E+00
         -2   -1    0    0    0  501 -0.00000000000E+00  0.00000000000E+00  0.10085305933E+03  0.10085305937E+03  0.25500000000E-02 0. -1.
          2   -1    0    0  501    0  0.00000000000E+00 -0.00000000000E+00 -0.66508213534E+03  0.66508213535E+03  0.25500000000E-02 0.  1.
    5000001    1    1    2    0    0 -0.13517192961E+03 -0.73156120306E+02 -0.41526563339E+03  0.48105385849E+03  0.18800000000E+03 0.  0.
   -5000001    1    1    2    0    0  0.13517192961E+03  0.73156120306E+02 -0.14896344262E+03  0.28488133623E+03  0.18800000000E+03 0.  0.
<mgrwt>
<rscale>  0 0.51797903E+03</rscale>
<asrwt>0</asrwt>
<pdfrwt beam="1">  1        2 0.95011731E-01 0.51797903E+03</pdfrwt>
<pdfrwt beam="2">  1       -2 0.14407580E-01 0.51797903E+03</pdfrwt>
<totfact> 0.17941643E+03</totfact>
</mgrwt>
</event>
<event>
 4    1  0.6034452E-005  0.6401980E+03  0.7818608E-02  0.9825348E-01
         -2   -1    0    0    0  501 -0.00000000000E+00  0.00000000000E+00  0.78177190737E+02  0.78177190778E+02  0.25500000000E-02 0. -1.
          2   -1    0    0  501    0  0.00000000000E+00 -0.00000000000E+00 -0.13106557579E+04  0.13106557579E+04  0.25500000000E-02 0.  1.
    5000001    1    1    2    0    0  0.21581062909E+03  0.31638788846E+02 -0.91951944270E+03  0.96355344745E+03  0.18800000000E+03 0.  0.
   -5000001    1    1    2    0    0 -0.21581062909E+03 -0.31638788846E+02 -0.31295912448E+03  0.42527950125E+03  0.18800000000E+03 0.  0.
<mgrwt>
<rscale>  0 0.64019805E+03</rscale>
<asrwt>0</asrwt>
<pdfrwt beam="1">  1        2 0.18723652E+00 0.64019805E+03</pdfrwt>
<pdfrwt beam="2">  1       -2 0.11168171E-01 0.64019805E+03</pdfrwt>
<totfact> 0.10713516E+03</totfact>
</mgrwt>
</event>
<event>
 4    1  0.6034452E-005  0.5188118E+03  0.7818608E-02  0.1008982E+00
         -2   -1    0    0    0  501 -0.00000000000E+00  0.00000000000E+00  0.11498257181E+03  0.11498257184E+03  0.25500000000E-02 0. -1.
          2   -1    0    0  501    0  0.00000000000E+00 -0.00000000000E+00 -0.58523148199E+03  0.58523148200E+03  0.25500000000E-02 0.  1.
    5000001    1    1    2    0    0 -0.62156855018E+01  0.15136541810E+03 -0.36314420996E+03  0.43608237957E+03  0.18800000000E+03 0.  0.
   -5000001    1    1    2    0    0  0.62156855018E+01 -0.15136541810E+03 -0.10710470023E+03  0.26413167427E+03  0.18800000000E+03 0.  0.
<mgrwt>
<rscale>  0 0.51881180E+03</rscale>
<asrwt>0</asrwt>
<pdfrwt beam="1">  1        2 0.83604496E-01 0.51881180E+03</pdfrwt>
<pdfrwt beam="2">  1       -2 0.16426082E-01 0.51881180E+03</pdfrwt>
<totfact> 0.16736959E+03</totfact>
</mgrwt>
</event>
<event>
 4    1  0.6034452E-005  0.9943976E+03  0.7818608E-02  0.9314711E-01
         -2   -1    0    0    0  501 -0.00000000000E+00  0.00000000000E+00  0.15579489891E+04  0.15579489891E+04  0.25500000000E-02 0. -1.
          2   -1    0    0  501    0  0.00000000000E+00 -0.00000000000E+00 -0.15867440675E+03  0.15867440677E+03  0.25500000000E-02 0.  1.
    5000001    1    1    2    0    0  0.29469879930E+03  0.25361710332E+03  0.27434601634E+03  0.51164319021E+03  0.18800000000E+03 0.  0.
   -5000001    1    1    2    0    0 -0.29469879930E+03 -0.25361710332E+03  0.11249285661E+04  0.12049802057E+04  0.18800000000E+03 0.  0.
<mgrwt>
<rscale>  0 0.99439757E+03</rscale>
<asrwt>0</asrwt>
<pdfrwt beam="1">  1        2 0.22667772E-01 0.99439757E+03</pdfrwt>
<pdfrwt beam="2">  1       -2 0.22256415E+00 0.99439757E+03</pdfrwt>
<totfact> 0.23462650E+01</totfact>
</mgrwt>
</event>
<event>
 4    1  0.6034452E-005  0.6773844E+03  0.7818608E-02  0.9756709E-01
         -2   -1    0    0    0  501 -0.00000000000E+00  0.00000000000E+00  0.88740756575E+02  0.88740756611E+02  0.25500000000E-02 0. -1.
          2   -1    0    0  501    0  0.00000000000E+00 -0.00000000000E+00 -0.12926688390E+04  0.12926688390E+04  0.25500000000E-02 0.  1.
    5000001    1    1    2    0    0 -0.16071163076E+03  0.90480577294E+02 -0.16766144792E+03  0.31220077554E+03  0.18800000000E+03 0.  0.
   -5000001    1    1    2    0    0  0.16071163076E+03 -0.90480577294E+02 -0.10362666345E+04  0.10692088200E+04  0.18800000000E+03 0.  0.
<mgrwt>
<rscale>  0 0.67738441E+03</rscale>
<asrwt>0</asrwt>
<pdfrwt beam="1">  1        2 0.18466697E+00 0.67738441E+03</pdfrwt>
<pdfrwt beam="2">  1       -2 0.12677252E-01 0.67738441E+03</pdfrwt>
<totfact> 0.88806217E+02</totfact>
</mgrwt>
</event>
<event>
 4    1  0.6034452E-005  0.8851546E+03  0.7818608E-02  0.9444332E-01
         -2   -1    0    0    0  501 -0.00000000000E+00  0.00000000000E+00  0.32647187584E+03  0.32647187585E+03  0.25500000000E-02 0. -1.
          2   -1    0    0  501    0  0.00000000000E+00 -0.00000000000E+00 -0.59997402878E+03  0.59997402879E+03  0.25500000000E-02 0.  1.
    5000001    1    1    2    0    0  0.33808161122E+03 -0.14030148135E+03  0.33781909643E+02  0.41287879449E+03  0.18800000000E+03 0.  0.
   -5000001    1    1    2    0    0 -0.33808161122E+03  0.14030148135E+03 -0.30728406258E+03  0.51356711016E+03  0.18800000000E+03 0.  0.
<mgrwt>
<rscale>  0 0.88515456E+03</rscale>
<asrwt>0</asrwt>
<pdfrwt beam="1">  1        2 0.85710575E-01 0.88515456E+03</pdfrwt>
<pdfrwt beam="2">  1       -2 0.46638840E-01 0.88515456E+03</pdfrwt>
<totfact> 0.23720532E+02</totfact>
</mgrwt>
</event>
<event>
 4    1  0.6034452E-005  0.4066273E+03  0.7818608E-02  0.1041509E+00
         -2   -1    0    0    0  501 -0.00000000000E+00  0.00000000000E+00  0.37469149318E+02  0.37469149405E+02  0.25500000000E-02 0. -1.
          2   -1    0    0  501    0  0.00000000000E+00 -0.00000000000E+00 -0.11032128017E+04  0.11032128017E+04  0.25500000000E-02 0.  1.
    5000001    1    1    2    0    0 -0.53464424920E+02  0.49868809117E+02 -0.60423177227E+03  0.63701285503E+03  0.18800000000E+03 0.  0.
   -5000001    1    1    2    0    0  0.53464424920E+02 -0.49868809117E+02 -0.46151188007E+03  0.50366909603E+03  0.18800000000E+03 0.  0.
<mgrwt>
<rscale>  0 0.40662732E+03</rscale>
<asrwt>0</asrwt>
<pdfrwt beam="1">  1        2 0.15760181E+00 0.40662732E+03</pdfrwt>
<pdfrwt beam="2">  1       -2 0.53527363E-02 0.40662732E+03</pdfrwt>
<totfact> 0.44997613E+03</totfact>
</mgrwt>
</event>
<event>
 4    1  0.6034452E-005  0.6457078E+03  0.7818608E-02  0.9814867E-01
          2   -1    0    0  501    0  0.00000000000E+00  0.00000000000E+00  0.23668584668E+04  0.23668584668E+04  0.25500000000E-02 0.  1.
         -2   -1    0    0    0  501 -0.00000000000E+00 -0.00000000000E+00 -0.44039233620E+02  0.44039233694E+02  0.25500000000E-02 0. -1.
    5000001    1    1    2    0    0 -0.51681089405E+02 -0.23668256631E+03  0.78430188602E+03  0.84211817496E+03  0.18800000000E+03 0.  0.
   -5000001    1    1    2    0    0  0.51681089405E+02  0.23668256631E+03  0.15385173472E+04  0.15687795256E+04  0.18800000000E+03 0.  0.
<mgrwt>
<rscale>  0 0.64570778E+03</rscale>
<asrwt>0</asrwt>
<pdfrwt beam="1">  1        2 0.33812271E+00 0.64570778E+03</pdfrwt>
<pdfrwt beam="2">  1       -2 0.62913178E-02 0.64570778E+03</pdfrwt>
<totfact> 0.77342135E+02</totfact>
</mgrwt>
</event>
<event>
 4    1  0.6034452E-005  0.6096293E+03  0.7818608E-02  0.9885627E-01
         -2   -1    0    0    0  501 -0.00000000000E+00  0.00000000000E+00  0.13791424921E+04  0.13791424921E+04  0.25500000000E-02 0. -1.
          2   -1    0    0  501    0  0.00000000000E+00 -0.00000000000E+00 -0.67369382719E+02  0.67369382767E+02  0.25500000000E-02 0.  1.
    5000001    1    1    2    0    0 -0.12390313572E+03 -0.12986474391E+03  0.27809269275E+03  0.38065257718E+03  0.18800000000E+03 0.  0.
   -5000001    1    1    2    0    0  0.12390313572E+03  0.12986474391E+03  0.10336804167E+04  0.10658592977E+04  0.18800000000E+03 0.  0.
<mgrwt>
<rscale>  0 0.60962932E+03</rscale>
<asrwt>0</asrwt>
<pdfrwt beam="1">  1        2 0.96241984E-02 0.60962932E+03</pdfrwt>
<pdfrwt beam="2">  1       -2 0.19702034E+00 0.60962932E+03</pdfrwt>
<totfact> 0.99498578E+01</totfact>
</mgrwt>
</event>
<event>
 4    1  0.6034452E-005  0.6806072E+03  0.7818608E-02  0.9750983E-01
         -2   -1    0    0    0  501 -0.00000000000E+00  0.00000000000E+00  0.58476192806E+02  0.58476192861E+02  0.25500000000E-02 0. -1.
          2   -1    0    0  501    0  0.00000000000E+00 -0.00000000000E+00 -0.19804049225E+04  0.19804049225E+04  0.25500000000E-02 0.  1.
    5000001    1    1    2    0    0  0.12435532016E+03 -0.21430341234E+03 -0.54725307116E+03  0.62946018308E+03  0.18800000000E+03 0.  0.
   -5000001    1    1    2    0    0 -0.12435532016E+03  0.21430341234E+03 -0.13746756586E+04  0.14094209323E+04  0.18800000000E+03 0.  0.
<mgrwt>
<rscale>  0 0.68060720E+03</rscale>
<asrwt>0</asrwt>
<pdfrwt beam="1">  1        2 0.28291495E+00 0.68060720E+03</pdfrwt>
<pdfrwt beam="2">  1       -2 0.83537430E-02 0.68060720E+03</pdfrwt>
<totfact> 0.77155744E+02</totfact>
</mgrwt>
</event>
<event>
 4    1  0.6034452E-005  0.4283139E+03  0.7818608E-02  0.1034394E+00
          2   -1    0    0  501    0  0.00000000000E+00  0.00000000000E+00  0.10398025305E+03  0.10398025308E+03  0.25500000000E-02 0.  1.
         -2   -1    0    0    0  501 -0.00000000000E+00 -0.00000000000E+00 -0.44107614568E+03  0.44107614569E+03  0.25500000000E-02 0. -1.
    5000001    1    1    2    0    0  0.34959212459E+02 -0.96182634191E+02 -0.17717547157E+03  0.27786398360E+03  0.18800000000E+03 0.  0.
   -5000001    1    1    2    0    0 -0.34959212459E+02  0.96182634191E+02 -0.15992042106E+03  0.26719241517E+03  0.18800000000E+03 0.  0.
<mgrwt>
<rscale>  0 0.42831395E+03</rscale>
<asrwt>0</asrwt>
<pdfrwt beam="1">  1        2 0.14854322E-01 0.42831395E+03</pdfrwt>
<pdfrwt beam="2">  1       -2 0.63010877E-01 0.42831395E+03</pdfrwt>
<totfact> 0.94861491E+02</totfact>
</mgrwt>
</event>
<event>
 4    1  0.6034452E-005  0.5846393E+03  0.7818608E-02  0.9937797E-01
         -2   -1    0    0    0  501 -0.00000000000E+00  0.00000000000E+00  0.35945852412E+02  0.35945852502E+02  0.25500000000E-02 0. -1.
          2   -1    0    0  501    0  0.00000000000E+00 -0.00000000000E+00 -0.23772084116E+04  0.23772084116E+04  0.25500000000E-02 0.  1.
    5000001    1    1    2    0    0 -0.14761204132E+03  0.16013184477E+03 -0.95714002191E+03  0.99944611861E+03  0.18800000000E+03 0.  0.
   -5000001    1    1    2    0    0  0.14761204132E+03 -0.16013184477E+03 -0.13841225373E+04  0.14137081455E+04  0.18800000000E+03 0.  0.
<mgrwt>
<rscale>  0 0.58463932E+03</rscale>
<asrwt>0</asrwt>
<pdfrwt beam="1">  1        2 0.33960110E+00 0.58463932E+03</pdfrwt>
<pdfrwt beam="2">  1       -2 0.51351233E-02 0.58463932E+03</pdfrwt>
<totfact> 0.10538273E+03</totfact>
</mgrwt>
</event>
<event>
 4    1  0.6034452E-005  0.5422976E+03  0.7818608E-02  0.1003293E+00
         -2   -1    0    0    0  501 -0.00000000000E+00  0.00000000000E+00  0.25784876378E+02  0.25784876504E+02  0.25500000000E-02 0. -1.
          2   -1    0    0  501    0  0.00000000000E+00 -0.00000000000E+00 -0.28513484419E+04  0.28513484419E+04  0.25500000000E-02 0.  1.
    5000001    1    1    2    0    0 -0.16955241342E+03  0.36007476286E+02 -0.18912472378E+04  0.19084560969E+04  0.18800000000E+03 0.  0.
   -5000001    1    1    2    0    0  0.16955241342E+03 -0.36007476286E+02 -0.93431632767E+03  0.96867722147E+03  0.18800000000E+03 0.  0.
<mgrwt>
<rscale>  0 0.54229758E+03</rscale>
<asrwt>0</asrwt>
<pdfrwt beam="1">  1        2 0.40733529E+00 0.54229758E+03</pdfrwt>
<pdfrwt beam="2">  1       -2 0.36835556E-02 0.54229758E+03</pdfrwt>
<totfact> 0.10014617E+03</totfact>
</mgrwt>
</event>
<event>
 4    1  0.6034452E-005  0.6436068E+03  0.7818608E-02  0.9818850E-01
         -2   -1    0    0    0  501 -0.00000000000E+00  0.00000000000E+00  0.19199684909E+03  0.19199684911E+03  0.25500000000E-02 0. -1.
          2   -1    0    0  501    0  0.00000000000E+00 -0.00000000000E+00 -0.53937041566E+03  0.53937041567E+03  0.25500000000E-02 0.  1.
    5000001    1    1    2    0    0 -0.23375659761E+03  0.68686661987E+02 -0.28060958800E+03  0.41646818047E+03  0.18800000000E+03 0.  0.
   -5000001    1    1    2    0    0  0.23375659761E+03 -0.68686661987E+02 -0.66763978572E+02  0.31489908431E+03  0.18800000000E+03 0.  0.
<mgrwt>
<rscale>  0 0.64360678E+03</rscale>
<asrwt>0</asrwt>
<pdfrwt beam="1">  1        2 0.77052916E-01 0.64360678E+03</pdfrwt>
<pdfrwt beam="2">  1       -2 0.27428121E-01 0.64360678E+03</pdfrwt>
<totfact> 0.74714899E+02</totfact>
</mgrwt>
</event>
<event>
 4    1  0.6034452E-005  0.4703373E+03  0.7818608E-02  0.1021825E+00
          2   -1    0    0  501    0  0.00000000000E+00  0.00000000000E+00  0.78311499649E+02  0.78311499691E+02  0.25500000000E-02 0.  1.
         -2   -1    0    0    0  501 -0.00000000000E+00 -0.00000000000E+00 -0.70620897368E+03  0.70620897369E+03  0.25500000000E-02 0. -1.
    5000001    1    1    2    0    0 -0.61677969730E+02 -0.12337074688E+03 -0.26292413617E+03  0.35142227379E+03  0.18800000000E+03 0.  0.
   -5000001    1    1    2    0    0  0.61677969730E+02  0.12337074688E+03 -0.36497333787E+03  0.43309819959E+03  0.18800000000E+03 0.  0.
<mgrwt>
<rscale>  0 0.47033726E+03</rscale>
<asrwt>0</asrwt>
<pdfrwt beam="1">  1        2 0.11187358E-01 0.47033726E+03</pdfrwt>
<pdfrwt beam="2">  1       -2 0.10088699E+00 0.47033726E+03</pdfrwt>
<totfact> 0.47073230E+02</totfact>
</mgrwt>
</event>
<event>
 4    1  0.6034452E-005  0.6343648E+03  0.7818608E-02  0.9836568E-01
          2   -1    0    0  501    0  0.00000000000E+00  0.00000000000E+00  0.15042277394E+04  0.15042277394E+04  0.25500000000E-02 0.  1.
         -2   -1    0    0    0  501 -0.00000000000E+00 -0.00000000000E+00 -0.66881269974E+02  0.66881270023E+02  0.25500000000E-02 0. -1.
    5000001    1    1    2    0    0 -0.16493391195E+03 -0.19394675137E+03  0.66659703667E+03  0.73791201845E+03  0.18800000000E+03 0.  0.
   -5000001    1    1    2    0    0  0.16493391195E+03  0.19394675137E+03  0.77074943278E+03  0.83319699099E+03  0.18800000000E+03 0.  0.
<mgrwt>
<rscale>  0 0.63436476E+03</rscale>
<asrwt>0</asrwt>
<pdfrwt beam="1">  1        2 0.21488967E+00 0.63436476E+03</pdfrwt>
<pdfrwt beam="2">  1       -2 0.95544677E-02 0.63436476E+03</pdfrwt>
<totfact> 0.10898466E+03</totfact>
</mgrwt>
</event>
<event>
 4    1  0.6034452E-005  0.1230733E+04  0.7818608E-02  0.9086373E-01
          2   -1    0    0  501    0  0.00000000000E+00  0.00000000000E+00  0.40839372267E+03  0.40839372268E+03  0.25500000000E-02 0.  1.
         -2   -1    0    0    0  501 -0.00000000000E+00 -0.00000000000E+00 -0.92723314010E+03  0.92723314010E+03  0.25500000000E-02 0. -1.
    5000001    1    1    2    0    0  0.57889129034E+03 -0.87783384913E+02 -0.28395511653E+03  0.67734448909E+03  0.18800000000E+03 0.  0.
   -5000001    1    1    2    0    0 -0.57889129034E+03  0.87783384913E+02 -0.23488430089E+03  0.65828237369E+03  0.18800000000E+03 0.  0.
<mgrwt>
<rscale>  0 0.12307334E+04</rscale>
<asrwt>0</asrwt>
<pdfrwt beam="1">  1        2 0.58341961E-01 0.12307334E+04</pdfrwt>
<pdfrwt beam="2">  1       -2 0.13246188E+00 0.12307334E+04</pdfrwt>
<totfact> 0.34470006E+01</totfact>
</mgrwt>
</event>
<event>
 4    1  0.6034452E-005  0.4554865E+03  0.7818608E-02  0.1026098E+00
         -2   -1    0    0    0  501 -0.00000000000E+00  0.00000000000E+00  0.58454170971E+02  0.58454171027E+02  0.25500000000E-02 0. -1.
          2   -1    0    0  501    0  0.00000000000E+00 -0.00000000000E+00 -0.88731022454E+03  0.88731022454E+03  0.25500000000E-02 0.  1.
    5000001    1    1    2    0    0 -0.10478811621E+03 -0.67184293039E+02 -0.34783129624E+03  0.41451765846E+03  0.18800000000E+03 0.  0.
   -5000001    1    1    2    0    0  0.10478811621E+03  0.67184293039E+02 -0.48102475733E+03  0.53124673711E+03  0.18800000000E+03 0.  0.
<mgrwt>
<rscale>  0 0.45548648E+03</rscale>
<asrwt>0</asrwt>
<pdfrwt beam="1">  1        2 0.12675860E+00 0.45548648E+03</pdfrwt>
<pdfrwt beam="2">  1       -2 0.83505964E-02 0.45548648E+03</pdfrwt>
<totfact> 0.30348579E+03</totfact>
</mgrwt>
</event>
<event>
 4    1  0.6034452E-005  0.5657408E+03  0.7818608E-02  0.9979148E-01
         -2   -1    0    0    0  501 -0.00000000000E+00  0.00000000000E+00  0.32397592450E+02  0.32397592551E+02  0.25500000000E-02 0. -1.
          2   -1    0    0  501    0  0.00000000000E+00 -0.00000000000E+00 -0.24698024581E+04  0.24698024581E+04  0.25500000000E-02 0.  1.
    5000001    1    1    2    0    0 -0.15737517912E+03  0.21068005864E+02 -0.18357027812E+04  0.18521229735E+04  0.18800000000E+03 0.  0.
   -5000001    1    1    2    0    0  0.15737517912E+03 -0.21068005864E+02 -0.60170208444E+03  0.65007707719E+03  0.18800000000E+03 0.  0.
<mgrwt>
<rscale>  0 0.56574077E+03</rscale>
<asrwt>0</asrwt>
<pdfrwt beam="1">  1        2 0.35282880E+00 0.56574077E+03</pdfrwt>
<pdfrwt beam="2">  1       -2 0.46282291E-02 0.56574077E+03</pdfrwt>
<totfact> 0.11118829E+03</totfact>
</mgrwt>
</event>
<event>
 4    1  0.6034452E-005  0.8767157E+03  0.7818608E-02  0.9455165E-01
         -2   -1    0    0    0  501 -0.00000000000E+00  0.00000000000E+00  0.19426630274E+03  0.19426630276E+03  0.25500000000E-02 0. -1.
          2   -1    0    0  501    0  0.00000000000E+00 -0.00000000000E+00 -0.98914541799E+03  0.98914541799E+03  0.25500000000E-02 0.  1.
    5000001    1    1    2    0    0  0.23214994611E+03  0.31479733032E+03 -0.31398303760E+03  0.53564942318E+03  0.18800000000E+03 0.  0.
   -5000001    1    1    2    0    0 -0.23214994611E+03 -0.31479733032E+03 -0.48089607765E+03  0.64776229757E+03  0.18800000000E+03 0.  0.
<mgrwt>
<rscale>  0 0.87671574E+03</rscale>
<asrwt>0</asrwt>
<pdfrwt beam="1">  1        2 0.14130649E+00 0.87671574E+03</pdfrwt>
<pdfrwt beam="2">  1       -2 0.27752329E-01 0.87671574E+03</pdfrwt>
<totfact> 0.33799896E+02</totfact>
</mgrwt>
</event>
<event>
 4    1  0.6034452E-005  0.7601176E+03  0.7818608E-02  0.9619610E-01
          2   -1    0    0  501    0  0.00000000000E+00  0.00000000000E+00  0.85068121299E+03  0.85068121299E+03  0.25500000000E-02 0.  1.
         -2   -1    0    0    0  501 -0.00000000000E+00 -0.00000000000E+00 -0.16979883441E+03  0.16979883443E+03  0.25500000000E-02 0. -1.
    5000001    1    1    2    0    0  0.22154804042E+03 -0.22488132741E+03  0.47091909559E+03  0.59729719589E+03  0.18800000000E+03 0.  0.
   -5000001    1    1    2    0    0 -0.22154804042E+03  0.22488132741E+03  0.20996328298E+03  0.42318285153E+03  0.18800000000E+03 0.  0.
<mgrwt>
<rscale>  0 0.76011757E+03</rscale>
<asrwt>0</asrwt>
<pdfrwt beam="1">  1        2 0.12152589E+00 0.76011757E+03</pdfrwt>
<pdfrwt beam="2">  1       -2 0.24256977E-01 0.76011757E+03</pdfrwt>
<totfact> 0.53249592E+02</totfact>
</mgrwt>
</event>
<event>
 4    1  0.6034452E-005  0.7932666E+03  0.7818608E-02  0.9569815E-01
         -2   -1    0    0    0  501 -0.00000000000E+00  0.00000000000E+00  0.18650062043E+03  0.18650062045E+03  0.25500000000E-02 0. -1.
          2   -1    0    0  501    0  0.00000000000E+00 -0.00000000000E+00 -0.84352510775E+03  0.84352510776E+03  0.25500000000E-02 0.  1.
    5000001    1    1    2    0    0 -0.33919754902E+03 -0.54523537352E+02 -0.24694488180E+03  0.46298333450E+03  0.18800000000E+03 0.  0.
   -5000001    1    1    2    0    0  0.33919754902E+03  0.54523537352E+02 -0.41007960553E+03  0.56704239370E+03  0.18800000000E+03 0.  0.
<mgrwt>
<rscale>  0 0.79326655E+03</rscale>
<asrwt>0</asrwt>
<pdfrwt beam="1">  1        2 0.12050359E+00 0.79326655E+03</pdfrwt>
<pdfrwt beam="2">  1       -2 0.26642946E-01 0.79326655E+03</pdfrwt>
<totfact> 0.45389909E+02</totfact>
</mgrwt>
</event>
<event>
 4    1  0.6034452E-005  0.6135536E+03  0.7818608E-02  0.9877679E-01
         -2   -1    0    0    0  501 -0.00000000000E+00  0.00000000000E+00  0.12284315647E+03  0.12284315650E+03  0.25500000000E-02 0. -1.
          2   -1    0    0  501    0  0.00000000000E+00 -0.00000000000E+00 -0.76611526099E+03  0.76611526099E+03  0.25500000000E-02 0.  1.
    5000001    1    1    2    0    0 -0.24106045905E+03 -0.25534751591E+02 -0.32513992909E+03  0.44701469992E+03  0.18800000000E+03 0.  0.
   -5000001    1    1    2    0    0  0.24106045905E+03  0.25534751591E+02 -0.31813217543E+03  0.44194371757E+03  0.18800000000E+03 0.  0.
<mgrwt>
<rscale>  0 0.61355364E+03</rscale>
<asrwt>0</asrwt>
<pdfrwt beam="1">  1        2 0.10944503E+00 0.61355364E+03</pdfrwt>
<pdfrwt beam="2">  1       -2 0.17549023E-01 0.61355364E+03</pdfrwt>
<totfact> 0.10791933E+03</totfact>
</mgrwt>
</event>
<event>
 4    1  0.6034452E-005  0.4340746E+03  0.7818608E-02  0.1032581E+00
          2   -1    0    0  501    0  0.00000000000E+00  0.00000000000E+00  0.56929253245E+03  0.56929253246E+03  0.25500000000E-02 0.  1.
         -2   -1    0    0    0  501 -0.00000000000E+00 -0.00000000000E+00 -0.82743363334E+02  0.82743363373E+02  0.25500000000E-02 0. -1.
    5000001    1    1    2    0    0 -0.90323858123E+02  0.39706780437E+02  0.31088959150E+03  0.37647226440E+03  0.18800000000E+03 0.  0.
   -5000001    1    1    2    0    0  0.90323858123E+02 -0.39706780437E+02  0.17565957762E+03  0.27556363143E+03  0.18800000000E+03 0.  0.
<mgrwt>
<rscale>  0 0.43407455E+03</rscale>
<asrwt>0</asrwt>
<pdfrwt beam="1">  1        2 0.81327501E-01 0.43407455E+03</pdfrwt>
<pdfrwt beam="2">  1       -2 0.11820481E-01 0.43407455E+03</pdfrwt>
<totfact> 0.29822572E+03</totfact>
</mgrwt>
</event>
<event>
 4    1  0.6034452E-005  0.1299540E+04  0.7818608E-02  0.9029930E-01
         -2   -1    0    0    0  501 -0.00000000000E+00  0.00000000000E+00  0.18332562172E+03  0.18332562173E+03  0.25500000000E-02 0. -1.
          2   -1    0    0  501    0  0.00000000000E+00 -0.00000000000E+00 -0.23030108328E+04  0.23030108328E+04  0.25500000000E-02 0.  1.
    5000001    1    1    2    0    0 -0.90508569824E+02  0.55195652923E+03 -0.15803331391E+04  0.16869038627E+04  0.18800000000E+03 0.  0.
   -5000001    1    1    2    0    0  0.90508569824E+02 -0.55195652923E+03 -0.53935207198E+03  0.79943259186E+03  0.18800000000E+03 0.  0.
<mgrwt>
<rscale>  0 0.12995398E+04</rscale>
<asrwt>0</asrwt>
<pdfrwt beam="1">  1        2 0.32900153E+00 0.12995398E+04</pdfrwt>
<pdfrwt beam="2">  1       -2 0.26189376E-01 0.12995398E+04</pdfrwt>
<totfact> 0.72406246E+01</totfact>
</mgrwt>
</event>
<event>
 4    1  0.6034452E-005  0.5534226E+03  0.7818608E-02  0.1000705E+00
          2   -1    0    0  501    0  0.00000000000E+00  0.00000000000E+00  0.17258398941E+04  0.17258398941E+04  0.25500000000E-02 0.  1.
         -2   -1    0    0    0  501 -0.00000000000E+00 -0.00000000000E+00 -0.44366302712E+02  0.44366302785E+02  0.25500000000E-02 0. -1.
    5000001    1    1    2    0    0  0.84394734016E+02 -0.14112337481E+03  0.12217237355E+04  0.12469928484E+04  0.18800000000E+03 0.  0.
   -5000001    1    1    2    0    0 -0.84394734016E+02  0.14112337481E+03  0.45974985580E+03  0.52321334841E+03  0.18800000000E+03 0.  0.
<mgrwt>
<rscale>  0 0.55342257E+03</rscale>
<asrwt>0</asrwt>
<pdfrwt beam="1">  1        2 0.24654860E+00 0.55342257E+03</pdfrwt>
<pdfrwt beam="2">  1       -2 0.63380422E-02 0.55342257E+03</pdfrwt>
<totfact> 0.16167954E+03</totfact>
</mgrwt>
</event>
<event>
 4    1  0.6034452E-005  0.6645633E+03  0.7818608E-02  0.9779830E-01
         -2   -1    0    0    0  501 -0.00000000000E+00  0.00000000000E+00  0.52479767536E+02  0.52479767598E+02  0.25500000000E-02 0. -1.
          2   -1    0    0  501    0  0.00000000000E+00 -0.00000000000E+00 -0.21038789918E+04  0.21038789918E+04  0.25500000000E-02 0.  1.
    5000001    1    1    2    0    0  0.11030704202E+03 -0.22124142722E+03 -0.14089633720E+04  0.14427879942E+04  0.18800000000E+03 0.  0.
   -5000001    1    1    2    0    0 -0.11030704202E+03  0.22124142722E+03 -0.64243585224E+03  0.71357076515E+03  0.18800000000E+03 0.  0.
<mgrwt>
<rscale>  0 0.66456326E+03</rscale>
<asrwt>0</asrwt>
<pdfrwt beam="1">  1        2 0.30055409E+00 0.66456326E+03</pdfrwt>
<pdfrwt beam="2">  1       -2 0.74971110E-02 0.66456326E+03</pdfrwt>
<totfact> 0.79535654E+02</totfact>
</mgrwt>
</event>
<event>
 4    1  0.6034452E-005  0.4285486E+03  0.7818608E-02  0.1034319E+00
          2   -1    0    0  501    0  0.00000000000E+00  0.00000000000E+00  0.35275216999E+04  0.35275216999E+04  0.25500000000E-02 0.  1.
         -2   -1    0    0    0  501 -0.00000000000E+00 -0.00000000000E+00 -0.13015790805E+02  0.13015791055E+02  0.25500000000E-02 0. -1.
    5000001    1    1    2    0    0 -0.14108112698E+02 -0.68290019289E+02  0.23813756007E+04  0.23898025687E+04  0.18800000000E+03 0.  0.
   -5000001    1    1    2    0    0  0.14108112698E+02  0.68290019289E+02  0.11331303083E+04  0.11507349222E+04  0.18800000000E+03 0.  0.
<mgrwt>
<rscale>  0 0.42854864E+03</rscale>
<asrwt>0</asrwt>
<pdfrwt beam="1">  1        2 0.50393149E+00 0.42854864E+03</pdfrwt>
<pdfrwt beam="2">  1       -2 0.18593994E-02 0.42854864E+03</pdfrwt>
<totfact> 0.11897599E+03</totfact>
</mgrwt>
</event>
<event>
 4    1  0.6034452E-005  0.1378408E+04  0.7818608E-02  0.8969598E-01
         -2   -1    0    0    0  501 -0.00000000000E+00  0.00000000000E+00  0.25286251100E+03  0.25286251102E+03  0.25500000000E-02 0. -1.
          2   -1    0    0  501    0  0.00000000000E+00 -0.00000000000E+00 -0.18785002070E+04  0.18785002070E+04  0.25500000000E-02 0.  1.
    5000001    1    1    2    0    0 -0.56346317368E+03  0.45778489340E+02 -0.27702201352E+03  0.65701720994E+03  0.18800000000E+03 0.  0.
   -5000001    1    1    2    0    0  0.56346317368E+03 -0.45778489340E+02 -0.13486156825E+04  0.14743455081E+04  0.18800000000E+03 0.  0.
<mgrwt>
<rscale>  0 0.13784082E+04</rscale>
<asrwt>0</asrwt>
<pdfrwt beam="1">  1        2 0.26835716E+00 0.13784082E+04</pdfrwt>
<pdfrwt beam="2">  1       -2 0.36123217E-01 0.13784082E+04</pdfrwt>
<totfact> 0.65187205E+01</totfact>
</mgrwt>
</event>
<event>
 4    1  0.6034452E-005  0.5751482E+03  0.7818608E-02  0.9958351E-01
         -2   -1    0    0    0  501 -0.00000000000E+00  0.00000000000E+00  0.16666216372E+03  0.16666216374E+03  0.25500000000E-02 0. -1.
          2   -1    0    0  501    0  0.00000000000E+00 -0.00000000000E+00 -0.49620659930E+03  0.49620659931E+03  0.25500000000E-02 0.  1.
    5000001    1    1    2    0    0  0.19099956196E+03 -0.10397987979E+03 -0.17386305389E+03  0.33595388013E+03  0.18800000000E+03 0.  0.
   -5000001    1    1    2    0    0 -0.19099956196E+03  0.10397987979E+03 -0.15568138170E+03  0.32691488292E+03  0.18800000000E+03 0.  0.
<mgrwt>
<rscale>  0 0.57514821E+03</rscale>
<asrwt>0</asrwt>
<pdfrwt beam="1">  1        2 0.70886656E-01 0.57514821E+03</pdfrwt>
<pdfrwt beam="2">  1       -2 0.23808881E-01 0.57514821E+03</pdfrwt>
<totfact> 0.10617763E+03</totfact>
</mgrwt>
</event>
<event>
 4    1  0.6034452E-005  0.5103048E+03  0.7818608E-02  0.1011124E+00
         -2   -1    0    0    0  501 -0.00000000000E+00  0.00000000000E+00  0.45075222218E+02  0.45075222290E+02  0.25500000000E-02 0. -1.
          2   -1    0    0  501    0  0.00000000000E+00 -0.00000000000E+00 -0.14443132782E+04  0.14443132782E+04  0.25500000000E-02 0.  1.
    5000001    1    1    2    0    0  0.85380704353E+02 -0.14973040804E+03 -0.67904690951E+03  0.72536733113E+03  0.18800000000E+03 0.  0.
   -5000001    1    1    2    0    0 -0.85380704353E+02  0.14973040804E+03 -0.72019114647E+03  0.76402116935E+03  0.18800000000E+03 0.  0.
<mgrwt>
<rscale>  0 0.51030478E+03</rscale>
<asrwt>0</asrwt>
<pdfrwt beam="1">  1        2 0.20633044E+00 0.51030478E+03</pdfrwt>
<pdfrwt beam="2">  1       -2 0.64393184E-02 0.51030478E+03</pdfrwt>
<totfact> 0.22025175E+03</totfact>
</mgrwt>
</event>
<event>
 4    1  0.6034452E-005  0.9939717E+03  0.7818608E-02  0.9315181E-01
          2   -1    0    0  501    0  0.00000000000E+00  0.00000000000E+00  0.17129525399E+04  0.17129525399E+04  0.25500000000E-02 0.  1.
         -2   -1    0    0    0  501 -0.00000000000E+00 -0.00000000000E+00 -0.14419252156E+03  0.14419252158E+03  0.25500000000E-02 0. -1.
    5000001    1    1    2    0    0  0.10122047862E+03  0.44267944575E+03  0.92219040778E+03  0.10449831698E+04  0.18800000000E+03 0.  0.
   -5000001    1    1    2    0    0 -0.10122047862E+03 -0.44267944575E+03  0.64656961055E+03  0.81216189167E+03  0.18800000000E+03 0.  0.
<mgrwt>
<rscale>  0 0.99397172E+03</rscale>
<asrwt>0</asrwt>
<pdfrwt beam="1">  1        2 0.24470749E+00 0.99397172E+03</pdfrwt>
<pdfrwt beam="2">  1       -2 0.20598933E-01 0.99397172E+03</pdfrwt>
<totfact> 0.22861019E+02</totfact>
</mgrwt>
</event>
<event>
 4    1  0.6034452E-005  0.6847086E+03  0.7818608E-02  0.9743746E-01
          2   -1    0    0  501    0  0.00000000000E+00  0.00000000000E+00  0.12982737217E+04  0.12982737217E+04  0.25500000000E-02 0.  1.
         -2   -1    0    0    0  501 -0.00000000000E+00 -0.00000000000E+00 -0.90278708770E+02  0.90278708806E+02  0.25500000000E-02 0. -1.
    5000001    1    1    2    0    0 -0.17053932605E+03 -0.18746687384E+03  0.33469274717E+03  0.45998991894E+03  0.18800000000E+03 0.  0.
   -5000001    1    1    2    0    0  0.17053932605E+03  0.18746687384E+03  0.87330226580E+03  0.92856251161E+03  0.18800000000E+03 0.  0.
<mgrwt>
<rscale>  0 0.68470862E+03</rscale>
<asrwt>0</asrwt>
<pdfrwt beam="1">  1        2 0.18546767E+00 0.68470862E+03</pdfrwt>
<pdfrwt beam="2">  1       -2 0.12896959E-01 0.68470862E+03</pdfrwt>
<totfact> 0.85677934E+02</totfact>
</mgrwt>
</event>
<event>
 4    1  0.6034452E-005  0.9912599E+03  0.7818608E-02  0.9318183E-01
         -2   -1    0    0    0  501 -0.00000000000E+00  0.00000000000E+00  0.92208396478E+03  0.92208396478E+03  0.25500000000E-02 0. -1.
          2   -1    0    0  501    0  0.00000000000E+00 -0.00000000000E+00 -0.26640638502E+03  0.26640638503E+03  0.25500000000E-02 0.  1.
    5000001    1    1    2    0    0  0.36445949664E+03  0.25257405878E+03  0.46807555708E+03  0.67161231897E+03  0.18800000000E+03 0.  0.
   -5000001    1    1    2    0    0 -0.36445949664E+03 -0.25257405878E+03  0.18760202268E+03  0.51687803085E+03  0.18800000000E+03 0.  0.
<mgrwt>
<rscale>  0 0.99125992E+03</rscale>
<asrwt>0</asrwt>
<pdfrwt beam="1">  1        2 0.38058056E-01 0.99125992E+03</pdfrwt>
<pdfrwt beam="2">  1       -2 0.13172628E+00 0.99125992E+03</pdfrwt>
<totfact> 0.57119716E+01</totfact>
</mgrwt>
</event>
<event>
 4    1  0.6034452E-005  0.8172834E+03  0.7818608E-02  0.9535332E-01
         -2   -1    0    0    0  501 -0.00000000000E+00  0.00000000000E+00  0.80247858799E+02  0.80247858839E+02  0.25500000000E-02 0. -1.
          2   -1    0    0  501    0  0.00000000000E+00 -0.00000000000E+00 -0.20809034354E+04  0.20809034355E+04  0.25500000000E-02 0.  1.
    5000001    1    1    2    0    0 -0.18415555374E+03  0.28417129711E+03 -0.13448749913E+04  0.13995354001E+04  0.18800000000E+03 0.  0.
   -5000001    1    1    2    0    0  0.18415555374E+03 -0.28417129711E+03 -0.65578058539E+03  0.76161589417E+03  0.18800000000E+03 0.  0.
<mgrwt>
<rscale>  0 0.81728341E+03</rscale>
<asrwt>0</asrwt>
<pdfrwt beam="1">  1        2 0.29727189E+00 0.81728341E+03</pdfrwt>
<pdfrwt beam="2">  1       -2 0.11463981E-01 0.81728341E+03</pdfrwt>
<totfact> 0.40677136E+02</totfact>
</mgrwt>
</event>
<event>
 4    1  0.6034452E-005  0.6722648E+03  0.7818608E-02  0.9765875E-01
         -2   -1    0    0    0  501 -0.00000000000E+00  0.00000000000E+00  0.72751909747E+03  0.72751909747E+03  0.25500000000E-02 0. -1.
          2   -1    0    0  501    0  0.00000000000E+00 -0.00000000000E+00 -0.15530174030E+03  0.15530174032E+03  0.25500000000E-02 0.  1.
    5000001    1    1    2    0    0 -0.36700881207E+02 -0.27554133663E+03  0.31140274378E+03  0.45780525522E+03  0.18800000000E+03 0.  0.
   -5000001    1    1    2    0    0  0.36700881207E+02  0.27554133663E+03  0.26081461339E+03  0.42501558257E+03  0.18800000000E+03 0.  0.
<mgrwt>
<rscale>  0 0.67226478E+03</rscale>
<asrwt>0</asrwt>
<pdfrwt beam="1">  1        2 0.22185963E-01 0.67226478E+03</pdfrwt>
<pdfrwt beam="2">  1       -2 0.10393130E+00 0.67226478E+03</pdfrwt>
<totfact> 0.19164013E+02</totfact>
</mgrwt>
</event>
<event>
 4    1  0.6034452E-005  0.8259666E+03  0.7818608E-02  0.9523174E-01
          2   -1    0    0  501    0  0.00000000000E+00  0.00000000000E+00  0.32996434041E+03  0.32996434042E+03  0.25500000000E-02 0.  1.
         -2   -1    0    0    0  501 -0.00000000000E+00 -0.00000000000E+00 -0.51688987470E+03  0.51688987471E+03  0.25500000000E-02 0. -1.
    5000001    1    1    2    0    0 -0.20589991517E+03 -0.27340533165E+03  0.44346003222E+02  0.39300867477E+03  0.18800000000E+03 0.  0.
   -5000001    1    1    2    0    0  0.20589991517E+03  0.27340533165E+03 -0.23127153751E+03  0.45384554036E+03  0.18800000000E+03 0.  0.
<mgrwt>
<rscale>  0 0.82596665E+03</rscale>
<asrwt>0</asrwt>
<pdfrwt beam="1">  1        2 0.47137763E-01 0.82596665E+03</pdfrwt>
<pdfrwt beam="2">  1       -2 0.73841411E-01 0.82596665E+03</pdfrwt>
<totfact> 0.17843637E+02</totfact>
</mgrwt>
</event>
<event>
 4    1  0.6034452E-005  0.7537320E+03  0.7818608E-02  0.9629514E-01
          2   -1    0    0  501    0  0.00000000000E+00  0.00000000000E+00  0.14550057201E+04  0.14550057201E+04  0.25500000000E-02 0.  1.
         -2   -1    0    0    0  501 -0.00000000000E+00 -0.00000000000E+00 -0.97613354592E+02  0.97613354626E+02  0.25500000000E-02 0. -1.
    5000001    1    1    2    0    0 -0.23914803410E+03 -0.20465616056E+03  0.49902227894E+03  0.61922787498E+03  0.18800000000E+03 0.  0.
   -5000001    1    1    2    0    0  0.23914803410E+03  0.20465616056E+03  0.85837008659E+03  0.93339119978E+03  0.18800000000E+03 0.  0.
<mgrwt>
<rscale>  0 0.75373202E+03</rscale>
<asrwt>0</asrwt>
<pdfrwt beam="1">  1        2 0.20785794E+00 0.75373202E+03</pdfrwt>
<pdfrwt beam="2">  1       -2 0.13944766E-01 0.75373202E+03</pdfrwt>
<totfact> 0.61755642E+02</totfact>
</mgrwt>
</event>
<event>
 4    1  0.6034452E-005  0.4707707E+03  0.7818608E-02  0.1021703E+00
          2   -1    0    0  501    0  0.00000000000E+00  0.00000000000E+00  0.94733650708E+03  0.94733650708E+03  0.25500000000E-02 0.  1.
         -2   -1    0    0    0  501 -0.00000000000E+00 -0.00000000000E+00 -0.58486352757E+02  0.58486352813E+02  0.25500000000E-02 0. -1.
    5000001    1    1    2    0    0 -0.97143882930E-01  0.13798453844E+03  0.37610522510E+03  0.44253687150E+03  0.18800000000E+03 0.  0.
   -5000001    1    1    2    0    0  0.97143882930E-01 -0.13798453844E+03  0.51274492921E+03  0.56328598839E+03  0.18800000000E+03 0.  0.
<mgrwt>
<rscale>  0 0.47077068E+03</rscale>
<asrwt>0</asrwt>
<pdfrwt beam="1">  1        2 0.13533378E+00 0.47077068E+03</pdfrwt>
<pdfrwt beam="2">  1       -2 0.83551940E-02 0.47077068E+03</pdfrwt>
<totfact> 0.27788660E+03</totfact>
</mgrwt>
</event>
<event>
 4    1  0.6034452E-005  0.7934597E+03  0.7818608E-02  0.9569532E-01
         -2   -1    0    0    0  501 -0.00000000000E+00  0.00000000000E+00  0.28490591241E+03  0.28490591243E+03  0.25500000000E-02 0. -1.
          2   -1    0    0  501    0  0.00000000000E+00 -0.00000000000E+00 -0.55244411026E+03  0.55244411027E+03  0.25500000000E-02 0.  1.
    5000001    1    1    2    0    0  0.95524720746E+02 -0.33580677138E+03 -0.14709423587E+03  0.42293247003E+03  0.18800000000E+03 0.  0.
   -5000001    1    1    2    0    0 -0.95524720746E+02  0.33580677138E+03 -0.12044396197E+03  0.41441755266E+03  0.18800000000E+03 0.  0.
<mgrwt>
<rscale>  0 0.79345975E+03</rscale>
<asrwt>0</asrwt>
<pdfrwt beam="1">  1        2 0.78920586E-01 0.79345975E+03</pdfrwt>
<pdfrwt beam="2">  1       -2 0.40700845E-01 0.79345975E+03</pdfrwt>
<totfact> 0.34361612E+02</totfact>
</mgrwt>
</event>
<event>
 4    1  0.6034452E-005  0.4710528E+03  0.7818608E-02  0.1021623E+00
          2   -1    0    0  501    0  0.00000000000E+00  0.00000000000E+00  0.27212576300E+04  0.27212576300E+04  0.25500000000E-02 0.  1.
         -2   -1    0    0    0  501 -0.00000000000E+00 -0.00000000000E+00 -0.20384944800E+02  0.20384944960E+02  0.25500000000E-02 0. -1.
    5000001    1    1    2    0    0 -0.11368082777E+03  0.21208336004E+02  0.18288152286E+04  0.18420863890E+04  0.18800000000E+03 0.  0.
   -5000001    1    1    2    0    0  0.11368082777E+03 -0.21208336004E+02  0.87205745660E+03  0.89955618598E+03  0.18800000000E+03 0.  0.
<mgrwt>
<rscale>  0 0.47105281E+03</rscale>
<asrwt>0</asrwt>
<pdfrwt beam="1">  1        2 0.38875115E+00 0.47105281E+03</pdfrwt>
<pdfrwt beam="2">  1       -2 0.29121345E-02 0.47105281E+03</pdfrwt>
<totfact> 0.16847079E+03</totfact>
</mgrwt>
</event>
<event>
 4    1  0.6034452E-005  0.4321177E+03  0.7818608E-02  0.1033193E+00
         -2   -1    0    0    0  501 -0.00000000000E+00  0.00000000000E+00  0.20504020729E+03  0.20504020730E+03  0.25500000000E-02 0. -1.
          2   -1    0    0  501    0  0.00000000000E+00 -0.00000000000E+00 -0.22766963731E+03  0.22766963733E+03  0.25500000000E-02 0.  1.
    5000001    1    1    2    0    0  0.97190179055E+02  0.43369608435E+02 -0.14571215734E+02  0.21652522756E+03  0.18800000000E+03 0.  0.
   -5000001    1    1    2    0    0 -0.97190179055E+02 -0.43369608435E+02 -0.80582142908E+01  0.21618461707E+03  0.18800000000E+03 0.  0.
<mgrwt>
<rscale>  0 0.43211771E+03</rscale>
<asrwt>0</asrwt>
<pdfrwt beam="1">  1        2 0.32524234E-01 0.43211771E+03</pdfrwt>
<pdfrwt beam="2">  1       -2 0.29291458E-01 0.43211771E+03</pdfrwt>
<totfact> 0.17275129E+03</totfact>
</mgrwt>
</event>
<event>
 4    1  0.6034452E-005  0.1509393E+04  0.7818608E-02  0.8878230E-01
         -2   -1    0    0    0  501 -0.00000000000E+00  0.00000000000E+00  0.15059608410E+03  0.15059608412E+03  0.25500000000E-02 0. -1.
          2   -1    0    0  501    0  0.00000000000E+00 -0.00000000000E+00 -0.37820845472E+04  0.37820845472E+04  0.25500000000E-02 0.  1.
    5000001    1    1    2    0    0  0.69313909658E+03 -0.23119267950E+03 -0.17683232077E+04  0.19225511252E+04  0.18800000000E+03 0.  0.
   -5000001    1    1    2    0    0 -0.69313909658E+03  0.23119267950E+03 -0.18631652554E+04  0.20101295061E+04  0.18800000000E+03 0.  0.
<mgrwt>
<rscale>  0 0.15093934E+04</rscale>
<asrwt>0</asrwt>
<pdfrwt beam="1">  1        2 0.54029773E+00 0.15093934E+04</pdfrwt>
<pdfrwt beam="2">  1       -2 0.21513729E-01 0.15093934E+04</pdfrwt>
<totfact> 0.14692229E+01</totfact>
</mgrwt>
</event>
<event>
 4    1  0.6034452E-005  0.7730193E+03  0.7818608E-02  0.9599913E-01
         -2   -1    0    0    0  501 -0.00000000000E+00  0.00000000000E+00  0.18551537812E+03  0.18551537814E+03  0.25500000000E-02 0. -1.
          2   -1    0    0  501    0  0.00000000000E+00 -0.00000000000E+00 -0.80526858170E+03  0.80526858170E+03  0.25500000000E-02 0.  1.
    5000001    1    1    2    0    0 -0.91821427855E+02  0.30801638469E+03 -0.44270765729E+03  0.57848019644E+03  0.18800000000E+03 0.  0.
   -5000001    1    1    2    0    0  0.91821427855E+02 -0.30801638469E+03 -0.17704554629E+03  0.41230376340E+03  0.18800000000E+03 0.  0.
<mgrwt>
<rscale>  0 0.77301929E+03</rscale>
<asrwt>0</asrwt>
<pdfrwt beam="1">  1        2 0.11503837E+00 0.77301929E+03</pdfrwt>
<pdfrwt beam="2">  1       -2 0.26502197E-01 0.77301929E+03</pdfrwt>
<totfact> 0.48721658E+02</totfact>
</mgrwt>
</event>
<event>
 4    1  0.6034452E-005  0.6182949E+03  0.7818608E-02  0.9868160E-01
         -2   -1    0    0    0  501 -0.00000000000E+00  0.00000000000E+00  0.13025412138E+03  0.13025412141E+03  0.25500000000E-02 0. -1.
          2   -1    0    0  501    0  0.00000000000E+00 -0.00000000000E+00 -0.73373605152E+03  0.73373605152E+03  0.25500000000E-02 0.  1.
    5000001    1    1    2    0    0  0.17818924999E+02  0.24208155236E+03 -0.35226247188E+03  0.46728346983E+03  0.18800000000E+03 0.  0.
   -5000001    1    1    2    0    0 -0.17818924999E+02 -0.24208155236E+03 -0.25121945826E+03  0.39670670311E+03  0.18800000000E+03 0.  0.
<mgrwt>
<rscale>  0 0.61829490E+03</rscale>
<asrwt>0</asrwt>
<pdfrwt beam="1">  1        2 0.10481943E+00 0.61829490E+03</pdfrwt>
<pdfrwt beam="2">  1       -2 0.18607732E-01 0.61829490E+03</pdfrwt>
<totfact> 0.10298329E+03</totfact>
</mgrwt>
</event>
<event>
 4    1  0.6034452E-005  0.4412758E+03  0.7818608E-02  0.1030356E+00
          2   -1    0    0  501    0  0.00000000000E+00  0.00000000000E+00  0.10289081870E+04  0.10289081870E+04  0.25500000000E-02 0.  1.
         -2   -1    0    0    0  501 -0.00000000000E+00 -0.00000000000E+00 -0.47313339050E+02  0.47313339118E+02  0.25500000000E-02 0. -1.
    5000001    1    1    2    0    0 -0.38279994155E+02 -0.99984475893E+02  0.59639947401E+03  0.63442776261E+03  0.18800000000E+03 0.  0.
   -5000001    1    1    2    0    0  0.38279994155E+02  0.99984475893E+02  0.38519537395E+03  0.44179376352E+03  0.18800000000E+03 0.  0.
<mgrwt>
<rscale>  0 0.44127580E+03</rscale>
<asrwt>0</asrwt>
<pdfrwt beam="1">  1        2 0.14698689E+00 0.44127580E+03</pdfrwt>
<pdfrwt beam="2">  1       -2 0.67590482E-02 0.44127580E+03</pdfrwt>
<totfact> 0.34627306E+03</totfact>
</mgrwt>
</event>
<event>
 4    1  0.6034452E-005  0.4419251E+03  0.7818608E-02  0.1030158E+00
         -2   -1    0    0    0  501 -0.00000000000E+00  0.00000000000E+00  0.24248152114E+02  0.24248152248E+02  0.25500000000E-02 0. -1.
          2   -1    0    0  501    0  0.00000000000E+00 -0.00000000000E+00 -0.20135324697E+04  0.20135324697E+04  0.25500000000E-02 0.  1.
    5000001    1    1    2    0    0 -0.11445619354E+03 -0.84818569078E+01 -0.10756041523E+04  0.10979255233E+04  0.18800000000E+03 0.  0.
   -5000001    1    1    2    0    0  0.11445619354E+03  0.84818569078E+01 -0.91368016525E+03  0.93985509867E+03  0.18800000000E+03 0.  0.
<mgrwt>
<rscale>  0 0.44192507E+03</rscale>
<asrwt>0</asrwt>
<pdfrwt beam="1">  1        2 0.28764739E+00 0.44192507E+03</pdfrwt>
<pdfrwt beam="2">  1       -2 0.34640230E-02 0.44192507E+03</pdfrwt>
<totfact> 0.29551966E+03</totfact>
</mgrwt>
</event>
<event>
 4    1  0.6034452E-005  0.7414606E+03  0.7818608E-02  0.9648843E-01
         -2   -1    0    0    0  501 -0.00000000000E+00  0.00000000000E+00  0.97952145050E+02  0.97952145083E+02  0.25500000000E-02 0. -1.
          2   -1    0    0  501    0  0.00000000000E+00 -0.00000000000E+00 -0.14031438945E+04  0.14031438945E+04  0.25500000000E-02 0.  1.
    5000001    1    1    2    0    0  0.11622989104E+03 -0.29406123072E+03 -0.55947801045E+03  0.66958273511E+03  0.18800000000E+03 0.  0.
   -5000001    1    1    2    0    0 -0.11622989104E+03  0.29406123072E+03 -0.74571373902E+03  0.83151330450E+03  0.18800000000E+03 0.  0.
<mgrwt>
<rscale>  0 0.74146060E+03</rscale>
<asrwt>0</asrwt>
<pdfrwt beam="1">  1        2 0.20044912E+00 0.74146060E+03</pdfrwt>
<pdfrwt beam="2">  1       -2 0.13993164E-01 0.74146060E+03</pdfrwt>
<totfact> 0.65462208E+02</totfact>
</mgrwt>
</event>
<event>
 4    1  0.6034452E-005  0.4872997E+03  0.7818608E-02  0.1017148E+00
         -2   -1    0    0    0  501 -0.00000000000E+00  0.00000000000E+00  0.35416424049E+03  0.35416424050E+03  0.25500000000E-02 0. -1.
          2   -1    0    0  501    0  0.00000000000E+00 -0.00000000000E+00 -0.16762065342E+03  0.16762065344E+03  0.25500000000E-02 0.  1.
    5000001    1    1    2    0    0  0.24630420422E+02 -0.15000436263E+03  0.60912713070E+02  0.24932373539E+03  0.18800000000E+03 0.  0.
   -5000001    1    1    2    0    0 -0.24630420422E+02  0.15000436263E+03  0.12563087400E+03  0.27246115855E+03  0.18800000000E+03 0.  0.
<mgrwt>
<rscale>  0 0.48729967E+03</rscale>
<asrwt>0</asrwt>
<pdfrwt beam="1">  1        2 0.23945808E-01 0.48729967E+03</pdfrwt>
<pdfrwt beam="2">  1       -2 0.50594891E-01 0.48729967E+03</pdfrwt>
<totfact> 0.85375001E+02</totfact>
</mgrwt>
</event>
<event>
 4    1  0.6034452E-005  0.6290391E+03  0.7818608E-02  0.9846926E-01
          2   -1    0    0  501    0  0.00000000000E+00  0.00000000000E+00  0.11410262918E+03  0.11410262921E+03  0.25500000000E-02 0.  1.
         -2   -1    0    0    0  501 -0.00000000000E+00 -0.00000000000E+00 -0.86696124329E+03  0.86696124329E+03  0.25500000000E-02 0. -1.
    5000001    1    1    2    0    0  0.13269434291E+03  0.15485044787E+03 -0.60771727700E+03  0.66802001363E+03  0.18800000000E+03 0.  0.
   -5000001    1    1    2    0    0 -0.13269434291E+03 -0.15485044787E+03 -0.14514133710E+03  0.31304385888E+03  0.18800000000E+03 0.  0.
<mgrwt>
<rscale>  0 0.62903913E+03</rscale>
<asrwt>0</asrwt>
<pdfrwt beam="1">  1        2 0.16300376E-01 0.62903913E+03</pdfrwt>
<pdfrwt beam="2">  1       -2 0.12385160E+00 0.62903913E+03</pdfrwt>
<totfact> 0.18023286E+02</totfact>
</mgrwt>
</event>
<event>
 4    1  0.6034452E-005  0.6444972E+03  0.7818608E-02  0.9817160E-01
          2   -1    0    0  501    0  0.00000000000E+00  0.00000000000E+00  0.21049873265E+03  0.21049873267E+03  0.25500000000E-02 0.  1.
         -2   -1    0    0    0  501 -0.00000000000E+00 -0.00000000000E+00 -0.49332440217E+03  0.49332440218E+03  0.25500000000E-02 0. -1.
    5000001    1    1    2    0    0 -0.58308920789E+02 -0.46686456728E+02 -0.41534242562E+03  0.46198797171E+03  0.18800000000E+03 0.  0.
   -5000001    1    1    2    0    0  0.58308920789E+02  0.46686456728E+02  0.13251675609E+03  0.24183516314E+03  0.18800000000E+03 0.  0.
<mgrwt>
<rscale>  0 0.64449720E+03</rscale>
<asrwt>0</asrwt>
<pdfrwt beam="1">  1        2 0.30071248E-01 0.64449720E+03</pdfrwt>
<pdfrwt beam="2">  1       -2 0.70474914E-01 0.64449720E+03</pdfrwt>
<totfact> 0.32823117E+02</totfact>
</mgrwt>
</event>
<event>
 4    1  0.6034452E-005  0.7198982E+03  0.7818608E-02  0.9683796E-01
          2   -1    0    0  501    0  0.00000000000E+00  0.00000000000E+00  0.20765234827E+03  0.20765234829E+03  0.25500000000E-02 0.  1.
         -2   -1    0    0    0  501 -0.00000000000E+00 -0.00000000000E+00 -0.62394356010E+03  0.62394356011E+03  0.25500000000E-02 0. -1.
    5000001    1    1    2    0    0  0.72200827071E+02 -0.88115729538E+02 -0.53740000482E+03  0.58062044952E+03  0.18800000000E+03 0.  0.
   -5000001    1    1    2    0    0 -0.72200827071E+02  0.88115729538E+02  0.12110879298E+03  0.25097545888E+03  0.18800000000E+03 0.  0.
<mgrwt>
<rscale>  0 0.71989817E+03</rscale>
<asrwt>0</asrwt>
<pdfrwt beam="1">  1        2 0.29664622E-01 0.71989817E+03</pdfrwt>
<pdfrwt beam="2">  1       -2 0.89134793E-01 0.71989817E+03</pdfrwt>
<totfact> 0.19660564E+02</totfact>
</mgrwt>
</event>
<event>
 4    1  0.6034452E-005  0.7487724E+03  0.7818608E-02  0.9637278E-01
          2   -1    0    0  501    0  0.00000000000E+00  0.00000000000E+00  0.99622907931E+03  0.99622907931E+03  0.25500000000E-02 0.  1.
         -2   -1    0    0    0  501 -0.00000000000E+00 -0.00000000000E+00 -0.14069557055E+03  0.14069557057E+03  0.25500000000E-02 0. -1.
    5000001    1    1    2    0    0 -0.13519806368E+03  0.11689984367E+03  0.83766579186E+03  0.87691052492E+03  0.18800000000E+03 0.  0.
   -5000001    1    1    2    0    0  0.13519806368E+03 -0.11689984367E+03  0.17867716907E+02  0.26001412496E+03  0.18800000000E+03 0.  0.
<mgrwt>
<rscale>  0 0.74877238E+03</rscale>
<asrwt>0</asrwt>
<pdfrwt beam="1">  1        2 0.14231844E+00 0.74877238E+03</pdfrwt>
<pdfrwt beam="2">  1       -2 0.20099367E-01 0.74877238E+03</pdfrwt>
<totfact> 0.59944767E+02</totfact>
</mgrwt>
</event>
<event>
 4    1  0.6034452E-005  0.6093878E+03  0.7818608E-02  0.9886119E-01
         -2   -1    0    0    0  501 -0.00000000000E+00  0.00000000000E+00  0.51539074066E+02  0.51539074129E+02  0.25500000000E-02 0. -1.
          2   -1    0    0  501    0  0.00000000000E+00 -0.00000000000E+00 -0.18013200659E+04  0.18013200659E+04  0.25500000000E-02 0.  1.
    5000001    1    1    2    0    0  0.98464194809E+02 -0.14901138895E+03 -0.38845603879E+03  0.46705640534E+03  0.18800000000E+03 0.  0.
   -5000001    1    1    2    0    0 -0.98464194809E+02  0.14901138895E+03 -0.13613249530E+04  0.13858027347E+04  0.18800000000E+03 0.  0.
<mgrwt>
<rscale>  0 0.60938779E+03</rscale>
<asrwt>0</asrwt>
<pdfrwt beam="1">  1        2 0.25733140E+00 0.60938779E+03</pdfrwt>
<pdfrwt beam="2">  1       -2 0.73627260E-02 0.60938779E+03</pdfrwt>
<totfact> 0.11662922E+03</totfact>
</mgrwt>
</event>
<event>
 4    1  0.6034452E-005  0.5044890E+03  0.7818608E-02  0.1012614E+00
         -2   -1    0    0    0  501 -0.00000000000E+00  0.00000000000E+00  0.21463518236E+03  0.21463518238E+03  0.25500000000E-02 0. -1.
          2   -1    0    0  501    0  0.00000000000E+00 -0.00000000000E+00 -0.29644383958E+03  0.29644383959E+03  0.25500000000E-02 0.  1.
    5000001    1    1    2    0    0 -0.60517462977E+02  0.15279060107E+03 -0.47173255732E+01  0.24974704055E+03  0.18800000000E+03 0.  0.
   -5000001    1    1    2    0    0  0.60517462977E+02 -0.15279060107E+03 -0.77091331648E+02  0.26133198143E+03  0.18800000000E+03 0.  0.
<mgrwt>
<rscale>  0 0.50448896E+03</rscale>
<asrwt>0</asrwt>
<pdfrwt beam="1">  1        2 0.42349120E-01 0.50448896E+03</pdfrwt>
<pdfrwt beam="2">  1       -2 0.30662169E-01 0.50448896E+03</pdfrwt>
<totfact> 0.11886114E+03</totfact>
</mgrwt>
</event>
<event>
 4    1  0.6034452E-005  0.5508421E+03  0.7818608E-02  0.1001299E+00
          2   -1    0    0  501    0  0.00000000000E+00  0.00000000000E+00  0.77564417779E+03  0.77564417780E+03  0.25500000000E-02 0.  1.
         -2   -1    0    0    0  501 -0.00000000000E+00 -0.00000000000E+00 -0.97798384208E+02  0.97798384242E+02  0.25500000000E-02 0. -1.
    5000001    1    1    2    0    0 -0.14535475052E+03  0.10831280225E+03  0.20020726852E+03  0.32906931944E+03  0.18800000000E+03 0.  0.
   -5000001    1    1    2    0    0  0.14535475052E+03 -0.10831280225E+03  0.47763852506E+03  0.54437324259E+03  0.18800000000E+03 0.  0.
<mgrwt>
<rscale>  0 0.55084207E+03</rscale>
<asrwt>0</asrwt>
<pdfrwt beam="1">  1        2 0.11080631E+00 0.55084207E+03</pdfrwt>
<pdfrwt beam="2">  1       -2 0.13971198E-01 0.55084207E+03</pdfrwt>
<totfact> 0.15633320E+03</totfact>
</mgrwt>
</event>
<event>
 4    1  0.6034452E-005  0.5044669E+03  0.7818608E-02  0.1012620E+00
          2   -1    0    0  501    0  0.00000000000E+00  0.00000000000E+00  0.19086740427E+03  0.19086740429E+03  0.25500000000E-02 0.  1.
         -2   -1    0    0    0  501 -0.00000000000E+00 -0.00000000000E+00 -0.33332934954E+03  0.33332934955E+03  0.25500000000E-02 0. -1.
    5000001    1    1    2    0    0  0.12289057317E+03  0.11198095742E+03 -0.97433864621E+02  0.26921958653E+03  0.18800000000E+03 0.  0.
   -5000001    1    1    2    0    0 -0.12289057317E+03 -0.11198095742E+03 -0.45028080646E+02  0.25497716730E+03  0.18800000000E+03 0.  0.
<mgrwt>
<rscale>  0 0.50446688E+03</rscale>
<asrwt>0</asrwt>
<pdfrwt beam="1">  1        2 0.27266772E-01 0.50446688E+03</pdfrwt>
<pdfrwt beam="2">  1       -2 0.47618479E-01 0.50446688E+03</pdfrwt>
<totfact> 0.83226312E+02</totfact>
</mgrwt>
</event>
<event>
 4    1  0.6034452E-005  0.7345945E+03  0.7818608E-02  0.9659834E-01
         -2   -1    0    0    0  501 -0.00000000000E+00  0.00000000000E+00  0.12949898714E+03  0.12949898716E+03  0.25500000000E-02 0.  1.
          2   -1    0    0  501    0  0.00000000000E+00 -0.00000000000E+00 -0.10417630752E+04  0.10417630752E+04  0.25500000000E-02 0. -1.
    5000001    1    1    2    0    0 -0.22399255670E+03 -0.19667077164E+03 -0.29111622277E+03  0.45710470686E+03  0.18800000000E+03 0.  0.
   -5000001    1    1    2    0    0  0.22399255670E+03  0.19667077164E+03 -0.62114786532E+03  0.71415735553E+03  0.18800000000E+03 0.  0.
<mgrwt>
<rscale>  0 0.73459448E+03</rscale>
<asrwt>0</asrwt>
<pdfrwt beam="1">  1        2 0.14882329E+00 0.73459448E+03</pdfrwt>
<pdfrwt beam="2">  1       -2 0.18499856E-01 0.73459448E+03</pdfrwt>
<totfact> 0.65008587E+02</totfact>
</mgrwt>
</event>
<event>
 4    1  0.6034452E-005  0.5576671E+03  0.7818608E-02  0.9997347E-01
         -2   -1    0    0    0  501 -0.00000000000E+00  0.00000000000E+00  0.14014935517E+04  0.14014935517E+04  0.25500000000E-02 0. -1.
          2   -1    0    0  501    0  0.00000000000E+00 -0.00000000000E+00 -0.55475211641E+02  0.55475211700E+02  0.25500000000E-02 0.  1.
    5000001    1    1    2    0    0 -0.20495624316E+03 -0.13868770306E+02  0.63562532019E+03  0.69394736981E+03  0.18800000000E+03 0.  0.
   -5000001    1    1    2    0    0  0.20495624316E+03  0.13868770306E+02  0.71039301987E+03  0.76302139359E+03  0.18800000000E+03 0.  0.
<mgrwt>
<rscale>  0 0.55766711E+03</rscale>
<asrwt>0</asrwt>
<pdfrwt beam="1">  1        2 0.79250295E-02 0.55766711E+03</pdfrwt>
<pdfrwt beam="2">  1       -2 0.20021338E+00 0.55766711E+03</pdfrwt>
<totfact> 0.12213687E+02</totfact>
</mgrwt>
</event>
<event>
 4    1  0.6034452E-005  0.5630080E+03  0.7818608E-02  0.9985271E-01
          2   -1    0    0  501    0  0.00000000000E+00  0.00000000000E+00  0.13601099373E+03  0.13601099375E+03  0.25500000000E-02 0.  1.
         -2   -1    0    0    0  501 -0.00000000000E+00 -0.00000000000E+00 -0.58263298756E+03  0.58263298757E+03  0.25500000000E-02 0. -1.
    5000001    1    1    2    0    0  0.15152170735E+03  0.13709119421E+03 -0.16415716834E+03  0.32255914070E+03  0.18800000000E+03 0.  0.
   -5000001    1    1    2    0    0 -0.15152170735E+03 -0.13709119421E+03 -0.28246482550E+03  0.39608484063E+03  0.18800000000E+03 0.  0.
<mgrwt>
<rscale>  0 0.56300796E+03</rscale>
<asrwt>0</asrwt>
<pdfrwt beam="1">  1        2 0.19430142E-01 0.56300796E+03</pdfrwt>
<pdfrwt beam="2">  1       -2 0.83233283E-01 0.56300796E+03</pdfrwt>
<totfact> 0.37537657E+02</totfact>
</mgrwt>
</event>
<event>
 4    1  0.6034452E-005  0.5468897E+03  0.7818608E-02  0.1002216E+00
         -2   -1    0    0    0  501 -0.00000000000E+00  0.00000000000E+00  0.47275844481E+03  0.47275844482E+03  0.25500000000E-02 0.  1.
          2   -1    0    0  501    0  0.00000000000E+00 -0.00000000000E+00 -0.15816130314E+03  0.15816130316E+03  0.25500000000E-02 0. -1.
    5000001    1    1    2    0    0  0.88472906424E+02  0.14063030314E+03  0.31853945078E+02  0.25290909661E+03  0.18800000000E+03 0.  0.
   -5000001    1    1    2    0    0 -0.88472906424E+02 -0.14063030314E+03  0.28274319659E+03  0.37801065137E+03  0.18800000000E+03 0.  0.
<mgrwt>
<rscale>  0 0.54688972E+03</rscale>
<asrwt>0</asrwt>
<pdfrwt beam="1">  1        2 0.22594472E-01 0.54688972E+03</pdfrwt>
<pdfrwt beam="2">  1       -2 0.67536921E-01 0.54688972E+03</pdfrwt>
<totfact> 0.49933592E+02</totfact>
</mgrwt>
</event>
<event>
 4    1  0.6034452E-005  0.8887309E+03  0.7818608E-02  0.9439779E-01
         -2   -1    0    0    0  501 -0.00000000000E+00  0.00000000000E+00  0.21027718222E+03  0.21027718224E+03  0.25500000000E-02 0. -1.
          2   -1    0    0  501    0  0.00000000000E+00 -0.00000000000E+00 -0.93904928201E+03  0.93904928201E+03  0.25500000000E-02 0.  1.
    5000001    1    1    2    0    0 -0.32296880645E+03 -0.20487340648E+03 -0.20165226975E+03  0.47147598085E+03  0.18800000000E+03 0.  0.
   -5000001    1    1    2    0    0  0.32296880645E+03  0.20487340648E+03 -0.52711983003E+03  0.67785048339E+03  0.18800000000E+03 0.  0.
<mgrwt>
<rscale>  0 0.88873086E+03</rscale>
<asrwt>0</asrwt>
<pdfrwt beam="1">  1        2 0.13414990E+00 0.88873086E+03</pdfrwt>
<pdfrwt beam="2">  1       -2 0.30039598E-01 0.88873086E+03</pdfrwt>
<totfact> 0.31379740E+02</totfact>
</mgrwt>
</event>
<event>
 4    1  0.6034452E-005  0.4434603E+03  0.7818608E-02  0.1029690E+00
          2   -1    0    0  501    0  0.00000000000E+00  0.00000000000E+00  0.56927178830E+03  0.56927178830E+03  0.25500000000E-02 0.  1.
         -2   -1    0    0    0  501 -0.00000000000E+00 -0.00000000000E+00 -0.86363403423E+02  0.86363403460E+02  0.25500000000E-02 0. -1.
    5000001    1    1    2    0    0  0.25847918066E+02  0.65164446114E+02  0.38097606574E+03  0.43058249218E+03  0.18800000000E+03 0.  0.
   -5000001    1    1    2    0    0 -0.25847918066E+02 -0.65164446114E+02  0.10193231914E+03  0.22505269958E+03  0.18800000000E+03 0.  0.
<mgrwt>
<rscale>  0 0.44346025E+03</rscale>
<asrwt>0</asrwt>
<pdfrwt beam="1">  1        2 0.81324539E-01 0.44346025E+03</pdfrwt>
<pdfrwt beam="2">  1       -2 0.12337629E-01 0.44346025E+03</pdfrwt>
<totfact> 0.27813958E+03</totfact>
</mgrwt>
</event>
<event>
 4    1  0.6034452E-005  0.5725112E+03  0.7818608E-02  0.9964137E-01
          2   -1    0    0  501    0  0.00000000000E+00  0.00000000000E+00  0.16736361944E+04  0.16736361944E+04  0.25500000000E-02 0.  1.
         -2   -1    0    0    0  501 -0.00000000000E+00 -0.00000000000E+00 -0.48960613900E+02  0.48960613966E+02  0.25500000000E-02 0. -1.
    5000001    1    1    2    0    0 -0.12725191028E+03 -0.14587090528E+03  0.52488866189E+03  0.59018935695E+03  0.18800000000E+03 0.  0.
   -5000001    1    1    2    0    0  0.12725191028E+03  0.14587090528E+03  0.10997869186E+04  0.11324074514E+04  0.18800000000E+03 0.  0.
<mgrwt>
<rscale>  0 0.57251115E+03</rscale>
<asrwt>0</asrwt>
<pdfrwt beam="1">  1        2 0.23909083E+00 0.57251115E+03</pdfrwt>
<pdfrwt beam="2">  1       -2 0.69943749E-02 0.57251115E+03</pdfrwt>
<totfact> 0.14706122E+03</totfact>
</mgrwt>
</event>
<event>
 4    1  0.6034452E-005  0.8447809E+03  0.7818608E-02  0.9497369E-01
          2   -1    0    0  501    0  0.00000000000E+00  0.00000000000E+00  0.17153124778E+04  0.17153124778E+04  0.25500000000E-02 0.  1.
         -2   -1    0    0    0  501 -0.00000000000E+00 -0.00000000000E+00 -0.10401234516E+03  0.10401234519E+03  0.25500000000E-02 0. -1.
    5000001    1    1    2    0    0 -0.19091008720E+03  0.31419716755E+03  0.99710490640E+03  0.10792259800E+04  0.18800000000E+03 0.  0.
   -5000001    1    1    2    0    0  0.19091008720E+03 -0.31419716755E+03  0.61419522620E+03  0.74009884298E+03  0.18800000000E+03 0.  0.
<mgrwt>
<rscale>  0 0.84478086E+03</rscale>
<asrwt>0</asrwt>
<pdfrwt beam="1">  1        2 0.24504465E+00 0.84478086E+03</pdfrwt>
<pdfrwt beam="2">  1       -2 0.14858906E-01 0.84478086E+03</pdfrwt>
<totfact> 0.40421613E+02</totfact>
</mgrwt>
</event>
<event>
 4    1  0.6034452E-005  0.6049554E+03  0.7818608E-02  0.9895178E-01
          2   -1    0    0  501    0  0.00000000000E+00  0.00000000000E+00  0.63580374336E+03  0.63580374336E+03  0.25500000000E-02 0.  1.
         -2   -1    0    0    0  501 -0.00000000000E+00 -0.00000000000E+00 -0.14390093890E+03  0.14390093892E+03  0.25500000000E-02 0. -1.
    5000001    1    1    2    0    0  0.98919004526E+02 -0.18008358566E+03  0.39809015054E+03  0.48583416434E+03  0.18800000000E+03 0.  0.
   -5000001    1    1    2    0    0 -0.98919004526E+02  0.18008358566E+03  0.93812653921E+02  0.29387051795E+03  0.18800000000E+03 0.  0.
<mgrwt>
<rscale>  0 0.60495539E+03</rscale>
<asrwt>0</asrwt>
<pdfrwt beam="1">  1        2 0.90829105E-01 0.60495539E+03</pdfrwt>
<pdfrwt beam="2">  1       -2 0.20557277E-01 0.60495539E+03</pdfrwt>
<totfact> 0.10312780E+03</totfact>
</mgrwt>
</event>
<event>
 4    1  0.6034452E-005  0.6491796E+03  0.7818608E-02  0.9808320E-01
          2   -1    0    0  501    0  0.00000000000E+00  0.00000000000E+00  0.16974323290E+03  0.16974323292E+03  0.25500000000E-02 0.  1.
         -2   -1    0    0    0  501 -0.00000000000E+00 -0.00000000000E+00 -0.62069360936E+03  0.62069360936E+03  0.25500000000E-02 0. -1.
    5000001    1    1    2    0    0  0.20239346219E+03  0.17011471228E+03 -0.23838460942E+03  0.40258334650E+03  0.18800000000E+03 0.  0.
   -5000001    1    1    2    0    0 -0.20239346219E+03 -0.17011471228E+03 -0.21256576704E+03  0.38785349578E+03  0.18800000000E+03 0.  0.
<mgrwt>
<rscale>  0 0.64917961E+03</rscale>
<asrwt>0</asrwt>
<pdfrwt beam="1">  1        2 0.24249033E-01 0.64917961E+03</pdfrwt>
<pdfrwt beam="2">  1       -2 0.88670515E-01 0.64917961E+03</pdfrwt>
<totfact> 0.25087034E+02</totfact>
</mgrwt>
</event>
<event>
 4    1  0.6034452E-005  0.4118071E+03  0.7818608E-02  0.1039766E+00
         -2   -1    0    0    0  501 -0.00000000000E+00  0.00000000000E+00  0.25958797971E+02  0.25958798096E+02  0.25500000000E-02 0. -1.
          2   -1    0    0  501    0  0.00000000000E+00 -0.00000000000E+00 -0.16332138001E+04  0.16332138001E+04  0.25500000000E-02 0.  1.
    5000001    1    1    2    0    0  0.79630139647E+02 -0.21516772579E+02 -0.74013563721E+03  0.76808117547E+03  0.18800000000E+03 0.  0.
   -5000001    1    1    2    0    0 -0.79630139647E+02  0.21516772579E+02 -0.86711936491E+03  0.89109142272E+03  0.18800000000E+03 0.  0.
<mgrwt>
<rscale>  0 0.41180708E+03</rscale>
<asrwt>0</asrwt>
<pdfrwt beam="1">  1        2 0.23331619E+00 0.41180708E+03</pdfrwt>
<pdfrwt beam="2">  1       -2 0.37084008E-02 0.41180708E+03</pdfrwt>
<totfact> 0.41271168E+03</totfact>
</mgrwt>
</event>
<event>
 4    1  0.6034452E-005  0.5496952E+03  0.7818608E-02  0.1001564E+00
          2   -1    0    0  501    0  0.00000000000E+00  0.00000000000E+00  0.49720498276E+02  0.49720498341E+02  0.25500000000E-02 0.  1.
         -2   -1    0    0    0  501 -0.00000000000E+00 -0.00000000000E+00 -0.15193172191E+04  0.15193172191E+04  0.25500000000E-02 0. -1.
    5000001    1    1    2    0    0 -0.19532660968E+03 -0.40583403005E+02 -0.67787430060E+03  0.73120247843E+03  0.18800000000E+03 0.  0.
   -5000001    1    1    2    0    0  0.19532660968E+03  0.40583403005E+02 -0.79172242024E+03  0.83783523903E+03  0.18800000000E+03 0.  0.
<mgrwt>
<rscale>  0 0.54969522E+03</rscale>
<asrwt>0</asrwt>
<pdfrwt beam="1">  1        2 0.71029293E-02 0.54969522E+03</pdfrwt>
<pdfrwt beam="2">  1       -2 0.21704529E+00 0.54969522E+03</pdfrwt>
<totfact> 0.11026948E+02</totfact>
</mgrwt>
</event>
<event>
 4    1  0.6034452E-005  0.8157083E+03  0.7818608E-02  0.9537554E-01
         -2   -1    0    0    0  501 -0.00000000000E+00  0.00000000000E+00  0.23168017417E+03  0.23168017418E+03  0.25500000000E-02 0. -1.
          2   -1    0    0  501    0  0.00000000000E+00 -0.00000000000E+00 -0.71799417647E+03  0.71799417647E+03  0.25500000000E-02 0.  1.
    5000001    1    1    2    0    0 -0.33763895885E+03  0.32498185480E+02 -0.39016791923E+03  0.55011926324E+03  0.18800000000E+03 0.  0.
   -5000001    1    1    2    0    0  0.33763895885E+03 -0.32498185480E+02 -0.96146083069E+02  0.39955508742E+03  0.18800000000E+03 0.  0.
<mgrwt>
<rscale>  0 0.81570832E+03</rscale>
<asrwt>0</asrwt>
<pdfrwt beam="1">  1        2 0.10257060E+00 0.81570832E+03</pdfrwt>
<pdfrwt beam="2">  1       -2 0.33097168E-01 0.81570832E+03</pdfrwt>
<totfact> 0.37273430E+02</totfact>
</mgrwt>
</event>
<event>
 4    1  0.6034452E-005  0.1146765E+04  0.7818608E-02  0.9160773E-01
          2   -1    0    0  501    0  0.00000000000E+00  0.00000000000E+00  0.24705715252E+04  0.24705715252E+04  0.25500000000E-02 0.  1.
         -2   -1    0    0    0  501 -0.00000000000E+00 -0.00000000000E+00 -0.13307356344E+03  0.13307356347E+03  0.25500000000E-02 0. -1.
    5000001    1    1    2    0    0  0.44529017019E+03  0.58593997261E+01  0.46856634054E+03  0.67321325278E+03  0.18800000000E+03 0.  0.
   -5000001    1    1    2    0    0 -0.44529017019E+03 -0.58593997261E+01  0.18689316212E+04  0.19304318359E+04  0.18800000000E+03 0.  0.
<mgrwt>
<rscale>  0 0.11467655E+04</rscale>
<asrwt>0</asrwt>
<pdfrwt beam="1">  1        2 0.35293876E+00 0.11467655E+04</pdfrwt>
<pdfrwt beam="2">  1       -2 0.19010511E-01 0.11467655E+04</pdfrwt>
<totfact> 0.10623427E+02</totfact>
</mgrwt>
</event>
<event>
 4    1  0.6034452E-005  0.5751713E+03  0.7818608E-02  0.9958300E-01
         -2   -1    0    0    0  501 -0.00000000000E+00  0.00000000000E+00  0.69792582990E+02  0.69792583037E+02  0.25500000000E-02 0. -1.
          2   -1    0    0  501    0  0.00000000000E+00 -0.00000000000E+00 -0.11850184180E+04  0.11850184180E+04  0.25500000000E-02 0.  1.
    5000001    1    1    2    0    0  0.13419133147E+02 -0.17834738780E+03 -0.82811423375E+03  0.86781625245E+03  0.18800000000E+03 0.  0.
   -5000001    1    1    2    0    0 -0.13419133147E+02  0.17834738780E+03 -0.28711160130E+03  0.38699474863E+03  0.18800000000E+03 0.  0.
<mgrwt>
<rscale>  0 0.57517127E+03</rscale>
<asrwt>0</asrwt>
<pdfrwt beam="1">  1        2 0.16928833E+00 0.57517127E+03</pdfrwt>
<pdfrwt beam="2">  1       -2 0.99703697E-02 0.57517127E+03</pdfrwt>
<totfact> 0.15149234E+03</totfact>
</mgrwt>
</event>
<event>
 4    1  0.6034452E-005  0.5846221E+03  0.7818608E-02  0.9937834E-01
         -2   -1    0    0    0  501 -0.00000000000E+00  0.00000000000E+00  0.39976549634E+02  0.39976549716E+02  0.25500000000E-02 0. -1.
          2   -1    0    0  501    0  0.00000000000E+00 -0.00000000000E+00 -0.21373970021E+04  0.21373970021E+04  0.25500000000E-02 0.  1.
    5000001    1    1    2    0    0 -0.16424230681E+03 -0.10028067058E+03 -0.14745004074E+04  0.14988419529E+04  0.18800000000E+03 0.  0.
   -5000001    1    1    2    0    0  0.16424230681E+03  0.10028067058E+03 -0.62292004509E+03  0.67853159898E+03  0.18800000000E+03 0.  0.
<mgrwt>
<rscale>  0 0.58462213E+03</rscale>
<asrwt>0</asrwt>
<pdfrwt beam="1">  1        2 0.30534236E+00 0.58462213E+03</pdfrwt>
<pdfrwt beam="2">  1       -2 0.57109370E-02 0.58462213E+03</pdfrwt>
<totfact> 0.11802450E+03</totfact>
</mgrwt>
</event>
<event>
 4    1  0.6034452E-005  0.4678763E+03  0.7818608E-02  0.1022521E+00
          2   -1    0    0  501    0  0.00000000000E+00  0.00000000000E+00  0.95510255892E+03  0.95510255892E+03  0.25500000000E-02 0.  1.
         -2   -1    0    0    0  501 -0.00000000000E+00 -0.00000000000E+00 -0.57299657713E+02  0.57299657770E+02  0.25500000000E-02 0. -1.
    5000001    1    1    2    0    0 -0.50386005471E+02 -0.11035947286E+03  0.59669379704E+03  0.63726403494E+03  0.18800000000E+03 0.  0.
   -5000001    1    1    2    0    0  0.50386005471E+02  0.11035947286E+03  0.30110910416E+03  0.37513818175E+03  0.18800000000E+03 0.  0.
<mgrwt>
<rscale>  0 0.46787626E+03</rscale>
<asrwt>0</asrwt>
<pdfrwt beam="1">  1        2 0.13644321E+00 0.46787626E+03</pdfrwt>
<pdfrwt beam="2">  1       -2 0.81856664E-02 0.46787626E+03</pdfrwt>
<totfact> 0.28391093E+03</totfact>
</mgrwt>
</event>
<event>
 4    1  0.6034452E-005  0.5018002E+03  0.7818608E-02  0.1013310E+00
         -2   -1    0    0    0  501 -0.00000000000E+00  0.00000000000E+00  0.11692697752E+03  0.11692697754E+03  0.25500000000E-02 0. -1.
          2   -1    0    0  501    0  0.00000000000E+00 -0.00000000000E+00 -0.53837752215E+03  0.53837752216E+03  0.25500000000E-02 0.  1.
    5000001    1    1    2    0    0 -0.11027181805E+03  0.11573586014E+03 -0.26988435909E+03  0.36569964515E+03  0.18800000000E+03 0.  0.
   -5000001    1    1    2    0    0  0.11027181805E+03 -0.11573586014E+03 -0.15156618555E+03  0.28960485455E+03  0.18800000000E+03 0.  0.
<mgrwt>
<rscale>  0 0.50180019E+03</rscale>
<asrwt>0</asrwt>
<pdfrwt beam="1">  1        2 0.76911073E-01 0.50180019E+03</pdfrwt>
<pdfrwt beam="2">  1       -2 0.16703854E-01 0.50180019E+03</pdfrwt>
<totfact> 0.17911842E+03</totfact>
</mgrwt>
</event>
<event>
 4    1  0.6034452E-005  0.5988893E+03  0.7818608E-02  0.9907713E-01
          2   -1    0    0  501    0  0.00000000000E+00  0.00000000000E+00  0.15204347825E+04  0.15204347825E+04  0.25500000000E-02 0.  1.
         -2   -1    0    0    0  501 -0.00000000000E+00 -0.00000000000E+00 -0.58974641354E+02  0.58974641409E+02  0.25500000000E-02 0. -1.
    5000001    1    1    2    0    0  0.20686599181E+03 -0.39917902720E+02  0.46785066838E+03  0.54645697492E+03  0.18800000000E+03 0.  0.
   -5000001    1    1    2    0    0 -0.20686599181E+03  0.39917902720E+02  0.99360947276E+03  0.10329524490E+04  0.18800000000E+03 0.  0.
<mgrwt>
<rscale>  0 0.59888929E+03</rscale>
<asrwt>0</asrwt>
<pdfrwt beam="1">  1        2 0.21720496E+00 0.59888929E+03</pdfrwt>
<pdfrwt beam="2">  1       -2 0.84249491E-02 0.59888929E+03</pdfrwt>
<totfact> 0.13103446E+03</totfact>
</mgrwt>
</event>
<event>
 4    1  0.6034452E-005  0.7287548E+03  0.7818608E-02  0.9669283E-01
          2   -1    0    0  501    0  0.00000000000E+00  0.00000000000E+00  0.36914856539E+03  0.36914856540E+03  0.25500000000E-02 0.  1.
         -2   -1    0    0    0  501 -0.00000000000E+00 -0.00000000000E+00 -0.35966792499E+03  0.35966792500E+03  0.25500000000E-02 0. -1.
    5000001    1    1    2    0    0 -0.28543038601E+03  0.55743261696E+02  0.11810370352E+03  0.36588290650E+03  0.18800000000E+03 0.  0.
   -5000001    1    1    2    0    0  0.28543038601E+03 -0.55743261696E+02 -0.10862306312E+03  0.36293358390E+03  0.18800000000E+03 0.  0.
<mgrwt>
<rscale>  0 0.72875482E+03</rscale>
<asrwt>0</asrwt>
<pdfrwt beam="1">  1        2 0.52735509E-01 0.72875482E+03</pdfrwt>
<pdfrwt beam="2">  1       -2 0.51381132E-01 0.72875482E+03</pdfrwt>
<totfact> 0.34132197E+02</totfact>
</mgrwt>
</event>
<event>
 4    1  0.6034452E-005  0.5081487E+03  0.7818608E-02  0.1011674E+00
         -2   -1    0    0    0  501 -0.00000000000E+00  0.00000000000E+00  0.15045788548E+03  0.15045788551E+03  0.25500000000E-02 0. -1.
          2   -1    0    0  501    0  0.00000000000E+00 -0.00000000000E+00 -0.42904873982E+03  0.42904873983E+03  0.25500000000E-02 0.  1.
    5000001    1    1    2    0    0 -0.11846201485E+03 -0.13742850437E+02  0.32032074941E+00  0.22263471766E+03  0.18800000000E+03 0.  0.
   -5000001    1    1    2    0    0  0.11846201485E+03  0.13742850437E+02 -0.27891117508E+03  0.35687190768E+03  0.18800000000E+03 0.  0.
<mgrwt>
<rscale>  0 0.50814866E+03</rscale>
<asrwt>0</asrwt>
<pdfrwt beam="1">  1        2 0.61292677E-01 0.50814866E+03</pdfrwt>
<pdfrwt beam="2">  1       -2 0.21493984E-01 0.50814866E+03</pdfrwt>
<totfact> 0.14978217E+03</totfact>
</mgrwt>
</event>
<event>
 4    1  0.6034452E-005  0.6139811E+03  0.7818608E-02  0.9876817E-01
          2   -1    0    0  501    0  0.00000000000E+00  0.00000000000E+00  0.61694245265E+03  0.61694245266E+03  0.25500000000E-02 0.  1.
         -2   -1    0    0    0  501 -0.00000000000E+00 -0.00000000000E+00 -0.15275848974E+03  0.15275848976E+03  0.25500000000E-02 0. -1.
    5000001    1    1    2    0    0  0.19923798951E+03 -0.11889999030E+03  0.14286242240E+03  0.33103875285E+03  0.18800000000E+03 0.  0.
   -5000001    1    1    2    0    0 -0.19923798951E+03  0.11889999030E+03  0.32132154051E+03  0.43866218956E+03  0.18800000000E+03 0.  0.
<mgrwt>
<rscale>  0 0.61398110E+03</rscale>
<asrwt>0</asrwt>
<pdfrwt beam="1">  1        2 0.88134638E-01 0.61398110E+03</pdfrwt>
<pdfrwt beam="2">  1       -2 0.21822641E-01 0.61398110E+03</pdfrwt>
<totfact> 0.96233736E+02</totfact>
</mgrwt>
</event>
<event>
 4    1  0.6034452E-005  0.4284176E+03  0.7818608E-02  0.1034361E+00
          2   -1    0    0  501    0  0.00000000000E+00  0.00000000000E+00  0.28295676130E+04  0.28295676130E+04  0.25500000000E-02 0.  1.
         -2   -1    0    0    0  501 -0.00000000000E+00 -0.00000000000E+00 -0.16216404423E+02  0.16216404623E+02  0.25500000000E-02 0. -1.
    5000001    1    1    2    0    0  0.93688277533E+02 -0.35478422923E+02  0.15559780098E+04  0.15704928458E+04  0.18800000000E+03 0.  0.
   -5000001    1    1    2    0    0 -0.93688277533E+02  0.35478422923E+02  0.12573731988E+04  0.12752911718E+04  0.18800000000E+03 0.  0.
<mgrwt>
<rscale>  0 0.42841761E+03</rscale>
<asrwt>0</asrwt>
<pdfrwt beam="1">  1        2 0.40422399E+00 0.42841761E+03</pdfrwt>
<pdfrwt beam="2">  1       -2 0.23166290E-02 0.42841761E+03</pdfrwt>
<totfact> 0.20920318E+03</totfact>
</mgrwt>
</event>
<event>
 4    1  0.6034452E-005  0.6144152E+03  0.7818608E-02  0.9875942E-01
          2   -1    0    0  501    0  0.00000000000E+00  0.00000000000E+00  0.25631763374E+03  0.25631763375E+03  0.25500000000E-02 0.  1.
         -2   -1    0    0    0  501 -0.00000000000E+00 -0.00000000000E+00 -0.36820135834E+03  0.36820135835E+03  0.25500000000E-02 0. -1.
    5000001    1    1    2    0    0  0.12097299260E+03  0.17738234080E+03 -0.17153776567E+03  0.33296871448E+03  0.18800000000E+03 0.  0.
   -5000001    1    1    2    0    0 -0.12097299260E+03 -0.17738234080E+03  0.59654041074E+02  0.29155027763E+03  0.18800000000E+03 0.  0.
<mgrwt>
<rscale>  0 0.61441517E+03</rscale>
<asrwt>0</asrwt>
<pdfrwt beam="1">  1        2 0.36616805E-01 0.61441517E+03</pdfrwt>
<pdfrwt beam="2">  1       -2 0.52600194E-01 0.61441517E+03</pdfrwt>
<totfact> 0.48880458E+02</totfact>
</mgrwt>
</event>
<event>
 4    1  0.6034452E-005  0.5666595E+03  0.7818608E-02  0.9977098E-01
          2   -1    0    0  501    0  0.00000000000E+00  0.00000000000E+00  0.56948833176E+03  0.56948833177E+03  0.25500000000E-02 0.  1.
         -2   -1    0    0    0  501 -0.00000000000E+00 -0.00000000000E+00 -0.14096119667E+03  0.14096119669E+03  0.25500000000E-02 0. -1.
    5000001    1    1    2    0    0 -0.78871743355E+02 -0.27194786081E+02 -0.30045514856E+02  0.20786303484E+03  0.18800000000E+03 0.  0.
   -5000001    1    1    2    0    0  0.78871743355E+02  0.27194786081E+02  0.45857264995E+03  0.50258649362E+03  0.18800000000E+03 0.  0.
<mgrwt>
<rscale>  0 0.56665953E+03</rscale>
<asrwt>0</asrwt>
<pdfrwt beam="1">  1        2 0.81355476E-01 0.56665953E+03</pdfrwt>
<pdfrwt beam="2">  1       -2 0.20137314E-01 0.56665953E+03</pdfrwt>
<totfact> 0.12175243E+03</totfact>
</mgrwt>
</event>
<event>
 4    1  0.6034452E-005  0.5312491E+03  0.7818608E-02  0.1005930E+00
          2   -1    0    0  501    0  0.00000000000E+00  0.00000000000E+00  0.59759776059E+02  0.59759776114E+02  0.25500000000E-02 0.  1.
         -2   -1    0    0    0  501 -0.00000000000E+00 -0.00000000000E+00 -0.11806672207E+04  0.11806672207E+04  0.25500000000E-02 0. -1.
    5000001    1    1    2    0    0 -0.13089637755E+03  0.46885977379E+02 -0.85469369941E+03  0.88610240737E+03  0.18800000000E+03 0.  0.
   -5000001    1    1    2    0    0  0.13089637755E+03 -0.46885977379E+02 -0.26621374518E+03  0.35432458940E+03  0.18800000000E+03 0.  0.
<mgrwt>
<rscale>  0 0.53124913E+03</rscale>
<asrwt>0</asrwt>
<pdfrwt beam="1">  1        2 0.85371116E-02 0.53124913E+03</pdfrwt>
<pdfrwt beam="2">  1       -2 0.16866673E+00 0.53124913E+03</pdfrwt>
<totfact> 0.18103359E+02</totfact>
</mgrwt>
</event>
<event>
 4    1  0.6034452E-005  0.7745008E+03  0.7818608E-02  0.9597678E-01
          2   -1    0    0  501    0  0.00000000000E+00  0.00000000000E+00  0.83701655498E+03  0.83701655499E+03  0.25500000000E-02 0.  1.
         -2   -1    0    0    0  501 -0.00000000000E+00 -0.00000000000E+00 -0.17916356585E+03  0.17916356587E+03  0.25500000000E-02 0. -1.
    5000001    1    1    2    0    0 -0.11801410693E+03  0.31678757309E+03  0.35301868955E+03  0.52368682537E+03  0.18800000000E+03 0.  0.
   -5000001    1    1    2    0    0  0.11801410693E+03 -0.31678757309E+03  0.30483429958E+03  0.49249329548E+03  0.18800000000E+03 0.  0.
<mgrwt>
<rscale>  0 0.77450080E+03</rscale>
<asrwt>0</asrwt>
<pdfrwt beam="1">  1        2 0.11957379E+00 0.77450080E+03</pdfrwt>
<pdfrwt beam="2">  1       -2 0.25594796E-01 0.77450080E+03</pdfrwt>
<totfact> 0.49353009E+02</totfact>
</mgrwt>
</event>
<event>
 4    1  0.6034452E-005  0.5369666E+03  0.7818608E-02  0.1004556E+00
          2   -1    0    0  501    0  0.00000000000E+00  0.00000000000E+00  0.25216163553E+04  0.25216163553E+04  0.25500000000E-02 0.  1.
         -2   -1    0    0    0  501 -0.00000000000E+00 -0.00000000000E+00 -0.28586139481E+02  0.28586139594E+02  0.25500000000E-02 0. -1.
    5000001    1    1    2    0    0 -0.12361938198E+03  0.11438858109E+03  0.16810875628E+04  0.16999311436E+04  0.18800000000E+03 0.  0.
   -5000001    1    1    2    0    0  0.12361938198E+03 -0.11438858109E+03  0.81194265295E+03  0.85027135126E+03  0.18800000000E+03 0.  0.
<mgrwt>
<rscale>  0 0.53696658E+03</rscale>
<asrwt>0</asrwt>
<pdfrwt beam="1">  1        2 0.36023070E+00 0.53696658E+03</pdfrwt>
<pdfrwt beam="2">  1       -2 0.40837365E-02 0.53696658E+03</pdfrwt>
<totfact> 0.12708071E+03</totfact>
</mgrwt>
</event>
<event>
 4    1  0.6034452E-005  0.7782105E+03  0.7818608E-02  0.9592103E-01
         -2   -1    0    0    0  501 -0.00000000000E+00  0.00000000000E+00  0.10417373590E+03  0.10417373594E+03  0.25500000000E-02 0. -1.
          2   -1    0    0  501    0  0.00000000000E+00 -0.00000000000E+00 -0.14533692395E+04  0.14533692395E+04  0.25500000000E-02 0.  1.
    5000001    1    1    2    0    0  0.91351690154E+02  0.24783266895E+03 -0.24397260656E+03  0.40574967140E+03  0.18800000000E+03 0.  0.
   -5000001    1    1    2    0    0 -0.91351690154E+02 -0.24783266895E+03 -0.11052228971E+04  0.11517933041E+04  0.18800000000E+03 0.  0.
<mgrwt>
<rscale>  0 0.77821052E+03</rscale>
<asrwt>0</asrwt>
<pdfrwt beam="1">  1        2 0.20762416E+00 0.77821052E+03</pdfrwt>
<pdfrwt beam="2">  1       -2 0.14881963E-01 0.77821052E+03</pdfrwt>
<totfact> 0.55393067E+02</totfact>
</mgrwt>
</event>
<event>
 4    1  0.6034452E-005  0.1070702E+04  0.7818608E-02  0.9234227E-01
         -2   -1    0    0    0  501 -0.00000000000E+00  0.00000000000E+00  0.61160101727E+02  0.61160101780E+02  0.25500000000E-02 0. -1.
          2   -1    0    0  501    0  0.00000000000E+00 -0.00000000000E+00 -0.46860764181E+04  0.46860764181E+04  0.25500000000E-02 0.  1.
    5000001    1    1    2    0    0 -0.49229722535E+03 -0.21348816521E+02 -0.27198957829E+04  0.27705575973E+04  0.18800000000E+03 0.  0.
   -5000001    1    1    2    0    0  0.49229722535E+03  0.21348816521E+02 -0.19050205334E+04  0.19766789225E+04  0.18800000000E+03 0.  0.
<mgrwt>
<rscale>  0 0.10707024E+04</rscale>
<asrwt>0</asrwt>
<pdfrwt beam="1">  1        2 0.66943926E+00 0.10707024E+04</pdfrwt>
<pdfrwt beam="2">  1       -2 0.87371604E-02 0.10707024E+04</pdfrwt>
<totfact> 0.15488138E+01</totfact>
</mgrwt>
</event>
<event>
 4    1  0.6034452E-005  0.5304812E+03  0.7818608E-02  0.1006115E+00
          2   -1    0    0  501    0  0.00000000000E+00  0.00000000000E+00  0.34448860440E+03  0.34448860441E+03  0.25500000000E-02 0.  1.
         -2   -1    0    0    0  501 -0.00000000000E+00 -0.00000000000E+00 -0.20422322481E+03  0.20422322483E+03  0.25500000000E-02 0. -1.
    5000001    1    1    2    0    0 -0.83676693068E+02  0.16734119462E+03  0.72124839816E+02  0.27486516130E+03  0.18800000000E+03 0.  0.
   -5000001    1    1    2    0    0  0.83676693068E+02 -0.16734119462E+03  0.68140539768E+02  0.27384666794E+03  0.18800000000E+03 0.  0.
<mgrwt>
<rscale>  0 0.53048119E+03</rscale>
<asrwt>0</asrwt>
<pdfrwt beam="1">  1        2 0.49212658E-01 0.53048119E+03</pdfrwt>
<pdfrwt beam="2">  1       -2 0.29174746E-01 0.53048119E+03</pdfrwt>
<totfact> 0.11043640E+03</totfact>
</mgrwt>
</event>
<event>
 4    1  0.6034452E-005  0.5298526E+03  0.7818608E-02  0.1006268E+00
          2   -1    0    0  501    0  0.00000000000E+00  0.00000000000E+00  0.63499462008E+03  0.63499462009E+03  0.25500000000E-02 0.  1.
         -2   -1    0    0    0  501 -0.00000000000E+00 -0.00000000000E+00 -0.11052999112E+03  0.11052999115E+03  0.25500000000E-02 0. -1.
    5000001    1    1    2    0    0 -0.15159206945E+03  0.78261213139E+02  0.36880562163E+03  0.44773492107E+03  0.18800000000E+03 0.  0.
   -5000001    1    1    2    0    0  0.15159206945E+03 -0.78261213139E+02  0.15565900734E+03  0.29778969016E+03  0.18800000000E+03 0.  0.
<mgrwt>
<rscale>  0 0.52985262E+03</rscale>
<asrwt>0</asrwt>
<pdfrwt beam="1">  1        2 0.90713518E-01 0.52985262E+03</pdfrwt>
<pdfrwt beam="2">  1       -2 0.15789999E-01 0.52985262E+03</pdfrwt>
<totfact> 0.16256674E+03</totfact>
</mgrwt>
</event>
<event>
 4    1  0.6034452E-005  0.4329010E+03  0.7818608E-02  0.1032947E+00
         -2   -1    0    0    0  501 -0.00000000000E+00  0.00000000000E+00  0.23470951772E+02  0.23470951910E+02  0.25500000000E-02 0. -1.
          2   -1    0    0  501    0  0.00000000000E+00 -0.00000000000E+00 -0.19961196223E+04  0.19961196223E+04  0.25500000000E-02 0.  1.
    5000001    1    1    2    0    0 -0.65070654006E+02  0.79928338879E+02 -0.11250398217E+04  0.11452865710E+04  0.18800000000E+03 0.  0.
   -5000001    1    1    2    0    0  0.65070654006E+02 -0.79928338879E+02 -0.84760884885E+03  0.87430400320E+03  0.18800000000E+03 0.  0.
<mgrwt>
<rscale>  0 0.43290104E+03</rscale>
<asrwt>0</asrwt>
<pdfrwt beam="1">  1        2 0.28515984E+00 0.43290104E+03</pdfrwt>
<pdfrwt beam="2">  1       -2 0.33529944E-02 0.43290104E+03</pdfrwt>
<totfact> 0.31679490E+03</totfact>
</mgrwt>
</event>
<event>
 4    1  0.6034452E-005  0.6284160E+03  0.7818608E-02  0.9848145E-01
          2   -1    0    0  501    0  0.00000000000E+00  0.00000000000E+00  0.20181087720E+03  0.20181087722E+03  0.25500000000E-02 0.  1.
         -2   -1    0    0    0  501 -0.00000000000E+00 -0.00000000000E+00 -0.48920386101E+03  0.48920386102E+03  0.25500000000E-02 0. -1.
    5000001    1    1    2    0    0  0.13583738266E+03  0.19343429337E+03 -0.23901491333E+03  0.38515029427E+03  0.18800000000E+03 0.  0.
   -5000001    1    1    2    0    0 -0.13583738266E+03 -0.19343429337E+03 -0.48378070481E+02  0.30586444397E+03  0.18800000000E+03 0.  0.
<mgrwt>
<rscale>  0 0.62841598E+03</rscale>
<asrwt>0</asrwt>
<pdfrwt beam="1">  1        2 0.28830126E-01 0.62841598E+03</pdfrwt>
<pdfrwt beam="2">  1       -2 0.69886265E-01 0.62841598E+03</pdfrwt>
<totfact> 0.35067860E+02</totfact>
</mgrwt>
</event>
<event>
 4    1  0.6034452E-005  0.5722631E+03  0.7818608E-02  0.9964683E-01
          2   -1    0    0  501    0  0.00000000000E+00  0.00000000000E+00  0.26243771272E+04  0.26243771272E+04  0.25500000000E-02 0.  1.
         -2   -1    0    0    0  501 -0.00000000000E+00 -0.00000000000E+00 -0.31196458137E+02  0.31196458242E+02  0.25500000000E-02 0. -1.
    5000001    1    1    2    0    0 -0.19850087153E+03  0.78537935240E+00  0.90491491603E+03  0.94531381989E+03  0.18800000000E+03 0.  0.
   -5000001    1    1    2    0    0  0.19850087153E+03 -0.78537935240E+00  0.16882657531E+04  0.17102597656E+04  0.18800000000E+03 0.  0.
<mgrwt>
<rscale>  0 0.57226313E+03</rscale>
<asrwt>0</asrwt>
<pdfrwt beam="1">  1        2 0.37491100E+00 0.57226313E+03</pdfrwt>
<pdfrwt beam="2">  1       -2 0.44566371E-02 0.57226313E+03</pdfrwt>
<totfact> 0.98092870E+02</totfact>
</mgrwt>
</event>
<event>
 4    1  0.6034452E-005  0.7076157E+03  0.7818608E-02  0.9704296E-01
          2   -1    0    0  501    0  0.00000000000E+00  0.00000000000E+00  0.74175490695E+03  0.74175490696E+03  0.25500000000E-02 0.  1.
         -2   -1    0    0    0  501 -0.00000000000E+00 -0.00000000000E+00 -0.16876192804E+03  0.16876192806E+03  0.25500000000E-02 0. -1.
    5000001    1    1    2    0    0 -0.20424519829E+03  0.43632455808E+02  0.56311877141E+03  0.62933825796E+03  0.18800000000E+03 0.  0.
   -5000001    1    1    2    0    0  0.20424519829E+03 -0.43632455808E+02  0.98742075006E+01  0.28117857706E+03  0.18800000000E+03 0.  0.
<mgrwt>
<rscale>  0 0.70761568E+03</rscale>
<asrwt>0</asrwt>
<pdfrwt beam="1">  1        2 0.10596499E+00 0.70761568E+03</pdfrwt>
<pdfrwt beam="2">  1       -2 0.24108847E-01 0.70761568E+03</pdfrwt>
<totfact> 0.64295909E+02</totfact>
</mgrwt>
</event>
<event>
 4    1  0.6034452E-005  0.5766133E+03  0.7818608E-02  0.9955150E-01
          2   -1    0    0  501    0  0.00000000000E+00  0.00000000000E+00  0.67737078303E+03  0.67737078303E+03  0.25500000000E-02 0.  1.
         -2   -1    0    0    0  501 -0.00000000000E+00 -0.00000000000E+00 -0.12271080654E+03  0.12271080657E+03  0.25500000000E-02 0. -1.
    5000001    1    1    2    0    0  0.11957741467E+03 -0.17745761265E+03  0.33917740376E+03  0.44291677955E+03  0.18800000000E+03 0.  0.
   -5000001    1    1    2    0    0 -0.11957741467E+03  0.17745761265E+03  0.21548257273E+03  0.35716481005E+03  0.18800000000E+03 0.  0.
<mgrwt>
<rscale>  0 0.57661327E+03</rscale>
<asrwt>0</asrwt>
<pdfrwt beam="1">  1        2 0.96767255E-01 0.57661327E+03</pdfrwt>
<pdfrwt beam="2">  1       -2 0.17530115E-01 0.57661327E+03</pdfrwt>
<totfact> 0.12592798E+03</totfact>
</mgrwt>
</event>
<event>
 4    1  0.6034452E-005  0.4204762E+03  0.7818608E-02  0.1036911E+00
          2   -1    0    0  501    0  0.00000000000E+00  0.00000000000E+00  0.89623899887E+03  0.89623899887E+03  0.25500000000E-02 0.  1.
         -2   -1    0    0    0  501 -0.00000000000E+00 -0.00000000000E+00 -0.49317262493E+02  0.49317262559E+02  0.25500000000E-02 0. -1.
    5000001    1    1    2    0    0  0.74370155463E+02 -0.45336293138E+02  0.50359284545E+03  0.54455124046E+03  0.18800000000E+03 0.  0.
   -5000001    1    1    2    0    0 -0.74370155463E+02  0.45336293138E+02  0.34332889093E+03  0.40100502098E+03  0.18800000000E+03 0.  0.
<mgrwt>
<rscale>  0 0.42047618E+03</rscale>
<asrwt>0</asrwt>
<pdfrwt beam="1">  1        2 0.12803414E+00 0.42047618E+03</pdfrwt>
<pdfrwt beam="2">  1       -2 0.70453236E-02 0.42047618E+03</pdfrwt>
<totfact> 0.39134584E+03</totfact>
</mgrwt>
</event>
<event>
 4    1  0.6034452E-005  0.7931392E+03  0.7818608E-02  0.9570001E-01
         -2   -1    0    0    0  501 -0.00000000000E+00  0.00000000000E+00  0.93096818108E+02  0.93096818143E+02  0.25500000000E-02 0. -1.
          2   -1    0    0  501    0  0.00000000000E+00 -0.00000000000E+00 -0.16892893032E+04  0.16892893032E+04  0.25500000000E-02 0.  1.
    5000001    1    1    2    0    0 -0.29392490433E+03  0.18144502674E+03 -0.68330325473E+03  0.78839170787E+03  0.18800000000E+03 0.  0.
   -5000001    1    1    2    0    0  0.29392490433E+03 -0.18144502674E+03 -0.91288923038E+03  0.99399441349E+03  0.18800000000E+03 0.  0.
<mgrwt>
<rscale>  0 0.79313923E+03</rscale>
<asrwt>0</asrwt>
<pdfrwt beam="1">  1        2 0.24132702E+00 0.79313923E+03</pdfrwt>
<pdfrwt beam="2">  1       -2 0.13299546E-01 0.79313923E+03</pdfrwt>
<totfact> 0.50379144E+02</totfact>
</mgrwt>
</event>
<event>
 4    1  0.6034452E-005  0.4919164E+03  0.7818608E-02  0.1015911E+00
         -2   -1    0    0    0  501 -0.00000000000E+00  0.00000000000E+00  0.78733100123E+02  0.78733100164E+02  0.25500000000E-02 0. -1.
          2   -1    0    0  501    0  0.00000000000E+00 -0.00000000000E+00 -0.76836096853E+03  0.76836096854E+03  0.25500000000E-02 0.  1.
    5000001    1    1    2    0    0 -0.10656995575E+03  0.10712447061E+03 -0.26189449307E+03  0.35604147676E+03  0.18800000000E+03 0.  0.
   -5000001    1    1    2    0    0  0.10656995575E+03 -0.10712447061E+03 -0.42773337534E+03  0.49105259194E+03  0.18800000000E+03 0.  0.
<mgrwt>
<rscale>  0 0.49191642E+03</rscale>
<asrwt>0</asrwt>
<pdfrwt beam="1">  1        2 0.10976585E+00 0.49191642E+03</pdfrwt>
<pdfrwt beam="2">  1       -2 0.11247586E-01 0.49191642E+03</pdfrwt>
<totfact> 0.22617139E+03</totfact>
</mgrwt>
</event>
<event>
 4    1  0.6034452E-005  0.7334157E+03  0.7818608E-02  0.9661734E-01
         -2   -1    0    0    0  501 -0.00000000000E+00  0.00000000000E+00  0.71884545427E+03  0.71884545428E+03  0.25500000000E-02 0. -1.
          2   -1    0    0  501    0  0.00000000000E+00 -0.00000000000E+00 -0.18707029327E+03  0.18707029329E+03  0.25500000000E-02 0.  1.
    5000001    1    1    2    0    0  0.14160784349E+03  0.23056154285E+03  0.67027034073E+02  0.33622615852E+03  0.18800000000E+03 0.  0.
   -5000001    1    1    2    0    0 -0.14160784349E+03 -0.23056154285E+03  0.46474812693E+03  0.56968958904E+03  0.18800000000E+03 0.  0.
<mgrwt>
<rscale>  0 0.73341565E+03</rscale>
<asrwt>0</asrwt>
<pdfrwt beam="1">  1        2 0.26724327E-01 0.73341565E+03</pdfrwt>
<pdfrwt beam="2">  1       -2 0.10269221E+00 0.73341565E+03</pdfrwt>
<totfact> 0.15885473E+02</totfact>
</mgrwt>
</event>
<event>
 4    1  0.6034452E-005  0.4294871E+03  0.7818608E-02  0.1034022E+00
          2   -1    0    0  501    0  0.00000000000E+00  0.00000000000E+00  0.85105268110E+03  0.85105268110E+03  0.25500000000E-02 0.  1.
         -2   -1    0    0    0  501 -0.00000000000E+00 -0.00000000000E+00 -0.54185601790E+02  0.54185601850E+02  0.25500000000E-02 0. -1.
    5000001    1    1    2    0    0  0.87070243467E+02  0.47322900039E+01  0.27981594690E+03  0.34820193280E+03  0.18800000000E+03 0.  0.
   -5000001    1    1    2    0    0 -0.87070243467E+02 -0.47322900039E+01  0.51705113240E+03  0.55703635015E+03  0.18800000000E+03 0.  0.
<mgrwt>
<rscale>  0 0.42948714E+03</rscale>
<asrwt>0</asrwt>
<pdfrwt beam="1">  1        2 0.12157894E+00 0.42948714E+03</pdfrwt>
<pdfrwt beam="2">  1       -2 0.77408010E-02 0.42948714E+03</pdfrwt>
<totfact> 0.36113502E+03</totfact>
</mgrwt>
</event>
<event>
 4    1  0.6034452E-005  0.6161294E+03  0.7818608E-02  0.9872496E-01
          2   -1    0    0  501    0  0.00000000000E+00  0.00000000000E+00  0.15460003092E+04  0.15460003092E+04  0.25500000000E-02 0.  1.
         -2   -1    0    0    0  501 -0.00000000000E+00 -0.00000000000E+00 -0.61386694786E+02  0.61386694839E+02  0.25500000000E-02 0. -1.
    5000001    1    1    2    0    0 -0.22626594170E+03  0.61124110360E+02  0.91977389050E+03  0.96760552028E+03  0.18800000000E+03 0.  0.
   -5000001    1    1    2    0    0  0.22626594170E+03 -0.61124110360E+02  0.56483972389E+03  0.63978148373E+03  0.18800000000E+03 0.  0.
<mgrwt>
<rscale>  0 0.61612937E+03</rscale>
<asrwt>0</asrwt>
<pdfrwt beam="1">  1        2 0.22085719E+00 0.61612937E+03</pdfrwt>
<pdfrwt beam="2">  1       -2 0.87695275E-02 0.61612937E+03</pdfrwt>
<totfact> 0.11910848E+03</totfact>
</mgrwt>
</event>
<event>
 4    1  0.6034452E-005  0.8181271E+03  0.7818608E-02  0.9534143E-01
         -2   -1    0    0    0  501 -0.00000000000E+00  0.00000000000E+00  0.18995537238E+03  0.18995537239E+03  0.25500000000E-02 0. -1.
          2   -1    0    0  501    0  0.00000000000E+00 -0.00000000000E+00 -0.88090680300E+03  0.88090680300E+03  0.25500000000E-02 0.  1.
    5000001    1    1    2    0    0 -0.20179419247E+03  0.13707003906E+03  0.69126554819E+01  0.30805985867E+03  0.18800000000E+03 0.  0.
   -5000001    1    1    2    0    0  0.20179419247E+03 -0.13707003906E+03 -0.69786408610E+03  0.76280231672E+03  0.18800000000E+03 0.  0.
<mgrwt>
<rscale>  0 0.81812708E+03</rscale>
<asrwt>0</asrwt>
<pdfrwt beam="1">  1        2 0.12584383E+00 0.81812708E+03</pdfrwt>
<pdfrwt beam="2">  1       -2 0.27136482E-01 0.81812708E+03</pdfrwt>
<totfact> 0.41401914E+02</totfact>
</mgrwt>
</event>
<event>
 4    1  0.6034452E-005  0.5760017E+03  0.7818608E-02  0.9956485E-01
         -2   -1    0    0    0  501 -0.00000000000E+00  0.00000000000E+00  0.16484876337E+03  0.16484876339E+03  0.25500000000E-02 0. -1.
          2   -1    0    0  501    0  0.00000000000E+00 -0.00000000000E+00 -0.50315514376E+03  0.50315514377E+03  0.25500000000E-02 0.  1.
    5000001    1    1    2    0    0 -0.14445354467E+03 -0.91141204226E+02 -0.32658120525E+03  0.41373038237E+03  0.18800000000E+03 0.  0.
   -5000001    1    1    2    0    0  0.14445354467E+03  0.91141204226E+02 -0.11725175145E+02  0.25427352478E+03  0.18800000000E+03 0.  0.
<mgrwt>
<rscale>  0 0.57600175E+03</rscale>
<asrwt>0</asrwt>
<pdfrwt beam="1">  1        2 0.71879306E-01 0.57600175E+03</pdfrwt>
<pdfrwt beam="2">  1       -2 0.23549824E-01 0.57600175E+03</pdfrwt>
<totfact> 0.10656740E+03</totfact>
</mgrwt>
</event>
<event>
 4    1  0.6034452E-005  0.5546558E+03  0.7818608E-02  0.1000422E+00
         -2   -1    0    0    0  501 -0.00000000000E+00  0.00000000000E+00  0.28227879644E+03  0.28227879645E+03  0.25500000000E-02 0. -1.
          2   -1    0    0  501    0  0.00000000000E+00 -0.00000000000E+00 -0.27246381160E+03  0.27246381162E+03  0.25500000000E-02 0.  1.
    5000001    1    1    2    0    0 -0.32110231411E+02 -0.16270377806E+03  0.12351429719E+03  0.27946979795E+03  0.18800000000E+03 0.  0.
   -5000001    1    1    2    0    0  0.32110231411E+02  0.16270377806E+03 -0.11369931235E+03  0.27527281011E+03  0.18800000000E+03 0.  0.
<mgrwt>
<rscale>  0 0.55465577E+03</rscale>
<asrwt>0</asrwt>
<pdfrwt beam="1">  1        2 0.38923402E-01 0.55465577E+03</pdfrwt>
<pdfrwt beam="2">  1       -2 0.40325542E-01 0.55465577E+03</pdfrwt>
<totfact> 0.77644191E+02</totfact>
</mgrwt>
</event>
<event>
 4    1  0.6034452E-005  0.5114377E+03  0.7818608E-02  0.1010836E+00
         -2   -1    0    0    0  501 -0.00000000000E+00  0.00000000000E+00  0.41755391795E+02  0.41755391873E+02  0.25500000000E-02 0. -1.
          2   -1    0    0  501    0  0.00000000000E+00 -0.00000000000E+00 -0.15660763735E+04  0.15660763735E+04  0.25500000000E-02 0.  1.
    5000001    1    1    2    0    0  0.34387670216E+02  0.15323883077E+03 -0.99282430597E+03  0.10225990190E+04  0.18800000000E+03 0.  0.
   -5000001    1    1    2    0    0 -0.34387670216E+02 -0.15323883077E+03 -0.53149667568E+03  0.58523274633E+03  0.18800000000E+03 0.  0.
<mgrwt>
<rscale>  0 0.51143771E+03</rscale>
<asrwt>0</asrwt>
<pdfrwt beam="1">  1        2 0.22372516E+00 0.51143771E+03</pdfrwt>
<pdfrwt beam="2">  1       -2 0.59650570E-02 0.51143771E+03</pdfrwt>
<totfact> 0.21467765E+03</totfact>
</mgrwt>
</event>
<event>
 4    1  0.6034452E-005  0.5808086E+03  0.7818608E-02  0.9946042E-01
          2   -1    0    0  501    0  0.00000000000E+00  0.00000000000E+00  0.20052479949E+04  0.20052479949E+04  0.25500000000E-02 0. -1.
         -2   -1    0    0    0  501 -0.00000000000E+00 -0.00000000000E+00 -0.42056970778E+02  0.42056970856E+02  0.25500000000E-02 0.  1.
    5000001    1    1    2    0    0 -0.86350215922E+02 -0.20146275303E+03  0.10900724152E+04  0.11276725904E+04  0.18800000000E+03 0.  0.
   -5000001    1    1    2    0    0  0.86350215922E+02  0.20146275303E+03  0.87311860892E+03  0.91963237540E+03  0.18800000000E+03 0.  0.
<mgrwt>
<rscale>  0 0.58080860E+03</rscale>
<asrwt>0</asrwt>
<pdfrwt beam="1">  1        2 0.28646403E+00 0.58080860E+03</pdfrwt>
<pdfrwt beam="2">  1       -2 0.60081381E-02 0.58080860E+03</pdfrwt>
<totfact> 0.12704247E+03</totfact>
</mgrwt>
</event>
<event>
 4    1  0.6034452E-005  0.5615065E+03  0.7818608E-02  0.9988652E-01
         -2   -1    0    0    0  501 -0.00000000000E+00  0.00000000000E+00  0.51172183678E+02  0.51172183742E+02  0.25500000000E-02 0. -1.
          2   -1    0    0  501    0  0.00000000000E+00 -0.00000000000E+00 -0.15403368386E+04  0.15403368386E+04  0.25500000000E-02 0.  1.
    5000001    1    1    2    0    0 -0.83043729078E+02 -0.17301525879E+03 -0.97567979259E+03  0.10119909082E+04  0.18800000000E+03 0.  0.
   -5000001    1    1    2    0    0  0.83043729078E+02  0.17301525879E+03 -0.51348486229E+03  0.57951811406E+03  0.18800000000E+03 0.  0.
<mgrwt>
<rscale>  0 0.56150654E+03</rscale>
<asrwt>0</asrwt>
<pdfrwt beam="1">  1        2 0.22004809E+00 0.56150654E+03</pdfrwt>
<pdfrwt beam="2">  1       -2 0.73103129E-02 0.56150654E+03</pdfrwt>
<totfact> 0.16057323E+03</totfact>
</mgrwt>
</event>
<event>
 4    1  0.6034452E-005  0.4501965E+03  0.7818608E-02  0.1027663E+00
         -2   -1    0    0    0  501 -0.00000000000E+00  0.00000000000E+00  0.15348701932E+03  0.15348701934E+03  0.25500000000E-02 0. -1.
          2   -1    0    0  501    0  0.00000000000E+00 -0.00000000000E+00 -0.33012054126E+03  0.33012054127E+03  0.25500000000E-02 0.  1.
    5000001    1    1    2    0    0  0.10589876945E+03  0.24336791604E+02 -0.15203487598E+03  0.26507627640E+03  0.18800000000E+03 0.  0.
   -5000001    1    1    2    0    0 -0.10589876945E+03 -0.24336791604E+02 -0.24598645962E+02  0.21853128421E+03  0.18800000000E+03 0.  0.
<mgrwt>
<rscale>  0 0.45019648E+03</rscale>
<asrwt>0</asrwt>
<pdfrwt beam="1">  1        2 0.47160077E-01 0.45019648E+03</pdfrwt>
<pdfrwt beam="2">  1       -2 0.21926717E-01 0.45019648E+03</pdfrwt>
<totfact> 0.19289573E+03</totfact>
</mgrwt>
</event>
<event>
 4    1  0.6034452E-005  0.8598346E+03  0.7818608E-02  0.9477231E-01
          2   -1    0    0  501    0  0.00000000000E+00  0.00000000000E+00  0.63912659200E+03  0.63912659200E+03  0.25500000000E-02 0.  1.
         -2   -1    0    0    0  501 -0.00000000000E+00 -0.00000000000E+00 -0.28918982033E+03  0.28918982034E+03  0.25500000000E-02 0. -1.
    5000001    1    1    2    0    0 -0.29005066661E+03 -0.17502653803E+03 -0.26208747318E+02  0.38832277380E+03  0.18800000000E+03 0.  0.
   -5000001    1    1    2    0    0  0.29005066661E+03  0.17502653803E+03  0.37614551898E+03  0.53999363855E+03  0.18800000000E+03 0.  0.
<mgrwt>
<rscale>  0 0.85983465E+03</rscale>
<asrwt>0</asrwt>
<pdfrwt beam="1">  1        2 0.91303798E-01 0.85983465E+03</pdfrwt>
<pdfrwt beam="2">  1       -2 0.41312832E-01 0.85983465E+03</pdfrwt>
<totfact> 0.28008420E+02</totfact>
</mgrwt>
</event>
<event>
 4    1  0.6034452E-005  0.5995000E+03  0.7818608E-02  0.9906444E-01
         -2   -1    0    0    0  501 -0.00000000000E+00  0.00000000000E+00  0.99477560858E+02  0.99477560891E+02  0.25500000000E-02 0. -1.
          2   -1    0    0  501    0  0.00000000000E+00 -0.00000000000E+00 -0.90321945779E+03  0.90321945779E+03  0.25500000000E-02 0.  1.
    5000001    1    1    2    0    0 -0.19170471590E+02 -0.21812243027E+03 -0.26639223357E+03  0.39275147826E+03  0.18800000000E+03 0.  0.
   -5000001    1    1    2    0    0  0.19170471590E+02  0.21812243027E+03 -0.53734966336E+03  0.60994554043E+03  0.18800000000E+03 0.  0.
<mgrwt>
<rscale>  0 0.59950002E+03</rscale>
<asrwt>0</asrwt>
<pdfrwt beam="1">  1        2 0.12903135E+00 0.59950002E+03</pdfrwt>
<pdfrwt beam="2">  1       -2 0.14211081E-01 0.59950002E+03</pdfrwt>
<totfact> 0.12461971E+03</totfact>
</mgrwt>
</event>
<event>
 4    1  0.6034452E-005  0.5193702E+03  0.7818608E-02  0.1008843E+00
          2   -1    0    0  501    0  0.00000000000E+00  0.00000000000E+00  0.98203648449E+03  0.98203648449E+03  0.25500000000E-02 0.  1.
         -2   -1    0    0    0  501 -0.00000000000E+00 -0.00000000000E+00 -0.68669897887E+02  0.68669897935E+02  0.25500000000E-02 0. -1.
    5000001    1    1    2    0    0  0.87297352635E+02  0.90208689942E+02  0.71523620707E+03  0.75011017019E+03  0.18800000000E+03 0.  0.
   -5000001    1    1    2    0    0 -0.87297352635E+02 -0.90208689942E+02  0.19813037953E+03  0.30059621224E+03  0.18800000000E+03 0.  0.
<mgrwt>
<rscale>  0 0.51937018E+03</rscale>
<asrwt>0</asrwt>
<pdfrwt beam="1">  1        2 0.14029092E+00 0.51937018E+03</pdfrwt>
<pdfrwt beam="2">  1       -2 0.98099858E-02 0.51937018E+03</pdfrwt>
<totfact> 0.20457736E+03</totfact>
</mgrwt>
</event>
<event>
 4    1  0.6034452E-005  0.1305364E+04  0.7818608E-02  0.9025322E-01
          2   -1    0    0  501    0  0.00000000000E+00  0.00000000000E+00  0.11700040302E+04  0.11700040302E+04  0.25500000000E-02 0.  1.
         -2   -1    0    0    0  501 -0.00000000000E+00 -0.00000000000E+00 -0.36409607433E+03  0.36409607434E+03  0.25500000000E-02 0. -1.
    5000001    1    1    2    0    0 -0.43876193595E+03  0.44512596291E+03  0.40196018268E+03  0.76652798237E+03  0.18800000000E+03 0.  0.
   -5000001    1    1    2    0    0  0.43876193595E+03 -0.44512596291E+03  0.40394777324E+03  0.76757212222E+03  0.18800000000E+03 0.  0.
<mgrwt>
<rscale>  0 0.13053641E+04</rscale>
<asrwt>0</asrwt>
<pdfrwt beam="1">  1        2 0.16714344E+00 0.13053641E+04</pdfrwt>
<pdfrwt beam="2">  1       -2 0.52013724E-01 0.13053641E+04</pdfrwt>
<totfact> 0.76071834E+01</totfact>
</mgrwt>
</event>
<event>
 4    1  0.6034452E-005  0.5536770E+03  0.7818608E-02  0.1000646E+00
         -2   -1    0    0    0  501 -0.00000000000E+00  0.00000000000E+00  0.16255593752E+03  0.16255593754E+03  0.25500000000E-02 0. -1.
          2   -1    0    0  501    0  0.00000000000E+00 -0.00000000000E+00 -0.47146566485E+03  0.47146566486E+03  0.25500000000E-02 0.  1.
    5000001    1    1    2    0    0  0.16243764458E+03 -0.10125760451E+03 -0.23259518382E+03  0.35508254024E+03  0.18800000000E+03 0.  0.
   -5000001    1    1    2    0    0 -0.16243764458E+03  0.10125760451E+03 -0.76314543504E+02  0.27893906216E+03  0.18800000000E+03 0.  0.
<mgrwt>
<rscale>  0 0.55367696E+03</rscale>
<asrwt>0</asrwt>
<pdfrwt beam="1">  1        2 0.67352237E-01 0.55367696E+03</pdfrwt>
<pdfrwt beam="2">  1       -2 0.23222277E-01 0.55367696E+03</pdfrwt>
<totfact> 0.11761410E+03</totfact>
</mgrwt>
</event>
<event>
 4    1  0.6034452E-005  0.6331375E+03  0.7818608E-02  0.9838945E-01
         -2   -1    0    0    0  501 -0.00000000000E+00  0.00000000000E+00  0.11028604472E+03  0.11028604475E+03  0.25500000000E-02 0. -1.
          2   -1    0    0  501    0  0.00000000000E+00 -0.00000000000E+00 -0.90868946496E+03  0.90868946496E+03  0.25500000000E-02 0.  1.
    5000001    1    1    2    0    0  0.17433211169E+03  0.12967213818E+03 -0.61310882432E+03  0.67709155884E+03  0.18800000000E+03 0.  0.
   -5000001    1    1    2    0    0 -0.17433211169E+03 -0.12967213818E+03 -0.18529459592E+03  0.34188395087E+03  0.18800000000E+03 0.  0.
<mgrwt>
<rscale>  0 0.63313748E+03</rscale>
<asrwt>0</asrwt>
<pdfrwt beam="1">  1        2 0.12981278E+00 0.63313748E+03</pdfrwt>
<pdfrwt beam="2">  1       -2 0.15755150E-01 0.63313748E+03</pdfrwt>
<totfact> 0.10382962E+03</totfact>
</mgrwt>
</event>
<event>
 4    1  0.6034452E-005  0.6717193E+03  0.7818608E-02  0.9766857E-01
          2   -1    0    0  501    0  0.00000000000E+00  0.00000000000E+00  0.71558938011E+03  0.71558938012E+03  0.25500000000E-02 0.  1.
         -2   -1    0    0    0  501 -0.00000000000E+00 -0.00000000000E+00 -0.15763467125E+03  0.15763467127E+03  0.25500000000E-02 0. -1.
    5000001    1    1    2    0    0  0.26380983305E+03  0.37806201632E+02  0.38324187365E+03  0.50323281949E+03  0.18800000000E+03 0.  0.
   -5000001    1    1    2    0    0 -0.26380983305E+03 -0.37806201632E+02  0.17471283521E+03  0.36999123190E+03  0.18800000000E+03 0.  0.
<mgrwt>
<rscale>  0 0.67171928E+03</rscale>
<asrwt>0</asrwt>
<pdfrwt beam="1">  1        2 0.10222706E+00 0.67171928E+03</pdfrwt>
<pdfrwt beam="2">  1       -2 0.22519238E-01 0.67171928E+03</pdfrwt>
<totfact> 0.75995383E+02</totfact>
</mgrwt>
</event>
<event>
 4    1  0.6034452E-005  0.8245522E+03  0.7818608E-02  0.9525143E-01
         -2   -1    0    0    0  501 -0.00000000000E+00  0.00000000000E+00  0.13293472144E+03  0.13293472147E+03  0.25500000000E-02 0. -1.
          2   -1    0    0  501    0  0.00000000000E+00 -0.00000000000E+00 -0.12786095271E+04  0.12786095271E+04  0.25500000000E-02 0.  1.
    5000001    1    1    2    0    0 -0.29022266429E+03 -0.22411600071E+03 -0.55048920138E+03  0.68763328707E+03  0.18800000000E+03 0.  0.
   -5000001    1    1    2    0    0  0.29022266429E+03  0.22411600071E+03 -0.59518560428E+03  0.72391096150E+03  0.18800000000E+03 0.  0.
<mgrwt>
<rscale>  0 0.82455225E+03</rscale>
<asrwt>0</asrwt>
<pdfrwt beam="1">  1        2 0.18265850E+00 0.82455225E+03</pdfrwt>
<pdfrwt beam="2">  1       -2 0.18990675E-01 0.82455225E+03</pdfrwt>
<totfact> 0.45238368E+02</totfact>
</mgrwt>
</event>
<event>
 4    1  0.6034452E-005  0.1228023E+04  0.7818608E-02  0.9088676E-01
         -2   -1    0    0    0  501 -0.00000000000E+00  0.00000000000E+00  0.34881876724E+03  0.34881876725E+03  0.25500000000E-02 0. -1.
          2   -1    0    0  501    0  0.00000000000E+00 -0.00000000000E+00 -0.10808194922E+04  0.10808194922E+04  0.25500000000E-02 0.  1.
    5000001    1    1    2    0    0 -0.45962145681E+03 -0.13835612000E+03  0.22339759883E+02  0.51598194190E+03  0.18800000000E+03 0.  0.
   -5000001    1    1    2    0    0  0.45962145681E+03  0.13835612000E+03 -0.75434048481E+03  0.91365631751E+03  0.18800000000E+03 0.  0.
<mgrwt>
<rscale>  0 0.12280230E+04</rscale>
<asrwt>0</asrwt>
<pdfrwt beam="1">  1        2 0.15440278E+00 0.12280230E+04</pdfrwt>
<pdfrwt beam="2">  1       -2 0.49831253E-01 0.12280230E+04</pdfrwt>
<totfact> 0.94145443E+01</totfact>
</mgrwt>
</event>
<event>
 4    1  0.6034452E-005  0.9998407E+03  0.7818608E-02  0.9308720E-01
         -2   -1    0    0    0  501 -0.00000000000E+00  0.00000000000E+00  0.26703021174E+03  0.26703021175E+03  0.25500000000E-02 0. -1.
          2   -1    0    0  501    0  0.00000000000E+00 -0.00000000000E+00 -0.93592538118E+03  0.93592538118E+03  0.25500000000E-02 0.  1.
    5000001    1    1    2    0    0 -0.24830730029E+03  0.14533356057E+03 -0.77123808741E+03  0.84435214613E+03  0.18800000000E+03 0.  0.
   -5000001    1    1    2    0    0  0.24830730029E+03 -0.14533356057E+03  0.10234291797E+03  0.35860344681E+03  0.18800000000E+03 0.  0.
<mgrwt>
<rscale>  0 0.99984069E+03</rscale>
<asrwt>0</asrwt>
<pdfrwt beam="1">  1        2 0.13370362E+00 0.99984069E+03</pdfrwt>
<pdfrwt beam="2">  1       -2 0.38147174E-01 0.99984069E+03</pdfrwt>
<totfact> 0.19928041E+02</totfact>
</mgrwt>
</event>
<event>
 4    1  0.6034452E-005  0.4481834E+03  0.7818608E-02  0.1028265E+00
         -2   -1    0    0    0  501 -0.00000000000E+00  0.00000000000E+00  0.29322803672E+02  0.29322803783E+02  0.25500000000E-02 0. -1.
          2   -1    0    0  501    0  0.00000000000E+00 -0.00000000000E+00 -0.17125606609E+04  0.17125606609E+04  0.25500000000E-02 0.  1.
    5000001    1    1    2    0    0 -0.33826814553E+02 -0.35897808999E+02 -0.40813140659E+03  0.45204883710E+03  0.18800000000E+03 0.  0.
   -5000001    1    1    2    0    0  0.33826814553E+02  0.35897808999E+02 -0.12751064507E+04  0.12898346276E+04  0.18800000000E+03 0.  0.
<mgrwt>
<rscale>  0 0.44818336E+03</rscale>
<asrwt>0</asrwt>
<pdfrwt beam="1">  1        2 0.24465146E+00 0.44818336E+03</pdfrwt>
<pdfrwt beam="2">  1       -2 0.41889731E-02 0.44818336E+03</pdfrwt>
<totfact> 0.31257909E+03</totfact>
</mgrwt>
</event>
<event>
 4    1  0.6034452E-005  0.6017706E+03  0.7818608E-02  0.9901739E-01
          2   -1    0    0  501    0  0.00000000000E+00  0.00000000000E+00  0.27937528132E+04  0.27937528132E+04  0.25500000000E-02 0.  1.
         -2   -1    0    0    0  501 -0.00000000000E+00 -0.00000000000E+00 -0.32405149493E+02  0.32405149594E+02  0.25500000000E-02 0. -1.
    5000001    1    1    2    0    0  0.19773164410E+03  0.67513141743E+02  0.87633712303E+03  0.92030787271E+03  0.18800000000E+03 0.  0.
   -5000001    1    1    2    0    0 -0.19773164410E+03 -0.67513141743E+02  0.18850105407E+04  0.19058500901E+04  0.18800000000E+03 0.  0.
<mgrwt>
<rscale>  0 0.60177065E+03</rscale>
<asrwt>0</asrwt>
<pdfrwt beam="1">  1        2 0.39910761E+00 0.60177065E+03</pdfrwt>
<pdfrwt beam="2">  1       -2 0.46293063E-02 0.60177065E+03</pdfrwt>
<totfact> 0.75232143E+02</totfact>
</mgrwt>
</event>
<event>
 4    1  0.6034452E-005  0.5007636E+03  0.7818608E-02  0.1013580E+00
         -2   -1    0    0    0  501 -0.00000000000E+00  0.00000000000E+00  0.28461847088E+02  0.28461847202E+02  0.25500000000E-02 0. -1.
          2   -1    0    0  501    0  0.00000000000E+00 -0.00000000000E+00 -0.22026340698E+04  0.22026340698E+04  0.25500000000E-02 0.  1.
    5000001    1    1    2    0    0  0.93267177849E+02 -0.13383494536E+03 -0.96617545549E+03  0.99772219072E+03  0.18800000000E+03 0.  0.
   -5000001    1    1    2    0    0 -0.93267177849E+02  0.13383494536E+03 -0.12079967672E+04  0.12333737262E+04  0.18800000000E+03 0.  0.
<mgrwt>
<rscale>  0 0.50076355E+03</rscale>
<asrwt>0</asrwt>
<pdfrwt beam="1">  1        2 0.31466190E+00 0.50076355E+03</pdfrwt>
<pdfrwt beam="2">  1       -2 0.40659796E-02 0.50076355E+03</pdfrwt>
<totfact> 0.18589409E+03</totfact>
</mgrwt>
</event>
<event>
 4    1  0.6034452E-005  0.4822901E+03  0.7818608E-02  0.1018508E+00
          2   -1    0    0  501    0  0.00000000000E+00  0.00000000000E+00  0.20197151309E+03  0.20197151310E+03  0.25500000000E-02 0.  1.
         -2   -1    0    0    0  501 -0.00000000000E+00 -0.00000000000E+00 -0.28791646234E+03  0.28791646235E+03  0.25500000000E-02 0. -1.
    5000001    1    1    2    0    0 -0.13567337641E+03  0.58590914417E+02 -0.11389826805E+02  0.23940319228E+03  0.18800000000E+03 0.  0.
   -5000001    1    1    2    0    0  0.13567337641E+03 -0.58590914417E+02 -0.74555122446E+02  0.25048478317E+03  0.18800000000E+03 0.  0.
<mgrwt>
<rscale>  0 0.48229005E+03</rscale>
<asrwt>0</asrwt>
<pdfrwt beam="1">  1        2 0.28853073E-01 0.48229005E+03</pdfrwt>
<pdfrwt beam="2">  1       -2 0.41130923E-01 0.48229005E+03</pdfrwt>
<totfact> 0.10423544E+03</totfact>
</mgrwt>
</event>
<event>
 4    1  0.6034452E-005  0.6535123E+03  0.7818608E-02  0.9800211E-01
         -2   -1    0    0    0  501 -0.00000000000E+00  0.00000000000E+00  0.21676571883E+03  0.21676571884E+03  0.25500000000E-02 0. -1.
          2   -1    0    0  501    0  0.00000000000E+00 -0.00000000000E+00 -0.49255750936E+03  0.49255750937E+03  0.25500000000E-02 0.  1.
    5000001    1    1    2    0    0  0.16224306030E+03  0.20553923568E+03 -0.19590544748E+03  0.37721629388E+03  0.18800000000E+03 0.  0.
   -5000001    1    1    2    0    0 -0.16224306030E+03 -0.20553923568E+03 -0.79886343053E+02  0.33210693432E+03  0.18800000000E+03 0.  0.
<mgrwt>
<rscale>  0 0.65351230E+03</rscale>
<asrwt>0</asrwt>
<pdfrwt beam="1">  1        2 0.70365358E-01 0.65351230E+03</pdfrwt>
<pdfrwt beam="2">  1       -2 0.30966532E-01 0.65351230E+03</pdfrwt>
<totfact> 0.66295216E+02</totfact>
</mgrwt>
</event>
<event>
 4    1  0.6034452E-005  0.6363292E+03  0.7818608E-02  0.9832775E-01
          2   -1    0    0  501    0  0.00000000000E+00  0.00000000000E+00  0.23539188399E+04  0.23539188399E+04  0.25500000000E-02 0.  1.
         -2   -1    0    0    0  501 -0.00000000000E+00 -0.00000000000E+00 -0.43004339185E+02  0.43004339261E+02  0.25500000000E-02 0. -1.
    5000001    1    1    2    0    0  0.23501630226E+03 -0.80580982400E+02  0.91254213189E+03  0.96426298255E+03  0.18800000000E+03 0.  0.
   -5000001    1    1    2    0    0 -0.23501630226E+03  0.80580982400E+02  0.13983723688E+04  0.14326601966E+04  0.18800000000E+03 0.  0.
<mgrwt>
<rscale>  0 0.63632924E+03</rscale>
<asrwt>0</asrwt>
<pdfrwt beam="1">  1        2 0.33627414E+00 0.63632924E+03</pdfrwt>
<pdfrwt beam="2">  1       -2 0.61434766E-02 0.63632924E+03</pdfrwt>
<totfact> 0.81567857E+02</totfact>
</mgrwt>
</event>
<event>
 4    1  0.6034452E-005  0.5116892E+03  0.7818608E-02  0.1010772E+00
         -2   -1    0    0    0  501 -0.00000000000E+00  0.00000000000E+00  0.57259183139E+02  0.57259183196E+02  0.25500000000E-02 0. -1.
          2   -1    0    0  501    0  0.00000000000E+00 -0.00000000000E+00 -0.11431607449E+04  0.11431607449E+04  0.25500000000E-02 0.  1.
    5000001    1    1    2    0    0  0.14716655616E+03  0.58921705123E+02 -0.37735135843E+03  0.45040849270E+03  0.18800000000E+03 0.  0.
   -5000001    1    1    2    0    0 -0.14716655616E+03 -0.58921705123E+02 -0.70855020333E+03  0.75001143540E+03  0.18800000000E+03 0.  0.
<mgrwt>
<rscale>  0 0.51168917E+03</rscale>
<asrwt>0</asrwt>
<pdfrwt beam="1">  1        2 0.16330866E+00 0.51168917E+03</pdfrwt>
<pdfrwt beam="2">  1       -2 0.81798840E-02 0.51168917E+03</pdfrwt>
<totfact> 0.22000545E+03</totfact>
</mgrwt>
</event>
<event>
 4    1  0.6034452E-005  0.3954919E+03  0.7818608E-02  0.1045352E+00
          2   -1    0    0  501    0  0.00000000000E+00  0.00000000000E+00  0.32885137525E+03  0.32885137526E+03  0.25500000000E-02 0.  1.
         -2   -1    0    0    0  501 -0.00000000000E+00 -0.00000000000E+00 -0.11890924133E+03  0.11890924136E+03  0.25500000000E-02 0. -1.
    5000001    1    1    2    0    0 -0.39483556665E+00 -0.35865310432E+02  0.16127251217E+03  0.25027844408E+03  0.18800000000E+03 0.  0.
   -5000001    1    1    2    0    0  0.39483556665E+00  0.35865310432E+02  0.48669621744E+02  0.19748217253E+03  0.18800000000E+03 0.  0.
<mgrwt>
<rscale>  0 0.39549193E+03</rscale>
<asrwt>0</asrwt>
<pdfrwt beam="1">  1        2 0.46978767E-01 0.39549193E+03</pdfrwt>
<pdfrwt beam="2">  1       -2 0.16987035E-01 0.39549193E+03</pdfrwt>
<totfact> 0.29998975E+03</totfact>
</mgrwt>
</event>
<event>
 4    1  0.6034452E-005  0.3970935E+03  0.7818608E-02  0.1044791E+00
          2   -1    0    0  501    0  0.00000000000E+00  0.00000000000E+00  0.10749457471E+03  0.10749457474E+03  0.25500000000E-02 0.  1.
         -2   -1    0    0    0  501 -0.00000000000E+00 -0.00000000000E+00 -0.36672371768E+03  0.36672371768E+03  0.25500000000E-02 0. -1.
    5000001    1    1    2    0    0 -0.19279799985E+02 -0.43290228089E+02 -0.18071638272E+03  0.26504370492E+03  0.18800000000E+03 0.  0.
   -5000001    1    1    2    0    0  0.19279799985E+02  0.43290228089E+02 -0.78512760243E+02  0.20917458750E+03  0.18800000000E+03 0.  0.
<mgrwt>
<rscale>  0 0.39709349E+03</rscale>
<asrwt>0</asrwt>
<pdfrwt beam="1">  1        2 0.15356368E-01 0.39709349E+03</pdfrwt>
<pdfrwt beam="2">  1       -2 0.52389102E-01 0.39709349E+03</pdfrwt>
<totfact> 0.13349039E+03</totfact>
</mgrwt>
</event>
<event>
 4    1  0.6034452E-005  0.5938513E+03  0.7818608E-02  0.9918245E-01
         -2   -1    0    0    0  501 -0.00000000000E+00  0.00000000000E+00  0.73924169967E+02  0.73924170011E+02  0.25500000000E-02 0. -1.
          2   -1    0    0  501    0  0.00000000000E+00 -0.00000000000E+00 -0.11926389559E+04  0.11926389559E+04  0.25500000000E-02 0.  1.
    5000001    1    1    2    0    0 -0.20276957808E+03  0.81769278590E+02 -0.71045697559E+03  0.76674300185E+03  0.18800000000E+03 0.  0.
   -5000001    1    1    2    0    0  0.20276957808E+03 -0.81769278590E+02 -0.40825781033E+03  0.49982012406E+03  0.18800000000E+03 0.  0.
<mgrwt>
<rscale>  0 0.59385131E+03</rscale>
<asrwt>0</asrwt>
<pdfrwt beam="1">  1        2 0.17037698E+00 0.59385131E+03</pdfrwt>
<pdfrwt beam="2">  1       -2 0.10560596E-01 0.59385131E+03</pdfrwt>
<totfact> 0.13657500E+03</totfact>
</mgrwt>
</event>
<event>
 4    1  0.6034452E-005  0.4845250E+03  0.7818608E-02  0.1017899E+00
          2   -1    0    0  501    0  0.00000000000E+00  0.00000000000E+00  0.14054824140E+04  0.14054824140E+04  0.25500000000E-02 0.  1.
         -2   -1    0    0    0  501 -0.00000000000E+00 -0.00000000000E+00 -0.41758705227E+02  0.41758705305E+02  0.25500000000E-02 0. -1.
    5000001    1    1    2    0    0 -0.54149272431E+02 -0.94644966322E+02  0.10015790959E+04  0.10248875541E+04  0.18800000000E+03 0.  0.
   -5000001    1    1    2    0    0  0.54149272431E+02  0.94644966322E+02  0.36214461293E+03  0.42235356519E+03  0.18800000000E+03 0.  0.
<mgrwt>
<rscale>  0 0.48452503E+03</rscale>
<asrwt>0</asrwt>
<pdfrwt beam="1">  1        2 0.20078322E+00 0.48452503E+03</pdfrwt>
<pdfrwt beam="2">  1       -2 0.59655289E-02 0.48452503E+03</pdfrwt>
<totfact> 0.26021100E+03</totfact>
</mgrwt>
</event>
<event>
 4    1  0.6034452E-005  0.1084803E+04  0.7818608E-02  0.9220131E-01
         -2   -1    0    0    0  501 -0.00000000000E+00  0.00000000000E+00  0.48916505796E+03  0.48916505796E+03  0.25500000000E-02 0. -1.
          2   -1    0    0  501    0  0.00000000000E+00 -0.00000000000E+00 -0.60143214305E+03  0.60143214306E+03  0.25500000000E-02 0.  1.
    5000001    1    1    2    0    0  0.33844852764E+03 -0.13023734393E+03 -0.41489577526E+03  0.58222991674E+03  0.18800000000E+03 0.  0.
   -5000001    1    1    2    0    0 -0.33844852764E+03  0.13023734393E+03  0.30262869016E+03  0.50836728428E+03  0.18800000000E+03 0.  0.
<mgrwt>
<rscale>  0 0.10848034E+04</rscale>
<asrwt>0</asrwt>
<pdfrwt beam="1">  1        2 0.85918878E-01 0.10848034E+04</pdfrwt>
<pdfrwt beam="2">  1       -2 0.69880722E-01 0.10848034E+04</pdfrwt>
<totfact> 0.10042873E+02</totfact>
</mgrwt>
</event>
<event>
 4    1  0.6034452E-005  0.6544913E+03  0.7818608E-02  0.9798388E-01
          2   -1    0    0  501    0  0.00000000000E+00  0.00000000000E+00  0.93593769255E+03  0.93593769255E+03  0.25500000000E-02 0.  1.
         -2   -1    0    0    0  501 -0.00000000000E+00 -0.00000000000E+00 -0.11441970781E+03  0.11441970784E+03  0.25500000000E-02 0. -1.
    5000001    1    1    2    0    0 -0.21629046343E+03  0.12303613938E+03  0.56984330993E+03  0.64960361301E+03  0.18800000000E+03 0.  0.
   -5000001    1    1    2    0    0  0.21629046343E+03 -0.12303613938E+03  0.25167467480E+03  0.40075378738E+03  0.18800000000E+03 0.  0.
<mgrwt>
<rscale>  0 0.65449131E+03</rscale>
<asrwt>0</asrwt>
<pdfrwt beam="1">  1        2 0.13370539E+00 0.65449131E+03</pdfrwt>
<pdfrwt beam="2">  1       -2 0.16345672E-01 0.65449131E+03</pdfrwt>
<totfact> 0.93662385E+02</totfact>
</mgrwt>
</event>
<event>
 4    1  0.6034452E-005  0.7614668E+03  0.7818608E-02  0.9617530E-01
         -2   -1    0    0    0  501 -0.00000000000E+00  0.00000000000E+00  0.11650924970E+03  0.11650924972E+03  0.25500000000E-02 0. -1.
          2   -1    0    0  501    0  0.00000000000E+00 -0.00000000000E+00 -0.12441753173E+04  0.12441753173E+04  0.25500000000E-02 0.  1.
    5000001    1    1    2    0    0  0.31380905335E+03  0.10483663656E+03 -0.54216105192E+03  0.66238164871E+03  0.18800000000E+03 0.  0.
   -5000001    1    1    2    0    0 -0.31380905335E+03 -0.10483663656E+03 -0.58550501565E+03  0.69830291828E+03  0.18800000000E+03 0.  0.
<mgrwt>
<rscale>  0 0.76146683E+03</rscale>
<asrwt>0</asrwt>
<pdfrwt beam="1">  1        2 0.17773932E+00 0.76146683E+03</pdfrwt>
<pdfrwt beam="2">  1       -2 0.16644179E-01 0.76146683E+03</pdfrwt>
<totfact> 0.59516276E+02</totfact>
</mgrwt>
</event>
<event>
 4    1  0.6034452E-005  0.7404288E+03  0.7818608E-02  0.9650487E-01
         -2   -1    0    0    0  501 -0.00000000000E+00  0.00000000000E+00  0.44644940430E+02  0.44644940503E+02  0.25500000000E-02 0. -1.
          2   -1    0    0  501    0  0.00000000000E+00 -0.00000000000E+00 -0.30699719055E+04  0.30699719055E+04  0.25500000000E-02 0.  1.
    5000001    1    1    2    0    0 -0.23871064657E+03 -0.10520140894E+03 -0.22844693240E+04  0.23069881234E+04  0.18800000000E+03 0.  0.
   -5000001    1    1    2    0    0  0.23871064657E+03  0.10520140894E+03 -0.74085764101E+03  0.80762872254E+03  0.18800000000E+03 0.  0.
<mgrwt>
<rscale>  0 0.74042883E+03</rscale>
<asrwt>0</asrwt>
<pdfrwt beam="1">  1        2 0.43856728E+00 0.74042883E+03</pdfrwt>
<pdfrwt beam="2">  1       -2 0.63778506E-02 0.74042883E+03</pdfrwt>
<totfact> 0.31925927E+02</totfact>
</mgrwt>
</event>
<event>
 4    1  0.6034452E-005  0.5911051E+03  0.7818608E-02  0.9924034E-01
          2   -1    0    0  501    0  0.00000000000E+00  0.00000000000E+00  0.63986199237E+03  0.63986199237E+03  0.25500000000E-02 0.  1.
         -2   -1    0    0    0  501 -0.00000000000E+00 -0.00000000000E+00 -0.13651587531E+03  0.13651587533E+03  0.25500000000E-02 0. -1.
    5000001    1    1    2    0    0 -0.22232695188E+03  0.59139303090E+01  0.18543802934E+03  0.34524702870E+03  0.18800000000E+03 0.  0.
   -5000001    1    1    2    0    0  0.22232695188E+03 -0.59139303090E+01  0.31790808772E+03  0.43113083900E+03  0.18800000000E+03 0.  0.
<mgrwt>
<rscale>  0 0.59110513E+03</rscale>
<asrwt>0</asrwt>
<pdfrwt beam="1">  1        2 0.91408858E-01 0.59110513E+03</pdfrwt>
<pdfrwt beam="2">  1       -2 0.19502268E-01 0.59110513E+03</pdfrwt>
<totfact> 0.11220536E+03</totfact>
</mgrwt>
</event>
<event>
 4    1  0.6034452E-005  0.7044962E+03  0.7818608E-02  0.9709574E-01
          2   -1    0    0  501    0  0.00000000000E+00  0.00000000000E+00  0.62773956318E+03  0.62773956318E+03  0.25500000000E-02 0.  1.
         -2   -1    0    0    0  501 -0.00000000000E+00 -0.00000000000E+00 -0.19765957899E+03  0.19765957901E+03  0.25500000000E-02 0. -1.
    5000001    1    1    2    0    0 -0.39176205808E+01 -0.29768113727E+03  0.20301561724E+03  0.40643418665E+03  0.18800000000E+03 0.  0.
   -5000001    1    1    2    0    0  0.39176205808E+01  0.29768113727E+03  0.22706436694E+03  0.41896495554E+03  0.18800000000E+03 0.  0.
<mgrwt>
<rscale>  0 0.70449624E+03</rscale>
<asrwt>0</asrwt>
<pdfrwt beam="1">  1        2 0.89677082E-01 0.70449624E+03</pdfrwt>
<pdfrwt beam="2">  1       -2 0.28237082E-01 0.70449624E+03</pdfrwt>
<totfact> 0.59207358E+02</totfact>
</mgrwt>
</event>
<event>
 4    1  0.6034452E-005  0.5007202E+03  0.7818608E-02  0.1013591E+00
         -2   -1    0    0    0  501 -0.00000000000E+00  0.00000000000E+00  0.61347373592E+03  0.61347373592E+03  0.25500000000E-02 0. -1.
          2   -1    0    0  501    0  0.00000000000E+00 -0.00000000000E+00 -0.10217253970E+03  0.10217253973E+03  0.25500000000E-02 0.  1.
    5000001    1    1    2    0    0 -0.97567617029E+02  0.50737231032E+02  0.79196838960E+02  0.23175384745E+03  0.18800000000E+03 0.  0.
   -5000001    1    1    2    0    0  0.97567617029E+02 -0.50737231032E+02  0.43210435726E+03  0.48389242820E+03  0.18800000000E+03 0.  0.
<mgrwt>
<rscale>  0 0.50072016E+03</rscale>
<asrwt>0</asrwt>
<pdfrwt beam="1">  1        2 0.14596078E-01 0.50072016E+03</pdfrwt>
<pdfrwt beam="2">  1       -2 0.87639101E-01 0.50072016E+03</pdfrwt>
<totfact> 0.47009720E+02</totfact>
</mgrwt>
</event>
<event>
 4    1  0.6034452E-005  0.9831200E+03  0.7818608E-02  0.9327255E-01
          2   -1    0    0  501    0  0.00000000000E+00  0.00000000000E+00  0.22496502595E+04  0.22496502595E+04  0.25500000000E-02 0.  1.
         -2   -1    0    0    0  501 -0.00000000000E+00 -0.00000000000E+00 -0.10740835652E+03  0.10740835655E+03  0.25500000000E-02 0. -1.
    5000001    1    1    2    0    0 -0.61600127759E+02 -0.33653848008E+03  0.35492761343E+03  0.52760812644E+03  0.18800000000E+03 0.  0.
   -5000001    1    1    2    0    0  0.61600127759E+02  0.33653848008E+03  0.17873142896E+04  0.18294504896E+04  0.18800000000E+03 0.  0.
<mgrwt>
<rscale>  0 0.98312001E+03</rscale>
<asrwt>0</asrwt>
<pdfrwt beam="1">  1        2 0.32137859E+00 0.98312001E+03</pdfrwt>
<pdfrwt beam="2">  1       -2 0.15344052E-01 0.98312001E+03</pdfrwt>
<totfact> 0.20240824E+02</totfact>
</mgrwt>
</event>
<event>
 4    1  0.6034452E-005  0.5259195E+03  0.7818608E-02  0.1007227E+00
         -2   -1    0    0    0  501 -0.00000000000E+00  0.00000000000E+00  0.88366930197E+02  0.88366930234E+02  0.25500000000E-02 0. -1.
          2   -1    0    0  501    0  0.00000000000E+00 -0.00000000000E+00 -0.78250807292E+03  0.78250807292E+03  0.25500000000E-02 0.  1.
    5000001    1    1    2    0    0 -0.56726478023E+02 -0.97734104456E+02 -0.58722872760E+03  0.62685837874E+03  0.18800000000E+03 0.  0.
   -5000001    1    1    2    0    0  0.56726478023E+02  0.97734104456E+02 -0.10691241512E+03  0.24401662441E+03  0.18800000000E+03 0.  0.
<mgrwt>
<rscale>  0 0.52591952E+03</rscale>
<asrwt>0</asrwt>
<pdfrwt beam="1">  1        2 0.11178686E+00 0.52591952E+03</pdfrwt>
<pdfrwt beam="2">  1       -2 0.12623848E-01 0.52591952E+03</pdfrwt>
<totfact> 0.18294881E+03</totfact>
</mgrwt>
</event>
<event>
 4    1  0.6034452E-005  0.4283974E+03  0.7818608E-02  0.1034367E+00
         -2   -1    0    0    0  501 -0.00000000000E+00  0.00000000000E+00  0.15665213121E+03  0.15665213123E+03  0.25500000000E-02 0. -1.
          2   -1    0    0  501    0  0.00000000000E+00 -0.00000000000E+00 -0.29288517284E+03  0.29288517285E+03  0.25500000000E-02 0.  1.
    5000001    1    1    2    0    0 -0.15573400489E+02 -0.10146201691E+03 -0.67988638104E+02  0.22472989697E+03  0.18800000000E+03 0.  0.
   -5000001    1    1    2    0    0  0.15573400489E+02  0.10146201691E+03 -0.68244403525E+02  0.22480740711E+03  0.18800000000E+03 0.  0.
<mgrwt>
<rscale>  0 0.42839742E+03</rscale>
<asrwt>0</asrwt>
<pdfrwt beam="1">  1        2 0.41840739E-01 0.42839742E+03</pdfrwt>
<pdfrwt beam="2">  1       -2 0.22378876E-01 0.42839742E+03</pdfrwt>
<totfact> 0.21201545E+03</totfact>
</mgrwt>
</event>
<event>
 4    1  0.6034452E-005  0.8383713E+03  0.7818608E-02  0.9506079E-01
         -2   -1    0    0    0  501 -0.00000000000E+00  0.00000000000E+00  0.60468023328E+02  0.60468023381E+02  0.25500000000E-02 0. -1.
          2   -1    0    0  501    0  0.00000000000E+00 -0.00000000000E+00 -0.29059427198E+04  0.29059427198E+04  0.25500000000E-02 0.  1.
    5000001    1    1    2    0    0 -0.35519803421E+03  0.11026139712E+03 -0.15829170601E+04  0.16368548006E+04  0.18800000000E+03 0.  0.
   -5000001    1    1    2    0    0  0.35519803421E+03 -0.11026139712E+03 -0.12625576364E+04  0.13295559426E+04  0.18800000000E+03 0.  0.
<mgrwt>
<rscale>  0 0.83837131E+03</rscale>
<asrwt>0</asrwt>
<pdfrwt beam="1">  1        2 0.41513459E+00 0.83837131E+03</pdfrwt>
<pdfrwt beam="2">  1       -2 0.86382909E-02 0.83837131E+03</pdfrwt>
<totfact> 0.23977162E+02</totfact>
</mgrwt>
</event>
<event>
 4    1  0.6034452E-005  0.9944073E+03  0.7818608E-02  0.9314700E-01
          2   -1    0    0  501    0  0.00000000000E+00  0.00000000000E+00  0.59822702815E+03  0.59822702815E+03  0.25500000000E-02 0.  1.
         -2   -1    0    0    0  501 -0.00000000000E+00 -0.00000000000E+00 -0.41324019037E+03  0.41324019037E+03  0.25500000000E-02 0. -1.
    5000001    1    1    2    0    0  0.42895538617E+03 -0.64291971167E+02 -0.64199011151E+02  0.47707619298E+03  0.18800000000E+03 0.  0.
   -5000001    1    1    2    0    0 -0.42895538617E+03  0.64291971167E+02  0.24918584893E+03  0.53439102555E+03  0.18800000000E+03 0.  0.
<mgrwt>
<rscale>  0 0.99440726E+03</rscale>
<asrwt>0</asrwt>
<pdfrwt beam="1">  1        2 0.85461004E-01 0.99440726E+03</pdfrwt>
<pdfrwt beam="2">  1       -2 0.59034313E-01 0.99440726E+03</pdfrwt>
<totfact> 0.14582705E+02</totfact>
</mgrwt>
</event>
<event>
 4    1  0.6034452E-005  0.7738133E+03  0.7818608E-02  0.9598714E-01
         -2   -1    0    0    0  501 -0.00000000000E+00  0.00000000000E+00  0.77624115200E+02  0.77624115242E+02  0.25500000000E-02 0. -1.
          2   -1    0    0  501    0  0.00000000000E+00 -0.00000000000E+00 -0.19284825629E+04  0.19284825629E+04  0.25500000000E-02 0.  1.
    5000001    1    1    2    0    0 -0.19768400745E+03 -0.22874855632E+03 -0.53270367097E+03  0.64071996214E+03  0.18800000000E+03 0.  0.
   -5000001    1    1    2    0    0  0.19768400745E+03  0.22874855632E+03 -0.13181547768E+04  0.13653867160E+04  0.18800000000E+03 0.  0.
<mgrwt>
<rscale>  0 0.77381329E+03</rscale>
<asrwt>0</asrwt>
<pdfrwt beam="1">  1        2 0.27549748E+00 0.77381329E+03</pdfrwt>
<pdfrwt beam="2">  1       -2 0.11089161E-01 0.77381329E+03</pdfrwt>
<totfact> 0.51474913E+02</totfact>
</mgrwt>
</event>
<event>
 4    1  0.6034452E-005  0.7875678E+03  0.7818608E-02  0.9578189E-01
          2   -1    0    0  501    0  0.00000000000E+00  0.00000000000E+00  0.27240034568E+04  0.27240034568E+04  0.25500000000E-02 0.  1.
         -2   -1    0    0    0  501 -0.00000000000E+00 -0.00000000000E+00 -0.56925687599E+02  0.56925687656E+02  0.25500000000E-02 0. -1.
    5000001    1    1    2    0    0 -0.50831004826E+02  0.33416679105E+03  0.10723727615E+04  0.11399906029E+04  0.18800000000E+03 0.  0.
   -5000001    1    1    2    0    0  0.50831004826E+02 -0.33416679105E+03  0.15947050078E+04  0.16409385416E+04  0.18800000000E+03 0.  0.
<mgrwt>
<rscale>  0 0.78756783E+03</rscale>
<asrwt>0</asrwt>
<pdfrwt beam="1">  1        2 0.38914336E+00 0.78756783E+03</pdfrwt>
<pdfrwt beam="2">  1       -2 0.81322409E-02 0.78756783E+03</pdfrwt>
<totfact> 0.33215904E+02</totfact>
</mgrwt>
</event>
<event>
 4    1  0.6034452E-005  0.4124958E+03  0.7818608E-02  0.1039537E+00
         -2   -1    0    0    0  501 -0.00000000000E+00  0.00000000000E+00  0.16822596561E+02  0.16822596754E+02  0.25500000000E-02 0. -1.
          2   -1    0    0  501    0  0.00000000000E+00 -0.00000000000E+00 -0.25286348558E+04  0.25286348558E+04  0.25500000000E-02 0.  1.
    5000001    1    1    2    0    0 -0.77053628638E+02  0.15707962948E+02 -0.10597732125E+04  0.10791882430E+04  0.18800000000E+03 0.  0.
   -5000001    1    1    2    0    0  0.77053628638E+02 -0.15707962948E+02 -0.14520390467E+04  0.14662692096E+04  0.18800000000E+03 0.  0.
<mgrwt>
<rscale>  0 0.41249584E+03</rscale>
<asrwt>0</asrwt>
<pdfrwt beam="1">  1        2 0.36123331E+00 0.41249584E+03</pdfrwt>
<pdfrwt beam="2">  1       -2 0.24032297E-02 0.41249584E+03</pdfrwt>
<totfact> 0.28346994E+03</totfact>
</mgrwt>
</event>
<event>
 4    1  0.6034452E-005  0.9247054E+03  0.7818608E-02  0.9395215E-01
          2   -1    0    0  501    0  0.00000000000E+00  0.00000000000E+00  0.52662232509E+03  0.52662232510E+03  0.25500000000E-02 0.  1.
         -2   -1    0    0    0  501 -0.00000000000E+00 -0.00000000000E+00 -0.40592665684E+03  0.40592665684E+03  0.25500000000E-02 0. -1.
    5000001    1    1    2    0    0 -0.36612854594E+03 -0.20671456394E+03  0.19445000153E+02  0.46098061904E+03  0.18800000000E+03 0.  0.
   -5000001    1    1    2    0    0  0.36612854594E+03  0.20671456394E+03  0.10125066811E+03  0.47156836290E+03  0.18800000000E+03 0.  0.
<mgrwt>
<rscale>  0 0.92470544E+03</rscale>
<asrwt>0</asrwt>
<pdfrwt beam="1">  1        2 0.75231761E-01 0.92470544E+03</pdfrwt>
<pdfrwt beam="2">  1       -2 0.57989522E-01 0.92470544E+03</pdfrwt>
<totfact> 0.17641953E+02</totfact>
</mgrwt>
</event>
<event>
 4    1  0.6034452E-005  0.5030616E+03  0.7818608E-02  0.1012983E+00
         -2   -1    0    0    0  501 -0.00000000000E+00  0.00000000000E+00  0.13018193452E+03  0.13018193454E+03  0.25500000000E-02 0. -1.
          2   -1    0    0  501    0  0.00000000000E+00 -0.00000000000E+00 -0.48599475909E+03  0.48599475909E+03  0.25500000000E-02 0.  1.
    5000001    1    1    2    0    0 -0.59265813184E+02  0.13110826094E+03 -0.28199679654E+03  0.36819560828E+03  0.18800000000E+03 0.  0.
   -5000001    1    1    2    0    0  0.59265813184E+02 -0.13110826094E+03 -0.73816028034E+02  0.24798108535E+03  0.18800000000E+03 0.  0.
<mgrwt>
<rscale>  0 0.50306158E+03</rscale>
<asrwt>0</asrwt>
<pdfrwt beam="1">  1        2 0.69427822E-01 0.50306158E+03</pdfrwt>
<pdfrwt beam="2">  1       -2 0.18597419E-01 0.50306158E+03</pdfrwt>
<totfact> 0.16749323E+03</totfact>
</mgrwt>
</event>
<event>
 4    1  0.6034452E-005  0.6933967E+03  0.7818608E-02  0.9728592E-01
         -2   -1    0    0    0  501 -0.00000000000E+00  0.00000000000E+00  0.76277685745E+02  0.76277685788E+02  0.25500000000E-02 0. -1.
          2   -1    0    0  501    0  0.00000000000E+00 -0.00000000000E+00 -0.15758181667E+04  0.15758181667E+04  0.25500000000E-02 0.  1.
    5000001    1    1    2    0    0  0.27048663428E+03 -0.10522170392E+03 -0.80915117371E+03  0.87994559389E+03  0.18800000000E+03 0.  0.
   -5000001    1    1    2    0    0 -0.27048663428E+03  0.10522170392E+03 -0.69038930728E+03  0.77215025863E+03  0.18800000000E+03 0.  0.
<mgrwt>
<rscale>  0 0.69339675E+03</rscale>
<asrwt>0</asrwt>
<pdfrwt beam="1">  1        2 0.22511686E+00 0.69339675E+03</pdfrwt>
<pdfrwt beam="2">  1       -2 0.10896813E-01 0.69339675E+03</pdfrwt>
<totfact> 0.80563055E+02</totfact>
</mgrwt>
</event>
<event>
 4    1  0.6034452E-005  0.4839996E+03  0.7818608E-02  0.1018042E+00
         -2   -1    0    0    0  501 -0.00000000000E+00  0.00000000000E+00  0.35013067902E+02  0.35013067995E+02  0.25500000000E-02 0. -1.
          2   -1    0    0  501    0  0.00000000000E+00 -0.00000000000E+00 -0.16726296812E+04  0.16726296812E+04  0.25500000000E-02 0.  1.
    5000001    1    1    2    0    0 -0.12839650519E+03  0.53363920773E+02 -0.10387627978E+04  0.10647560851E+04  0.18800000000E+03 0.  0.
   -5000001    1    1    2    0    0  0.12839650519E+03 -0.53363920773E+02 -0.59885381549E+03  0.64288666413E+03  0.18800000000E+03 0.  0.
<mgrwt>
<rscale>  0 0.48399957E+03</rscale>
<asrwt>0</asrwt>
<pdfrwt beam="1">  1        2 0.23894705E+00 0.48399957E+03</pdfrwt>
<pdfrwt beam="2">  1       -2 0.50018679E-02 0.48399957E+03</pdfrwt>
<totfact> 0.24915476E+03</totfact>
</mgrwt>
</event>
<event>
 4    1  0.6034452E-005  0.4403045E+03  0.7818608E-02  0.1030653E+00
         -2   -1    0    0    0  501 -0.00000000000E+00  0.00000000000E+00  0.18635798986E+02  0.18635799160E+02  0.25500000000E-02 0. -1.
          2   -1    0    0  501    0  0.00000000000E+00 -0.00000000000E+00 -0.26007474122E+04  0.26007474122E+04  0.25500000000E-02 0.  1.
    5000001    1    1    2    0    0 -0.64834856582E+02  0.93717198341E+02 -0.12215426727E+04  0.12411675847E+04  0.18800000000E+03 0.  0.
   -5000001    1    1    2    0    0  0.64834856582E+02 -0.93717198341E+02 -0.13605689405E+04  0.13782156267E+04  0.18800000000E+03 0.  0.
<mgrwt>
<rscale>  0 0.44030447E+03</rscale>
<asrwt>0</asrwt>
<pdfrwt beam="1">  1        2 0.37153511E+00 0.44030447E+03</pdfrwt>
<pdfrwt beam="2">  1       -2 0.26622587E-02 0.44030447E+03</pdfrwt>
<totfact> 0.22303382E+03</totfact>
</mgrwt>
</event>
<event>
 4    1  0.6034452E-005  0.5619969E+03  0.7818608E-02  0.9987546E-01
         -2   -1    0    0    0  501 -0.00000000000E+00  0.00000000000E+00  0.44249039483E+03  0.44249039484E+03  0.25500000000E-02 0. -1.
          2   -1    0    0  501    0  0.00000000000E+00 -0.00000000000E+00 -0.17844481294E+03  0.17844481296E+03  0.25500000000E-02 0.  1.
    5000001    1    1    2    0    0 -0.15889398658E+03 -0.34606721635E+02  0.27680413992E+03  0.37203421352E+03  0.18800000000E+03 0.  0.
   -5000001    1    1    2    0    0  0.15889398658E+03  0.34606721635E+02 -0.12758558018E+02  0.24890099428E+03  0.18800000000E+03 0.  0.
<mgrwt>
<rscale>  0 0.56199685E+03</rscale>
<asrwt>0</asrwt>
<pdfrwt beam="1">  1        2 0.25492116E-01 0.56199685E+03</pdfrwt>
<pdfrwt beam="2">  1       -2 0.63212913E-01 0.56199685E+03</pdfrwt>
<totfact> 0.50083127E+02</totfact>
</mgrwt>
</event>
<event>
 4    1  0.6034452E-005  0.6514491E+03  0.7818608E-02  0.9804064E-01
         -2   -1    0    0    0  501 -0.00000000000E+00  0.00000000000E+00  0.89288917236E+02  0.89288917272E+02  0.25500000000E-02 0. -1.
          2   -1    0    0  501    0  0.00000000000E+00 -0.00000000000E+00 -0.11882379463E+04  0.11882379463E+04  0.25500000000E-02 0.  1.
    5000001    1    1    2    0    0 -0.23586256336E+03 -0.36558402988E+01 -0.79051642104E+03  0.84611153277E+03  0.18800000000E+03 0.  0.
   -5000001    1    1    2    0    0  0.23586256336E+03  0.36558402988E+01 -0.30843260805E+03  0.43141533082E+03  0.18800000000E+03 0.  0.
<mgrwt>
<rscale>  0 0.65144909E+03</rscale>
<asrwt>0</asrwt>
<pdfrwt beam="1">  1        2 0.16974827E+00 0.65144909E+03</pdfrwt>
<pdfrwt beam="2">  1       -2 0.12755560E-01 0.65144909E+03</pdfrwt>
<totfact> 0.10055511E+03</totfact>
</mgrwt>
</event>
<event>
 4    1  0.6034452E-005  0.5072496E+03  0.7818608E-02  0.1011904E+00
         -2   -1    0    0    0  501 -0.00000000000E+00  0.00000000000E+00  0.88750867714E+02  0.88750867751E+02  0.25500000000E-02 0. -1.
          2   -1    0    0  501    0  0.00000000000E+00 -0.00000000000E+00 -0.72478785440E+03  0.72478785440E+03  0.25500000000E-02 0.  1.
    5000001    1    1    2    0    0 -0.11533189015E+02  0.12516067994E+03 -0.13386955706E+03  0.26279891278E+03  0.18800000000E+03 0.  0.
   -5000001    1    1    2    0    0  0.11533189015E+02 -0.12516067994E+03 -0.50216742963E+03  0.55073980938E+03  0.18800000000E+03 0.  0.
<mgrwt>
<rscale>  0 0.50724965E+03</rscale>
<asrwt>0</asrwt>
<pdfrwt beam="1">  1        2 0.10354112E+00 0.50724965E+03</pdfrwt>
<pdfrwt beam="2">  1       -2 0.12678696E-01 0.50724965E+03</pdfrwt>
<totfact> 0.19982972E+03</totfact>
</mgrwt>
</event>
<event>
 4    1  0.6034452E-005  0.4450487E+03  0.7818608E-02  0.1029209E+00
          2   -1    0    0  501    0  0.00000000000E+00  0.00000000000E+00  0.18957261519E+04  0.18957261519E+04  0.25500000000E-02 0.  1.
         -2   -1    0    0    0  501 -0.00000000000E+00 -0.00000000000E+00 -0.26120384177E+02  0.26120384302E+02  0.25500000000E-02 0. -1.
    5000001    1    1    2    0    0 -0.21098286409E+02 -0.11494295869E+03  0.83670330483E+03  0.86549028981E+03  0.18800000000E+03 0.  0.
   -5000001    1    1    2    0    0  0.21098286409E+02  0.11494295869E+03  0.10329024629E+04  0.10563562464E+04  0.18800000000E+03 0.  0.
<mgrwt>
<rscale>  0 0.44504874E+03</rscale>
<asrwt>0</asrwt>
<pdfrwt beam="1">  1        2 0.27081807E+00 0.44504874E+03</pdfrwt>
<pdfrwt beam="2">  1       -2 0.37314828E-02 0.44504874E+03</pdfrwt>
<totfact> 0.30202034E+03</totfact>
</mgrwt>
</event>
<event>
 4    1  0.6034452E-005  0.5444463E+03  0.7818608E-02  0.1002788E+00
         -2   -1    0    0    0  501 -0.00000000000E+00  0.00000000000E+00  0.11177979290E+03  0.11177979292E+03  0.25500000000E-02 0. -1.
          2   -1    0    0  501    0  0.00000000000E+00 -0.00000000000E+00 -0.66295909553E+03  0.66295909553E+03  0.25500000000E-02 0.  1.
    5000001    1    1    2    0    0 -0.18016130711E+03  0.63121220221E+02 -0.20706371667E+03  0.33861743574E+03  0.18800000000E+03 0.  0.
   -5000001    1    1    2    0    0  0.18016130711E+03 -0.63121220221E+02 -0.34411558596E+03  0.43612145272E+03  0.18800000000E+03 0.  0.
<mgrwt>
<rscale>  0 0.54444625E+03</rscale>
<asrwt>0</asrwt>
<pdfrwt beam="1">  1        2 0.94708440E-01 0.54444625E+03</pdfrwt>
<pdfrwt beam="2">  1       -2 0.15968542E-01 0.54444625E+03</pdfrwt>
<totfact> 0.15150080E+03</totfact>
</mgrwt>
</event>
<event>
 4    1  0.6034452E-005  0.6916966E+03  0.7818608E-02  0.9731538E-01
          2   -1    0    0  501    0  0.00000000000E+00  0.00000000000E+00  0.16637017991E+03  0.16637017993E+03  0.25500000000E-02 0.  1.
         -2   -1    0    0    0  501 -0.00000000000E+00 -0.00000000000E+00 -0.71894531961E+03  0.71894531961E+03  0.25500000000E-02 0. -1.
    5000001    1    1    2    0    0  0.24527440989E+03 -0.90313187218E+02 -0.11463705415E+03  0.34176258151E+03  0.18800000000E+03 0.  0.
   -5000001    1    1    2    0    0 -0.24527440989E+03  0.90313187218E+02 -0.43793808555E+03  0.54355291804E+03  0.18800000000E+03 0.  0.
<mgrwt>
<rscale>  0 0.69169665E+03</rscale>
<asrwt>0</asrwt>
<pdfrwt beam="1">  1        2 0.23767169E-01 0.69169665E+03</pdfrwt>
<pdfrwt beam="2">  1       -2 0.10270647E+00 0.69169665E+03</pdfrwt>
<totfact> 0.18193097E+02</totfact>
</mgrwt>
</event>
<event>
 4    1  0.6034452E-005  0.3913497E+03  0.7818608E-02  0.1046817E+00
          2   -1    0    0  501    0  0.00000000000E+00  0.00000000000E+00  0.22306667915E+04  0.22306667915E+04  0.25500000000E-02 0.  1.
         -2   -1    0    0    0  501 -0.00000000000E+00 -0.00000000000E+00 -0.17164663033E+02  0.17164663222E+02  0.25500000000E-02 0. -1.
    5000001    1    1    2    0    0 -0.18731858177E+00 -0.48856213349E+02  0.97111004623E+03  0.99034624579E+03  0.18800000000E+03 0.  0.
   -5000001    1    1    2    0    0  0.18731858177E+00  0.48856213349E+02  0.12423920823E+04  0.12574852090E+04  0.18800000000E+03 0.  0.
<mgrwt>
<rscale>  0 0.39134969E+03</rscale>
<asrwt>0</asrwt>
<pdfrwt beam="1">  1        2 0.31866642E+00 0.39134969E+03</pdfrwt>
<pdfrwt beam="2">  1       -2 0.24520968E-02 0.39134969E+03</pdfrwt>
<totfact> 0.38843660E+03</totfact>
</mgrwt>
</event>
<event>
 4    1  0.6034452E-005  0.4634052E+03  0.7818608E-02  0.1023798E+00
         -2   -1    0    0    0  501 -0.00000000000E+00  0.00000000000E+00  0.72777538546E+02  0.72777538591E+02  0.25500000000E-02 0. -1.
          2   -1    0    0  501    0  0.00000000000E+00 -0.00000000000E+00 -0.73767382463E+03  0.73767382463E+03  0.25500000000E-02 0.  1.
    5000001    1    1    2    0    0 -0.16396712567E+02  0.10647076222E+03 -0.18889717346E+03  0.28745611410E+03  0.18800000000E+03 0.  0.
   -5000001    1    1    2    0    0  0.16396712567E+02 -0.10647076222E+03 -0.47599911262E+03  0.52299524913E+03  0.18800000000E+03 0.  0.
<mgrwt>
<rscale>  0 0.46340516E+03</rscale>
<asrwt>0</asrwt>
<pdfrwt beam="1">  1        2 0.10538197E+00 0.46340516E+03</pdfrwt>
<pdfrwt beam="2">  1       -2 0.10396792E-01 0.46340516E+03</pdfrwt>
<totfact> 0.27020507E+03</totfact>
</mgrwt>
</event>
<event>
 4    1  0.6034452E-005  0.4582248E+03  0.7818608E-02  0.1025297E+00
          2   -1    0    0  501    0  0.00000000000E+00  0.00000000000E+00  0.90913322847E+03  0.90913322848E+03  0.25500000000E-02 0.  1.
         -2   -1    0    0    0  501 -0.00000000000E+00 -0.00000000000E+00 -0.57739056100E+02  0.57739056156E+02  0.25500000000E-02 0. -1.
    5000001    1    1    2    0    0 -0.23359191131E+02  0.10551889779E+03  0.26965965790E+03  0.34603499924E+03  0.18800000000E+03 0.  0.
   -5000001    1    1    2    0    0  0.23359191131E+02 -0.10551889779E+03  0.58173451448E+03  0.62083728539E+03  0.18800000000E+03 0.  0.
<mgrwt>
<rscale>  0 0.45822481E+03</rscale>
<asrwt>0</asrwt>
<pdfrwt beam="1">  1        2 0.12987618E+00 0.45822481E+03</pdfrwt>
<pdfrwt beam="2">  1       -2 0.82484361E-02 0.45822481E+03</pdfrwt>
<totfact> 0.29969664E+03</totfact>
</mgrwt>
</event>
<event>
 4    1  0.6034452E-005  0.5549596E+03  0.7818608E-02  0.1000352E+00
         -2   -1    0    0    0  501 -0.00000000000E+00  0.00000000000E+00  0.85379475207E+02  0.85379475245E+02  0.25500000000E-02 0. -1.
          2   -1    0    0  501    0  0.00000000000E+00 -0.00000000000E+00 -0.90179785919E+03  0.90179785919E+03  0.25500000000E-02 0.  1.
    5000001    1    1    2    0    0  0.15059286177E+03 -0.90491404623E+02 -0.59293444439E+03  0.64636070400E+03  0.18800000000E+03 0.  0.
   -5000001    1    1    2    0    0 -0.15059286177E+03  0.90491404623E+02 -0.22348393959E+03  0.34081663044E+03  0.18800000000E+03 0.  0.
<mgrwt>
<rscale>  0 0.55495956E+03</rscale>
<asrwt>0</asrwt>
<pdfrwt beam="1">  1        2 0.12882826E+00 0.55495956E+03</pdfrwt>
<pdfrwt beam="2">  1       -2 0.12197068E-01 0.55495956E+03</pdfrwt>
<totfact> 0.16104126E+03</totfact>
</mgrwt>
</event>
<event>
 4    1  0.6034452E-005  0.9247129E+03  0.7818608E-02  0.9395206E-01
          2   -1    0    0  501    0  0.00000000000E+00  0.00000000000E+00  0.11934156558E+04  0.11934156558E+04  0.25500000000E-02 0.  1.
         -2   -1    0    0    0  501 -0.00000000000E+00 -0.00000000000E+00 -0.17912742979E+03  0.17912742981E+03  0.25500000000E-02 0. -1.
    5000001    1    1    2    0    0  0.24693977210E+03  0.29899790774E+03  0.75573729915E+03  0.86997808318E+03  0.18800000000E+03 0.  0.
   -5000001    1    1    2    0    0 -0.24693977210E+03 -0.29899790774E+03  0.25855092683E+03  0.50256500241E+03  0.18800000000E+03 0.  0.
<mgrwt>
<rscale>  0 0.92471288E+03</rscale>
<asrwt>0</asrwt>
<pdfrwt beam="1">  1        2 0.17048795E+00 0.92471288E+03</pdfrwt>
<pdfrwt beam="2">  1       -2 0.25589633E-01 0.92471288E+03</pdfrwt>
<totfact> 0.29590686E+02</totfact>
</mgrwt>
</event>
<event>
 4    1  0.6034452E-005  0.5809451E+03  0.7818608E-02  0.9945747E-01
         -2   -1    0    0    0  501 -0.00000000000E+00  0.00000000000E+00  0.16382608856E+03  0.16382608858E+03  0.25500000000E-02 0. -1.
          2   -1    0    0  501    0  0.00000000000E+00 -0.00000000000E+00 -0.51502359629E+03  0.51502359630E+03  0.25500000000E-02 0.  1.
    5000001    1    1    2    0    0 -0.89173319284E+02  0.13043443251E+03 -0.35687211319E+03  0.43320517913E+03  0.18800000000E+03 0.  0.
   -5000001    1    1    2    0    0  0.89173319284E+02 -0.13043443251E+03  0.56746054579E+01  0.24564450574E+03  0.18800000000E+03 0.  0.
<mgrwt>
<rscale>  0 0.58094510E+03</rscale>
<asrwt>0</asrwt>
<pdfrwt beam="1">  1        2 0.73574799E-01 0.58094510E+03</pdfrwt>
<pdfrwt beam="2">  1       -2 0.23403727E-01 0.58094510E+03</pdfrwt>
<totfact> 0.10492307E+03</totfact>
</mgrwt>
</event>
<event>
 4    1  0.6034452E-005  0.4040208E+03  0.7818608E-02  0.1042396E+00
         -2   -1    0    0    0  501 -0.00000000000E+00  0.00000000000E+00  0.61847238569E+02  0.61847238622E+02  0.25500000000E-02 0. -1.
          2   -1    0    0  501    0  0.00000000000E+00 -0.00000000000E+00 -0.65982247361E+03  0.65982247362E+03  0.25500000000E-02 0.  1.
    5000001    1    1    2    0    0 -0.73451610933E+02 -0.30743402368E+01 -0.31277825339E+03  0.37226177148E+03  0.18800000000E+03 0.  0.
   -5000001    1    1    2    0    0  0.73451610933E+02  0.30743402368E+01 -0.28519698165E+03  0.34940794075E+03  0.18800000000E+03 0.  0.
<mgrwt>
<rscale>  0 0.40402078E+03</rscale>
<asrwt>0</asrwt>
<pdfrwt beam="1">  1        2 0.94260349E-01 0.40402078E+03</pdfrwt>
<pdfrwt beam="2">  1       -2 0.88353202E-02 0.40402078E+03</pdfrwt>
<totfact> 0.40070964E+03</totfact>
</mgrwt>
</event>
<event>
 4    1  0.6034452E-005  0.5722474E+03  0.7818608E-02  0.9964718E-01
         -2   -1    0    0    0  501 -0.00000000000E+00  0.00000000000E+00  0.11036294206E+03  0.11036294209E+03  0.25500000000E-02 0. -1.
          2   -1    0    0  501    0  0.00000000000E+00 -0.00000000000E+00 -0.74179572749E+03  0.74179572749E+03  0.25500000000E-02 0.  1.
    5000001    1    1    2    0    0 -0.24227754753E+02  0.21292253048E+03 -0.35218585318E+03  0.45310248650E+03  0.18800000000E+03 0.  0.
   -5000001    1    1    2    0    0  0.24227754753E+02 -0.21292253048E+03 -0.27924693224E+03  0.39905618308E+03  0.18800000000E+03 0.  0.
<mgrwt>
<rscale>  0 0.57224736E+03</rscale>
<asrwt>0</asrwt>
<pdfrwt beam="1">  1        2 0.10597082E+00 0.57224736E+03</pdfrwt>
<pdfrwt beam="2">  1       -2 0.15766135E-01 0.57224736E+03</pdfrwt>
<totfact> 0.13492153E+03</totfact>
</mgrwt>
</event>
<event>
 4    1  0.6034452E-005  0.4903428E+03  0.7818608E-02  0.1016331E+00
         -2   -1    0    0    0  501 -0.00000000000E+00  0.00000000000E+00  0.35836025477E+03  0.35836025478E+03  0.25500000000E-02 0. -1.
          2   -1    0    0  501    0  0.00000000000E+00 -0.00000000000E+00 -0.16773348991E+03  0.16773348993E+03  0.25500000000E-02 0.  1.
    5000001    1    1    2    0    0 -0.14601654623E+03 -0.51161719695E+02  0.64465344706E+02  0.25186927959E+03  0.18800000000E+03 0.  0.
   -5000001    1    1    2    0    0  0.14601654623E+03  0.51161719695E+02  0.12616142015E+03  0.27422446512E+03  0.18800000000E+03 0.  0.
<mgrwt>
<rscale>  0 0.49034280E+03</rscale>
<asrwt>0</asrwt>
<pdfrwt beam="1">  1        2 0.23961927E-01 0.49034280E+03</pdfrwt>
<pdfrwt beam="2">  1       -2 0.51194322E-01 0.49034280E+03</pdfrwt>
<totfact> 0.83298806E+02</totfact>
</mgrwt>
</event>
<event>
 4    1  0.6034452E-005  0.5584896E+03  0.7818608E-02  0.9995478E-01
         -2   -1    0    0    0  501 -0.00000000000E+00  0.00000000000E+00  0.44414443997E+02  0.44414444070E+02  0.25500000000E-02 0. -1.
          2   -1    0    0  501    0  0.00000000000E+00 -0.00000000000E+00 -0.17556824495E+04  0.17556824495E+04  0.25500000000E-02 0.  1.
    5000001    1    1    2    0    0 -0.18230915007E+03 -0.76242148973E+02 -0.10485974247E+04  0.10834897556E+04  0.18800000000E+03 0.  0.
   -5000001    1    1    2    0    0  0.18230915007E+03  0.76242148973E+02 -0.66267058081E+03  0.71660713794E+03  0.18800000000E+03 0.  0.
<mgrwt>
<rscale>  0 0.55848961E+03</rscale>
<asrwt>0</asrwt>
<pdfrwt beam="1">  1        2 0.25081173E+00 0.55848961E+03</pdfrwt>
<pdfrwt beam="2">  1       -2 0.63449217E-02 0.55848961E+03</pdfrwt>
<totfact> 0.15586264E+03</totfact>
</mgrwt>
</event>
<event>
 4    1  0.6034452E-005  0.4987158E+03  0.7818608E-02  0.1014115E+00
         -2   -1    0    0    0  501 -0.00000000000E+00  0.00000000000E+00  0.74092635861E+02  0.74092635905E+02  0.25500000000E-02 0. -1.
          2   -1    0    0  501    0  0.00000000000E+00 -0.00000000000E+00 -0.83921113047E+03  0.83921113047E+03  0.25500000000E-02 0.  1.
    5000001    1    1    2    0    0 -0.28816651292E+02  0.14442471660E+03 -0.51393544566E+03  0.56671204369E+03  0.18800000000E+03 0.  0.
   -5000001    1    1    2    0    0  0.28816651292E+02 -0.14442471660E+03 -0.25118304895E+03  0.34659172269E+03  0.18800000000E+03 0.  0.
<mgrwt>
<rscale>  0 0.49871581E+03</rscale>
<asrwt>0</asrwt>
<pdfrwt beam="1">  1        2 0.11988730E+00 0.49871581E+03</pdfrwt>
<pdfrwt beam="2">  1       -2 0.10584663E-01 0.49871581E+03</pdfrwt>
<totfact> 0.22318195E+03</totfact>
</mgrwt>
</event>
<event>
 4    1  0.6034452E-005  0.6869070E+03  0.7818608E-02  0.9739889E-01
         -2   -1    0    0    0  501 -0.00000000000E+00  0.00000000000E+00  0.12080207143E+03  0.12080207146E+03  0.25500000000E-02 0. -1.
          2   -1    0    0  501    0  0.00000000000E+00 -0.00000000000E+00 -0.97647576711E+03  0.97647576711E+03  0.25500000000E-02 0.  1.
    5000001    1    1    2    0    0  0.37008417953E+02 -0.26509809071E+03 -0.26052928965E+03  0.41816997915E+03  0.18800000000E+03 0.  0.
   -5000001    1    1    2    0    0 -0.37008417953E+02  0.26509809071E+03 -0.59514440603E+03  0.67910785942E+03  0.18800000000E+03 0.  0.
<mgrwt>
<rscale>  0 0.68690697E+03</rscale>
<asrwt>0</asrwt>
<pdfrwt beam="1">  1        2 0.13949653E+00 0.68690697E+03</pdfrwt>
<pdfrwt beam="2">  1       -2 0.17257439E-01 0.68690697E+03</pdfrwt>
<totfact> 0.80445707E+02</totfact>
</mgrwt>
</event>
<event>
 4    1  0.6034452E-005  0.5087145E+03  0.7818608E-02  0.1011529E+00
          2   -1    0    0  501    0  0.00000000000E+00  0.00000000000E+00  0.61663672079E+03  0.61663672079E+03  0.25500000000E-02 0.  1.
         -2   -1    0    0    0  501 -0.00000000000E+00 -0.00000000000E+00 -0.10492012508E+03  0.10492012511E+03  0.25500000000E-02 0. -1.
    5000001    1    1    2    0    0 -0.55697171788E+02 -0.15967858988E+03  0.29481054298E+03  0.38840273334E+03  0.18800000000E+03 0.  0.
   -5000001    1    1    2    0    0  0.55697171788E+02  0.15967858988E+03  0.21690605273E+03  0.33315411257E+03  0.18800000000E+03 0.  0.
<mgrwt>
<rscale>  0 0.50871447E+03</rscale>
<asrwt>0</asrwt>
<pdfrwt beam="1">  1        2 0.88090957E-01 0.50871447E+03</pdfrwt>
<pdfrwt beam="2">  1       -2 0.14988590E-01 0.50871447E+03</pdfrwt>
<totfact> 0.18371430E+03</totfact>
</mgrwt>
</event>
<event>
 4    1  0.6034452E-005  0.5102152E+03  0.7818608E-02  0.1011146E+00
         -2   -1    0    0    0  501 -0.00000000000E+00  0.00000000000E+00  0.20066267787E+03  0.20066267789E+03  0.25500000000E-02 0. -1.
          2   -1    0    0  501    0  0.00000000000E+00 -0.00000000000E+00 -0.32432486651E+03  0.32432486652E+03  0.25500000000E-02 0.  1.
    5000001    1    1    2    0    0  0.67604732761E+02  0.11866860208E+03  0.46494061736E+02  0.23697749848E+03  0.18800000000E+03 0.  0.
   -5000001    1    1    2    0    0 -0.67604732761E+02 -0.11866860208E+03 -0.17015625037E+03  0.28801004592E+03  0.18800000000E+03 0.  0.
<mgrwt>
<rscale>  0 0.51021523E+03</rscale>
<asrwt>0</asrwt>
<pdfrwt beam="1">  1        2 0.46332123E-01 0.51021523E+03</pdfrwt>
<pdfrwt beam="2">  1       -2 0.28666097E-01 0.51021523E+03</pdfrwt>
<totfact> 0.12187028E+03</totfact>
</mgrwt>
</event>
<event>
 4    1  0.6034452E-005  0.5914923E+03  0.7818608E-02  0.9923216E-01
         -2   -1    0    0    0  501 -0.00000000000E+00  0.00000000000E+00  0.53760706739E+02  0.53760706799E+02  0.25500000000E-02 0. -1.
          2   -1    0    0  501    0  0.00000000000E+00 -0.00000000000E+00 -0.16269461919E+04  0.16269461919E+04  0.25500000000E-02 0.  1.
    5000001    1    1    2    0    0 -0.23515571119E+02 -0.21596114685E+03 -0.58709049902E+03  0.65361414694E+03  0.18800000000E+03 0.  0.
   -5000001    1    1    2    0    0  0.23515571119E+02  0.21596114685E+03 -0.98609498610E+03  0.10270927517E+04  0.18800000000E+03 0.  0.
<mgrwt>
<rscale>  0 0.59149227E+03</rscale>
<asrwt>0</asrwt>
<pdfrwt beam="1">  1        2 0.23242085E+00 0.59149227E+03</pdfrwt>
<pdfrwt beam="2">  1       -2 0.76801020E-02 0.59149227E+03</pdfrwt>
<totfact> 0.13386849E+03</totfact>
</mgrwt>
</event>
<event>
 4    1  0.6034452E-005  0.4562506E+03  0.7818608E-02  0.1025874E+00
          2   -1    0    0  501    0  0.00000000000E+00  0.00000000000E+00  0.71672604289E+02  0.71672604334E+02  0.25500000000E-02 0.  1.
         -2   -1    0    0    0  501 -0.00000000000E+00 -0.00000000000E+00 -0.72609551414E+03  0.72609551414E+03  0.25500000000E-02 0. -1.
    5000001    1    1    2    0    0 -0.77687930797E+02 -0.57965693269E+02 -0.47662356786E+03  0.52144938549E+03  0.18800000000E+03 0.  0.
   -5000001    1    1    2    0    0  0.77687930797E+02  0.57965693269E+02 -0.17779934199E+03  0.27631873299E+03  0.18800000000E+03 0.  0.
<mgrwt>
<rscale>  0 0.45625062E+03</rscale>
<asrwt>0</asrwt>
<pdfrwt beam="1">  1        2 0.10238944E-01 0.45625062E+03</pdfrwt>
<pdfrwt beam="2">  1       -2 0.10372793E+00 0.45625062E+03</pdfrwt>
<totfact> 0.49254701E+02</totfact>
</mgrwt>
</event>
<event>
 4    1  0.6034452E-005  0.8872294E+03  0.7818608E-02  0.9441688E-01
          2   -1    0    0  501    0  0.00000000000E+00  0.00000000000E+00  0.18220693113E+04  0.18220693113E+04  0.25500000000E-02 0.  1.
         -2   -1    0    0    0  501 -0.00000000000E+00 -0.00000000000E+00 -0.10800576589E+03  0.10800576592E+03  0.25500000000E-02 0. -1.
    5000001    1    1    2    0    0  0.38340635734E+03 -0.10824668963E+03  0.74332262763E+03  0.86405457548E+03  0.18800000000E+03 0.  0.
   -5000001    1    1    2    0    0 -0.38340635734E+03  0.10824668963E+03  0.97074091778E+03  0.10660205017E+04  0.18800000000E+03 0.  0.
<mgrwt>
<rscale>  0 0.88722938E+03</rscale>
<asrwt>0</asrwt>
<pdfrwt beam="1">  1        2 0.26029561E+00 0.88722938E+03</pdfrwt>
<pdfrwt beam="2">  1       -2 0.15429395E-01 0.88722938E+03</pdfrwt>
<totfact> 0.33347445E+02</totfact>
</mgrwt>
</event>
<event>
 4    1  0.6034452E-005  0.6252081E+03  0.7818608E-02  0.9854445E-01
         -2   -1    0    0    0  501 -0.00000000000E+00  0.00000000000E+00  0.17571006047E+03  0.17571006049E+03  0.25500000000E-02 0. -1.
          2   -1    0    0  501    0  0.00000000000E+00 -0.00000000000E+00 -0.55615077314E+03  0.55615077314E+03  0.25500000000E-02 0.  1.
    5000001    1    1    2    0    0 -0.19935195461E+03 -0.13583667681E+03 -0.11449789100E+03  0.32656786679E+03  0.18800000000E+03 0.  0.
   -5000001    1    1    2    0    0  0.19935195461E+03  0.13583667681E+03 -0.26594282167E+03  0.40529296684E+03  0.18800000000E+03 0.  0.
<mgrwt>
<rscale>  0 0.62520808E+03</rscale>
<asrwt>0</asrwt>
<pdfrwt beam="1">  1        2 0.79450110E-01 0.62520808E+03</pdfrwt>
<pdfrwt beam="2">  1       -2 0.25101438E-01 0.62520808E+03</pdfrwt>
<totfact> 0.84692516E+02</totfact>
</mgrwt>
</event>
<event>
 4    1  0.6034452E-005  0.4318131E+03  0.7818608E-02  0.1033289E+00
          2   -1    0    0  501    0  0.00000000000E+00  0.00000000000E+00  0.37499480673E+03  0.37499480674E+03  0.25500000000E-02 0.  1.
         -2   -1    0    0    0  501 -0.00000000000E+00 -0.00000000000E+00 -0.12431009721E+03  0.12431009724E+03  0.25500000000E-02 0. -1.
    5000001    1    1    2    0    0  0.62695616779E+02 -0.66202454061E+02  0.18823198557E+03  0.28122728473E+03  0.18800000000E+03 0.  0.
   -5000001    1    1    2    0    0 -0.62695616779E+02  0.66202454061E+02  0.62452723952E+02  0.21807761925E+03  0.18800000000E+03 0.  0.
<mgrwt>
<rscale>  0 0.43181311E+03</rscale>
<asrwt>0</asrwt>
<pdfrwt beam="1">  1        2 0.53570688E-01 0.43181311E+03</pdfrwt>
<pdfrwt beam="2">  1       -2 0.17758585E-01 0.43181311E+03</pdfrwt>
<totfact> 0.24134633E+03</totfact>
</mgrwt>
</event>
<event>
 4    1  0.6034452E-005  0.4797869E+03  0.7818608E-02  0.1019194E+00
         -2   -1    0    0    0  501 -0.00000000000E+00  0.00000000000E+00  0.41911438046E+03  0.41911438047E+03  0.25500000000E-02 0. -1.
          2   -1    0    0  501    0  0.00000000000E+00 -0.00000000000E+00 -0.13731064236E+03  0.13731064238E+03  0.25500000000E-02 0.  1.
    5000001    1    1    2    0    0 -0.12633340419E+03 -0.77154975923E+02  0.12108957491E+03  0.26817849369E+03  0.18800000000E+03 0.  0.
   -5000001    1    1    2    0    0  0.12633340419E+03  0.77154975923E+02  0.16071416319E+03  0.28824652916E+03  0.18800000000E+03 0.  0.
<mgrwt>
<rscale>  0 0.47978689E+03</rscale>
<asrwt>0</asrwt>
<pdfrwt beam="1">  1        2 0.19615806E-01 0.47978689E+03</pdfrwt>
<pdfrwt beam="2">  1       -2 0.59873484E-01 0.47978689E+03</pdfrwt>
<totfact> 0.75999550E+02</totfact>
</mgrwt>
</event>
<event>
 4    1  0.6034452E-005  0.4705239E+03  0.7818608E-02  0.1021772E+00
          2   -1    0    0  501    0  0.00000000000E+00  0.00000000000E+00  0.13083235777E+04  0.13083235777E+04  0.25500000000E-02 0.  1.
         -2   -1    0    0    0  501 -0.00000000000E+00 -0.00000000000E+00 -0.42304653052E+02  0.42304653129E+02  0.25500000000E-02 0. -1.
    5000001    1    1    2    0    0 -0.11553014610E+03 -0.81550884183E+02  0.62573988574E+03  0.66849993715E+03  0.18800000000E+03 0.  0.
   -5000001    1    1    2    0    0  0.11553014610E+03  0.81550884183E+02  0.64027903891E+03  0.68212829368E+03  0.18800000000E+03 0.  0.
<mgrwt>
<rscale>  0 0.47052386E+03</rscale>
<asrwt>0</asrwt>
<pdfrwt beam="1">  1        2 0.18690339E+00 0.47052386E+03</pdfrwt>
<pdfrwt beam="2">  1       -2 0.60435211E-02 0.47052386E+03</pdfrwt>
<totfact> 0.28724274E+03</totfact>
</mgrwt>
</event>
<event>
 4    1  0.6034452E-005  0.7094081E+03  0.7818608E-02  0.9701277E-01
         -2   -1    0    0    0  501 -0.00000000000E+00  0.00000000000E+00  0.10301912260E+03  0.10301912263E+03  0.25500000000E-02 0. -1.
          2   -1    0    0  501    0  0.00000000000E+00 -0.00000000000E+00 -0.12212777411E+04  0.12212777411E+04  0.25500000000E-02 0.  1.
    5000001    1    1    2    0    0  0.79417786209E+02  0.28943335864E+03 -0.59609440054E+03  0.69336237872E+03  0.18800000000E+03 0.  0.
   -5000001    1    1    2    0    0 -0.79417786209E+02 -0.28943335864E+03 -0.52216421795E+03  0.63093448501E+03  0.18800000000E+03 0.  0.
<mgrwt>
<rscale>  0 0.70940810E+03</rscale>
<asrwt>0</asrwt>
<pdfrwt beam="1">  1        2 0.17446824E+00 0.70940810E+03</pdfrwt>
<pdfrwt beam="2">  1       -2 0.14717018E-01 0.70940810E+03</pdfrwt>
<totfact> 0.75696714E+02</totfact>
</mgrwt>
</event>
<event>
 4    1  0.6034452E-005  0.6371348E+03  0.7818608E-02  0.9831224E-01
          2   -1    0    0  501    0  0.00000000000E+00  0.00000000000E+00  0.61670889083E+03  0.61670889084E+03  0.25500000000E-02 0.  1.
         -2   -1    0    0    0  501 -0.00000000000E+00 -0.00000000000E+00 -0.16455929977E+03  0.16455929979E+03  0.25500000000E-02 0. -1.
    5000001    1    1    2    0    0  0.24155239757E+03 -0.39215054622E+02  0.32306108016E+03  0.44676374382E+03  0.18800000000E+03 0.  0.
   -5000001    1    1    2    0    0 -0.24155239757E+03  0.39215054622E+02  0.12908851091E+03  0.33450444680E+03  0.18800000000E+03 0.  0.
<mgrwt>
<rscale>  0 0.63713478E+03</rscale>
<asrwt>0</asrwt>
<pdfrwt beam="1">  1        2 0.88101270E-01 0.63713478E+03</pdfrwt>
<pdfrwt beam="2">  1       -2 0.23508471E-01 0.63713478E+03</pdfrwt>
<totfact> 0.84348354E+02</totfact>
</mgrwt>
</event>
<event>
 4    1  0.6034452E-005  0.4512367E+03  0.7818608E-02  0.1027354E+00
         -2   -1    0    0    0  501 -0.00000000000E+00  0.00000000000E+00  0.35605262080E+02  0.35605262171E+02  0.25500000000E-02 0. -1.
          2   -1    0    0  501    0  0.00000000000E+00 -0.00000000000E+00 -0.14296661715E+04  0.14296661715E+04  0.25500000000E-02 0.  1.
    5000001    1    1    2    0    0 -0.45987676396E+02 -0.93074709467E+02 -0.92158021455E+03  0.94627261388E+03  0.18800000000E+03 0.  0.
   -5000001    1    1    2    0    0  0.45987676396E+02  0.93074709467E+02 -0.47248069484E+03  0.51899881977E+03  0.18800000000E+03 0.  0.
<mgrwt>
<rscale>  0 0.45123670E+03</rscale>
<asrwt>0</asrwt>
<pdfrwt beam="1">  1        2 0.20423799E+00 0.45123670E+03</pdfrwt>
<pdfrwt beam="2">  1       -2 0.50864669E-02 0.45123670E+03</pdfrwt>
<totfact> 0.32364029E+03</totfact>
</mgrwt>
</event>
<event>
 4    1  0.6034452E-005  0.5716911E+03  0.7818608E-02  0.9965944E-01
          2   -1    0    0  501    0  0.00000000000E+00  0.00000000000E+00  0.12465831662E+04  0.12465831662E+04  0.25500000000E-02 0.  1.
         -2   -1    0    0    0  501 -0.00000000000E+00 -0.00000000000E+00 -0.65545299267E+02  0.65545299317E+02  0.25500000000E-02 0. -1.
    5000001    1    1    2    0    0 -0.10448989756E+03 -0.26886046845E+02  0.16283640956E+03  0.27111011505E+03  0.18800000000E+03 0.  0.
   -5000001    1    1    2    0    0  0.10448989756E+03  0.26886046845E+02  0.10182014574E+04  0.10410183504E+04  0.18800000000E+03 0.  0.
<mgrwt>
<rscale>  0 0.57169106E+03</rscale>
<asrwt>0</asrwt>
<pdfrwt beam="1">  1        2 0.17808331E+00 0.57169106E+03</pdfrwt>
<pdfrwt beam="2">  1       -2 0.93636144E-02 0.57169106E+03</pdfrwt>
<totfact> 0.15494917E+03</totfact>
</mgrwt>
</event>
<event>
 4    1  0.6034452E-005  0.9702904E+03  0.7818608E-02  0.9341744E-01
         -2   -1    0    0    0  501 -0.00000000000E+00  0.00000000000E+00  0.43826776091E+03  0.43826776092E+03  0.25500000000E-02 0. -1.
          2   -1    0    0  501    0  0.00000000000E+00 -0.00000000000E+00 -0.53703669850E+03  0.53703669851E+03  0.25500000000E-02 0.  1.
    5000001    1    1    2    0    0 -0.19078432176E+03 -0.32658416964E+03 -0.28929334141E+03  0.51194776557E+03  0.18800000000E+03 0.  0.
   -5000001    1    1    2    0    0  0.19078432176E+03  0.32658416964E+03  0.19052440382E+03  0.46335669386E+03  0.18800000000E+03 0.  0.
<mgrwt>
<rscale>  0 0.97029041E+03</rscale>
<asrwt>0</asrwt>
<pdfrwt beam="1">  1        2 0.76719528E-01 0.97029041E+03</pdfrwt>
<pdfrwt beam="2">  1       -2 0.62609680E-01 0.97029041E+03</pdfrwt>
<totfact> 0.14632386E+02</totfact>
</mgrwt>
</event>
<event>
 4    1  0.6034452E-005  0.7020811E+03  0.7818608E-02  0.9713680E-01
          2   -1    0    0  501    0  0.00000000000E+00  0.00000000000E+00  0.19633376664E+03  0.19633376666E+03  0.25500000000E-02 0.  1.
         -2   -1    0    0    0  501 -0.00000000000E+00 -0.00000000000E+00 -0.62765300981E+03  0.62765300981E+03  0.25500000000E-02 0. -1.
    5000001    1    1    2    0    0 -0.28965369834E+03 -0.20590066386E+02 -0.14561158347E+03  0.37532645662E+03  0.18800000000E+03 0.  0.
   -5000001    1    1    2    0    0  0.28965369834E+03  0.20590066386E+02 -0.28570765970E+03  0.44866031985E+03  0.18800000000E+03 0.  0.
<mgrwt>
<rscale>  0 0.70208113E+03</rscale>
<asrwt>0</asrwt>
<pdfrwt beam="1">  1        2 0.28047681E-01 0.70208113E+03</pdfrwt>
<pdfrwt beam="2">  1       -2 0.89664715E-01 0.70208113E+03</pdfrwt>
<totfact> 0.20676539E+02</totfact>
</mgrwt>
</event>
<event>
 4    1  0.6034452E-005  0.5287418E+03  0.7818608E-02  0.1006538E+00
          2   -1    0    0  501    0  0.00000000000E+00  0.00000000000E+00  0.45977514452E+03  0.45977514453E+03  0.25500000000E-02 0.  1.
         -2   -1    0    0    0  501 -0.00000000000E+00 -0.00000000000E+00 -0.15201336855E+03  0.15201336857E+03  0.25500000000E-02 0. -1.
    5000001    1    1    2    0    0 -0.18473405729E+02 -0.18059793167E+03  0.10772736001E+03  0.28267660628E+03  0.18800000000E+03 0.  0.
   -5000001    1    1    2    0    0  0.18473405729E+02  0.18059793167E+03  0.20003441597E+03  0.32911190682E+03  0.18800000000E+03 0.  0.
<mgrwt>
<rscale>  0 0.52874178E+03</rscale>
<asrwt>0</asrwt>
<pdfrwt beam="1">  1        2 0.65682165E-01 0.52874178E+03</pdfrwt>
<pdfrwt beam="2">  1       -2 0.21716195E-01 0.52874178E+03</pdfrwt>
<totfact> 0.13618333E+03</totfact>
</mgrwt>
</event>
<event>
 4    1  0.6034452E-005  0.9224035E+03  0.7818608E-02  0.9398001E-01
         -2   -1    0    0    0  501 -0.00000000000E+00  0.00000000000E+00  0.48555244465E+03  0.48555244466E+03  0.25500000000E-02 0. -1.
          2   -1    0    0  501    0  0.00000000000E+00 -0.00000000000E+00 -0.43807226212E+03  0.43807226213E+03  0.25500000000E-02 0.  1.
    5000001    1    1    2    0    0 -0.96322831895E+02 -0.33534655553E+03 -0.21242732705E+03  0.44967184649E+03  0.18800000000E+03 0.  0.
   -5000001    1    1    2    0    0  0.96322831895E+02  0.33534655553E+03  0.25990750958E+03  0.47395286030E+03  0.18800000000E+03 0.  0.
<mgrwt>
<rscale>  0 0.92240351E+03</rscale>
<asrwt>0</asrwt>
<pdfrwt beam="1">  1        2 0.62581751E-01 0.92240351E+03</pdfrwt>
<pdfrwt beam="2">  1       -2 0.69364636E-01 0.92240351E+03</pdfrwt>
<totfact> 0.14846453E+02</totfact>
</mgrwt>
</event>
<event>
 4    1  0.6034452E-005  0.4835192E+03  0.7818608E-02  0.1018172E+00
         -2   -1    0    0    0  501 -0.00000000000E+00  0.00000000000E+00  0.59578023814E+02  0.59578023869E+02  0.25500000000E-02 0. -1.
          2   -1    0    0  501    0  0.00000000000E+00 -0.00000000000E+00 -0.98102788191E+03  0.98102788191E+03  0.25500000000E-02 0.  1.
    5000001    1    1    2    0    0  0.24700813352E+02  0.12335744257E+03 -0.64430868239E+03  0.68286518949E+03  0.18800000000E+03 0.  0.
   -5000001    1    1    2    0    0 -0.24700813352E+02 -0.12335744257E+03 -0.27714117570E+03  0.35774071628E+03  0.18800000000E+03 0.  0.
<mgrwt>
<rscale>  0 0.48351919E+03</rscale>
<asrwt>0</asrwt>
<pdfrwt beam="1">  1        2 0.14014683E+00 0.48351919E+03</pdfrwt>
<pdfrwt beam="2">  1       -2 0.85111469E-02 0.48351919E+03</pdfrwt>
<totfact> 0.25725893E+03</totfact>
</mgrwt>
</event>
<event>
 4    1  0.6034452E-005  0.8303573E+03  0.7818608E-02  0.9517087E-01
         -2   -1    0    0    0  501 -0.00000000000E+00  0.00000000000E+00  0.12042584950E+03  0.12042584953E+03  0.25500000000E-02 0. -1.
          2   -1    0    0  501    0  0.00000000000E+00 -0.00000000000E+00 -0.14313648697E+04  0.14313648697E+04  0.25500000000E-02 0.  1.
    5000001    1    1    2    0    0  0.29706994645E+02  0.36372492447E+03 -0.77144203546E+03  0.87386791924E+03  0.18800000000E+03 0.  0.
   -5000001    1    1    2    0    0 -0.29706994645E+02 -0.36372492447E+03 -0.53949698474E+03  0.67792279999E+03  0.18800000000E+03 0.  0.
<mgrwt>
<rscale>  0 0.83035735E+03</rscale>
<asrwt>0</asrwt>
<pdfrwt beam="1">  1        2 0.20448068E+00 0.83035735E+03</pdfrwt>
<pdfrwt beam="2">  1       -2 0.17203694E-01 0.83035735E+03</pdfrwt>
<totfact> 0.44331587E+02</totfact>
</mgrwt>
</event>
<event>
 4    1  0.6034452E-005  0.6322186E+03  0.7818608E-02  0.9840729E-01
         -2   -1    0    0    0  501 -0.00000000000E+00  0.00000000000E+00  0.12603176749E+03  0.12603176752E+03  0.25500000000E-02 0. -1.
          2   -1    0    0  501    0  0.00000000000E+00 -0.00000000000E+00 -0.79285635551E+03  0.79285635552E+03  0.25500000000E-02 0.  1.
    5000001    1    1    2    0    0  0.23897515803E+03  0.56971472604E+01 -0.45877471494E+03  0.55041786191E+03  0.18800000000E+03 0.  0.
   -5000001    1    1    2    0    0 -0.23897515803E+03 -0.56971472604E+01 -0.20804987308E+03  0.36847026112E+03  0.18800000000E+03 0.  0.
<mgrwt>
<rscale>  0 0.63221859E+03</rscale>
<asrwt>0</asrwt>
<pdfrwt beam="1">  1        2 0.11326519E+00 0.63221859E+03</pdfrwt>
<pdfrwt beam="2">  1       -2 0.18004539E-01 0.63221859E+03</pdfrwt>
<totfact> 0.98842802E+02</totfact>
</mgrwt>
</event>
<event>
 4    1  0.6034452E-005  0.9235857E+03  0.7818608E-02  0.9396569E-01
          2   -1    0    0  501    0  0.00000000000E+00  0.00000000000E+00  0.66783995075E+03  0.66783995076E+03  0.25500000000E-02 0.  1.
         -2   -1    0    0    0  501 -0.00000000000E+00 -0.00000000000E+00 -0.31931696259E+03  0.31931696260E+03  0.25500000000E-02 0. -1.
    5000001    1    1    2    0    0 -0.10531086635E+02  0.36061263155E+03  0.40783528811E+03  0.57604339771E+03  0.18800000000E+03 0.  0.
   -5000001    1    1    2    0    0  0.10531086635E+02 -0.36061263155E+03 -0.59312299941E+02  0.41111351564E+03  0.18800000000E+03 0.  0.
<mgrwt>
<rscale>  0 0.92358567E+03</rscale>
<asrwt>0</asrwt>
<pdfrwt beam="1">  1        2 0.95405708E-01 0.92358567E+03</pdfrwt>
<pdfrwt beam="2">  1       -2 0.45616709E-01 0.92358567E+03</pdfrwt>
<totfact> 0.21759118E+02</totfact>
</mgrwt>
</event>
<event>
 4    1  0.6034452E-005  0.4958661E+03  0.7818608E-02  0.1014864E+00
          2   -1    0    0  501    0  0.00000000000E+00  0.00000000000E+00  0.40059699691E+04  0.40059699691E+04  0.25500000000E-02 0.  1.
         -2   -1    0    0    0  501 -0.00000000000E+00 -0.00000000000E+00 -0.15344794378E+02  0.15344794590E+02  0.25500000000E-02 0. -1.
    5000001    1    1    2    0    0 -0.45284782520E+02  0.15248885978E+03  0.22279942591E+04  0.22415632899E+04  0.18800000000E+03 0.  0.
   -5000001    1    1    2    0    0  0.45284782520E+02 -0.15248885978E+03  0.17626309156E+04  0.17797514738E+04  0.18800000000E+03 0.  0.
<mgrwt>
<rscale>  0 0.49586605E+03</rscale>
<asrwt>0</asrwt>
<pdfrwt beam="1">  1        2 0.57228146E+00 0.49586605E+03</pdfrwt>
<pdfrwt beam="2">  1       -2 0.21921134E-02 0.49586605E+03</pdfrwt>
<totfact> 0.46260043E+02</totfact>
</mgrwt>
</event>
<event>
 4    1  0.6034452E-005  0.4116292E+03  0.7818608E-02  0.1039826E+00
         -2   -1    0    0    0  501 -0.00000000000E+00  0.00000000000E+00  0.28426678378E+03  0.28426678379E+03  0.25500000000E-02 0. -1.
          2   -1    0    0  501    0  0.00000000000E+00 -0.00000000000E+00 -0.14901368117E+03  0.14901368119E+03  0.25500000000E-02 0.  1.
    5000001    1    1    2    0    0 -0.26739525680E+01 -0.83311378723E+02  0.76287596274E+02  0.21934386974E+03  0.18800000000E+03 0.  0.
   -5000001    1    1    2    0    0  0.26739525680E+01  0.83311378723E+02  0.58965506329E+02  0.21393659524E+03  0.18800000000E+03 0.  0.
<mgrwt>
<rscale>  0 0.41162915E+03</rscale>
<asrwt>0</asrwt>
<pdfrwt beam="1">  1        2 0.21287669E-01 0.41162915E+03</pdfrwt>
<pdfrwt beam="2">  1       -2 0.40609540E-01 0.41162915E+03</pdfrwt>
<totfact> 0.15074700E+03</totfact>
</mgrwt>
</event>
<event>
 4    1  0.6034452E-005  0.1237178E+04  0.7818608E-02  0.9080923E-01
          2   -1    0    0  501    0  0.00000000000E+00  0.00000000000E+00  0.18621575845E+04  0.18621575845E+04  0.25500000000E-02 0.  1.
         -2   -1    0    0    0  501 -0.00000000000E+00 -0.00000000000E+00 -0.20548882374E+03  0.20548882376E+03  0.25500000000E-02 0. -1.
    5000001    1    1    2    0    0  0.34053557121E+03 -0.47588227951E+03  0.71158336862E+03  0.94027831503E+03  0.18800000000E+03 0.  0.
   -5000001    1    1    2    0    0 -0.34053557121E+03  0.47588227951E+03  0.94508539217E+03  0.11273680933E+04  0.18800000000E+03 0.  0.
<mgrwt>
<rscale>  0 0.12371784E+04</rscale>
<asrwt>0</asrwt>
<pdfrwt beam="1">  1        2 0.26602253E+00 0.12371784E+04</pdfrwt>
<pdfrwt beam="2">  1       -2 0.29355544E-01 0.12371784E+04</pdfrwt>
<totfact> 0.99335963E+01</totfact>
</mgrwt>
</event>
<event>
 4    1  0.6034452E-005  0.4741041E+03  0.7818608E-02  0.1020768E+00
          2   -1    0    0  501    0  0.00000000000E+00  0.00000000000E+00  0.57249372942E+03  0.57249372942E+03  0.25500000000E-02 0.  1.
         -2   -1    0    0    0  501 -0.00000000000E+00 -0.00000000000E+00 -0.98155946310E+02  0.98155946343E+02  0.25500000000E-02 0. -1.
    5000001    1    1    2    0    0  0.11473926033E+03 -0.33899169761E+02  0.35152478242E+03  0.41620658840E+03  0.18800000000E+03 0.  0.
   -5000001    1    1    2    0    0 -0.11473926033E+03  0.33899169761E+02  0.12281300069E+03  0.25444308737E+03  0.18800000000E+03 0.  0.
<mgrwt>
<rscale>  0 0.47410406E+03</rscale>
<asrwt>0</asrwt>
<pdfrwt beam="1">  1        2 0.81784815E-01 0.47410406E+03</pdfrwt>
<pdfrwt beam="2">  1       -2 0.14022279E-01 0.47410406E+03</pdfrwt>
<totfact> 0.22384281E+03</totfact>
</mgrwt>
</event>
<event>
 4    1  0.6034452E-005  0.4643934E+03  0.7818608E-02  0.1023515E+00
         -2   -1    0    0    0  501 -0.00000000000E+00  0.00000000000E+00  0.90433594439E+02  0.90433594474E+02  0.25500000000E-02 0. -1.
          2   -1    0    0  501    0  0.00000000000E+00 -0.00000000000E+00 -0.59618672083E+03  0.59618672083E+03  0.25500000000E-02 0.  1.
    5000001    1    1    2    0    0 -0.10432013071E+01  0.13163122879E+03 -0.20073993602E+03  0.30490718355E+03  0.18800000000E+03 0.  0.
   -5000001    1    1    2    0    0  0.10432013071E+01 -0.13163122879E+03 -0.30501319036E+03  0.38171313176E+03  0.18800000000E+03 0.  0.
<mgrwt>
<rscale>  0 0.46439340E+03</rscale>
<asrwt>0</asrwt>
<pdfrwt beam="1">  1        2 0.85169529E-01 0.46439340E+03</pdfrwt>
<pdfrwt beam="2">  1       -2 0.12919085E-01 0.46439340E+03</pdfrwt>
<totfact> 0.24454734E+03</totfact>
</mgrwt>
</event>
<event>
 4    1  0.6034452E-005  0.4364098E+03  0.7818608E-02  0.1031854E+00
         -2   -1    0    0    0  501 -0.00000000000E+00  0.00000000000E+00  0.91371130823E+03  0.91371130823E+03  0.25500000000E-02 0. -1.
          2   -1    0    0  501    0  0.00000000000E+00 -0.00000000000E+00 -0.52109861969E+02  0.52109862031E+02  0.25500000000E-02 0.  1.
    5000001    1    1    2    0    0 -0.11073708180E+03 -0.22996062744E+01  0.43340120218E+03  0.48523045198E+03  0.18800000000E+03 0.  0.
   -5000001    1    1    2    0    0  0.11073708180E+03  0.22996062744E+01  0.42820024408E+03  0.48059071829E+03  0.18800000000E+03 0.  0.
<mgrwt>
<rscale>  0 0.43640976E+03</rscale>
<asrwt>0</asrwt>
<pdfrwt beam="1">  1        2 0.74442668E-02 0.43640976E+03</pdfrwt>
<pdfrwt beam="2">  1       -2 0.13053017E+00 0.43640976E+03</pdfrwt>
<totfact> 0.42320430E+02</totfact>
</mgrwt>
</event>
<event>
 4    1  0.6034452E-005  0.4548722E+03  0.7818608E-02  0.1026279E+00
         -2   -1    0    0    0  501 -0.00000000000E+00  0.00000000000E+00  0.20011679360E+03  0.20011679361E+03  0.25500000000E-02 0. -1.
          2   -1    0    0  501    0  0.00000000000E+00 -0.00000000000E+00 -0.25848490329E+03  0.25848490330E+03  0.25500000000E-02 0.  1.
    5000001    1    1    2    0    0 -0.53434540455E+02  0.11012172678E+03  0.85544576392E+01  0.22449771395E+03  0.18800000000E+03 0.  0.
   -5000001    1    1    2    0    0  0.53434540455E+02 -0.11012172678E+03 -0.66922567332E+02  0.23410398297E+03  0.18800000000E+03 0.  0.
<mgrwt>
<rscale>  0 0.45487216E+03</rscale>
<asrwt>0</asrwt>
<pdfrwt beam="1">  1        2 0.36926415E-01 0.45487216E+03</pdfrwt>
<pdfrwt beam="2">  1       -2 0.28588114E-01 0.45487216E+03</pdfrwt>
<totfact> 0.15704848E+03</totfact>
</mgrwt>
</event>
<event>
 4    1  0.6034452E-005  0.7789618E+03  0.7818608E-02  0.9590978E-01
          2   -1    0    0  501    0  0.00000000000E+00  0.00000000000E+00  0.12276757672E+04  0.12276757672E+04  0.25500000000E-02 0.  1.
         -2   -1    0    0    0  501 -0.00000000000E+00 -0.00000000000E+00 -0.12356304593E+03  0.12356304595E+03  0.25500000000E-02 0. -1.
    5000001    1    1    2    0    0  0.11099615770E+03  0.28368087801E+03  0.28581829349E+03  0.45807323046E+03  0.18800000000E+03 0.  0.
   -5000001    1    1    2    0    0 -0.11099615770E+03 -0.28368087801E+03  0.81829442777E+03  0.89316558269E+03  0.18800000000E+03 0.  0.
<mgrwt>
<rscale>  0 0.77896176E+03</rscale>
<asrwt>0</asrwt>
<pdfrwt beam="1">  1        2 0.17538226E+00 0.77896176E+03</pdfrwt>
<pdfrwt beam="2">  1       -2 0.17651863E-01 0.77896176E+03</pdfrwt>
<totfact> 0.54917620E+02</totfact>
</mgrwt>
</event>
<event>
 4    1  0.6034452E-005  0.1539253E+04  0.7818608E-02  0.8858762E-01
          2   -1    0    0  501    0  0.00000000000E+00  0.00000000000E+00  0.16778439662E+04  0.16778439662E+04  0.25500000000E-02 0.  1.
         -2   -1    0    0    0  501 -0.00000000000E+00 -0.00000000000E+00 -0.35302730114E+03  0.35302730115E+03  0.25500000000E-02 0. -1.
    5000001    1    1    2    0    0 -0.66944407213E+03 -0.32769979831E+03  0.61237232413E+03  0.98279519071E+03  0.18800000000E+03 0.  0.
   -5000001    1    1    2    0    0  0.66944407213E+03  0.32769979831E+03  0.71244434094E+03  0.10480760767E+04  0.18800000000E+03 0.  0.
<mgrwt>
<rscale>  0 0.15392527E+04</rscale>
<asrwt>0</asrwt>
<pdfrwt beam="1">  1        2 0.23969200E+00 0.15392527E+04</pdfrwt>
<pdfrwt beam="2">  1       -2 0.50432471E-01 0.15392527E+04</pdfrwt>
<totfact> 0.42256567E+01</totfact>
</mgrwt>
</event>
<event>
 4    1  0.6034452E-005  0.1357353E+04  0.7818608E-02  0.8985281E-01
         -2   -1    0    0    0  501 -0.00000000000E+00  0.00000000000E+00  0.17354034685E+03  0.17354034687E+03  0.25500000000E-02 0. -1.
          2   -1    0    0  501    0  0.00000000000E+00 -0.00000000000E+00 -0.26541482812E+04  0.26541482812E+04  0.25500000000E-02 0.  1.
    5000001    1    1    2    0    0 -0.16616463589E+03 -0.57390820304E+03 -0.69595876670E+03  0.93631400538E+03  0.18800000000E+03 0.  0.
   -5000001    1    1    2    0    0  0.16616463589E+03  0.57390820304E+03 -0.17846491677E+04  0.18913746227E+04  0.18800000000E+03 0.  0.
<mgrwt>
<rscale>  0 0.13573530E+04</rscale>
<asrwt>0</asrwt>
<pdfrwt beam="1">  1        2 0.37916402E+00 0.13573530E+04</pdfrwt>
<pdfrwt beam="2">  1       -2 0.24791480E-01 0.13573530E+04</pdfrwt>
<totfact> 0.52134185E+01</totfact>
</mgrwt>
</event>
<event>
 4    1  0.6034452E-005  0.5603844E+03  0.7818608E-02  0.9991185E-01
          2   -1    0    0  501    0  0.00000000000E+00  0.00000000000E+00  0.72296838916E+03  0.72296838916E+03  0.25500000000E-02 0.  1.
         -2   -1    0    0    0  501 -0.00000000000E+00 -0.00000000000E+00 -0.10859072970E+03  0.10859072973E+03  0.25500000000E-02 0. -1.
    5000001    1    1    2    0    0  0.13450884155E+03 -0.78392617910E+02  0.51133080961E+03  0.56660500162E+03  0.18800000000E+03 0.  0.
   -5000001    1    1    2    0    0 -0.13450884155E+03  0.78392617910E+02  0.10304684984E+03  0.26495411727E+03  0.18800000000E+03 0.  0.
<mgrwt>
<rscale>  0 0.56038439E+03</rscale>
<asrwt>0</asrwt>
<pdfrwt beam="1">  1        2 0.10328120E+00 0.56038439E+03</pdfrwt>
<pdfrwt beam="2">  1       -2 0.15512961E-01 0.56038439E+03</pdfrwt>
<totfact> 0.14316051E+03</totfact>
</mgrwt>
</event>
<event>
 4    1  0.6034452E-005  0.7440411E+03  0.7818608E-02  0.9644746E-01
         -2   -1    0    0    0  501 -0.00000000000E+00  0.00000000000E+00  0.20190160261E+03  0.20190160262E+03  0.25500000000E-02 0. -1.
          2   -1    0    0  501    0  0.00000000000E+00 -0.00000000000E+00 -0.68547896136E+03  0.68547896137E+03  0.25500000000E-02 0.  1.
    5000001    1    1    2    0    0 -0.42219955614E+02  0.27659342673E+03 -0.42948938789E+03  0.54597763935E+03  0.18800000000E+03 0.  0.
   -5000001    1    1    2    0    0  0.42219955614E+02 -0.27659342673E+03 -0.54087970868E+02  0.34140292464E+03  0.18800000000E+03 0.  0.
<mgrwt>
<rscale>  0 0.74404113E+03</rscale>
<asrwt>0</asrwt>
<pdfrwt beam="1">  1        2 0.97925565E-01 0.74404113E+03</pdfrwt>
<pdfrwt beam="2">  1       -2 0.28843086E-01 0.74404113E+03</pdfrwt>
<totfact> 0.51133560E+02</totfact>
</mgrwt>
</event>
<event>
 4    1  0.6034452E-005  0.6136335E+03  0.7818608E-02  0.9877518E-01
          2   -1    0    0  501    0  0.00000000000E+00  0.00000000000E+00  0.30291264990E+03  0.30291264991E+03  0.25500000000E-02 0.  1.
         -2   -1    0    0    0  501 -0.00000000000E+00 -0.00000000000E+00 -0.31077120451E+03  0.31077120452E+03  0.25500000000E-02 0. -1.
    5000001    1    1    2    0    0 -0.14605517082E+03 -0.74261960396E+02  0.17481863666E+03  0.30455296323E+03  0.18800000000E+03 0.  0.
   -5000001    1    1    2    0    0  0.14605517082E+03  0.74261960396E+02 -0.18267719127E+03  0.30913089121E+03  0.18800000000E+03 0.  0.
<mgrwt>
<rscale>  0 0.61363354E+03</rscale>
<asrwt>0</asrwt>
<pdfrwt beam="1">  1        2 0.43273236E-01 0.61363354E+03</pdfrwt>
<pdfrwt beam="2">  1       -2 0.44395886E-01 0.61363354E+03</pdfrwt>
<totfact> 0.57164732E+02</totfact>
</mgrwt>
</event>
<event>
 4    1  0.6034452E-005  0.4593557E+03  0.7818608E-02  0.1024968E+00
          2   -1    0    0  501    0  0.00000000000E+00  0.00000000000E+00  0.12504676939E+04  0.12504676939E+04  0.25500000000E-02 0.  1.
         -2   -1    0    0    0  501 -0.00000000000E+00 -0.00000000000E+00 -0.42185741280E+02  0.42185741357E+02  0.25500000000E-02 0. -1.
    5000001    1    1    2    0    0  0.11641623423E+03  0.56895087364E+02  0.53417803512E+03  0.58093025723E+03  0.18800000000E+03 0.  0.
   -5000001    1    1    2    0    0 -0.11641623423E+03 -0.56895087364E+02  0.67410391747E+03  0.71172317800E+03  0.18800000000E+03 0.  0.
<mgrwt>
<rscale>  0 0.45935566E+03</rscale>
<asrwt>0</asrwt>
<pdfrwt beam="1">  1        2 0.17863822E+00 0.45935566E+03</pdfrwt>
<pdfrwt beam="2">  1       -2 0.60265351E-02 0.45935566E+03</pdfrwt>
<totfact> 0.31010089E+03</totfact>
</mgrwt>
</event>
<event>
 4    1  0.6034452E-005  0.6769713E+03  0.7818608E-02  0.9757445E-01
         -2   -1    0    0    0  501 -0.00000000000E+00  0.00000000000E+00  0.16191983246E+03  0.16191983248E+03  0.25500000000E-02 0. -1.
          2   -1    0    0  501    0  0.00000000000E+00 -0.00000000000E+00 -0.70758806582E+03  0.70758806583E+03  0.25500000000E-02 0.  1.
    5000001    1    1    2    0    0  0.30566373545E+02  0.24963772090E+03 -0.11049355551E+03  0.33287553334E+03  0.18800000000E+03 0.  0.
   -5000001    1    1    2    0    0 -0.30566373545E+02 -0.24963772090E+03 -0.43517467785E+03  0.53663236497E+03  0.18800000000E+03 0.  0.
<mgrwt>
<rscale>  0 0.67697132E+03</rscale>
<asrwt>0</asrwt>
<pdfrwt beam="1">  1        2 0.10108401E+00 0.67697132E+03</pdfrwt>
<pdfrwt beam="2">  1       -2 0.23131405E-01 0.67697132E+03</pdfrwt>
<totfact> 0.73462985E+02</totfact>
</mgrwt>
</event>
<event>
 4    1  0.6034452E-005  0.9982807E+03  0.7818608E-02  0.9310432E-01
          2   -1    0    0  501    0  0.00000000000E+00  0.00000000000E+00  0.87661875923E+03  0.87661875924E+03  0.25500000000E-02 0.  1.
         -2   -1    0    0    0  501 -0.00000000000E+00 -0.00000000000E+00 -0.28420689295E+03  0.28420689296E+03  0.25500000000E-02 0. -1.
    5000001    1    1    2    0    0  0.60917903431E+02  0.45667073746E+03  0.34180795303E+03  0.60368520783E+03  0.18800000000E+03 0.  0.
   -5000001    1    1    2    0    0 -0.60917903431E+02 -0.45667073746E+03  0.25060391326E+03  0.55714044436E+03  0.18800000000E+03 0.  0.
<mgrwt>
<rscale>  0 0.99828071E+03</rscale>
<asrwt>0</asrwt>
<pdfrwt beam="1">  1        2 0.12523125E+00 0.99828071E+03</pdfrwt>
<pdfrwt beam="2">  1       -2 0.40600985E-01 0.99828071E+03</pdfrwt>
<totfact> 0.19294897E+02</totfact>
</mgrwt>
</event>
<event>
 4    1  0.6034452E-005  0.5168789E+03  0.7818608E-02  0.1009465E+00
         -2   -1    0    0    0  501 -0.00000000000E+00  0.00000000000E+00  0.27059755611E+02  0.27059755731E+02  0.25500000000E-02 0. -1.
          2   -1    0    0  501    0  0.00000000000E+00 -0.00000000000E+00 -0.24682757036E+04  0.24682757036E+04  0.25500000000E-02 0.  1.
    5000001    1    1    2    0    0 -0.12204390545E+03  0.10831601066E+03 -0.15557721439E+04  0.15755627683E+04  0.18800000000E+03 0.  0.
   -5000001    1    1    2    0    0  0.12204390545E+03 -0.10831601066E+03 -0.88544380409E+03  0.91977269106E+03  0.18800000000E+03 0.  0.
<mgrwt>
<rscale>  0 0.51687885E+03</rscale>
<asrwt>0</asrwt>
<pdfrwt beam="1">  1        2 0.35261067E+00 0.51687885E+03</pdfrwt>
<pdfrwt beam="2">  1       -2 0.38656810E-02 0.51687885E+03</pdfrwt>
<totfact> 0.14736778E+03</totfact>
</mgrwt>
</event>
<event>
 4    1  0.6034452E-005  0.4155358E+03  0.7818608E-02  0.1038529E+00
          2   -1    0    0  501    0  0.00000000000E+00  0.00000000000E+00  0.13509647847E+04  0.13509647848E+04  0.25500000000E-02 0.  1.
         -2   -1    0    0    0  501 -0.00000000000E+00 -0.00000000000E+00 -0.31953092342E+02  0.31953092444E+02  0.25500000000E-02 0. -1.
    5000001    1    1    2    0    0 -0.35947885065E+02 -0.53191822170E+02  0.45701787415E+03  0.49832816264E+03  0.18800000000E+03 0.  0.
   -5000001    1    1    2    0    0  0.35947885065E+02  0.53191822170E+02  0.86199381825E+03  0.88458971455E+03  0.18800000000E+03 0.  0.
<mgrwt>
<rscale>  0 0.41553581E+03</rscale>
<asrwt>0</asrwt>
<pdfrwt beam="1">  1        2 0.19299493E+00 0.41553581E+03</pdfrwt>
<pdfrwt beam="2">  1       -2 0.45647285E-02 0.41553581E+03</pdfrwt>
<totfact> 0.42034601E+03</totfact>
</mgrwt>
</event>
<event>
 4    1  0.6034452E-005  0.7001188E+03  0.7818608E-02  0.9717029E-01
          2   -1    0    0  501    0  0.00000000000E+00  0.00000000000E+00  0.12377818413E+04  0.12377818413E+04  0.25500000000E-02 0. -1.
         -2   -1    0    0    0  501 -0.00000000000E+00 -0.00000000000E+00 -0.99000964614E+02  0.99000964647E+02  0.25500000000E-02 0.  1.
    5000001    1    1    2    0    0  0.23392574636E+03  0.17734188179E+03  0.63055568997E+03  0.72049696460E+03  0.18800000000E+03 0.  0.
   -5000001    1    1    2    0    0 -0.23392574636E+03 -0.17734188179E+03  0.50822518675E+03  0.61628584139E+03  0.18800000000E+03 0.  0.
<mgrwt>
<rscale>  0 0.70011884E+03</rscale>
<asrwt>0</asrwt>
<pdfrwt beam="1">  1        2 0.17682598E+00 0.70011884E+03</pdfrwt>
<pdfrwt beam="2">  1       -2 0.14142995E-01 0.70011884E+03</pdfrwt>
<totfact> 0.79264432E+02</totfact>
</mgrwt>
</event>
<event>
 4    1  0.6034452E-005  0.1497279E+04  0.7818608E-02  0.8886265E-01
         -2   -1    0    0    0  501 -0.00000000000E+00  0.00000000000E+00  0.42368304775E+03  0.42368304776E+03  0.25500000000E-02 0. -1.
          2   -1    0    0  501    0  0.00000000000E+00 -0.00000000000E+00 -0.13228302057E+04  0.13228302057E+04  0.25500000000E-02 0.  1.
    5000001    1    1    2    0    0  0.62947896053E+03 -0.24886712700E+03 -0.14778273135E+03  0.71788741759E+03  0.18800000000E+03 0.  0.
   -5000001    1    1    2    0    0 -0.62947896053E+03  0.24886712700E+03 -0.75136442660E+03  0.10286258359E+04  0.18800000000E+03 0.  0.
<mgrwt>
<rscale>  0 0.14972785E+04</rscale>
<asrwt>0</asrwt>
<pdfrwt beam="1">  1        2 0.18897574E+00 0.14972785E+04</pdfrwt>
<pdfrwt beam="2">  1       -2 0.60526150E-01 0.14972785E+04</pdfrwt>
<totfact> 0.44873245E+01</totfact>
</mgrwt>
</event>
<event>
 4    1  0.6034452E-005  0.4464619E+03  0.7818608E-02  0.1028782E+00
         -2   -1    0    0    0  501 -0.00000000000E+00  0.00000000000E+00  0.14880481140E+02  0.14880481359E+02  0.25500000000E-02 0. -1.
          2   -1    0    0  501    0  0.00000000000E+00 -0.00000000000E+00 -0.33488206611E+04  0.33488206611E+04  0.25500000000E-02 0.  1.
    5000001    1    1    2    0    0 -0.46177471738E+01  0.32908382378E+02 -0.25385803481E+04  0.25457490978E+04  0.18800000000E+03 0.  0.
   -5000001    1    1    2    0    0  0.46177471738E+01 -0.32908382378E+02 -0.79535983192E+03  0.81795204471E+03  0.18800000000E+03 0.  0.
<mgrwt>
<rscale>  0 0.44646193E+03</rscale>
<asrwt>0</asrwt>
<pdfrwt beam="1">  1        2 0.47840247E+00 0.44646193E+03</pdfrwt>
<pdfrwt beam="2">  1       -2 0.21257852E-02 0.44646193E+03</pdfrwt>
<totfact> 0.12351487E+03</totfact>
</mgrwt>
</event>
<event>
 4    1  0.6034452E-005  0.1555109E+04  0.7818608E-02  0.8848611E-01
          2   -1    0    0  501    0  0.00000000000E+00  0.00000000000E+00  0.17614747549E+04  0.17614747549E+04  0.25500000000E-02 0.  1.
         -2   -1    0    0    0  501 -0.00000000000E+00 -0.00000000000E+00 -0.34322980298E+03  0.34322980299E+03  0.25500000000E-02 0. -1.
    5000001    1    1    2    0    0 -0.69421237121E+03  0.27146393181E+03  0.55115444118E+03  0.94590628534E+03  0.18800000000E+03 0.  0.
   -5000001    1    1    2    0    0  0.69421237121E+03 -0.27146393181E+03  0.86709051072E+03  0.11587982725E+04  0.18800000000E+03 0.  0.
<mgrwt>
<rscale>  0 0.15551085E+04</rscale>
<asrwt>0</asrwt>
<pdfrwt beam="1">  1        2 0.25163925E+00 0.15551085E+04</pdfrwt>
<pdfrwt beam="2">  1       -2 0.49032829E-01 0.15551085E+04</pdfrwt>
<totfact> 0.40440765E+01</totfact>
</mgrwt>
</event>
<event>
 4    1  0.6034452E-005  0.5789720E+03  0.7818608E-02  0.9950019E-01
         -2   -1    0    0    0  501 -0.00000000000E+00  0.00000000000E+00  0.10873335769E+03  0.10873335772E+03  0.25500000000E-02 0. -1.
          2   -1    0    0  501    0  0.00000000000E+00 -0.00000000000E+00 -0.77071249588E+03  0.77071249589E+03  0.25500000000E-02 0.  1.
    5000001    1    1    2    0    0 -0.21445242752E+03  0.10420725394E+01 -0.40643903084E+03  0.49651547345E+03  0.18800000000E+03 0.  0.
   -5000001    1    1    2    0    0  0.21445242752E+03 -0.10420725394E+01 -0.25554010735E+03  0.38293038016E+03  0.18800000000E+03 0.  0.
<mgrwt>
<rscale>  0 0.57897205E+03</rscale>
<asrwt>0</asrwt>
<pdfrwt beam="1">  1        2 0.11010178E+00 0.57897205E+03</pdfrwt>
<pdfrwt beam="2">  1       -2 0.15533337E-01 0.57897205E+03</pdfrwt>
<totfact> 0.13188074E+03</totfact>
</mgrwt>
</event>
<event>
 4    1  0.6034452E-005  0.9227090E+03  0.7818608E-02  0.9397631E-01
          2   -1    0    0  501    0  0.00000000000E+00  0.00000000000E+00  0.47193470863E+03  0.47193470864E+03  0.25500000000E-02 0.  1.
         -2   -1    0    0    0  501 -0.00000000000E+00 -0.00000000000E+00 -0.45101149876E+03  0.45101149877E+03  0.25500000000E-02 0. -1.
    5000001    1    1    2    0    0 -0.42104888174E+03 -0.60001612294E+01  0.24096598921E+02  0.46178220930E+03  0.18800000000E+03 0.  0.
   -5000001    1    1    2    0    0  0.42104888174E+03  0.60001612294E+01 -0.31733890478E+01  0.46116399811E+03  0.18800000000E+03 0.  0.
<mgrwt>
<rscale>  0 0.92270901E+03</rscale>
<asrwt>0</asrwt>
<pdfrwt beam="1">  1        2 0.67419244E-01 0.92270901E+03</pdfrwt>
<pdfrwt beam="2">  1       -2 0.64430214E-01 0.92270901E+03</pdfrwt>
<totfact> 0.16004486E+02</totfact>
</mgrwt>
</event>
<event>
 4    1  0.6034452E-005  0.6925496E+03  0.7818608E-02  0.9730059E-01
         -2   -1    0    0    0  501 -0.00000000000E+00  0.00000000000E+00  0.68724218205E+03  0.68724218206E+03  0.25500000000E-02 0. -1.
          2   -1    0    0  501    0  0.00000000000E+00 -0.00000000000E+00 -0.17447451841E+03  0.17447451843E+03  0.25500000000E-02 0.  1.
    5000001    1    1    2    0    0  0.19487315097E+03 -0.16925022087E+03  0.89721392418E+02  0.33168525818E+03  0.18800000000E+03 0.  0.
   -5000001    1    1    2    0    0 -0.19487315097E+03  0.16925022087E+03  0.42304627123E+03  0.53003144230E+03  0.18800000000E+03 0.  0.
<mgrwt>
<rscale>  0 0.69254963E+03</rscale>
<asrwt>0</asrwt>
<pdfrwt beam="1">  1        2 0.24924931E-01 0.69254963E+03</pdfrwt>
<pdfrwt beam="2">  1       -2 0.98177455E-01 0.69254963E+03</pdfrwt>
<totfact> 0.19165214E+02</totfact>
</mgrwt>
</event>
<event>
 4    1  0.6034452E-005  0.5083327E+03  0.7818608E-02  0.1011627E+00
         -2   -1    0    0    0  501 -0.00000000000E+00  0.00000000000E+00  0.40940877601E+03  0.40940877602E+03  0.25500000000E-02 0. -1.
          2   -1    0    0  501    0  0.00000000000E+00 -0.00000000000E+00 -0.15778980030E+03  0.15778980032E+03  0.25500000000E-02 0.  1.
    5000001    1    1    2    0    0  0.82326182702E+00 -0.16793568323E+03  0.89593893279E+02  0.26753343188E+03  0.18800000000E+03 0.  0.
   -5000001    1    1    2    0    0 -0.82326182702E+00  0.16793568323E+03  0.16202508243E+03  0.29966514445E+03  0.18800000000E+03 0.  0.
<mgrwt>
<rscale>  0 0.50833268E+03</rscale>
<asrwt>0</asrwt>
<pdfrwt beam="1">  1        2 0.22541400E-01 0.50833268E+03</pdfrwt>
<pdfrwt beam="2">  1       -2 0.58486969E-01 0.50833268E+03</pdfrwt>
<totfact> 0.67934640E+02</totfact>
</mgrwt>
</event>
<event>
 4    1  0.6034452E-005  0.6396693E+03  0.7818608E-02  0.9826359E-01
         -2   -1    0    0    0  501 -0.00000000000E+00  0.00000000000E+00  0.23292929777E+03  0.23292929778E+03  0.25500000000E-02 0. -1.
          2   -1    0    0  501    0  0.00000000000E+00 -0.00000000000E+00 -0.43916413962E+03  0.43916413963E+03  0.25500000000E-02 0.  1.
    5000001    1    1    2    0    0 -0.19611228161E+03  0.12772680602E+03  0.12820906892E+02  0.30047053038E+03  0.18800000000E+03 0.  0.
   -5000001    1    1    2    0    0  0.19611228161E+03 -0.12772680602E+03 -0.21905574874E+03  0.37162290703E+03  0.18800000000E+03 0.  0.
<mgrwt>
<rscale>  0 0.63966927E+03</rscale>
<asrwt>0</asrwt>
<pdfrwt beam="1">  1        2 0.62737734E-01 0.63966927E+03</pdfrwt>
<pdfrwt beam="2">  1       -2 0.33275614E-01 0.63966927E+03</pdfrwt>
<totfact> 0.65989659E+02</totfact>
</mgrwt>
</event>
<event>
 4    1  0.6034452E-005  0.8223913E+03  0.7818608E-02  0.9528160E-01
         -2   -1    0    0    0  501 -0.00000000000E+00  0.00000000000E+00  0.59890847897E+02  0.59890847951E+02  0.25500000000E-02 0. -1.
          2   -1    0    0  501    0  0.00000000000E+00 -0.00000000000E+00 -0.28231667956E+04  0.28231667956E+04  0.25500000000E-02 0.  1.
    5000001    1    1    2    0    0 -0.10675605578E+03  0.30455792239E+03 -0.77864248293E+03  0.86358583810E+03  0.18800000000E+03 0.  0.
   -5000001    1    1    2    0    0  0.10675605578E+03 -0.30455792239E+03 -0.19846334648E+04  0.20194718055E+04  0.18800000000E+03 0.  0.
<mgrwt>
<rscale>  0 0.82239128E+03</rscale>
<asrwt>0</asrwt>
<pdfrwt beam="1">  1        2 0.40330946E+00 0.82239128E+03</pdfrwt>
<pdfrwt beam="2">  1       -2 0.85558372E-02 0.82239128E+03</pdfrwt>
<totfact> 0.27024879E+02</totfact>
</mgrwt>
</event>
<event>
 4    1  0.6034452E-005  0.7313683E+03  0.7818608E-02  0.9665043E-01
         -2   -1    0    0    0  501 -0.00000000000E+00  0.00000000000E+00  0.16542870585E+03  0.16542870587E+03  0.25500000000E-02 0. -1.
          2   -1    0    0  501    0  0.00000000000E+00 -0.00000000000E+00 -0.80835357373E+03  0.80835357374E+03  0.25500000000E-02 0.  1.
    5000001    1    1    2    0    0 -0.31796607005E+02  0.30775576977E+03 -0.39008390538E+03  0.53219741758E+03  0.18800000000E+03 0.  0.
   -5000001    1    1    2    0    0  0.31796607005E+02 -0.30775576977E+03 -0.25284096251E+03  0.44158486202E+03  0.18800000000E+03 0.  0.
<mgrwt>
<rscale>  0 0.73136827E+03</rscale>
<asrwt>0</asrwt>
<pdfrwt beam="1">  1        2 0.11547908E+00 0.73136827E+03</pdfrwt>
<pdfrwt beam="2">  1       -2 0.23632673E-01 0.73136827E+03</pdfrwt>
<totfact> 0.59692708E+02</totfact>
</mgrwt>
</event>
<event>
 4    1  0.6034452E-005  0.9677114E+03  0.7818608E-02  0.9344685E-01
          2   -1    0    0  501    0  0.00000000000E+00  0.00000000000E+00  0.84007944002E+03  0.84007944003E+03  0.25500000000E-02 0.  1.
         -2   -1    0    0    0  501 -0.00000000000E+00 -0.00000000000E+00 -0.27868359569E+03  0.27868359570E+03  0.25500000000E-02 0. -1.
    5000001    1    1    2    0    0 -0.22864897885E+03 -0.35226317730E+03  0.10765971726E+03  0.47255086111E+03  0.18800000000E+03 0.  0.
   -5000001    1    1    2    0    0  0.22864897885E+03  0.35226317730E+03  0.45373612707E+03  0.64621217462E+03  0.18800000000E+03 0.  0.
<mgrwt>
<rscale>  0 0.96771144E+03</rscale>
<asrwt>0</asrwt>
<pdfrwt beam="1">  1        2 0.12001135E+00 0.96771144E+03</pdfrwt>
<pdfrwt beam="2">  1       -2 0.39811942E-01 0.96771144E+03</pdfrwt>
<totfact> 0.21250076E+02</totfact>
</mgrwt>
</event>
<event>
 4    1  0.6034452E-005  0.4186166E+03  0.7818608E-02  0.1037518E+00
         -2   -1    0    0    0  501 -0.00000000000E+00  0.00000000000E+00  0.13632353800E+02  0.13632354038E+02  0.25500000000E-02 0. -1.
          2   -1    0    0  501    0  0.00000000000E+00 -0.00000000000E+00 -0.32136750846E+04  0.32136750846E+04  0.25500000000E-02 0.  1.
    5000001    1    1    2    0    0 -0.18538539385E+00 -0.65844360198E+02 -0.20954968809E+04  0.21049433941E+04  0.18800000000E+03 0.  0.
   -5000001    1    1    2    0    0  0.18538539385E+00  0.65844360198E+02 -0.11045458499E+04  0.11223640446E+04  0.18800000000E+03 0.  0.
<mgrwt>
<rscale>  0 0.41861656E+03</rscale>
<asrwt>0</asrwt>
<pdfrwt beam="1">  1        2 0.45909596E+00 0.41861656E+03</pdfrwt>
<pdfrwt beam="2">  1       -2 0.19474812E-02 0.41861656E+03</pdfrwt>
<totfact> 0.16823334E+03</totfact>
</mgrwt>
</event>
<event>
 4    1  0.6034452E-005  0.6716074E+03  0.7818608E-02  0.9767058E-01
          2   -1    0    0  501    0  0.00000000000E+00  0.00000000000E+00  0.52136030426E+03  0.52136030426E+03  0.25500000000E-02 0.  1.
         -2   -1    0    0    0  501 -0.00000000000E+00 -0.00000000000E+00 -0.21628826811E+03  0.21628826813E+03  0.25500000000E-02 0. -1.
    5000001    1    1    2    0    0 -0.26507017793E+03 -0.16092448542E+02  0.61308558080E+02  0.33109500966E+03  0.18800000000E+03 0.  0.
   -5000001    1    1    2    0    0  0.26507017793E+03  0.16092448542E+02  0.24376347806E+03  0.40655356273E+03  0.18800000000E+03 0.  0.
<mgrwt>
<rscale>  0 0.67160738E+03</rscale>
<asrwt>0</asrwt>
<pdfrwt beam="1">  1        2 0.74480043E-01 0.67160738E+03</pdfrwt>
<pdfrwt beam="2">  1       -2 0.30898324E-01 0.67160738E+03</pdfrwt>
<totfact> 0.62354193E+02</totfact>
</mgrwt>
</event>
<event>
 4    1  0.6034452E-005  0.4810014E+03  0.7818608E-02  0.1018860E+00
         -2   -1    0    0    0  501 -0.00000000000E+00  0.00000000000E+00  0.31705402843E+02  0.31705402946E+02  0.25500000000E-02 0. -1.
          2   -1    0    0  501    0  0.00000000000E+00 -0.00000000000E+00 -0.18243129324E+04  0.18243129324E+04  0.25500000000E-02 0.  1.
    5000001    1    1    2    0    0 -0.13243986079E+03 -0.50620901146E+02 -0.70751399564E+03  0.74566939483E+03  0.18800000000E+03 0.  0.
   -5000001    1    1    2    0    0  0.13243986079E+03  0.50620901146E+02 -0.10850935339E+04  0.11103489405E+04  0.18800000000E+03 0.  0.
<mgrwt>
<rscale>  0 0.48100136E+03</rscale>
<asrwt>0</asrwt>
<pdfrwt beam="1">  1        2 0.26061607E+00 0.48100136E+03</pdfrwt>
<pdfrwt beam="2">  1       -2 0.45293444E-02 0.48100136E+03</pdfrwt>
<totfact> 0.24355941E+03</totfact>
</mgrwt>
</event>
<event>
 4    1  0.6034452E-005  0.5024409E+03  0.7818608E-02  0.1013144E+00
         -2   -1    0    0    0  501 -0.00000000000E+00  0.00000000000E+00  0.42540117659E+02  0.42540117735E+02  0.25500000000E-02 0. -1.
          2   -1    0    0  501    0  0.00000000000E+00 -0.00000000000E+00 -0.14835813690E+04  0.14835813690E+04  0.25500000000E-02 0.  1.
    5000001    1    1    2    0    0 -0.15542366141E+03  0.54049481501E+02 -0.80029917988E+03  0.83839169742E+03  0.18800000000E+03 0.  0.
   -5000001    1    1    2    0    0  0.15542366141E+03 -0.54049481501E+02 -0.64074207143E+03  0.68772978929E+03  0.18800000000E+03 0.  0.
<mgrwt>
<rscale>  0 0.50244095E+03</rscale>
<asrwt>0</asrwt>
<pdfrwt beam="1">  1        2 0.21194016E+00 0.50244095E+03</pdfrwt>
<pdfrwt beam="2">  1       -2 0.60771606E-02 0.50244095E+03</pdfrwt>
<totfact> 0.23005523E+03</totfact>
</mgrwt>
</event>
<event>
 4    1  0.6034452E-005  0.5991832E+03  0.7818608E-02  0.9907102E-01
          2   -1    0    0  501    0  0.00000000000E+00  0.00000000000E+00  0.13751121803E+04  0.13751121803E+04  0.25500000000E-02 0.  1.
         -2   -1    0    0    0  501 -0.00000000000E+00 -0.00000000000E+00 -0.65271121023E+02  0.65271121073E+02  0.25500000000E-02 0. -1.
    5000001    1    1    2    0    0  0.80939209069E+02 -0.14351762164E+03  0.25800095417E+03  0.35924497998E+03  0.18800000000E+03 0.  0.
   -5000001    1    1    2    0    0 -0.80939209069E+02  0.14351762164E+03  0.10518401051E+04  0.10811383214E+04  0.18800000000E+03 0.  0.
<mgrwt>
<rscale>  0 0.59918316E+03</rscale>
<asrwt>0</asrwt>
<pdfrwt beam="1">  1        2 0.19644457E+00 0.59918316E+03</pdfrwt>
<pdfrwt beam="2">  1       -2 0.93244471E-02 0.59918316E+03</pdfrwt>
<totfact> 0.13277621E+03</totfact>
</mgrwt>
</event>
<event>
 4    1  0.6034452E-005  0.5569599E+03  0.7818608E-02  0.9998957E-01
         -2   -1    0    0    0  501 -0.00000000000E+00  0.00000000000E+00  0.10061182874E+03  0.10061182877E+03  0.25500000000E-02 0. -1.
          2   -1    0    0  501    0  0.00000000000E+00 -0.00000000000E+00 -0.77079501556E+03  0.77079501556E+03  0.25500000000E-02 0.  1.
    5000001    1    1    2    0    0 -0.19656596858E+03 -0.11175627999E+02 -0.42691003652E+03  0.50631932014E+03  0.18800000000E+03 0.  0.
   -5000001    1    1    2    0    0  0.19656596858E+03  0.11175627999E+02 -0.24327315030E+03  0.36508752419E+03  0.18800000000E+03 0.  0.
<mgrwt>
<rscale>  0 0.55695995E+03</rscale>
<asrwt>0</asrwt>
<pdfrwt beam="1">  1        2 0.11011357E+00 0.55695995E+03</pdfrwt>
<pdfrwt beam="2">  1       -2 0.14373119E-01 0.55695995E+03</pdfrwt>
<totfact> 0.15027345E+03</totfact>
</mgrwt>
</event>
<event>
 4    1  0.6034452E-005  0.6493538E+03  0.7818608E-02  0.9807992E-01
         -2   -1    0    0    0  501 -0.00000000000E+00  0.00000000000E+00  0.11784468055E+03  0.11784468058E+03  0.25500000000E-02 0. -1.
          2   -1    0    0  501    0  0.00000000000E+00 -0.00000000000E+00 -0.89452565264E+03  0.89452565264E+03  0.25500000000E-02 0.  1.
    5000001    1    1    2    0    0 -0.10677344832E+03  0.13843652644E+03 -0.69821704221E+03  0.74391953809E+03  0.18800000000E+03 0.  0.
   -5000001    1    1    2    0    0  0.10677344832E+03 -0.13843652644E+03 -0.78463929879E+02  0.26845079514E+03  0.18800000000E+03 0.  0.
<mgrwt>
<rscale>  0 0.64935380E+03</rscale>
<asrwt>0</asrwt>
<pdfrwt beam="1">  1        2 0.12778937E+00 0.64935380E+03</pdfrwt>
<pdfrwt beam="2">  1       -2 0.16834955E-01 0.64935380E+03</pdfrwt>
<totfact> 0.94698281E+02</totfact>
</mgrwt>
</event>
<event>
 4    1  0.6034452E-005  0.5293140E+03  0.7818608E-02  0.1006399E+00
          2   -1    0    0  501    0  0.00000000000E+00  0.00000000000E+00  0.25201143291E+04  0.25201143291E+04  0.25500000000E-02 0.  1.
         -2   -1    0    0    0  501 -0.00000000000E+00 -0.00000000000E+00 -0.27793711036E+02  0.27793711153E+02  0.25500000000E-02 0. -1.
    5000001    1    1    2    0    0  0.13838516977E+03  0.88725273077E+02  0.16679127989E+04  0.16865051835E+04  0.18800000000E+03 0.  0.
   -5000001    1    1    2    0    0 -0.13838516977E+03 -0.88725273077E+02  0.82440781917E+03  0.86140285674E+03  0.18800000000E+03 0.  0.
<mgrwt>
<rscale>  0 0.52931401E+03</rscale>
<asrwt>0</asrwt>
<pdfrwt beam="1">  1        2 0.36001644E+00 0.52931401E+03</pdfrwt>
<pdfrwt beam="2">  1       -2 0.39705290E-02 0.52931401E+03</pdfrwt>
<totfact> 0.13298066E+03</totfact>
</mgrwt>
</event>
<event>
 4    1  0.6034452E-005  0.5828766E+03  0.7818608E-02  0.9941582E-01
         -2   -1    0    0    0  501 -0.00000000000E+00  0.00000000000E+00  0.69178286568E+02  0.69178286615E+02  0.25500000000E-02 0.  1.
          2   -1    0    0  501    0  0.00000000000E+00 -0.00000000000E+00 -0.12277883757E+04  0.12277883757E+04  0.25500000000E-02 0. -1.
    5000001    1    1    2    0    0 -0.91368670615E+02  0.17816021536E+03 -0.79621651514E+03  0.84225532666E+03  0.18800000000E+03 0.  0.
   -5000001    1    1    2    0    0  0.91368670615E+02 -0.17816021536E+03 -0.36239357400E+03  0.45471133567E+03  0.18800000000E+03 0.  0.
<mgrwt>
<rscale>  0 0.58287665E+03</rscale>
<asrwt>0</asrwt>
<pdfrwt beam="1">  1        2 0.17539833E+00 0.58287665E+03</pdfrwt>
<pdfrwt beam="2">  1       -2 0.98826132E-02 0.58287665E+03</pdfrwt>
<totfact> 0.14542482E+03</totfact>
</mgrwt>
</event>
<event>
 4    1  0.6034452E-005  0.5175240E+03  0.7818608E-02  0.1009303E+00
         -2   -1    0    0    0  501 -0.00000000000E+00  0.00000000000E+00  0.81933968166E+02  0.81933968206E+02  0.25500000000E-02 0. -1.
          2   -1    0    0  501    0  0.00000000000E+00 -0.00000000000E+00 -0.81721615063E+03  0.81721615063E+03  0.25500000000E-02 0.  1.
    5000001    1    1    2    0    0 -0.16473027759E+03  0.50222635190E+02 -0.29081338868E+03  0.38674902000E+03  0.18800000000E+03 0.  0.
   -5000001    1    1    2    0    0  0.16473027759E+03 -0.50222635190E+02 -0.44446879379E+03  0.51240109884E+03  0.18800000000E+03 0.  0.
<mgrwt>
<rscale>  0 0.51752396E+03</rscale>
<asrwt>0</asrwt>
<pdfrwt beam="1">  1        2 0.11674516E+00 0.51752396E+03</pdfrwt>
<pdfrwt beam="2">  1       -2 0.11704853E-01 0.51752396E+03</pdfrwt>
<totfact> 0.19602660E+03</totfact>
</mgrwt>
</event>
<event>
 4    1  0.6034452E-005  0.5723131E+03  0.7818608E-02  0.9964573E-01
         -2   -1    0    0    0  501 -0.00000000000E+00  0.00000000000E+00  0.66471695842E+02  0.66471695890E+02  0.25500000000E-02 0. -1.
          2   -1    0    0  501    0  0.00000000000E+00 -0.00000000000E+00 -0.12318862278E+04  0.12318862278E+04  0.25500000000E-02 0.  1.
    5000001    1    1    2    0    0 -0.18380912523E+03 -0.11158842649E+03 -0.54316593928E+03  0.61368640937E+03  0.18800000000E+03 0.  0.
   -5000001    1    1    2    0    0  0.18380912523E+03  0.11158842649E+03 -0.62224859268E+03  0.68467151433E+03  0.18800000000E+03 0.  0.
<mgrwt>
<rscale>  0 0.57231308E+03</rscale>
<asrwt>0</asrwt>
<pdfrwt beam="1">  1        2 0.17598373E+00 0.57231308E+03</pdfrwt>
<pdfrwt beam="2">  1       -2 0.94959573E-02 0.57231308E+03</pdfrwt>
<totfact> 0.15433982E+03</totfact>
</mgrwt>
</event>
<event>
 4    1  0.6034452E-005  0.8867130E+03  0.7818608E-02  0.9442345E-01
         -2   -1    0    0    0  501 -0.00000000000E+00  0.00000000000E+00  0.11553062700E+03  0.11553062703E+03  0.25500000000E-02 0. -1.
          2   -1    0    0  501    0  0.00000000000E+00 -0.00000000000E+00 -0.17014102391E+04  0.17014102391E+04  0.25500000000E-02 0.  1.
    5000001    1    1    2    0    0  0.39717128618E+03  0.55118056645E+02 -0.83582184492E+03  0.94589914219E+03  0.18800000000E+03 0.  0.
   -5000001    1    1    2    0    0 -0.39717128618E+03 -0.55118056645E+02 -0.75005776715E+03  0.87104172391E+03  0.18800000000E+03 0.  0.
<mgrwt>
<rscale>  0 0.88671301E+03</rscale>
<asrwt>0</asrwt>
<pdfrwt beam="1">  1        2 0.24305859E+00 0.88671301E+03</pdfrwt>
<pdfrwt beam="2">  1       -2 0.16504376E-01 0.88671301E+03</pdfrwt>
<totfact> 0.34280477E+02</totfact>
</mgrwt>
</event>
<event>
 4    1  0.6034452E-005  0.6428554E+03  0.7818608E-02  0.9820279E-01
          2   -1    0    0  501    0  0.00000000000E+00  0.00000000000E+00  0.61073055477E+03  0.61073055478E+03  0.25500000000E-02 0.  1.
         -2   -1    0    0    0  501 -0.00000000000E+00 -0.00000000000E+00 -0.16916752232E+03  0.16916752234E+03  0.25500000000E-02 0. -1.
    5000001    1    1    2    0    0 -0.10166591824E+03  0.69506019785E+02  0.49956108678E+03  0.54778857705E+03  0.18800000000E+03 0.  0.
   -5000001    1    1    2    0    0  0.10166591824E+03 -0.69506019785E+02 -0.57998054330E+02  0.23210950007E+03  0.18800000000E+03 0.  0.
<mgrwt>
<rscale>  0 0.64285543E+03</rscale>
<asrwt>0</asrwt>
<pdfrwt beam="1">  1        2 0.87247224E-01 0.64285543E+03</pdfrwt>
<pdfrwt beam="2">  1       -2 0.24166788E-01 0.64285543E+03</pdfrwt>
<totfact> 0.81213172E+02</totfact>
</mgrwt>
</event>
<event>
 4    1  0.6034452E-005  0.4934937E+03  0.7818608E-02  0.1015491E+00
         -2   -1    0    0    0  501 -0.00000000000E+00  0.00000000000E+00  0.67643416971E+02  0.67643417019E+02  0.25500000000E-02 0. -1.
          2   -1    0    0  501    0  0.00000000000E+00 -0.00000000000E+00 -0.90007308399E+03  0.90007308399E+03  0.25500000000E-02 0.  1.
    5000001    1    1    2    0    0  0.15621240552E+03 -0.26655984670E+02 -0.45674353542E+03  0.51872103708E+03  0.18800000000E+03 0.  0.
   -5000001    1    1    2    0    0 -0.15621240552E+03  0.26655984670E+02 -0.37568613160E+03  0.44899546394E+03  0.18800000000E+03 0.  0.
<mgrwt>
<rscale>  0 0.49349374E+03</rscale>
<asrwt>0</asrwt>
<pdfrwt beam="1">  1        2 0.12858186E+00 0.49349374E+03</pdfrwt>
<pdfrwt beam="2">  1       -2 0.96633458E-02 0.49349374E+03</pdfrwt>
<totfact> 0.23589506E+03</totfact>
</mgrwt>
</event>
<event>
 4    1  0.6034452E-005  0.6208332E+03  0.7818608E-02  0.9863102E-01
          2   -1    0    0  501    0  0.00000000000E+00  0.00000000000E+00  0.35864477193E+04  0.35864477193E+04  0.25500000000E-02 0.  1.
         -2   -1    0    0    0  501 -0.00000000000E+00 -0.00000000000E+00 -0.26867387301E+02  0.26867387422E+02  0.25500000000E-02 0. -1.
    5000001    1    1    2    0    0 -0.10648179121E+03  0.20764256575E+03  0.13083733484E+04  0.13422513273E+04  0.18800000000E+03 0.  0.
   -5000001    1    1    2    0    0  0.10648179121E+03 -0.20764256575E+03  0.22512069836E+04  0.22710637794E+04  0.18800000000E+03 0.  0.
<mgrwt>
<rscale>  0 0.62083325E+03</rscale>
<asrwt>0</asrwt>
<pdfrwt beam="1">  1        2 0.51234937E+00 0.62083325E+03</pdfrwt>
<pdfrwt beam="2">  1       -2 0.38382005E-02 0.62083325E+03</pdfrwt>
<totfact> 0.35862645E+02</totfact>
</mgrwt>
</event>
<event>
 4    1  0.6034452E-005  0.5888369E+03  0.7818608E-02  0.9928840E-01
         -2   -1    0    0    0  501 -0.00000000000E+00  0.00000000000E+00  0.48477754987E+02  0.48477755054E+02  0.25500000000E-02 0. -1.
          2   -1    0    0  501    0  0.00000000000E+00 -0.00000000000E+00 -0.17880823144E+04  0.17880823144E+04  0.25500000000E-02 0.  1.
    5000001    1    1    2    0    0 -0.18329364268E+03  0.44665832662E+02 -0.47841760463E+03  0.54755730337E+03  0.18800000000E+03 0.  0.
   -5000001    1    1    2    0    0  0.18329364268E+03 -0.44665832662E+02 -0.12611869548E+04  0.12890027661E+04  0.18800000000E+03 0.  0.
<mgrwt>
<rscale>  0 0.58883688E+03</rscale>
<asrwt>0</asrwt>
<pdfrwt beam="1">  1        2 0.25544029E+00 0.58883688E+03</pdfrwt>
<pdfrwt beam="2">  1       -2 0.69253947E-02 0.58883688E+03</pdfrwt>
<totfact> 0.13061284E+03</totfact>
</mgrwt>
</event>
<event>
 4    1  0.6034452E-005  0.6832286E+03  0.7818608E-02  0.9746351E-01
         -2   -1    0    0    0  501 -0.00000000000E+00  0.00000000000E+00  0.17564793155E+03  0.17564793157E+03  0.25500000000E-02 0. -1.
          2   -1    0    0  501    0  0.00000000000E+00 -0.00000000000E+00 -0.66439914008E+03  0.66439914008E+03  0.25500000000E-02 0.  1.
    5000001    1    1    2    0    0  0.12566591563E+03 -0.19220510531E+03 -0.45238579121E+03  0.54104678998E+03  0.18800000000E+03 0.  0.
   -5000001    1    1    2    0    0 -0.12566591563E+03  0.19220510531E+03 -0.36365417315E+02  0.29900028166E+03  0.18800000000E+03 0.  0.
<mgrwt>
<rscale>  0 0.68322861E+03</rscale>
<asrwt>0</asrwt>
<pdfrwt beam="1">  1        2 0.94914162E-01 0.68322861E+03</pdfrwt>
<pdfrwt beam="2">  1       -2 0.25092562E-01 0.68322861E+03</pdfrwt>
<totfact> 0.68571837E+02</totfact>
</mgrwt>
</event>
<event>
 4    1  0.6034452E-005  0.5275968E+03  0.7818608E-02  0.1006817E+00
          2   -1    0    0  501    0  0.00000000000E+00  0.00000000000E+00  0.33164892463E+04  0.33164892463E+04  0.25500000000E-02 0.  1.
         -2   -1    0    0    0  501 -0.00000000000E+00 -0.00000000000E+00 -0.20982906849E+02  0.20982907004E+02  0.25500000000E-02 0. -1.
    5000001    1    1    2    0    0 -0.13675749876E+03 -0.11667596755E+03  0.13698718587E+04  0.13943488818E+04  0.18800000000E+03 0.  0.
   -5000001    1    1    2    0    0  0.13675749876E+03  0.11667596755E+03  0.19256344808E+04  0.19431232716E+04  0.18800000000E+03 0.  0.
<mgrwt>
<rscale>  0 0.52759676E+03</rscale>
<asrwt>0</asrwt>
<pdfrwt beam="1">  1        2 0.47378422E+00 0.52759676E+03</pdfrwt>
<pdfrwt beam="2">  1       -2 0.29975578E-02 0.52759676E+03</pdfrwt>
<totfact> 0.76159916E+02</totfact>
</mgrwt>
</event>
<event>
 4    1  0.6034452E-005  0.5027936E+03  0.7818608E-02  0.1013052E+00
          2   -1    0    0  501    0  0.00000000000E+00  0.00000000000E+00  0.42979393937E+03  0.42979393938E+03  0.25500000000E-02 0.  1.
         -2   -1    0    0    0  501 -0.00000000000E+00 -0.00000000000E+00 -0.14704802247E+03  0.14704802249E+03  0.25500000000E-02 0. -1.
    5000001    1    1    2    0    0  0.89064722676E+02  0.14108678158E+03  0.14628673382E+03  0.29082952611E+03  0.18800000000E+03 0.  0.
   -5000001    1    1    2    0    0 -0.89064722676E+02 -0.14108678158E+03  0.13645918308E+03  0.28601243576E+03  0.18800000000E+03 0.  0.
<mgrwt>
<rscale>  0 0.50279359E+03</rscale>
<asrwt>0</asrwt>
<pdfrwt beam="1">  1        2 0.61399134E-01 0.50279359E+03</pdfrwt>
<pdfrwt beam="2">  1       -2 0.21006860E-01 0.50279359E+03</pdfrwt>
<totfact> 0.15560555E+03</totfact>
</mgrwt>
</event>
<event>
 4    1  0.6034452E-005  0.4527327E+03  0.7818608E-02  0.1026910E+00
          2   -1    0    0  501    0  0.00000000000E+00  0.00000000000E+00  0.12685392864E+04  0.12685392864E+04  0.25500000000E-02 0.  1.
         -2   -1    0    0    0  501 -0.00000000000E+00 -0.00000000000E+00 -0.40394280297E+02  0.40394280378E+02  0.25500000000E-02 0. -1.
    5000001    1    1    2    0    0  0.10970085897E+03  0.56217975422E+02  0.53741564646E+03  0.58254125714E+03  0.18800000000E+03 0.  0.
   -5000001    1    1    2    0    0 -0.10970085897E+03 -0.56217975422E+02  0.69072935963E+03  0.72639230962E+03  0.18800000000E+03 0.  0.
<mgrwt>
<rscale>  0 0.45273273E+03</rscale>
<asrwt>0</asrwt>
<pdfrwt beam="1">  1        2 0.18121991E+00 0.45273273E+03</pdfrwt>
<pdfrwt beam="2">  1       -2 0.57706111E-02 0.45273273E+03</pdfrwt>
<totfact> 0.32430414E+03</totfact>
</mgrwt>
</event>
<event>
 4    1  0.6034452E-005  0.8214868E+03  0.7818608E-02  0.9529426E-01
         -2   -1    0    0    0  501 -0.00000000000E+00  0.00000000000E+00  0.14540256065E+03  0.14540256067E+03  0.25500000000E-02 0. -1.
          2   -1    0    0  501    0  0.00000000000E+00 -0.00000000000E+00 -0.11602967907E+04  0.11602967907E+04  0.25500000000E-02 0.  1.
    5000001    1    1    2    0    0  0.76449039886E+02  0.35678218649E+03 -0.53145442646E+03  0.67151008310E+03  0.18800000000E+03 0.  0.
   -5000001    1    1    2    0    0 -0.76449039886E+02 -0.35678218649E+03 -0.48343980358E+03  0.63418926827E+03  0.18800000000E+03 0.  0.
<mgrwt>
<rscale>  0 0.82148676E+03</rscale>
<asrwt>0</asrwt>
<pdfrwt beam="1">  1        2 0.16575668E+00 0.82148676E+03</pdfrwt>
<pdfrwt beam="2">  1       -2 0.20771795E-01 0.82148676E+03</pdfrwt>
<totfact> 0.45087261E+02</totfact>
</mgrwt>
</event>
<event>
 4    1  0.6034452E-005  0.7620274E+03  0.7818608E-02  0.9616668E-01
         -2   -1    0    0    0  501 -0.00000000000E+00  0.00000000000E+00  0.10658540858E+03  0.10658540861E+03  0.25500000000E-02 0. -1.
          2   -1    0    0  501    0  0.00000000000E+00 -0.00000000000E+00 -0.13620199455E+04  0.13620199455E+04  0.25500000000E-02 0.  1.
    5000001    1    1    2    0    0  0.32810724418E+03 -0.46590932092E+02 -0.63068656730E+03  0.73684097660E+03  0.18800000000E+03 0.  0.
   -5000001    1    1    2    0    0 -0.32810724418E+03  0.46590932092E+02 -0.62474796963E+03  0.73176437751E+03  0.18800000000E+03 0.  0.
<mgrwt>
<rscale>  0 0.76202743E+03</rscale>
<asrwt>0</asrwt>
<pdfrwt beam="1">  1        2 0.19457427E+00 0.76202743E+03</pdfrwt>
<pdfrwt beam="2">  1       -2 0.15226488E-01 0.76202743E+03</pdfrwt>
<totfact> 0.59680369E+02</totfact>
</mgrwt>
</event>
<event>
 4    1  0.6034452E-005  0.5997997E+03  0.7818608E-02  0.9905822E-01
          2   -1    0    0  501    0  0.00000000000E+00  0.00000000000E+00  0.18555981541E+04  0.18555981541E+04  0.25500000000E-02 0.  1.
         -2   -1    0    0    0  501 -0.00000000000E+00 -0.00000000000E+00 -0.48469498961E+02  0.48469499028E+02  0.25500000000E-02 0. -1.
    5000001    1    1    2    0    0  0.15179960971E+03  0.14194765354E+03  0.12425631452E+04  0.12737736956E+04  0.18800000000E+03 0.  0.
   -5000001    1    1    2    0    0 -0.15179960971E+03 -0.14194765354E+03  0.56456550995E+03  0.63029395752E+03  0.18800000000E+03 0.  0.
<mgrwt>
<rscale>  0 0.59979968E+03</rscale>
<asrwt>0</asrwt>
<pdfrwt beam="1">  1        2 0.26508543E+00 0.59979968E+03</pdfrwt>
<pdfrwt beam="2">  1       -2 0.69242148E-02 0.59979968E+03</pdfrwt>
<totfact> 0.12073303E+03</totfact>
</mgrwt>
</event>
<event>
 4    1  0.6034452E-005  0.5886465E+03  0.7818608E-02  0.9929245E-01
         -2   -1    0    0    0  501 -0.00000000000E+00  0.00000000000E+00  0.22612190976E+03  0.22612190977E+03  0.25500000000E-02 0. -1.
          2   -1    0    0  501    0  0.00000000000E+00 -0.00000000000E+00 -0.38309497335E+03  0.38309497336E+03  0.25500000000E-02 0.  1.
    5000001    1    1    2    0    0 -0.33441898336E+02  0.19325286040E+03 -0.19565558542E+03  0.33479865102E+03  0.18800000000E+03 0.  0.
   -5000001    1    1    2    0    0  0.33441898336E+02 -0.19325286040E+03  0.38682521835E+02  0.27441823211E+03  0.18800000000E+03 0.  0.
<mgrwt>
<rscale>  0 0.58864647E+03</rscale>
<asrwt>0</asrwt>
<pdfrwt beam="1">  1        2 0.54727853E-01 0.58864647E+03</pdfrwt>
<pdfrwt beam="2">  1       -2 0.32303130E-01 0.58864647E+03</pdfrwt>
<totfact> 0.81300018E+02</totfact>
</mgrwt>
</event>
<event>
 4    1  0.6034452E-005  0.4795760E+03  0.7818608E-02  0.1019252E+00
         -2   -1    0    0    0  501 -0.00000000000E+00  0.00000000000E+00  0.82108870867E+03  0.82108870868E+03  0.25500000000E-02 0. -1.
          2   -1    0    0  501    0  0.00000000000E+00 -0.00000000000E+00 -0.70026879163E+02  0.70026879209E+02  0.25500000000E-02 0.  1.
    5000001    1    1    2    0    0  0.84413175847E+02 -0.11898976515E+03  0.43034207866E+03  0.49175446427E+03  0.18800000000E+03 0.  0.
   -5000001    1    1    2    0    0 -0.84413175847E+02  0.11898976515E+03  0.32071975085E+03  0.39936112361E+03  0.18800000000E+03 0.  0.
<mgrwt>
<rscale>  0 0.47957598E+03</rscale>
<asrwt>0</asrwt>
<pdfrwt beam="1">  1        2 0.10003840E-01 0.47957598E+03</pdfrwt>
<pdfrwt beam="2">  1       -2 0.11729839E+00 0.47957598E+03</pdfrwt>
<totfact> 0.37751076E+02</totfact>
</mgrwt>
</event>
<event>
 4    1  0.6034452E-005  0.7462518E+03  0.7818608E-02  0.9641249E-01
          2   -1    0    0  501    0  0.00000000000E+00  0.00000000000E+00  0.77613632310E+03  0.77613632310E+03  0.25500000000E-02 0.  1.
         -2   -1    0    0    0  501 -0.00000000000E+00 -0.00000000000E+00 -0.17937951090E+03  0.17937951092E+03  0.25500000000E-02 0. -1.
    5000001    1    1    2    0    0  0.13471076253E+02  0.27941188490E+03  0.93405257857E+02  0.34974421156E+03  0.18800000000E+03 0.  0.
   -5000001    1    1    2    0    0 -0.13471076253E+02 -0.27941188490E+03  0.50335155434E+03  0.60577162246E+03  0.18800000000E+03 0.  0.
<mgrwt>
<rscale>  0 0.74625184E+03</rscale>
<asrwt>0</asrwt>
<pdfrwt beam="1">  1        2 0.11087662E+00 0.74625184E+03</pdfrwt>
<pdfrwt beam="2">  1       -2 0.25625644E-01 0.74625184E+03</pdfrwt>
<totfact> 0.54340790E+02</totfact>
</mgrwt>
</event>
<event>
 4    1  0.6034452E-005  0.5130309E+03  0.7818608E-02  0.1010433E+00
          2   -1    0    0  501    0  0.00000000000E+00  0.00000000000E+00  0.24728233738E+04  0.24728233738E+04  0.25500000000E-02 0.  1.
         -2   -1    0    0    0  501 -0.00000000000E+00 -0.00000000000E+00 -0.26609330258E+02  0.26609330380E+02  0.25500000000E-02 0. -1.
    5000001    1    1    2    0    0  0.16111032452E+03  0.64997634907E+02  0.11423238945E+04  0.11706532831E+04  0.18800000000E+03 0.  0.
   -5000001    1    1    2    0    0 -0.16111032452E+03 -0.64997634907E+02  0.13038901490E+04  0.13287794211E+04  0.18800000000E+03 0.  0.
<mgrwt>
<rscale>  0 0.51303089E+03</rscale>
<asrwt>0</asrwt>
<pdfrwt beam="1">  1        2 0.35326057E+00 0.51303089E+03</pdfrwt>
<pdfrwt beam="2">  1       -2 0.38013320E-02 0.51303089E+03</pdfrwt>
<totfact> 0.15042995E+03</totfact>
</mgrwt>
</event>
<event>
 4    1  0.6034452E-005  0.5389121E+03  0.7818608E-02  0.1004093E+00
         -2   -1    0    0    0  501 -0.00000000000E+00  0.00000000000E+00  0.12906776213E+03  0.12906776215E+03  0.25500000000E-02 0.  1.
          2   -1    0    0  501    0  0.00000000000E+00 -0.00000000000E+00 -0.56254598015E+03  0.56254598016E+03  0.25500000000E-02 0. -1.
    5000001    1    1    2    0    0  0.51646996831E+02  0.15820867474E+03 -0.91225247112E+02  0.26713936954E+03  0.18800000000E+03 0.  0.
   -5000001    1    1    2    0    0 -0.51646996831E+02 -0.15820867474E+03 -0.34225297091E+03  0.42447437277E+03  0.18800000000E+03 0.  0.
<mgrwt>
<rscale>  0 0.53891206E+03</rscale>
<asrwt>0</asrwt>
<pdfrwt beam="1">  1        2 0.80363710E-01 0.53891206E+03</pdfrwt>
<pdfrwt beam="2">  1       -2 0.18438252E-01 0.53891206E+03</pdfrwt>
<totfact> 0.14386276E+03</totfact>
</mgrwt>
</event>
<event>
 4    1  0.6034452E-005  0.1081149E+04  0.7818608E-02  0.9223763E-01
          2   -1    0    0  501    0  0.00000000000E+00  0.00000000000E+00  0.28698787118E+04  0.28698787118E+04  0.25500000000E-02 0.  1.
         -2   -1    0    0    0  501 -0.00000000000E+00 -0.00000000000E+00 -0.10182332166E+03  0.10182332170E+03  0.25500000000E-02 0. -1.
    5000001    1    1    2    0    0 -0.13336807717E+03 -0.48890607949E+03  0.14053868098E+04  0.15057464208E+04  0.18800000000E+03 0.  0.
   -5000001    1    1    2    0    0  0.13336807717E+03  0.48890607949E+03  0.13626685803E+04  0.14659556127E+04  0.18800000000E+03 0.  0.
<mgrwt>
<rscale>  0 0.10811486E+04</rscale>
<asrwt>0</asrwt>
<pdfrwt beam="1">  1        2 0.40998267E+00 0.10811486E+04</pdfrwt>
<pdfrwt beam="2">  1       -2 0.14546189E-01 0.10811486E+04</pdfrwt>
<totfact> 0.10382161E+02</totfact>
</mgrwt>
</event>
<event>
 4    1  0.6034452E-005  0.4586115E+03  0.7818608E-02  0.1025185E+00
         -2   -1    0    0    0  501 -0.00000000000E+00  0.00000000000E+00  0.52005373685E+02  0.52005373748E+02  0.25500000000E-02 0. -1.
          2   -1    0    0  501    0  0.00000000000E+00 -0.00000000000E+00 -0.10110711685E+04  0.10110711685E+04  0.25500000000E-02 0.  1.
    5000001    1    1    2    0    0  0.80032479855E+02  0.92239269719E+02 -0.36778897379E+03  0.43072730347E+03  0.18800000000E+03 0.  0.
   -5000001    1    1    2    0    0 -0.80032479855E+02 -0.92239269719E+02 -0.59127682102E+03  0.63234923878E+03  0.18800000000E+03 0.  0.
<mgrwt>
<rscale>  0 0.45861153E+03</rscale>
<asrwt>0</asrwt>
<pdfrwt beam="1">  1        2 0.14443873E+00 0.45861153E+03</pdfrwt>
<pdfrwt beam="2">  1       -2 0.74293397E-02 0.45861153E+03</pdfrwt>
<totfact> 0.30595077E+03</totfact>
</mgrwt>
</event>
<event>
 4    1  0.6034452E-005  0.5860717E+03  0.7818608E-02  0.9934732E-01
         -2   -1    0    0    0  501 -0.00000000000E+00  0.00000000000E+00  0.18900527803E+03  0.18900527805E+03  0.25500000000E-02 0. -1.
          2   -1    0    0  501    0  0.00000000000E+00 -0.00000000000E+00 -0.45432600522E+03  0.45432600522E+03  0.25500000000E-02 0.  1.
    5000001    1    1    2    0    0  0.14281790627E+03 -0.16443235965E+03 -0.71631193302E+02  0.29649617722E+03  0.18800000000E+03 0.  0.
   -5000001    1    1    2    0    0 -0.14281790627E+03  0.16443235965E+03 -0.19368953389E+03  0.34683510605E+03  0.18800000000E+03 0.  0.
<mgrwt>
<rscale>  0 0.58607171E+03</rscale>
<asrwt>0</asrwt>
<pdfrwt beam="1">  1        2 0.64903714E-01 0.58607171E+03</pdfrwt>
<pdfrwt beam="2">  1       -2 0.27000754E-01 0.58607171E+03</pdfrwt>
<totfact> 0.93536710E+02</totfact>
</mgrwt>
</event>
<event>
 4    1  0.6034452E-005  0.6511958E+03  0.7818608E-02  0.9804538E-01
         -2   -1    0    0    0  501 -0.00000000000E+00  0.00000000000E+00  0.38411723055E+03  0.38411723056E+03  0.25500000000E-02 0. -1.
          2   -1    0    0  501    0  0.00000000000E+00 -0.00000000000E+00 -0.27599384719E+03  0.27599384721E+03  0.25500000000E-02 0.  1.
    5000001    1    1    2    0    0 -0.16640095036E+03 -0.18095456161E+03 -0.48497365201E+02  0.31325680213E+03  0.18800000000E+03 0.  0.
   -5000001    1    1    2    0    0  0.16640095036E+03  0.18095456161E+03  0.15662074855E+03  0.34685427563E+03  0.18800000000E+03 0.  0.
<mgrwt>
<rscale>  0 0.65119580E+03</rscale>
<asrwt>0</asrwt>
<pdfrwt beam="1">  1        2 0.39427692E-01 0.65119580E+03</pdfrwt>
<pdfrwt beam="2">  1       -2 0.54873890E-01 0.65119580E+03</pdfrwt>
<totfact> 0.41240752E+02</totfact>
</mgrwt>
</event>
<event>
 4    1  0.6034452E-005  0.4203756E+03  0.7818608E-02  0.1036944E+00
          2   -1    0    0  501    0  0.00000000000E+00  0.00000000000E+00  0.12709994156E+04  0.12709994156E+04  0.25500000000E-02 0.  1.
         -2   -1    0    0    0  501 -0.00000000000E+00 -0.00000000000E+00 -0.34759183489E+02  0.34759183583E+02  0.25500000000E-02 0. -1.
    5000001    1    1    2    0    0 -0.58838325329E+02  0.36906006418E+02  0.81483914148E+03  0.83912503736E+03  0.18800000000E+03 0.  0.
   -5000001    1    1    2    0    0  0.58838325329E+02 -0.36906006418E+02  0.42140109063E+03  0.46663356183E+03  0.18800000000E+03 0.  0.
<mgrwt>
<rscale>  0 0.42037556E+03</rscale>
<asrwt>0</asrwt>
<pdfrwt beam="1">  1        2 0.18157135E+00 0.42037556E+03</pdfrwt>
<pdfrwt beam="2">  1       -2 0.49655974E-02 0.42037556E+03</pdfrwt>
<totfact> 0.40767476E+03</totfact>
</mgrwt>
</event>
<event>
 4    1  0.6034452E-005  0.8837898E+03  0.7818608E-02  0.9446075E-01
         -2   -1    0    0    0  501 -0.00000000000E+00  0.00000000000E+00  0.30512813731E+03  0.30512813732E+03  0.25500000000E-02 0. -1.
          2   -1    0    0  501    0  0.00000000000E+00 -0.00000000000E+00 -0.63996430379E+03  0.63996430379E+03  0.25500000000E-02 0.  1.
    5000001    1    1    2    0    0 -0.27730693768E+03  0.26082094566E+03 -0.36446555882E+02  0.42614440606E+03  0.18800000000E+03 0.  0.
   -5000001    1    1    2    0    0  0.27730693768E+03 -0.26082094566E+03 -0.29838961059E+03  0.51894803506E+03  0.18800000000E+03 0.  0.
<mgrwt>
<rscale>  0 0.88378983E+03</rscale>
<asrwt>0</asrwt>
<pdfrwt beam="1">  1        2 0.91423472E-01 0.88378983E+03</pdfrwt>
<pdfrwt beam="2">  1       -2 0.43589734E-01 0.88378983E+03</pdfrwt>
<totfact> 0.25130598E+02</totfact>
</mgrwt>
</event>
<event>
 4    1  0.6034452E-005  0.1079435E+04  0.7818608E-02  0.9225471E-01
         -2   -1    0    0    0  501 -0.00000000000E+00  0.00000000000E+00  0.20245779996E+03  0.20245779998E+03  0.25500000000E-02 0. -1.
          2   -1    0    0  501    0  0.00000000000E+00 -0.00000000000E+00 -0.14387927152E+04  0.14387927152E+04  0.25500000000E-02 0.  1.
    5000001    1    1    2    0    0 -0.23045851957E+03 -0.27158902734E+03 -0.11644363078E+04  0.12321232260E+04  0.18800000000E+03 0.  0.
   -5000001    1    1    2    0    0  0.23045851957E+03  0.27158902734E+03 -0.71898607409E+02  0.40912728920E+03  0.18800000000E+03 0.  0.
<mgrwt>
<rscale>  0 0.10794347E+04</rscale>
<asrwt>0</asrwt>
<pdfrwt beam="1">  1        2 0.20554181E+00 0.10794347E+04</pdfrwt>
<pdfrwt beam="2">  1       -2 0.28922544E-01 0.10794347E+04</pdfrwt>
<totfact> 0.17168948E+02</totfact>
</mgrwt>
</event>
<event>
 4    1  0.6034452E-005  0.8965216E+03  0.7818608E-02  0.9429940E-01
          2   -1    0    0  501    0  0.00000000000E+00  0.00000000000E+00  0.31381995787E+04  0.31381995787E+04  0.25500000000E-02 0.  1.
         -2   -1    0    0    0  501 -0.00000000000E+00 -0.00000000000E+00 -0.64029623920E+02  0.64029623970E+02  0.25500000000E-02 0. -1.
    5000001    1    1    2    0    0  0.18049426082E+03 -0.12824783852E+03  0.31758602034E+03  0.43038420811E+03  0.18800000000E+03 0.  0.
   -5000001    1    1    2    0    0 -0.18049426082E+03  0.12824783852E+03  0.27565839345E+04  0.27718449946E+04  0.18800000000E+03 0.  0.
<mgrwt>
<rscale>  0 0.89652159E+03</rscale>
<asrwt>0</asrwt>
<pdfrwt beam="1">  1        2 0.44831433E+00 0.89652159E+03</pdfrwt>
<pdfrwt beam="2">  1       -2 0.91470870E-02 0.89652159E+03</pdfrwt>
<totfact> 0.16182743E+02</totfact>
</mgrwt>
</event>
<event>
 4    1  0.6034452E-005  0.4347502E+03  0.7818608E-02  0.1032370E+00
         -2   -1    0    0    0  501 -0.00000000000E+00  0.00000000000E+00  0.76512051072E+02  0.76512051114E+02  0.25500000000E-02 0. -1.
          2   -1    0    0  501    0  0.00000000000E+00 -0.00000000000E+00 -0.61757502373E+03  0.61757502374E+03  0.25500000000E-02 0.  1.
    5000001    1    1    2    0    0 -0.84893715179E+02  0.68017558203E+02 -0.28432089200E+03  0.35779281816E+03  0.18800000000E+03 0.  0.
   -5000001    1    1    2    0    0  0.84893715179E+02 -0.68017558203E+02 -0.25674208067E+03  0.33629425670E+03  0.18800000000E+03 0.  0.
<mgrwt>
<rscale>  0 0.43475019E+03</rscale>
<asrwt>0</asrwt>
<pdfrwt beam="1">  1        2 0.88225001E-01 0.43475019E+03</pdfrwt>
<pdfrwt beam="2">  1       -2 0.10930293E-01 0.43475019E+03</pdfrwt>
<totfact> 0.30819115E+03</totfact>
</mgrwt>
</event>
<event>
 4    1  0.6034452E-005  0.4074693E+03  0.7818608E-02  0.1041224E+00
          2   -1    0    0  501    0  0.00000000000E+00  0.00000000000E+00  0.15478516644E+04  0.15478516644E+04  0.25500000000E-02 0.  1.
         -2   -1    0    0    0  501 -0.00000000000E+00 -0.00000000000E+00 -0.26816394375E+02  0.26816394496E+02  0.25500000000E-02 0. -1.
    5000001    1    1    2    0    0 -0.56316166524E+02  0.86698281023E+01  0.96924126697E+03  0.98894858822E+03  0.18800000000E+03 0.  0.
   -5000001    1    1    2    0    0  0.56316166524E+02 -0.86698281023E+01  0.55179400304E+03  0.58571947067E+03  0.18800000000E+03 0.  0.
<mgrwt>
<rscale>  0 0.40746927E+03</rscale>
<asrwt>0</asrwt>
<pdfrwt beam="1">  1        2 0.22112171E+00 0.40746927E+03</pdfrwt>
<pdfrwt beam="2">  1       -2 0.38309128E-02 0.40746927E+03</pdfrwt>
<totfact> 0.43401600E+03</totfact>
</mgrwt>
</event>
<event>
 4    1  0.6034452E-005  0.6403550E+03  0.7818608E-02  0.9825047E-01
          2   -1    0    0  501    0  0.00000000000E+00  0.00000000000E+00  0.12046316667E+03  0.12046316670E+03  0.25500000000E-02 0.  1.
         -2   -1    0    0    0  501 -0.00000000000E+00 -0.00000000000E+00 -0.85099577141E+03  0.85099577142E+03  0.25500000000E-02 0. -1.
    5000001    1    1    2    0    0 -0.79052290106E+02 -0.24149139720E+03 -0.44265563906E+03  0.54392589043E+03  0.18800000000E+03 0.  0.
   -5000001    1    1    2    0    0  0.79052290106E+02  0.24149139720E+03 -0.28787696568E+03  0.42753304768E+03  0.18800000000E+03 0.  0.
<mgrwt>
<rscale>  0 0.64035504E+03</rscale>
<asrwt>0</asrwt>
<pdfrwt beam="1">  1        2 0.17209024E-01 0.64035504E+03</pdfrwt>
<pdfrwt beam="2">  1       -2 0.12157082E+00 0.64035504E+03</pdfrwt>
<totfact> 0.17681890E+02</totfact>
</mgrwt>
</event>
<event>
 4    1  0.6034452E-005  0.9436344E+03  0.7818608E-02  0.9372622E-01
         -2   -1    0    0    0  501 -0.00000000000E+00  0.00000000000E+00  0.16506377795E+03  0.16506377797E+03  0.25500000000E-02 0. -1.
          2   -1    0    0  501    0  0.00000000000E+00 -0.00000000000E+00 -0.13486392075E+04  0.13486392075E+04  0.25500000000E-02 0.  1.
    5000001    1    1    2    0    0  0.27255671307E+01  0.38130448255E+03 -0.92001337419E+03  0.10134935352E+04  0.18800000000E+03 0.  0.
   -5000001    1    1    2    0    0 -0.27255671307E+01 -0.38130448255E+03 -0.26356205533E+03  0.50020945027E+03  0.18800000000E+03 0.  0.
<mgrwt>
<rscale>  0 0.94363443E+03</rscale>
<asrwt>0</asrwt>
<pdfrwt beam="1">  1        2 0.19266274E+00 0.94363443E+03</pdfrwt>
<pdfrwt beam="2">  1       -2 0.23580540E-01 0.94363443E+03</pdfrwt>
<totfact> 0.28079704E+02</totfact>
</mgrwt>
</event>
<event>
 4    1  0.6034452E-005  0.4805219E+03  0.7818608E-02  0.1018992E+00
         -2   -1    0    0    0  501 -0.00000000000E+00  0.00000000000E+00  0.67217461178E+02  0.67217461226E+02  0.25500000000E-02 0. -1.
          2   -1    0    0  501    0  0.00000000000E+00 -0.00000000000E+00 -0.85878458749E+03  0.85878458750E+03  0.25500000000E-02 0.  1.
    5000001    1    1    2    0    0  0.90371226770E+02  0.11902210082E+03 -0.40914871667E+03  0.47442585455E+03  0.18800000000E+03 0.  0.
   -5000001    1    1    2    0    0 -0.90371226770E+02 -0.11902210082E+03 -0.38241840965E+03  0.45157619418E+03  0.18800000000E+03 0.  0.
<mgrwt>
<rscale>  0 0.48052188E+03</rscale>
<asrwt>0</asrwt>
<pdfrwt beam="1">  1        2 0.12268351E+00 0.48052188E+03</pdfrwt>
<pdfrwt beam="2">  1       -2 0.96024950E-02 0.48052188E+03</pdfrwt>
<totfact> 0.25345952E+03</totfact>
</mgrwt>
</event>
<event>
 4    1  0.6034452E-005  0.7060982E+03  0.7818608E-02  0.9706860E-01
         -2   -1    0    0    0  501 -0.00000000000E+00  0.00000000000E+00  0.81711074010E+02  0.81711074050E+02  0.25500000000E-02 0. -1.
          2   -1    0    0  501    0  0.00000000000E+00 -0.00000000000E+00 -0.15254193779E+04  0.15254193779E+04  0.25500000000E-02 0.  1.
    5000001    1    1    2    0    0 -0.47695463771E+02  0.19003623682E+03 -0.12354150801E+04  0.12649043635E+04  0.18800000000E+03 0.  0.
   -5000001    1    1    2    0    0  0.47695463771E+02 -0.19003623682E+03 -0.20829322379E+03  0.34222608849E+03  0.18800000000E+03 0.  0.
<mgrwt>
<rscale>  0 0.70609817E+03</rscale>
<asrwt>0</asrwt>
<pdfrwt beam="1">  1        2 0.21791704E+00 0.70609817E+03</pdfrwt>
<pdfrwt beam="2">  1       -2 0.11673012E-01 0.70609817E+03</pdfrwt>
<totfact> 0.76386161E+02</totfact>
</mgrwt>
</event>
<event>
 4    1  0.6034452E-005  0.8055998E+03  0.7818608E-02  0.9551947E-01
          2   -1    0    0  501    0  0.00000000000E+00  0.00000000000E+00  0.19751301813E+03  0.19751301815E+03  0.25500000000E-02 0.  1.
         -2   -1    0    0    0  501 -0.00000000000E+00 -0.00000000000E+00 -0.82145342171E+03  0.82145342171E+03  0.25500000000E-02 0. -1.
    5000001    1    1    2    0    0 -0.75441948332E+02  0.25062544166E+03 -0.63065515625E+01  0.32231719186E+03  0.18800000000E+03 0.  0.
   -5000001    1    1    2    0    0  0.75441948332E+02 -0.25062544166E+03 -0.61763385201E+03  0.69664924799E+03  0.18800000000E+03 0.  0.
<mgrwt>
<rscale>  0 0.80559976E+03</rscale>
<asrwt>0</asrwt>
<pdfrwt beam="1">  1        2 0.28216146E-01 0.80559976E+03</pdfrwt>
<pdfrwt beam="2">  1       -2 0.11735049E+00 0.80559976E+03</pdfrwt>
<totfact> 0.10783213E+02</totfact>
</mgrwt>
</event>
<event>
 4    1  0.6034452E-005  0.5597550E+03  0.7818608E-02  0.9992609E-01
         -2   -1    0    0    0  501 -0.00000000000E+00  0.00000000000E+00  0.19967738769E+03  0.19967738771E+03  0.25500000000E-02 0. -1.
          2   -1    0    0  501    0  0.00000000000E+00 -0.00000000000E+00 -0.39228980353E+03  0.39228980354E+03  0.25500000000E-02 0.  1.
    5000001    1    1    2    0    0 -0.12357354517E+03 -0.54555971151E+02  0.70036991120E+02  0.24185937067E+03  0.18800000000E+03 0.  0.
   -5000001    1    1    2    0    0  0.12357354517E+03  0.54555971151E+02 -0.26264940696E+03  0.35010782058E+03  0.18800000000E+03 0.  0.
<mgrwt>
<rscale>  0 0.55975496E+03</rscale>
<asrwt>0</asrwt>
<pdfrwt beam="1">  1        2 0.56041400E-01 0.55975496E+03</pdfrwt>
<pdfrwt beam="2">  1       -2 0.28525341E-01 0.55975496E+03</pdfrwt>
<totfact> 0.99690494E+02</totfact>
</mgrwt>
</event>
<event>
 4    1  0.6034452E-005  0.6337136E+03  0.7818608E-02  0.9837829E-01
         -2   -1    0    0    0  501 -0.00000000000E+00  0.00000000000E+00  0.74581494783E+02  0.74581494827E+02  0.25500000000E-02 0. -1.
          2   -1    0    0  501    0  0.00000000000E+00 -0.00000000000E+00 -0.13461549185E+04  0.13461549185E+04  0.25500000000E-02 0.  1.
    5000001    1    1    2    0    0 -0.16468157660E+03 -0.17672611919E+03 -0.81932471735E+03  0.87463657329E+03  0.18800000000E+03 0.  0.
   -5000001    1    1    2    0    0  0.16468157660E+03  0.17672611919E+03 -0.45224870636E+03  0.54609984003E+03  0.18800000000E+03 0.  0.
<mgrwt>
<rscale>  0 0.63371365E+03</rscale>
<asrwt>0</asrwt>
<pdfrwt beam="1">  1        2 0.19230783E+00 0.63371365E+03</pdfrwt>
<pdfrwt beam="2">  1       -2 0.10654500E-01 0.63371365E+03</pdfrwt>
<totfact> 0.11072517E+03</totfact>
</mgrwt>
</event>
<event>
 4    1  0.6034452E-005  0.6026926E+03  0.7818608E-02  0.9899835E-01
          2   -1    0    0  501    0  0.00000000000E+00  0.00000000000E+00  0.30426031003E+03  0.30426031004E+03  0.25500000000E-02 0.  1.
         -2   -1    0    0    0  501 -0.00000000000E+00 -0.00000000000E+00 -0.29846019824E+03  0.29846019825E+03  0.25500000000E-02 0. -1.
    5000001    1    1    2    0    0 -0.72658259142E+02 -0.21930825531E+03 -0.42821411458E+02  0.30092026643E+03  0.18800000000E+03 0.  0.
   -5000001    1    1    2    0    0  0.72658259142E+02  0.21930825531E+03  0.48621523253E+02  0.30180024187E+03  0.18800000000E+03 0.  0.
<mgrwt>
<rscale>  0 0.60269260E+03</rscale>
<asrwt>0</asrwt>
<pdfrwt beam="1">  1        2 0.43465759E-01 0.60269260E+03</pdfrwt>
<pdfrwt beam="2">  1       -2 0.42637171E-01 0.60269260E+03</pdfrwt>
<totfact> 0.61617411E+02</totfact>
</mgrwt>
</event>
<event>
 4    1  0.6034452E-005  0.6931336E+03  0.7818608E-02  0.9729047E-01
         -2   -1    0    0    0  501 -0.00000000000E+00  0.00000000000E+00  0.28127476577E+03  0.28127476578E+03  0.25500000000E-02 0. -1.
          2   -1    0    0  501    0  0.00000000000E+00 -0.00000000000E+00 -0.42701499694E+03  0.42701499695E+03  0.25500000000E-02 0.  1.
    5000001    1    1    2    0    0  0.20433868255E+03 -0.15612710391E+03 -0.21236354384E+03  0.38284754735E+03  0.18800000000E+03 0.  0.
   -5000001    1    1    2    0    0 -0.20433868255E+03  0.15612710391E+03  0.66623312663E+02  0.32544221538E+03  0.18800000000E+03 0.  0.
<mgrwt>
<rscale>  0 0.69313359E+03</rscale>
<asrwt>0</asrwt>
<pdfrwt beam="1">  1        2 0.61002142E-01 0.69313359E+03</pdfrwt>
<pdfrwt beam="2">  1       -2 0.40182110E-01 0.69313359E+03</pdfrwt>
<totfact> 0.47413121E+02</totfact>
</mgrwt>
</event>
<event>
 4    1  0.6034452E-005  0.1044656E+04  0.7818608E-02  0.9260879E-01
          2   -1    0    0  501    0  0.00000000000E+00  0.00000000000E+00  0.17413530556E+04  0.17413530556E+04  0.25500000000E-02 0. -1.
         -2   -1    0    0    0  501 -0.00000000000E+00 -0.00000000000E+00 -0.15667497955E+03  0.15667497957E+03  0.25500000000E-02 0.  1.
    5000001    1    1    2    0    0 -0.51817601001E+01 -0.46723762028E+03  0.10437317304E+04  0.11589036929E+04  0.18800000000E+03 0.  0.
   -5000001    1    1    2    0    0  0.51817601001E+01  0.46723762028E+03  0.54094634568E+03  0.73912434228E+03  0.18800000000E+03 0.  0.
<mgrwt>
<rscale>  0 0.10446558E+04</rscale>
<asrwt>0</asrwt>
<pdfrwt beam="1">  1        2 0.24876469E+00 0.10446558E+04</pdfrwt>
<pdfrwt beam="2">  1       -2 0.22382143E-01 0.10446558E+04</pdfrwt>
<totfact> 0.19016592E+02</totfact>
</mgrwt>
</event>
<event>
 4    1  0.6034452E-005  0.5132139E+03  0.7818608E-02  0.1010386E+00
         -2   -1    0    0    0  501 -0.00000000000E+00  0.00000000000E+00  0.71939395553E+02  0.71939395598E+02  0.25500000000E-02 0. -1.
          2   -1    0    0  501    0  0.00000000000E+00 -0.00000000000E+00 -0.91531397688E+03  0.91531397688E+03  0.25500000000E-02 0.  1.
    5000001    1    1    2    0    0 -0.63647078144E+02  0.16236648829E+03 -0.40350814804E+03  0.47809690713E+03  0.18800000000E+03 0.  0.
   -5000001    1    1    2    0    0  0.63647078144E+02 -0.16236648829E+03 -0.43986643328E+03  0.50915646535E+03  0.18800000000E+03 0.  0.
<mgrwt>
<rscale>  0 0.51321393E+03</rscale>
<asrwt>0</asrwt>
<pdfrwt beam="1">  1        2 0.13075913E+00 0.51321393E+03</pdfrwt>
<pdfrwt beam="2">  1       -2 0.10277057E-01 0.51321393E+03</pdfrwt>
<totfact> 0.20884479E+03</totfact>
</mgrwt>
</event>
<event>
 4    1  0.6034452E-005  0.6269676E+03  0.7818608E-02  0.9850984E-01
          2   -1    0    0  501    0  0.00000000000E+00  0.00000000000E+00  0.27820875371E+03  0.27820875373E+03  0.25500000000E-02 0.  1.
         -2   -1    0    0    0  501 -0.00000000000E+00 -0.00000000000E+00 -0.35323143760E+03  0.35323143761E+03  0.25500000000E-02 0. -1.
    5000001    1    1    2    0    0 -0.54597383989E+02 -0.17642333988E+03  0.13347021974E+03  0.29540543115E+03  0.18800000000E+03 0.  0.
   -5000001    1    1    2    0    0  0.54597383989E+02  0.17642333988E+03 -0.20849290362E+03  0.33603476019E+03  0.18800000000E+03 0.  0.
<mgrwt>
<rscale>  0 0.62696755E+03</rscale>
<asrwt>0</asrwt>
<pdfrwt beam="1">  1        2 0.39744108E-01 0.62696755E+03</pdfrwt>
<pdfrwt beam="2">  1       -2 0.50461634E-01 0.62696755E+03</pdfrwt>
<totfact> 0.48563632E+02</totfact>
</mgrwt>
</event>
<event>
 4    1  0.6034452E-005  0.4730358E+03  0.7818608E-02  0.1021067E+00
         -2   -1    0    0    0  501 -0.00000000000E+00  0.00000000000E+00  0.33552310655E+02  0.33552310752E+02  0.25500000000E-02 0. -1.
          2   -1    0    0  501    0  0.00000000000E+00 -0.00000000000E+00 -0.16672684433E+04  0.16672684433E+04  0.25500000000E-02 0.  1.
    5000001    1    1    2    0    0 -0.14442290365E+02  0.14260228379E+03 -0.79075190670E+03  0.82533421657E+03  0.18800000000E+03 0.  0.
   -5000001    1    1    2    0    0  0.14442290365E+02 -0.14260228379E+03 -0.84296422598E+03  0.87548653752E+03  0.18800000000E+03 0.  0.
<mgrwt>
<rscale>  0 0.47303577E+03</rscale>
<asrwt>0</asrwt>
<pdfrwt beam="1">  1        2 0.23818115E+00 0.47303577E+03</pdfrwt>
<pdfrwt beam="2">  1       -2 0.47931883E-02 0.47303577E+03</pdfrwt>
<totfact> 0.26780636E+03</totfact>
</mgrwt>
</event>
<event>
 4    1  0.6034452E-005  0.7587457E+03  0.7818608E-02  0.9621729E-01
          2   -1    0    0  501    0  0.00000000000E+00  0.00000000000E+00  0.90660445806E+03  0.90660445806E+03  0.25500000000E-02 0.  1.
         -2   -1    0    0    0  501 -0.00000000000E+00 -0.00000000000E+00 -0.15875035041E+03  0.15875035043E+03  0.25500000000E-02 0. -1.
    5000001    1    1    2    0    0  0.13879922931E+03  0.29504968728E+03  0.44068061724E+03  0.57953684131E+03  0.18800000000E+03 0.  0.
   -5000001    1    1    2    0    0 -0.13879922931E+03 -0.29504968728E+03  0.30717349042E+03  0.48581796718E+03  0.18800000000E+03 0.  0.
<mgrwt>
<rscale>  0 0.75874574E+03</rscale>
<asrwt>0</asrwt>
<pdfrwt beam="1">  1        2 0.12951493E+00 0.75874574E+03</pdfrwt>
<pdfrwt beam="2">  1       -2 0.22678620E-01 0.75874574E+03</pdfrwt>
<totfact> 0.55162013E+02</totfact>
</mgrwt>
</event>
<event>
 4    1  0.6034452E-005  0.6156707E+03  0.7818608E-02  0.9873417E-01
         -2   -1    0    0    0  501 -0.00000000000E+00  0.00000000000E+00  0.25417445955E+03  0.25417445956E+03  0.25500000000E-02 0. -1.
          2   -1    0    0  501    0  0.00000000000E+00 -0.00000000000E+00 -0.37282500092E+03  0.37282500093E+03  0.25500000000E-02 0.  1.
    5000001    1    1    2    0    0  0.15868435847E+03  0.17721068894E+03 -0.51080868962E+01  0.30323991566E+03  0.18800000000E+03 0.  0.
   -5000001    1    1    2    0    0 -0.15868435847E+03 -0.17721068894E+03 -0.11354245447E+03  0.32375954483E+03  0.18800000000E+03 0.  0.
<mgrwt>
<rscale>  0 0.61567067E+03</rscale>
<asrwt>0</asrwt>
<pdfrwt beam="1">  1        2 0.53260715E-01 0.61567067E+03</pdfrwt>
<pdfrwt beam="2">  1       -2 0.36310637E-01 0.61567067E+03</pdfrwt>
<totfact> 0.67158592E+02</totfact>
</mgrwt>
</event>
<event>
 4    1  0.6034452E-005  0.7933731E+03  0.7818608E-02  0.9569659E-01
          2   -1    0    0  501    0  0.00000000000E+00  0.00000000000E+00  0.22734320541E+04  0.22734320541E+04  0.25500000000E-02 0.  1.
         -2   -1    0    0    0  501 -0.00000000000E+00 -0.00000000000E+00 -0.69217026819E+02  0.69217026866E+02  0.25500000000E-02 0. -1.
    5000001    1    1    2    0    0  0.47371850659E+02 -0.24028900471E+03  0.18375390655E+04  0.18632972697E+04  0.18800000000E+03 0.  0.
   -5000001    1    1    2    0    0 -0.47371850659E+02  0.24028900471E+03  0.36667596178E+03  0.47935181127E+03  0.18800000000E+03 0.  0.
<mgrwt>
<rscale>  0 0.79337307E+03</rscale>
<asrwt>0</asrwt>
<pdfrwt beam="1">  1        2 0.32477601E+00 0.79337307E+03</pdfrwt>
<pdfrwt beam="2">  1       -2 0.98881466E-02 0.79337307E+03</pdfrwt>
<totfact> 0.41440347E+02</totfact>
</mgrwt>
</event>
<event>
 4    1  0.6034452E-005  0.4687160E+03  0.7818608E-02  0.1022283E+00
          2   -1    0    0  501    0  0.00000000000E+00  0.00000000000E+00  0.83405677226E+02  0.83405677265E+02  0.25500000000E-02 0.  1.
         -2   -1    0    0    0  501 -0.00000000000E+00 -0.00000000000E+00 -0.65851238475E+03  0.65851238476E+03  0.25500000000E-02 0. -1.
    5000001    1    1    2    0    0 -0.20429603758E+02 -0.13667909718E+03 -0.25283364422E+03  0.34404563065E+03  0.18800000000E+03 0.  0.
   -5000001    1    1    2    0    0  0.20429603758E+02  0.13667909718E+03 -0.32227306331E+03  0.39787243138E+03  0.18800000000E+03 0.  0.
<mgrwt>
<rscale>  0 0.46871600E+03</rscale>
<asrwt>0</asrwt>
<pdfrwt beam="1">  1        2 0.11915097E-01 0.46871600E+03</pdfrwt>
<pdfrwt beam="2">  1       -2 0.94073195E-01 0.46871600E+03</pdfrwt>
<totfact> 0.51237301E+02</totfact>
</mgrwt>
</event>
<event>
 4    1  0.6034452E-005  0.5508581E+03  0.7818608E-02  0.1001296E+00
         -2   -1    0    0    0  501 -0.00000000000E+00  0.00000000000E+00  0.11737271002E+03  0.11737271004E+03  0.25500000000E-02 0. -1.
          2   -1    0    0  501    0  0.00000000000E+00 -0.00000000000E+00 -0.64632708407E+03  0.64632708407E+03  0.25500000000E-02 0.  1.
    5000001    1    1    2    0    0 -0.32316716131E+01  0.20124158083E+03 -0.26852956736E+03  0.38465666003E+03  0.18800000000E+03 0.  0.
   -5000001    1    1    2    0    0  0.32316716131E+01 -0.20124158083E+03 -0.26042480669E+03  0.37904313409E+03  0.18800000000E+03 0.  0.
<mgrwt>
<rscale>  0 0.55085810E+03</rscale>
<asrwt>0</asrwt>
<pdfrwt beam="1">  1        2 0.92332439E-01 0.55085810E+03</pdfrwt>
<pdfrwt beam="2">  1       -2 0.16767530E-01 0.55085810E+03</pdfrwt>
<totfact> 0.14376534E+03</totfact>
</mgrwt>
</event>
<event>
 4    1  0.6034452E-005  0.4812553E+03  0.7818608E-02  0.1018791E+00
          2   -1    0    0  501    0  0.00000000000E+00  0.00000000000E+00  0.22530274934E+04  0.22530274934E+04  0.25500000000E-02 0.  1.
         -2   -1    0    0    0  501 -0.00000000000E+00 -0.00000000000E+00 -0.25699489532E+02  0.25699489658E+02  0.25500000000E-02 0. -1.
    5000001    1    1    2    0    0 -0.60921735863E+02  0.13650408904E+03  0.11827413531E+04  0.12068827335E+04  0.18800000000E+03 0.  0.
   -5000001    1    1    2    0    0  0.60921735863E+02 -0.13650408904E+03  0.10445866508E+04  0.10718442495E+04  0.18800000000E+03 0.  0.
<mgrwt>
<rscale>  0 0.48125526E+03</rscale>
<asrwt>0</asrwt>
<pdfrwt beam="1">  1        2 0.32186097E+00 0.48125526E+03</pdfrwt>
<pdfrwt beam="2">  1       -2 0.36713568E-02 0.48125526E+03</pdfrwt>
<totfact> 0.20518989E+03</totfact>
</mgrwt>
</event>
<event>
 4    1  0.6034452E-005  0.4382752E+03  0.7818608E-02  0.1031277E+00
          2   -1    0    0  501    0  0.00000000000E+00  0.00000000000E+00  0.19975909110E+04  0.19975909110E+04  0.25500000000E-02 0.  1.
         -2   -1    0    0    0  501 -0.00000000000E+00 -0.00000000000E+00 -0.24039600874E+02  0.24039601009E+02  0.25500000000E-02 0. -1.
    5000001    1    1    2    0    0  0.27675482662E+02 -0.10107644265E+03  0.11766770019E+04  0.11962002953E+04  0.18800000000E+03 0.  0.
   -5000001    1    1    2    0    0 -0.27675482662E+02  0.10107644265E+03  0.79687430822E+03  0.82543021673E+03  0.18800000000E+03 0.  0.
<mgrwt>
<rscale>  0 0.43827520E+03</rscale>
<asrwt>0</asrwt>
<pdfrwt beam="1">  1        2 0.28537011E+00 0.43827520E+03</pdfrwt>
<pdfrwt beam="2">  1       -2 0.34342289E-02 0.43827520E+03</pdfrwt>
<totfact> 0.30495453E+03</totfact>
</mgrwt>
</event>
<event>
 4    1  0.6034452E-005  0.6185864E+03  0.7818608E-02  0.9867578E-01
         -2   -1    0    0    0  501 -0.00000000000E+00  0.00000000000E+00  0.74117338748E+02  0.74117338791E+02  0.25500000000E-02 0. -1.
          2   -1    0    0  501    0  0.00000000000E+00 -0.00000000000E+00 -0.12906871048E+04  0.12906871048E+04  0.25500000000E-02 0.  1.
    5000001    1    1    2    0    0 -0.24384514537E+03  0.29288140932E+02 -0.60782592806E+03  0.68199311503E+03  0.18800000000E+03 0.  0.
   -5000001    1    1    2    0    0  0.24384514537E+03 -0.29288140932E+02 -0.60874383796E+03  0.68281132853E+03  0.18800000000E+03 0.  0.
<mgrwt>
<rscale>  0 0.61858643E+03</rscale>
<asrwt>0</asrwt>
<pdfrwt beam="1">  1        2 0.18438386E+00 0.61858643E+03</pdfrwt>
<pdfrwt beam="2">  1       -2 0.10588192E-01 0.61858643E+03</pdfrwt>
<totfact> 0.11993815E+03</totfact>
</mgrwt>
</event>
<event>
 4    1  0.6034452E-005  0.6973331E+03  0.7818608E-02  0.9721804E-01
         -2   -1    0    0    0  501 -0.00000000000E+00  0.00000000000E+00  0.76594784556E+02  0.76594784599E+02  0.25500000000E-02 0. -1.
          2   -1    0    0  501    0  0.00000000000E+00 -0.00000000000E+00 -0.15871623088E+04  0.15871623088E+04  0.25500000000E-02 0.  1.
    5000001    1    1    2    0    0 -0.19696797710E+03 -0.21187688760E+03 -0.63512993611E+03  0.72278782173E+03  0.18800000000E+03 0.  0.
   -5000001    1    1    2    0    0  0.19696797710E+03  0.21187688760E+03 -0.87543758810E+03  0.94096927163E+03  0.18800000000E+03 0.  0.
<mgrwt>
<rscale>  0 0.69733308E+03</rscale>
<asrwt>0</asrwt>
<pdfrwt beam="1">  1        2 0.22673745E+00 0.69733308E+03</pdfrwt>
<pdfrwt beam="2">  1       -2 0.10942113E-01 0.69733308E+03</pdfrwt>
<totfact> 0.78927868E+02</totfact>
</mgrwt>
</event>
<event>
 4    1  0.6034452E-005  0.5766759E+03  0.7818608E-02  0.9955014E-01
         -2   -1    0    0    0  501 -0.00000000000E+00  0.00000000000E+00  0.32784910947E+03  0.32784910948E+03  0.25500000000E-02 0. -1.
          2   -1    0    0  501    0  0.00000000000E+00 -0.00000000000E+00 -0.25358850853E+03  0.25358850855E+03  0.25500000000E-02 0.  1.
    5000001    1    1    2    0    0  0.12054945676E+03 -0.13399751567E+03 -0.87613819956E+02  0.27478662117E+03  0.18800000000E+03 0.  0.
   -5000001    1    1    2    0    0 -0.12054945676E+03  0.13399751567E+03  0.16187442089E+03  0.30665099685E+03  0.18800000000E+03 0.  0.
<mgrwt>
<rscale>  0 0.57667588E+03</rscale>
<asrwt>0</asrwt>
<pdfrwt beam="1">  1        2 0.36226930E-01 0.57667588E+03</pdfrwt>
<pdfrwt beam="2">  1       -2 0.46835587E-01 0.57667588E+03</pdfrwt>
<totfact> 0.62593895E+02</totfact>
</mgrwt>
</event>
<event>
 4    1  0.6034452E-005  0.6368601E+03  0.7818608E-02  0.9831752E-01
          2   -1    0    0  501    0  0.00000000000E+00  0.00000000000E+00  0.13265748174E+04  0.13265748174E+04  0.25500000000E-02 0.  1.
         -2   -1    0    0    0  501 -0.00000000000E+00 -0.00000000000E+00 -0.76435726573E+02  0.76435726616E+02  0.25500000000E-02 0. -1.
    5000001    1    1    2    0    0  0.13733518744E+03 -0.18999652137E+03  0.39302974818E+03  0.49474843588E+03  0.18800000000E+03 0.  0.
   -5000001    1    1    2    0    0 -0.13733518744E+03  0.18999652137E+03  0.85710934263E+03  0.90826210813E+03  0.18800000000E+03 0.  0.
<mgrwt>
<rscale>  0 0.63686014E+03</rscale>
<asrwt>0</asrwt>
<pdfrwt beam="1">  1        2 0.18951067E+00 0.63686014E+03</pdfrwt>
<pdfrwt beam="2">  1       -2 0.10919390E-01 0.63686014E+03</pdfrwt>
<totfact> 0.10898226E+03</totfact>
</mgrwt>
</event>
<event>
 4    1  0.6034452E-005  0.4444335E+03  0.7818608E-02  0.1029395E+00
          2   -1    0    0  501    0  0.00000000000E+00  0.00000000000E+00  0.12548458857E+04  0.12548458857E+04  0.25500000000E-02 0.  1.
         -2   -1    0    0    0  501 -0.00000000000E+00 -0.00000000000E+00 -0.39351677811E+02  0.39351677893E+02  0.25500000000E-02 0. -1.
    5000001    1    1    2    0    0  0.52957545663E+02 -0.54879699883E+02  0.34373132804E+03  0.39913845841E+03  0.18800000000E+03 0.  0.
   -5000001    1    1    2    0    0 -0.52957545663E+02  0.54879699883E+02  0.87176287983E+03  0.89505910517E+03  0.18800000000E+03 0.  0.
<mgrwt>
<rscale>  0 0.44443353E+03</rscale>
<asrwt>0</asrwt>
<pdfrwt beam="1">  1        2 0.17926365E+00 0.44443353E+03</pdfrwt>
<pdfrwt beam="2">  1       -2 0.56216697E-02 0.44443353E+03</pdfrwt>
<totfact> 0.34355358E+03</totfact>
</mgrwt>
</event>
<event>
 4    1  0.6034452E-005  0.4773201E+03  0.7818608E-02  0.1019874E+00
          2   -1    0    0  501    0  0.00000000000E+00  0.00000000000E+00  0.26186554905E+04  0.26186554905E+04  0.25500000000E-02 0.  1.
         -2   -1    0    0    0  501 -0.00000000000E+00 -0.00000000000E+00 -0.21751093630E+02  0.21751093780E+02  0.25500000000E-02 0. -1.
    5000001    1    1    2    0    0  0.14041611518E+03 -0.23743293823E+00  0.10574642306E+04  0.10831857370E+04  0.18800000000E+03 0.  0.
   -5000001    1    1    2    0    0 -0.14041611518E+03  0.23743293823E+00  0.15394401663E+04  0.15572208473E+04  0.18800000000E+03 0.  0.
<mgrwt>
<rscale>  0 0.47732011E+03</rscale>
<asrwt>0</asrwt>
<pdfrwt beam="1">  1        2 0.37409360E+00 0.47732011E+03</pdfrwt>
<pdfrwt beam="2">  1       -2 0.31072995E-02 0.47732011E+03</pdfrwt>
<totfact> 0.17252045E+03</totfact>
</mgrwt>
</event>
<event>
 4    1  0.6034452E-005  0.5004701E+03  0.7818608E-02  0.1013656E+00
         -2   -1    0    0    0  501 -0.00000000000E+00  0.00000000000E+00  0.60055380433E+02  0.60055380487E+02  0.25500000000E-02 0. -1.
          2   -1    0    0  501    0  0.00000000000E+00 -0.00000000000E+00 -0.10426640291E+04  0.10426640291E+04  0.25500000000E-02 0.  1.
    5000001    1    1    2    0    0 -0.10583812814E+03  0.11148455018E+03 -0.62429483820E+03  0.66986458281E+03  0.18800000000E+03 0.  0.
   -5000001    1    1    2    0    0  0.10583812814E+03 -0.11148455018E+03 -0.35831381045E+03  0.43285482676E+03  0.18800000000E+03 0.  0.
<mgrwt>
<rscale>  0 0.50047012E+03</rscale>
<asrwt>0</asrwt>
<pdfrwt beam="1">  1        2 0.14895199E+00 0.50047012E+03</pdfrwt>
<pdfrwt beam="2">  1       -2 0.85793407E-02 0.50047012E+03</pdfrwt>
<totfact> 0.23322797E+03</totfact>
</mgrwt>
</event>
<event>
 4    1  0.6034452E-005  0.5193588E+03  0.7818608E-02  0.1008846E+00
         -2   -1    0    0    0  501 -0.00000000000E+00  0.00000000000E+00  0.44438638149E+02  0.44438638222E+02  0.25500000000E-02 0. -1.
          2   -1    0    0  501    0  0.00000000000E+00 -0.00000000000E+00 -0.15174495163E+04  0.15174495163E+04  0.25500000000E-02 0.  1.
    5000001    1    1    2    0    0  0.17342698715E+03 -0.24857931584E+02 -0.84881067668E+03  0.88685872690E+03  0.18800000000E+03 0.  0.
   -5000001    1    1    2    0    0 -0.17342698715E+03  0.24857931584E+02 -0.62420020145E+03  0.67502942760E+03  0.18800000000E+03 0.  0.
<mgrwt>
<rscale>  0 0.51935880E+03</rscale>
<asrwt>0</asrwt>
<pdfrwt beam="1">  1        2 0.21677847E+00 0.51935880E+03</pdfrwt>
<pdfrwt beam="2">  1       -2 0.63483778E-02 0.51935880E+03</pdfrwt>
<totfact> 0.20628840E+03</totfact>
</mgrwt>
</event>
<event>
 4    1  0.6034452E-005  0.5092763E+03  0.7818608E-02  0.1011386E+00
          2   -1    0    0  501    0  0.00000000000E+00  0.00000000000E+00  0.18599959701E+04  0.18599959701E+04  0.25500000000E-02 0.  1.
         -2   -1    0    0    0  501 -0.00000000000E+00 -0.00000000000E+00 -0.34860602724E+02  0.34860602817E+02  0.25500000000E-02 0. -1.
    5000001    1    1    2    0    0 -0.10691363690E+03 -0.12172386566E+03  0.70047704017E+03  0.74314151346E+03  0.18800000000E+03 0.  0.
   -5000001    1    1    2    0    0  0.10691363690E+03  0.12172386566E+03  0.11246583272E+04  0.11517150594E+04  0.18800000000E+03 0.  0.
<mgrwt>
<rscale>  0 0.50927627E+03</rscale>
<asrwt>0</asrwt>
<pdfrwt beam="1">  1        2 0.26571375E+00 0.50927627E+03</pdfrwt>
<pdfrwt beam="2">  1       -2 0.49800853E-02 0.50927627E+03</pdfrwt>
<totfact> 0.20176525E+03</totfact>
</mgrwt>
</event>
<event>
 4    1  0.6034452E-005  0.6024039E+03  0.7818608E-02  0.9900431E-01
          2   -1    0    0  501    0  0.00000000000E+00  0.00000000000E+00  0.40768723112E+03  0.40768723113E+03  0.25500000000E-02 0.  1.
         -2   -1    0    0    0  501 -0.00000000000E+00 -0.00000000000E+00 -0.22252996850E+03  0.22252996852E+03  0.25500000000E-02 0. -1.
    5000001    1    1    2    0    0  0.49400914934E+02 -0.61668002070E+02 -0.13932041444E+03  0.24697686280E+03  0.18800000000E+03 0.  0.
   -5000001    1    1    2    0    0 -0.49400914934E+02  0.61668002070E+02  0.32447767707E+03  0.38324033685E+03  0.18800000000E+03 0.  0.
<mgrwt>
<rscale>  0 0.60240394E+03</rscale>
<asrwt>0</asrwt>
<pdfrwt beam="1">  1        2 0.58241033E-01 0.60240394E+03</pdfrwt>
<pdfrwt beam="2">  1       -2 0.31789996E-01 0.60240394E+03</pdfrwt>
<totfact> 0.78158790E+02</totfact>
</mgrwt>
</event>
<event>
 4    1  0.6034452E-005  0.5587913E+03  0.7818608E-02  0.9994793E-01
          2   -1    0    0  501    0  0.00000000000E+00  0.00000000000E+00  0.31147506547E+03  0.31147506548E+03  0.25500000000E-02 0.  1.
         -2   -1    0    0    0  501 -0.00000000000E+00 -0.00000000000E+00 -0.25062015295E+03  0.25062015296E+03  0.25500000000E-02 0. -1.
    5000001    1    1    2    0    0  0.29269541108E+02 -0.94226440535E+02  0.21311237809E+03  0.30082588623E+03  0.18800000000E+03 0.  0.
   -5000001    1    1    2    0    0 -0.29269541108E+02  0.94226440535E+02 -0.15225746557E+03  0.26126933221E+03  0.18800000000E+03 0.  0.
<mgrwt>
<rscale>  0 0.55879130E+03</rscale>
<asrwt>0</asrwt>
<pdfrwt beam="1">  1        2 0.44496438E-01 0.55879130E+03</pdfrwt>
<pdfrwt beam="2">  1       -2 0.35802879E-01 0.55879130E+03</pdfrwt>
<totfact> 0.84188796E+02</totfact>
</mgrwt>
</event>
<event>
 4    1  0.6034452E-005  0.8347928E+03  0.7818608E-02  0.9510978E-01
          2   -1    0    0  501    0  0.00000000000E+00  0.00000000000E+00  0.18116379429E+04  0.18116379429E+04  0.25500000000E-02 0. -1.
         -2   -1    0    0    0  501 -0.00000000000E+00 -0.00000000000E+00 -0.96166975576E+02  0.96166975610E+02  0.25500000000E-02 0.  1.
    5000001    1    1    2    0    0  0.13205776310E+03 -0.31345131930E+03  0.50975364149E+03  0.64100215084E+03  0.18800000000E+03 0.  0.
   -5000001    1    1    2    0    0 -0.13205776310E+03  0.31345131930E+03  0.12057173258E+04  0.12668027676E+04  0.18800000000E+03 0.  0.
<mgrwt>
<rscale>  0 0.83479277E+03</rscale>
<asrwt>0</asrwt>
<pdfrwt beam="1">  1        2 0.25880543E+00 0.83479277E+03</pdfrwt>
<pdfrwt beam="2">  1       -2 0.13738139E-01 0.83479277E+03</pdfrwt>
<totfact> 0.41205853E+02</totfact>
</mgrwt>
</event>
<event>
 4    1  0.6034452E-005  0.3905992E+03  0.7818608E-02  0.1047084E+00
          2   -1    0    0  501    0  0.00000000000E+00  0.00000000000E+00  0.74140521295E+03  0.74140521295E+03  0.25500000000E-02 0. -1.
         -2   -1    0    0    0  501 -0.00000000000E+00 -0.00000000000E+00 -0.51445475024E+02  0.51445475087E+02  0.25500000000E-02 0.  1.
    5000001    1    1    2    0    0  0.33835535758E+02  0.26724339453E+02  0.40717722038E+03  0.45055113205E+03  0.18800000000E+03 0.  0.
   -5000001    1    1    2    0    0 -0.33835535758E+02 -0.26724339453E+02  0.28278251755E+03  0.34229955599E+03  0.18800000000E+03 0.  0.
<mgrwt>
<rscale>  0 0.39059925E+03</rscale>
<asrwt>0</asrwt>
<pdfrwt beam="1">  1        2 0.10591503E+00 0.39059925E+03</pdfrwt>
<pdfrwt beam="2">  1       -2 0.73493540E-02 0.39059925E+03</pdfrwt>
<totfact> 0.46538699E+03</totfact>
</mgrwt>
</event>
<event>
 4    1  0.6034452E-005  0.7682284E+03  0.7818608E-02  0.9607179E-01
         -2   -1    0    0    0  501 -0.00000000000E+00  0.00000000000E+00  0.55442323922E+03  0.55442323923E+03  0.25500000000E-02 0. -1.
          2   -1    0    0  501    0  0.00000000000E+00 -0.00000000000E+00 -0.26612110223E+03  0.26612110225E+03  0.25500000000E-02 0.  1.
    5000001    1    1    2    0    0 -0.24743495248E+03  0.17255409128E+03 -0.11369321567E+02  0.35562934581E+03  0.18800000000E+03 0.  0.
   -5000001    1    1    2    0    0  0.24743495248E+03 -0.17255409128E+03  0.29967145855E+03  0.46491499567E+03  0.18800000000E+03 0.  0.
<mgrwt>
<rscale>  0 0.76822841E+03</rscale>
<asrwt>0</asrwt>
<pdfrwt beam="1">  1        2 0.38017300E-01 0.76822841E+03</pdfrwt>
<pdfrwt beam="2">  1       -2 0.79203320E-01 0.76822841E+03</pdfrwt>
<totfact> 0.19430835E+02</totfact>
</mgrwt>
</event>
<event>
 4    1  0.6034452E-005  0.6208524E+03  0.7818608E-02  0.9863064E-01
         -2   -1    0    0    0  501 -0.00000000000E+00  0.00000000000E+00  0.25482285395E+03  0.25482285396E+03  0.25500000000E-02 0. -1.
          2   -1    0    0  501    0  0.00000000000E+00 -0.00000000000E+00 -0.37816239877E+03  0.37816239878E+03  0.25500000000E-02 0.  1.
    5000001    1    1    2    0    0 -0.73796648258E+02 -0.22566987842E+03  0.78356657603E+01  0.30294923169E+03  0.18800000000E+03 0.  0.
   -5000001    1    1    2    0    0  0.73796648258E+02  0.22566987842E+03 -0.13117521058E+03  0.33003602105E+03  0.18800000000E+03 0.  0.
<mgrwt>
<rscale>  0 0.62085239E+03</rscale>
<asrwt>0</asrwt>
<pdfrwt beam="1">  1        2 0.54023200E-01 0.62085239E+03</pdfrwt>
<pdfrwt beam="2">  1       -2 0.36403265E-01 0.62085239E+03</pdfrwt>
<totfact> 0.65781337E+02</totfact>
</mgrwt>
</event>
<event>
 4    1  0.6034452E-005  0.8609521E+03  0.7818608E-02  0.9475754E-01
          2   -1    0    0  501    0  0.00000000000E+00  0.00000000000E+00  0.93717975020E+03  0.93717975020E+03  0.25500000000E-02 0.  1.
         -2   -1    0    0    0  501 -0.00000000000E+00 -0.00000000000E+00 -0.19773113790E+03  0.19773113791E+03  0.25500000000E-02 0. -1.
    5000001    1    1    2    0    0 -0.28415922528E+03 -0.19412588147E+03  0.13563889352E+03  0.41493762496E+03  0.18800000000E+03 0.  0.
   -5000001    1    1    2    0    0  0.28415922528E+03  0.19412588147E+03  0.60380971878E+03  0.71997326316E+03  0.18800000000E+03 0.  0.
<mgrwt>
<rscale>  0 0.86095207E+03</rscale>
<asrwt>0</asrwt>
<pdfrwt beam="1">  1        2 0.13388282E+00 0.86095207E+03</pdfrwt>
<pdfrwt beam="2">  1       -2 0.28247305E-01 0.86095207E+03</pdfrwt>
<totfact> 0.35301137E+02</totfact>
</mgrwt>
</event>
<event>
 4    1  0.6034452E-005  0.6971561E+03  0.7818608E-02  0.9722108E-01
          2   -1    0    0  501    0  0.00000000000E+00  0.00000000000E+00  0.43786593762E+03  0.43786593763E+03  0.25500000000E-02 0.  1.
         -2   -1    0    0    0  501 -0.00000000000E+00 -0.00000000000E+00 -0.27749738809E+03  0.27749738810E+03  0.25500000000E-02 0. -1.
    5000001    1    1    2    0    0  0.12409692221E+03  0.26117948772E+03  0.28389446646E+02  0.34607041420E+03  0.18800000000E+03 0.  0.
   -5000001    1    1    2    0    0 -0.12409692221E+03 -0.26117948772E+03  0.13197910289E+03  0.36929291153E+03  0.18800000000E+03 0.  0.
<mgrwt>
<rscale>  0 0.69715609E+03</rscale>
<asrwt>0</asrwt>
<pdfrwt beam="1">  1        2 0.62552277E-01 0.69715609E+03</pdfrwt>
<pdfrwt beam="2">  1       -2 0.39642484E-01 0.69715609E+03</pdfrwt>
<totfact> 0.47319697E+02</totfact>
</mgrwt>
</event>
<event>
 4    1  0.6034452E-005  0.5410495E+03  0.7818608E-02  0.1003587E+00
         -2   -1    0    0    0  501 -0.00000000000E+00  0.00000000000E+00  0.20721987123E+03  0.20721987125E+03  0.25500000000E-02 0. -1.
          2   -1    0    0  501    0  0.00000000000E+00 -0.00000000000E+00 -0.35316901483E+03  0.35316901484E+03  0.25500000000E-02 0.  1.
    5000001    1    1    2    0    0 -0.14376285309E+03 -0.12559750615E+03 -0.34260088777E+02  0.27011154207E+03  0.18800000000E+03 0.  0.
   -5000001    1    1    2    0    0  0.14376285309E+03  0.12559750615E+03 -0.11168905482E+03  0.29027734401E+03  0.18800000000E+03 0.  0.
<mgrwt>
<rscale>  0 0.54104949E+03</rscale>
<asrwt>0</asrwt>
<pdfrwt beam="1">  1        2 0.50452716E-01 0.54104949E+03</pdfrwt>
<pdfrwt beam="2">  1       -2 0.29602839E-01 0.54104949E+03</pdfrwt>
<totfact> 0.10461053E+03</totfact>
</mgrwt>
</event>
<event>
 4    1  0.6034452E-005  0.6139997E+03  0.7818608E-02  0.9876779E-01
          2   -1    0    0  501    0  0.00000000000E+00  0.00000000000E+00  0.17553210344E+04  0.17553210344E+04  0.25500000000E-02 0. -1.
         -2   -1    0    0    0  501 -0.00000000000E+00 -0.00000000000E+00 -0.53693253183E+02  0.53693253243E+02  0.25500000000E-02 0.  1.
    5000001    1    1    2    0    0  0.21179492866E+03 -0.11565399178E+03  0.77443993236E+03  0.83266688805E+03  0.18800000000E+03 0.  0.
   -5000001    1    1    2    0    0 -0.21179492866E+03  0.11565399178E+03  0.92718784882E+03  0.97634739956E+03  0.18800000000E+03 0.  0.
<mgrwt>
<rscale>  0 0.61399966E+03</rscale>
<asrwt>0</asrwt>
<pdfrwt beam="1">  1        2 0.25076012E+00 0.61399966E+03</pdfrwt>
<pdfrwt beam="2">  1       -2 0.76704655E-02 0.61399966E+03</pdfrwt>
<totfact> 0.11527946E+03</totfact>
</mgrwt>
</event>
<event>
 4    1  0.6034452E-005  0.8706194E+03  0.7818608E-02  0.9463073E-01
         -2   -1    0    0    0  501 -0.00000000000E+00  0.00000000000E+00  0.97412190122E+03  0.97412190122E+03  0.25500000000E-02 0. -1.
          2   -1    0    0  501    0  0.00000000000E+00 -0.00000000000E+00 -0.19452857330E+03  0.19452857332E+03  0.25500000000E-02 0.  1.
    5000001    1    1    2    0    0 -0.14597937053E+03  0.24764373290E+02  0.87790569456E+03  0.90993717330E+03  0.18800000000E+03 0.  0.
   -5000001    1    1    2    0    0  0.14597937053E+03 -0.24764373290E+02 -0.98312366644E+02  0.25871330124E+03  0.18800000000E+03 0.  0.
<mgrwt>
<rscale>  0 0.87061942E+03</rscale>
<asrwt>0</asrwt>
<pdfrwt beam="1">  1        2 0.27789796E-01 0.87061942E+03</pdfrwt>
<pdfrwt beam="2">  1       -2 0.13916027E+00 0.87061942E+03</pdfrwt>
<totfact> 0.71166482E+01</totfact>
</mgrwt>
</event>
<event>
 4    1  0.6034452E-005  0.5430929E+03  0.7818608E-02  0.1003105E+00
         -2   -1    0    0    0  501 -0.00000000000E+00  0.00000000000E+00  0.24099947942E+02  0.24099948077E+02  0.25500000000E-02 0. -1.
          2   -1    0    0  501    0  0.00000000000E+00 -0.00000000000E+00 -0.30596528241E+04  0.30596528241E+04  0.25500000000E-02 0.  1.
    5000001    1    1    2    0    0  0.18594685366E+03  0.27008567146E+02 -0.18332976252E+04  0.18524658910E+04  0.18800000000E+03 0.  0.
   -5000001    1    1    2    0    0 -0.18594685366E+03 -0.27008567146E+02 -0.12022552510E+04  0.12312868811E+04  0.18800000000E+03 0.  0.
<mgrwt>
<rscale>  0 0.54309290E+03</rscale>
<asrwt>0</asrwt>
<pdfrwt beam="1">  1        2 0.43709302E+00 0.54309290E+03</pdfrwt>
<pdfrwt beam="2">  1       -2 0.34428516E-02 0.54309290E+03</pdfrwt>
<totfact> 0.85725315E+02</totfact>
</mgrwt>
</event>
<event>
 4    1  0.6034452E-005  0.6335489E+03  0.7818608E-02  0.9838148E-01
         -2   -1    0    0    0  501 -0.00000000000E+00  0.00000000000E+00  0.40216404619E+02  0.40216404700E+02  0.25500000000E-02 0. -1.
          2   -1    0    0  501    0  0.00000000000E+00 -0.00000000000E+00 -0.24951521791E+04  0.24951521791E+04  0.25500000000E-02 0.  1.
    5000001    1    1    2    0    0  0.16117732151E+03  0.18891134232E+03 -0.99631374289E+03  0.10438633524E+04  0.18800000000E+03 0.  0.
   -5000001    1    1    2    0    0 -0.16117732151E+03 -0.18891134232E+03 -0.14586220316E+04  0.14915052314E+04  0.18800000000E+03 0.  0.
<mgrwt>
<rscale>  0 0.63354889E+03</rscale>
<asrwt>0</asrwt>
<pdfrwt beam="1">  1        2 0.35645021E+00 0.63354889E+03</pdfrwt>
<pdfrwt beam="2">  1       -2 0.57452022E-02 0.63354889E+03</pdfrwt>
<totfact> 0.76741925E+02</totfact>
</mgrwt>
</event>
<event>
 4    1  0.6034452E-005  0.7723253E+03  0.7818608E-02  0.9600962E-01
         -2   -1    0    0    0  501 -0.00000000000E+00  0.00000000000E+00  0.54789946839E+02  0.54789946899E+02  0.25500000000E-02 0. -1.
          2   -1    0    0  501    0  0.00000000000E+00 -0.00000000000E+00 -0.27216959262E+04  0.27216959262E+04  0.25500000000E-02 0.  1.
    5000001    1    1    2    0    0  0.17418718140E+03 -0.21564381732E+03 -0.20243435463E+04  0.20518660345E+04  0.18800000000E+03 0.  0.
   -5000001    1    1    2    0    0 -0.17418718140E+03  0.21564381732E+03 -0.64256243310E+03  0.72461983863E+03  0.18800000000E+03 0.  0.
<mgrwt>
<rscale>  0 0.77232526E+03</rscale>
<asrwt>0</asrwt>
<pdfrwt beam="1">  1        2 0.38881362E+00 0.77232526E+03</pdfrwt>
<pdfrwt beam="2">  1       -2 0.78271370E-02 0.77232526E+03</pdfrwt>
<totfact> 0.35459823E+02</totfact>
</mgrwt>
</event>
<event>
 4    1  0.6034452E-005  0.1247997E+04  0.7818608E-02  0.9071852E-01
         -2   -1    0    0    0  501 -0.00000000000E+00  0.00000000000E+00  0.23055535734E+03  0.23055535736E+03  0.25500000000E-02 0. -1.
          2   -1    0    0  501    0  0.00000000000E+00 -0.00000000000E+00 -0.16888537544E+04  0.16888537544E+04  0.25500000000E-02 0.  1.
    5000001    1    1    2    0    0  0.39347544376E+03 -0.43365694207E+03 -0.89154400239E+03  0.10830863199E+04  0.18800000000E+03 0.  0.
   -5000001    1    1    2    0    0 -0.39347544376E+03  0.43365694207E+03 -0.56675439467E+03  0.83632279182E+03  0.18800000000E+03 0.  0.
<mgrwt>
<rscale>  0 0.12479972E+04</rscale>
<asrwt>0</asrwt>
<pdfrwt beam="1">  1        2 0.24126482E+00 0.12479972E+04</pdfrwt>
<pdfrwt beam="2">  1       -2 0.32936481E-01 0.12479972E+04</pdfrwt>
<totfact> 0.98317843E+01</totfact>
</mgrwt>
</event>
<event>
 4    1  0.6034452E-005  0.1846198E+04  0.7818608E-02  0.8682111E-01
          2   -1    0    0  501    0  0.00000000000E+00  0.00000000000E+00  0.33643697125E+04  0.33643697125E+04  0.25500000000E-02 0.  1.
         -2   -1    0    0    0  501 -0.00000000000E+00 -0.00000000000E+00 -0.25327520604E+03  0.25327520606E+03  0.25500000000E-02 0. -1.
    5000001    1    1    2    0    0  0.20925223425E+03  0.79970895561E+03  0.83973129908E+03  0.11932365926E+04  0.18800000000E+03 0.  0.
   -5000001    1    1    2    0    0 -0.20925223425E+03 -0.79970895561E+03  0.22713632074E+04  0.24244083260E+04  0.18800000000E+03 0.  0.
<mgrwt>
<rscale>  0 0.18461976E+04</rscale>
<asrwt>0</asrwt>
<pdfrwt beam="1">  1        2 0.48062422E+00 0.18461976E+04</pdfrwt>
<pdfrwt beam="2">  1       -2 0.36182174E-01 0.18461976E+04</pdfrwt>
<totfact> 0.98828270E+00</totfact>
</mgrwt>
</event>
<event>
 4    1  0.6034452E-005  0.5687206E+03  0.7818608E-02  0.9972514E-01
         -2   -1    0    0    0  501 -0.00000000000E+00  0.00000000000E+00  0.45169397280E+02  0.45169397352E+02  0.25500000000E-02 0. -1.
          2   -1    0    0  501    0  0.00000000000E+00 -0.00000000000E+00 -0.17901674116E+04  0.17901674116E+04  0.25500000000E-02 0.  1.
    5000001    1    1    2    0    0 -0.95593399456E+02  0.16297170480E+03 -0.55272113079E+03  0.61363060795E+03  0.18800000000E+03 0.  0.
   -5000001    1    1    2    0    0  0.95593399456E+02 -0.16297170480E+03 -0.11922768835E+04  0.12217062010E+04  0.18800000000E+03 0.  0.
<mgrwt>
<rscale>  0 0.56872061E+03</rscale>
<asrwt>0</asrwt>
<pdfrwt beam="1">  1        2 0.25573816E+00 0.56872061E+03</pdfrwt>
<pdfrwt beam="2">  1       -2 0.64527722E-02 0.56872061E+03</pdfrwt>
<totfact> 0.14576744E+03</totfact>
</mgrwt>
</event>
<event>
 4    1  0.6034452E-005  0.6077857E+03  0.7818608E-02  0.9889384E-01
          2   -1    0    0  501    0  0.00000000000E+00  0.00000000000E+00  0.21964978607E+04  0.21964978607E+04  0.25500000000E-02 0.  1.
         -2   -1    0    0    0  501 -0.00000000000E+00 -0.00000000000E+00 -0.42044599811E+02  0.42044599889E+02  0.25500000000E-02 0. -1.
    5000001    1    1    2    0    0  0.12819041462E+03 -0.19841779614E+03  0.94940253676E+03  0.99624875459E+03  0.18800000000E+03 0.  0.
   -5000001    1    1    2    0    0 -0.12819041462E+03  0.19841779614E+03  0.12050507241E+04  0.12422937060E+04  0.18800000000E+03 0.  0.
<mgrwt>
<rscale>  0 0.60778573E+03</rscale>
<asrwt>0</asrwt>
<pdfrwt beam="1">  1        2 0.31378541E+00 0.60778573E+03</pdfrwt>
<pdfrwt beam="2">  1       -2 0.60063715E-02 0.60778573E+03</pdfrwt>
<totfact> 0.10171345E+03</totfact>
</mgrwt>
</event>
<event>
 4    1  0.6034452E-005  0.7233990E+03  0.7818608E-02  0.9678033E-01
          2   -1    0    0  501    0  0.00000000000E+00  0.00000000000E+00  0.12419101756E+04  0.12419101756E+04  0.25500000000E-02 0.  1.
         -2   -1    0    0    0  501 -0.00000000000E+00 -0.00000000000E+00 -0.10534299644E+03  0.10534299647E+03  0.25500000000E-02 0. -1.
    5000001    1    1    2    0    0 -0.69193865760E+02 -0.30076220704E+03  0.53962191505E+03  0.64944707825E+03  0.18800000000E+03 0.  0.
   -5000001    1    1    2    0    0  0.69193865760E+02  0.30076220704E+03  0.59694526415E+03  0.69780609387E+03  0.18800000000E+03 0.  0.
<mgrwt>
<rscale>  0 0.72339903E+03</rscale>
<asrwt>0</asrwt>
<pdfrwt beam="1">  1        2 0.17741574E+00 0.72339903E+03</pdfrwt>
<pdfrwt beam="2">  1       -2 0.15049000E-01 0.72339903E+03</pdfrwt>
<totfact> 0.70953029E+02</totfact>
</mgrwt>
</event>
<event>
 4    1  0.6034452E-005  0.5125308E+03  0.7818608E-02  0.1010559E+00
         -2   -1    0    0    0  501 -0.00000000000E+00  0.00000000000E+00  0.77969590605E+03  0.77969590605E+03  0.25500000000E-02 0.  1.
          2   -1    0    0  501    0  0.00000000000E+00 -0.00000000000E+00 -0.84227661557E+02  0.84227661595E+02  0.25500000000E-02 0. -1.
    5000001    1    1    2    0    0 -0.51549579753E+02  0.16018492664E+03  0.27213725543E+03  0.37110545090E+03  0.18800000000E+03 0.  0.
   -5000001    1    1    2    0    0  0.51549579753E+02 -0.16018492664E+03  0.42333098906E+03  0.49281811675E+03  0.18800000000E+03 0.  0.
<mgrwt>
<rscale>  0 0.51253083E+03</rscale>
<asrwt>0</asrwt>
<pdfrwt beam="1">  1        2 0.12032523E-01 0.51253083E+03</pdfrwt>
<pdfrwt beam="2">  1       -2 0.11138513E+00 0.51253083E+03</pdfrwt>
<totfact> 0.33943540E+02</totfact>
</mgrwt>
</event>
<event>
 4    1  0.6034452E-005  0.7842411E+03  0.7818608E-02  0.9583112E-01
         -2   -1    0    0    0  501 -0.00000000000E+00  0.00000000000E+00  0.12106422798E+03  0.12106422800E+03  0.25500000000E-02 0. -1.
          2   -1    0    0  501    0  0.00000000000E+00 -0.00000000000E+00 -0.12700574643E+04  0.12700574643E+04  0.25500000000E-02 0.  1.
    5000001    1    1    2    0    0  0.28621930109E+03 -0.13094228521E+03 -0.32776540717E+03  0.49177386318E+03  0.18800000000E+03 0.  0.
   -5000001    1    1    2    0    0 -0.28621930109E+03  0.13094228521E+03 -0.82122782911E+03  0.89934782909E+03  0.18800000000E+03 0.  0.
<mgrwt>
<rscale>  0 0.78424110E+03</rscale>
<asrwt>0</asrwt>
<pdfrwt beam="1">  1        2 0.18143677E+00 0.78424110E+03</pdfrwt>
<pdfrwt beam="2">  1       -2 0.17294890E-01 0.78424110E+03</pdfrwt>
<totfact> 0.53861291E+02</totfact>
</mgrwt>
</event>
<event>
 4    1  0.6034452E-005  0.5183997E+03  0.7818608E-02  0.1009085E+00
         -2   -1    0    0    0  501 -0.00000000000E+00  0.00000000000E+00  0.69645911429E+02  0.69645911476E+02  0.25500000000E-02 0. -1.
          2   -1    0    0  501    0  0.00000000000E+00 -0.00000000000E+00 -0.96465910063E+03  0.96465910064E+03  0.25500000000E-02 0.  1.
    5000001    1    1    2    0    0 -0.69761988998E+01 -0.15222659867E+03 -0.26227662309E+03  0.35686780706E+03  0.18800000000E+03 0.  0.
   -5000001    1    1    2    0    0  0.69761988998E+01  0.15222659867E+03 -0.63273656611E+03  0.67743720505E+03  0.18800000000E+03 0.  0.
<mgrwt>
<rscale>  0 0.51839970E+03</rscale>
<asrwt>0</asrwt>
<pdfrwt beam="1">  1        2 0.13780843E+00 0.51839970E+03</pdfrwt>
<pdfrwt beam="2">  1       -2 0.99494165E-02 0.51839970E+03</pdfrwt>
<totfact> 0.20495134E+03</totfact>
</mgrwt>
</event>
<event>
 4    1  0.6034452E-005  0.1077139E+04  0.7818608E-02  0.9227764E-01
          2   -1    0    0  501    0  0.00000000000E+00  0.00000000000E+00  0.99925870865E+03  0.99925870866E+03  0.25500000000E-02 0.  1.
         -2   -1    0    0    0  501 -0.00000000000E+00 -0.00000000000E+00 -0.29027238469E+03  0.29027238471E+03  0.25500000000E-02 0. -1.
    5000001    1    1    2    0    0  0.50389480837E+03  0.24141489440E+02  0.33671919403E+03  0.63499338976E+03  0.18800000000E+03 0.  0.
   -5000001    1    1    2    0    0 -0.50389480837E+03 -0.24141489440E+02  0.37226712993E+03  0.65453770360E+03  0.18800000000E+03 0.  0.
<mgrwt>
<rscale>  0 0.10771392E+04</rscale>
<asrwt>0</asrwt>
<pdfrwt beam="1">  1        2 0.14275124E+00 0.10771392E+04</pdfrwt>
<pdfrwt beam="2">  1       -2 0.41467483E-01 0.10771392E+04</pdfrwt>
<totfact> 0.15382731E+02</totfact>
</mgrwt>
</event>
<event>
 4    1  0.6034452E-005  0.4513066E+03  0.7818608E-02  0.1027333E+00
         -2   -1    0    0    0  501 -0.00000000000E+00  0.00000000000E+00  0.11235686889E+03  0.11235686892E+03  0.25500000000E-02 0. -1.
          2   -1    0    0  501    0  0.00000000000E+00 -0.00000000000E+00 -0.45319354465E+03  0.45319354466E+03  0.25500000000E-02 0.  1.
    5000001    1    1    2    0    0 -0.11884858933E+03  0.32848651261E+02 -0.14626858011E+03  0.26822102565E+03  0.18800000000E+03 0.  0.
   -5000001    1    1    2    0    0  0.11884858933E+03 -0.32848651261E+02 -0.19456809566E+03  0.29732938792E+03  0.18800000000E+03 0.  0.
<mgrwt>
<rscale>  0 0.45130658E+03</rscale>
<asrwt>0</asrwt>
<pdfrwt beam="1">  1        2 0.64741934E-01 0.45130658E+03</pdfrwt>
<pdfrwt beam="2">  1       -2 0.16050982E-01 0.45130658E+03</pdfrwt>
<totfact> 0.23251431E+03</totfact>
</mgrwt>
</event>
<event>
 4    1  0.6034452E-005  0.4285439E+03  0.7818608E-02  0.1034321E+00
         -2   -1    0    0    0  501 -0.00000000000E+00  0.00000000000E+00  0.11531260508E+03  0.11531260511E+03  0.25500000000E-02 0. -1.
          2   -1    0    0  501    0  0.00000000000E+00 -0.00000000000E+00 -0.39815646967E+03  0.39815646968E+03  0.25500000000E-02 0.  1.
    5000001    1    1    2    0    0  0.95695007531E+02 -0.31649027644E+02 -0.11718258236E+03  0.24338231864E+03  0.18800000000E+03 0.  0.
   -5000001    1    1    2    0    0 -0.95695007531E+02  0.31649027644E+02 -0.16566128223E+03  0.27008675615E+03  0.18800000000E+03 0.  0.
<mgrwt>
<rscale>  0 0.42854386E+03</rscale>
<asrwt>0</asrwt>
<pdfrwt beam="1">  1        2 0.56879495E-01 0.42854386E+03</pdfrwt>
<pdfrwt beam="2">  1       -2 0.16473229E-01 0.42854386E+03</pdfrwt>
<totfact> 0.25663864E+03</totfact>
</mgrwt>
</event>
<event>
 4    1  0.6034452E-005  0.8313390E+03  0.7818608E-02  0.9515731E-01
          2   -1    0    0  501    0  0.00000000000E+00  0.00000000000E+00  0.37750699396E+04  0.37750699396E+04  0.25500000000E-02 0.  1.
         -2   -1    0    0    0  501 -0.00000000000E+00 -0.00000000000E+00 -0.45768984088E+02  0.45768984159E+02  0.25500000000E-02 0. -1.
    5000001    1    1    2    0    0  0.27456830762E+03 -0.23855910683E+03  0.15351802057E+04  0.15888424928E+04  0.18800000000E+03 0.  0.
   -5000001    1    1    2    0    0 -0.27456830762E+03  0.23855910683E+03  0.21941207498E+04  0.22319964309E+04  0.18800000000E+03 0.  0.
<mgrwt>
<rscale>  0 0.83133896E+03</rscale>
<asrwt>0</asrwt>
<pdfrwt beam="1">  1        2 0.53929544E+00 0.83133896E+03</pdfrwt>
<pdfrwt beam="2">  1       -2 0.65384295E-02 0.83133896E+03</pdfrwt>
<totfact> 0.11642412E+02</totfact>
</mgrwt>
</event>
<event>
 4    1  0.6034452E-005  0.7816483E+03  0.7818608E-02  0.9586967E-01
         -2   -1    0    0    0  501 -0.00000000000E+00  0.00000000000E+00  0.67798825323E+02  0.67798825371E+02  0.25500000000E-02 0. -1.
          2   -1    0    0  501    0  0.00000000000E+00 -0.00000000000E+00 -0.22528932985E+04  0.22528932985E+04  0.25500000000E-02 0.  1.
    5000001    1    1    2    0    0 -0.29320256324E+03 -0.17727212648E+03 -0.10850542681E+04  0.11532909063E+04  0.18800000000E+03 0.  0.
   -5000001    1    1    2    0    0  0.29320256324E+03  0.17727212648E+03 -0.11000402051E+04  0.11674012175E+04  0.18800000000E+03 0.  0.
<mgrwt>
<rscale>  0 0.78164831E+03</rscale>
<asrwt>0</asrwt>
<pdfrwt beam="1">  1        2 0.32184185E+00 0.78164831E+03</pdfrwt>
<pdfrwt beam="2">  1       -2 0.96855479E-02 0.78164831E+03</pdfrwt>
<totfact> 0.43941920E+02</totfact>
</mgrwt>
</event>
<event>
 4    1  0.6034452E-005  0.5199756E+03  0.7818608E-02  0.1008693E+00
         -2   -1    0    0    0  501 -0.00000000000E+00  0.00000000000E+00  0.85874849208E+02  0.85874849246E+02  0.25500000000E-02 0. -1.
          2   -1    0    0  501    0  0.00000000000E+00 -0.00000000000E+00 -0.78711827090E+03  0.78711827090E+03  0.25500000000E-02 0.  1.
    5000001    1    1    2    0    0  0.81260285843E+02 -0.15973970418E+03 -0.36973888209E+03  0.45185268404E+03  0.18800000000E+03 0.  0.
   -5000001    1    1    2    0    0 -0.81260285843E+02  0.15973970418E+03 -0.33150453961E+03  0.42114043611E+03  0.18800000000E+03 0.  0.
<mgrwt>
<rscale>  0 0.51997563E+03</rscale>
<asrwt>0</asrwt>
<pdfrwt beam="1">  1        2 0.11244546E+00 0.51997563E+03</pdfrwt>
<pdfrwt beam="2">  1       -2 0.12267836E-01 0.51997563E+03</pdfrwt>
<totfact> 0.19035802E+03</totfact>
</mgrwt>
</event>
<event>
 4    1  0.6034452E-005  0.5995601E+03  0.7818608E-02  0.9906319E-01
         -2   -1    0    0    0  501 -0.00000000000E+00  0.00000000000E+00  0.64539276872E+02  0.64539276922E+02  0.25500000000E-02 0. -1.
          2   -1    0    0  501    0  0.00000000000E+00 -0.00000000000E+00 -0.13924557476E+04  0.13924557476E+04  0.25500000000E-02 0.  1.
    5000001    1    1    2    0    0 -0.45086925291E+02  0.64742479360E+02 -0.11980272663E+04  0.12152521345E+04  0.18800000000E+03 0.  0.
   -5000001    1    1    2    0    0  0.45086925291E+02 -0.64742479360E+02 -0.12988920437E+03  0.24174289003E+03  0.18800000000E+03 0.  0.
<mgrwt>
<rscale>  0 0.59956013E+03</rscale>
<asrwt>0</asrwt>
<pdfrwt beam="1">  1        2 0.19892223E+00 0.59956013E+03</pdfrwt>
<pdfrwt beam="2">  1       -2 0.92198976E-02 0.59956013E+03</pdfrwt>
<totfact> 0.13236202E+03</totfact>
</mgrwt>
</event>
<event>
 4    1  0.6034452E-005  0.9150138E+03  0.7818608E-02  0.9407006E-01
         -2   -1    0    0    0  501 -0.00000000000E+00  0.00000000000E+00  0.51510930912E+03  0.51510930912E+03  0.25500000000E-02 0. -1.
          2   -1    0    0  501    0  0.00000000000E+00 -0.00000000000E+00 -0.40634594711E+03  0.40634594711E+03  0.25500000000E-02 0.  1.
    5000001    1    1    2    0    0  0.36688274691E+03  0.18780342288E+03 -0.10064960768E+02  0.45312071136E+03  0.18800000000E+03 0.  0.
   -5000001    1    1    2    0    0 -0.36688274691E+03 -0.18780342288E+03  0.11882832278E+03  0.46833454488E+03  0.18800000000E+03 0.  0.
<mgrwt>
<rscale>  0 0.91501384E+03</rscale>
<asrwt>0</asrwt>
<pdfrwt beam="1">  1        2 0.58049421E-01 0.91501384E+03</pdfrwt>
<pdfrwt beam="2">  1       -2 0.73587044E-01 0.91501384E+03</pdfrwt>
<totfact> 0.14197438E+02</totfact>
</mgrwt>
</event>
<event>
 4    1  0.6034452E-005  0.7612233E+03  0.7818608E-02  0.9617905E-01
          2   -1    0    0  501    0  0.00000000000E+00  0.00000000000E+00  0.18411556257E+04  0.18411556257E+04  0.25500000000E-02 0.  1.
         -2   -1    0    0    0  501 -0.00000000000E+00 -0.00000000000E+00 -0.78681694414E+02  0.78681694456E+02  0.25500000000E-02 0. -1.
    5000001    1    1    2    0    0 -0.17003007778E+03  0.28303931979E+03  0.93761803086E+03  0.10116783361E+04  0.18800000000E+03 0.  0.
   -5000001    1    1    2    0    0  0.17003007778E+03 -0.28303931979E+03  0.82485590046E+03  0.90815898411E+03  0.18800000000E+03 0.  0.
<mgrwt>
<rscale>  0 0.76122334E+03</rscale>
<asrwt>0</asrwt>
<pdfrwt beam="1">  1        2 0.26302226E+00 0.76122334E+03</pdfrwt>
<pdfrwt beam="2">  1       -2 0.11240241E-01 0.76122334E+03</pdfrwt>
<totfact> 0.55792272E+02</totfact>
</mgrwt>
</event>
<event>
 4    1  0.6034452E-005  0.6322872E+03  0.7818608E-02  0.9840596E-01
          2   -1    0    0  501    0  0.00000000000E+00  0.00000000000E+00  0.17839065243E+04  0.17839065243E+04  0.25500000000E-02 0.  1.
         -2   -1    0    0    0  501 -0.00000000000E+00 -0.00000000000E+00 -0.56026907424E+02  0.56026907482E+02  0.25500000000E-02 0. -1.
    5000001    1    1    2    0    0  0.90621169700E+02 -0.10912053240E+03  0.14776822233E+04  0.14963315942E+04  0.18800000000E+03 0.  0.
   -5000001    1    1    2    0    0 -0.90621169700E+02  0.10912053240E+03  0.25019739361E+03  0.34360183753E+03  0.18800000000E+03 0.  0.
<mgrwt>
<rscale>  0 0.63228717E+03</rscale>
<asrwt>0</asrwt>
<pdfrwt beam="1">  1        2 0.25484382E+00 0.63228717E+03</pdfrwt>
<pdfrwt beam="2">  1       -2 0.80038429E-02 0.63228717E+03</pdfrwt>
<totfact> 0.10410164E+03</totfact>
</mgrwt>
</event>
<event>
 4    1  0.6034452E-005  0.4580331E+03  0.7818608E-02  0.1025353E+00
          2   -1    0    0  501    0  0.00000000000E+00  0.00000000000E+00  0.10723347233E+03  0.10723347236E+03  0.25500000000E-02 0.  1.
         -2   -1    0    0    0  501 -0.00000000000E+00 -0.00000000000E+00 -0.48910631818E+03  0.48910631819E+03  0.25500000000E-02 0. -1.
    5000001    1    1    2    0    0 -0.11389524372E+03 -0.46158925886E+02 -0.13268495611E+03  0.26086791784E+03  0.18800000000E+03 0.  0.
   -5000001    1    1    2    0    0  0.11389524372E+03  0.46158925886E+02 -0.24918788974E+03  0.33547187271E+03  0.18800000000E+03 0.  0.
<mgrwt>
<rscale>  0 0.45803305E+03</rscale>
<asrwt>0</asrwt>
<pdfrwt beam="1">  1        2 0.15319068E-01 0.45803305E+03</pdfrwt>
<pdfrwt beam="2">  1       -2 0.69872330E-01 0.45803305E+03</pdfrwt>
<totfact> 0.73318900E+02</totfact>
</mgrwt>
</event>
<event>
 4    1  0.6034452E-005  0.1159293E+04  0.7818608E-02  0.9149253E-01
          2   -1    0    0  501    0  0.00000000000E+00  0.00000000000E+00  0.18709111406E+04  0.18709111406E+04  0.25500000000E-02 0.  1.
         -2   -1    0    0    0  501 -0.00000000000E+00 -0.00000000000E+00 -0.17958628933E+03  0.17958628935E+03  0.25500000000E-02 0. -1.
    5000001    1    1    2    0    0 -0.49395664294E+03 -0.22145713127E+03  0.99995532233E+03  0.11525151074E+04  0.18800000000E+03 0.  0.
   -5000001    1    1    2    0    0  0.49395664294E+03  0.22145713127E+03  0.69136952895E+03  0.89798232258E+03  0.18800000000E+03 0.  0.
<mgrwt>
<rscale>  0 0.11592929E+04</rscale>
<asrwt>0</asrwt>
<pdfrwt beam="1">  1        2 0.26727302E+00 0.11592929E+04</pdfrwt>
<pdfrwt beam="2">  1       -2 0.25655184E-01 0.11592929E+04</pdfrwt>
<totfact> 0.12661419E+02</totfact>
</mgrwt>
</event>
<event>
 4    1  0.6034452E-005  0.5573792E+03  0.7818608E-02  0.9998002E-01
         -2   -1    0    0    0  501 -0.00000000000E+00  0.00000000000E+00  0.10368819243E+03  0.10368819246E+03  0.25500000000E-02 0. -1.
          2   -1    0    0  501    0  0.00000000000E+00 -0.00000000000E+00 -0.74905251551E+03  0.74905251551E+03  0.25500000000E-02 0.  1.
    5000001    1    1    2    0    0 -0.66288059180E+02 -0.18422233942E+03 -0.41934451410E+03  0.49952557356E+03  0.18800000000E+03 0.  0.
   -5000001    1    1    2    0    0  0.66288059180E+02  0.18422233942E+03 -0.22601980898E+03  0.35321513442E+03  0.18800000000E+03 0.  0.
<mgrwt>
<rscale>  0 0.55737923E+03</rscale>
<asrwt>0</asrwt>
<pdfrwt beam="1">  1        2 0.10700750E+00 0.55737923E+03</pdfrwt>
<pdfrwt beam="2">  1       -2 0.14812599E-01 0.55737923E+03</pdfrwt>
<totfact> 0.14808721E+03</totfact>
</mgrwt>
</event>
<event>
 4    1  0.6034452E-005  0.8200769E+03  0.7818608E-02  0.9531403E-01
         -2   -1    0    0    0  501 -0.00000000000E+00  0.00000000000E+00  0.12178256041E+03  0.12178256043E+03  0.25500000000E-02 0. -1.
          2   -1    0    0  501    0  0.00000000000E+00 -0.00000000000E+00 -0.13805879115E+04  0.13805879115E+04  0.25500000000E-02 0.  1.
    5000001    1    1    2    0    0 -0.32484418525E+03  0.94622126155E+02 -0.38150534963E+03  0.54347715982E+03  0.18800000000E+03 0.  0.
   -5000001    1    1    2    0    0  0.32484418525E+03 -0.94622126155E+02 -0.87730000146E+03  0.95889331211E+03  0.18800000000E+03 0.  0.
<mgrwt>
<rscale>  0 0.82007690E+03</rscale>
<asrwt>0</asrwt>
<pdfrwt beam="1">  1        2 0.19722683E+00 0.82007690E+03</pdfrwt>
<pdfrwt beam="2">  1       -2 0.17397509E-01 0.82007690E+03</pdfrwt>
<totfact> 0.46322661E+02</totfact>
</mgrwt>
</event>
<event>
 4    1  0.6034452E-005  0.6868103E+03  0.7818608E-02  0.9740058E-01
         -2   -1    0    0    0  501 -0.00000000000E+00  0.00000000000E+00  0.82384208966E+02  0.82384209005E+02  0.25500000000E-02 0. -1.
          2   -1    0    0  501    0  0.00000000000E+00 -0.00000000000E+00 -0.14314285301E+04  0.14314285301E+04  0.25500000000E-02 0.  1.
    5000001    1    1    2    0    0  0.27735102717E+03 -0.74562850785E+02 -0.69655192174E+03  0.77653833819E+03  0.18800000000E+03 0.  0.
   -5000001    1    1    2    0    0 -0.27735102717E+03  0.74562850785E+02 -0.65249239940E+03  0.73727440093E+03  0.18800000000E+03 0.  0.
<mgrwt>
<rscale>  0 0.68681033E+03</rscale>
<asrwt>0</asrwt>
<pdfrwt beam="1">  1        2 0.20448977E+00 0.68681033E+03</pdfrwt>
<pdfrwt beam="2">  1       -2 0.11769174E-01 0.68681033E+03</pdfrwt>
<totfact> 0.84519275E+02</totfact>
</mgrwt>
</event>
<event>
 4    1  0.6034452E-005  0.6010362E+03  0.7818608E-02  0.9903259E-01
          2   -1    0    0  501    0  0.00000000000E+00  0.00000000000E+00  0.13750117218E+04  0.13750117218E+04  0.25500000000E-02 0.  1.
         -2   -1    0    0    0  501 -0.00000000000E+00 -0.00000000000E+00 -0.65680263505E+02  0.65680263555E+02  0.25500000000E-02 0. -1.
    5000001    1    1    2    0    0 -0.10919354640E+03  0.17233506633E+03  0.93156517496E+03  0.97199808686E+03  0.18800000000E+03 0.  0.
   -5000001    1    1    2    0    0  0.10919354640E+03 -0.17233506633E+03  0.37776628333E+03  0.46869389849E+03  0.18800000000E+03 0.  0.
<mgrwt>
<rscale>  0 0.60103621E+03</rscale>
<asrwt>0</asrwt>
<pdfrwt beam="1">  1        2 0.19643024E+00 0.60103621E+03</pdfrwt>
<pdfrwt beam="2">  1       -2 0.93828951E-02 0.60103621E+03</pdfrwt>
<totfact> 0.13145346E+03</totfact>
</mgrwt>
</event>
<event>
 4    1  0.6034452E-005  0.4384276E+03  0.7818608E-02  0.1031230E+00
          2   -1    0    0  501    0  0.00000000000E+00  0.00000000000E+00  0.99667848109E+02  0.99667848142E+02  0.25500000000E-02 0.  1.
         -2   -1    0    0    0  501 -0.00000000000E+00 -0.00000000000E+00 -0.48214833149E+03  0.48214833150E+03  0.25500000000E-02 0. -1.
    5000001    1    1    2    0    0  0.55249132609E+02 -0.96111272082E+02 -0.21846400666E+03  0.30880473681E+03  0.18800000000E+03 0.  0.
   -5000001    1    1    2    0    0 -0.55249132609E+02  0.96111272082E+02 -0.16401647673E+03  0.27301144282E+03  0.18800000000E+03 0.  0.
<mgrwt>
<rscale>  0 0.43842758E+03</rscale>
<asrwt>0</asrwt>
<pdfrwt beam="1">  1        2 0.14238264E-01 0.43842758E+03</pdfrwt>
<pdfrwt beam="2">  1       -2 0.68878332E-01 0.43842758E+03</pdfrwt>
<totfact> 0.82580050E+02</totfact>
</mgrwt>
</event>
<event>
 4    1  0.6034452E-005  0.4225026E+03  0.7818608E-02  0.1036255E+00
         -2   -1    0    0    0  501 -0.00000000000E+00  0.00000000000E+00  0.18289468673E+02  0.18289468851E+02  0.25500000000E-02 0. -1.
          2   -1    0    0  501    0  0.00000000000E+00 -0.00000000000E+00 -0.24400441631E+04  0.24400441631E+04  0.25500000000E-02 0.  1.
    5000001    1    1    2    0    0  0.74442652348E+01  0.95847571466E+02 -0.11736491602E+04  0.11924925683E+04  0.18800000000E+03 0.  0.
   -5000001    1    1    2    0    0 -0.74442652348E+01 -0.95847571466E+02 -0.12481055342E+04  0.12658410637E+04  0.18800000000E+03 0.  0.
<mgrwt>
<rscale>  0 0.42250260E+03</rscale>
<asrwt>0</asrwt>
<pdfrwt beam="1">  1        2 0.34857753E+00 0.42250260E+03</pdfrwt>
<pdfrwt beam="2">  1       -2 0.26127828E-02 0.42250260E+03</pdfrwt>
<totfact> 0.27716370E+03</totfact>
</mgrwt>
</event>
<event>
 4    1  0.6034452E-005  0.6047802E+03  0.7818608E-02  0.9895538E-01
          2   -1    0    0  501    0  0.00000000000E+00  0.00000000000E+00  0.80982727452E+03  0.80982727452E+03  0.25500000000E-02 0.  1.
         -2   -1    0    0    0  501 -0.00000000000E+00 -0.00000000000E+00 -0.11291267119E+03  0.11291267122E+03  0.25500000000E-02 0. -1.
    5000001    1    1    2    0    0 -0.89518592191E+02  0.20731890894E+03  0.23948611525E+03  0.37906768228E+03  0.18800000000E+03 0.  0.
   -5000001    1    1    2    0    0  0.89518592191E+02 -0.20731890894E+03  0.45742848808E+03  0.54367226346E+03  0.18800000000E+03 0.  0.
<mgrwt>
<rscale>  0 0.60478016E+03</rscale>
<asrwt>0</asrwt>
<pdfrwt beam="1">  1        2 0.11568962E+00 0.60478016E+03</pdfrwt>
<pdfrwt beam="2">  1       -2 0.16130381E-01 0.60478016E+03</pdfrwt>
<totfact> 0.11613391E+03</totfact>
</mgrwt>
</event>
<event>
 4    1  0.6034452E-005  0.5038709E+03  0.7818608E-02  0.1012773E+00
          2   -1    0    0  501    0  0.00000000000E+00  0.00000000000E+00  0.60996922245E+03  0.60996922245E+03  0.25500000000E-02 0. -1.
         -2   -1    0    0    0  501 -0.00000000000E+00 -0.00000000000E+00 -0.10405682321E+03  0.10405682324E+03  0.25500000000E-02 0.  1.
    5000001    1    1    2    0    0  0.11244822260E+03  0.50392586264E+02  0.41417650551E+03  0.47124324211E+03  0.18800000000E+03 0.  0.
   -5000001    1    1    2    0    0 -0.11244822260E+03 -0.50392586264E+02  0.91735893731E+02  0.24278280358E+03  0.18800000000E+03 0.  0.
<mgrwt>
<rscale>  0 0.50387085E+03</rscale>
<asrwt>0</asrwt>
<pdfrwt beam="1">  1        2 0.87138458E-01 0.50387085E+03</pdfrwt>
<pdfrwt beam="2">  1       -2 0.14865261E-01 0.50387085E+03</pdfrwt>
<totfact> 0.18866815E+03</totfact>
</mgrwt>
</event>
<event>
 4    1  0.6034452E-005  0.3829098E+03  0.7818608E-02  0.1049864E+00
          2   -1    0    0  501    0  0.00000000000E+00  0.00000000000E+00  0.23474555275E+04  0.23474555275E+04  0.25500000000E-02 0.  1.
         -2   -1    0    0    0  501 -0.00000000000E+00 -0.00000000000E+00 -0.15614766090E+02  0.15614766299E+02  0.25500000000E-02 0. -1.
    5000001    1    1    2    0    0 -0.61449280543E+01  0.31665587835E+02  0.12674197978E+04  0.12816931823E+04  0.18800000000E+03 0.  0.
   -5000001    1    1    2    0    0  0.61449280543E+01 -0.31665587835E+02  0.10644209636E+04  0.10813771115E+04  0.18800000000E+03 0.  0.
<mgrwt>
<rscale>  0 0.38290975E+03</rscale>
<asrwt>0</asrwt>
<pdfrwt beam="1">  1        2 0.33535032E+00 0.38290975E+03</pdfrwt>
<pdfrwt beam="2">  1       -2 0.22306840E-02 0.38290975E+03</pdfrwt>
<totfact> 0.39138847E+03</totfact>
</mgrwt>
</event>
<event>
 4    1  0.6034452E-005  0.6327965E+03  0.7818608E-02  0.9839607E-01
          2   -1    0    0  501    0  0.00000000000E+00  0.00000000000E+00  0.75690295663E+03  0.75690295663E+03  0.25500000000E-02 0.  1.
         -2   -1    0    0    0  501 -0.00000000000E+00 -0.00000000000E+00 -0.13225983501E+03  0.13225983504E+03  0.25500000000E-02 0. -1.
    5000001    1    1    2    0    0 -0.23747440159E+03 -0.74615772640E+02  0.23793901453E+03  0.39232713336E+03  0.18800000000E+03 0.  0.
   -5000001    1    1    2    0    0  0.23747440159E+03  0.74615772640E+02  0.38670410708E+03  0.49683565831E+03  0.18800000000E+03 0.  0.
<mgrwt>
<rscale>  0 0.63279652E+03</rscale>
<asrwt>0</asrwt>
<pdfrwt beam="1">  1        2 0.10812899E+00 0.63279652E+03</pdfrwt>
<pdfrwt beam="2">  1       -2 0.18894262E-01 0.63279652E+03</pdfrwt>
<totfact> 0.96451454E+02</totfact>
</mgrwt>
</event>
<event>
 4    1  0.6034452E-005  0.1894645E+04  0.7818608E-02  0.8657526E-01
          2   -1    0    0  501    0  0.00000000000E+00  0.00000000000E+00  0.21002842554E+04  0.21002842554E+04  0.25500000000E-02 0.  1.
         -2   -1    0    0    0  501 -0.00000000000E+00 -0.00000000000E+00 -0.42728517580E+03  0.42728517580E+03  0.25500000000E-02 0. -1.
    5000001    1    1    2    0    0 -0.36297739387E+03  0.81513958164E+03  0.49410806765E+03  0.10371556819E+04  0.18800000000E+03 0.  0.
   -5000001    1    1    2    0    0  0.36297739387E+03 -0.81513958164E+03  0.11788910120E+04  0.14904137493E+04  0.18800000000E+03 0.  0.
<mgrwt>
<rscale>  0 0.18946454E+04</rscale>
<asrwt>0</asrwt>
<pdfrwt beam="1">  1        2 0.30004060E+00 0.18946454E+04</pdfrwt>
<pdfrwt beam="2">  1       -2 0.61040741E-01 0.18946454E+04</pdfrwt>
<totfact> 0.16716498E+01</totfact>
</mgrwt>
</event>
<event>
 4    1  0.6034452E-005  0.7838228E+03  0.7818608E-02  0.9583733E-01
         -2   -1    0    0    0  501 -0.00000000000E+00  0.00000000000E+00  0.20620049379E+04  0.20620049379E+04  0.25500000000E-02 0.  1.
          2   -1    0    0  501    0  0.00000000000E+00 -0.00000000000E+00 -0.74487961176E+02  0.74487961219E+02  0.25500000000E-02 0. -1.
    5000001    1    1    2    0    0 -0.25420595828E+03 -0.84627284615E+02  0.40618660070E+03  0.52164547455E+03  0.18800000000E+03 0.  0.
   -5000001    1    1    2    0    0  0.25420595828E+03  0.84627284615E+02  0.15813303760E+04  0.16148474245E+04  0.18800000000E+03 0.  0.
<mgrwt>
<rscale>  0 0.78382280E+03</rscale>
<asrwt>0</asrwt>
<pdfrwt beam="1">  1        2 0.10641138E-01 0.78382280E+03</pdfrwt>
<pdfrwt beam="2">  1       -2 0.29457212E+00 0.78382280E+03</pdfrwt>
<totfact> 0.21846122E+01</totfact>
</mgrwt>
</event>
