<event>
 4    1  0.5023236E-005  0.1093482E+04  0.7818608E-02  0.9211568E-01
         -2   -1    0    0    0  501 -0.00000000000E+00  0.00000000000E+00  0.28936588202E+03  0.28936588203E+03  0.25500000000E-02 0. -1.
          2   -1    0    0  501    0  0.00000000000E+00 -0.00000000000E+00 -0.10330379466E+04  0.10330379466E+04  0.25500000000E-02 0.  1.
    5000001    1    1    2    0    0  0.47927133059E+03  0.12225606013E+03 -0.22532287352E+03  0.57880821512E+03  0.19900000000E+03 0.  0.
   -5000001    1    1    2    0    0 -0.47927133059E+03 -0.12225606013E+03 -0.51834919107E+03  0.74359561352E+03  0.19900000000E+03 0.  0.
<mgrwt>
<rscale>  0 0.10934824E+04</rscale>
<asrwt>0</asrwt>
<pdfrwt beam="1">  1        2 0.14757685E+00 0.10934824E+04</pdfrwt>
<pdfrwt beam="2">  1       -2 0.41337984E-01 0.10934824E+04</pdfrwt>
<totfact> 0.14742100E+02</totfact>
</mgrwt>
</event>
<event>
 4    1  0.5023236E-005  0.6807739E+03  0.7818608E-02  0.9750688E-01
          2   -1    0    0  501    0  0.00000000000E+00  0.00000000000E+00  0.10445730222E+04  0.10445730222E+04  0.25500000000E-02 0.  1.
         -2   -1    0    0    0  501 -0.00000000000E+00 -0.00000000000E+00 -0.11091925557E+03  0.11091925560E+03  0.25500000000E-02 0. -1.
    5000001    1    1    2    0    0 -0.26360188390E+03 -0.76354292623E+02  0.51904072771E+03  0.61993564845E+03  0.19900000000E+03 0.  0.
   -5000001    1    1    2    0    0  0.26360188390E+03  0.76354292623E+02  0.41461303887E+03  0.53555662931E+03  0.19900000000E+03 0.  0.
<mgrwt>
<rscale>  0 0.68077386E+03</rscale>
<asrwt>0</asrwt>
<pdfrwt beam="1">  1        2 0.14922471E+00 0.68077386E+03</pdfrwt>
<pdfrwt beam="2">  1       -2 0.15845609E-01 0.68077386E+03</pdfrwt>
<totfact> 0.84593936E+02</totfact>
</mgrwt>
</event>
<event>
 4    1  0.5023236E-005  0.7231286E+03  0.7818608E-02  0.9678477E-01
         -2   -1    0    0    0  501 -0.00000000000E+00  0.00000000000E+00  0.13487906974E+03  0.13487906977E+03  0.25500000000E-02 0. -1.
          2   -1    0    0  501    0  0.00000000000E+00 -0.00000000000E+00 -0.96922932200E+03  0.96922932200E+03  0.25500000000E-02 0.  1.
    5000001    1    1    2    0    0  0.26653303294E+03  0.61460456448E+02 -0.61217298924E+03  0.69940976123E+03  0.19900000000E+03 0.  0.
   -5000001    1    1    2    0    0 -0.26653303294E+03 -0.61460456448E+02 -0.22217726301E+03  0.40469863053E+03  0.19900000000E+03 0.  0.
<mgrwt>
<rscale>  0 0.72312862E+03</rscale>
<asrwt>0</asrwt>
<pdfrwt beam="1">  1        2 0.13846133E+00 0.72312862E+03</pdfrwt>
<pdfrwt beam="2">  1       -2 0.19268439E-01 0.72312862E+03</pdfrwt>
<totfact> 0.67120888E+02</totfact>
</mgrwt>
</event>
<event>
 4    1  0.5023236E-005  0.9393620E+03  0.7818608E-02  0.9377672E-01
         -2   -1    0    0    0  501 -0.00000000000E+00  0.00000000000E+00  0.10173903432E+03  0.10173903436E+03  0.25500000000E-02 0. -1.
          2   -1    0    0  501    0  0.00000000000E+00 -0.00000000000E+00 -0.21682951338E+04  0.21682951338E+04  0.25500000000E-02 0.  1.
    5000001    1    1    2    0    0  0.26350758145E+03 -0.20709467533E+03 -0.16665614533E+04  0.17115351377E+04  0.19900000000E+03 0.  0.
   -5000001    1    1    2    0    0 -0.26350758145E+03  0.20709467533E+03 -0.39999464619E+03  0.55849903045E+03  0.19900000000E+03 0.  0.
<mgrwt>
<rscale>  0 0.93936202E+03</rscale>
<asrwt>0</asrwt>
<pdfrwt beam="1">  1        2 0.30975642E+00 0.93936202E+03</pdfrwt>
<pdfrwt beam="2">  1       -2 0.14534149E-01 0.93936202E+03</pdfrwt>
<totfact> 0.24499656E+02</totfact>
</mgrwt>
</event>
<event>
 4    1  0.5023236E-005  0.4183699E+03  0.7818608E-02  0.1037598E+00
          2   -1    0    0  501    0  0.00000000000E+00  0.00000000000E+00  0.60279557210E+03  0.60279557211E+03  0.25500000000E-02 0.  1.
         -2   -1    0    0    0  501 -0.00000000000E+00 -0.00000000000E+00 -0.72592344399E+02  0.72592344443E+02  0.25500000000E-02 0. -1.
    5000001    1    1    2    0    0  0.19236460424E+02 -0.61507759976E+02  0.26836952660E+03  0.34025938452E+03  0.19900000000E+03 0.  0.
   -5000001    1    1    2    0    0 -0.19236460424E+02  0.61507759976E+02  0.26183370110E+03  0.33512853203E+03  0.19900000000E+03 0.  0.
<mgrwt>
<rscale>  0 0.41836990E+03</rscale>
<asrwt>0</asrwt>
<pdfrwt beam="1">  1        2 0.86113652E-01 0.41836990E+03</pdfrwt>
<pdfrwt beam="2">  1       -2 0.10370335E-01 0.41836990E+03</pdfrwt>
<totfact> 0.34497393E+03</totfact>
</mgrwt>
</event>
<event>
 4    1  0.5023236E-005  0.1009652E+04  0.7818608E-02  0.9298022E-01
         -2   -1    0    0    0  501 -0.00000000000E+00  0.00000000000E+00  0.89429795604E+02  0.89429795640E+02  0.25500000000E-02 0. -1.
          2   -1    0    0  501    0  0.00000000000E+00 -0.00000000000E+00 -0.28497117829E+04  0.28497117829E+04  0.25500000000E-02 0.  1.
    5000001    1    1    2    0    0  0.34639437236E+03 -0.17278469117E+03 -0.21246206637E+04  0.21687456225E+04  0.19900000000E+03 0.  0.
   -5000001    1    1    2    0    0 -0.34639437236E+03  0.17278469117E+03 -0.63566132365E+03  0.77039595604E+03  0.19900000000E+03 0.  0.
<mgrwt>
<rscale>  0 0.10096517E+04</rscale>
<asrwt>0</asrwt>
<pdfrwt beam="1">  1        2 0.40710163E+00 0.10096517E+04</pdfrwt>
<pdfrwt beam="2">  1       -2 0.12775687E-01 0.10096517E+04</pdfrwt>
<totfact> 0.13328146E+02</totfact>
</mgrwt>
</event>
<event>
 4    1  0.5023236E-005  0.7357177E+03  0.7818608E-02  0.9658027E-01
          2   -1    0    0  501    0  0.00000000000E+00  0.00000000000E+00  0.59978587684E+04  0.59978587684E+04  0.25500000000E-02 0.  1.
         -2   -1    0    0    0  501 -0.00000000000E+00 -0.00000000000E+00 -0.22561404523E+02  0.22561404667E+02  0.25500000000E-02 0. -1.
    5000001    1    1    2    0    0 -0.92678456149E+02 -0.11966374497E+03  0.77958110189E+03  0.81869188497E+03  0.19900000000E+03 0.  0.
   -5000001    1    1    2    0    0  0.92678456149E+02  0.11966374497E+03  0.51957162620E+04  0.52017282881E+04  0.19900000000E+03 0.  0.
<mgrwt>
<rscale>  0 0.73571766E+03</rscale>
<asrwt>0</asrwt>
<pdfrwt beam="1">  1        2 0.85683741E+00 0.73571766E+03</pdfrwt>
<pdfrwt beam="2">  1       -2 0.32230561E-02 0.73571766E+03</pdfrwt>
<totfact> 0.22347078E+00</totfact>
</mgrwt>
</event>
<event>
 4    1  0.5023236E-005  0.1266488E+04  0.7818608E-02  0.9056571E-01
          2   -1    0    0  501    0  0.00000000000E+00  0.00000000000E+00  0.10426391286E+04  0.10426391286E+04  0.25500000000E-02 0.  1.
         -2   -1    0    0    0  501 -0.00000000000E+00 -0.00000000000E+00 -0.38459871683E+03  0.38459871684E+03  0.25500000000E-02 0. -1.
    5000001    1    1    2    0    0  0.56087743016E+03 -0.21634953552E+03  0.32624654833E+03  0.71234010380E+03  0.19900000000E+03 0.  0.
   -5000001    1    1    2    0    0 -0.56087743016E+03  0.21634953552E+03  0.33179386342E+03  0.71489774163E+03  0.19900000000E+03 0.  0.
<mgrwt>
<rscale>  0 0.12664875E+04</rscale>
<asrwt>0</asrwt>
<pdfrwt beam="1">  1        2 0.14894845E+00 0.12664875E+04</pdfrwt>
<pdfrwt beam="2">  1       -2 0.54942674E-01 0.12664875E+04</pdfrwt>
<totfact> 0.80991858E+01</totfact>
</mgrwt>
</event>
<event>
 4    1  0.5023236E-005  0.7687605E+03  0.7818608E-02  0.9606369E-01
          2   -1    0    0  501    0  0.00000000000E+00  0.00000000000E+00  0.21024210522E+04  0.21024210522E+04  0.25500000000E-02 0.  1.
         -2   -1    0    0    0  501 -0.00000000000E+00 -0.00000000000E+00 -0.70275257096E+02  0.70275257142E+02  0.25500000000E-02 0. -1.
    5000001    1    1    2    0    0 -0.13551068403E+03  0.25687462326E+03  0.58006783192E+03  0.67854801392E+03  0.19900000000E+03 0.  0.
   -5000001    1    1    2    0    0  0.13551068403E+03 -0.25687462326E+03  0.14520779632E+04  0.14941482954E+04  0.19900000000E+03 0.  0.
<mgrwt>
<rscale>  0 0.76876051E+03</rscale>
<asrwt>0</asrwt>
<pdfrwt beam="1">  1        2 0.30034590E+00 0.76876051E+03</pdfrwt>
<pdfrwt beam="2">  1       -2 0.10039321E-01 0.76876051E+03</pdfrwt>
<totfact> 0.49466145E+02</totfact>
</mgrwt>
</event>
<event>
 4    1  0.5023236E-005  0.6874918E+03  0.7818608E-02  0.9738865E-01
         -2   -1    0    0    0  501 -0.00000000000E+00  0.00000000000E+00  0.19332775034E+03  0.19332775036E+03  0.25500000000E-02 0. -1.
          2   -1    0    0  501    0  0.00000000000E+00 -0.00000000000E+00 -0.61119644524E+03  0.61119644525E+03  0.25500000000E-02 0.  1.
    5000001    1    1    2    0    0 -0.18968396317E+03 -0.15192681892E+03 -0.45526891580E+02  0.31738850333E+03  0.19900000000E+03 0.  0.
   -5000001    1    1    2    0    0  0.18968396317E+03  0.15192681892E+03 -0.37234180332E+03  0.48713569228E+03  0.19900000000E+03 0.  0.
<mgrwt>
<rscale>  0 0.68749177E+03</rscale>
<asrwt>0</asrwt>
<pdfrwt beam="1">  1        2 0.87313777E-01 0.68749177E+03</pdfrwt>
<pdfrwt beam="2">  1       -2 0.27618250E-01 0.68749177E+03</pdfrwt>
<totfact> 0.63678964E+02</totfact>
</mgrwt>
</event>
<event>
 4    1  0.5023236E-005  0.5180909E+03  0.7818608E-02  0.1009162E+00
         -2   -1    0    0    0  501 -0.00000000000E+00  0.00000000000E+00  0.93629581173E+02  0.93629581207E+02  0.25500000000E-02 0. -1.
          2   -1    0    0  501    0  0.00000000000E+00 -0.00000000000E+00 -0.71670235379E+03  0.71670235380E+03  0.25500000000E-02 0.  1.
    5000001    1    1    2    0    0 -0.74207469132E+02  0.13360229054E+03 -0.41226099243E+03  0.48261417964E+03  0.19900000000E+03 0.  0.
   -5000001    1    1    2    0    0  0.74207469132E+02 -0.13360229054E+03 -0.21081178019E+03  0.32771775536E+03  0.19900000000E+03 0.  0.
<mgrwt>
<rscale>  0 0.51809088E+03</rscale>
<asrwt>0</asrwt>
<pdfrwt beam="1">  1        2 0.10238605E+00 0.51809088E+03</pdfrwt>
<pdfrwt beam="2">  1       -2 0.13375655E-01 0.51809088E+03</pdfrwt>
<totfact> 0.18544650E+03</totfact>
</mgrwt>
</event>
<event>
 4    1  0.5023236E-005  0.4431551E+03  0.7818608E-02  0.1029783E+00
         -2   -1    0    0    0  501 -0.00000000000E+00  0.00000000000E+00  0.81945819105E+02  0.81945819144E+02  0.25500000000E-02 0. -1.
          2   -1    0    0  501    0  0.00000000000E+00 -0.00000000000E+00 -0.59913515150E+03  0.59913515151E+03  0.25500000000E-02 0.  1.
    5000001    1    1    2    0    0 -0.22590032002E+02 -0.69720553837E+02 -0.15989379167E+03  0.26559045500E+03  0.19900000000E+03 0.  0.
   -5000001    1    1    2    0    0  0.22590032002E+02  0.69720553837E+02 -0.35729554073E+03  0.41549051565E+03  0.19900000000E+03 0.  0.
<mgrwt>
<rscale>  0 0.44315515E+03</rscale>
<asrwt>0</asrwt>
<pdfrwt beam="1">  1        2 0.85590734E-01 0.44315515E+03</pdfrwt>
<pdfrwt beam="2">  1       -2 0.11706546E-01 0.44315515E+03</pdfrwt>
<totfact> 0.28565293E+03</totfact>
</mgrwt>
</event>
<event>
 4    1  0.5023236E-005  0.6196132E+03  0.7818608E-02  0.9865530E-01
         -2   -1    0    0    0  501 -0.00000000000E+00  0.00000000000E+00  0.37745686768E+03  0.37745686769E+03  0.25500000000E-02 0. -1.
          2   -1    0    0  501    0  0.00000000000E+00 -0.00000000000E+00 -0.25428105089E+03  0.25428105091E+03  0.25500000000E-02 0.  1.
    5000001    1    1    2    0    0  0.11970697044E+03 -0.20037665947E+03  0.10601306519E+03  0.32453094525E+03  0.19900000000E+03 0.  0.
   -5000001    1    1    2    0    0 -0.11970697044E+03  0.20037665947E+03  0.17162751594E+02  0.30720697335E+03  0.19900000000E+03 0.  0.
<mgrwt>
<rscale>  0 0.61961320E+03</rscale>
<asrwt>0</asrwt>
<pdfrwt beam="1">  1        2 0.36325865E-01 0.61961320E+03</pdfrwt>
<pdfrwt beam="2">  1       -2 0.53922409E-01 0.61961320E+03</pdfrwt>
<totfact> 0.46860273E+02</totfact>
</mgrwt>
</event>
<event>
 4    1  0.5023236E-005  0.9198542E+03  0.7818608E-02  0.9401097E-01
          2   -1    0    0  501    0  0.00000000000E+00  0.00000000000E+00  0.80631147912E+03  0.80631147912E+03  0.25500000000E-02 0.  1.
         -2   -1    0    0    0  501 -0.00000000000E+00 -0.00000000000E+00 -0.26234643262E+03  0.26234643263E+03  0.25500000000E-02 0. -1.
    5000001    1    1    2    0    0  0.36063173261E+03  0.16253358300E+03  0.41643261480E+03  0.60785650843E+03  0.19900000000E+03 0.  0.
   -5000001    1    1    2    0    0 -0.36063173261E+03 -0.16253358300E+03  0.12753243170E+03  0.46080140332E+03  0.19900000000E+03 0.  0.
<mgrwt>
<rscale>  0 0.91985421E+03</rscale>
<asrwt>0</asrwt>
<pdfrwt beam="1">  1        2 0.11518735E+00 0.91985421E+03</pdfrwt>
<pdfrwt beam="2">  1       -2 0.37478062E-01 0.91985421E+03</pdfrwt>
<totfact> 0.25266660E+02</totfact>
</mgrwt>
</event>
<event>
 4    1  0.5023236E-005  0.6328679E+03  0.7818608E-02  0.9839468E-01
          2   -1    0    0  501    0  0.00000000000E+00  0.00000000000E+00  0.85676430171E+02  0.85676430209E+02  0.25500000000E-02 0.  1.
         -2   -1    0    0    0  501 -0.00000000000E+00 -0.00000000000E+00 -0.11687046549E+04  0.11687046549E+04  0.25500000000E-02 0. -1.
    5000001    1    1    2    0    0 -0.13248382519E+03 -0.18025988579E+03 -0.74445842359E+03  0.80241194833E+03  0.19900000000E+03 0.  0.
   -5000001    1    1    2    0    0  0.13248382519E+03  0.18025988579E+03 -0.33856980112E+03  0.45196913677E+03  0.19900000000E+03 0.  0.
<mgrwt>
<rscale>  0 0.63286789E+03</rscale>
<asrwt>0</asrwt>
<pdfrwt beam="1">  1        2 0.12239491E-01 0.63286789E+03</pdfrwt>
<pdfrwt beam="2">  1       -2 0.16695780E+00 0.63286789E+03</pdfrwt>
<totfact> 0.11751777E+02</totfact>
</mgrwt>
</event>
<event>
 4    1  0.5023236E-005  0.4934075E+03  0.7818608E-02  0.1015514E+00
         -2   -1    0    0    0  501 -0.00000000000E+00  0.00000000000E+00  0.81972177606E+02  0.81972177646E+02  0.25500000000E-02 0. -1.
          2   -1    0    0  501    0  0.00000000000E+00 -0.00000000000E+00 -0.74248054241E+03  0.74248054241E+03  0.25500000000E-02 0.  1.
    5000001    1    1    2    0    0  0.80813065398E+02 -0.11751059309E+03 -0.38099829963E+03  0.45287989064E+03  0.19900000000E+03 0.  0.
   -5000001    1    1    2    0    0 -0.80813065398E+02  0.11751059309E+03 -0.27951006517E+03  0.37157282942E+03  0.19900000000E+03 0.  0.
<mgrwt>
<rscale>  0 0.49340753E+03</rscale>
<asrwt>0</asrwt>
<pdfrwt beam="1">  1        2 0.10606864E+00 0.49340753E+03</pdfrwt>
<pdfrwt beam="2">  1       -2 0.11710312E-01 0.49340753E+03</pdfrwt>
<totfact> 0.22098963E+03</totfact>
</mgrwt>
</event>
<event>
 4    1  0.5023236E-005  0.4768765E+03  0.7818608E-02  0.1019997E+00
         -2   -1    0    0    0  501 -0.00000000000E+00  0.00000000000E+00  0.25224046567E+03  0.25224046569E+03  0.25500000000E-02 0. -1.
          2   -1    0    0  501    0  0.00000000000E+00 -0.00000000000E+00 -0.22539131199E+03  0.22539131201E+03  0.25500000000E-02 0.  1.
    5000001    1    1    2    0    0  0.15163170585E+02  0.88837795500E+02  0.10912554048E+03  0.24419553484E+03  0.19900000000E+03 0.  0.
   -5000001    1    1    2    0    0 -0.15163170585E+02 -0.88837795500E+02 -0.82276386798E+02  0.23343624285E+03  0.19900000000E+03 0.  0.
<mgrwt>
<rscale>  0 0.47687654E+03</rscale>
<asrwt>0</asrwt>
<pdfrwt beam="1">  1        2 0.32198759E-01 0.47687654E+03</pdfrwt>
<pdfrwt beam="2">  1       -2 0.36034352E-01 0.47687654E+03</pdfrwt>
<totfact> 0.11887831E+03</totfact>
</mgrwt>
</event>
<event>
 4    1  0.5023236E-005  0.8774893E+03  0.7818608E-02  0.9454167E-01
          2   -1    0    0  501    0  0.00000000000E+00  0.00000000000E+00  0.23863315655E+04  0.23863315655E+04  0.25500000000E-02 0.  1.
         -2   -1    0    0    0  501 -0.00000000000E+00 -0.00000000000E+00 -0.80666434947E+02  0.80666434987E+02  0.25500000000E-02 0. -1.
    5000001    1    1    2    0    0  0.14076499310E+03  0.23823294095E+03  0.19295510381E+04  0.19594228553E+04  0.19900000000E+03 0.  0.
   -5000001    1    1    2    0    0 -0.14076499310E+03 -0.23823294095E+03  0.37611409251E+03  0.50757514520E+03  0.19900000000E+03 0.  0.
<mgrwt>
<rscale>  0 0.87748928E+03</rscale>
<asrwt>0</asrwt>
<pdfrwt beam="1">  1        2 0.34090453E+00 0.87748928E+03</pdfrwt>
<pdfrwt beam="2">  1       -2 0.11523776E-01 0.87748928E+03</pdfrwt>
<totfact> 0.28044431E+02</totfact>
</mgrwt>
</event>
<event>
 4    1  0.5023236E-005  0.5821264E+03  0.7818608E-02  0.9943198E-01
          2   -1    0    0  501    0  0.00000000000E+00  0.00000000000E+00  0.59550661968E+03  0.59550661969E+03  0.25500000000E-02 0.  1.
         -2   -1    0    0    0  501 -0.00000000000E+00 -0.00000000000E+00 -0.14226170234E+03  0.14226170237E+03  0.25500000000E-02 0. -1.
    5000001    1    1    2    0    0  0.96284539212E+02 -0.16855944033E+03  0.11735073383E+03  0.30175352880E+03  0.19900000000E+03 0.  0.
   -5000001    1    1    2    0    0 -0.96284539212E+02  0.16855944033E+03  0.33589418352E+03  0.43601479325E+03  0.19900000000E+03 0.  0.
<mgrwt>
<rscale>  0 0.58212640E+03</rscale>
<asrwt>0</asrwt>
<pdfrwt beam="1">  1        2 0.85072375E-01 0.58212640E+03</pdfrwt>
<pdfrwt beam="2">  1       -2 0.20323100E-01 0.58212640E+03</pdfrwt>
<totfact> 0.11371612E+03</totfact>
</mgrwt>
</event>
<event>
 4    1  0.5023236E-005  0.5499749E+03  0.7818608E-02  0.1001500E+00
          2   -1    0    0  501    0  0.00000000000E+00  0.00000000000E+00  0.27621948676E+04  0.27621948676E+04  0.25500000000E-02 0.  1.
         -2   -1    0    0    0  501 -0.00000000000E+00 -0.00000000000E+00 -0.27376088226E+02  0.27376088344E+02  0.25500000000E-02 0. -1.
    5000001    1    1    2    0    0  0.16204241558E+03 -0.62201119671E+02  0.97812612454E+03  0.10131428523E+04  0.19900000000E+03 0.  0.
   -5000001    1    1    2    0    0 -0.16204241558E+03  0.62201119671E+02  0.17566926549E+04  0.17764281036E+04  0.19900000000E+03 0.  0.
<mgrwt>
<rscale>  0 0.54997487E+03</rscale>
<asrwt>0</asrwt>
<pdfrwt beam="1">  1        2 0.39459950E+00 0.54997487E+03</pdfrwt>
<pdfrwt beam="2">  1       -2 0.39108675E-02 0.54997487E+03</pdfrwt>
<totfact> 0.10178335E+03</totfact>
</mgrwt>
</event>
<event>
 4    1  0.5023236E-005  0.7221233E+03  0.7818608E-02  0.9680129E-01
          2   -1    0    0  501    0  0.00000000000E+00  0.00000000000E+00  0.57995910821E+04  0.57995910821E+04  0.25500000000E-02 0.  1.
         -2   -1    0    0    0  501 -0.00000000000E+00 -0.00000000000E+00 -0.22478398413E+02  0.22478398557E+02  0.25500000000E-02 0. -1.
    5000001    1    1    2    0    0  0.26142892791E+03 -0.14952374977E+03  0.28250300626E+04  0.28479989977E+04  0.19900000000E+03 0.  0.
   -5000001    1    1    2    0    0 -0.26142892791E+03  0.14952374977E+03  0.29520826211E+04  0.29740704830E+04  0.19900000000E+03 0.  0.
<mgrwt>
<rscale>  0 0.72212331E+03</rscale>
<asrwt>0</asrwt>
<pdfrwt beam="1">  1        2 0.82851352E+00 0.72212331E+03</pdfrwt>
<pdfrwt beam="2">  1       -2 0.32111978E-02 0.72212331E+03</pdfrwt>
<totfact> 0.47533852E+00</totfact>
</mgrwt>
</event>
<event>
 4    1  0.5023236E-005  0.4958202E+03  0.7818608E-02  0.1014876E+00
          2   -1    0    0  501    0  0.00000000000E+00  0.00000000000E+00  0.12424197806E+03  0.12424197808E+03  0.25500000000E-02 0. -1.
         -2   -1    0    0    0  501 -0.00000000000E+00 -0.00000000000E+00 -0.49467519534E+03  0.49467519535E+03  0.25500000000E-02 0.  1.
    5000001    1    1    2    0    0  0.97256721395E+02  0.10394962968E+03 -0.23505413254E+03  0.33928725380E+03  0.19900000000E+03 0.  0.
   -5000001    1    1    2    0    0 -0.97256721395E+02 -0.10394962968E+03 -0.13537908475E+03  0.27962991964E+03  0.19900000000E+03 0.  0.
<mgrwt>
<rscale>  0 0.49582023E+03</rscale>
<asrwt>0</asrwt>
<pdfrwt beam="1">  1        2 0.17748854E-01 0.49582023E+03</pdfrwt>
<pdfrwt beam="2">  1       -2 0.70667884E-01 0.49582023E+03</pdfrwt>
<totfact> 0.60034192E+02</totfact>
</mgrwt>
</event>
<event>
 4    1  0.5023236E-005  0.5835119E+03  0.7818608E-02  0.9940217E-01
         -2   -1    0    0    0  501 -0.00000000000E+00  0.00000000000E+00  0.65972009413E+02  0.65972009462E+02  0.25500000000E-02 0. -1.
          2   -1    0    0  501    0  0.00000000000E+00 -0.00000000000E+00 -0.12902674524E+04  0.12902674524E+04  0.25500000000E-02 0.  1.
    5000001    1    1    2    0    0  0.16388086661E+03  0.29594040776E+01 -0.92960290179E+03  0.96469075435E+03  0.19900000000E+03 0.  0.
   -5000001    1    1    2    0    0 -0.16388086661E+03 -0.29594040776E+01 -0.29469254117E+03  0.39154870749E+03  0.19900000000E+03 0.  0.
<mgrwt>
<rscale>  0 0.58351191E+03</rscale>
<asrwt>0</asrwt>
<pdfrwt beam="1">  1        2 0.18432391E+00 0.58351191E+03</pdfrwt>
<pdfrwt beam="2">  1       -2 0.94245736E-02 0.58351191E+03</pdfrwt>
<totfact> 0.14507193E+03</totfact>
</mgrwt>
</event>
<event>
 4    1  0.5023236E-005  0.5664127E+03  0.7818608E-02  0.9977648E-01
         -2   -1    0    0    0  501 -0.00000000000E+00  0.00000000000E+00  0.90661317902E+02  0.90661317938E+02  0.25500000000E-02 0. -1.
          2   -1    0    0  501    0  0.00000000000E+00 -0.00000000000E+00 -0.88467551606E+03  0.88467551607E+03  0.25500000000E-02 0.  1.
    5000001    1    1    2    0    0  0.11694387203E+03 -0.16324123698E+03 -0.42588656520E+03  0.51117896775E+03  0.19900000000E+03 0.  0.
   -5000001    1    1    2    0    0 -0.11694387203E+03  0.16324123698E+03 -0.36812763296E+03  0.46415786625E+03  0.19900000000E+03 0.  0.
<mgrwt>
<rscale>  0 0.56641274E+03</rscale>
<asrwt>0</asrwt>
<pdfrwt beam="1">  1        2 0.12638221E+00 0.56641274E+03</pdfrwt>
<pdfrwt beam="2">  1       -2 0.12951617E-01 0.56641274E+03</pdfrwt>
<totfact> 0.14959639E+03</totfact>
</mgrwt>
</event>
<event>
 4    1  0.5023236E-005  0.7066160E+03  0.7818608E-02  0.9705984E-01
          2   -1    0    0  501    0  0.00000000000E+00  0.00000000000E+00  0.17340577750E+04  0.17340577750E+04  0.25500000000E-02 0.  1.
         -2   -1    0    0    0  501 -0.00000000000E+00 -0.00000000000E+00 -0.71985221283E+02  0.71985221328E+02  0.25500000000E-02 0. -1.
    5000001    1    1    2    0    0 -0.14887582707E+03  0.10802581378E+03  0.14104545141E+04  0.14362508572E+04  0.19900000000E+03 0.  0.
   -5000001    1    1    2    0    0  0.14887582707E+03 -0.10802581378E+03  0.25161803959E+03  0.36979213915E+03  0.19900000000E+03 0.  0.
<mgrwt>
<rscale>  0 0.70661597E+03</rscale>
<asrwt>0</asrwt>
<pdfrwt beam="1">  1        2 0.24772254E+00 0.70661597E+03</pdfrwt>
<pdfrwt beam="2">  1       -2 0.10283603E-01 0.70661597E+03</pdfrwt>
<totfact> 0.73391001E+02</totfact>
</mgrwt>
</event>
<event>
 4    1  0.5023236E-005  0.1002727E+04  0.7818608E-02  0.9305559E-01
          2   -1    0    0  501    0  0.00000000000E+00  0.00000000000E+00  0.80392799988E+03  0.80392799989E+03  0.25500000000E-02 0.  1.
         -2   -1    0    0    0  501 -0.00000000000E+00 -0.00000000000E+00 -0.31267144344E+03  0.31267144346E+03  0.25500000000E-02 0. -1.
    5000001    1    1    2    0    0  0.32137828451E+03 -0.21806913190E+03 -0.29234985893E+02  0.43737150393E+03  0.19900000000E+03 0.  0.
   -5000001    1    1    2    0    0 -0.32137828451E+03  0.21806913190E+03  0.52049154233E+03  0.67922793942E+03  0.19900000000E+03 0.  0.
<mgrwt>
<rscale>  0 0.10027269E+04</rscale>
<asrwt>0</asrwt>
<pdfrwt beam="1">  1        2 0.11484686E+00 0.10027269E+04</pdfrwt>
<pdfrwt beam="2">  1       -2 0.44667349E-01 0.10027269E+04</pdfrwt>
<totfact> 0.17905699E+02</totfact>
</mgrwt>
</event>
<event>
 4    1  0.5023236E-005  0.4974276E+03  0.7818608E-02  0.1014453E+00
         -2   -1    0    0    0  501 -0.00000000000E+00  0.00000000000E+00  0.69612060720E+03  0.69612060721E+03  0.25500000000E-02 0. -1.
          2   -1    0    0  501    0  0.00000000000E+00 -0.00000000000E+00 -0.88861832376E+02  0.88861832413E+02  0.25500000000E-02 0.  1.
    5000001    1    1    2    0    0 -0.10572661151E+03  0.10519270621E+03  0.30951944771E+03  0.39704774314E+03  0.19900000000E+03 0.  0.
   -5000001    1    1    2    0    0  0.10572661151E+03 -0.10519270621E+03  0.29773932712E+03  0.38793469648E+03  0.19900000000E+03 0.  0.
<mgrwt>
<rscale>  0 0.49742759E+03</rscale>
<asrwt>0</asrwt>
<pdfrwt beam="1">  1        2 0.12694548E-01 0.49742759E+03</pdfrwt>
<pdfrwt beam="2">  1       -2 0.99445798E-01 0.49742759E+03</pdfrwt>
<totfact> 0.41629818E+02</totfact>
</mgrwt>
</event>
<event>
 4    1  0.5023236E-005  0.7876077E+03  0.7818608E-02  0.9578130E-01
         -2   -1    0    0    0  501 -0.00000000000E+00  0.00000000000E+00  0.14701444625E+03  0.14701444627E+03  0.25500000000E-02 0. -1.
          2   -1    0    0  501    0  0.00000000000E+00 -0.00000000000E+00 -0.10548722334E+04  0.10548722334E+04  0.25500000000E-02 0.  1.
    5000001    1    1    2    0    0  0.24622491547E+03 -0.18124126191E+02 -0.97598818410E+02  0.33178565717E+03  0.19900000000E+03 0.  0.
   -5000001    1    1    2    0    0 -0.24622491547E+03  0.18124126191E+02 -0.81025896877E+03  0.87010102254E+03  0.19900000000E+03 0.  0.
<mgrwt>
<rscale>  0 0.78760766E+03</rscale>
<asrwt>0</asrwt>
<pdfrwt beam="1">  1        2 0.15069603E+00 0.78760766E+03</pdfrwt>
<pdfrwt beam="2">  1       -2 0.21002064E-01 0.78760766E+03</pdfrwt>
<totfact> 0.51053121E+02</totfact>
</mgrwt>
</event>
<event>
 4    1  0.5023236E-005  0.5788298E+03  0.7818608E-02  0.9950328E-01
         -2   -1    0    0    0  501 -0.00000000000E+00  0.00000000000E+00  0.20539840486E+03  0.20539840488E+03  0.25500000000E-02 0. -1.
          2   -1    0    0  501    0  0.00000000000E+00 -0.00000000000E+00 -0.40779758258E+03  0.40779758258E+03  0.25500000000E-02 0.  1.
    5000001    1    1    2    0    0 -0.17185452984E+03  0.11278861212E+03 -0.14743389141E+03  0.32185866896E+03  0.19900000000E+03 0.  0.
   -5000001    1    1    2    0    0  0.17185452984E+03 -0.11278861212E+03 -0.54965286308E+02  0.29133731850E+03  0.19900000000E+03 0.  0.
<mgrwt>
<rscale>  0 0.57882976E+03</rscale>
<asrwt>0</asrwt>
<pdfrwt beam="1">  1        2 0.58256797E-01 0.57882976E+03</pdfrwt>
<pdfrwt beam="2">  1       -2 0.29342629E-01 0.57882976E+03</pdfrwt>
<totfact> 0.90655513E+02</totfact>
</mgrwt>
</event>
<event>
 4    1  0.5023236E-005  0.9385292E+03  0.7818608E-02  0.9378660E-01
         -2   -1    0    0    0  501 -0.00000000000E+00  0.00000000000E+00  0.61338714799E+03  0.61338714800E+03  0.25500000000E-02 0. -1.
          2   -1    0    0  501    0  0.00000000000E+00 -0.00000000000E+00 -0.35900537777E+03  0.35900537778E+03  0.25500000000E-02 0.  1.
    5000001    1    1    2    0    0 -0.25178039723E+03 -0.32825101675E+03  0.22799571206E+03  0.51256720841E+03  0.19900000000E+03 0.  0.
   -5000001    1    1    2    0    0  0.25178039723E+03  0.32825101675E+03  0.26386058158E+02  0.45982531736E+03  0.19900000000E+03 0.  0.
<mgrwt>
<rscale>  0 0.93852924E+03</rscale>
<asrwt>0</asrwt>
<pdfrwt beam="1">  1        2 0.51286483E-01 0.93852924E+03</pdfrwt>
<pdfrwt beam="2">  1       -2 0.87626734E-01 0.93852924E+03</pdfrwt>
<totfact> 0.10994628E+02</totfact>
</mgrwt>
</event>
<event>
 4    1  0.5023236E-005  0.6257133E+03  0.7818608E-02  0.9853450E-01
         -2   -1    0    0    0  501 -0.00000000000E+00  0.00000000000E+00  0.12121018383E+03  0.12121018386E+03  0.25500000000E-02 0. -1.
          2   -1    0    0  501    0  0.00000000000E+00 -0.00000000000E+00 -0.80751705106E+03  0.80751705106E+03  0.25500000000E-02 0.  1.
    5000001    1    1    2    0    0  0.20723444162E+03 -0.11986383492E+03 -0.29704929964E+03  0.43029378236E+03  0.19900000000E+03 0.  0.
   -5000001    1    1    2    0    0 -0.20723444162E+03  0.11986383492E+03 -0.38925756758E+03  0.49843345257E+03  0.19900000000E+03 0.  0.
<mgrwt>
<rscale>  0 0.62571332E+03</rscale>
<asrwt>0</asrwt>
<pdfrwt beam="1">  1        2 0.11535958E+00 0.62571332E+03</pdfrwt>
<pdfrwt beam="2">  1       -2 0.17315741E-01 0.62571332E+03</pdfrwt>
<totfact> 0.10324996E+03</totfact>
</mgrwt>
</event>
<event>
 4    1  0.5023236E-005  0.5528532E+03  0.7818608E-02  0.1000836E+00
          2   -1    0    0  501    0  0.00000000000E+00  0.00000000000E+00  0.11958235413E+04  0.11958235413E+04  0.25500000000E-02 0.  1.
         -2   -1    0    0    0  501 -0.00000000000E+00 -0.00000000000E+00 -0.63898784853E+02  0.63898784904E+02  0.25500000000E-02 0. -1.
    5000001    1    1    2    0    0 -0.16397540901E+03  0.74707307279E+02  0.41582541745E+03  0.49495544680E+03  0.19900000000E+03 0.  0.
   -5000001    1    1    2    0    0  0.16397540901E+03 -0.74707307279E+02  0.71609933896E+03  0.76476687936E+03  0.19900000000E+03 0.  0.
<mgrwt>
<rscale>  0 0.55285322E+03</rscale>
<asrwt>0</asrwt>
<pdfrwt beam="1">  1        2 0.17083192E+00 0.55285322E+03</pdfrwt>
<pdfrwt beam="2">  1       -2 0.91283985E-02 0.55285322E+03</pdfrwt>
<totfact> 0.17231493E+03</totfact>
</mgrwt>
</event>
<event>
 4    1  0.5023236E-005  0.5393705E+03  0.7818608E-02  0.1003985E+00
         -2   -1    0    0    0  501 -0.00000000000E+00  0.00000000000E+00  0.39529731659E+02  0.39529731741E+02  0.25500000000E-02 0. -1.
          2   -1    0    0  501    0  0.00000000000E+00 -0.00000000000E+00 -0.18398842369E+04  0.18398842369E+04  0.25500000000E-02 0.  1.
    5000001    1    1    2    0    0 -0.14113512504E+03  0.55550169531E+02 -0.54957450380E+03  0.60385269734E+03  0.19900000000E+03 0.  0.
   -5000001    1    1    2    0    0  0.14113512504E+03 -0.55550169531E+02 -0.12507800015E+04  0.12755612713E+04  0.19900000000E+03 0.  0.
<mgrwt>
<rscale>  0 0.53937049E+03</rscale>
<asrwt>0</asrwt>
<pdfrwt beam="1">  1        2 0.26284055E+00 0.53937049E+03</pdfrwt>
<pdfrwt beam="2">  1       -2 0.56471057E-02 0.53937049E+03</pdfrwt>
<totfact> 0.16972685E+03</totfact>
</mgrwt>
</event>
<event>
 4    1  0.5023236E-005  0.4725856E+03  0.7818608E-02  0.1021193E+00
         -2   -1    0    0    0  501 -0.00000000000E+00  0.00000000000E+00  0.18514646697E+03  0.18514646698E+03  0.25500000000E-02 0. -1.
          2   -1    0    0  501    0  0.00000000000E+00 -0.00000000000E+00 -0.30156815218E+03  0.30156815219E+03  0.25500000000E-02 0.  1.
    5000001    1    1    2    0    0 -0.44012372465E+02  0.93267452279E+02  0.18841527772E+02  0.22492645410E+03  0.19900000000E+03 0.  0.
   -5000001    1    1    2    0    0  0.44012372465E+02 -0.93267452279E+02 -0.13526321298E+03  0.26178816507E+03  0.19900000000E+03 0.  0.
<mgrwt>
<rscale>  0 0.47258556E+03</rscale>
<asrwt>0</asrwt>
<pdfrwt beam="1">  1        2 0.43081164E-01 0.47258556E+03</pdfrwt>
<pdfrwt beam="2">  1       -2 0.26449495E-01 0.47258556E+03</pdfrwt>
<totfact> 0.15270340E+03</totfact>
</mgrwt>
</event>
<event>
 4    1  0.5023236E-005  0.8888861E+03  0.7818608E-02  0.9439582E-01
          2   -1    0    0  501    0  0.00000000000E+00  0.00000000000E+00  0.19955806946E+04  0.19955806946E+04  0.25500000000E-02 0.  1.
         -2   -1    0    0    0  501 -0.00000000000E+00 -0.00000000000E+00 -0.98983531720E+02  0.98983531753E+02  0.25500000000E-02 0. -1.
    5000001    1    1    2    0    0 -0.32379783177E+03  0.16487037586E+03  0.13275338790E+04  0.13906741087E+04  0.19900000000E+03 0.  0.
   -5000001    1    1    2    0    0  0.32379783177E+03 -0.16487037586E+03  0.56906328392E+03  0.70389011770E+03  0.19900000000E+03 0.  0.
<mgrwt>
<rscale>  0 0.88888610E+03</rscale>
<asrwt>0</asrwt>
<pdfrwt beam="1">  1        2 0.28508298E+00 0.88888610E+03</pdfrwt>
<pdfrwt beam="2">  1       -2 0.14140503E-01 0.88888610E+03</pdfrwt>
<totfact> 0.31531138E+02</totfact>
</mgrwt>
</event>
<event>
 4    1  0.5023236E-005  0.6423828E+03  0.7818608E-02  0.9821178E-01
         -2   -1    0    0    0  501 -0.00000000000E+00  0.00000000000E+00  0.17581429302E+03  0.17581429304E+03  0.25500000000E-02 0. -1.
          2   -1    0    0  501    0  0.00000000000E+00 -0.00000000000E+00 -0.58677768903E+03  0.58677768903E+03  0.25500000000E-02 0.  1.
    5000001    1    1    2    0    0  0.13062846732E+03 -0.20363501075E+03 -0.12127164435E+03  0.33591490857E+03  0.19900000000E+03 0.  0.
   -5000001    1    1    2    0    0 -0.13062846732E+03  0.20363501075E+03 -0.28969175165E+03  0.42667707350E+03  0.19900000000E+03 0.  0.
<mgrwt>
<rscale>  0 0.64238277E+03</rscale>
<asrwt>0</asrwt>
<pdfrwt beam="1">  1        2 0.83825383E-01 0.64238277E+03</pdfrwt>
<pdfrwt beam="2">  1       -2 0.25116328E-01 0.64238277E+03</pdfrwt>
<totfact> 0.79447853E+02</totfact>
</mgrwt>
</event>
<event>
 4    1  0.5023236E-005  0.1030829E+04  0.7818608E-02  0.9275364E-01
          2   -1    0    0  501    0  0.00000000000E+00  0.00000000000E+00  0.37878455315E+03  0.37878455316E+03  0.25500000000E-02 0.  1.
         -2   -1    0    0    0  501 -0.00000000000E+00 -0.00000000000E+00 -0.70132763419E+03  0.70132763419E+03  0.25500000000E-02 0. -1.
    5000001    1    1    2    0    0 -0.16641457155E+03  0.44519177101E+03 -0.17458952005E+03  0.54403310847E+03  0.19900000000E+03 0.  0.
   -5000001    1    1    2    0    0  0.16641457155E+03 -0.44519177101E+03 -0.14795356098E+03  0.53607907888E+03  0.19900000000E+03 0.  0.
<mgrwt>
<rscale>  0 0.10308289E+04</rscale>
<asrwt>0</asrwt>
<pdfrwt beam="1">  1        2 0.54112080E-01 0.10308289E+04</pdfrwt>
<pdfrwt beam="2">  1       -2 0.10018966E+00 0.10308289E+04</pdfrwt>
<totfact> 0.75406236E+01</totfact>
</mgrwt>
</event>
<event>
 4    1  0.5023236E-005  0.5068563E+03  0.7818608E-02  0.1012005E+00
          2   -1    0    0  501    0  0.00000000000E+00  0.00000000000E+00  0.19624947089E+03  0.19624947091E+03  0.25500000000E-02 0.  1.
         -2   -1    0    0    0  501 -0.00000000000E+00 -0.00000000000E+00 -0.32726619462E+03  0.32726619463E+03  0.25500000000E-02 0. -1.
    5000001    1    1    2    0    0 -0.72744225099E+02 -0.13751914923E+03 -0.86715607816E+02  0.26706522673E+03  0.19900000000E+03 0.  0.
   -5000001    1    1    2    0    0  0.72744225099E+02  0.13751914923E+03 -0.44301115912E+02  0.25645043880E+03  0.19900000000E+03 0.  0.
<mgrwt>
<rscale>  0 0.50685626E+03</rscale>
<asrwt>0</asrwt>
<pdfrwt beam="1">  1        2 0.28035639E-01 0.50685626E+03</pdfrwt>
<pdfrwt beam="2">  1       -2 0.46752313E-01 0.50685626E+03</pdfrwt>
<totfact> 0.83670637E+02</totfact>
</mgrwt>
</event>
<event>
 4    1  0.5023236E-005  0.7481939E+03  0.7818608E-02  0.9638188E-01
          2   -1    0    0  501    0  0.00000000000E+00  0.00000000000E+00  0.54552332002E+03  0.54552332002E+03  0.25500000000E-02 0.  1.
         -2   -1    0    0    0  501 -0.00000000000E+00 -0.00000000000E+00 -0.25653994571E+03  0.25653994572E+03  0.25500000000E-02 0. -1.
    5000001    1    1    2    0    0  0.12730899337E+02 -0.18471809776E+03 -0.13104479595E+03  0.30175584499E+03  0.19900000000E+03 0.  0.
   -5000001    1    1    2    0    0 -0.12730899337E+02  0.18471809776E+03  0.42002817027E+03  0.50030742075E+03  0.19900000000E+03 0.  0.
<mgrwt>
<rscale>  0 0.74819389E+03</rscale>
<asrwt>0</asrwt>
<pdfrwt beam="1">  1        2 0.77931903E-01 0.74819389E+03</pdfrwt>
<pdfrwt beam="2">  1       -2 0.36648564E-01 0.74819389E+03</pdfrwt>
<totfact> 0.42784598E+02</totfact>
</mgrwt>
</event>
<event>
 4    1  0.5023236E-005  0.1924999E+04  0.7818608E-02  0.8642512E-01
         -2   -1    0    0    0  501 -0.00000000000E+00  0.00000000000E+00  0.20447768825E+03  0.20447768827E+03  0.25500000000E-02 0. -1.
          2   -1    0    0  501    0  0.00000000000E+00 -0.00000000000E+00 -0.45305934963E+04  0.45305934963E+04  0.25500000000E-02 0.  1.
    5000001    1    1    2    0    0 -0.54236004676E+03  0.57575843823E+03 -0.34200795421E+04  0.35159916487E+04  0.19900000000E+03 0.  0.
   -5000001    1    1    2    0    0  0.54236004676E+03 -0.57575843823E+03 -0.90603626592E+03  0.12190795358E+04  0.19900000000E+03 0.  0.
<mgrwt>
<rscale>  0 0.19249990E+04</rscale>
<asrwt>0</asrwt>
<pdfrwt beam="1">  1        2 0.64722758E+00 0.19249990E+04</pdfrwt>
<pdfrwt beam="2">  1       -2 0.29211101E-01 0.19249990E+04</pdfrwt>
<totfact> 0.23489199E+00</totfact>
</mgrwt>
</event>
<event>
 4    1  0.5023236E-005  0.5997593E+03  0.7818608E-02  0.9905906E-01
          2   -1    0    0  501    0  0.00000000000E+00  0.00000000000E+00  0.19257710604E+04  0.19257710604E+04  0.25500000000E-02 0. -1.
         -2   -1    0    0    0  501 -0.00000000000E+00 -0.00000000000E+00 -0.46697032989E+02  0.46697033058E+02  0.25500000000E-02 0.  1.
    5000001    1    1    2    0    0  0.56649393401E+02  0.20789998844E+03  0.73427910582E+03  0.79069486163E+03  0.19900000000E+03 0.  0.
   -5000001    1    1    2    0    0 -0.56649393401E+02 -0.20789998844E+03  0.11447949216E+04  0.11817732319E+04  0.19900000000E+03 0.  0.
<mgrwt>
<rscale>  0 0.59975927E+03</rscale>
<asrwt>0</asrwt>
<pdfrwt beam="1">  1        2 0.27511018E+00 0.59975927E+03</pdfrwt>
<pdfrwt beam="2">  1       -2 0.66710040E-02 0.59975927E+03</pdfrwt>
<totfact> 0.11804415E+03</totfact>
</mgrwt>
</event>
<event>
 4    1  0.5023236E-005  0.4191821E+03  0.7818608E-02  0.1037333E+00
          2   -1    0    0  501    0  0.00000000000E+00  0.00000000000E+00  0.10847500121E+03  0.10847500124E+03  0.25500000000E-02 0.  1.
         -2   -1    0    0    0  501 -0.00000000000E+00 -0.00000000000E+00 -0.40496338999E+03  0.40496339000E+03  0.25500000000E-02 0. -1.
    5000001    1    1    2    0    0 -0.52359213668E+02 -0.34920589370E+02 -0.12479626510E+03  0.24317903405E+03  0.19900000000E+03 0.  0.
   -5000001    1    1    2    0    0  0.52359213668E+02  0.34920589370E+02 -0.17169212368E+03  0.27025935719E+03  0.19900000000E+03 0.  0.
<mgrwt>
<rscale>  0 0.41918208E+03</rscale>
<asrwt>0</asrwt>
<pdfrwt beam="1">  1        2 0.15496429E-01 0.41918208E+03</pdfrwt>
<pdfrwt beam="2">  1       -2 0.57851912E-01 0.41918208E+03</pdfrwt>
<totfact> 0.10779378E+03</totfact>
</mgrwt>
</event>
<event>
 4    1  0.5023236E-005  0.7701809E+03  0.7818608E-02  0.9604211E-01
          2   -1    0    0  501    0  0.00000000000E+00  0.00000000000E+00  0.56261614343E+03  0.56261614344E+03  0.25500000000E-02 0.  1.
         -2   -1    0    0    0  501 -0.00000000000E+00 -0.00000000000E+00 -0.26358051628E+03  0.26358051629E+03  0.25500000000E-02 0. -1.
    5000001    1    1    2    0    0  0.20887232041E+03 -0.13391300333E+03 -0.83374247596E+02  0.32880481118E+03  0.19900000000E+03 0.  0.
   -5000001    1    1    2    0    0 -0.20887232041E+03  0.13391300333E+03  0.38240987475E+03  0.49739184855E+03  0.19900000000E+03 0.  0.
<mgrwt>
<rscale>  0 0.77018090E+03</rscale>
<asrwt>0</asrwt>
<pdfrwt beam="1">  1        2 0.80373734E-01 0.77018090E+03</pdfrwt>
<pdfrwt beam="2">  1       -2 0.37654360E-01 0.77018090E+03</pdfrwt>
<totfact> 0.39152510E+02</totfact>
</mgrwt>
</event>
<event>
 4    1  0.5023236E-005  0.5711438E+03  0.7818608E-02  0.9967151E-01
         -2   -1    0    0    0  501 -0.00000000000E+00  0.00000000000E+00  0.30273368124E+03  0.30273368125E+03  0.25500000000E-02 0. -1.
          2   -1    0    0  501    0  0.00000000000E+00 -0.00000000000E+00 -0.26938303487E+03  0.26938303488E+03  0.25500000000E-02 0.  1.
    5000001    1    1    2    0    0  0.94239078200E+02  0.12298700059E+03 -0.11750624717E+03  0.27823645394E+03  0.19900000000E+03 0.  0.
   -5000001    1    1    2    0    0 -0.94239078200E+02 -0.12298700059E+03  0.15085689354E+03  0.29388026219E+03  0.19900000000E+03 0.  0.
<mgrwt>
<rscale>  0 0.57114383E+03</rscale>
<asrwt>0</asrwt>
<pdfrwt beam="1">  1        2 0.38483291E-01 0.57114383E+03</pdfrwt>
<pdfrwt beam="2">  1       -2 0.43247669E-01 0.57114383E+03</pdfrwt>
<totfact> 0.68568699E+02</totfact>
</mgrwt>
</event>
<event>
 4    1  0.5023236E-005  0.6702357E+03  0.7818608E-02  0.9769532E-01
         -2   -1    0    0    0  501 -0.00000000000E+00  0.00000000000E+00  0.23652176291E+02  0.23652176429E+02  0.25500000000E-02 0. -1.
          2   -1    0    0  501    0  0.00000000000E+00 -0.00000000000E+00 -0.47481452417E+04  0.47481452417E+04  0.25500000000E-02 0.  1.
    5000001    1    1    2    0    0 -0.13026430859E+03 -0.23040101979E+03 -0.27287181946E+04  0.27487374203E+04  0.19900000000E+03 0.  0.
   -5000001    1    1    2    0    0  0.13026430859E+03  0.23040101979E+03 -0.19957748707E+04  0.20230599978E+04  0.19900000000E+03 0.  0.
<mgrwt>
<rscale>  0 0.67023569E+03</rscale>
<asrwt>0</asrwt>
<pdfrwt beam="1">  1        2 0.67830585E+00 0.67023569E+03</pdfrwt>
<pdfrwt beam="2">  1       -2 0.33788854E-02 0.67023569E+03</pdfrwt>
<totfact> 0.65012422E+01</totfact>
</mgrwt>
</event>
<event>
 4    1  0.5023236E-005  0.8408590E+03  0.7818608E-02  0.9502688E-01
          2   -1    0    0  501    0  0.00000000000E+00  0.00000000000E+00  0.88159962147E+03  0.88159962148E+03  0.25500000000E-02 0.  1.
         -2   -1    0    0    0  501 -0.00000000000E+00 -0.00000000000E+00 -0.20050027273E+03  0.20050027275E+03  0.25500000000E-02 0. -1.
    5000001    1    1    2    0    0 -0.23940579395E+03  0.28735392000E+02  0.70230108887E+03  0.76874487079E+03  0.19900000000E+03 0.  0.
   -5000001    1    1    2    0    0  0.23940579395E+03 -0.28735392000E+02 -0.21201740131E+02  0.31335502344E+03  0.19900000000E+03 0.  0.
<mgrwt>
<rscale>  0 0.84085900E+03</rscale>
<asrwt>0</asrwt>
<pdfrwt beam="1">  1        2 0.12594280E+00 0.84085900E+03</pdfrwt>
<pdfrwt beam="2">  1       -2 0.28642896E-01 0.84085900E+03</pdfrwt>
<totfact> 0.37419220E+02</totfact>
</mgrwt>
</event>
<event>
 4    1  0.5023236E-005  0.5966587E+03  0.7818608E-02  0.9912363E-01
          2   -1    0    0  501    0  0.00000000000E+00  0.00000000000E+00  0.32301152755E+03  0.32301152756E+03  0.25500000000E-02 0.  1.
         -2   -1    0    0    0  501 -0.00000000000E+00 -0.00000000000E+00 -0.27553321633E+03  0.27553321634E+03  0.25500000000E-02 0. -1.
    5000001    1    1    2    0    0  0.14173003729E+03  0.16230298044E+03  0.78406773911E+02  0.30360876655E+03  0.19900000000E+03 0.  0.
   -5000001    1    1    2    0    0 -0.14173003729E+03 -0.16230298044E+03 -0.30928462690E+02  0.29493597735E+03  0.19900000000E+03 0.  0.
<mgrwt>
<rscale>  0 0.59665871E+03</rscale>
<asrwt>0</asrwt>
<pdfrwt beam="1">  1        2 0.46144504E-01 0.59665871E+03</pdfrwt>
<pdfrwt beam="2">  1       -2 0.39361888E-01 0.59665871E+03</pdfrwt>
<totfact> 0.67416274E+02</totfact>
</mgrwt>
</event>
<event>
 4    1  0.5023236E-005  0.5155613E+03  0.7818608E-02  0.1009795E+00
          2   -1    0    0  501    0  0.00000000000E+00  0.00000000000E+00  0.13936928642E+04  0.13936928642E+04  0.25500000000E-02 0.  1.
         -2   -1    0    0    0  501 -0.00000000000E+00 -0.00000000000E+00 -0.47679707206E+02  0.47679707274E+02  0.25500000000E-02 0. -1.
    5000001    1    1    2    0    0 -0.48935787289E+02 -0.59154523239E+02  0.26829178791E+03  0.34274692173E+03  0.19900000000E+03 0.  0.
   -5000001    1    1    2    0    0  0.48935787289E+02  0.59154523239E+02  0.10777213691E+04  0.10986256498E+04  0.19900000000E+03 0.  0.
<mgrwt>
<rscale>  0 0.51556132E+03</rscale>
<asrwt>0</asrwt>
<pdfrwt beam="1">  1        2 0.19909900E+00 0.51556132E+03</pdfrwt>
<pdfrwt beam="2">  1       -2 0.68113862E-02 0.51556132E+03</pdfrwt>
<totfact> 0.21439262E+03</totfact>
</mgrwt>
</event>
<event>
 4    1  0.5023236E-005  0.1169565E+04  0.7818608E-02  0.9139921E-01
          2   -1    0    0  501    0  0.00000000000E+00  0.00000000000E+00  0.33015059316E+04  0.33015059316E+04  0.25500000000E-02 0.  1.
         -2   -1    0    0    0  501 -0.00000000000E+00 -0.00000000000E+00 -0.10358024477E+03  0.10358024480E+03  0.25500000000E-02 0. -1.
    5000001    1    1    2    0    0 -0.32439298967E+03  0.43527302281E+03  0.13438797142E+04  0.14629788455E+04  0.19900000000E+03 0.  0.
   -5000001    1    1    2    0    0  0.32439298967E+03 -0.43527302281E+03  0.18540459726E+04  0.19421073308E+04  0.19900000000E+03 0.  0.
<mgrwt>
<rscale>  0 0.11695654E+04</rscale>
<asrwt>0</asrwt>
<pdfrwt beam="1">  1        2 0.47164362E+00 0.11695654E+04</pdfrwt>
<pdfrwt beam="2">  1       -2 0.14797181E-01 0.11695654E+04</pdfrwt>
<totfact> 0.57266221E+01</totfact>
</mgrwt>
</event>
<event>
 4    1  0.5023236E-005  0.5237086E+03  0.7818608E-02  0.1007769E+00
          2   -1    0    0  501    0  0.00000000000E+00  0.00000000000E+00  0.18240118622E+03  0.18240118624E+03  0.25500000000E-02 0.  1.
         -2   -1    0    0    0  501 -0.00000000000E+00 -0.00000000000E+00 -0.37591678403E+03  0.37591678403E+03  0.25500000000E-02 0. -1.
    5000001    1    1    2    0    0  0.16823007710E+03  0.23972135039E+02 -0.10690776091E+03  0.28267700904E+03  0.19900000000E+03 0.  0.
   -5000001    1    1    2    0    0 -0.16823007710E+03 -0.23972135039E+02 -0.86607836898E+02  0.27564096123E+03  0.19900000000E+03 0.  0.
<mgrwt>
<rscale>  0 0.52370857E+03</rscale>
<asrwt>0</asrwt>
<pdfrwt beam="1">  1        2 0.26057313E-01 0.52370857E+03</pdfrwt>
<pdfrwt beam="2">  1       -2 0.53702397E-01 0.52370857E+03</pdfrwt>
<totfact> 0.68670826E+02</totfact>
</mgrwt>
</event>
<event>
 4    1  0.5023236E-005  0.4900041E+03  0.7818608E-02  0.1016421E+00
         -2   -1    0    0    0  501 -0.00000000000E+00  0.00000000000E+00  0.92787256956E+02  0.92787256991E+02  0.25500000000E-02 0. -1.
          2   -1    0    0  501    0  0.00000000000E+00 -0.00000000000E+00 -0.64692084757E+03  0.64692084757E+03  0.25500000000E-02 0.  1.
    5000001    1    1    2    0    0 -0.12888565456E+03  0.41243707061E+02 -0.34645001275E+03  0.42183073224E+03  0.19900000000E+03 0.  0.
   -5000001    1    1    2    0    0  0.12888565456E+03 -0.41243707061E+02 -0.20768357786E+03  0.31787737233E+03  0.19900000000E+03 0.  0.
<mgrwt>
<rscale>  0 0.49000413E+03</rscale>
<asrwt>0</asrwt>
<pdfrwt beam="1">  1        2 0.92417262E-01 0.49000413E+03</pdfrwt>
<pdfrwt beam="2">  1       -2 0.13255323E-01 0.49000413E+03</pdfrwt>
<totfact> 0.21299380E+03</totfact>
</mgrwt>
</event>
<event>
 4    1  0.5023236E-005  0.6186622E+03  0.7818608E-02  0.9867427E-01
         -2   -1    0    0    0  501 -0.00000000000E+00  0.00000000000E+00  0.70541590438E+02  0.70541590484E+02  0.25500000000E-02 0. -1.
          2   -1    0    0  501    0  0.00000000000E+00 -0.00000000000E+00 -0.13564442202E+04  0.13564442202E+04  0.25500000000E-02 0.  1.
    5000001    1    1    2    0    0 -0.81616493999E+02 -0.10741110063E+03 -0.10919110253E+04  0.11180648835E+04  0.19900000000E+03 0.  0.
   -5000001    1    1    2    0    0  0.81616493999E+02  0.10741110063E+03 -0.19399160448E+03  0.30892092717E+03  0.19900000000E+03 0.  0.
<mgrwt>
<rscale>  0 0.61866221E+03</rscale>
<asrwt>0</asrwt>
<pdfrwt beam="1">  1        2 0.19377773E+00 0.61866221E+03</pdfrwt>
<pdfrwt beam="2">  1       -2 0.10077371E-01 0.61866221E+03</pdfrwt>
<totfact> 0.11975368E+03</totfact>
</mgrwt>
</event>
<event>
 4    1  0.5023236E-005  0.1844076E+04  0.7818608E-02  0.8683205E-01
          2   -1    0    0  501    0  0.00000000000E+00  0.00000000000E+00  0.89723999291E+03  0.89723999292E+03  0.25500000000E-02 0.  1.
         -2   -1    0    0    0  501 -0.00000000000E+00 -0.00000000000E+00 -0.94752142898E+03  0.94752142898E+03  0.25500000000E-02 0. -1.
    5000001    1    1    2    0    0 -0.25302134524E+03  0.40571244792E+03  0.73798664420E+03  0.90158065560E+03  0.19900000000E+03 0.  0.
   -5000001    1    1    2    0    0  0.25302134524E+03 -0.40571244792E+03 -0.78826808027E+03  0.94318076629E+03  0.19900000000E+03 0.  0.
<mgrwt>
<rscale>  0 0.18440761E+04</rscale>
<asrwt>0</asrwt>
<pdfrwt beam="1">  1        2 0.12817714E+00 0.18440761E+04</pdfrwt>
<pdfrwt beam="2">  1       -2 0.13536020E+00 0.18440761E+04</pdfrwt>
<totfact> 0.12074895E+01</totfact>
</mgrwt>
</event>
<event>
 4    1  0.5023236E-005  0.4300426E+03  0.7818608E-02  0.1033847E+00
          2   -1    0    0  501    0  0.00000000000E+00  0.00000000000E+00  0.70868305067E+03  0.70868305068E+03  0.25500000000E-02 0. -1.
         -2   -1    0    0    0  501 -0.00000000000E+00 -0.00000000000E+00 -0.65239534314E+02  0.65239534364E+02  0.25500000000E-02 0.  1.
    5000001    1    1    2    0    0 -0.40851926266E+02  0.67296255388E+02  0.28416627521E+03  0.35573745633E+03  0.19900000000E+03 0.  0.
   -5000001    1    1    2    0    0  0.40851926266E+02 -0.67296255388E+02  0.35927724114E+03  0.41818512871E+03  0.19900000000E+03 0.  0.
<mgrwt>
<rscale>  0 0.43004257E+03</rscale>
<asrwt>0</asrwt>
<pdfrwt beam="1">  1        2 0.10124044E+00 0.43004257E+03</pdfrwt>
<pdfrwt beam="2">  1       -2 0.93199334E-02 0.43004257E+03</pdfrwt>
<totfact> 0.33807234E+03</totfact>
</mgrwt>
</event>
<event>
 4    1  0.5023236E-005  0.5982786E+03  0.7818608E-02  0.9908984E-01
          2   -1    0    0  501    0  0.00000000000E+00  0.00000000000E+00  0.86138902365E+03  0.86138902365E+03  0.25500000000E-02 0.  1.
         -2   -1    0    0    0  501 -0.00000000000E+00 -0.00000000000E+00 -0.10388373525E+03  0.10388373528E+03  0.25500000000E-02 0. -1.
    5000001    1    1    2    0    0 -0.80888485570E+02 -0.19487263082E+03  0.49692945895E+03  0.57537655193E+03  0.19900000000E+03 0.  0.
   -5000001    1    1    2    0    0  0.80888485570E+02  0.19487263082E+03  0.26057582945E+03  0.38989620700E+03  0.19900000000E+03 0.  0.
<mgrwt>
<rscale>  0 0.59827856E+03</rscale>
<asrwt>0</asrwt>
<pdfrwt beam="1">  1        2 0.12305558E+00 0.59827856E+03</pdfrwt>
<pdfrwt beam="2">  1       -2 0.14840533E-01 0.59827856E+03</pdfrwt>
<totfact> 0.12340701E+03</totfact>
</mgrwt>
</event>
<event>
 4    1  0.5023236E-005  0.1342558E+04  0.7818608E-02  0.8996481E-01
         -2   -1    0    0    0  501 -0.00000000000E+00  0.00000000000E+00  0.15128875327E+03  0.15128875329E+03  0.25500000000E-02 0. -1.
          2   -1    0    0  501    0  0.00000000000E+00 -0.00000000000E+00 -0.29785132175E+04  0.29785132175E+04  0.25500000000E-02 0.  1.
    5000001    1    1    2    0    0 -0.26858603142E+03  0.54028313174E+03 -0.19188492133E+04  0.20212935517E+04  0.19900000000E+03 0.  0.
   -5000001    1    1    2    0    0  0.26858603142E+03 -0.54028313174E+03 -0.90837525093E+03  0.11085084191E+04  0.19900000000E+03 0.  0.
<mgrwt>
<rscale>  0 0.13425581E+04</rscale>
<asrwt>0</asrwt>
<pdfrwt beam="1">  1        2 0.42550185E+00 0.13425581E+04</pdfrwt>
<pdfrwt beam="2">  1       -2 0.21612681E-01 0.13425581E+04</pdfrwt>
<totfact> 0.44526344E+01</totfact>
</mgrwt>
</event>
<event>
 4    1  0.5023236E-005  0.7114458E+03  0.7818608E-02  0.9697856E-01
         -2   -1    0    0    0  501 -0.00000000000E+00  0.00000000000E+00  0.38975934731E+03  0.38975934732E+03  0.25500000000E-02 0.  1.
          2   -1    0    0  501    0  0.00000000000E+00 -0.00000000000E+00 -0.32465878532E+03  0.32465878533E+03  0.25500000000E-02 0. -1.
    5000001    1    1    2    0    0  0.24851812386E+03  0.15433724983E+03 -0.44349894426E+01  0.35383882447E+03  0.19900000000E+03 0.  0.
   -5000001    1    1    2    0    0 -0.24851812386E+03 -0.15433724983E+03  0.69535551435E+02  0.36057930818E+03  0.19900000000E+03 0.  0.
<mgrwt>
<rscale>  0 0.71144584E+03</rscale>
<asrwt>0</asrwt>
<pdfrwt beam="1">  1        2 0.46379826E-01 0.71144584E+03</pdfrwt>
<pdfrwt beam="2">  1       -2 0.55679907E-01 0.71144584E+03</pdfrwt>
<totfact> 0.33375814E+02</totfact>
</mgrwt>
</event>
<event>
 4    1  0.5023236E-005  0.8955537E+03  0.7818608E-02  0.9431157E-01
         -2   -1    0    0    0  501 -0.00000000000E+00  0.00000000000E+00  0.28505704963E+03  0.28505704964E+03  0.25500000000E-02 0. -1.
          2   -1    0    0  501    0  0.00000000000E+00 -0.00000000000E+00 -0.70338237674E+03  0.70338237674E+03  0.25500000000E-02 0.  1.
    5000001    1    1    2    0    0 -0.35859645756E+03  0.17972372496E+03 -0.21283464729E+03  0.49577376269E+03  0.19900000000E+03 0.  0.
   -5000001    1    1    2    0    0  0.35859645756E+03 -0.17972372496E+03 -0.20549067982E+03  0.49266566369E+03  0.19900000000E+03 0.  0.
<mgrwt>
<rscale>  0 0.89555369E+03</rscale>
<asrwt>0</asrwt>
<pdfrwt beam="1">  1        2 0.10048320E+00 0.89555369E+03</pdfrwt>
<pdfrwt beam="2">  1       -2 0.40722436E-01 0.89555369E+03</pdfrwt>
<totfact> 0.25589083E+02</totfact>
</mgrwt>
</event>
<event>
 4    1  0.5023236E-005  0.1160957E+04  0.7818608E-02  0.9147734E-01
          2   -1    0    0  501    0  0.00000000000E+00  0.00000000000E+00  0.23056955891E+04  0.23056955891E+04  0.25500000000E-02 0. -1.
         -2   -1    0    0    0  501 -0.00000000000E+00 -0.00000000000E+00 -0.14614043611E+03  0.14614043613E+03  0.25500000000E-02 0.  1.
    5000001    1    1    2    0    0 -0.45749204172E+03  0.29111374737E+03  0.95830741755E+03  0.11189281875E+04  0.19900000000E+03 0.  0.
   -5000001    1    1    2    0    0  0.45749204172E+03 -0.29111374737E+03  0.12012477355E+04  0.13329078378E+04  0.19900000000E+03 0.  0.
<mgrwt>
<rscale>  0 0.11609571E+04</rscale>
<asrwt>0</asrwt>
<pdfrwt beam="1">  1        2 0.32938507E+00 0.11609571E+04</pdfrwt>
<pdfrwt beam="2">  1       -2 0.20877206E-01 0.11609571E+04</pdfrwt>
<totfact> 0.10959773E+02</totfact>
</mgrwt>
</event>
<event>
 4    1  0.5023236E-005  0.4372072E+03  0.7818608E-02  0.1031607E+00
         -2   -1    0    0    0  501 -0.00000000000E+00  0.00000000000E+00  0.21318694846E+03  0.21318694847E+03  0.25500000000E-02 0. -1.
          2   -1    0    0  501    0  0.00000000000E+00 -0.00000000000E+00 -0.22415792304E+03  0.22415792306E+03  0.25500000000E-02 0.  1.
    5000001    1    1    2    0    0  0.49493188508E+02 -0.65568364084E+02  0.32444221811E+02  0.21772095353E+03  0.19900000000E+03 0.  0.
   -5000001    1    1    2    0    0 -0.49493188508E+02  0.65568364084E+02 -0.43415196397E+02  0.21962391800E+03  0.19900000000E+03 0.  0.
<mgrwt>
<rscale>  0 0.43720724E+03</rscale>
<asrwt>0</asrwt>
<pdfrwt beam="1">  1        2 0.32022560E-01 0.43720724E+03</pdfrwt>
<pdfrwt beam="2">  1       -2 0.30455278E-01 0.43720724E+03</pdfrwt>
<totfact> 0.16365138E+03</totfact>
</mgrwt>
</event>
<event>
 4    1  0.5023236E-005  0.5776509E+03  0.7818608E-02  0.9952890E-01
          2   -1    0    0  501    0  0.00000000000E+00  0.00000000000E+00  0.22746604189E+03  0.22746604190E+03  0.25500000000E-02 0.  1.
         -2   -1    0    0    0  501 -0.00000000000E+00 -0.00000000000E+00 -0.36673665262E+03  0.36673665263E+03  0.25500000000E-02 0. -1.
    5000001    1    1    2    0    0 -0.85669056822E+02  0.59935109888E+02  0.11691077464E+03  0.25337824279E+03  0.19900000000E+03 0.  0.
   -5000001    1    1    2    0    0  0.85669056822E+02 -0.59935109888E+02 -0.25618138537E+03  0.34082445174E+03  0.19900000000E+03 0.  0.
<mgrwt>
<rscale>  0 0.57765088E+03</rscale>
<asrwt>0</asrwt>
<pdfrwt beam="1">  1        2 0.32495149E-01 0.57765088E+03</pdfrwt>
<pdfrwt beam="2">  1       -2 0.52390951E-01 0.57765088E+03</pdfrwt>
<totfact> 0.56322369E+02</totfact>
</mgrwt>
</event>
<event>
 4    1  0.5023236E-005  0.4714106E+03  0.7818608E-02  0.1021523E+00
          2   -1    0    0  501    0  0.00000000000E+00  0.00000000000E+00  0.56286655133E+03  0.56286655134E+03  0.25500000000E-02 0.  1.
         -2   -1    0    0    0  501 -0.00000000000E+00 -0.00000000000E+00 -0.98703650485E+02  0.98703650518E+02  0.25500000000E-02 0. -1.
    5000001    1    1    2    0    0  0.16757978413E+01  0.75566566991E+02  0.90049051785E+02  0.23113404352E+03  0.19900000000E+03 0.  0.
   -5000001    1    1    2    0    0 -0.16757978413E+01 -0.75566566991E+02  0.37411384906E+03  0.43043615834E+03  0.19900000000E+03 0.  0.
<mgrwt>
<rscale>  0 0.47141058E+03</rscale>
<asrwt>0</asrwt>
<pdfrwt beam="1">  1        2 0.80409511E-01 0.47141058E+03</pdfrwt>
<pdfrwt beam="2">  1       -2 0.14100521E-01 0.47141058E+03</pdfrwt>
<totfact> 0.22615323E+03</totfact>
</mgrwt>
</event>
<event>
 4    1  0.5023236E-005  0.4931466E+03  0.7818608E-02  0.1015583E+00
          2   -1    0    0  501    0  0.00000000000E+00  0.00000000000E+00  0.53266880368E+03  0.53266880369E+03  0.25500000000E-02 0.  1.
         -2   -1    0    0    0  501 -0.00000000000E+00 -0.00000000000E+00 -0.11413920707E+03  0.11413920710E+03  0.25500000000E-02 0. -1.
    5000001    1    1    2    0    0 -0.92993874194E+02  0.11195318052E+03  0.21451439063E+03  0.32680085534E+03  0.19900000000E+03 0.  0.
   -5000001    1    1    2    0    0  0.92993874194E+02 -0.11195318052E+03  0.20401520599E+03  0.32000715545E+03  0.19900000000E+03 0.  0.
<mgrwt>
<rscale>  0 0.49314661E+03</rscale>
<asrwt>0</asrwt>
<pdfrwt beam="1">  1        2 0.76095544E-01 0.49314661E+03</pdfrwt>
<pdfrwt beam="2">  1       -2 0.16305601E-01 0.49314661E+03</pdfrwt>
<totfact> 0.18886916E+03</totfact>
</mgrwt>
</event>
<event>
 4    1  0.5023236E-005  0.6733615E+03  0.7818608E-02  0.9763904E-01
          2   -1    0    0  501    0  0.00000000000E+00  0.00000000000E+00  0.77920487848E+03  0.77920487848E+03  0.25500000000E-02 0.  1.
         -2   -1    0    0    0  501 -0.00000000000E+00 -0.00000000000E+00 -0.14547384641E+03  0.14547384643E+03  0.25500000000E-02 0. -1.
    5000001    1    1    2    0    0  0.22053973599E+03 -0.87429807810E+02  0.13535418111E+03  0.33794008461E+03  0.19900000000E+03 0.  0.
   -5000001    1    1    2    0    0 -0.22053973599E+03  0.87429807810E+02  0.49837685096E+03  0.58673864030E+03  0.19900000000E+03 0.  0.
<mgrwt>
<rscale>  0 0.67336151E+03</rscale>
<asrwt>0</asrwt>
<pdfrwt beam="1">  1        2 0.11131498E+00 0.67336151E+03</pdfrwt>
<pdfrwt beam="2">  1       -2 0.20781978E-01 0.67336151E+03</pdfrwt>
<totfact> 0.78688012E+02</totfact>
</mgrwt>
</event>
<event>
 4    1  0.5023236E-005  0.5513601E+03  0.7818608E-02  0.1001180E+00
         -2   -1    0    0    0  501 -0.00000000000E+00  0.00000000000E+00  0.37401542890E+02  0.37401542977E+02  0.25500000000E-02 0. -1.
          2   -1    0    0  501    0  0.00000000000E+00 -0.00000000000E+00 -0.20319882197E+04  0.20319882197E+04  0.25500000000E-02 0.  1.
    5000001    1    1    2    0    0  0.78045709182E+02  0.14868577800E+03 -0.65742456670E+03  0.70711148640E+03  0.19900000000E+03 0.  0.
   -5000001    1    1    2    0    0 -0.78045709182E+02 -0.14868577800E+03 -0.13371621101E+04  0.13622782763E+04  0.19900000000E+03 0.  0.
<mgrwt>
<rscale>  0 0.55136012E+03</rscale>
<asrwt>0</asrwt>
<pdfrwt beam="1">  1        2 0.29028396E+00 0.55136012E+03</pdfrwt>
<pdfrwt beam="2">  1       -2 0.53430789E-02 0.55136012E+03</pdfrwt>
<totfact> 0.14813085E+03</totfact>
</mgrwt>
</event>
<event>
 4    1  0.5023236E-005  0.5265702E+03  0.7818608E-02  0.1007067E+00
          2   -1    0    0  501    0  0.00000000000E+00  0.00000000000E+00  0.11751776479E+03  0.11751776482E+03  0.25500000000E-02 0.  1.
         -2   -1    0    0    0  501 -0.00000000000E+00 -0.00000000000E+00 -0.58986020223E+03  0.58986020223E+03  0.25500000000E-02 0. -1.
    5000001    1    1    2    0    0 -0.16191022797E+03  0.69915216795E+01 -0.15721759672E+03  0.30096872930E+03  0.19900000000E+03 0.  0.
   -5000001    1    1    2    0    0  0.16191022797E+03 -0.69915216795E+01 -0.31512484071E+03  0.40640923775E+03  0.19900000000E+03 0.  0.
<mgrwt>
<rscale>  0 0.52657023E+03</rscale>
<asrwt>0</asrwt>
<pdfrwt beam="1">  1        2 0.16788252E-01 0.52657023E+03</pdfrwt>
<pdfrwt beam="2">  1       -2 0.84265742E-01 0.52657023E+03</pdfrwt>
<totfact> 0.43420837E+02</totfact>
</mgrwt>
</event>
<event>
 4    1  0.5023236E-005  0.6317707E+03  0.7818608E-02  0.9841600E-01
         -2   -1    0    0    0  501 -0.00000000000E+00  0.00000000000E+00  0.27391349112E+02  0.27391349230E+02  0.25500000000E-02 0. -1.
          2   -1    0    0  501    0  0.00000000000E+00 -0.00000000000E+00 -0.36428853750E+04  0.36428853750E+04  0.25500000000E-02 0.  1.
    5000001    1    1    2    0    0  0.58475578872E+01 -0.23988052431E+03 -0.21042986600E+04  0.21272636673E+04  0.19900000000E+03 0.  0.
   -5000001    1    1    2    0    0 -0.58475578872E+01  0.23988052431E+03 -0.15111953659E+04  0.15430130569E+04  0.19900000000E+03 0.  0.
<mgrwt>
<rscale>  0 0.63177067E+03</rscale>
<asrwt>0</asrwt>
<pdfrwt beam="1">  1        2 0.52041189E+00 0.63177067E+03</pdfrwt>
<pdfrwt beam="2">  1       -2 0.39130522E-02 0.63177067E+03</pdfrwt>
<totfact> 0.32122844E+02</totfact>
</mgrwt>
</event>
<event>
 4    1  0.5023236E-005  0.4807440E+03  0.7818608E-02  0.1018931E+00
          2   -1    0    0  501    0  0.00000000000E+00  0.00000000000E+00  0.99215367282E+03  0.99215367283E+03  0.25500000000E-02 0.  1.
         -2   -1    0    0    0  501 -0.00000000000E+00 -0.00000000000E+00 -0.58235645463E+02  0.58235645519E+02  0.25500000000E-02 0. -1.
    5000001    1    1    2    0    0  0.31269189516E+02  0.12786530347E+03  0.53067537256E+03  0.58184589805E+03  0.19900000000E+03 0.  0.
   -5000001    1    1    2    0    0 -0.31269189516E+02 -0.12786530347E+03  0.40324265480E+03  0.46854342029E+03  0.19900000000E+03 0.  0.
<mgrwt>
<rscale>  0 0.48074405E+03</rscale>
<asrwt>0</asrwt>
<pdfrwt beam="1">  1        2 0.14173624E+00 0.48074405E+03</pdfrwt>
<pdfrwt beam="2">  1       -2 0.83193780E-02 0.48074405E+03</pdfrwt>
<totfact> 0.26262939E+03</totfact>
</mgrwt>
</event>
<event>
 4    1  0.5023236E-005  0.6089687E+03  0.7818608E-02  0.9886972E-01
          2   -1    0    0  501    0  0.00000000000E+00  0.00000000000E+00  0.75810294450E+03  0.75810294450E+03  0.25500000000E-02 0.  1.
         -2   -1    0    0    0  501 -0.00000000000E+00 -0.00000000000E+00 -0.12229304126E+03  0.12229304129E+03  0.25500000000E-02 0. -1.
    5000001    1    1    2    0    0  0.86293104078E+02 -0.20105428583E+03  0.21324877667E+03  0.36461673908E+03  0.19900000000E+03 0.  0.
   -5000001    1    1    2    0    0 -0.86293104078E+02  0.20105428583E+03  0.42256112656E+03  0.51577924672E+03  0.19900000000E+03 0.  0.
<mgrwt>
<rscale>  0 0.60896868E+03</rscale>
<asrwt>0</asrwt>
<pdfrwt beam="1">  1        2 0.10830042E+00 0.60896868E+03</pdfrwt>
<pdfrwt beam="2">  1       -2 0.17470434E-01 0.60896868E+03</pdfrwt>
<totfact> 0.11020845E+03</totfact>
</mgrwt>
</event>
<event>
 4    1  0.5023236E-005  0.7860634E+03  0.7818608E-02  0.9580412E-01
          2   -1    0    0  501    0  0.00000000000E+00  0.00000000000E+00  0.18115665507E+04  0.18115665507E+04  0.25500000000E-02 0.  1.
         -2   -1    0    0    0  501 -0.00000000000E+00 -0.00000000000E+00 -0.85270899649E+02  0.85270899687E+02  0.25500000000E-02 0. -1.
    5000001    1    1    2    0    0 -0.75666851751E+02  0.25048840913E+03  0.13829589294E+04  0.14214943953E+04  0.19900000000E+03 0.  0.
   -5000001    1    1    2    0    0  0.75666851751E+02 -0.25048840913E+03  0.34333672170E+03  0.47534305510E+03  0.19900000000E+03 0.  0.
<mgrwt>
<rscale>  0 0.78606338E+03</rscale>
<asrwt>0</asrwt>
<pdfrwt beam="1">  1        2 0.25879521E+00 0.78606338E+03</pdfrwt>
<pdfrwt beam="2">  1       -2 0.12181558E-01 0.78606338E+03</pdfrwt>
<totfact> 0.50506457E+02</totfact>
</mgrwt>
</event>
<event>
 4    1  0.5023236E-005  0.8544545E+03  0.7818608E-02  0.9484378E-01
          2   -1    0    0  501    0  0.00000000000E+00  0.00000000000E+00  0.27339694372E+04  0.27339694372E+04  0.25500000000E-02 0.  1.
         -2   -1    0    0    0  501 -0.00000000000E+00 -0.00000000000E+00 -0.66761217936E+02  0.66761217985E+02  0.25500000000E-02 0. -1.
    5000001    1    1    2    0    0  0.63995226501E+02  0.35918383873E+03  0.16583166165E+04  0.17095974438E+04  0.19900000000E+03 0.  0.
   -5000001    1    1    2    0    0 -0.63995226501E+02 -0.35918383873E+03  0.10088916027E+04  0.10911332114E+04  0.19900000000E+03 0.  0.
<mgrwt>
<rscale>  0 0.85445451E+03</rscale>
<asrwt>0</asrwt>
<pdfrwt beam="1">  1        2 0.39056694E+00 0.85445451E+03</pdfrwt>
<pdfrwt beam="2">  1       -2 0.95373197E-02 0.85445451E+03</pdfrwt>
<totfact> 0.25222381E+02</totfact>
</mgrwt>
</event>
<event>
 4    1  0.5023236E-005  0.7323544E+03  0.7818608E-02  0.9663448E-01
          2   -1    0    0  501    0  0.00000000000E+00  0.00000000000E+00  0.11693334988E+04  0.11693334988E+04  0.25500000000E-02 0.  1.
         -2   -1    0    0    0  501 -0.00000000000E+00 -0.00000000000E+00 -0.11466851646E+03  0.11466851648E+03  0.25500000000E-02 0. -1.
    5000001    1    1    2    0    0 -0.13958780545E+03  0.24329527190E+03  0.30690054254E+03  0.46094065537E+03  0.19900000000E+03 0.  0.
   -5000001    1    1    2    0    0  0.13958780545E+03 -0.24329527190E+03  0.74776443983E+03  0.82306135995E+03  0.19900000000E+03 0.  0.
<mgrwt>
<rscale>  0 0.73235439E+03</rscale>
<asrwt>0</asrwt>
<pdfrwt beam="1">  1        2 0.16704764E+00 0.73235439E+03</pdfrwt>
<pdfrwt beam="2">  1       -2 0.16381217E-01 0.73235439E+03</pdfrwt>
<totfact> 0.67475188E+02</totfact>
</mgrwt>
</event>
<event>
 4    1  0.5023236E-005  0.5307895E+03  0.7818608E-02  0.1006041E+00
          2   -1    0    0  501    0  0.00000000000E+00  0.00000000000E+00  0.12914695151E+04  0.12914695151E+04  0.25500000000E-02 0.  1.
         -2   -1    0    0    0  501 -0.00000000000E+00 -0.00000000000E+00 -0.54538159043E+02  0.54538159102E+02  0.25500000000E-02 0. -1.
    5000001    1    1    2    0    0 -0.46563753073E+02  0.72003653851E+02  0.22988573612E+03  0.31591321742E+03  0.19900000000E+03 0.  0.
   -5000001    1    1    2    0    0  0.46563753073E+02 -0.72003653851E+02  0.10070456199E+04  0.10300944568E+04  0.19900000000E+03 0.  0.
<mgrwt>
<rscale>  0 0.53078949E+03</rscale>
<asrwt>0</asrwt>
<pdfrwt beam="1">  1        2 0.18449566E+00 0.53078949E+03</pdfrwt>
<pdfrwt beam="2">  1       -2 0.77911650E-02 0.53078949E+03</pdfrwt>
<totfact> 0.19662291E+03</totfact>
</mgrwt>
</event>
<event>
 4    1  0.5023236E-005  0.6546717E+03  0.7818608E-02  0.9798052E-01
         -2   -1    0    0    0  501 -0.00000000000E+00  0.00000000000E+00  0.49437180089E+03  0.49437180090E+03  0.25500000000E-02 0. -1.
          2   -1    0    0  501    0  0.00000000000E+00 -0.00000000000E+00 -0.21673716987E+03  0.21673716989E+03  0.25500000000E-02 0.  1.
    5000001    1    1    2    0    0  0.12971003025E+03  0.17420537973E+03 -0.16231041141E+02  0.29501975013E+03  0.19900000000E+03 0.  0.
   -5000001    1    1    2    0    0 -0.12971003025E+03 -0.17420537973E+03  0.29386567216E+03  0.41608922065E+03  0.19900000000E+03 0.  0.
<mgrwt>
<rscale>  0 0.65467166E+03</rscale>
<asrwt>0</asrwt>
<pdfrwt beam="1">  1        2 0.30962453E-01 0.65467166E+03</pdfrwt>
<pdfrwt beam="2">  1       -2 0.70624543E-01 0.65467166E+03</pdfrwt>
<totfact> 0.31607956E+02</totfact>
</mgrwt>
</event>
<event>
 4    1  0.5023236E-005  0.5996083E+03  0.7818608E-02  0.9906219E-01
         -2   -1    0    0    0  501 -0.00000000000E+00  0.00000000000E+00  0.13788162327E+04  0.13788162327E+04  0.25500000000E-02 0. -1.
          2   -1    0    0  501    0  0.00000000000E+00 -0.00000000000E+00 -0.65188185794E+02  0.65188185844E+02  0.25500000000E-02 0.  1.
    5000001    1    1    2    0    0 -0.67503308383E+02 -0.20982329429E+03  0.75607985584E+03  0.81230552126E+03  0.19900000000E+03 0.  0.
   -5000001    1    1    2    0    0  0.67503308383E+02  0.20982329429E+03  0.55754819107E+03  0.63169889729E+03  0.19900000000E+03 0.  0.
<mgrwt>
<rscale>  0 0.59960830E+03</rscale>
<asrwt>0</asrwt>
<pdfrwt beam="1">  1        2 0.93125971E-02 0.59960830E+03</pdfrwt>
<pdfrwt beam="2">  1       -2 0.19697377E+00 0.59960830E+03</pdfrwt>
<totfact> 0.10389811E+02</totfact>
</mgrwt>
</event>
<event>
 4    1  0.5023236E-005  0.5724199E+03  0.7818608E-02  0.9964338E-01
          2   -1    0    0  501    0  0.00000000000E+00  0.00000000000E+00  0.17417144131E+04  0.17417144131E+04  0.25500000000E-02 0.  1.
         -2   -1    0    0    0  501 -0.00000000000E+00 -0.00000000000E+00 -0.47031902148E+02  0.47031902217E+02  0.25500000000E-02 0. -1.
    5000001    1    1    2    0    0  0.86694487447E+02  0.17333172828E+03  0.10628296437E+04  0.10985297783E+04  0.19900000000E+03 0.  0.
   -5000001    1    1    2    0    0 -0.86694487447E+02 -0.17333172828E+03  0.63185286722E+03  0.69021653704E+03  0.19900000000E+03 0.  0.
<mgrwt>
<rscale>  0 0.57241992E+03</rscale>
<asrwt>0</asrwt>
<pdfrwt beam="1">  1        2 0.24881632E+00 0.57241992E+03</pdfrwt>
<pdfrwt beam="2">  1       -2 0.67188438E-02 0.57241992E+03</pdfrwt>
<totfact> 0.14470078E+03</totfact>
</mgrwt>
</event>
<event>
 4    1  0.5023236E-005  0.6381868E+03  0.7818608E-02  0.9829202E-01
          2   -1    0    0  501    0  0.00000000000E+00  0.00000000000E+00  0.42261414964E+03  0.42261414965E+03  0.25500000000E-02 0.  1.
         -2   -1    0    0    0  501 -0.00000000000E+00 -0.00000000000E+00 -0.24093042202E+03  0.24093042203E+03  0.25500000000E-02 0. -1.
    5000001    1    1    2    0    0  0.15163105420E+03  0.17797807436E+03  0.18119369929E+03  0.35651132971E+03  0.19900000000E+03 0.  0.
   -5000001    1    1    2    0    0 -0.15163105420E+03 -0.17797807436E+03  0.49002833746E+00  0.30703324197E+03  0.19900000000E+03 0.  0.
<mgrwt>
<rscale>  0 0.63818682E+03</rscale>
<asrwt>0</asrwt>
<pdfrwt beam="1">  1        2 0.60373450E-01 0.63818682E+03</pdfrwt>
<pdfrwt beam="2">  1       -2 0.34418632E-01 0.63818682E+03</pdfrwt>
<totfact> 0.64639486E+02</totfact>
</mgrwt>
</event>
<event>
 4    1  0.5023236E-005  0.6404665E+03  0.7818608E-02  0.9824834E-01
          2   -1    0    0  501    0  0.00000000000E+00  0.00000000000E+00  0.20037439728E+04  0.20037439728E+04  0.25500000000E-02 0.  1.
         -2   -1    0    0    0  501 -0.00000000000E+00 -0.00000000000E+00 -0.51178858986E+02  0.51178859049E+02  0.25500000000E-02 0. -1.
    5000001    1    1    2    0    0  0.22702936449E+03  0.33440430297E+02  0.65085149439E+03  0.71824039324E+03  0.19900000000E+03 0.  0.
   -5000001    1    1    2    0    0 -0.22702936449E+03 -0.33440430297E+02  0.13017136194E+04  0.13366824386E+04  0.19900000000E+03 0.  0.
<mgrwt>
<rscale>  0 0.64046649E+03</rscale>
<asrwt>0</asrwt>
<pdfrwt beam="1">  1        2 0.28624908E+00 0.64046649E+03</pdfrwt>
<pdfrwt beam="2">  1       -2 0.73112671E-02 0.64046649E+03</pdfrwt>
<totfact> 0.93098025E+02</totfact>
</mgrwt>
</event>
<event>
 4    1  0.5023236E-005  0.7055199E+03  0.7818608E-02  0.9707839E-01
          2   -1    0    0  501    0  0.00000000000E+00  0.00000000000E+00  0.15602297052E+03  0.15602297054E+03  0.25500000000E-02 0.  1.
         -2   -1    0    0    0  501 -0.00000000000E+00 -0.00000000000E+00 -0.79757218704E+03  0.79757218704E+03  0.25500000000E-02 0. -1.
    5000001    1    1    2    0    0 -0.14507137521E+03  0.21221121404E+02 -0.66094970241E+03  0.70565682099E+03  0.19900000000E+03 0.  0.
   -5000001    1    1    2    0    0  0.14507137521E+03 -0.21221121404E+02  0.19400485891E+02  0.24793833659E+03  0.19900000000E+03 0.  0.
<mgrwt>
<rscale>  0 0.70551990E+03</rscale>
<asrwt>0</asrwt>
<pdfrwt beam="1">  1        2 0.22288996E-01 0.70551990E+03</pdfrwt>
<pdfrwt beam="2">  1       -2 0.11393888E+00 0.70551990E+03</pdfrwt>
<totfact> 0.15254989E+02</totfact>
</mgrwt>
</event>
<event>
 4    1  0.5023236E-005  0.7424353E+03  0.7818608E-02  0.9647293E-01
          2   -1    0    0  501    0  0.00000000000E+00  0.00000000000E+00  0.57997910265E+03  0.57997910266E+03  0.25500000000E-02 0.  1.
         -2   -1    0    0    0  501 -0.00000000000E+00 -0.00000000000E+00 -0.23759914425E+03  0.23759914426E+03  0.25500000000E-02 0. -1.
    5000001    1    1    2    0    0 -0.85901971795E+02  0.23688511841E+03 -0.33966131147E+02  0.32287521761E+03  0.19900000000E+03 0.  0.
   -5000001    1    1    2    0    0  0.85901971795E+02 -0.23688511841E+03  0.37634608955E+03  0.49470302930E+03  0.19900000000E+03 0.  0.
<mgrwt>
<rscale>  0 0.74243529E+03</rscale>
<asrwt>0</asrwt>
<pdfrwt beam="1">  1        2 0.82854157E-01 0.74243529E+03</pdfrwt>
<pdfrwt beam="2">  1       -2 0.33942735E-01 0.74243529E+03</pdfrwt>
<totfact> 0.46102609E+02</totfact>
</mgrwt>
</event>
<event>
 4    1  0.5023236E-005  0.5002368E+03  0.7818608E-02  0.1013717E+00
          2   -1    0    0  501    0  0.00000000000E+00  0.00000000000E+00  0.11656160238E+04  0.11656160238E+04  0.25500000000E-02 0.  1.
         -2   -1    0    0    0  501 -0.00000000000E+00 -0.00000000000E+00 -0.53670515699E+02  0.53670515760E+02  0.25500000000E-02 0. -1.
    5000001    1    1    2    0    0 -0.11007244101E+03  0.86710295864E+02  0.41545402152E+03  0.48149523536E+03  0.19900000000E+03 0.  0.
   -5000001    1    1    2    0    0  0.11007244101E+03 -0.86710295864E+02  0.69649148662E+03  0.73779130424E+03  0.19900000000E+03 0.  0.
<mgrwt>
<rscale>  0 0.50023680E+03</rscale>
<asrwt>0</asrwt>
<pdfrwt beam="1">  1        2 0.16651656E+00 0.50023680E+03</pdfrwt>
<pdfrwt beam="2">  1       -2 0.76672172E-02 0.50023680E+03</pdfrwt>
<totfact> 0.23679360E+03</totfact>
</mgrwt>
</event>
<event>
 4    1  0.5023236E-005  0.7199388E+03  0.7818608E-02  0.9683729E-01
         -2   -1    0    0    0  501 -0.00000000000E+00  0.00000000000E+00  0.38461719089E+02  0.38461719174E+02  0.25500000000E-02 0. -1.
          2   -1    0    0  501    0  0.00000000000E+00 -0.00000000000E+00 -0.33690113350E+04  0.33690113350E+04  0.25500000000E-02 0.  1.
    5000001    1    1    2    0    0 -0.20572870609E+03 -0.96518949894E+01 -0.26974550215E+04  0.27126153529E+04  0.19900000000E+03 0.  0.
   -5000001    1    1    2    0    0  0.20572870609E+03  0.96518949894E+01 -0.63309459434E+03  0.69485770123E+03  0.19900000000E+03 0.  0.
<mgrwt>
<rscale>  0 0.71993880E+03</rscale>
<asrwt>0</asrwt>
<pdfrwt beam="1">  1        2 0.48128715E+00 0.71993880E+03</pdfrwt>
<pdfrwt beam="2">  1       -2 0.54945334E-02 0.71993880E+03</pdfrwt>
<totfact> 0.27367846E+02</totfact>
</mgrwt>
</event>
<event>
 4    1  0.5023236E-005  0.6985297E+03  0.7818608E-02  0.9719750E-01
          2   -1    0    0  501    0  0.00000000000E+00  0.00000000000E+00  0.21266570940E+04  0.21266570940E+04  0.25500000000E-02 0.  1.
         -2   -1    0    0    0  501 -0.00000000000E+00 -0.00000000000E+00 -0.57360421360E+02  0.57360421417E+02  0.25500000000E-02 0. -1.
    5000001    1    1    2    0    0 -0.18072825418E+03 -0.22091551456E+03  0.11294093860E+04  0.11817922523E+04  0.19900000000E+03 0.  0.
   -5000001    1    1    2    0    0  0.18072825418E+03  0.22091551456E+03  0.93988728669E+03  0.10022252632E+04  0.19900000000E+03 0.  0.
<mgrwt>
<rscale>  0 0.69852973E+03</rscale>
<asrwt>0</asrwt>
<pdfrwt beam="1">  1        2 0.30380812E+00 0.69852973E+03</pdfrwt>
<pdfrwt beam="2">  1       -2 0.81943469E-02 0.69852973E+03</pdfrwt>
<totfact> 0.67063206E+02</totfact>
</mgrwt>
</event>
<event>
 4    1  0.5023236E-005  0.4524430E+03  0.7818608E-02  0.1026996E+00
          2   -1    0    0  501    0  0.00000000000E+00  0.00000000000E+00  0.15071405581E+03  0.15071405583E+03  0.25500000000E-02 0.  1.
         -2   -1    0    0    0  501 -0.00000000000E+00 -0.00000000000E+00 -0.33955807953E+03  0.33955807954E+03  0.25500000000E-02 0. -1.
    5000001    1    1    2    0    0  0.33195796200E+01 -0.49647526213E+02 -0.19778779285E+03  0.28495071059E+03  0.19900000000E+03 0.  0.
   -5000001    1    1    2    0    0 -0.33195796200E+01  0.49647526213E+02  0.89437691317E+01  0.20532142478E+03  0.19900000000E+03 0.  0.
<mgrwt>
<rscale>  0 0.45244304E+03</rscale>
<asrwt>0</asrwt>
<pdfrwt beam="1">  1        2 0.21530579E-01 0.45244304E+03</pdfrwt>
<pdfrwt beam="2">  1       -2 0.48508297E-01 0.45244304E+03</pdfrwt>
<totfact> 0.10496101E+03</totfact>
</mgrwt>
</event>
<event>
 4    1  0.5023236E-005  0.6328992E+03  0.7818608E-02  0.9839408E-01
          2   -1    0    0  501    0  0.00000000000E+00  0.00000000000E+00  0.46125824236E+03  0.46125824236E+03  0.25500000000E-02 0.  1.
         -2   -1    0    0    0  501 -0.00000000000E+00 -0.00000000000E+00 -0.21710254116E+03  0.21710254118E+03  0.25500000000E-02 0. -1.
    5000001    1    1    2    0    0 -0.16831377702E+03 -0.14822338740E+03  0.13618129601E+02  0.30014355492E+03  0.19900000000E+03 0.  0.
   -5000001    1    1    2    0    0  0.16831377702E+03  0.14822338740E+03  0.23053757159E+03  0.37821722862E+03  0.19900000000E+03 0.  0.
<mgrwt>
<rscale>  0 0.63289916E+03</rscale>
<asrwt>0</asrwt>
<pdfrwt beam="1">  1        2 0.65894034E-01 0.63289916E+03</pdfrwt>
<pdfrwt beam="2">  1       -2 0.31014649E-01 0.63289916E+03</pdfrwt>
<totfact> 0.71236259E+02</totfact>
</mgrwt>
</event>
<event>
 4    1  0.5023236E-005  0.5870484E+03  0.7818608E-02  0.9932647E-01
          2   -1    0    0  501    0  0.00000000000E+00  0.00000000000E+00  0.86692145700E+03  0.86692145700E+03  0.25500000000E-02 0.  1.
         -2   -1    0    0    0  501 -0.00000000000E+00 -0.00000000000E+00 -0.99382077223E+02  0.99382077256E+02  0.25500000000E-02 0. -1.
    5000001    1    1    2    0    0 -0.12140135882E+03 -0.15837987805E+03  0.24870453915E+03  0.37586889136E+03  0.19900000000E+03 0.  0.
   -5000001    1    1    2    0    0  0.12140135882E+03  0.15837987805E+03  0.51883484062E+03  0.59043464290E+03  0.19900000000E+03 0.  0.
<mgrwt>
<rscale>  0 0.58704840E+03</rscale>
<asrwt>0</asrwt>
<pdfrwt beam="1">  1        2 0.12384592E+00 0.58704840E+03</pdfrwt>
<pdfrwt beam="2">  1       -2 0.14197440E-01 0.58704840E+03</pdfrwt>
<totfact> 0.13183465E+03</totfact>
</mgrwt>
</event>
<event>
 4    1  0.5023236E-005  0.5450004E+03  0.7818608E-02  0.1002658E+00
         -2   -1    0    0    0  501 -0.00000000000E+00  0.00000000000E+00  0.14517763387E+03  0.14517763389E+03  0.25500000000E-02 0. -1.
          2   -1    0    0  501    0  0.00000000000E+00 -0.00000000000E+00 -0.51148630673E+03  0.51148630674E+03  0.25500000000E-02 0.  1.
    5000001    1    1    2    0    0  0.17232730274E+03  0.66294284301E+02 -0.21176222991E+03  0.34429039112E+03  0.19900000000E+03 0.  0.
   -5000001    1    1    2    0    0 -0.17232730274E+03 -0.66294284301E+02 -0.15454644296E+03  0.31237354951E+03  0.19900000000E+03 0.  0.
<mgrwt>
<rscale>  0 0.54500045E+03</rscale>
<asrwt>0</asrwt>
<pdfrwt beam="1">  1        2 0.73069471E-01 0.54500045E+03</pdfrwt>
<pdfrwt beam="2">  1       -2 0.20739662E-01 0.54500045E+03</pdfrwt>
<totfact> 0.13086856E+03</totfact>
</mgrwt>
</event>
<event>
 4    1  0.5023236E-005  0.7577650E+03  0.7818608E-02  0.9623246E-01
         -2   -1    0    0    0  501 -0.00000000000E+00  0.00000000000E+00  0.66762366203E+03  0.66762366203E+03  0.25500000000E-02 0. -1.
          2   -1    0    0  501    0  0.00000000000E+00 -0.00000000000E+00 -0.21501928502E+03  0.21501928504E+03  0.25500000000E-02 0.  1.
    5000001    1    1    2    0    0  0.12700870255E+03 -0.20614413544E+03  0.47428196959E+03  0.56848131172E+03  0.19900000000E+03 0.  0.
   -5000001    1    1    2    0    0 -0.12700870255E+03  0.20614413544E+03 -0.21677592586E+02  0.31416163534E+03  0.19900000000E+03 0.  0.
<mgrwt>
<rscale>  0 0.75776504E+03</rscale>
<asrwt>0</asrwt>
<pdfrwt beam="1">  1        2 0.30717041E-01 0.75776504E+03</pdfrwt>
<pdfrwt beam="2">  1       -2 0.95374808E-01 0.75776504E+03</pdfrwt>
<totfact> 0.16136938E+02</totfact>
</mgrwt>
</event>
<event>
 4    1  0.5023236E-005  0.6648305E+03  0.7818608E-02  0.9779342E-01
          2   -1    0    0  501    0  0.00000000000E+00  0.00000000000E+00  0.14844115168E+04  0.14844115168E+04  0.25500000000E-02 0.  1.
         -2   -1    0    0    0  501 -0.00000000000E+00 -0.00000000000E+00 -0.74440202309E+02  0.74440202352E+02  0.25500000000E-02 0. -1.
    5000001    1    1    2    0    0  0.21862953502E+03  0.13752767734E+03  0.85669128448E+03  0.91664261985E+03  0.19900000000E+03 0.  0.
   -5000001    1    1    2    0    0 -0.21862953502E+03 -0.13752767734E+03  0.55328002999E+03  0.64220909928E+03  0.19900000000E+03 0.  0.
<mgrwt>
<rscale>  0 0.66483049E+03</rscale>
<asrwt>0</asrwt>
<pdfrwt beam="1">  1        2 0.21205876E+00 0.66483049E+03</pdfrwt>
<pdfrwt beam="2">  1       -2 0.10634316E-01 0.66483049E+03</pdfrwt>
<totfact> 0.93678533E+02</totfact>
</mgrwt>
</event>
<event>
 4    1  0.5023236E-005  0.4515311E+03  0.7818608E-02  0.1027266E+00
          2   -1    0    0  501    0  0.00000000000E+00  0.00000000000E+00  0.55627660836E+03  0.55627660836E+03  0.25500000000E-02 0.  1.
         -2   -1    0    0    0  501 -0.00000000000E+00 -0.00000000000E+00 -0.91627209444E+02  0.91627209479E+02  0.25500000000E-02 0. -1.
    5000001    1    1    2    0    0 -0.45764232625E+02 -0.92108268783E+02  0.27267524594E+03  0.35288962568E+03  0.19900000000E+03 0.  0.
   -5000001    1    1    2    0    0  0.45764232625E+02  0.92108268783E+02  0.19197415298E+03  0.29501419216E+03  0.19900000000E+03 0.  0.
<mgrwt>
<rscale>  0 0.45153105E+03</rscale>
<asrwt>0</asrwt>
<pdfrwt beam="1">  1        2 0.79468086E-01 0.45153105E+03</pdfrwt>
<pdfrwt beam="2">  1       -2 0.13089602E-01 0.45153105E+03</pdfrwt>
<totfact> 0.25919924E+03</totfact>
</mgrwt>
</event>
<event>
 4    1  0.5023236E-005  0.4407873E+03  0.7818608E-02  0.1030506E+00
         -2   -1    0    0    0  501 -0.00000000000E+00  0.00000000000E+00  0.12011577711E+03  0.12011577714E+03  0.25500000000E-02 0. -1.
          2   -1    0    0  501    0  0.00000000000E+00 -0.00000000000E+00 -0.40438783764E+03  0.40438783765E+03  0.25500000000E-02 0.  1.
    5000001    1    1    2    0    0 -0.46407490978E+02 -0.70221253613E+02 -0.19383520049E+03  0.29027188053E+03  0.19900000000E+03 0.  0.
   -5000001    1    1    2    0    0  0.46407490978E+02  0.70221253613E+02 -0.90436860032E+02  0.23423173425E+03  0.19900000000E+03 0.  0.
<mgrwt>
<rscale>  0 0.44078729E+03</rscale>
<asrwt>0</asrwt>
<pdfrwt beam="1">  1        2 0.57769690E-01 0.44078729E+03</pdfrwt>
<pdfrwt beam="2">  1       -2 0.17159397E-01 0.44078729E+03</pdfrwt>
<totfact> 0.23553529E+03</totfact>
</mgrwt>
</event>
<event>
 4    1  0.5023236E-005  0.5120284E+03  0.7818608E-02  0.1010686E+00
         -2   -1    0    0    0  501 -0.00000000000E+00  0.00000000000E+00  0.86646356544E+02  0.86646356581E+02  0.25500000000E-02 0. -1.
          2   -1    0    0  501    0  0.00000000000E+00 -0.00000000000E+00 -0.75644576945E+03  0.75644576945E+03  0.25500000000E-02 0.  1.
    5000001    1    1    2    0    0 -0.13970547000E+03  0.76476815653E+02 -0.37441568054E+03  0.45293975705E+03  0.19900000000E+03 0.  0.
   -5000001    1    1    2    0    0  0.13970547000E+03 -0.76476815653E+02 -0.29538373236E+03  0.39015236899E+03  0.19900000000E+03 0.  0.
<mgrwt>
<rscale>  0 0.51202840E+03</rscale>
<asrwt>0</asrwt>
<pdfrwt beam="1">  1        2 0.10806368E+00 0.51202840E+03</pdfrwt>
<pdfrwt beam="2">  1       -2 0.12378051E-01 0.51202840E+03</pdfrwt>
<totfact> 0.19717262E+03</totfact>
</mgrwt>
</event>
<event>
 4    1  0.5023236E-005  0.6271020E+03  0.7818608E-02  0.9850720E-01
         -2   -1    0    0    0  501 -0.00000000000E+00  0.00000000000E+00  0.63977303230E+02  0.63977303280E+02  0.25500000000E-02 0. -1.
          2   -1    0    0  501    0  0.00000000000E+00 -0.00000000000E+00 -0.15367047588E+04  0.15367047588E+04  0.25500000000E-02 0.  1.
    5000001    1    1    2    0    0  0.95665591436E+02  0.22251373146E+03 -0.71850342066E+03  0.78390843316E+03  0.19900000000E+03 0.  0.
   -5000001    1    1    2    0    0 -0.95665591436E+02 -0.22251373146E+03 -0.75422403492E+03  0.81677362894E+03  0.19900000000E+03 0.  0.
<mgrwt>
<rscale>  0 0.62710199E+03</rscale>
<asrwt>0</asrwt>
<pdfrwt beam="1">  1        2 0.21952923E+00 0.62710199E+03</pdfrwt>
<pdfrwt beam="2">  1       -2 0.91396157E-02 0.62710199E+03</pdfrwt>
<totfact> 0.11264299E+03</totfact>
</mgrwt>
</event>
<event>
 4    1  0.5023236E-005  0.2143259E+04  0.7818608E-02  0.8542423E-01
         -2   -1    0    0    0  501 -0.00000000000E+00  0.00000000000E+00  0.30885695296E+04  0.30885695296E+04  0.25500000000E-02 0. -1.
          2   -1    0    0  501    0  0.00000000000E+00 -0.00000000000E+00 -0.37181936832E+03  0.37181936833E+03  0.25500000000E-02 0.  1.
    5000001    1    1    2    0    0  0.53810642904E+03  0.90274558930E+03  0.12527383633E+04  0.16472590977E+04  0.19900000000E+03 0.  0.
   -5000001    1    1    2    0    0 -0.53810642904E+03 -0.90274558930E+03  0.14640117980E+04  0.18131298003E+04  0.19900000000E+03 0.  0.
<mgrwt>
<rscale>  0 0.21432592E+04</rscale>
<asrwt>0</asrwt>
<pdfrwt beam="1">  1        2 0.53117055E-01 0.21432592E+04</pdfrwt>
<pdfrwt beam="2">  1       -2 0.44122420E+00 0.21432592E+04</pdfrwt>
<totfact> 0.34348585E-01</totfact>
</mgrwt>
</event>
<event>
 4    1  0.5023236E-005  0.7539597E+03  0.7818608E-02  0.9629159E-01
         -2   -1    0    0    0  501 -0.00000000000E+00  0.00000000000E+00  0.27579231412E+03  0.27579231413E+03  0.25500000000E-02 0. -1.
          2   -1    0    0  501    0  0.00000000000E+00 -0.00000000000E+00 -0.51529285772E+03  0.51529285773E+03  0.25500000000E-02 0.  1.
    5000001    1    1    2    0    0  0.21986704163E+03 -0.22881095968E+02  0.12327467694E+03  0.32196693390E+03  0.19900000000E+03 0.  0.
   -5000001    1    1    2    0    0 -0.21986704163E+03  0.22881095968E+02 -0.36277522055E+03  0.46911823796E+03  0.19900000000E+03 0.  0.
<mgrwt>
<rscale>  0 0.75395971E+03</rscale>
<asrwt>0</asrwt>
<pdfrwt beam="1">  1        2 0.73613265E-01 0.75395971E+03</pdfrwt>
<pdfrwt beam="2">  1       -2 0.39398902E-01 0.75395971E+03</pdfrwt>
<totfact> 0.39735740E+02</totfact>
</mgrwt>
</event>
<event>
 4    1  0.5023236E-005  0.1016061E+04  0.7818608E-02  0.9291103E-01
          2   -1    0    0  501    0  0.00000000000E+00  0.00000000000E+00  0.12997135179E+04  0.12997135179E+04  0.25500000000E-02 0.  1.
         -2   -1    0    0    0  501 -0.00000000000E+00 -0.00000000000E+00 -0.19857833136E+03  0.19857833138E+03  0.25500000000E-02 0. -1.
    5000001    1    1    2    0    0  0.46104999480E+03 -0.76960512068E+02  0.54764670543E+03  0.74699928520E+03  0.19900000000E+03 0.  0.
   -5000001    1    1    2    0    0 -0.46104999480E+03  0.76960512068E+02  0.55348848111E+03  0.75129256408E+03  0.19900000000E+03 0.  0.
<mgrwt>
<rscale>  0 0.10160609E+04</rscale>
<asrwt>0</asrwt>
<pdfrwt beam="1">  1        2 0.18567336E+00 0.10160609E+04</pdfrwt>
<pdfrwt beam="2">  1       -2 0.28368333E-01 0.10160609E+04</pdfrwt>
<totfact> 0.21259014E+02</totfact>
</mgrwt>
</event>
<event>
 4    1  0.5023236E-005  0.5742425E+03  0.7818608E-02  0.9960334E-01
          2   -1    0    0  501    0  0.00000000000E+00  0.00000000000E+00  0.90815412617E+03  0.90815412617E+03  0.25500000000E-02 0.  1.
         -2   -1    0    0    0  501 -0.00000000000E+00 -0.00000000000E+00 -0.90776007989E+02  0.90776008025E+02  0.25500000000E-02 0. -1.
    5000001    1    1    2    0    0  0.39792306180E+02 -0.20241339596E+03  0.37942532474E+03  0.47551991288E+03  0.19900000000E+03 0.  0.
   -5000001    1    1    2    0    0 -0.39792306180E+02  0.20241339596E+03  0.43795279344E+03  0.52341022131E+03  0.19900000000E+03 0.  0.
<mgrwt>
<rscale>  0 0.57424248E+03</rscale>
<asrwt>0</asrwt>
<pdfrwt beam="1">  1        2 0.12973630E+00 0.57424248E+03</pdfrwt>
<pdfrwt beam="2">  1       -2 0.12968001E-01 0.57424248E+03</pdfrwt>
<totfact> 0.14414594E+03</totfact>
</mgrwt>
</event>
<event>
 4    1  0.5023236E-005  0.5295597E+03  0.7818608E-02  0.1006339E+00
          2   -1    0    0  501    0  0.00000000000E+00  0.00000000000E+00  0.30880600672E+02  0.30880600777E+02  0.25500000000E-02 0.  1.
         -2   -1    0    0    0  501 -0.00000000000E+00 -0.00000000000E+00 -0.22703046201E+04  0.22703046201E+04  0.25500000000E-02 0. -1.
    5000001    1    1    2    0    0 -0.12700794381E+03  0.80417628846E+02 -0.73324960505E+03  0.77450241841E+03  0.19900000000E+03 0.  0.
   -5000001    1    1    2    0    0  0.12700794381E+03 -0.80417628846E+02 -0.15061744144E+04  0.15266828025E+04  0.19900000000E+03 0.  0.
<mgrwt>
<rscale>  0 0.52955971E+03</rscale>
<asrwt>0</asrwt>
<pdfrwt beam="1">  1        2 0.44115158E-02 0.52955971E+03</pdfrwt>
<pdfrwt beam="2">  1       -2 0.32432913E+00 0.52955971E+03</pdfrwt>
<totfact> 0.47309036E+01</totfact>
</mgrwt>
</event>
<event>
 4    1  0.5023236E-005  0.1038460E+04  0.7818608E-02  0.9267340E-01
          2   -1    0    0  501    0  0.00000000000E+00  0.00000000000E+00  0.21483350884E+04  0.21483350884E+04  0.25500000000E-02 0.  1.
         -2   -1    0    0    0  501 -0.00000000000E+00 -0.00000000000E+00 -0.12549251734E+03  0.12549251737E+03  0.25500000000E-02 0. -1.
    5000001    1    1    2    0    0  0.23602266605E+03  0.41181270108E+03  0.11615748509E+04  0.12704934215E+04  0.19900000000E+03 0.  0.
   -5000001    1    1    2    0    0 -0.23602266605E+03 -0.41181270108E+03  0.86126772011E+03  0.10033341843E+04  0.19900000000E+03 0.  0.
<mgrwt>
<rscale>  0 0.10384604E+04</rscale>
<asrwt>0</asrwt>
<pdfrwt beam="1">  1        2 0.30690500E+00 0.10384604E+04</pdfrwt>
<pdfrwt beam="2">  1       -2 0.17927503E-01 0.10384604E+04</pdfrwt>
<totfact> 0.17390931E+02</totfact>
</mgrwt>
</event>
<event>
 4    1  0.5023236E-005  0.9600619E+03  0.7818608E-02  0.9353466E-01
         -2   -1    0    0    0  501 -0.00000000000E+00  0.00000000000E+00  0.77876021748E+03  0.77876021748E+03  0.25500000000E-02 0. -1.
          2   -1    0    0  501    0  0.00000000000E+00 -0.00000000000E+00 -0.29589300421E+03  0.29589300422E+03  0.25500000000E-02 0.  1.
    5000001    1    1    2    0    0 -0.29530538129E+03  0.32116478042E+03  0.21699629678E+03  0.52634634720E+03  0.19900000000E+03 0.  0.
   -5000001    1    1    2    0    0  0.29530538129E+03 -0.32116478042E+03  0.26587091648E+03  0.54830687450E+03  0.19900000000E+03 0.  0.
<mgrwt>
<rscale>  0 0.96006187E+03</rscale>
<asrwt>0</asrwt>
<pdfrwt beam="1">  1        2 0.42270429E-01 0.96006187E+03</pdfrwt>
<pdfrwt beam="2">  1       -2 0.11125146E+00 0.96006187E+03</pdfrwt>
<totfact> 0.77466629E+01</totfact>
</mgrwt>
</event>
<event>
 4    1  0.5023236E-005  0.5336845E+03  0.7818608E-02  0.1005342E+00
         -2   -1    0    0    0  501 -0.00000000000E+00  0.00000000000E+00  0.12313696778E+04  0.12313696778E+04  0.25500000000E-02 0.  1.
          2   -1    0    0  501    0  0.00000000000E+00 -0.00000000000E+00 -0.57825686145E+02  0.57825686201E+02  0.25500000000E-02 0. -1.
    5000001    1    1    2    0    0  0.67526928384E+02 -0.16429573610E+03  0.56955099978E+03  0.62892155020E+03  0.19900000000E+03 0.  0.
   -5000001    1    1    2    0    0 -0.67526928384E+02  0.16429573610E+03  0.60399299183E+03  0.66027381376E+03  0.19900000000E+03 0.  0.
<mgrwt>
<rscale>  0 0.53368454E+03</rscale>
<asrwt>0</asrwt>
<pdfrwt beam="1">  1        2 0.82608131E-02 0.53368454E+03</pdfrwt>
<pdfrwt beam="2">  1       -2 0.17590994E+00 0.53368454E+03</pdfrwt>
<totfact> 0.16814116E+02</totfact>
</mgrwt>
</event>
<event>
 4    1  0.5023236E-005  0.4293351E+03  0.7818608E-02  0.1034070E+00
         -2   -1    0    0    0  501 -0.00000000000E+00  0.00000000000E+00  0.11807609485E+03  0.11807609488E+03  0.25500000000E-02 0. -1.
          2   -1    0    0  501    0  0.00000000000E+00 -0.00000000000E+00 -0.39027511793E+03  0.39027511793E+03  0.25500000000E-02 0.  1.
    5000001    1    1    2    0    0 -0.53532251813E+02  0.46669740330E+02 -0.91208897929E+02  0.23013871840E+03  0.19900000000E+03 0.  0.
   -5000001    1    1    2    0    0  0.53532251813E+02 -0.46669740330E+02 -0.18099012514E+03  0.27821249441E+03  0.19900000000E+03 0.  0.
<mgrwt>
<rscale>  0 0.42933512E+03</rscale>
<asrwt>0</asrwt>
<pdfrwt beam="1">  1        2 0.55753587E-01 0.42933512E+03</pdfrwt>
<pdfrwt beam="2">  1       -2 0.16868014E-01 0.42933512E+03</pdfrwt>
<totfact> 0.25205629E+03</totfact>
</mgrwt>
</event>
<event>
 4    1  0.5023236E-005  0.4712766E+03  0.7818608E-02  0.1021561E+00
         -2   -1    0    0    0  501 -0.00000000000E+00  0.00000000000E+00  0.88659882234E+03  0.88659882234E+03  0.25500000000E-02 0. -1.
          2   -1    0    0  501    0  0.00000000000E+00 -0.00000000000E+00 -0.62627445574E+02  0.62627445626E+02  0.25500000000E-02 0.  1.
    5000001    1    1    2    0    0  0.12254977267E+03 -0.18795664624E+02  0.36463384599E+03  0.43350959093E+03  0.19900000000E+03 0.  0.
   -5000001    1    1    2    0    0 -0.12254977267E+03  0.18795664624E+02  0.45933753078E+03  0.51571667704E+03  0.19900000000E+03 0.  0.
<mgrwt>
<rscale>  0 0.47127665E+03</rscale>
<asrwt>0</asrwt>
<pdfrwt beam="1">  1        2 0.89467784E-02 0.47127665E+03</pdfrwt>
<pdfrwt beam="2">  1       -2 0.12665697E+00 0.47127665E+03</pdfrwt>
<totfact> 0.35999748E+02</totfact>
</mgrwt>
</event>
<event>
 4    1  0.5023236E-005  0.5246274E+03  0.7818608E-02  0.1007543E+00
         -2   -1    0    0    0  501 -0.00000000000E+00  0.00000000000E+00  0.59100616777E+02  0.59100616832E+02  0.25500000000E-02 0. -1.
          2   -1    0    0  501    0  0.00000000000E+00 -0.00000000000E+00 -0.11642600020E+04  0.11642600020E+04  0.25500000000E-02 0.  1.
    5000001    1    1    2    0    0 -0.57577120231E+02 -0.15772830037E+03 -0.47832001739E+03  0.54459561194E+03  0.19900000000E+03 0.  0.
   -5000001    1    1    2    0    0  0.57577120231E+02  0.15772830037E+03 -0.62683936779E+03  0.67876500685E+03  0.19900000000E+03 0.  0.
<mgrwt>
<rscale>  0 0.52462743E+03</rscale>
<asrwt>0</asrwt>
<pdfrwt beam="1">  1        2 0.16632284E+00 0.52462743E+03</pdfrwt>
<pdfrwt beam="2">  1       -2 0.84429460E-02 0.52462743E+03</pdfrwt>
<totfact> 0.20347966E+03</totfact>
</mgrwt>
</event>
<event>
 4    1  0.5023236E-005  0.4739276E+03  0.7818608E-02  0.1020817E+00
         -2   -1    0    0    0  501 -0.00000000000E+00  0.00000000000E+00  0.23625666348E+02  0.23625666486E+02  0.25500000000E-02 0. -1.
          2   -1    0    0  501    0  0.00000000000E+00 -0.00000000000E+00 -0.23767306226E+04  0.23767306226E+04  0.25500000000E-02 0.  1.
    5000001    1    1    2    0    0  0.27123517952E+02  0.12303176177E+03 -0.10446390260E+04  0.10708614263E+04  0.19900000000E+03 0.  0.
   -5000001    1    1    2    0    0 -0.27123517952E+02 -0.12303176177E+03 -0.13084659303E+04  0.13294948628E+04  0.19900000000E+03 0.  0.
<mgrwt>
<rscale>  0 0.47392761E+03</rscale>
<asrwt>0</asrwt>
<pdfrwt beam="1">  1        2 0.33953279E+00 0.47392761E+03</pdfrwt>
<pdfrwt beam="2">  1       -2 0.33750967E-02 0.47392761E+03</pdfrwt>
<totfact> 0.20216872E+03</totfact>
</mgrwt>
</event>
<event>
 4    1  0.5023236E-005  0.6468998E+03  0.7818608E-02  0.9812614E-01
          2   -1    0    0  501    0  0.00000000000E+00  0.00000000000E+00  0.60462855669E+03  0.60462855669E+03  0.25500000000E-02 0.  1.
         -2   -1    0    0    0  501 -0.00000000000E+00 -0.00000000000E+00 -0.17303158333E+03  0.17303158335E+03  0.25500000000E-02 0. -1.
    5000001    1    1    2    0    0  0.70632342305E+02  0.24500414836E+03  0.21375981285E+03  0.38769861759E+03  0.19900000000E+03 0.  0.
   -5000001    1    1    2    0    0 -0.70632342305E+02 -0.24500414836E+03  0.21783716051E+03  0.38996152245E+03  0.19900000000E+03 0.  0.
<mgrwt>
<rscale>  0 0.64689980E+03</rscale>
<asrwt>0</asrwt>
<pdfrwt beam="1">  1        2 0.86375508E-01 0.64689980E+03</pdfrwt>
<pdfrwt beam="2">  1       -2 0.24718798E-01 0.64689980E+03</pdfrwt>
<totfact> 0.78917227E+02</totfact>
</mgrwt>
</event>
<event>
 4    1  0.5023236E-005  0.5613027E+03  0.7818608E-02  0.9989111E-01
          2   -1    0    0  501    0  0.00000000000E+00  0.00000000000E+00  0.18023630416E+04  0.18023630416E+04  0.25500000000E-02 0.  1.
         -2   -1    0    0    0  501 -0.00000000000E+00 -0.00000000000E+00 -0.43701063217E+02  0.43701063292E+02  0.25500000000E-02 0. -1.
    5000001    1    1    2    0    0 -0.63468660883E+02  0.89755557546E+02  0.14205496634E+04  0.14386266636E+04  0.19900000000E+03 0.  0.
   -5000001    1    1    2    0    0  0.63468660883E+02 -0.89755557546E+02  0.33811231496E+03  0.40743744127E+03  0.19900000000E+03 0.  0.
<mgrwt>
<rscale>  0 0.56130270E+03</rscale>
<asrwt>0</asrwt>
<pdfrwt beam="1">  1        2 0.25748050E+00 0.56130270E+03</pdfrwt>
<pdfrwt beam="2">  1       -2 0.62430074E-02 0.56130270E+03</pdfrwt>
<totfact> 0.15141572E+03</totfact>
</mgrwt>
</event>
<event>
 4    1  0.5023236E-005  0.5059938E+03  0.7818608E-02  0.1012226E+00
          2   -1    0    0  501    0  0.00000000000E+00  0.00000000000E+00  0.56128530601E+03  0.56128530601E+03  0.25500000000E-02 0.  1.
         -2   -1    0    0    0  501 -0.00000000000E+00 -0.00000000000E+00 -0.11403723401E+03  0.11403723403E+03  0.25500000000E-02 0. -1.
    5000001    1    1    2    0    0 -0.40099951127E+02  0.48864282005E+02  0.32948479847E+02  0.21138194450E+03  0.19900000000E+03 0.  0.
   -5000001    1    1    2    0    0  0.40099951127E+02 -0.48864282005E+02  0.41429959215E+03  0.46394059554E+03  0.19900000000E+03 0.  0.
<mgrwt>
<rscale>  0 0.50599377E+03</rscale>
<asrwt>0</asrwt>
<pdfrwt beam="1">  1        2 0.80183616E-01 0.50599377E+03</pdfrwt>
<pdfrwt beam="2">  1       -2 0.16291033E-01 0.50599377E+03</pdfrwt>
<totfact> 0.17814105E+03</totfact>
</mgrwt>
</event>
<event>
 4    1  0.5023236E-005  0.6847821E+03  0.7818608E-02  0.9743617E-01
         -2   -1    0    0    0  501 -0.00000000000E+00  0.00000000000E+00  0.28072512039E+03  0.28072512041E+03  0.25500000000E-02 0. -1.
          2   -1    0    0  501    0  0.00000000000E+00 -0.00000000000E+00 -0.41760294404E+03  0.41760294405E+03  0.25500000000E-02 0.  1.
    5000001    1    1    2    0    0  0.16235627379E+03 -0.12348192403E+03  0.12511358694E+03  0.31122621168E+03  0.19900000000E+03 0.  0.
   -5000001    1    1    2    0    0 -0.16235627379E+03  0.12348192403E+03 -0.26199141059E+03  0.38710185278E+03  0.19900000000E+03 0.  0.
<mgrwt>
<rscale>  0 0.68478212E+03</rscale>
<asrwt>0</asrwt>
<pdfrwt beam="1">  1        2 0.59657563E-01 0.68478212E+03</pdfrwt>
<pdfrwt beam="2">  1       -2 0.40103589E-01 0.68478212E+03</pdfrwt>
<totfact> 0.48806882E+02</totfact>
</mgrwt>
</event>
<event>
 4    1  0.5023236E-005  0.4831076E+03  0.7818608E-02  0.1018285E+00
          2   -1    0    0  501    0  0.00000000000E+00  0.00000000000E+00  0.10522434030E+03  0.10522434033E+03  0.25500000000E-02 0.  1.
         -2   -1    0    0    0  501 -0.00000000000E+00 -0.00000000000E+00 -0.55451284014E+03  0.55451284015E+03  0.25500000000E-02 0. -1.
    5000001    1    1    2    0    0  0.41998994447E+02  0.11693768474E+03 -0.14609002594E+03  0.27637227308E+03  0.19900000000E+03 0.  0.
   -5000001    1    1    2    0    0 -0.41998994447E+02 -0.11693768474E+03 -0.30319847391E+03  0.38336490740E+03  0.19900000000E+03 0.  0.
<mgrwt>
<rscale>  0 0.48310764E+03</rscale>
<asrwt>0</asrwt>
<pdfrwt beam="1">  1        2 0.15032049E-01 0.48310764E+03</pdfrwt>
<pdfrwt beam="2">  1       -2 0.79216119E-01 0.48310764E+03</pdfrwt>
<totfact> 0.56956534E+02</totfact>
</mgrwt>
</event>
<event>
 4    1  0.5023236E-005  0.6372988E+03  0.7818608E-02  0.9830908E-01
          2   -1    0    0  501    0  0.00000000000E+00  0.00000000000E+00  0.11904993815E+04  0.11904993815E+04  0.25500000000E-02 0.  1.
         -2   -1    0    0    0  501 -0.00000000000E+00 -0.00000000000E+00 -0.85289789502E+02  0.85289789540E+02  0.25500000000E-02 0. -1.
    5000001    1    1    2    0    0  0.21455960394E+03 -0.12277681672E+03  0.61015537502E+03  0.68775035590E+03  0.19900000000E+03 0.  0.
   -5000001    1    1    2    0    0 -0.21455960394E+03  0.12277681672E+03  0.49505421694E+03  0.58803881511E+03  0.19900000000E+03 0.  0.
<mgrwt>
<rscale>  0 0.63729880E+03</rscale>
<asrwt>0</asrwt>
<pdfrwt beam="1">  1        2 0.17007132E+00 0.63729880E+03</pdfrwt>
<pdfrwt beam="2">  1       -2 0.12184257E-01 0.63729880E+03</pdfrwt>
<totfact> 0.10820451E+03</totfact>
</mgrwt>
</event>
<event>
 4    1  0.5023236E-005  0.4782878E+03  0.7818608E-02  0.1019607E+00
         -2   -1    0    0    0  501 -0.00000000000E+00  0.00000000000E+00  0.14664736363E+03  0.14664736365E+03  0.25500000000E-02 0. -1.
          2   -1    0    0  501    0  0.00000000000E+00 -0.00000000000E+00 -0.38998184303E+03  0.38998184304E+03  0.25500000000E-02 0.  1.
    5000001    1    1    2    0    0  0.10070537752E+03  0.18895354703E+02 -0.21614166974E+03  0.31115402759E+03  0.19900000000E+03 0.  0.
   -5000001    1    1    2    0    0 -0.10070537752E+03 -0.18895354703E+02 -0.27192809656E+02  0.22547517909E+03  0.19900000000E+03 0.  0.
<mgrwt>
<rscale>  0 0.47828782E+03</rscale>
<asrwt>0</asrwt>
<pdfrwt beam="1">  1        2 0.55711691E-01 0.47828782E+03</pdfrwt>
<pdfrwt beam="2">  1       -2 0.20949624E-01 0.47828782E+03</pdfrwt>
<totfact> 0.17405542E+03</totfact>
</mgrwt>
</event>
<event>
 4    1  0.5023236E-005  0.6260168E+03  0.7818608E-02  0.9852853E-01
          2   -1    0    0  501    0  0.00000000000E+00  0.00000000000E+00  0.79530055572E+02  0.79530055613E+02  0.25500000000E-02 0.  1.
         -2   -1    0    0    0  501 -0.00000000000E+00 -0.00000000000E+00 -0.12319150037E+04  0.12319150037E+04  0.25500000000E-02 0. -1.
    5000001    1    1    2    0    0  0.21523609452E+03  0.10845627809E+03 -0.61149195117E+03  0.68674066938E+03  0.19900000000E+03 0.  0.
   -5000001    1    1    2    0    0 -0.21523609452E+03 -0.10845627809E+03 -0.54089299696E+03  0.62470438994E+03  0.19900000000E+03 0.  0.
<mgrwt>
<rscale>  0 0.62601683E+03</rscale>
<asrwt>0</asrwt>
<pdfrwt beam="1">  1        2 0.11361437E-01 0.62601683E+03</pdfrwt>
<pdfrwt beam="2">  1       -2 0.17598785E+00 0.62601683E+03</pdfrwt>
<totfact> 0.11149545E+02</totfact>
</mgrwt>
</event>
<event>
 4    1  0.5023236E-005  0.6836928E+03  0.7818608E-02  0.9745533E-01
          2   -1    0    0  501    0  0.00000000000E+00  0.00000000000E+00  0.16620727485E+04  0.16620727485E+04  0.25500000000E-02 0.  1.
         -2   -1    0    0    0  501 -0.00000000000E+00 -0.00000000000E+00 -0.70309163403E+02  0.70309163449E+02  0.25500000000E-02 0. -1.
    5000001    1    1    2    0    0 -0.20196962623E+03  0.18646529107E+03  0.90026053146E+03  0.96209721920E+03  0.19900000000E+03 0.  0.
   -5000001    1    1    2    0    0  0.20196962623E+03 -0.18646529107E+03  0.69150305364E+03  0.77028469275E+03  0.19900000000E+03 0.  0.
<mgrwt>
<rscale>  0 0.68369275E+03</rscale>
<asrwt>0</asrwt>
<pdfrwt beam="1">  1        2 0.23743894E+00 0.68369275E+03</pdfrwt>
<pdfrwt beam="2">  1       -2 0.10044167E-01 0.68369275E+03</pdfrwt>
<totfact> 0.83103288E+02</totfact>
</mgrwt>
</event>
<event>
 4    1  0.5023236E-005  0.6579817E+03  0.7818608E-02  0.9791916E-01
          2   -1    0    0  501    0  0.00000000000E+00  0.00000000000E+00  0.26728824690E+03  0.26728824692E+03  0.25500000000E-02 0.  1.
         -2   -1    0    0    0  501 -0.00000000000E+00 -0.00000000000E+00 -0.40493727722E+03  0.40493727722E+03  0.25500000000E-02 0. -1.
    5000001    1    1    2    0    0 -0.16659928944E+03  0.19850056724E+03 -0.29571742762E+02  0.32807512312E+03  0.19900000000E+03 0.  0.
   -5000001    1    1    2    0    0  0.16659928944E+03 -0.19850056724E+03 -0.10807728755E+03  0.34415040102E+03  0.19900000000E+03 0.  0.
<mgrwt>
<rscale>  0 0.65798169E+03</rscale>
<asrwt>0</asrwt>
<pdfrwt beam="1">  1        2 0.38184036E-01 0.65798169E+03</pdfrwt>
<pdfrwt beam="2">  1       -2 0.57848182E-01 0.65798169E+03</pdfrwt>
<totfact> 0.38287602E+02</totfact>
</mgrwt>
</event>
<event>
 4    1  0.5023236E-005  0.6793111E+03  0.7818608E-02  0.9753282E-01
         -2   -1    0    0    0  501 -0.00000000000E+00  0.00000000000E+00  0.19479076147E+04  0.19479076147E+04  0.25500000000E-02 0. -1.
          2   -1    0    0  501    0  0.00000000000E+00 -0.00000000000E+00 -0.59225539869E+02  0.59225539924E+02  0.25500000000E-02 0.  1.
    5000001    1    1    2    0    0  0.12198403018E+03  0.13516435721E+03  0.33439608074E+03  0.42961755771E+03  0.19900000000E+03 0.  0.
   -5000001    1    1    2    0    0 -0.12198403018E+03 -0.13516435721E+03  0.15542859941E+04  0.15775155969E+04  0.19900000000E+03 0.  0.
<mgrwt>
<rscale>  0 0.67931106E+03</rscale>
<asrwt>0</asrwt>
<pdfrwt beam="1">  1        2 0.84607919E-02 0.67931106E+03</pdfrwt>
<pdfrwt beam="2">  1       -2 0.27827250E+00 0.67931106E+03</pdfrwt>
<totfact> 0.37040156E+01</totfact>
</mgrwt>
</event>
<event>
 4    1  0.5023236E-005  0.7208551E+03  0.7818608E-02  0.9682217E-01
         -2   -1    0    0    0  501 -0.00000000000E+00  0.00000000000E+00  0.12554192186E+03  0.12554192188E+03  0.25500000000E-02 0. -1.
          2   -1    0    0  501    0  0.00000000000E+00 -0.00000000000E+00 -0.10347779771E+04  0.10347779771E+04  0.25500000000E-02 0.  1.
    5000001    1    1    2    0    0 -0.12062200423E+03  0.27244976191E+03 -0.51754820857E+03  0.62947254814E+03  0.19900000000E+03 0.  0.
   -5000001    1    1    2    0    0  0.12062200423E+03 -0.27244976191E+03 -0.39168784668E+03  0.53084735085E+03  0.19900000000E+03 0.  0.
<mgrwt>
<rscale>  0 0.72085509E+03</rscale>
<asrwt>0</asrwt>
<pdfrwt beam="1">  1        2 0.14782542E+00 0.72085509E+03</pdfrwt>
<pdfrwt beam="2">  1       -2 0.17934561E-01 0.72085509E+03</pdfrwt>
<totfact> 0.69289081E+02</totfact>
</mgrwt>
</event>
<event>
 4    1  0.5023236E-005  0.9399607E+03  0.7818608E-02  0.9376963E-01
          2   -1    0    0  501    0  0.00000000000E+00  0.00000000000E+00  0.14308040040E+04  0.14308040040E+04  0.25500000000E-02 0.  1.
         -2   -1    0    0    0  501 -0.00000000000E+00 -0.00000000000E+00 -0.15437580992E+03  0.15437580994E+03  0.25500000000E-02 0. -1.
    5000001    1    1    2    0    0 -0.24571431681E+03 -0.25536547737E+03  0.10362030302E+04  0.11130609922E+04  0.19900000000E+03 0.  0.
   -5000001    1    1    2    0    0  0.24571431681E+03  0.25536547737E+03  0.24022516392E+03  0.47211882180E+03  0.19900000000E+03 0.  0.
<mgrwt>
<rscale>  0 0.93996069E+03</rscale>
<asrwt>0</asrwt>
<pdfrwt beam="1">  1        2 0.20440058E+00 0.93996069E+03</pdfrwt>
<pdfrwt beam="2">  1       -2 0.22053687E-01 0.93996069E+03</pdfrwt>
<totfact> 0.28576030E+02</totfact>
</mgrwt>
</event>
<event>
 4    1  0.5023236E-005  0.6321476E+03  0.7818608E-02  0.9840867E-01
         -2   -1    0    0    0  501 -0.00000000000E+00  0.00000000000E+00  0.65635970881E+02  0.65635970930E+02  0.25500000000E-02 0. -1.
          2   -1    0    0  501    0  0.00000000000E+00 -0.00000000000E+00 -0.15220714948E+04  0.15220714948E+04  0.25500000000E-02 0.  1.
    5000001    1    1    2    0    0  0.16069010955E+03 -0.18141305140E+03 -0.82772420060E+03  0.88513296107E+03  0.19900000000E+03 0.  0.
   -5000001    1    1    2    0    0 -0.16069010955E+03  0.18141305140E+03 -0.62871132335E+03  0.70257450469E+03  0.19900000000E+03 0.  0.
<mgrwt>
<rscale>  0 0.63214758E+03</rscale>
<asrwt>0</asrwt>
<pdfrwt beam="1">  1        2 0.21743876E+00 0.63214758E+03</pdfrwt>
<pdfrwt beam="2">  1       -2 0.93765682E-02 0.63214758E+03</pdfrwt>
<totfact> 0.10997485E+03</totfact>
</mgrwt>
</event>
<event>
 4    1  0.5023236E-005  0.7121150E+03  0.7818608E-02  0.9696735E-01
          2   -1    0    0  501    0  0.00000000000E+00  0.00000000000E+00  0.39550210274E+04  0.39550210274E+04  0.25500000000E-02 0.  1.
         -2   -1    0    0    0  501 -0.00000000000E+00 -0.00000000000E+00 -0.32054678923E+02  0.32054679024E+02  0.25500000000E-02 0. -1.
    5000001    1    1    2    0    0 -0.17239819186E+02 -0.28450690134E+03  0.15301648166E+04  0.15691547898E+04  0.19900000000E+03 0.  0.
   -5000001    1    1    2    0    0  0.17239819186E+02  0.28450690134E+03  0.23928015319E+04  0.24179209167E+04  0.19900000000E+03 0.  0.
<mgrwt>
<rscale>  0 0.71211496E+03</rscale>
<asrwt>0</asrwt>
<pdfrwt beam="1">  1        2 0.56500299E+00 0.71211496E+03</pdfrwt>
<pdfrwt beam="2">  1       -2 0.45792400E-02 0.71211496E+03</pdfrwt>
<totfact> 0.15781212E+02</totfact>
</mgrwt>
</event>
<event>
 4    1  0.5023236E-005  0.4399662E+03  0.7818608E-02  0.1030757E+00
         -2   -1    0    0    0  501 -0.00000000000E+00  0.00000000000E+00  0.40912327601E+02  0.40912327680E+02  0.25500000000E-02 0. -1.
          2   -1    0    0  501    0  0.00000000000E+00 -0.00000000000E+00 -0.11828356900E+04  0.11828356900E+04  0.25500000000E-02 0.  1.
    5000001    1    1    2    0    0  0.71490716367E+02 -0.98548742703E+01 -0.40445654640E+03  0.45650206899E+03  0.19900000000E+03 0.  0.
   -5000001    1    1    2    0    0 -0.71490716367E+02  0.98548742703E+01 -0.73746681601E+03  0.76724594869E+03  0.19900000000E+03 0.  0.
<mgrwt>
<rscale>  0 0.43996619E+03</rscale>
<asrwt>0</asrwt>
<pdfrwt beam="1">  1        2 0.16897651E+00 0.43996619E+03</pdfrwt>
<pdfrwt beam="2">  1       -2 0.58446190E-02 0.43996619E+03</pdfrwt>
<totfact> 0.35435329E+03</totfact>
</mgrwt>
</event>
<event>
 4    1  0.5023236E-005  0.8663123E+03  0.7818608E-02  0.9468701E-01
          2   -1    0    0  501    0  0.00000000000E+00  0.00000000000E+00  0.11975682462E+04  0.11975682462E+04  0.25500000000E-02 0.  1.
         -2   -1    0    0    0  501 -0.00000000000E+00 -0.00000000000E+00 -0.15667104393E+03  0.15667104395E+03  0.25500000000E-02 0. -1.
    5000001    1    1    2    0    0 -0.28009008618E+03 -0.22997857242E+03  0.31854054290E+03  0.52192880513E+03  0.19900000000E+03 0.  0.
   -5000001    1    1    2    0    0  0.28009008618E+03  0.22997857242E+03  0.72235665935E+03  0.83231048501E+03  0.19900000000E+03 0.  0.
<mgrwt>
<rscale>  0 0.86631234E+03</rscale>
<asrwt>0</asrwt>
<pdfrwt beam="1">  1        2 0.17108118E+00 0.86631234E+03</pdfrwt>
<pdfrwt beam="2">  1       -2 0.22381578E-01 0.86631234E+03</pdfrwt>
<totfact> 0.37542482E+02</totfact>
</mgrwt>
</event>
<event>
 4    1  0.5023236E-005  0.5751369E+03  0.7818608E-02  0.9958375E-01
         -2   -1    0    0    0  501 -0.00000000000E+00  0.00000000000E+00  0.33479468934E+02  0.33479469031E+02  0.25500000000E-02 0. -1.
          2   -1    0    0  501    0  0.00000000000E+00 -0.00000000000E+00 -0.24700394649E+04  0.24700394649E+04  0.25500000000E-02 0.  1.
    5000001    1    1    2    0    0 -0.56851184559E+02 -0.18249702565E+03 -0.15707686192E+04  0.15948204527E+04  0.19900000000E+03 0.  0.
   -5000001    1    1    2    0    0  0.56851184559E+02  0.18249702565E+03 -0.86579137680E+03  0.90869848118E+03  0.19900000000E+03 0.  0.
<mgrwt>
<rscale>  0 0.57513689E+03</rscale>
<asrwt>0</asrwt>
<pdfrwt beam="1">  1        2 0.35286266E+00 0.57513689E+03</pdfrwt>
<pdfrwt beam="2">  1       -2 0.47827829E-02 0.57513689E+03</pdfrwt>
<totfact> 0.10558430E+03</totfact>
</mgrwt>
</event>
<event>
 4    1  0.5023236E-005  0.4454242E+03  0.7818608E-02  0.1029095E+00
         -2   -1    0    0    0  501 -0.00000000000E+00  0.00000000000E+00  0.79608269201E+03  0.79608269201E+03  0.25500000000E-02 0. -1.
          2   -1    0    0  501    0  0.00000000000E+00 -0.00000000000E+00 -0.62305932183E+02  0.62305932236E+02  0.25500000000E-02 0.  1.
    5000001    1    1    2    0    0 -0.31302068307E+02  0.93889743633E+02  0.39445172959E+03  0.45275630356E+03  0.19900000000E+03 0.  0.
   -5000001    1    1    2    0    0  0.31302068307E+02 -0.93889743633E+02  0.33932503023E+03  0.40563232068E+03  0.19900000000E+03 0.  0.
<mgrwt>
<rscale>  0 0.44542418E+03</rscale>
<asrwt>0</asrwt>
<pdfrwt beam="1">  1        2 0.89008484E-02 0.44542418E+03</pdfrwt>
<pdfrwt beam="2">  1       -2 0.11372609E+00 0.44542418E+03</pdfrwt>
<totfact> 0.47198452E+02</totfact>
</mgrwt>
</event>
<event>
 4    1  0.5023236E-005  0.1013272E+04  0.7818608E-02  0.9294107E-01
          2   -1    0    0  501    0  0.00000000000E+00  0.00000000000E+00  0.16484065928E+04  0.16484065928E+04  0.25500000000E-02 0.  1.
         -2   -1    0    0    0  501 -0.00000000000E+00 -0.00000000000E+00 -0.15571397419E+03  0.15571397421E+03  0.25500000000E-02 0. -1.
    5000001    1    1    2    0    0 -0.35991887453E+03 -0.21580477465E+03  0.11067170253E+04  0.12002236755E+04  0.19900000000E+03 0.  0.
   -5000001    1    1    2    0    0  0.35991887453E+03  0.21580477465E+03  0.38597559328E+03  0.60389689154E+03  0.19900000000E+03 0.  0.
<mgrwt>
<rscale>  0 0.10132718E+04</rscale>
<asrwt>0</asrwt>
<pdfrwt beam="1">  1        2 0.23548665E+00 0.10132718E+04</pdfrwt>
<pdfrwt beam="2">  1       -2 0.22244854E-01 0.10132718E+04</pdfrwt>
<totfact> 0.21521100E+02</totfact>
</mgrwt>
</event>
<event>
 4    1  0.5023236E-005  0.5179226E+03  0.7818608E-02  0.1009204E+00
          2   -1    0    0  501    0  0.00000000000E+00  0.00000000000E+00  0.40431618655E+03  0.40431618656E+03  0.25500000000E-02 0.  1.
         -2   -1    0    0    0  501 -0.00000000000E+00 -0.00000000000E+00 -0.16586262685E+03  0.16586262687E+03  0.25500000000E-02 0. -1.
    5000001    1    1    2    0    0 -0.11709877458E+03  0.88242606331E+02  0.20422467010E+03  0.32063623697E+03  0.19900000000E+03 0.  0.
   -5000001    1    1    2    0    0  0.11709877458E+03 -0.88242606331E+02  0.34228889603E+02  0.24954257646E+03  0.19900000000E+03 0.  0.
<mgrwt>
<rscale>  0 0.51792256E+03</rscale>
<asrwt>0</asrwt>
<pdfrwt beam="1">  1        2 0.57759455E-01 0.51792256E+03</pdfrwt>
<pdfrwt beam="2">  1       -2 0.23694661E-01 0.51792256E+03</pdfrwt>
<totfact> 0.13470721E+03</totfact>
</mgrwt>
</event>
<event>
 4    1  0.5023236E-005  0.5354106E+03  0.7818608E-02  0.1004928E+00
         -2   -1    0    0    0  501 -0.00000000000E+00  0.00000000000E+00  0.37751074284E+02  0.37751074370E+02  0.25500000000E-02 0. -1.
          2   -1    0    0  501    0  0.00000000000E+00 -0.00000000000E+00 -0.18983867882E+04  0.18983867882E+04  0.25500000000E-02 0.  1.
    5000001    1    1    2    0    0  0.76853860191E+02  0.14041022896E+03 -0.64004040129E+03  0.68911121273E+03  0.19900000000E+03 0.  0.
   -5000001    1    1    2    0    0 -0.76853860191E+02 -0.14041022896E+03 -0.12205953127E+04  0.12470266499E+04  0.19900000000E+03 0.  0.
<mgrwt>
<rscale>  0 0.53541065E+03</rscale>
<asrwt>0</asrwt>
<pdfrwt beam="1">  1        2 0.27119805E+00 0.53541065E+03</pdfrwt>
<pdfrwt beam="2">  1       -2 0.53930118E-02 0.53541065E+03</pdfrwt>
<totfact> 0.17044206E+03</totfact>
</mgrwt>
</event>
<event>
 4    1  0.5023236E-005  0.6231681E+03  0.7818608E-02  0.9858472E-01
         -2   -1    0    0    0  501 -0.00000000000E+00  0.00000000000E+00  0.21480696159E+03  0.21480696161E+03  0.25500000000E-02 0. -1.
          2   -1    0    0  501    0  0.00000000000E+00 -0.00000000000E+00 -0.45196222798E+03  0.45196222799E+03  0.25500000000E-02 0.  1.
    5000001    1    1    2    0    0  0.11082979299E+03  0.21238631239E+03 -0.12886514239E+03  0.33704363757E+03  0.19900000000E+03 0.  0.
   -5000001    1    1    2    0    0 -0.11082979299E+03 -0.21238631239E+03 -0.10829012400E+03  0.32972555203E+03  0.19900000000E+03 0.  0.
<mgrwt>
<rscale>  0 0.62316814E+03</rscale>
<asrwt>0</asrwt>
<pdfrwt beam="1">  1        2 0.64566033E-01 0.62316814E+03</pdfrwt>
<pdfrwt beam="2">  1       -2 0.30686709E-01 0.62316814E+03</pdfrwt>
<totfact> 0.74354015E+02</totfact>
</mgrwt>
</event>
<event>
 4    1  0.5023236E-005  0.4403502E+03  0.7818608E-02  0.1030639E+00
         -2   -1    0    0    0  501 -0.00000000000E+00  0.00000000000E+00  0.26377464825E+02  0.26377464949E+02  0.25500000000E-02 0. -1.
          2   -1    0    0  501    0  0.00000000000E+00 -0.00000000000E+00 -0.18378211909E+04  0.18378211909E+04  0.25500000000E-02 0.  1.
    5000001    1    1    2    0    0  0.42009074507E+02  0.81738733527E+02 -0.81792698366E+03  0.84678895452E+03  0.19900000000E+03 0.  0.
   -5000001    1    1    2    0    0 -0.42009074507E+02 -0.81738733527E+02 -0.99351674238E+03  0.10174097013E+04  0.19900000000E+03 0.  0.
<mgrwt>
<rscale>  0 0.44035015E+03</rscale>
<asrwt>0</asrwt>
<pdfrwt beam="1">  1        2 0.26254580E+00 0.44035015E+03</pdfrwt>
<pdfrwt beam="2">  1       -2 0.37682104E-02 0.44035015E+03</pdfrwt>
<totfact> 0.31801338E+03</totfact>
</mgrwt>
</event>
<event>
 4    1  0.5023236E-005  0.6886889E+03  0.7818608E-02  0.9736774E-01
         -2   -1    0    0    0  501 -0.00000000000E+00  0.00000000000E+00  0.62897146835E+02  0.62897146886E+02  0.25500000000E-02 0. -1.
          2   -1    0    0  501    0  0.00000000000E+00 -0.00000000000E+00 -0.18851906527E+04  0.18851906527E+04  0.25500000000E-02 0.  1.
    5000001    1    1    2    0    0 -0.25285059758E+03  0.97224034412E+02 -0.69972838394E+03  0.77627749475E+03  0.19900000000E+03 0.  0.
   -5000001    1    1    2    0    0  0.25285059758E+03 -0.97224034412E+02 -0.11225651219E+04  0.11718103048E+04  0.19900000000E+03 0.  0.
<mgrwt>
<rscale>  0 0.68868894E+03</rscale>
<asrwt>0</asrwt>
<pdfrwt beam="1">  1        2 0.26931291E+00 0.68868894E+03</pdfrwt>
<pdfrwt beam="2">  1       -2 0.89853079E-02 0.68868894E+03</pdfrwt>
<totfact> 0.76623997E+02</totfact>
</mgrwt>
</event>
<event>
 4    1  0.5023236E-005  0.8052184E+03  0.7818608E-02  0.9552494E-01
          2   -1    0    0  501    0  0.00000000000E+00  0.00000000000E+00  0.52118451530E+03  0.52118451531E+03  0.25500000000E-02 0. -1.
         -2   -1    0    0    0  501 -0.00000000000E+00 -0.00000000000E+00 -0.31101107177E+03  0.31101107178E+03  0.25500000000E-02 0.  1.
    5000001    1    1    2    0    0 -0.29101292989E+03 -0.17810365044E+03  0.18569809330E+03  0.43645643256E+03  0.19900000000E+03 0.  0.
   -5000001    1    1    2    0    0  0.29101292989E+03  0.17810365044E+03  0.24475350232E+02  0.39573915454E+03  0.19900000000E+03 0.  0.
<mgrwt>
<rscale>  0 0.80521837E+03</rscale>
<asrwt>0</asrwt>
<pdfrwt beam="1">  1        2 0.74454931E-01 0.80521837E+03</pdfrwt>
<pdfrwt beam="2">  1       -2 0.44430153E-01 0.80521837E+03</pdfrwt>
<totfact> 0.30914408E+02</totfact>
</mgrwt>
</event>
<event>
 4    1  0.5023236E-005  0.4484054E+03  0.7818608E-02  0.1028199E+00
          2   -1    0    0  501    0  0.00000000000E+00  0.00000000000E+00  0.16243718551E+04  0.16243718551E+04  0.25500000000E-02 0.  1.
         -2   -1    0    0    0  501 -0.00000000000E+00 -0.00000000000E+00 -0.30945405300E+02  0.30945405405E+02  0.25500000000E-02 0. -1.
    5000001    1    1    2    0    0 -0.88412723056E+02  0.52481959741E+02  0.83263345545E+03  0.86223583597E+03  0.19900000000E+03 0.  0.
   -5000001    1    1    2    0    0  0.88412723056E+02 -0.52481959741E+02  0.76079299439E+03  0.79308142458E+03  0.19900000000E+03 0.  0.
<mgrwt>
<rscale>  0 0.44840538E+03</rscale>
<asrwt>0</asrwt>
<pdfrwt beam="1">  1        2 0.23205315E+00 0.44840538E+03</pdfrwt>
<pdfrwt beam="2">  1       -2 0.44207717E-02 0.44840538E+03</pdfrwt>
<totfact> 0.31890950E+03</totfact>
</mgrwt>
</event>
<event>
 4    1  0.5023236E-005  0.7555519E+03  0.7818608E-02  0.9626680E-01
         -2   -1    0    0    0  501 -0.00000000000E+00  0.00000000000E+00  0.66664310267E+02  0.66664310316E+02  0.25500000000E-02 0. -1.
          2   -1    0    0  501    0  0.00000000000E+00 -0.00000000000E+00 -0.21407955270E+04  0.21407955270E+04  0.25500000000E-02 0.  1.
    5000001    1    1    2    0    0  0.12057442857E+03 -0.11036626993E+03 -0.18445986202E+04  0.18624886512E+04  0.19900000000E+03 0.  0.
   -5000001    1    1    2    0    0 -0.12057442857E+03  0.11036626993E+03 -0.22953259660E+03  0.34497118614E+03  0.19900000000E+03 0.  0.
<mgrwt>
<rscale>  0 0.75555187E+03</rscale>
<asrwt>0</asrwt>
<pdfrwt beam="1">  1        2 0.30582789E+00 0.75555187E+03</pdfrwt>
<pdfrwt beam="2">  1       -2 0.95234742E-02 0.75555187E+03</pdfrwt>
<totfact> 0.51581134E+02</totfact>
</mgrwt>
</event>
<event>
 4    1  0.5023236E-005  0.5258168E+03  0.7818608E-02  0.1007252E+00
          2   -1    0    0  501    0  0.00000000000E+00  0.00000000000E+00  0.49977639151E+03  0.49977639151E+03  0.25500000000E-02 0.  1.
         -2   -1    0    0    0  501 -0.00000000000E+00 -0.00000000000E+00 -0.13830350058E+03  0.13830350060E+03  0.25500000000E-02 0. -1.
    5000001    1    1    2    0    0  0.15844713573E+03  0.65469726743E+02  0.19446804416E+03  0.32681891032E+03  0.19900000000E+03 0.  0.
   -5000001    1    1    2    0    0 -0.15844713573E+03 -0.65469726743E+02  0.16700484677E+03  0.31126098180E+03  0.19900000000E+03 0.  0.
<mgrwt>
<rscale>  0 0.52581679E+03</rscale>
<asrwt>0</asrwt>
<pdfrwt beam="1">  1        2 0.71396627E-01 0.52581679E+03</pdfrwt>
<pdfrwt beam="2">  1       -2 0.19757643E-01 0.52581679E+03</pdfrwt>
<totfact> 0.14619327E+03</totfact>
</mgrwt>
</event>
<event>
 4    1  0.5023236E-005  0.6007774E+03  0.7818608E-02  0.9903795E-01
         -2   -1    0    0    0  501 -0.00000000000E+00  0.00000000000E+00  0.87530257129E+02  0.87530257166E+02  0.25500000000E-02 0. -1.
          2   -1    0    0  501    0  0.00000000000E+00 -0.00000000000E+00 -0.10308819591E+04  0.10308819592E+04  0.25500000000E-02 0.  1.
    5000001    1    1    2    0    0  0.20597055163E+03  0.23730126002E+02 -0.63445087119E+03  0.69650261663E+03  0.19900000000E+03 0.  0.
   -5000001    1    1    2    0    0 -0.20597055163E+03 -0.23730126002E+02 -0.30890083083E+03  0.42190959968E+03  0.19900000000E+03 0.  0.
<mgrwt>
<rscale>  0 0.60077737E+03</rscale>
<asrwt>0</asrwt>
<pdfrwt beam="1">  1        2 0.14726884E+00 0.60077737E+03</pdfrwt>
<pdfrwt beam="2">  1       -2 0.12504323E-01 0.60077737E+03</pdfrwt>
<totfact> 0.12844917E+03</totfact>
</mgrwt>
</event>
<event>
 4    1  0.5023236E-005  0.6095774E+03  0.7818608E-02  0.9885733E-01
         -2   -1    0    0    0  501 -0.00000000000E+00  0.00000000000E+00  0.29774862218E+03  0.29774862219E+03  0.25500000000E-02 0.  1.
          2   -1    0    0  501    0  0.00000000000E+00 -0.00000000000E+00 -0.31199525276E+03  0.31199525277E+03  0.25500000000E-02 0. -1.
    5000001    1    1    2    0    0 -0.12581869232E+03  0.77543601696E+02 -0.18451830593E+03  0.30901676124E+03  0.19900000000E+03 0.  0.
   -5000001    1    1    2    0    0  0.12581869232E+03 -0.77543601696E+02  0.17027167535E+03  0.30072711373E+03  0.19900000000E+03 0.  0.
<mgrwt>
<rscale>  0 0.60957742E+03</rscale>
<asrwt>0</asrwt>
<pdfrwt beam="1">  1        2 0.44570750E-01 0.60957742E+03</pdfrwt>
<pdfrwt beam="2">  1       -2 0.42535517E-01 0.60957742E+03</pdfrwt>
<totfact> 0.60208281E+02</totfact>
</mgrwt>
</event>
<event>
 4    1  0.5023236E-005  0.6335208E+03  0.7818608E-02  0.9838202E-01
         -2   -1    0    0    0  501 -0.00000000000E+00  0.00000000000E+00  0.34050928328E+03  0.34050928329E+03  0.25500000000E-02 0. -1.
          2   -1    0    0  501    0  0.00000000000E+00 -0.00000000000E+00 -0.29466791632E+03  0.29466791633E+03  0.25500000000E-02 0.  1.
    5000001    1    1    2    0    0 -0.24257020410E+03  0.38523721128E+02  0.25752653215E+01  0.31612025085E+03  0.19900000000E+03 0.  0.
   -5000001    1    1    2    0    0  0.24257020410E+03 -0.38523721128E+02  0.43266101635E+02  0.31905694877E+03  0.19900000000E+03 0.  0.
<mgrwt>
<rscale>  0 0.63352083E+03</rscale>
<asrwt>0</asrwt>
<pdfrwt beam="1">  1        2 0.42095417E-01 0.63352083E+03</pdfrwt>
<pdfrwt beam="2">  1       -2 0.48644183E-01 0.63352083E+03</pdfrwt>
<totfact> 0.49078556E+02</totfact>
</mgrwt>
</event>
<event>
 4    1  0.5023236E-005  0.4561402E+03  0.7818608E-02  0.1025907E+00
          2   -1    0    0  501    0  0.00000000000E+00  0.00000000000E+00  0.83280736470E+03  0.83280736471E+03  0.25500000000E-02 0.  1.
         -2   -1    0    0    0  501 -0.00000000000E+00 -0.00000000000E+00 -0.62458578718E+02  0.62458578770E+02  0.25500000000E-02 0. -1.
    5000001    1    1    2    0    0 -0.54569153620E+02  0.39014003975E+02  0.21055946181E+03  0.29738219851E+03  0.19900000000E+03 0.  0.
   -5000001    1    1    2    0    0  0.54569153620E+02 -0.39014003975E+02  0.55978932418E+03  0.59788374497E+03  0.19900000000E+03 0.  0.
<mgrwt>
<rscale>  0 0.45614017E+03</rscale>
<asrwt>0</asrwt>
<pdfrwt beam="1">  1        2 0.11897248E+00 0.45614017E+03</pdfrwt>
<pdfrwt beam="2">  1       -2 0.89226544E-02 0.45614017E+03</pdfrwt>
<totfact> 0.29655737E+03</totfact>
</mgrwt>
</event>
<event>
 4    1  0.5023236E-005  0.6955660E+03  0.7818608E-02  0.9724845E-01
         -2   -1    0    0    0  501 -0.00000000000E+00  0.00000000000E+00  0.12109990173E+03  0.12109990176E+03  0.25500000000E-02 0. -1.
          2   -1    0    0  501    0  0.00000000000E+00 -0.00000000000E+00 -0.99878719861E+03  0.99878719862E+03  0.25500000000E-02 0.  1.
    5000001    1    1    2    0    0  0.26474955889E+03  0.91991305626E+02 -0.52399775070E+03  0.62668123634E+03  0.19900000000E+03 0.  0.
   -5000001    1    1    2    0    0 -0.26474955889E+03 -0.91991305626E+02 -0.35368954618E+03  0.49320586404E+03  0.19900000000E+03 0.  0.
<mgrwt>
<rscale>  0 0.69556605E+03</rscale>
<asrwt>0</asrwt>
<pdfrwt beam="1">  1        2 0.14268388E+00 0.69556605E+03</pdfrwt>
<pdfrwt beam="2">  1       -2 0.17299986E-01 0.69556605E+03</pdfrwt>
<totfact> 0.77588999E+02</totfact>
</mgrwt>
</event>
<event>
 4    1  0.5023236E-005  0.4664993E+03  0.7818608E-02  0.1022913E+00
         -2   -1    0    0    0  501 -0.00000000000E+00  0.00000000000E+00  0.28409138375E+03  0.28409138376E+03  0.25500000000E-02 0. -1.
          2   -1    0    0  501    0  0.00000000000E+00 -0.00000000000E+00 -0.19150665062E+03  0.19150665064E+03  0.25500000000E-02 0.  1.
    5000001    1    1    2    0    0  0.11993753115E+02  0.64803580668E+02 -0.57981727568E+02  0.21749996532E+03  0.19900000000E+03 0.  0.
   -5000001    1    1    2    0    0 -0.11993753115E+02 -0.64803580668E+02  0.15056646070E+03  0.25809806909E+03  0.19900000000E+03 0.  0.
<mgrwt>
<rscale>  0 0.46649926E+03</rscale>
<asrwt>0</asrwt>
<pdfrwt beam="1">  1        2 0.27358093E-01 0.46649926E+03</pdfrwt>
<pdfrwt beam="2">  1       -2 0.40584484E-01 0.46649926E+03</pdfrwt>
<totfact> 0.11354496E+03</totfact>
</mgrwt>
</event>
<event>
 4    1  0.5023236E-005  0.7326090E+03  0.7818608E-02  0.9663036E-01
          2   -1    0    0  501    0  0.00000000000E+00  0.00000000000E+00  0.26519953657E+03  0.26519953658E+03  0.25500000000E-02 0.  1.
         -2   -1    0    0    0  501 -0.00000000000E+00 -0.00000000000E+00 -0.50595487450E+03  0.50595487450E+03  0.25500000000E-02 0. -1.
    5000001    1    1    2    0    0  0.20468911525E+03  0.30520924734E+02  0.11907483231E+03  0.31081984563E+03  0.19900000000E+03 0.  0.
   -5000001    1    1    2    0    0 -0.20468911525E+03 -0.30520924734E+02 -0.35983017023E+03  0.46033456546E+03  0.19900000000E+03 0.  0.
<mgrwt>
<rscale>  0 0.73260903E+03</rscale>
<asrwt>0</asrwt>
<pdfrwt beam="1">  1        2 0.37885648E-01 0.73260903E+03</pdfrwt>
<pdfrwt beam="2">  1       -2 0.72279267E-01 0.73260903E+03</pdfrwt>
<totfact> 0.23923694E+02</totfact>
</mgrwt>
</event>
<event>
 4    1  0.5023236E-005  0.5633003E+03  0.7818608E-02  0.9984615E-01
          2   -1    0    0  501    0  0.00000000000E+00  0.00000000000E+00  0.33052111896E+03  0.33052111897E+03  0.25500000000E-02 0. -1.
         -2   -1    0    0    0  501 -0.00000000000E+00 -0.00000000000E+00 -0.24000527650E+03  0.24000527652E+03  0.25500000000E-02 0.  1.
    5000001    1    1    2    0    0  0.15888627137E+03  0.57114429195E+02  0.15253600908E+03  0.30228321044E+03  0.19900000000E+03 0.  0.
   -5000001    1    1    2    0    0 -0.15888627137E+03 -0.57114429195E+02 -0.62020166622E+02  0.26824318504E+03  0.19900000000E+03 0.  0.
<mgrwt>
<rscale>  0 0.56330032E+03</rscale>
<asrwt>0</asrwt>
<pdfrwt beam="1">  1        2 0.47217303E-01 0.56330032E+03</pdfrwt>
<pdfrwt beam="2">  1       -2 0.34286468E-01 0.56330032E+03</pdfrwt>
<totfact> 0.85591838E+02</totfact>
</mgrwt>
</event>
<event>
 4    1  0.5023236E-005  0.6643966E+03  0.7818608E-02  0.9780134E-01
          2   -1    0    0  501    0  0.00000000000E+00  0.00000000000E+00  0.12418399508E+04  0.12418399508E+04  0.25500000000E-02 0.  1.
         -2   -1    0    0    0  501 -0.00000000000E+00 -0.00000000000E+00 -0.88864668299E+02  0.88864668335E+02  0.25500000000E-02 0. -1.
    5000001    1    1    2    0    0 -0.15880155696E+03 -0.17487440779E+03  0.82142650532E+03  0.87757706023E+03  0.19900000000E+03 0.  0.
   -5000001    1    1    2    0    0  0.15880155696E+03  0.17487440779E+03  0.33154877717E+03  0.45312755890E+03  0.19900000000E+03 0.  0.
<mgrwt>
<rscale>  0 0.66439655E+03</rscale>
<asrwt>0</asrwt>
<pdfrwt beam="1">  1        2 0.17740571E+00 0.66439655E+03</pdfrwt>
<pdfrwt beam="2">  1       -2 0.12694952E-01 0.66439655E+03</pdfrwt>
<totfact> 0.94547992E+02</totfact>
</mgrwt>
</event>
<event>
 4    1  0.5023236E-005  0.1094679E+04  0.7818608E-02  0.9210394E-01
          2   -1    0    0  501    0  0.00000000000E+00  0.00000000000E+00  0.12886390237E+04  0.12886390237E+04  0.25500000000E-02 0.  1.
         -2   -1    0    0    0  501 -0.00000000000E+00 -0.00000000000E+00 -0.23247826292E+03  0.23247826294E+03  0.25500000000E-02 0. -1.
    5000001    1    1    2    0    0  0.16216358847E+03 -0.45240940871E+03  0.29141391483E+03  0.59623348805E+03  0.19900000000E+03 0.  0.
   -5000001    1    1    2    0    0 -0.16216358847E+03  0.45240940871E+03  0.76474684596E+03  0.92488379860E+03  0.19900000000E+03 0.  0.
<mgrwt>
<rscale>  0 0.10946791E+04</rscale>
<asrwt>0</asrwt>
<pdfrwt beam="1">  1        2 0.18409128E+00 0.10946791E+04</pdfrwt>
<pdfrwt beam="2">  1       -2 0.33211182E-01 0.10946791E+04</pdfrwt>
<totfact> 0.15988800E+02</totfact>
</mgrwt>
</event>
<event>
 4    1  0.5023236E-005  0.7793719E+03  0.7818608E-02  0.9590365E-01
          2   -1    0    0  501    0  0.00000000000E+00  0.00000000000E+00  0.11431911897E+04  0.11431911897E+04  0.25500000000E-02 0.  1.
         -2   -1    0    0    0  501 -0.00000000000E+00 -0.00000000000E+00 -0.13283443469E+03  0.13283443471E+03  0.25500000000E-02 0. -1.
    5000001    1    1    2    0    0 -0.10661287444E+03  0.27185092542E+03  0.77413066087E+03  0.85096915969E+03  0.19900000000E+03 0.  0.
   -5000001    1    1    2    0    0  0.10661287444E+03 -0.27185092542E+03  0.23622609412E+03  0.42505646471E+03  0.19900000000E+03 0.  0.
<mgrwt>
<rscale>  0 0.77937194E+03</rscale>
<asrwt>0</asrwt>
<pdfrwt beam="1">  1        2 0.16331302E+00 0.77937194E+03</pdfrwt>
<pdfrwt beam="2">  1       -2 0.18976348E-01 0.77937194E+03</pdfrwt>
<totfact> 0.54120459E+02</totfact>
</mgrwt>
</event>
<event>
 4    1  0.5023236E-005  0.6356371E+03  0.7818608E-02  0.9834110E-01
          2   -1    0    0  501    0  0.00000000000E+00  0.00000000000E+00  0.14806928883E+04  0.14806928883E+04  0.25500000000E-02 0.  1.
         -2   -1    0    0    0  501 -0.00000000000E+00 -0.00000000000E+00 -0.68217139466E+02  0.68217139514E+02  0.25500000000E-02 0. -1.
    5000001    1    1    2    0    0  0.14961540033E+03 -0.18922770604E+03  0.84442177578E+03  0.90046711664E+03  0.19900000000E+03 0.  0.
   -5000001    1    1    2    0    0 -0.14961540033E+03  0.18922770604E+03  0.56805397307E+03  0.64844291119E+03  0.19900000000E+03 0.  0.
<mgrwt>
<rscale>  0 0.63563711E+03</rscale>
<asrwt>0</asrwt>
<pdfrwt beam="1">  1        2 0.21152754E+00 0.63563711E+03</pdfrwt>
<pdfrwt beam="2">  1       -2 0.97453064E-02 0.63563711E+03</pdfrwt>
<totfact> 0.10858051E+03</totfact>
</mgrwt>
</event>
<event>
 4    1  0.5023236E-005  0.5817375E+03  0.7818608E-02  0.9944036E-01
         -2   -1    0    0    0  501 -0.00000000000E+00  0.00000000000E+00  0.54231371028E+02  0.54231371088E+02  0.25500000000E-02 0. -1.
          2   -1    0    0  501    0  0.00000000000E+00 -0.00000000000E+00 -0.15600683050E+04  0.15600683051E+04  0.25500000000E-02 0.  1.
    5000001    1    1    2    0    0 -0.14417160929E+03 -0.93049909705E+02 -0.40677150151E+03  0.48426004694E+03  0.19900000000E+03 0.  0.
   -5000001    1    1    2    0    0  0.14417160929E+03  0.93049909705E+02 -0.10990654325E+04  0.11300396292E+04  0.19900000000E+03 0.  0.
<mgrwt>
<rscale>  0 0.58173755E+03</rscale>
<asrwt>0</asrwt>
<pdfrwt beam="1">  1        2 0.22286687E+00 0.58173755E+03</pdfrwt>
<pdfrwt beam="2">  1       -2 0.77473397E-02 0.58173755E+03</pdfrwt>
<totfact> 0.14295356E+03</totfact>
</mgrwt>
</event>
<event>
 4    1  0.5023236E-005  0.8048649E+03  0.7818608E-02  0.9553002E-01
          2   -1    0    0  501    0  0.00000000000E+00  0.00000000000E+00  0.16852161876E+04  0.16852161876E+04  0.25500000000E-02 0.  1.
         -2   -1    0    0    0  501 -0.00000000000E+00 -0.00000000000E+00 -0.96101537938E+02  0.96101537972E+02  0.25500000000E-02 0. -1.
    5000001    1    1    2    0    0  0.75501916182E+02 -0.14528067230E+03  0.11045700673E+03  0.28037254400E+03  0.19900000000E+03 0.  0.
   -5000001    1    1    2    0    0 -0.75501916182E+02  0.14528067230E+03  0.14786576430E+04  0.15009451816E+04  0.19900000000E+03 0.  0.
<mgrwt>
<rscale>  0 0.80486488E+03</rscale>
<asrwt>0</asrwt>
<pdfrwt beam="1">  1        2 0.24074517E+00 0.80486488E+03</pdfrwt>
<pdfrwt beam="2">  1       -2 0.13728791E-01 0.80486488E+03</pdfrwt>
<totfact> 0.47968828E+02</totfact>
</mgrwt>
</event>
<event>
 4    1  0.5023236E-005  0.5042411E+03  0.7818608E-02  0.1012678E+00
         -2   -1    0    0    0  501 -0.00000000000E+00  0.00000000000E+00  0.11061507370E+03  0.11061507373E+03  0.25500000000E-02 0. -1.
          2   -1    0    0  501    0  0.00000000000E+00 -0.00000000000E+00 -0.57464843288E+03  0.57464843289E+03  0.25500000000E-02 0.  1.
    5000001    1    1    2    0    0  0.14282965186E+03 -0.38529805588E+02 -0.17005280268E+03  0.30067226522E+03  0.19900000000E+03 0.  0.
   -5000001    1    1    2    0    0 -0.14282965186E+03  0.38529805588E+02 -0.29398055649E+03  0.38459124140E+03  0.19900000000E+03 0.  0.
<mgrwt>
<rscale>  0 0.50424113E+03</rscale>
<asrwt>0</asrwt>
<pdfrwt beam="1">  1        2 0.82092631E-01 0.50424113E+03</pdfrwt>
<pdfrwt beam="2">  1       -2 0.15802154E-01 0.50424113E+03</pdfrwt>
<totfact> 0.18251333E+03</totfact>
</mgrwt>
</event>
<event>
 4    1  0.5023236E-005  0.7285355E+03  0.7818608E-02  0.9669640E-01
          2   -1    0    0  501    0  0.00000000000E+00  0.00000000000E+00  0.98432103789E+03  0.98432103789E+03  0.25500000000E-02 0.  1.
         -2   -1    0    0    0  501 -0.00000000000E+00 -0.00000000000E+00 -0.13480459681E+03  0.13480459684E+03  0.25500000000E-02 0. -1.
    5000001    1    1    2    0    0 -0.14431673067E+03  0.24537345343E+03  0.25610151235E+03  0.43153729275E+03  0.19900000000E+03 0.  0.
   -5000001    1    1    2    0    0  0.14431673067E+03 -0.24537345343E+03  0.59341492872E+03  0.68758834199E+03  0.19900000000E+03 0.  0.
<mgrwt>
<rscale>  0 0.72853552E+03</rscale>
<asrwt>0</asrwt>
<pdfrwt beam="1">  1        2 0.14061729E+00 0.72853552E+03</pdfrwt>
<pdfrwt beam="2">  1       -2 0.19257800E-01 0.72853552E+03</pdfrwt>
<totfact> 0.65738876E+02</totfact>
</mgrwt>
</event>
<event>
 4    1  0.5023236E-005  0.4515506E+03  0.7818608E-02  0.1027261E+00
          2   -1    0    0  501    0  0.00000000000E+00  0.00000000000E+00  0.34415231005E+04  0.34415231005E+04  0.25500000000E-02 0.  1.
         -2   -1    0    0    0  501 -0.00000000000E+00 -0.00000000000E+00 -0.14811604172E+02  0.14811604391E+02  0.25500000000E-02 0. -1.
    5000001    1    1    2    0    0 -0.11545119778E+02 -0.97670170420E+02  0.13976906130E+04  0.14152076885E+04  0.19900000000E+03 0.  0.
   -5000001    1    1    2    0    0  0.11545119778E+02  0.97670170420E+02  0.20290208834E+04  0.20411270164E+04  0.19900000000E+03 0.  0.
<mgrwt>
<rscale>  0 0.45155057E+03</rscale>
<asrwt>0</asrwt>
<pdfrwt beam="1">  1        2 0.49164606E+00 0.45155057E+03</pdfrwt>
<pdfrwt beam="2">  1       -2 0.21159439E-02 0.45155057E+03</pdfrwt>
<totfact> 0.10990683E+03</totfact>
</mgrwt>
</event>
<event>
 4    1  0.5023236E-005  0.5304135E+03  0.7818608E-02  0.1006132E+00
         -2   -1    0    0    0  501 -0.00000000000E+00  0.00000000000E+00  0.55180626532E+02  0.55180626591E+02  0.25500000000E-02 0. -1.
          2   -1    0    0  501    0  0.00000000000E+00 -0.00000000000E+00 -0.12746252795E+04  0.12746252795E+04  0.25500000000E-02 0.  1.
    5000001    1    1    2    0    0  0.91213306532E+02 -0.14324390538E+03 -0.71885911469E+03  0.76498242496E+03  0.19900000000E+03 0.  0.
   -5000001    1    1    2    0    0 -0.91213306532E+02  0.14324390538E+03 -0.50058553832E+03  0.56482348118E+03  0.19900000000E+03 0.  0.
<mgrwt>
<rscale>  0 0.53041350E+03</rscale>
<asrwt>0</asrwt>
<pdfrwt beam="1">  1        2 0.18208931E+00 0.53041350E+03</pdfrwt>
<pdfrwt beam="2">  1       -2 0.78829474E-02 0.53041350E+03</pdfrwt>
<totfact> 0.19711756E+03</totfact>
</mgrwt>
</event>
<event>
 4    1  0.5023236E-005  0.5225644E+03  0.7818608E-02  0.1008052E+00
         -2   -1    0    0    0  501 -0.00000000000E+00  0.00000000000E+00  0.31851537832E+02  0.31851537935E+02  0.25500000000E-02 0. -1.
          2   -1    0    0  501    0  0.00000000000E+00 -0.00000000000E+00 -0.21433308027E+04  0.21433308027E+04  0.25500000000E-02 0.  1.
    5000001    1    1    2    0    0  0.14936274763E+03  0.48025200627E+02 -0.79078212941E+03  0.83039329625E+03  0.19900000000E+03 0.  0.
   -5000001    1    1    2    0    0 -0.14936274763E+03 -0.48025200627E+02 -0.13206971355E+04  0.13447890444E+04  0.19900000000E+03 0.  0.
<mgrwt>
<rscale>  0 0.52256438E+03</rscale>
<asrwt>0</asrwt>
<pdfrwt beam="1">  1        2 0.30619002E+00 0.52256438E+03</pdfrwt>
<pdfrwt beam="2">  1       -2 0.45502211E-02 0.52256438E+03</pdfrwt>
<totfact> 0.16728094E+03</totfact>
</mgrwt>
</event>
<event>
 4    1  0.5023236E-005  0.4350217E+03  0.7818608E-02  0.1032285E+00
         -2   -1    0    0    0  501 -0.00000000000E+00  0.00000000000E+00  0.77557245408E+02  0.77557245450E+02  0.25500000000E-02 0. -1.
          2   -1    0    0  501    0  0.00000000000E+00 -0.00000000000E+00 -0.61001340510E+03  0.61001340510E+03  0.25500000000E-02 0.  1.
    5000001    1    1    2    0    0 -0.86658471712E+02  0.13876257188E+02 -0.26183708522E+03  0.34038492979E+03  0.19900000000E+03 0.  0.
   -5000001    1    1    2    0    0  0.86658471712E+02 -0.13876257188E+02 -0.27061907447E+03  0.34718572076E+03  0.19900000000E+03 0.  0.
<mgrwt>
<rscale>  0 0.43502165E+03</rscale>
<asrwt>0</asrwt>
<pdfrwt beam="1">  1        2 0.87144770E-01 0.43502165E+03</pdfrwt>
<pdfrwt beam="2">  1       -2 0.11079607E-01 0.43502165E+03</pdfrwt>
<totfact> 0.30586063E+03</totfact>
</mgrwt>
</event>
<event>
 4    1  0.5023236E-005  0.4487858E+03  0.7818608E-02  0.1028085E+00
          2   -1    0    0  501    0  0.00000000000E+00  0.00000000000E+00  0.12282587212E+04  0.12282587212E+04  0.25500000000E-02 0.  1.
         -2   -1    0    0    0  501 -0.00000000000E+00 -0.00000000000E+00 -0.40994769528E+02  0.40994769608E+02  0.25500000000E-02 0. -1.
    5000001    1    1    2    0    0 -0.80979315957E+02 -0.47554515877E+02  0.46931678414E+03  0.51834190017E+03  0.19900000000E+03 0.  0.
   -5000001    1    1    2    0    0  0.80979315957E+02  0.47554515877E+02  0.71794716750E+03  0.75091159061E+03  0.19900000000E+03 0.  0.
<mgrwt>
<rscale>  0 0.44878584E+03</rscale>
<asrwt>0</asrwt>
<pdfrwt beam="1">  1        2 0.17546553E+00 0.44878584E+03</pdfrwt>
<pdfrwt beam="2">  1       -2 0.58563956E-02 0.44878584E+03</pdfrwt>
<totfact> 0.33341561E+03</totfact>
</mgrwt>
</event>
<event>
 4    1  0.5023236E-005  0.4097634E+03  0.7818608E-02  0.1040450E+00
          2   -1    0    0  501    0  0.00000000000E+00  0.00000000000E+00  0.19397180410E+03  0.19397180412E+03  0.25500000000E-02 0.  1.
         -2   -1    0    0    0  501 -0.00000000000E+00 -0.00000000000E+00 -0.21640518687E+03  0.21640518688E+03  0.25500000000E-02 0. -1.
    5000001    1    1    2    0    0 -0.17256378326E+02 -0.45580519918E+02 -0.11588908147E+02  0.20520884284E+03  0.19900000000E+03 0.  0.
   -5000001    1    1    2    0    0  0.17256378326E+02  0.45580519918E+02 -0.10844474615E+02  0.20516814816E+03  0.19900000000E+03 0.  0.
<mgrwt>
<rscale>  0 0.40976337E+03</rscale>
<asrwt>0</asrwt>
<pdfrwt beam="1">  1        2 0.27710258E-01 0.40976337E+03</pdfrwt>
<pdfrwt beam="2">  1       -2 0.30915027E-01 0.40976337E+03</pdfrwt>
<totfact> 0.18689746E+03</totfact>
</mgrwt>
</event>
<event>
 4    1  0.5023236E-005  0.8428502E+03  0.7818608E-02  0.9499984E-01
          2   -1    0    0  501    0  0.00000000000E+00  0.00000000000E+00  0.15981924768E+04  0.15981924768E+04  0.25500000000E-02 0.  1.
         -2   -1    0    0    0  501 -0.00000000000E+00 -0.00000000000E+00 -0.11112498101E+03  0.11112498104E+03  0.25500000000E-02 0. -1.
    5000001    1    1    2    0    0 -0.34984089639E+03 -0.12489026026E+03  0.73654405913E+03  0.84857785791E+03  0.19900000000E+03 0.  0.
   -5000001    1    1    2    0    0  0.34984089639E+03  0.12489026026E+03  0.75052343665E+03  0.86073959991E+03  0.19900000000E+03 0.  0.
<mgrwt>
<rscale>  0 0.84285019E+03</rscale>
<asrwt>0</asrwt>
<pdfrwt beam="1">  1        2 0.22831319E+00 0.84285019E+03</pdfrwt>
<pdfrwt beam="2">  1       -2 0.15874999E-01 0.84285019E+03</pdfrwt>
<totfact> 0.41532759E+02</totfact>
</mgrwt>
</event>
<event>
 4    1  0.5023236E-005  0.4160745E+03  0.7818608E-02  0.1038352E+00
         -2   -1    0    0    0  501 -0.00000000000E+00  0.00000000000E+00  0.24978765064E+03  0.24978765066E+03  0.25500000000E-02 0. -1.
          2   -1    0    0  501    0  0.00000000000E+00 -0.00000000000E+00 -0.17326512599E+03  0.17326512601E+03  0.25500000000E-02 0.  1.
    5000001    1    1    2    0    0 -0.48336993583E+02  0.32753165043E+02  0.21577093632E+02  0.20850852678E+03  0.19900000000E+03 0.  0.
   -5000001    1    1    2    0    0  0.48336993583E+02 -0.32753165043E+02  0.54945431022E+02  0.21454424989E+03  0.19900000000E+03 0.  0.
<mgrwt>
<rscale>  0 0.41607446E+03</rscale>
<asrwt>0</asrwt>
<pdfrwt beam="1">  1        2 0.24752161E-01 0.41607446E+03</pdfrwt>
<pdfrwt beam="2">  1       -2 0.35683950E-01 0.41607446E+03</pdfrwt>
<totfact> 0.16246128E+03</totfact>
</mgrwt>
</event>
<event>
 4    1  0.5023236E-005  0.5081714E+03  0.7818608E-02  0.1011668E+00
         -2   -1    0    0    0  501 -0.00000000000E+00  0.00000000000E+00  0.74734701001E+02  0.74734701044E+02  0.25500000000E-02 0. -1.
          2   -1    0    0  501    0  0.00000000000E+00 -0.00000000000E+00 -0.86384969526E+03  0.86384969526E+03  0.25500000000E-02 0.  1.
    5000001    1    1    2    0    0  0.98573503644E+02  0.11314129250E+03 -0.48580786355E+03  0.54601095958E+03  0.19900000000E+03 0.  0.
   -5000001    1    1    2    0    0 -0.98573503644E+02 -0.11314129250E+03 -0.30330713071E+03  0.39257343673E+03  0.19900000000E+03 0.  0.
<mgrwt>
<rscale>  0 0.50817142E+03</rscale>
<asrwt>0</asrwt>
<pdfrwt beam="1">  1        2 0.12340709E+00 0.50817142E+03</pdfrwt>
<pdfrwt beam="2">  1       -2 0.10676386E-01 0.50817142E+03</pdfrwt>
<totfact> 0.21195728E+03</totfact>
</mgrwt>
</event>
<event>
 4    1  0.5023236E-005  0.1048138E+04  0.7818608E-02  0.9257269E-01
         -2   -1    0    0    0  501 -0.00000000000E+00  0.00000000000E+00  0.41805810970E+03  0.41805810971E+03  0.25500000000E-02 0. -1.
          2   -1    0    0  501    0  0.00000000000E+00 -0.00000000000E+00 -0.65696193143E+03  0.65696193144E+03  0.25500000000E-02 0.  1.
    5000001    1    1    2    0    0  0.97562520216E+02  0.46801067089E+03 -0.36794456988E+02  0.51914089175E+03  0.19900000000E+03 0.  0.
   -5000001    1    1    2    0    0 -0.97562520216E+02 -0.46801067089E+03 -0.20210936474E+03  0.55587914940E+03  0.19900000000E+03 0.  0.
<mgrwt>
<rscale>  0 0.10481379E+04</rscale>
<asrwt>0</asrwt>
<pdfrwt beam="1">  1        2 0.93851704E-01 0.10481379E+04</pdfrwt>
<pdfrwt beam="2">  1       -2 0.59722587E-01 0.10481379E+04</pdfrwt>
<totfact> 0.12679291E+02</totfact>
</mgrwt>
</event>
<event>
 4    1  0.5023236E-005  0.5571653E+03  0.7818608E-02  0.9998489E-01
          2   -1    0    0  501    0  0.00000000000E+00  0.00000000000E+00  0.64205503460E+03  0.64205503460E+03  0.25500000000E-02 0.  1.
         -2   -1    0    0    0  501 -0.00000000000E+00 -0.00000000000E+00 -0.12087484110E+03  0.12087484112E+03  0.25500000000E-02 0. -1.
    5000001    1    1    2    0    0 -0.12057436697E+03 -0.15203523135E+03  0.28636837967E+03  0.39907485315E+03  0.19900000000E+03 0.  0.
   -5000001    1    1    2    0    0  0.12057436697E+03  0.15203523135E+03  0.23481181383E+03  0.36385502258E+03  0.19900000000E+03 0.  0.
<mgrwt>
<rscale>  0 0.55716533E+03</rscale>
<asrwt>0</asrwt>
<pdfrwt beam="1">  1        2 0.91722147E-01 0.55716533E+03</pdfrwt>
<pdfrwt beam="2">  1       -2 0.17267835E-01 0.55716533E+03</pdfrwt>
<totfact> 0.13782164E+03</totfact>
</mgrwt>
</event>
<event>
 4    1  0.5023236E-005  0.6701030E+03  0.7818608E-02  0.9769772E-01
         -2   -1    0    0    0  501 -0.00000000000E+00  0.00000000000E+00  0.73374317952E+02  0.73374317996E+02  0.25500000000E-02 0. -1.
          2   -1    0    0  501    0  0.00000000000E+00 -0.00000000000E+00 -0.15299564167E+04  0.15299564167E+04  0.25500000000E-02 0.  1.
    5000001    1    1    2    0    0 -0.12713591930E+03  0.14414954839E+03 -0.11804719316E+04  0.12124593253E+04  0.19900000000E+03 0.  0.
   -5000001    1    1    2    0    0  0.12713591930E+03 -0.14414954839E+03 -0.27611016721E+03  0.39087140943E+03  0.19900000000E+03 0.  0.
<mgrwt>
<rscale>  0 0.67010300E+03</rscale>
<asrwt>0</asrwt>
<pdfrwt beam="1">  1        2 0.21856518E+00 0.67010300E+03</pdfrwt>
<pdfrwt beam="2">  1       -2 0.10482046E-01 0.67010300E+03</pdfrwt>
<totfact> 0.90773197E+02</totfact>
</mgrwt>
</event>
<event>
 4    1  0.5023236E-005  0.8716411E+03  0.7818608E-02  0.9461743E-01
          2   -1    0    0  501    0  0.00000000000E+00  0.00000000000E+00  0.32578024716E+04  0.32578024716E+04  0.25500000000E-02 0.  1.
         -2   -1    0    0    0  501 -0.00000000000E+00 -0.00000000000E+00 -0.58302972577E+02  0.58302972633E+02  0.25500000000E-02 0. -1.
    5000001    1    1    2    0    0  0.22881578992E+03  0.22905878276E+03  0.24113889298E+04  0.24411518106E+04  0.19900000000E+03 0.  0.
   -5000001    1    1    2    0    0 -0.22881578992E+03 -0.22905878276E+03  0.78811056923E+03  0.87495363363E+03  0.19900000000E+03 0.  0.
<mgrwt>
<rscale>  0 0.87164114E+03</rscale>
<asrwt>0</asrwt>
<pdfrwt beam="1">  1        2 0.46540041E+00 0.87164114E+03</pdfrwt>
<pdfrwt beam="2">  1       -2 0.83289950E-02 0.87164114E+03</pdfrwt>
<totfact> 0.16142055E+02</totfact>
</mgrwt>
</event>
<event>
 4    1  0.5023236E-005  0.4817151E+03  0.7818608E-02  0.1018665E+00
         -2   -1    0    0    0  501 -0.00000000000E+00  0.00000000000E+00  0.14893271244E+03  0.14893271247E+03  0.25500000000E-02 0. -1.
          2   -1    0    0  501    0  0.00000000000E+00 -0.00000000000E+00 -0.38952060184E+03  0.38952060185E+03  0.25500000000E-02 0.  1.
    5000001    1    1    2    0    0  0.10982154280E+03 -0.41066032408E+02 -0.43955210250E+02  0.23511752548E+03  0.19900000000E+03 0.  0.
   -5000001    1    1    2    0    0 -0.10982154280E+03  0.41066032408E+02 -0.19663267915E+03  0.30333578883E+03  0.19900000000E+03 0.  0.
<mgrwt>
<rscale>  0 0.48171510E+03</rscale>
<asrwt>0</asrwt>
<pdfrwt beam="1">  1        2 0.55645800E-01 0.48171510E+03</pdfrwt>
<pdfrwt beam="2">  1       -2 0.21276102E-01 0.48171510E+03</pdfrwt>
<totfact> 0.16964943E+03</totfact>
</mgrwt>
</event>
<event>
 4    1  0.5023236E-005  0.5048277E+03  0.7818608E-02  0.1012526E+00
          2   -1    0    0  501    0  0.00000000000E+00  0.00000000000E+00  0.14981242404E+04  0.14981242404E+04  0.25500000000E-02 0.  1.
         -2   -1    0    0    0  501 -0.00000000000E+00 -0.00000000000E+00 -0.42528341897E+02  0.42528341973E+02  0.25500000000E-02 0. -1.
    5000001    1    1    2    0    0  0.51465985415E+02  0.12195710831E+03  0.97553237526E+03  0.10043837410E+04  0.19900000000E+03 0.  0.
   -5000001    1    1    2    0    0 -0.51465985415E+02 -0.12195710831E+03  0.48006352321E+03  0.53626884139E+03  0.19900000000E+03 0.  0.
<mgrwt>
<rscale>  0 0.50482765E+03</rscale>
<asrwt>0</asrwt>
<pdfrwt beam="1">  1        2 0.21401780E+00 0.50482765E+03</pdfrwt>
<pdfrwt beam="2">  1       -2 0.60754761E-02 0.50482765E+03</pdfrwt>
<totfact> 0.22618084E+03</totfact>
</mgrwt>
</event>
<event>
 4    1  0.5023236E-005  0.5478558E+03  0.7818608E-02  0.1001991E+00
         -2   -1    0    0    0  501 -0.00000000000E+00  0.00000000000E+00  0.76984988994E+02  0.76984989036E+02  0.25500000000E-02 0. -1.
          2   -1    0    0  501    0  0.00000000000E+00 -0.00000000000E+00 -0.97468983166E+03  0.97468983167E+03  0.25500000000E-02 0.  1.
    5000001    1    1    2    0    0 -0.10117016498E+03 -0.14564058369E+03 -0.57009133427E+03  0.62932639489E+03  0.19900000000E+03 0.  0.
   -5000001    1    1    2    0    0  0.10117016498E+03  0.14564058369E+03 -0.32761350840E+03  0.42234842581E+03  0.19900000000E+03 0.  0.
<mgrwt>
<rscale>  0 0.54785577E+03</rscale>
<asrwt>0</asrwt>
<pdfrwt beam="1">  1        2 0.13924140E+00 0.54785577E+03</pdfrwt>
<pdfrwt beam="2">  1       -2 0.10997856E-01 0.54785577E+03</pdfrwt>
<totfact> 0.17169508E+03</totfact>
</mgrwt>
</event>
<event>
 4    1  0.5023236E-005  0.7754360E+03  0.7818608E-02  0.9596269E-01
          2   -1    0    0  501    0  0.00000000000E+00  0.00000000000E+00  0.65042379256E+03  0.65042379257E+03  0.25500000000E-02 0.  1.
         -2   -1    0    0    0  501 -0.00000000000E+00 -0.00000000000E+00 -0.23111893169E+03  0.23111893171E+03  0.25500000000E-02 0. -1.
    5000001    1    1    2    0    0  0.10854948535E+03  0.20361260068E+03  0.48221596654E+03  0.57041591870E+03  0.19900000000E+03 0.  0.
   -5000001    1    1    2    0    0 -0.10854948535E+03 -0.20361260068E+03 -0.62911105668E+02  0.31112680557E+03  0.19900000000E+03 0.  0.
<mgrwt>
<rscale>  0 0.77543601E+03</rscale>
<asrwt>0</asrwt>
<pdfrwt beam="1">  1        2 0.92917685E-01 0.77543601E+03</pdfrwt>
<pdfrwt beam="2">  1       -2 0.33016990E-01 0.77543601E+03</pdfrwt>
<totfact> 0.42328299E+02</totfact>
</mgrwt>
</event>
<event>
 4    1  0.5023236E-005  0.4899247E+03  0.7818608E-02  0.1016443E+00
          2   -1    0    0  501    0  0.00000000000E+00  0.00000000000E+00  0.86170274124E+02  0.86170274162E+02  0.25500000000E-02 0.  1.
         -2   -1    0    0    0  501 -0.00000000000E+00 -0.00000000000E+00 -0.69637190455E+03  0.69637190455E+03  0.25500000000E-02 0. -1.
    5000001    1    1    2    0    0  0.49375537225E+02 -0.13229812129E+03 -0.27066412249E+03  0.36441844599E+03  0.19900000000E+03 0.  0.
   -5000001    1    1    2    0    0 -0.49375537225E+02  0.13229812129E+03 -0.33953750794E+03  0.41812373273E+03  0.19900000000E+03 0.  0.
<mgrwt>
<rscale>  0 0.48992472E+03</rscale>
<asrwt>0</asrwt>
<pdfrwt beam="1">  1        2 0.12310040E-01 0.48992472E+03</pdfrwt>
<pdfrwt beam="2">  1       -2 0.99481697E-01 0.48992472E+03</pdfrwt>
<totfact> 0.43204784E+02</totfact>
</mgrwt>
</event>
<event>
 4    1  0.5023236E-005  0.4640633E+03  0.7818608E-02  0.1023609E+00
          2   -1    0    0  501    0  0.00000000000E+00  0.00000000000E+00  0.24647722964E+04  0.24647722964E+04  0.25500000000E-02 0.  1.
         -2   -1    0    0    0  501 -0.00000000000E+00 -0.00000000000E+00 -0.21843266428E+02  0.21843266577E+02  0.25500000000E-02 0. -1.
    5000001    1    1    2    0    0 -0.11228607528E+03  0.16683526906E+02  0.10245003055E+04  0.10498039716E+04  0.19900000000E+03 0.  0.
   -5000001    1    1    2    0    0  0.11228607528E+03 -0.16683526906E+02  0.14184287244E+04  0.14368115913E+04  0.19900000000E+03 0.  0.
<mgrwt>
<rscale>  0 0.46406326E+03</rscale>
<asrwt>0</asrwt>
<pdfrwt beam="1">  1        2 0.35211015E+00 0.46406326E+03</pdfrwt>
<pdfrwt beam="2">  1       -2 0.31204682E-02 0.46406326E+03</pdfrwt>
<totfact> 0.20561832E+03</totfact>
</mgrwt>
</event>
<event>
 4    1  0.5023236E-005  0.1012174E+04  0.7818608E-02  0.9295292E-01
          2   -1    0    0  501    0  0.00000000000E+00  0.00000000000E+00  0.21979823218E+03  0.21979823220E+03  0.25500000000E-02 0.  1.
         -2   -1    0    0    0  501 -0.00000000000E+00 -0.00000000000E+00 -0.11652690631E+04  0.11652690631E+04  0.25500000000E-02 0. -1.
    5000001    1    1    2    0    0 -0.41761070864E+03  0.19910704270E+03 -0.40457877184E+03  0.64600874688E+03  0.19900000000E+03 0.  0.
   -5000001    1    1    2    0    0  0.41761070864E+03 -0.19910704270E+03 -0.54089205909E+03  0.73905854843E+03  0.19900000000E+03 0.  0.
<mgrwt>
<rscale>  0 0.10121741E+04</rscale>
<asrwt>0</asrwt>
<pdfrwt beam="1">  1        2 0.31399748E-01 0.10121741E+04</pdfrwt>
<pdfrwt beam="2">  1       -2 0.16646701E+00 0.10121741E+04</pdfrwt>
<totfact> 0.38113091E+01</totfact>
</mgrwt>
</event>
<event>
 4    1  0.5023236E-005  0.7913944E+03  0.7818608E-02  0.9572558E-01
         -2   -1    0    0    0  501 -0.00000000000E+00  0.00000000000E+00  0.81718538057E+02  0.81718538097E+02  0.25500000000E-02 0. -1.
          2   -1    0    0  501    0  0.00000000000E+00 -0.00000000000E+00 -0.19160436880E+04  0.19160436880E+04  0.25500000000E-02 0.  1.
    5000001    1    1    2    0    0  0.31851439531E+03  0.10174540966E+03 -0.10987012551E+04  0.11655681003E+04  0.19900000000E+03 0.  0.
   -5000001    1    1    2    0    0 -0.31851439531E+03 -0.10174540966E+03 -0.73562389485E+03  0.83219412584E+03  0.19900000000E+03 0.  0.
<mgrwt>
<rscale>  0 0.79139444E+03</rscale>
<asrwt>0</asrwt>
<pdfrwt beam="1">  1        2 0.27372050E+00 0.79139444E+03</pdfrwt>
<pdfrwt beam="2">  1       -2 0.11674078E-01 0.79139444E+03</pdfrwt>
<totfact> 0.47936946E+02</totfact>
</mgrwt>
</event>
<event>
 4    1  0.5023236E-005  0.4483787E+03  0.7818608E-02  0.1028207E+00
         -2   -1    0    0    0  501 -0.00000000000E+00  0.00000000000E+00  0.22977914736E+02  0.22977914878E+02  0.25500000000E-02 0. -1.
          2   -1    0    0  501    0  0.00000000000E+00 -0.00000000000E+00 -0.21873553688E+04  0.21873553688E+04  0.25500000000E-02 0.  1.
    5000001    1    1    2    0    0  0.34656042405E+02 -0.95031807621E+02 -0.98023037334E+03  0.10053281407E+04  0.19900000000E+03 0.  0.
   -5000001    1    1    2    0    0 -0.34656042405E+02  0.95031807621E+02 -0.11841470807E+04  0.12050051429E+04  0.19900000000E+03 0.  0.
<mgrwt>
<rscale>  0 0.44837870E+03</rscale>
<asrwt>0</asrwt>
<pdfrwt beam="1">  1        2 0.31247921E+00 0.44837870E+03</pdfrwt>
<pdfrwt beam="2">  1       -2 0.32825606E-02 0.44837870E+03</pdfrwt>
<totfact> 0.26270158E+03</totfact>
</mgrwt>
</event>
<event>
 4    1  0.5023236E-005  0.5860183E+03  0.7818608E-02  0.9934846E-01
         -2   -1    0    0    0  501 -0.00000000000E+00  0.00000000000E+00  0.16122788307E+03  0.16122788309E+03  0.25500000000E-02 0. -1.
          2   -1    0    0  501    0  0.00000000000E+00 -0.00000000000E+00 -0.53250323533E+03  0.53250323534E+03  0.25500000000E-02 0.  1.
    5000001    1    1    2    0    0 -0.14885812463E+03 -0.69024465605E+02 -0.21049463696E+02  0.25878021185E+03  0.19900000000E+03 0.  0.
   -5000001    1    1    2    0    0  0.14885812463E+03  0.69024465605E+02 -0.35022588857E+03  0.43495090659E+03  0.19900000000E+03 0.  0.
<mgrwt>
<rscale>  0 0.58601833E+03</rscale>
<asrwt>0</asrwt>
<pdfrwt beam="1">  1        2 0.76071889E-01 0.58601833E+03</pdfrwt>
<pdfrwt beam="2">  1       -2 0.23032555E-01 0.58601833E+03</pdfrwt>
<totfact> 0.10389072E+03</totfact>
</mgrwt>
</event>
<event>
 4    1  0.5023236E-005  0.1773565E+04  0.7818608E-02  0.8720485E-01
         -2   -1    0    0    0  501 -0.00000000000E+00  0.00000000000E+00  0.42798099634E+03  0.42798099635E+03  0.25500000000E-02 0. -1.
          2   -1    0    0  501    0  0.00000000000E+00 -0.00000000000E+00 -0.18374265057E+04  0.18374265057E+04  0.25500000000E-02 0.  1.
    5000001    1    1    2    0    0  0.80856548588E+03 -0.30485493171E+03 -0.69419341593E+03  0.11261528196E+04  0.19900000000E+03 0.  0.
   -5000001    1    1    2    0    0 -0.80856548588E+03  0.30485493171E+03 -0.71525209341E+03  0.11392546824E+04  0.19900000000E+03 0.  0.
<mgrwt>
<rscale>  0 0.17735655E+04</rscale>
<asrwt>0</asrwt>
<pdfrwt beam="1">  1        2 0.26248950E+00 0.17735655E+04</pdfrwt>
<pdfrwt beam="2">  1       -2 0.61140143E-01 0.17735655E+04</pdfrwt>
<totfact> 0.22976403E+01</totfact>
</mgrwt>
</event>
<event>
 4    1  0.5023236E-005  0.7450265E+03  0.7818608E-02  0.9643185E-01
         -2   -1    0    0    0  501 -0.00000000000E+00  0.00000000000E+00  0.15604875976E+04  0.15604875976E+04  0.25500000000E-02 0. -1.
          2   -1    0    0  501    0  0.00000000000E+00 -0.00000000000E+00 -0.88924852257E+02  0.88924852294E+02  0.25500000000E-02 0.  1.
    5000001    1    1    2    0    0  0.29967535592E+03 -0.88191667778E+02  0.82383885197E+03  0.90326881006E+03  0.19900000000E+03 0.  0.
   -5000001    1    1    2    0    0 -0.29967535592E+03  0.88191667778E+02  0.64772389334E+03  0.74614363980E+03  0.19900000000E+03 0.  0.
<mgrwt>
<rscale>  0 0.74502652E+03</rscale>
<asrwt>0</asrwt>
<pdfrwt beam="1">  1        2 0.12703552E-01 0.74502652E+03</pdfrwt>
<pdfrwt beam="2">  1       -2 0.22292678E+00 0.74502652E+03</pdfrwt>
<totfact> 0.47632056E+01</totfact>
</mgrwt>
</event>
<event>
 4    1  0.5023236E-005  0.6194286E+03  0.7818608E-02  0.9865898E-01
         -2   -1    0    0    0  501 -0.00000000000E+00  0.00000000000E+00  0.33374572929E+03  0.33374572930E+03  0.25500000000E-02 0. -1.
          2   -1    0    0  501    0  0.00000000000E+00 -0.00000000000E+00 -0.28741323996E+03  0.28741323997E+03  0.25500000000E-02 0.  1.
    5000001    1    1    2    0    0 -0.21550764171E+03 -0.44905239325E+02 -0.65748903139E+02  0.30394726914E+03  0.19900000000E+03 0.  0.
   -5000001    1    1    2    0    0  0.21550764171E+03  0.44905239325E+02  0.11208139247E+03  0.31721170012E+03  0.19900000000E+03 0.  0.
<mgrwt>
<rscale>  0 0.61942858E+03</rscale>
<asrwt>0</asrwt>
<pdfrwt beam="1">  1        2 0.41059034E-01 0.61942858E+03</pdfrwt>
<pdfrwt beam="2">  1       -2 0.47677961E-01 0.61942858E+03</pdfrwt>
<totfact> 0.52542876E+02</totfact>
</mgrwt>
</event>
<event>
 4    1  0.5023236E-005  0.4961913E+03  0.7818608E-02  0.1014778E+00
         -2   -1    0    0    0  501 -0.00000000000E+00  0.00000000000E+00  0.12612688348E+03  0.12612688350E+03  0.25500000000E-02 0. -1.
          2   -1    0    0  501    0  0.00000000000E+00 -0.00000000000E+00 -0.48801209558E+03  0.48801209559E+03  0.25500000000E-02 0.  1.
    5000001    1    1    2    0    0  0.11537741981E+03  0.84843153868E+02 -0.22791245235E+03  0.33474676353E+03  0.19900000000E+03 0.  0.
   -5000001    1    1    2    0    0 -0.11537741981E+03 -0.84843153868E+02 -0.13397275976E+03  0.27939221556E+03  0.19900000000E+03 0.  0.
<mgrwt>
<rscale>  0 0.49619127E+03</rscale>
<asrwt>0</asrwt>
<pdfrwt beam="1">  1        2 0.69716013E-01 0.49619127E+03</pdfrwt>
<pdfrwt beam="2">  1       -2 0.18018126E-01 0.49619127E+03</pdfrwt>
<totfact> 0.17600235E+03</totfact>
</mgrwt>
</event>
<event>
 4    1  0.5023236E-005  0.5711938E+03  0.7818608E-02  0.9967040E-01
         -2   -1    0    0    0  501 -0.00000000000E+00  0.00000000000E+00  0.35393552866E+02  0.35393552958E+02  0.25500000000E-02 0. -1.
          2   -1    0    0  501    0  0.00000000000E+00 -0.00000000000E+00 -0.23045321866E+04  0.23045321866E+04  0.25500000000E-02 0.  1.
    5000001    1    1    2    0    0  0.44653849319E+02  0.18088813079E+03 -0.14833806613E+04  0.15082220223E+04  0.19900000000E+03 0.  0.
   -5000001    1    1    2    0    0 -0.44653849319E+02 -0.18088813079E+03 -0.78575797240E+03  0.83170371726E+03  0.19900000000E+03 0.  0.
<mgrwt>
<rscale>  0 0.57119377E+03</rscale>
<asrwt>0</asrwt>
<pdfrwt beam="1">  1        2 0.32921879E+00 0.57119377E+03</pdfrwt>
<pdfrwt beam="2">  1       -2 0.50562233E-02 0.57119377E+03</pdfrwt>
<totfact> 0.11760197E+03</totfact>
</mgrwt>
</event>
<event>
 4    1  0.5023236E-005  0.6933712E+03  0.7818608E-02  0.9728636E-01
          2   -1    0    0  501    0  0.00000000000E+00  0.00000000000E+00  0.52519894271E+03  0.52519894272E+03  0.25500000000E-02 0.  1.
         -2   -1    0    0    0  501 -0.00000000000E+00 -0.00000000000E+00 -0.22884831390E+03  0.22884831391E+03  0.25500000000E-02 0. -1.
    5000001    1    1    2    0    0  0.18556219639E+03 -0.19095077848E+03  0.41099237927E+02  0.33494130215E+03  0.19900000000E+03 0.  0.
   -5000001    1    1    2    0    0 -0.18556219639E+03  0.19095077848E+03  0.25525139088E+03  0.41910595448E+03  0.19900000000E+03 0.  0.
<mgrwt>
<rscale>  0 0.69337116E+03</rscale>
<asrwt>0</asrwt>
<pdfrwt beam="1">  1        2 0.75028420E-01 0.69337116E+03</pdfrwt>
<pdfrwt beam="2">  1       -2 0.32692617E-01 0.69337116E+03</pdfrwt>
<totfact> 0.55611189E+02</totfact>
</mgrwt>
</event>
<event>
 4    1  0.5023236E-005  0.4889974E+03  0.7818608E-02  0.1016691E+00
          2   -1    0    0  501    0  0.00000000000E+00  0.00000000000E+00  0.11765612629E+04  0.11765612629E+04  0.25500000000E-02 0.  1.
         -2   -1    0    0    0  501 -0.00000000000E+00 -0.00000000000E+00 -0.50808751975E+02  0.50808752039E+02  0.25500000000E-02 0. -1.
    5000001    1    1    2    0    0 -0.50530251672E+01 -0.12467247203E+03  0.73329306290E+03  0.76999251583E+03  0.19900000000E+03 0.  0.
   -5000001    1    1    2    0    0  0.50530251672E+01  0.12467247203E+03  0.39245944803E+03  0.45737749911E+03  0.19900000000E+03 0.  0.
<mgrwt>
<rscale>  0 0.48899738E+03</rscale>
<asrwt>0</asrwt>
<pdfrwt beam="1">  1        2 0.16808017E+00 0.48899738E+03</pdfrwt>
<pdfrwt beam="2">  1       -2 0.72583935E-02 0.48899738E+03</pdfrwt>
<totfact> 0.25458833E+03</totfact>
</mgrwt>
</event>
<event>
 4    1  0.5023236E-005  0.1103119E+04  0.7818608E-02  0.9202157E-01
          2   -1    0    0  501    0  0.00000000000E+00  0.00000000000E+00  0.88911477091E+03  0.88911477091E+03  0.25500000000E-02 0.  1.
         -2   -1    0    0    0  501 -0.00000000000E+00 -0.00000000000E+00 -0.34215800027E+03  0.34215800028E+03  0.25500000000E-02 0. -1.
    5000001    1    1    2    0    0 -0.45158671636E+03 -0.12648063455E+03  0.37522151801E+02  0.51081975802E+03  0.19900000000E+03 0.  0.
   -5000001    1    1    2    0    0  0.45158671636E+03  0.12648063455E+03  0.50943461884E+03  0.72045301317E+03  0.19900000000E+03 0.  0.
<mgrwt>
<rscale>  0 0.11031187E+04</rscale>
<asrwt>0</asrwt>
<pdfrwt beam="1">  1        2 0.12701640E+00 0.11031187E+04</pdfrwt>
<pdfrwt beam="2">  1       -2 0.48879714E-01 0.11031187E+04</pdfrwt>
<totfact> 0.13002319E+02</totfact>
</mgrwt>
</event>
<event>
 4    1  0.5023236E-005  0.4239186E+03  0.7818608E-02  0.1035798E+00
          2   -1    0    0  501    0  0.00000000000E+00  0.00000000000E+00  0.13823628803E+04  0.13823628803E+04  0.25500000000E-02 0.  1.
         -2   -1    0    0    0  501 -0.00000000000E+00 -0.00000000000E+00 -0.32499970732E+02  0.32499970832E+02  0.25500000000E-02 0. -1.
    5000001    1    1    2    0    0  0.69052069884E+02 -0.16084390432E+02  0.61723305991E+03  0.65238374153E+03  0.19900000000E+03 0.  0.
   -5000001    1    1    2    0    0 -0.69052069884E+02  0.16084390432E+02  0.73262984969E+03  0.76247910963E+03  0.19900000000E+03 0.  0.
<mgrwt>
<rscale>  0 0.42391864E+03</rscale>
<asrwt>0</asrwt>
<pdfrwt beam="1">  1        2 0.19748037E+00 0.42391864E+03</pdfrwt>
<pdfrwt beam="2">  1       -2 0.46428538E-02 0.42391864E+03</pdfrwt>
<totfact> 0.39425677E+03</totfact>
</mgrwt>
</event>
<event>
 4    1  0.5023236E-005  0.5636196E+03  0.7818608E-02  0.9983898E-01
          2   -1    0    0  501    0  0.00000000000E+00  0.00000000000E+00  0.11084615065E+04  0.11084615065E+04  0.25500000000E-02 0.  1.
         -2   -1    0    0    0  501 -0.00000000000E+00 -0.00000000000E+00 -0.71645948604E+02  0.71645948649E+02  0.25500000000E-02 0. -1.
    5000001    1    1    2    0    0  0.14324712287E+03 -0.23135585576E+02  0.80519573404E+03  0.84201909934E+03  0.19900000000E+03 0.  0.
   -5000001    1    1    2    0    0 -0.14324712287E+03  0.23135585576E+02  0.23161982384E+03  0.33808835580E+03  0.19900000000E+03 0.  0.
<mgrwt>
<rscale>  0 0.56361965E+03</rscale>
<asrwt>0</asrwt>
<pdfrwt beam="1">  1        2 0.15835165E+00 0.56361965E+03</pdfrwt>
<pdfrwt beam="2">  1       -2 0.10235135E-01 0.56361965E+03</pdfrwt>
<totfact> 0.16058195E+03</totfact>
</mgrwt>
</event>
<event>
 4    1  0.5023236E-005  0.9125960E+03  0.7818608E-02  0.9409971E-01
         -2   -1    0    0    0  501 -0.00000000000E+00  0.00000000000E+00  0.13421549257E+03  0.13421549260E+03  0.25500000000E-02 0. -1.
          2   -1    0    0  501    0  0.00000000000E+00 -0.00000000000E+00 -0.15512953632E+04  0.15512953632E+04  0.25500000000E-02 0.  1.
    5000001    1    1    2    0    0 -0.37953531752E+03 -0.69416351875E+02 -0.44903860630E+03  0.62458174573E+03  0.19900000000E+03 0.  0.
   -5000001    1    1    2    0    0  0.37953531752E+03  0.69416351875E+02 -0.96804126434E+03  0.10609291101E+04  0.19900000000E+03 0.  0.
<mgrwt>
<rscale>  0 0.91259601E+03</rscale>
<asrwt>0</asrwt>
<pdfrwt beam="1">  1        2 0.22161361E+00 0.91259601E+03</pdfrwt>
<pdfrwt beam="2">  1       -2 0.19173643E-01 0.91259601E+03</pdfrwt>
<totfact> 0.31612548E+02</totfact>
</mgrwt>
</event>
<event>
 4    1  0.5023236E-005  0.6354129E+03  0.7818608E-02  0.9834542E-01
          2   -1    0    0  501    0  0.00000000000E+00  0.00000000000E+00  0.33338320364E+03  0.33338320365E+03  0.25500000000E-02 0.  1.
         -2   -1    0    0    0  501 -0.00000000000E+00 -0.00000000000E+00 -0.30276687458E+03  0.30276687459E+03  0.25500000000E-02 0. -1.
    5000001    1    1    2    0    0 -0.36411896741E+02  0.23248085381E+03 -0.62003292711E+02  0.31435423000E+03  0.19900000000E+03 0.  0.
   -5000001    1    1    2    0    0  0.36411896741E+02 -0.23248085381E+03  0.92619621769E+02  0.32179584825E+03  0.19900000000E+03 0.  0.
<mgrwt>
<rscale>  0 0.63541291E+03</rscale>
<asrwt>0</asrwt>
<pdfrwt beam="1">  1        2 0.47626173E-01 0.63541291E+03</pdfrwt>
<pdfrwt beam="2">  1       -2 0.43252410E-01 0.63541291E+03</pdfrwt>
<totfact> 0.54119858E+02</totfact>
</mgrwt>
</event>
<event>
 4    1  0.5023236E-005  0.8608523E+03  0.7818608E-02  0.9475886E-01
         -2   -1    0    0    0  501 -0.00000000000E+00  0.00000000000E+00  0.11552919806E+03  0.11552919808E+03  0.25500000000E-02 0. -1.
          2   -1    0    0  501    0  0.00000000000E+00 -0.00000000000E+00 -0.16036349523E+04  0.16036349523E+04  0.25500000000E-02 0.  1.
    5000001    1    1    2    0    0  0.20937695562E+03 -0.25288929192E+03 -0.11327032178E+04  0.11959971919E+04  0.19900000000E+03 0.  0.
   -5000001    1    1    2    0    0 -0.20937695562E+03  0.25288929192E+03 -0.35540253648E+03  0.52316695848E+03  0.19900000000E+03 0.  0.
<mgrwt>
<rscale>  0 0.86085228E+03</rscale>
<asrwt>0</asrwt>
<pdfrwt beam="1">  1        2 0.22909069E+00 0.86085228E+03</pdfrwt>
<pdfrwt beam="2">  1       -2 0.16504172E-01 0.86085228E+03</pdfrwt>
<totfact> 0.38573745E+02</totfact>
</mgrwt>
</event>
<event>
 4    1  0.5023236E-005  0.7492278E+03  0.7818608E-02  0.9636563E-01
         -2   -1    0    0    0  501 -0.00000000000E+00  0.00000000000E+00  0.12670138402E+03  0.12670138405E+03  0.25500000000E-02 0. -1.
          2   -1    0    0  501    0  0.00000000000E+00 -0.00000000000E+00 -0.11076088605E+04  0.11076088605E+04  0.25500000000E-02 0.  1.
    5000001    1    1    2    0    0  0.12084433577E+03  0.27620751437E+03 -0.65388002908E+03  0.74703014458E+03  0.19900000000E+03 0.  0.
   -5000001    1    1    2    0    0 -0.12084433577E+03 -0.27620751437E+03 -0.32702744743E+03  0.48728010000E+03  0.19900000000E+03 0.  0.
<mgrwt>
<rscale>  0 0.74922780E+03</rscale>
<asrwt>0</asrwt>
<pdfrwt beam="1">  1        2 0.15822983E+00 0.74922780E+03</pdfrwt>
<pdfrwt beam="2">  1       -2 0.18100198E-01 0.74922780E+03</pdfrwt>
<totfact> 0.61675233E+02</totfact>
</mgrwt>
</event>
<event>
 4    1  0.5023236E-005  0.9586246E+03  0.7818608E-02  0.9355126E-01
          2   -1    0    0  501    0  0.00000000000E+00  0.00000000000E+00  0.39510435055E+04  0.39510435055E+04  0.25500000000E-02 0.  1.
         -2   -1    0    0    0  501 -0.00000000000E+00 -0.00000000000E+00 -0.58146729376E+02  0.58146729432E+02  0.25500000000E-02 0. -1.
    5000001    1    1    2    0    0  0.39359261173E+03 -0.22234799912E+02  0.27258455188E+04  0.27613844938E+04  0.19900000000E+03 0.  0.
   -5000001    1    1    2    0    0 -0.39359261173E+03  0.22234799912E+02  0.11670512573E+04  0.12478057411E+04  0.19900000000E+03 0.  0.
<mgrwt>
<rscale>  0 0.95862455E+03</rscale>
<asrwt>0</asrwt>
<pdfrwt beam="1">  1        2 0.56443476E+00 0.95862455E+03</pdfrwt>
<pdfrwt beam="2">  1       -2 0.83066760E-02 0.95862455E+03</pdfrwt>
<totfact> 0.60085928E+01</totfact>
</mgrwt>
</event>
<event>
 4    1  0.5023236E-005  0.4649280E+03  0.7818608E-02  0.1023362E+00
         -2   -1    0    0    0  501 -0.00000000000E+00  0.00000000000E+00  0.28013252661E+03  0.28013252662E+03  0.25500000000E-02 0. -1.
          2   -1    0    0  501    0  0.00000000000E+00 -0.00000000000E+00 -0.19290694900E+03  0.19290694902E+03  0.25500000000E-02 0.  1.
    5000001    1    1    2    0    0  0.10752801975E+03  0.45678150875E+02  0.72205441385E+02  0.24179204756E+03  0.19900000000E+03 0.  0.
   -5000001    1    1    2    0    0 -0.10752801975E+03 -0.45678150875E+02  0.15020136228E+02  0.23124742808E+03  0.19900000000E+03 0.  0.
<mgrwt>
<rscale>  0 0.46492800E+03</rscale>
<asrwt>0</asrwt>
<pdfrwt beam="1">  1        2 0.27558135E-01 0.46492800E+03</pdfrwt>
<pdfrwt beam="2">  1       -2 0.40018933E-01 0.46492800E+03</pdfrwt>
<totfact> 0.11571556E+03</totfact>
</mgrwt>
</event>
<event>
 4    1  0.5023236E-005  0.5504417E+03  0.7818608E-02  0.1001392E+00
         -2   -1    0    0    0  501 -0.00000000000E+00  0.00000000000E+00  0.12983321328E+03  0.12983321330E+03  0.25500000000E-02 0. -1.
          2   -1    0    0  501    0  0.00000000000E+00 -0.00000000000E+00 -0.58341404077E+03  0.58341404078E+03  0.25500000000E-02 0.  1.
    5000001    1    1    2    0    0 -0.14807989389E+03 -0.11269703925E+03 -0.17631775361E+03  0.32452615899E+03  0.19900000000E+03 0.  0.
   -5000001    1    1    2    0    0  0.14807989389E+03  0.11269703925E+03 -0.27726307388E+03  0.38872109509E+03  0.19900000000E+03 0.  0.
<mgrwt>
<rscale>  0 0.55044171E+03</rscale>
<asrwt>0</asrwt>
<pdfrwt beam="1">  1        2 0.83344862E-01 0.55044171E+03</pdfrwt>
<pdfrwt beam="2">  1       -2 0.18547602E-01 0.55044171E+03</pdfrwt>
<totfact> 0.13650230E+03</totfact>
</mgrwt>
</event>
<event>
 4    1  0.5023236E-005  0.7601976E+03  0.7818608E-02  0.9619486E-01
         -2   -1    0    0    0  501 -0.00000000000E+00  0.00000000000E+00  0.38260342729E+03  0.38260342729E+03  0.25500000000E-02 0. -1.
          2   -1    0    0  501    0  0.00000000000E+00 -0.00000000000E+00 -0.37761055559E+03  0.37761055560E+03  0.25500000000E-02 0.  1.
    5000001    1    1    2    0    0 -0.49186233863E+02  0.28287395066E+03 -0.14729709891E+03  0.37912318963E+03  0.19900000000E+03 0.  0.
   -5000001    1    1    2    0    0  0.49186233863E+02 -0.28287395066E+03  0.15228997060E+03  0.38109079327E+03  0.19900000000E+03 0.  0.
<mgrwt>
<rscale>  0 0.76019759E+03</rscale>
<asrwt>0</asrwt>
<pdfrwt beam="1">  1        2 0.53944365E-01 0.76019759E+03</pdfrwt>
<pdfrwt beam="2">  1       -2 0.54657632E-01 0.76019759E+03</pdfrwt>
<totfact> 0.29278449E+02</totfact>
</mgrwt>
</event>
<event>
 4    1  0.5023236E-005  0.6447114E+03  0.7818608E-02  0.9816754E-01
         -2   -1    0    0    0  501 -0.00000000000E+00  0.00000000000E+00  0.19075052389E+03  0.19075052391E+03  0.25500000000E-02 0. -1.
          2   -1    0    0  501    0  0.00000000000E+00 -0.00000000000E+00 -0.54475961291E+03  0.54475961292E+03  0.25500000000E-02 0.  1.
    5000001    1    1    2    0    0  0.10788738448E+02  0.24319061554E+03 -0.95899912774E+02  0.32871852037E+03  0.19900000000E+03 0.  0.
   -5000001    1    1    2    0    0 -0.10788738448E+02 -0.24319061554E+03 -0.25810917624E+03  0.40679161646E+03  0.19900000000E+03 0.  0.
<mgrwt>
<rscale>  0 0.64471135E+03</rscale>
<asrwt>0</asrwt>
<pdfrwt beam="1">  1        2 0.77822801E-01 0.64471135E+03</pdfrwt>
<pdfrwt beam="2">  1       -2 0.27250075E-01 0.64471135E+03</pdfrwt>
<totfact> 0.74741761E+02</totfact>
</mgrwt>
</event>
<event>
 4    1  0.5023236E-005  0.7701816E+03  0.7818608E-02  0.9604210E-01
          2   -1    0    0  501    0  0.00000000000E+00  0.00000000000E+00  0.12621536890E+04  0.12621536890E+04  0.25500000000E-02 0.  1.
         -2   -1    0    0    0  501 -0.00000000000E+00 -0.00000000000E+00 -0.11749355052E+03  0.11749355055E+03  0.25500000000E-02 0. -1.
    5000001    1    1    2    0    0 -0.27354231763E+03  0.14222688296E+03  0.36311997823E+03  0.51624703811E+03  0.19900000000E+03 0.  0.
   -5000001    1    1    2    0    0  0.27354231763E+03 -0.14222688296E+03  0.78154016021E+03  0.86340020141E+03  0.19900000000E+03 0.  0.
<mgrwt>
<rscale>  0 0.77018158E+03</rscale>
<asrwt>0</asrwt>
<pdfrwt beam="1">  1        2 0.18030768E+00 0.77018158E+03</pdfrwt>
<pdfrwt beam="2">  1       -2 0.16784792E-01 0.77018158E+03</pdfrwt>
<totfact> 0.57309725E+02</totfact>
</mgrwt>
</event>
<event>
 4    1  0.5023236E-005  0.4424956E+03  0.7818608E-02  0.1029984E+00
         -2   -1    0    0    0  501 -0.00000000000E+00  0.00000000000E+00  0.61292422520E+02  0.61292422573E+02  0.25500000000E-02 0. -1.
          2   -1    0    0  501    0  0.00000000000E+00 -0.00000000000E+00 -0.79864023497E+03  0.79864023497E+03  0.25500000000E-02 0.  1.
    5000001    1    1    2    0    0  0.58809052505E+02  0.61642877751E+02 -0.27980333079E+03  0.35376440318E+03  0.19900000000E+03 0.  0.
   -5000001    1    1    2    0    0 -0.58809052505E+02 -0.61642877751E+02 -0.45754448166E+03  0.50616825437E+03  0.19900000000E+03 0.  0.
<mgrwt>
<rscale>  0 0.44249563E+03</rscale>
<asrwt>0</asrwt>
<pdfrwt beam="1">  1        2 0.11409146E+00 0.44249563E+03</pdfrwt>
<pdfrwt beam="2">  1       -2 0.87560608E-02 0.44249563E+03</pdfrwt>
<totfact> 0.32225820E+03</totfact>
</mgrwt>
</event>
<event>
 4    1  0.5023236E-005  0.1657433E+04  0.7818608E-02  0.8786021E-01
         -2   -1    0    0    0  501 -0.00000000000E+00  0.00000000000E+00  0.10180855881E+04  0.10180855881E+04  0.25500000000E-02 0. -1.
          2   -1    0    0  501    0  0.00000000000E+00 -0.00000000000E+00 -0.67457139760E+03  0.67457139760E+03  0.25500000000E-02 0.  1.
    5000001    1    1    2    0    0 -0.71215736555E+03 -0.33066503833E+03  0.35058682999E+03  0.88262087345E+03  0.19900000000E+03 0.  0.
   -5000001    1    1    2    0    0  0.71215736555E+03  0.33066503833E+03 -0.70726395159E+01  0.81003611223E+03  0.19900000000E+03 0.  0.
<mgrwt>
<rscale>  0 0.16574335E+04</rscale>
<asrwt>0</asrwt>
<pdfrwt beam="1">  1        2 0.96367343E-01 0.16574335E+04</pdfrwt>
<pdfrwt beam="2">  1       -2 0.14544080E+00 0.16574335E+04</pdfrwt>
<totfact> 0.14650275E+01</totfact>
</mgrwt>
</event>
<event>
 4    1  0.5023236E-005  0.4594056E+03  0.7818608E-02  0.1024954E+00
         -2   -1    0    0    0  501 -0.00000000000E+00  0.00000000000E+00  0.77973957353E+02  0.77973957395E+02  0.25500000000E-02 0. -1.
          2   -1    0    0  501    0  0.00000000000E+00 -0.00000000000E+00 -0.67667951262E+03  0.67667951263E+03  0.25500000000E-02 0.  1.
    5000001    1    1    2    0    0  0.99394335865E+02  0.27735552343E+02 -0.21699133497E+03  0.31198515079E+03  0.19900000000E+03 0.  0.
   -5000001    1    1    2    0    0 -0.99394335865E+02 -0.27735552343E+02 -0.38171422030E+03  0.44266831923E+03  0.19900000000E+03 0.  0.
<mgrwt>
<rscale>  0 0.45940561E+03</rscale>
<asrwt>0</asrwt>
<pdfrwt beam="1">  1        2 0.96668498E-01 0.45940561E+03</pdfrwt>
<pdfrwt beam="2">  1       -2 0.11139137E-01 0.45940561E+03</pdfrwt>
<totfact> 0.26833893E+03</totfact>
</mgrwt>
</event>
<event>
 4    1  0.5023236E-005  0.5009772E+03  0.7818608E-02  0.1013524E+00
         -2   -1    0    0    0  501 -0.00000000000E+00  0.00000000000E+00  0.15210232553E+03  0.15210232555E+03  0.25500000000E-02 0. -1.
          2   -1    0    0  501    0  0.00000000000E+00 -0.00000000000E+00 -0.41251523712E+03  0.41251523713E+03  0.25500000000E-02 0.  1.
    5000001    1    1    2    0    0  0.10083408244E+03  0.10924488808E+03 -0.93833339289E+02  0.26553277258E+03  0.19900000000E+03 0.  0.
   -5000001    1    1    2    0    0 -0.10083408244E+03 -0.10924488808E+03 -0.16657957231E+03  0.29908479009E+03  0.19900000000E+03 0.  0.
<mgrwt>
<rscale>  0 0.50097715E+03</rscale>
<asrwt>0</asrwt>
<pdfrwt beam="1">  1        2 0.58930748E-01 0.50097715E+03</pdfrwt>
<pdfrwt beam="2">  1       -2 0.21728904E-01 0.50097715E+03</pdfrwt>
<totfact> 0.15349684E+03</totfact>
</mgrwt>
</event>
<event>
 4    1  0.5023236E-005  0.1383265E+04  0.7818608E-02  0.8966022E-01
         -2   -1    0    0    0  501 -0.00000000000E+00  0.00000000000E+00  0.18437953348E+03  0.18437953349E+03  0.25500000000E-02 0. -1.
          2   -1    0    0  501    0  0.00000000000E+00 -0.00000000000E+00 -0.25944085862E+04  0.25944085862E+04  0.25500000000E-02 0.  1.
    5000001    1    1    2    0    0 -0.46536528764E+03 -0.31542339961E+03 -0.19086840893E+04  0.19996831561E+04  0.19900000000E+03 0.  0.
   -5000001    1    1    2    0    0  0.46536528764E+03  0.31542339961E+03 -0.50134496339E+03  0.77910496359E+03  0.19900000000E+03 0.  0.
<mgrwt>
<rscale>  0 0.13832655E+04</rscale>
<asrwt>0</asrwt>
<pdfrwt beam="1">  1        2 0.37062978E+00 0.13832655E+04</pdfrwt>
<pdfrwt beam="2">  1       -2 0.26339935E-01 0.13832655E+04</pdfrwt>
<totfact> 0.50124526E+01</totfact>
</mgrwt>
</event>
<event>
 4    1  0.5023236E-005  0.1004483E+04  0.7818608E-02  0.9303641E-01
         -2   -1    0    0    0  501 -0.00000000000E+00  0.00000000000E+00  0.66929645500E+02  0.66929645549E+02  0.25500000000E-02 0.  1.
          2   -1    0    0  501    0  0.00000000000E+00 -0.00000000000E+00 -0.37688324479E+04  0.37688324479E+04  0.25500000000E-02 0. -1.
    5000001    1    1    2    0    0  0.22506258990E+03 -0.38258767494E+03 -0.23281918988E+04  0.23784669466E+04  0.19900000000E+03 0.  0.
   -5000001    1    1    2    0    0 -0.22506258990E+03  0.38258767494E+03 -0.13737109036E+04  0.14572951468E+04  0.19900000000E+03 0.  0.
<mgrwt>
<rscale>  0 0.10044832E+04</rscale>
<asrwt>0</asrwt>
<pdfrwt beam="1">  1        2 0.53840450E+00 0.10044832E+04</pdfrwt>
<pdfrwt beam="2">  1       -2 0.95613803E-02 0.10044832E+04</pdfrwt>
<totfact> 0.62553140E+01</totfact>
</mgrwt>
</event>
<event>
 4    1  0.5023236E-005  0.6129403E+03  0.7818608E-02  0.9878917E-01
          2   -1    0    0  501    0  0.00000000000E+00  0.00000000000E+00  0.72562084245E+03  0.72562084245E+03  0.25500000000E-02 0.  1.
         -2   -1    0    0    0  501 -0.00000000000E+00 -0.00000000000E+00 -0.12943945613E+03  0.12943945615E+03  0.25500000000E-02 0. -1.
    5000001    1    1    2    0    0  0.12577722008E+03  0.15910483131E+03  0.13788435106E+03  0.31582803977E+03  0.19900000000E+03 0.  0.
   -5000001    1    1    2    0    0 -0.12577722008E+03 -0.15910483131E+03  0.45829703526E+03  0.53923225883E+03  0.19900000000E+03 0.  0.
<mgrwt>
<rscale>  0 0.61294035E+03</rscale>
<asrwt>0</asrwt>
<pdfrwt beam="1">  1        2 0.10366013E+00 0.61294035E+03</pdfrwt>
<pdfrwt beam="2">  1       -2 0.18491350E-01 0.61294035E+03</pdfrwt>
<totfact> 0.10556014E+03</totfact>
</mgrwt>
</event>
<event>
 4    1  0.5023236E-005  0.8404557E+03  0.7818608E-02  0.9503237E-01
          2   -1    0    0  501    0  0.00000000000E+00  0.00000000000E+00  0.42008874312E+03  0.42008874313E+03  0.25500000000E-02 0.  1.
         -2   -1    0    0    0  501 -0.00000000000E+00 -0.00000000000E+00 -0.42036701930E+03  0.42036701931E+03  0.25500000000E-02 0. -1.
    5000001    1    1    2    0    0 -0.61411804768E+02  0.36478963931E+03 -0.12286652149E+02  0.42023190328E+03  0.19900000000E+03 0.  0.
   -5000001    1    1    2    0    0  0.61411804768E+02 -0.36478963931E+03  0.12008375968E+02  0.42022385916E+03  0.19900000000E+03 0.  0.
<mgrwt>
<rscale>  0 0.84045572E+03</rscale>
<asrwt>0</asrwt>
<pdfrwt beam="1">  1        2 0.60012678E-01 0.84045572E+03</pdfrwt>
<pdfrwt beam="2">  1       -2 0.60052431E-01 0.84045572E+03</pdfrwt>
<totfact> 0.21280707E+02</totfact>
</mgrwt>
</event>
<event>
 4    1  0.5023236E-005  0.6740018E+03  0.7818608E-02  0.9762755E-01
         -2   -1    0    0    0  501 -0.00000000000E+00  0.00000000000E+00  0.40570750000E+02  0.40570750080E+02  0.25500000000E-02 0. -1.
          2   -1    0    0  501    0  0.00000000000E+00 -0.00000000000E+00 -0.27992977876E+04  0.27992977877E+04  0.25500000000E-02 0.  1.
    5000001    1    1    2    0    0 -0.18726844711E+03  0.17850650826E+03 -0.17327547980E+04  0.17632283558E+04  0.19900000000E+03 0.  0.
   -5000001    1    1    2    0    0  0.18726844711E+03 -0.17850650826E+03 -0.10259722397E+04  0.10766401819E+04  0.19900000000E+03 0.  0.
<mgrwt>
<rscale>  0 0.67400181E+03</rscale>
<asrwt>0</asrwt>
<pdfrwt beam="1">  1        2 0.39989956E+00 0.67400181E+03</pdfrwt>
<pdfrwt beam="2">  1       -2 0.57958232E-02 0.67400181E+03</pdfrwt>
<totfact> 0.52343110E+02</totfact>
</mgrwt>
</event>
<event>
 4    1  0.5023236E-005  0.9074604E+03  0.7818608E-02  0.9416303E-01
         -2   -1    0    0    0  501 -0.00000000000E+00  0.00000000000E+00  0.14321248785E+03  0.14321248787E+03  0.25500000000E-02 0. -1.
          2   -1    0    0  501    0  0.00000000000E+00 -0.00000000000E+00 -0.14375218602E+04  0.14375218602E+04  0.25500000000E-02 0.  1.
    5000001    1    1    2    0    0 -0.33713230931E+02  0.32702347325E+03 -0.22695838985E+03  0.44630935988E+03  0.19900000000E+03 0.  0.
   -5000001    1    1    2    0    0  0.33713230931E+02 -0.32702347325E+03 -0.10673509825E+04  0.11344249882E+04  0.19900000000E+03 0.  0.
<mgrwt>
<rscale>  0 0.90746037E+03</rscale>
<asrwt>0</asrwt>
<pdfrwt beam="1">  1        2 0.20536026E+00 0.90746037E+03</pdfrwt>
<pdfrwt beam="2">  1       -2 0.20458928E-01 0.90746037E+03</pdfrwt>
<totfact> 0.32419967E+02</totfact>
</mgrwt>
</event>
<event>
 4    1  0.5023236E-005  0.5498716E+03  0.7818608E-02  0.1001524E+00
         -2   -1    0    0    0  501 -0.00000000000E+00  0.00000000000E+00  0.50807295164E+02  0.50807295228E+02  0.25500000000E-02 0. -1.
          2   -1    0    0  501    0  0.00000000000E+00 -0.00000000000E+00 -0.14877722357E+04  0.14877722357E+04  0.25500000000E-02 0.  1.
    5000001    1    1    2    0    0 -0.10205838403E+03 -0.10273343049E+03 -0.10613872875E+04  0.10895476335E+04  0.19900000000E+03 0.  0.
   -5000001    1    1    2    0    0  0.10205838403E+03  0.10273343049E+03 -0.37557765301E+03  0.44903189746E+03  0.19900000000E+03 0.  0.
<mgrwt>
<rscale>  0 0.54987156E+03</rscale>
<asrwt>0</asrwt>
<pdfrwt beam="1">  1        2 0.21253886E+00 0.54987156E+03</pdfrwt>
<pdfrwt beam="2">  1       -2 0.72581859E-02 0.54987156E+03</pdfrwt>
<totfact> 0.17298367E+03</totfact>
</mgrwt>
</event>
<event>
 4    1  0.5023236E-005  0.9646539E+03  0.7818608E-02  0.9348185E-01
         -2   -1    0    0    0  501 -0.00000000000E+00  0.00000000000E+00  0.21188200440E+03  0.21188200442E+03  0.25500000000E-02 0. -1.
          2   -1    0    0  501    0  0.00000000000E+00 -0.00000000000E+00 -0.10979661981E+04  0.10979661981E+04  0.25500000000E-02 0.  1.
    5000001    1    1    2    0    0  0.43386296323E+03 -0.49242129676E+02 -0.37684924260E+03  0.61014605616E+03  0.19900000000E+03 0.  0.
   -5000001    1    1    2    0    0 -0.43386296323E+03  0.49242129676E+02 -0.50923495109E+03  0.69970214635E+03  0.19900000000E+03 0.  0.
<mgrwt>
<rscale>  0 0.96465388E+03</rscale>
<asrwt>0</asrwt>
<pdfrwt beam="1">  1        2 0.15685231E+00 0.96465388E+03</pdfrwt>
<pdfrwt beam="2">  1       -2 0.30268858E-01 0.96465388E+03</pdfrwt>
<totfact> 0.24635362E+02</totfact>
</mgrwt>
</event>
<event>
 4    1  0.5023236E-005  0.5770295E+03  0.7818608E-02  0.9954243E-01
         -2   -1    0    0    0  501 -0.00000000000E+00  0.00000000000E+00  0.86990854646E+02  0.86990854684E+02  0.25500000000E-02 0. -1.
          2   -1    0    0  501    0  0.00000000000E+00 -0.00000000000E+00 -0.95689078550E+03  0.95689078550E+03  0.25500000000E-02 0.  1.
    5000001    1    1    2    0    0  0.17695671674E+03  0.10906836334E+03 -0.47247042733E+03  0.55320782007E+03  0.19900000000E+03 0.  0.
   -5000001    1    1    2    0    0 -0.17695671674E+03 -0.10906836334E+03 -0.39742950352E+03  0.49067382012E+03  0.19900000000E+03 0.  0.
<mgrwt>
<rscale>  0 0.57702945E+03</rscale>
<asrwt>0</asrwt>
<pdfrwt beam="1">  1        2 0.13669868E+00 0.57702945E+03</pdfrwt>
<pdfrwt beam="2">  1       -2 0.12427266E-01 0.57702945E+03</pdfrwt>
<totfact> 0.14407025E+03</totfact>
</mgrwt>
</event>
<event>
 4    1  0.5023236E-005  0.5200558E+03  0.7818608E-02  0.1008673E+00
          2   -1    0    0  501    0  0.00000000000E+00  0.00000000000E+00  0.93960127892E+03  0.93960127892E+03  0.25500000000E-02 0.  1.
         -2   -1    0    0    0  501 -0.00000000000E+00 -0.00000000000E+00 -0.71960864261E+02  0.71960864306E+02  0.25500000000E-02 0. -1.
    5000001    1    1    2    0    0  0.12666325612E+03  0.51423199044E+02  0.24598333619E+03  0.34466901156E+03  0.19900000000E+03 0.  0.
   -5000001    1    1    2    0    0 -0.12666325612E+03 -0.51423199044E+02  0.62165707847E+03  0.66689313166E+03  0.19900000000E+03 0.  0.
<mgrwt>
<rscale>  0 0.52005584E+03</rscale>
<asrwt>0</asrwt>
<pdfrwt beam="1">  1        2 0.13422875E+00 0.52005584E+03</pdfrwt>
<pdfrwt beam="2">  1       -2 0.10280124E-01 0.52005584E+03</pdfrwt>
<totfact> 0.20149891E+03</totfact>
</mgrwt>
</event>
<event>
 4    1  0.5023236E-005  0.4369732E+03  0.7818608E-02  0.1031680E+00
          2   -1    0    0  501    0  0.00000000000E+00  0.00000000000E+00  0.85923141108E+02  0.85923141146E+02  0.25500000000E-02 0.  1.
         -2   -1    0    0    0  501 -0.00000000000E+00 -0.00000000000E+00 -0.55557076492E+03  0.55557076492E+03  0.25500000000E-02 0. -1.
    5000001    1    1    2    0    0  0.37476506750E+02 -0.68966330994E+02 -0.16959027162E+03  0.27298846788E+03  0.19900000000E+03 0.  0.
   -5000001    1    1    2    0    0 -0.37476506750E+02  0.68966330994E+02 -0.30005735219E+03  0.36850543819E+03  0.19900000000E+03 0.  0.
<mgrwt>
<rscale>  0 0.43697316E+03</rscale>
<asrwt>0</asrwt>
<pdfrwt beam="1">  1        2 0.12274735E-01 0.43697316E+03</pdfrwt>
<pdfrwt beam="2">  1       -2 0.79367250E-01 0.43697316E+03</pdfrwt>
<totfact> 0.72584017E+02</totfact>
</mgrwt>
</event>
<event>
 4    1  0.5023236E-005  0.6580719E+03  0.7818608E-02  0.9791750E-01
         -2   -1    0    0    0  501 -0.00000000000E+00  0.00000000000E+00  0.47468476045E+03  0.47468476046E+03  0.25500000000E-02 0. -1.
          2   -1    0    0  501    0  0.00000000000E+00 -0.00000000000E+00 -0.22807698103E+03  0.22807698104E+03  0.25500000000E-02 0.  1.
    5000001    1    1    2    0    0 -0.10685784719E+03 -0.23907497559E+03  0.13333449768E+03  0.35490073504E+03  0.19900000000E+03 0.  0.
   -5000001    1    1    2    0    0  0.10685784719E+03  0.23907497559E+03  0.11327328174E+03  0.34786100646E+03  0.19900000000E+03 0.  0.
<mgrwt>
<rscale>  0 0.65807193E+03</rscale>
<asrwt>0</asrwt>
<pdfrwt beam="1">  1        2 0.32582427E-01 0.65807193E+03</pdfrwt>
<pdfrwt beam="2">  1       -2 0.67812107E-01 0.65807193E+03</pdfrwt>
<totfact> 0.32600739E+02</totfact>
</mgrwt>
</event>
<event>
 4    1  0.5023236E-005  0.5513526E+03  0.7818608E-02  0.1001181E+00
          2   -1    0    0  501    0  0.00000000000E+00  0.00000000000E+00  0.35851303471E+04  0.35851303471E+04  0.25500000000E-02 0.  1.
         -2   -1    0    0    0  501 -0.00000000000E+00 -0.00000000000E+00 -0.21197955151E+02  0.21197955304E+02  0.25500000000E-02 0. -1.
    5000001    1    1    2    0    0  0.19881139661E+02  0.15219389365E+03  0.25230848262E+04  0.25355702083E+04  0.19900000000E+03 0.  0.
   -5000001    1    1    2    0    0 -0.19881139661E+02 -0.15219389365E+03  0.10408475657E+04  0.10707580941E+04  0.19900000000E+03 0.  0.
<mgrwt>
<rscale>  0 0.55135264E+03</rscale>
<asrwt>0</asrwt>
<pdfrwt beam="1">  1        2 0.51216089E+00 0.55135264E+03</pdfrwt>
<pdfrwt beam="2">  1       -2 0.30282828E-02 0.55135264E+03</pdfrwt>
<totfact> 0.52031703E+02</totfact>
</mgrwt>
</event>
<event>
 4    1  0.5023236E-005  0.7870299E+03  0.7818608E-02  0.9578983E-01
          2   -1    0    0  501    0  0.00000000000E+00  0.00000000000E+00  0.20224720887E+04  0.20224720887E+04  0.25500000000E-02 0.  1.
         -2   -1    0    0    0  501 -0.00000000000E+00 -0.00000000000E+00 -0.76566700478E+02  0.76566700521E+02  0.25500000000E-02 0. -1.
    5000001    1    1    2    0    0  0.27980988706E+03 -0.14000640846E+03  0.13243307735E+04  0.13752630167E+04  0.19900000000E+03 0.  0.
   -5000001    1    1    2    0    0 -0.27980988706E+03  0.14000640846E+03  0.62157461470E+03  0.72377577256E+03  0.19900000000E+03 0.  0.
<mgrwt>
<rscale>  0 0.78702990E+03</rscale>
<asrwt>0</asrwt>
<pdfrwt beam="1">  1        2 0.28892457E+00 0.78702990E+03</pdfrwt>
<pdfrwt beam="2">  1       -2 0.10938101E-01 0.78702990E+03</pdfrwt>
<totfact> 0.47140412E+02</totfact>
</mgrwt>
</event>
<event>
 4    1  0.5023236E-005  0.6097016E+03  0.7818608E-02  0.9885480E-01
          2   -1    0    0  501    0  0.00000000000E+00  0.00000000000E+00  0.40684821532E+03  0.40684821532E+03  0.25500000000E-02 0.  1.
         -2   -1    0    0    0  501 -0.00000000000E+00 -0.00000000000E+00 -0.22842429348E+03  0.22842429349E+03  0.25500000000E-02 0. -1.
    5000001    1    1    2    0    0 -0.22502376394E+03  0.25193594178E+02  0.13653261142E+03  0.33092682802E+03  0.19900000000E+03 0.  0.
   -5000001    1    1    2    0    0  0.22502376394E+03 -0.25193594178E+02  0.41891310423E+02  0.30434568079E+03  0.19900000000E+03 0.  0.
<mgrwt>
<rscale>  0 0.60970162E+03</rscale>
<asrwt>0</asrwt>
<pdfrwt beam="1">  1        2 0.58121173E-01 0.60970162E+03</pdfrwt>
<pdfrwt beam="2">  1       -2 0.32632042E-01 0.60970162E+03</pdfrwt>
<totfact> 0.74594112E+02</totfact>
</mgrwt>
</event>
<event>
 4    1  0.5023236E-005  0.8390312E+03  0.7818608E-02  0.9505178E-01
         -2   -1    0    0    0  501 -0.00000000000E+00  0.00000000000E+00  0.19051045542E+03  0.19051045543E+03  0.25500000000E-02 0. -1.
          2   -1    0    0  501    0  0.00000000000E+00 -0.00000000000E+00 -0.92379880994E+03  0.92379880995E+03  0.25500000000E-02 0.  1.
    5000001    1    1    2    0    0 -0.26351583485E+03 -0.12180968693E+03 -0.66982757389E+03  0.75666913099E+03  0.19900000000E+03 0.  0.
   -5000001    1    1    2    0    0  0.26351583485E+03  0.12180968693E+03 -0.63460780639E+02  0.35764013439E+03  0.19900000000E+03 0.  0.
<mgrwt>
<rscale>  0 0.83903118E+03</rscale>
<asrwt>0</asrwt>
<pdfrwt beam="1">  1        2 0.13197126E+00 0.83903118E+03</pdfrwt>
<pdfrwt beam="2">  1       -2 0.27215780E-01 0.83903118E+03</pdfrwt>
<totfact> 0.38583571E+02</totfact>
</mgrwt>
</event>
<event>
 4    1  0.5023236E-005  0.4370829E+03  0.7818608E-02  0.1031646E+00
         -2   -1    0    0    0  501 -0.00000000000E+00  0.00000000000E+00  0.63728750828E+02  0.63728750879E+02  0.25500000000E-02 0. -1.
          2   -1    0    0  501    0  0.00000000000E+00 -0.00000000000E+00 -0.74943214893E+03  0.74943214893E+03  0.25500000000E-02 0.  1.
    5000001    1    1    2    0    0 -0.66687890420E+02 -0.59034338991E+02 -0.31481865125E+03  0.38294139380E+03  0.19900000000E+03 0.  0.
   -5000001    1    1    2    0    0  0.66687890420E+02  0.59034338991E+02 -0.37088474685E+03  0.43021950602E+03  0.19900000000E+03 0.  0.
<mgrwt>
<rscale>  0 0.43708294E+03</rscale>
<asrwt>0</asrwt>
<pdfrwt beam="1">  1        2 0.10706173E+00 0.43708294E+03</pdfrwt>
<pdfrwt beam="2">  1       -2 0.91041077E-02 0.43708294E+03</pdfrwt>
<totfact> 0.32781763E+03</totfact>
</mgrwt>
</event>
<event>
 4    1  0.5023236E-005  0.7989040E+03  0.7818608E-02  0.9561605E-01
         -2   -1    0    0    0  501 -0.00000000000E+00  0.00000000000E+00  0.20044792494E+03  0.20044792496E+03  0.25500000000E-02 0. -1.
          2   -1    0    0  501    0  0.00000000000E+00 -0.00000000000E+00 -0.79602664445E+03  0.79602664446E+03  0.25500000000E-02 0.  1.
    5000001    1    1    2    0    0  0.13884181610E+03 -0.31200528400E+03 -0.22574169086E+03  0.45517541469E+03  0.19900000000E+03 0.  0.
   -5000001    1    1    2    0    0 -0.13884181610E+03  0.31200528400E+03 -0.36983702865E+03  0.54129915472E+03  0.19900000000E+03 0.  0.
<mgrwt>
<rscale>  0 0.79890397E+03</rscale>
<asrwt>0</asrwt>
<pdfrwt beam="1">  1        2 0.11371809E+00 0.79890397E+03</pdfrwt>
<pdfrwt beam="2">  1       -2 0.28635418E-01 0.79890397E+03</pdfrwt>
<totfact> 0.42877119E+02</totfact>
</mgrwt>
</event>
<event>
 4    1  0.5023236E-005  0.4548074E+03  0.7818608E-02  0.1026298E+00
          2   -1    0    0  501    0  0.00000000000E+00  0.00000000000E+00  0.41007333779E+03  0.41007333780E+03  0.25500000000E-02 0.  1.
         -2   -1    0    0    0  501 -0.00000000000E+00 -0.00000000000E+00 -0.12610534786E+03  0.12610534789E+03  0.25500000000E-02 0. -1.
    5000001    1    1    2    0    0 -0.46658398098E+02 -0.99041711975E+02  0.12879416301E+03  0.26110381700E+03  0.19900000000E+03 0.  0.
   -5000001    1    1    2    0    0  0.46658398098E+02  0.99041711975E+02  0.15517382692E+03  0.27507486869E+03  0.19900000000E+03 0.  0.
<mgrwt>
<rscale>  0 0.45480739E+03</rscale>
<asrwt>0</asrwt>
<pdfrwt beam="1">  1        2 0.58581905E-01 0.45480739E+03</pdfrwt>
<pdfrwt beam="2">  1       -2 0.18015050E-01 0.45480739E+03</pdfrwt>
<totfact> 0.21357112E+03</totfact>
</mgrwt>
</event>
<event>
 4    1  0.5023236E-005  0.5376949E+03  0.7818608E-02  0.1004383E+00
         -2   -1    0    0    0  501 -0.00000000000E+00  0.00000000000E+00  0.95873501955E+02  0.95873501989E+02  0.25500000000E-02 0. -1.
          2   -1    0    0  501    0  0.00000000000E+00 -0.00000000000E+00 -0.75389909257E+03  0.75389909257E+03  0.25500000000E-02 0.  1.
    5000001    1    1    2    0    0 -0.49565704161E+02  0.16171915854E+03 -0.22821229772E+03  0.34683093590E+03  0.19900000000E+03 0.  0.
   -5000001    1    1    2    0    0  0.49565704161E+02 -0.16171915854E+03 -0.42981329289E+03  0.50294165866E+03  0.19900000000E+03 0.  0.
<mgrwt>
<rscale>  0 0.53769488E+03</rscale>
<asrwt>0</asrwt>
<pdfrwt beam="1">  1        2 0.10769987E+00 0.53769488E+03</pdfrwt>
<pdfrwt beam="2">  1       -2 0.13696215E-01 0.53769488E+03</pdfrwt>
<totfact> 0.16747345E+03</totfact>
</mgrwt>
</event>
<event>
 4    1  0.5023236E-005  0.7326931E+03  0.7818608E-02  0.9662900E-01
         -2   -1    0    0    0  501 -0.00000000000E+00  0.00000000000E+00  0.33250540746E+02  0.33250540843E+02  0.25500000000E-02 0. -1.
          2   -1    0    0  501    0  0.00000000000E+00 -0.00000000000E+00 -0.40363189381E+04  0.40363189381E+04  0.25500000000E-02 0.  1.
    5000001    1    1    2    0    0  0.14884616946E+03  0.26720560269E+03 -0.21819213154E+04  0.22122241394E+04  0.19900000000E+03 0.  0.
   -5000001    1    1    2    0    0 -0.14884616946E+03 -0.26720560269E+03 -0.18211470819E+04  0.18573453395E+04  0.19900000000E+03 0.  0.
<mgrwt>
<rscale>  0 0.73269308E+03</rscale>
<asrwt>0</asrwt>
<pdfrwt beam="1">  1        2 0.57661668E+00 0.73269308E+03</pdfrwt>
<pdfrwt beam="2">  1       -2 0.47500798E-02 0.73269308E+03</pdfrwt>
<totfact> 0.13116215E+02</totfact>
</mgrwt>
</event>
<event>
 4    1  0.5023236E-005  0.9703914E+03  0.7818608E-02  0.9341629E-01
         -2   -1    0    0    0  501 -0.00000000000E+00  0.00000000000E+00  0.65573611558E+03  0.65573611558E+03  0.25500000000E-02 0. -1.
          2   -1    0    0  501    0  0.00000000000E+00 -0.00000000000E+00 -0.35900852235E+03  0.35900852235E+03  0.25500000000E-02 0.  1.
    5000001    1    1    2    0    0  0.28472104459E+03 -0.33802263995E+03  0.17147546277E+03  0.51413054051E+03  0.19900000000E+03 0.  0.
   -5000001    1    1    2    0    0 -0.28472104459E+03  0.33802263995E+03  0.12525213046E+03  0.50061409743E+03  0.19900000000E+03 0.  0.
<mgrwt>
<rscale>  0 0.97039137E+03</rscale>
<asrwt>0</asrwt>
<pdfrwt beam="1">  1        2 0.51286933E-01 0.97039137E+03</pdfrwt>
<pdfrwt beam="2">  1       -2 0.93676587E-01 0.97039137E+03</pdfrwt>
<totfact> 0.94064823E+01</totfact>
</mgrwt>
</event>
<event>
 4    1  0.5023236E-005  0.5868323E+03  0.7818608E-02  0.9933108E-01
         -2   -1    0    0    0  501 -0.00000000000E+00  0.00000000000E+00  0.83723114450E+02  0.83723114488E+02  0.25500000000E-02 0. -1.
          2   -1    0    0  501    0  0.00000000000E+00 -0.00000000000E+00 -0.10283065694E+04  0.10283065694E+04  0.25500000000E-02 0.  1.
    5000001    1    1    2    0    0  0.21470901720E+03 -0.20268881488E+01 -0.50961630514E+03  0.58771919214E+03  0.19900000000E+03 0.  0.
   -5000001    1    1    2    0    0 -0.21470901720E+03  0.20268881488E+01 -0.43496714976E+03  0.52431049170E+03  0.19900000000E+03 0.  0.
<mgrwt>
<rscale>  0 0.58683227E+03</rscale>
<asrwt>0</asrwt>
<pdfrwt beam="1">  1        2 0.14690093E+00 0.58683227E+03</pdfrwt>
<pdfrwt beam="2">  1       -2 0.11960446E-01 0.58683227E+03</pdfrwt>
<totfact> 0.13875245E+03</totfact>
</mgrwt>
</event>
<event>
 4    1  0.5023236E-005  0.9204584E+03  0.7818608E-02  0.9400363E-01
          2   -1    0    0  501    0  0.00000000000E+00  0.00000000000E+00  0.14069119242E+03  0.14069119245E+03  0.25500000000E-02 0.  1.
         -2   -1    0    0    0  501 -0.00000000000E+00 -0.00000000000E+00 -0.15055023674E+04  0.15055023674E+04  0.25500000000E-02 0. -1.
    5000001    1    1    2    0    0  0.26451139684E+02  0.40305650606E+03 -0.51221401103E+03  0.68199589658E+03  0.19900000000E+03 0.  0.
   -5000001    1    1    2    0    0 -0.26451139684E+02 -0.40305650606E+03 -0.85259716390E+03  0.96419766322E+03  0.19900000000E+03 0.  0.
<mgrwt>
<rscale>  0 0.92045841E+03</rscale>
<asrwt>0</asrwt>
<pdfrwt beam="1">  1        2 0.20098743E-01 0.92045841E+03</pdfrwt>
<pdfrwt beam="2">  1       -2 0.21507176E+00 0.92045841E+03</pdfrwt>
<totfact> 0.30267541E+01</totfact>
</mgrwt>
</event>
<event>
 4    1  0.5023236E-005  0.5713363E+03  0.7818608E-02  0.9966726E-01
         -2   -1    0    0    0  501 -0.00000000000E+00  0.00000000000E+00  0.50610283278E+02  0.50610283342E+02  0.25500000000E-02 0. -1.
          2   -1    0    0  501    0  0.00000000000E+00 -0.00000000000E+00 -0.16124449653E+04  0.16124449653E+04  0.25500000000E-02 0.  1.
    5000001    1    1    2    0    0 -0.12391262840E+03  0.14387621085E+03 -0.55637669367E+03  0.62065346916E+03  0.19900000000E+03 0.  0.
   -5000001    1    1    2    0    0  0.12391262840E+03 -0.14387621085E+03 -0.10054579884E+04  0.10424017795E+04  0.19900000000E+03 0.  0.
<mgrwt>
<rscale>  0 0.57133632E+03</rscale>
<asrwt>0</asrwt>
<pdfrwt beam="1">  1        2 0.23034925E+00 0.57133632E+03</pdfrwt>
<pdfrwt beam="2">  1       -2 0.72300415E-02 0.57133632E+03</pdfrwt>
<totfact> 0.14997443E+03</totfact>
</mgrwt>
</event>
<event>
 4    1  0.5023236E-005  0.1070296E+04  0.7818608E-02  0.9234637E-01
         -2   -1    0    0    0  501 -0.00000000000E+00  0.00000000000E+00  0.14375852369E+03  0.14375852371E+03  0.25500000000E-02 0. -1.
          2   -1    0    0  501    0  0.00000000000E+00 -0.00000000000E+00 -0.19921139710E+04  0.19921139710E+04  0.25500000000E-02 0.  1.
    5000001    1    1    2    0    0  0.19801609711E+03  0.31898800548E+02 -0.17216502984E+02  0.28306415557E+03  0.19900000000E+03 0.  0.
   -5000001    1    1    2    0    0 -0.19801609711E+03 -0.31898800548E+02 -0.18311389444E+04  0.18528083392E+04  0.19900000000E+03 0.  0.
<mgrwt>
<rscale>  0 0.10702960E+04</rscale>
<asrwt>0</asrwt>
<pdfrwt beam="1">  1        2 0.28458769E+00 0.10702960E+04</pdfrwt>
<pdfrwt beam="2">  1       -2 0.20536933E-01 0.10702960E+04</pdfrwt>
<totfact> 0.16445792E+02</totfact>
</mgrwt>
</event>
<event>
 4    1  0.5023236E-005  0.6572603E+03  0.7818608E-02  0.9793250E-01
         -2   -1    0    0    0  501 -0.00000000000E+00  0.00000000000E+00  0.84200204881E+02  0.84200204920E+02  0.25500000000E-02 0. -1.
          2   -1    0    0  501    0  0.00000000000E+00 -0.00000000000E+00 -0.12826308272E+04  0.12826308272E+04  0.25500000000E-02 0.  1.
    5000001    1    1    2    0    0 -0.23647657446E+03  0.46148175316E+01 -0.36713553962E+03  0.47992913150E+03  0.19900000000E+03 0.  0.
   -5000001    1    1    2    0    0  0.23647657446E+03 -0.46148175316E+01 -0.83129508270E+03  0.88690190063E+03  0.19900000000E+03 0.  0.
<mgrwt>
<rscale>  0 0.65726031E+03</rscale>
<asrwt>0</asrwt>
<pdfrwt beam="1">  1        2 0.18323296E+00 0.65726031E+03</pdfrwt>
<pdfrwt beam="2">  1       -2 0.12028601E-01 0.65726031E+03</pdfrwt>
<totfact> 0.98172417E+02</totfact>
</mgrwt>
</event>
<event>
 4    1  0.5023236E-005  0.5624058E+03  0.7818608E-02  0.9986626E-01
          2   -1    0    0  501    0  0.00000000000E+00  0.00000000000E+00  0.16235960704E+04  0.16235960704E+04  0.25500000000E-02 0.  1.
         -2   -1    0    0    0  501 -0.00000000000E+00 -0.00000000000E+00 -0.48703654701E+02  0.48703654767E+02  0.25500000000E-02 0. -1.
    5000001    1    1    2    0    0 -0.54260287583E+02  0.17248174153E+03  0.54260921587E+03  0.60557401786E+03  0.19900000000E+03 0.  0.
   -5000001    1    1    2    0    0  0.54260287583E+02 -0.17248174153E+03  0.10322831998E+04  0.10667257073E+04  0.19900000000E+03 0.  0.
<mgrwt>
<rscale>  0 0.56240577E+03</rscale>
<asrwt>0</asrwt>
<pdfrwt beam="1">  1        2 0.23194230E+00 0.56240577E+03</pdfrwt>
<pdfrwt beam="2">  1       -2 0.69576647E-02 0.56240577E+03</pdfrwt>
<totfact> 0.15732357E+03</totfact>
</mgrwt>
</event>
<event>
 4    1  0.5023236E-005  0.4737297E+03  0.7818608E-02  0.1020873E+00
          2   -1    0    0  501    0  0.00000000000E+00  0.00000000000E+00  0.55717979992E+03  0.55717979993E+03  0.25500000000E-02 0.  1.
         -2   -1    0    0    0  501 -0.00000000000E+00 -0.00000000000E+00 -0.10069452512E+03  0.10069452515E+03  0.25500000000E-02 0. -1.
    5000001    1    1    2    0    0 -0.66871977159E+02 -0.25061526704E+02  0.37654265434E+03  0.43183945163E+03  0.19900000000E+03 0.  0.
   -5000001    1    1    2    0    0  0.66871977159E+02  0.25061526704E+02  0.79942620463E+02  0.22603487345E+03  0.19900000000E+03 0.  0.
<mgrwt>
<rscale>  0 0.47372969E+03</rscale>
<asrwt>0</asrwt>
<pdfrwt beam="1">  1        2 0.79597114E-01 0.47372969E+03</pdfrwt>
<pdfrwt beam="2">  1       -2 0.14384932E-01 0.47372969E+03</pdfrwt>
<totfact> 0.22133543E+03</totfact>
</mgrwt>
</event>
<event>
 4    1  0.5023236E-005  0.5906476E+03  0.7818608E-02  0.9925001E-01
         -2   -1    0    0    0  501 -0.00000000000E+00  0.00000000000E+00  0.41253877188E+03  0.41253877189E+03  0.25500000000E-02 0. -1.
          2   -1    0    0  501    0  0.00000000000E+00 -0.00000000000E+00 -0.21141324591E+03  0.21141324593E+03  0.25500000000E-02 0.  1.
    5000001    1    1    2    0    0  0.19476268344E+03  0.97547609596E+00 -0.33810561367E+01  0.27847061956E+03  0.19900000000E+03 0.  0.
   -5000001    1    1    2    0    0 -0.19476268344E+03 -0.97547609596E+00  0.20450658211E+03  0.34548139826E+03  0.19900000000E+03 0.  0.
<mgrwt>
<rscale>  0 0.59064765E+03</rscale>
<asrwt>0</asrwt>
<pdfrwt beam="1">  1        2 0.30201893E-01 0.59064765E+03</pdfrwt>
<pdfrwt beam="2">  1       -2 0.58934109E-01 0.59064765E+03</pdfrwt>
<totfact> 0.47911526E+02</totfact>
</mgrwt>
</event>
<event>
 4    1  0.5023236E-005  0.5203277E+03  0.7818608E-02  0.1008605E+00
         -2   -1    0    0    0  501 -0.00000000000E+00  0.00000000000E+00  0.79663161212E+03  0.79663161213E+03  0.25500000000E-02 0. -1.
          2   -1    0    0  501    0  0.00000000000E+00 -0.00000000000E+00 -0.84964277705E+02  0.84964277743E+02  0.25500000000E-02 0.  1.
    5000001    1    1    2    0    0 -0.32627975319E+02  0.29229761689E+02  0.81767653206E+02  0.21955844974E+03  0.19900000000E+03 0.  0.
   -5000001    1    1    2    0    0  0.32627975319E+02 -0.29229761689E+02  0.62989968121E+03  0.66203744013E+03  0.19900000000E+03 0.  0.
<mgrwt>
<rscale>  0 0.52032770E+03</rscale>
<asrwt>0</asrwt>
<pdfrwt beam="1">  1        2 0.12137753E-01 0.52032770E+03</pdfrwt>
<pdfrwt beam="2">  1       -2 0.11380452E+00 0.52032770E+03</pdfrwt>
<totfact> 0.31877590E+02</totfact>
</mgrwt>
</event>
<event>
 4    1  0.5023236E-005  0.6933427E+03  0.7818608E-02  0.9728685E-01
          2   -1    0    0  501    0  0.00000000000E+00  0.00000000000E+00  0.21506801809E+04  0.21506801809E+04  0.25500000000E-02 0.  1.
         -2   -1    0    0    0  501 -0.00000000000E+00 -0.00000000000E+00 -0.55880471234E+02  0.55880471292E+02  0.25500000000E-02 0. -1.
    5000001    1    1    2    0    0  0.20485313234E+03 -0.17136386322E+03  0.74132306098E+03  0.81270613397E+03  0.19900000000E+03 0.  0.
   -5000001    1    1    2    0    0 -0.20485313234E+03  0.17136386322E+03  0.13534766487E+04  0.13938545183E+04  0.19900000000E+03 0.  0.
<mgrwt>
<rscale>  0 0.69334269E+03</rscale>
<asrwt>0</asrwt>
<pdfrwt beam="1">  1        2 0.30724012E+00 0.69334269E+03</pdfrwt>
<pdfrwt beam="2">  1       -2 0.79829220E-02 0.69334269E+03</pdfrwt>
<totfact> 0.68022931E+02</totfact>
</mgrwt>
</event>
<event>
 4    1  0.5023236E-005  0.1375283E+04  0.7818608E-02  0.8971907E-01
         -2   -1    0    0    0  501 -0.00000000000E+00  0.00000000000E+00  0.18700555228E+04  0.18700555228E+04  0.25500000000E-02 0. -1.
          2   -1    0    0  501    0  0.00000000000E+00 -0.00000000000E+00 -0.25285371771E+03  0.25285371773E+03  0.25500000000E-02 0.  1.
    5000001    1    1    2    0    0  0.29871231678E+03 -0.56073922280E+03  0.10741387480E+04  0.12637375416E+04  0.19900000000E+03 0.  0.
   -5000001    1    1    2    0    0 -0.29871231678E+03  0.56073922280E+03  0.54306305706E+03  0.85917169887E+03  0.19900000000E+03 0.  0.
<mgrwt>
<rscale>  0 0.13752825E+04</rscale>
<asrwt>0</asrwt>
<pdfrwt beam="1">  1        2 0.36121960E-01 0.13752825E+04</pdfrwt>
<pdfrwt beam="2">  1       -2 0.26715079E+00 0.13752825E+04</pdfrwt>
<totfact> 0.71327855E+00</totfact>
</mgrwt>
</event>
<event>
 4    1  0.5023236E-005  0.4200686E+03  0.7818608E-02  0.1037044E+00
          2   -1    0    0  501    0  0.00000000000E+00  0.00000000000E+00  0.10147491316E+03  0.10147491319E+03  0.25500000000E-02 0. -1.
         -2   -1    0    0    0  501 -0.00000000000E+00 -0.00000000000E+00 -0.43473216477E+03  0.43473216478E+03  0.25500000000E-02 0.  1.
    5000001    1    1    2    0    0  0.17181739386E+02  0.64814647374E+02 -0.16132579826E+03  0.26480778665E+03  0.19900000000E+03 0.  0.
   -5000001    1    1    2    0    0 -0.17181739386E+02 -0.64814647374E+02 -0.17193145334E+03  0.27139929132E+03  0.19900000000E+03 0.  0.
<mgrwt>
<rscale>  0 0.42006861E+03</rscale>
<asrwt>0</asrwt>
<pdfrwt beam="1">  1        2 0.14496416E-01 0.42006861E+03</pdfrwt>
<pdfrwt beam="2">  1       -2 0.62104594E-01 0.42006861E+03</pdfrwt>
<totfact> 0.10070580E+03</totfact>
</mgrwt>
</event>
<event>
 4    1  0.5023236E-005  0.7850411E+03  0.7818608E-02  0.9581925E-01
          2   -1    0    0  501    0  0.00000000000E+00  0.00000000000E+00  0.14290569837E+04  0.14290569837E+04  0.25500000000E-02 0.  1.
         -2   -1    0    0    0  501 -0.00000000000E+00 -0.00000000000E+00 -0.10781403573E+03  0.10781403576E+03  0.25500000000E-02 0. -1.
    5000001    1    1    2    0    0  0.11037117251E+03  0.23988930536E+03  0.24652052878E+03  0.41243429253E+03  0.19900000000E+03 0.  0.
   -5000001    1    1    2    0    0 -0.11037117251E+03 -0.23988930536E+03  0.10747224192E+04  0.11244367269E+04  0.19900000000E+03 0.  0.
<mgrwt>
<rscale>  0 0.78504115E+03</rscale>
<asrwt>0</asrwt>
<pdfrwt beam="1">  1        2 0.20415099E+00 0.78504115E+03</pdfrwt>
<pdfrwt beam="2">  1       -2 0.15402006E-01 0.78504115E+03</pdfrwt>
<totfact> 0.53823466E+02</totfact>
</mgrwt>
</event>
<event>
 4    1  0.5023236E-005  0.5936791E+03  0.7818608E-02  0.9918607E-01
         -2   -1    0    0    0  501 -0.00000000000E+00  0.00000000000E+00  0.28854935798E+03  0.28854935800E+03  0.25500000000E-02 0. -1.
          2   -1    0    0  501    0  0.00000000000E+00 -0.00000000000E+00 -0.30536789149E+03  0.30536789150E+03  0.25500000000E-02 0.  1.
    5000001    1    1    2    0    0 -0.77450603551E+01  0.21162950529E+03  0.52159846404E+02  0.29524343015E+03  0.19900000000E+03 0.  0.
   -5000001    1    1    2    0    0  0.77450603551E+01 -0.21162950529E+03 -0.68978379909E+02  0.29867381935E+03  0.19900000000E+03 0.  0.
<mgrwt>
<rscale>  0 0.59367907E+03</rscale>
<asrwt>0</asrwt>
<pdfrwt beam="1">  1        2 0.43623985E-01 0.59367907E+03</pdfrwt>
<pdfrwt beam="2">  1       -2 0.41221337E-01 0.59367907E+03</pdfrwt>
<totfact> 0.65574839E+02</totfact>
</mgrwt>
</event>
<event>
 4    1  0.5023236E-005  0.9195814E+03  0.7818608E-02  0.9401429E-01
          2   -1    0    0  501    0  0.00000000000E+00  0.00000000000E+00  0.92459528568E+03  0.92459528568E+03  0.25500000000E-02 0.  1.
         -2   -1    0    0    0  501 -0.00000000000E+00 -0.00000000000E+00 -0.22864869175E+03  0.22864869176E+03  0.25500000000E-02 0. -1.
    5000001    1    1    2    0    0 -0.93684256583E+00  0.37715491792E+03  0.56358964888E+03  0.70673969898E+03  0.19900000000E+03 0.  0.
   -5000001    1    1    2    0    0  0.93684256583E+00 -0.37715491792E+03  0.13235694505E+03  0.44650427847E+03  0.19900000000E+03 0.  0.
<mgrwt>
<rscale>  0 0.91958143E+03</rscale>
<asrwt>0</asrwt>
<pdfrwt beam="1">  1        2 0.13208504E+00 0.91958143E+03</pdfrwt>
<pdfrwt beam="2">  1       -2 0.32664099E-01 0.91958143E+03</pdfrwt>
<totfact> 0.27365772E+02</totfact>
</mgrwt>
</event>
<event>
 4    1  0.5023236E-005  0.5075730E+03  0.7818608E-02  0.1011821E+00
         -2   -1    0    0    0  501 -0.00000000000E+00  0.00000000000E+00  0.51645137392E+02  0.51645137455E+02  0.25500000000E-02 0. -1.
          2   -1    0    0  501    0  0.00000000000E+00 -0.00000000000E+00 -0.12471180729E+04  0.12471180729E+04  0.25500000000E-02 0.  1.
    5000001    1    1    2    0    0 -0.72579954961E+02 -0.11816861839E+03 -0.40668495249E+03  0.47352436348E+03  0.19900000000E+03 0.  0.
   -5000001    1    1    2    0    0  0.72579954961E+02  0.11816861839E+03 -0.78878798307E+03  0.82523884692E+03  0.19900000000E+03 0.  0.
<mgrwt>
<rscale>  0 0.50757299E+03</rscale>
<asrwt>0</asrwt>
<pdfrwt beam="1">  1        2 0.17815971E+00 0.50757299E+03</pdfrwt>
<pdfrwt beam="2">  1       -2 0.73778775E-02 0.50757299E+03</pdfrwt>
<totfact> 0.22670406E+03</totfact>
</mgrwt>
</event>
<event>
 4    1  0.5023236E-005  0.4517468E+03  0.7818608E-02  0.1027202E+00
          2   -1    0    0  501    0  0.00000000000E+00  0.00000000000E+00  0.25327219412E+03  0.25327219413E+03  0.25500000000E-02 0.  1.
         -2   -1    0    0    0  501 -0.00000000000E+00 -0.00000000000E+00 -0.20143854490E+03  0.20143854491E+03  0.25500000000E-02 0. -1.
    5000001    1    1    2    0    0  0.10491963133E+02  0.58470065496E+02 -0.63485711604E+02  0.21716414397E+03  0.19900000000E+03 0.  0.
   -5000001    1    1    2    0    0 -0.10491963133E+02 -0.58470065496E+02  0.11531936082E+03  0.23754659507E+03  0.19900000000E+03 0.  0.
<mgrwt>
<rscale>  0 0.45174675E+03</rscale>
<asrwt>0</asrwt>
<pdfrwt beam="1">  1        2 0.36181742E-01 0.45174675E+03</pdfrwt>
<pdfrwt beam="2">  1       -2 0.28776935E-01 0.45174675E+03</pdfrwt>
<totfact> 0.15868692E+03</totfact>
</mgrwt>
</event>
<event>
 4    1  0.5023236E-005  0.5381132E+03  0.7818608E-02  0.1004283E+00
         -2   -1    0    0    0  501 -0.00000000000E+00  0.00000000000E+00  0.72126993441E+02  0.72126993486E+02  0.25500000000E-02 0. -1.
          2   -1    0    0  501    0  0.00000000000E+00 -0.00000000000E+00 -0.10036667031E+04  0.10036667031E+04  0.25500000000E-02 0.  1.
    5000001    1    1    2    0    0 -0.11088312462E+03 -0.12499241319E+03 -0.60531731559E+03  0.65873228495E+03  0.19900000000E+03 0.  0.
   -5000001    1    1    2    0    0  0.11088312462E+03  0.12499241319E+03 -0.32622239403E+03  0.41706141160E+03  0.19900000000E+03 0.  0.
<mgrwt>
<rscale>  0 0.53811323E+03</rscale>
<asrwt>0</asrwt>
<pdfrwt beam="1">  1        2 0.14338095E+00 0.53811323E+03</pdfrwt>
<pdfrwt beam="2">  1       -2 0.10303857E-01 0.53811323E+03</pdfrwt>
<totfact> 0.18328485E+03</totfact>
</mgrwt>
</event>
<event>
 4    1  0.5023236E-005  0.7187119E+03  0.7818608E-02  0.9685757E-01
         -2   -1    0    0    0  501 -0.00000000000E+00  0.00000000000E+00  0.70827263075E+02  0.70827263121E+02  0.25500000000E-02 0. -1.
          2   -1    0    0  501    0  0.00000000000E+00 -0.00000000000E+00 -0.18232623997E+04  0.18232623998E+04  0.25500000000E-02 0.  1.
    5000001    1    1    2    0    0 -0.63141059090E+02 -0.20933036301E+03 -0.33786311853E+03  0.44895264905E+03  0.19900000000E+03 0.  0.
   -5000001    1    1    2    0    0  0.63141059090E+02  0.20933036301E+03 -0.14145720181E+04  0.14451370138E+04  0.19900000000E+03 0.  0.
<mgrwt>
<rscale>  0 0.71871186E+03</rscale>
<asrwt>0</asrwt>
<pdfrwt beam="1">  1        2 0.26046603E+00 0.71871186E+03</pdfrwt>
<pdfrwt beam="2">  1       -2 0.10118182E-01 0.71871186E+03</pdfrwt>
<totfact> 0.67833746E+02</totfact>
</mgrwt>
</event>
<event>
 4    1  0.5023236E-005  0.5834529E+03  0.7818608E-02  0.9940343E-01
         -2   -1    0    0    0  501 -0.00000000000E+00  0.00000000000E+00  0.20729855134E+03  0.20729855136E+03  0.25500000000E-02 0. -1.
          2   -1    0    0  501    0  0.00000000000E+00 -0.00000000000E+00 -0.41053994364E+03  0.41053994365E+03  0.25500000000E-02 0.  1.
    5000001    1    1    2    0    0  0.12098140579E+03  0.17484410576E+03 -0.11985079297E+03  0.31491613875E+03  0.19900000000E+03 0.  0.
   -5000001    1    1    2    0    0 -0.12098140579E+03 -0.17484410576E+03 -0.83390599323E+02  0.30292235626E+03  0.19900000000E+03 0.  0.
<mgrwt>
<rscale>  0 0.58345295E+03</rscale>
<asrwt>0</asrwt>
<pdfrwt beam="1">  1        2 0.58648563E-01 0.58345295E+03</pdfrwt>
<pdfrwt beam="2">  1       -2 0.29614079E-01 0.58345295E+03</pdfrwt>
<totfact> 0.88466383E+02</totfact>
</mgrwt>
</event>
<event>
 4    1  0.5023236E-005  0.9917055E+03  0.7818608E-02  0.9317689E-01
         -2   -1    0    0    0  501 -0.00000000000E+00  0.00000000000E+00  0.17043711220E+03  0.17043711222E+03  0.25500000000E-02 0. -1.
          2   -1    0    0  501    0  0.00000000000E+00 -0.00000000000E+00 -0.14425846136E+04  0.14425846136E+04  0.25500000000E-02 0.  1.
    5000001    1    1    2    0    0  0.12450099505E+03  0.34491970189E+03 -0.20024461945E+03  0.46278397351E+03  0.19900000000E+03 0.  0.
   -5000001    1    1    2    0    0 -0.12450099505E+03 -0.34491970189E+03 -0.10719028820E+04  0.11502377523E+04  0.19900000000E+03 0.  0.
<mgrwt>
<rscale>  0 0.99170551E+03</rscale>
<asrwt>0</asrwt>
<pdfrwt beam="1">  1        2 0.20608351E+00 0.99170551E+03</pdfrwt>
<pdfrwt beam="2">  1       -2 0.24348160E-01 0.99170551E+03</pdfrwt>
<totfact> 0.23523605E+02</totfact>
</mgrwt>
</event>
<event>
 4    1  0.5023236E-005  0.9634974E+03  0.7818608E-02  0.9349512E-01
         -2   -1    0    0    0  501 -0.00000000000E+00  0.00000000000E+00  0.13180351751E+04  0.13180351751E+04  0.25500000000E-02 0. -1.
          2   -1    0    0  501    0  0.00000000000E+00 -0.00000000000E+00 -0.17608164622E+03  0.17608164624E+03  0.25500000000E-02 0.  1.
    5000001    1    1    2    0    0 -0.82360724914E+02  0.38375549371E+03  0.26698285227E+03  0.51471585498E+03  0.19900000000E+03 0.  0.
   -5000001    1    1    2    0    0  0.82360724914E+02 -0.38375549371E+03  0.87497067660E+03  0.97940096634E+03  0.19900000000E+03 0.  0.
<mgrwt>
<rscale>  0 0.96349739E+03</rscale>
<asrwt>0</asrwt>
<pdfrwt beam="1">  1        2 0.25154520E-01 0.96349739E+03</pdfrwt>
<pdfrwt beam="2">  1       -2 0.18829075E+00 0.96349739E+03</pdfrwt>
<totfact> 0.34718867E+01</totfact>
</mgrwt>
</event>
<event>
 4    1  0.5023236E-005  0.4347753E+03  0.7818608E-02  0.1032362E+00
         -2   -1    0    0    0  501 -0.00000000000E+00  0.00000000000E+00  0.17754519351E+02  0.17754519534E+02  0.25500000000E-02 0. -1.
          2   -1    0    0  501    0  0.00000000000E+00 -0.00000000000E+00 -0.26617100497E+04  0.26617100497E+04  0.25500000000E-02 0.  1.
    5000001    1    1    2    0    0 -0.14784023251E+02  0.86236364937E+02 -0.13154998580E+04  0.13333402246E+04  0.19900000000E+03 0.  0.
   -5000001    1    1    2    0    0  0.14784023251E+02 -0.86236364937E+02 -0.13284556723E+04  0.13461243446E+04  0.19900000000E+03 0.  0.
<mgrwt>
<rscale>  0 0.43477527E+03</rscale>
<asrwt>0</asrwt>
<pdfrwt beam="1">  1        2 0.38024404E+00 0.43477527E+03</pdfrwt>
<pdfrwt beam="2">  1       -2 0.25363616E-02 0.43477527E+03</pdfrwt>
<totfact> 0.22324397E+03</totfact>
</mgrwt>
</event>
<event>
 4    1  0.5023236E-005  0.6392884E+03  0.7818608E-02  0.9827089E-01
         -2   -1    0    0    0  501 -0.00000000000E+00  0.00000000000E+00  0.81950296850E+02  0.81950296890E+02  0.25500000000E-02 0. -1.
          2   -1    0    0  501    0  0.00000000000E+00 -0.00000000000E+00 -0.12467607662E+04  0.12467607662E+04  0.25500000000E-02 0.  1.
    5000001    1    1    2    0    0  0.59720724643E+01  0.66289144345E+02 -0.10835657383E+04  0.11036963466E+04  0.19900000000E+03 0.  0.
   -5000001    1    1    2    0    0 -0.59720724643E+01 -0.66289144345E+02 -0.81244731046E+02  0.22501471647E+03  0.19900000000E+03 0.  0.
<mgrwt>
<rscale>  0 0.63928840E+03</rscale>
<asrwt>0</asrwt>
<pdfrwt beam="1">  1        2 0.17810867E+00 0.63928840E+03</pdfrwt>
<pdfrwt beam="2">  1       -2 0.11707186E-01 0.63928840E+03</pdfrwt>
<totfact> 0.10749444E+03</totfact>
</mgrwt>
</event>
<event>
 4    1  0.5023236E-005  0.4796562E+03  0.7818608E-02  0.1019230E+00
         -2   -1    0    0    0  501 -0.00000000000E+00  0.00000000000E+00  0.50474571674E+02  0.50474571738E+02  0.25500000000E-02 0. -1.
          2   -1    0    0  501    0  0.00000000000E+00 -0.00000000000E+00 -0.11395344888E+04  0.11395344888E+04  0.25500000000E-02 0.  1.
    5000001    1    1    2    0    0 -0.99368330537E+01 -0.12755914819E+03 -0.64209326668E+03  0.68429148764E+03  0.19900000000E+03 0.  0.
   -5000001    1    1    2    0    0  0.99368330537E+01  0.12755914819E+03 -0.44696665049E+03  0.50571757295E+03  0.19900000000E+03 0.  0.
<mgrwt>
<rscale>  0 0.47965619E+03</rscale>
<asrwt>0</asrwt>
<pdfrwt beam="1">  1        2 0.16279063E+00 0.47965619E+03</pdfrwt>
<pdfrwt beam="2">  1       -2 0.72106538E-02 0.47965619E+03</pdfrwt>
<totfact> 0.26993122E+03</totfact>
</mgrwt>
</event>
<event>
 4    1  0.5023236E-005  0.5160180E+03  0.7818608E-02  0.1009681E+00
          2   -1    0    0  501    0  0.00000000000E+00  0.00000000000E+00  0.11498054388E+04  0.11498054388E+04  0.25500000000E-02 0.  1.
         -2   -1    0    0    0  501 -0.00000000000E+00 -0.00000000000E+00 -0.57895582186E+02  0.57895582242E+02  0.25500000000E-02 0. -1.
    5000001    1    1    2    0    0  0.67095762779E+02 -0.13826518788E+03  0.68138747765E+03  0.72629814695E+03  0.19900000000E+03 0.  0.
   -5000001    1    1    2    0    0 -0.67095762779E+02  0.13826518788E+03  0.41052237898E+03  0.48140287411E+03  0.19900000000E+03 0.  0.
<mgrwt>
<rscale>  0 0.51601804E+03</rscale>
<asrwt>0</asrwt>
<pdfrwt beam="1">  1        2 0.16425791E+00 0.51601804E+03</pdfrwt>
<pdfrwt beam="2">  1       -2 0.82707978E-02 0.51601804E+03</pdfrwt>
<totfact> 0.21429012E+03</totfact>
</mgrwt>
</event>
<event>
 4    1  0.5023236E-005  0.4295454E+03  0.7818608E-02  0.1034004E+00
         -2   -1    0    0    0  501 -0.00000000000E+00  0.00000000000E+00  0.21386784133E+03  0.21386784135E+03  0.25500000000E-02 0. -1.
          2   -1    0    0  501    0  0.00000000000E+00 -0.00000000000E+00 -0.21568142662E+03  0.21568142664E+03  0.25500000000E-02 0.  1.
    5000001    1    1    2    0    0  0.71278674433E+02 -0.27176882578E+01  0.37018284997E+02  0.21461451182E+03  0.19900000000E+03 0.  0.
   -5000001    1    1    2    0    0 -0.71278674433E+02  0.27176882578E+01 -0.38831870288E+02  0.21493475617E+03  0.19900000000E+03 0.  0.
<mgrwt>
<rscale>  0 0.42954544E+03</rscale>
<asrwt>0</asrwt>
<pdfrwt beam="1">  1        2 0.30811632E-01 0.42954544E+03</pdfrwt>
<pdfrwt beam="2">  1       -2 0.30552549E-01 0.42954544E+03</pdfrwt>
<totfact> 0.16977696E+03</totfact>
</mgrwt>
</event>
<event>
 4    1  0.5023236E-005  0.7139667E+03  0.7818608E-02  0.9693641E-01
         -2   -1    0    0    0  501 -0.00000000000E+00  0.00000000000E+00  0.54790252374E+03  0.54790252374E+03  0.25500000000E-02 0. -1.
          2   -1    0    0  501    0  0.00000000000E+00 -0.00000000000E+00 -0.23259081785E+03  0.23259081786E+03  0.25500000000E-02 0.  1.
    5000001    1    1    2    0    0 -0.20063320175E+03 -0.19571975775E+03  0.26294318281E+03  0.43278172629E+03  0.19900000000E+03 0.  0.
   -5000001    1    1    2    0    0  0.20063320175E+03  0.19571975775E+03  0.52368523076E+02  0.34771161532E+03  0.19900000000E+03 0.  0.
<mgrwt>
<rscale>  0 0.71396665E+03</rscale>
<asrwt>0</asrwt>
<pdfrwt beam="1">  1        2 0.33227259E-01 0.71396665E+03</pdfrwt>
<pdfrwt beam="2">  1       -2 0.78271791E-01 0.71396665E+03</pdfrwt>
<totfact> 0.23234539E+02</totfact>
</mgrwt>
</event>
<event>
 4    1  0.5023236E-005  0.6330861E+03  0.7818608E-02  0.9839045E-01
          2   -1    0    0  501    0  0.00000000000E+00  0.00000000000E+00  0.30295894364E+03  0.30295894365E+03  0.25500000000E-02 0.  1.
         -2   -1    0    0    0  501 -0.00000000000E+00 -0.00000000000E+00 -0.33073620671E+03  0.33073620672E+03  0.25500000000E-02 0. -1.
    5000001    1    1    2    0    0  0.24346636841E+03  0.36341314202E+02 -0.15278545277E+02  0.31690850038E+03  0.19900000000E+03 0.  0.
   -5000001    1    1    2    0    0 -0.24346636841E+03 -0.36341314202E+02 -0.12498717789E+02  0.31678664999E+03  0.19900000000E+03 0.  0.
<mgrwt>
<rscale>  0 0.63308607E+03</rscale>
<asrwt>0</asrwt>
<pdfrwt beam="1">  1        2 0.43279849E-01 0.63308607E+03</pdfrwt>
<pdfrwt beam="2">  1       -2 0.47248029E-01 0.63308607E+03</pdfrwt>
<totfact> 0.50467376E+02</totfact>
</mgrwt>
</event>
<event>
 4    1  0.5023236E-005  0.4831031E+03  0.7818608E-02  0.1018286E+00
         -2   -1    0    0    0  501 -0.00000000000E+00  0.00000000000E+00  0.96726324508E+02  0.96726324541E+02  0.25500000000E-02 0. -1.
          2   -1    0    0  501    0  0.00000000000E+00 -0.00000000000E+00 -0.60321895525E+03  0.60321895525E+03  0.25500000000E-02 0.  1.
    5000001    1    1    2    0    0  0.74146952667E+02 -0.11508741759E+03 -0.25062707573E+03  0.34807731234E+03  0.19900000000E+03 0.  0.
   -5000001    1    1    2    0    0 -0.74146952667E+02  0.11508741759E+03 -0.25586555501E+03  0.35186796745E+03  0.19900000000E+03 0.  0.
<mgrwt>
<rscale>  0 0.48310310E+03</rscale>
<asrwt>0</asrwt>
<pdfrwt beam="1">  1        2 0.86174134E-01 0.48310310E+03</pdfrwt>
<pdfrwt beam="2">  1       -2 0.13818047E-01 0.48310310E+03</pdfrwt>
<totfact> 0.21587569E+03</totfact>
</mgrwt>
</event>
<event>
 4    1  0.5023236E-005  0.1194573E+04  0.7818608E-02  0.9117620E-01
          2   -1    0    0  501    0  0.00000000000E+00  0.00000000000E+00  0.83197542083E+03  0.83197542083E+03  0.25500000000E-02 0.  1.
         -2   -1    0    0    0  501 -0.00000000000E+00 -0.00000000000E+00 -0.42880021683E+03  0.42880021684E+03  0.25500000000E-02 0. -1.
    5000001    1    1    2    0    0 -0.22685591871E+03  0.39505367572E+03 -0.14784903145E+03  0.51864376084E+03  0.19900000000E+03 0.  0.
   -5000001    1    1    2    0    0  0.22685591871E+03 -0.39505367572E+03  0.55102423545E+03  0.74213187683E+03  0.19900000000E+03 0.  0.
<mgrwt>
<rscale>  0 0.11945731E+04</rscale>
<asrwt>0</asrwt>
<pdfrwt beam="1">  1        2 0.11885363E+00 0.11945731E+04</pdfrwt>
<pdfrwt beam="2">  1       -2 0.61257174E-01 0.11945731E+04</pdfrwt>
<totfact> 0.88429580E+01</totfact>
</mgrwt>
</event>
<event>
 4    1  0.5023236E-005  0.4416655E+03  0.7818608E-02  0.1030237E+00
         -2   -1    0    0    0  501 -0.00000000000E+00  0.00000000000E+00  0.41266803663E+03  0.41266803664E+03  0.25500000000E-02 0. -1.
          2   -1    0    0  501    0  0.00000000000E+00 -0.00000000000E+00 -0.11817512164E+03  0.11817512166E+03  0.25500000000E-02 0.  1.
    5000001    1    1    2    0    0  0.52625265633E+02 -0.79865040459E+02  0.14211158154E+03  0.26257293249E+03  0.19900000000E+03 0.  0.
   -5000001    1    1    2    0    0 -0.52625265633E+02  0.79865040459E+02  0.15238133346E+03  0.26827022581E+03  0.19900000000E+03 0.  0.
<mgrwt>
<rscale>  0 0.44166546E+03</rscale>
<asrwt>0</asrwt>
<pdfrwt beam="1">  1        2 0.16882160E-01 0.44166546E+03</pdfrwt>
<pdfrwt beam="2">  1       -2 0.58952576E-01 0.44166546E+03</pdfrwt>
<totfact> 0.93632866E+02</totfact>
</mgrwt>
</event>
<event>
 4    1  0.5023236E-005  0.5356980E+03  0.7818608E-02  0.1004860E+00
         -2   -1    0    0    0  501 -0.00000000000E+00  0.00000000000E+00  0.24706264794E+03  0.24706264795E+03  0.25500000000E-02 0. -1.
          2   -1    0    0  501    0  0.00000000000E+00 -0.00000000000E+00 -0.29038423073E+03  0.29038423074E+03  0.25500000000E-02 0.  1.
    5000001    1    1    2    0    0 -0.47301105555E+02  0.17269917782E+03 -0.12704365384E+02  0.26800149534E+03  0.19900000000E+03 0.  0.
   -5000001    1    1    2    0    0  0.47301105555E+02 -0.17269917782E+03 -0.30617217407E+02  0.26944538335E+03  0.19900000000E+03 0.  0.
<mgrwt>
<rscale>  0 0.53569804E+03</rscale>
<asrwt>0</asrwt>
<pdfrwt beam="1">  1        2 0.41483461E-01 0.53569804E+03</pdfrwt>
<pdfrwt beam="2">  1       -2 0.35294664E-01 0.53569804E+03</pdfrwt>
<totfact> 0.93455752E+02</totfact>
</mgrwt>
</event>
<event>
 4    1  0.5023236E-005  0.1043128E+04  0.7818608E-02  0.9262468E-01
          2   -1    0    0  501    0  0.00000000000E+00  0.00000000000E+00  0.18665920330E+04  0.18665920330E+04  0.25500000000E-02 0. -1.
         -2   -1    0    0    0  501 -0.00000000000E+00 -0.00000000000E+00 -0.14573553325E+03  0.14573553327E+03  0.25500000000E-02 0.  1.
    5000001    1    1    2    0    0 -0.46498946789E+03  0.78187847446E+02  0.10542960172E+04  0.11719512092E+04  0.19900000000E+03 0.  0.
   -5000001    1    1    2    0    0  0.46498946789E+03 -0.78187847446E+02  0.66656048257E+03  0.84037635715E+03  0.19900000000E+03 0.  0.
<mgrwt>
<rscale>  0 0.10431276E+04</rscale>
<asrwt>0</asrwt>
<pdfrwt beam="1">  1        2 0.26665603E+00 0.10431276E+04</pdfrwt>
<pdfrwt beam="2">  1       -2 0.20819360E-01 0.10431276E+04</pdfrwt>
<totfact> 0.18646294E+02</totfact>
</mgrwt>
</event>
<event>
 4    1  0.5023236E-005  0.4718620E+03  0.7818608E-02  0.1021396E+00
         -2   -1    0    0    0  501 -0.00000000000E+00  0.00000000000E+00  0.33094103679E+03  0.33094103680E+03  0.25500000000E-02 0. -1.
          2   -1    0    0  501    0  0.00000000000E+00 -0.00000000000E+00 -0.16819747326E+03  0.16819747328E+03  0.25500000000E-02 0.  1.
    5000001    1    1    2    0    0 -0.10556459070E+03 -0.25115942851E+02  0.12105654431E+02  0.22698511023E+03  0.19900000000E+03 0.  0.
   -5000001    1    1    2    0    0  0.10556459070E+03  0.25115942851E+02  0.15063790909E+03  0.27215339985E+03  0.19900000000E+03 0.  0.
<mgrwt>
<rscale>  0 0.47186204E+03</rscale>
<asrwt>0</asrwt>
<pdfrwt beam="1">  1        2 0.24028210E-01 0.47186204E+03</pdfrwt>
<pdfrwt beam="2">  1       -2 0.47277291E-01 0.47186204E+03</pdfrwt>
<totfact> 0.97446135E+02</totfact>
</mgrwt>
</event>
<event>
 4    1  0.5023236E-005  0.7020203E+03  0.7818608E-02  0.9713783E-01
          2   -1    0    0  501    0  0.00000000000E+00  0.00000000000E+00  0.18698834614E+04  0.18698834614E+04  0.25500000000E-02 0.  1.
         -2   -1    0    0    0  501 -0.00000000000E+00 -0.00000000000E+00 -0.65890798646E+02  0.65890798695E+02  0.25500000000E-02 0. -1.
    5000001    1    1    2    0    0 -0.43641745805E+02 -0.28569902536E+03  0.92643964285E+03  0.99066641556E+03  0.19900000000E+03 0.  0.
   -5000001    1    1    2    0    0  0.43641745805E+02  0.28569902536E+03  0.87755301993E+03  0.94510784456E+03  0.19900000000E+03 0.  0.
<mgrwt>
<rscale>  0 0.70202027E+03</rscale>
<asrwt>0</asrwt>
<pdfrwt beam="1">  1        2 0.26712618E+00 0.70202027E+03</pdfrwt>
<pdfrwt beam="2">  1       -2 0.94129721E-02 0.70202027E+03</pdfrwt>
<totfact> 0.72303601E+02</totfact>
</mgrwt>
</event>
<event>
 4    1  0.5023236E-005  0.5798272E+03  0.7818608E-02  0.9948165E-01
         -2   -1    0    0    0  501 -0.00000000000E+00  0.00000000000E+00  0.54027389056E+02  0.54027389116E+02  0.25500000000E-02 0.  1.
          2   -1    0    0  501    0  0.00000000000E+00 -0.00000000000E+00 -0.15556904697E+04  0.15556904697E+04  0.25500000000E-02 0. -1.
    5000001    1    1    2    0    0 -0.36455969300E+02  0.20684169936E+03 -0.69991504186E+03  0.75736027894E+03  0.19900000000E+03 0.  0.
   -5000001    1    1    2    0    0  0.36455969300E+02 -0.20684169936E+03 -0.80174803881E+03  0.85235757991E+03  0.19900000000E+03 0.  0.
<mgrwt>
<rscale>  0 0.57982720E+03</rscale>
<asrwt>0</asrwt>
<pdfrwt beam="1">  1        2 0.22224147E+00 0.57982720E+03</pdfrwt>
<pdfrwt beam="2">  1       -2 0.77181994E-02 0.57982720E+03</pdfrwt>
<totfact> 0.14457228E+03</totfact>
</mgrwt>
</event>
<event>
 4    1  0.5023236E-005  0.7794462E+03  0.7818608E-02  0.9590254E-01
          2   -1    0    0  501    0  0.00000000000E+00  0.00000000000E+00  0.22710229861E+03  0.22710229862E+03  0.25500000000E-02 0.  1.
         -2   -1    0    0    0  501 -0.00000000000E+00 -0.00000000000E+00 -0.66879151825E+03  0.66879151826E+03  0.25500000000E-02 0. -1.
    5000001    1    1    2    0    0  0.19291994738E+03 -0.17058144081E+03  0.25585220367E+02  0.32645327008E+03  0.19900000000E+03 0.  0.
   -5000001    1    1    2    0    0 -0.19291994738E+03  0.17058144081E+03 -0.46727444001E+03  0.56944054680E+03  0.19900000000E+03 0.  0.
<mgrwt>
<rscale>  0 0.77944619E+03</rscale>
<asrwt>0</asrwt>
<pdfrwt beam="1">  1        2 0.32443186E-01 0.77944619E+03</pdfrwt>
<pdfrwt beam="2">  1       -2 0.95541645E-01 0.77944619E+03</pdfrwt>
<totfact> 0.15099427E+02</totfact>
</mgrwt>
</event>
<event>
 4    1  0.5023236E-005  0.5674177E+03  0.7818608E-02  0.9975409E-01
         -2   -1    0    0    0  501 -0.00000000000E+00  0.00000000000E+00  0.74358322388E+02  0.74358322431E+02  0.25500000000E-02 0. -1.
          2   -1    0    0  501    0  0.00000000000E+00 -0.00000000000E+00 -0.10824707079E+04  0.10824707079E+04  0.25500000000E-02 0.  1.
    5000001    1    1    2    0    0  0.16152662239E+03 -0.11386187906E+03 -0.41673796949E+03  0.50232152299E+03  0.19900000000E+03 0.  0.
   -5000001    1    1    2    0    0 -0.16152662239E+03  0.11386187906E+03 -0.59137441601E+03  0.65450750733E+03  0.19900000000E+03 0.  0.
<mgrwt>
<rscale>  0 0.56741768E+03</rscale>
<asrwt>0</asrwt>
<pdfrwt beam="1">  1        2 0.15463866E+00 0.56741768E+03</pdfrwt>
<pdfrwt beam="2">  1       -2 0.10622618E-01 0.56741768E+03</pdfrwt>
<totfact> 0.15652071E+03</totfact>
</mgrwt>
</event>
<event>
 4    1  0.5023236E-005  0.7817910E+03  0.7818608E-02  0.9586754E-01
         -2   -1    0    0    0  501 -0.00000000000E+00  0.00000000000E+00  0.17715685221E+03  0.17715685223E+03  0.25500000000E-02 0. -1.
          2   -1    0    0  501    0  0.00000000000E+00 -0.00000000000E+00 -0.86250856164E+03  0.86250856165E+03  0.25500000000E-02 0.  1.
    5000001    1    1    2    0    0  0.28604966411E+03  0.17278269318E+03 -0.39452353587E+03  0.55401091123E+03  0.19900000000E+03 0.  0.
   -5000001    1    1    2    0    0 -0.28604966411E+03 -0.17278269318E+03 -0.29082817356E+03  0.48565450265E+03  0.19900000000E+03 0.  0.
<mgrwt>
<rscale>  0 0.78179103E+03</rscale>
<asrwt>0</asrwt>
<pdfrwt beam="1">  1        2 0.12321551E+00 0.78179103E+03</pdfrwt>
<pdfrwt beam="2">  1       -2 0.25308122E-01 0.78179103E+03</pdfrwt>
<totfact> 0.48403049E+02</totfact>
</mgrwt>
</event>
<event>
 4    1  0.5023236E-005  0.5173160E+03  0.7818608E-02  0.1009355E+00
          2   -1    0    0  501    0  0.00000000000E+00  0.00000000000E+00  0.26814443837E+03  0.26814443838E+03  0.25500000000E-02 0.  1.
         -2   -1    0    0    0  501 -0.00000000000E+00 -0.00000000000E+00 -0.24950715810E+03  0.24950715811E+03  0.25500000000E-02 0. -1.
    5000001    1    1    2    0    0  0.10247865665E+03  0.70136754835E+02 -0.99756285050E+02  0.25489871686E+03  0.19900000000E+03 0.  0.
   -5000001    1    1    2    0    0 -0.10247865665E+03 -0.70136754835E+02  0.11839356532E+03  0.26275287964E+03  0.19900000000E+03 0.  0.
<mgrwt>
<rscale>  0 0.51731598E+03</rscale>
<asrwt>0</asrwt>
<pdfrwt beam="1">  1        2 0.38306348E-01 0.51731598E+03</pdfrwt>
<pdfrwt beam="2">  1       -2 0.35643880E-01 0.51731598E+03</pdfrwt>
<totfact> 0.10014952E+03</totfact>
</mgrwt>
</event>
<event>
 4    1  0.5023236E-005  0.6404613E+03  0.7818608E-02  0.9824844E-01
          2   -1    0    0  501    0  0.00000000000E+00  0.00000000000E+00  0.15216586878E+04  0.15216586878E+04  0.25500000000E-02 0.  1.
         -2   -1    0    0    0  501 -0.00000000000E+00 -0.00000000000E+00 -0.67392031908E+02  0.67392031956E+02  0.25500000000E-02 0. -1.
    5000001    1    1    2    0    0 -0.20207042933E+03  0.10563371230E+03  0.98682950073E+03  0.10321939755E+04  0.19900000000E+03 0.  0.
   -5000001    1    1    2    0    0  0.20207042933E+03 -0.10563371230E+03  0.46743715519E+03  0.55685674427E+03  0.19900000000E+03 0.  0.
<mgrwt>
<rscale>  0 0.64046131E+03</rscale>
<asrwt>0</asrwt>
<pdfrwt beam="1">  1        2 0.21737984E+00 0.64046131E+03</pdfrwt>
<pdfrwt beam="2">  1       -2 0.96274317E-02 0.64046131E+03</pdfrwt>
<totfact> 0.10539661E+03</totfact>
</mgrwt>
</event>
<event>
 4    1  0.5023236E-005  0.1152947E+04  0.7818608E-02  0.9155070E-01
          2   -1    0    0  501    0  0.00000000000E+00  0.00000000000E+00  0.18157114161E+04  0.18157114161E+04  0.25500000000E-02 0.  1.
         -2   -1    0    0    0  501 -0.00000000000E+00 -0.00000000000E+00 -0.18302547067E+03  0.18302547069E+03  0.25500000000E-02 0. -1.
    5000001    1    1    2    0    0 -0.37919134721E+03 -0.35218614767E+03  0.10898949223E+04  0.12228217785E+04  0.19900000000E+03 0.  0.
   -5000001    1    1    2    0    0  0.37919134721E+03  0.35218614767E+03  0.54279102309E+03  0.77591510822E+03  0.19900000000E+03 0.  0.
<mgrwt>
<rscale>  0 0.11529465E+04</rscale>
<asrwt>0</asrwt>
<pdfrwt beam="1">  1        2 0.25938735E+00 0.11529465E+04</pdfrwt>
<pdfrwt beam="2">  1       -2 0.26146496E-01 0.11529465E+04</pdfrwt>
<totfact> 0.13062883E+02</totfact>
</mgrwt>
</event>
<event>
 4    1  0.5023236E-005  0.4908843E+03  0.7818608E-02  0.1016186E+00
         -2   -1    0    0    0  501 -0.00000000000E+00  0.00000000000E+00  0.55779305765E+02  0.55779305823E+02  0.25500000000E-02 0. -1.
          2   -1    0    0  501    0  0.00000000000E+00 -0.00000000000E+00 -0.10800037032E+04  0.10800037032E+04  0.25500000000E-02 0.  1.
    5000001    1    1    2    0    0  0.12010102081E+03 -0.14388394681E+02 -0.69147736441E+03  0.72963910708E+03  0.19900000000E+03 0.  0.
   -5000001    1    1    2    0    0 -0.12010102081E+03  0.14388394681E+02 -0.33274703307E+03  0.40614390198E+03  0.19900000000E+03 0.  0.
<mgrwt>
<rscale>  0 0.49088433E+03</rscale>
<asrwt>0</asrwt>
<pdfrwt beam="1">  1        2 0.15428623E+00 0.49088433E+03</pdfrwt>
<pdfrwt beam="2">  1       -2 0.79684729E-02 0.49088433E+03</pdfrwt>
<totfact> 0.24939076E+03</totfact>
</mgrwt>
</event>
<event>
 4    1  0.5023236E-005  0.7460482E+03  0.7818608E-02  0.9641571E-01
         -2   -1    0    0    0  501 -0.00000000000E+00  0.00000000000E+00  0.26488479848E+03  0.26488479849E+03  0.25500000000E-02 0.  1.
          2   -1    0    0  501    0  0.00000000000E+00 -0.00000000000E+00 -0.52531124981E+03  0.52531124982E+03  0.25500000000E-02 0. -1.
    5000001    1    1    2    0    0 -0.20235561178E+03  0.20518667219E+03  0.58263341076E+01  0.35026320137E+03  0.19900000000E+03 0.  0.
   -5000001    1    1    2    0    0  0.20235561178E+03 -0.20518667219E+03 -0.26625278544E+03  0.43993284694E+03  0.19900000000E+03 0.  0.
<mgrwt>
<rscale>  0 0.74604816E+03</rscale>
<asrwt>0</asrwt>
<pdfrwt beam="1">  1        2 0.75044464E-01 0.74604816E+03</pdfrwt>
<pdfrwt beam="2">  1       -2 0.37840686E-01 0.74604816E+03</pdfrwt>
<totfact> 0.42031041E+02</totfact>
</mgrwt>
</event>
<event>
 4    1  0.5023236E-005  0.7881059E+03  0.7818608E-02  0.9577395E-01
         -2   -1    0    0    0  501 -0.00000000000E+00  0.00000000000E+00  0.21562269239E+03  0.21562269240E+03  0.25500000000E-02 0. -1.
          2   -1    0    0  501    0  0.00000000000E+00 -0.00000000000E+00 -0.72013637139E+03  0.72013637140E+03  0.25500000000E-02 0.  1.
    5000001    1    1    2    0    0 -0.33973101390E+03 -0.10065289880E+02 -0.26719443523E+03  0.47593312354E+03  0.19900000000E+03 0.  0.
   -5000001    1    1    2    0    0  0.33973101390E+03  0.10065289880E+02 -0.23731924378E+03  0.45982594026E+03  0.19900000000E+03 0.  0.
<mgrwt>
<rscale>  0 0.78810594E+03</rscale>
<asrwt>0</asrwt>
<pdfrwt beam="1">  1        2 0.10287662E+00 0.78810594E+03</pdfrwt>
<pdfrwt beam="2">  1       -2 0.30803242E-01 0.78810594E+03</pdfrwt>
<totfact> 0.42531636E+02</totfact>
</mgrwt>
</event>
<event>
 4    1  0.5023236E-005  0.5904598E+03  0.7818608E-02  0.9925399E-01
         -2   -1    0    0    0  501 -0.00000000000E+00  0.00000000000E+00  0.26870679897E+03  0.26870679898E+03  0.25500000000E-02 0. -1.
          2   -1    0    0  501    0  0.00000000000E+00 -0.00000000000E+00 -0.32437099486E+03  0.32437099487E+03  0.25500000000E-02 0.  1.
    5000001    1    1    2    0    0 -0.14351911588E+03  0.16322786165E+03 -0.45761179193E+02  0.29822165744E+03  0.19900000000E+03 0.  0.
   -5000001    1    1    2    0    0  0.14351911588E+03 -0.16322786165E+03 -0.99030167055E+01  0.29485613642E+03  0.19900000000E+03 0.  0.
<mgrwt>
<rscale>  0 0.59045979E+03</rscale>
<asrwt>0</asrwt>
<pdfrwt beam="1">  1        2 0.46338713E-01 0.59045979E+03</pdfrwt>
<pdfrwt beam="2">  1       -2 0.38386686E-01 0.59045979E+03</pdfrwt>
<totfact> 0.70439669E+02</totfact>
</mgrwt>
</event>
<event>
 4    1  0.5023236E-005  0.5740283E+03  0.7818608E-02  0.9960804E-01
          2   -1    0    0  501    0  0.00000000000E+00  0.00000000000E+00  0.62427871366E+03  0.62427871367E+03  0.25500000000E-02 0.  1.
         -2   -1    0    0    0  501 -0.00000000000E+00 -0.00000000000E+00 -0.13195569801E+03  0.13195569803E+03  0.25500000000E-02 0. -1.
    5000001    1    1    2    0    0 -0.14311190086E+03 -0.67370676149E+02  0.70612066177E+02  0.26383117341E+03  0.19900000000E+03 0.  0.
   -5000001    1    1    2    0    0  0.14311190086E+03  0.67370676149E+02  0.42171094948E+03  0.49240323829E+03  0.19900000000E+03 0.  0.
<mgrwt>
<rscale>  0 0.57402834E+03</rscale>
<asrwt>0</asrwt>
<pdfrwt beam="1">  1        2 0.89182673E-01 0.57402834E+03</pdfrwt>
<pdfrwt beam="2">  1       -2 0.18850814E-01 0.57402834E+03</pdfrwt>
<totfact> 0.12256643E+03</totfact>
</mgrwt>
</event>
<event>
 4    1  0.5023236E-005  0.5208484E+03  0.7818608E-02  0.1008476E+00
          2   -1    0    0  501    0  0.00000000000E+00  0.00000000000E+00  0.13060944458E+04  0.13060944458E+04  0.25500000000E-02 0.  1.
         -2   -1    0    0    0  501 -0.00000000000E+00 -0.00000000000E+00 -0.51926388153E+02  0.51926388216E+02  0.25500000000E-02 0. -1.
    5000001    1    1    2    0    0  0.15731462027E+03 -0.18577719540E+02  0.48128945038E+03  0.54436527853E+03  0.19900000000E+03 0.  0.
   -5000001    1    1    2    0    0 -0.15731462027E+03  0.18577719540E+02  0.77287860724E+03  0.81365555547E+03  0.19900000000E+03 0.  0.
<mgrwt>
<rscale>  0 0.52084841E+03</rscale>
<asrwt>0</asrwt>
<pdfrwt beam="1">  1        2 0.18658491E+00 0.52084841E+03</pdfrwt>
<pdfrwt beam="2">  1       -2 0.74180558E-02 0.52084841E+03</pdfrwt>
<totfact> 0.20871212E+03</totfact>
</mgrwt>
</event>
<event>
 4    1  0.5023236E-005  0.8183342E+03  0.7818608E-02  0.9533852E-01
          2   -1    0    0  501    0  0.00000000000E+00  0.00000000000E+00  0.18713019516E+03  0.18713019518E+03  0.25500000000E-02 0.  1.
         -2   -1    0    0    0  501 -0.00000000000E+00 -0.00000000000E+00 -0.89465907462E+03  0.89465907462E+03  0.25500000000E-02 0. -1.
    5000001    1    1    2    0    0 -0.28103832055E+03 -0.21816968296E+03 -0.30728588175E+03  0.51049599538E+03  0.19900000000E+03 0.  0.
   -5000001    1    1    2    0    0  0.28103832055E+03  0.21816968296E+03 -0.40024299771E+03  0.57129327442E+03  0.19900000000E+03 0.  0.
<mgrwt>
<rscale>  0 0.81833423E+03</rscale>
<asrwt>0</asrwt>
<pdfrwt beam="1">  1        2 0.26732885E-01 0.81833423E+03</pdfrwt>
<pdfrwt beam="2">  1       -2 0.12780844E+00 0.81833423E+03</pdfrwt>
<totfact> 0.92637607E+01</totfact>
</mgrwt>
</event>
<event>
 4    1  0.5023236E-005  0.5129193E+03  0.7818608E-02  0.1010461E+00
          2   -1    0    0  501    0  0.00000000000E+00  0.00000000000E+00  0.30052439472E+03  0.30052439473E+03  0.25500000000E-02 0.  1.
         -2   -1    0    0    0  501 -0.00000000000E+00 -0.00000000000E+00 -0.21885599237E+03  0.21885599239E+03  0.25500000000E-02 0. -1.
    5000001    1    1    2    0    0 -0.15821678944E+03 -0.94059512333E+01  0.80295052948E+01  0.25453191811E+03  0.19900000000E+03 0.  0.
   -5000001    1    1    2    0    0  0.15821678944E+03  0.94059512333E+01  0.73638897053E+02  0.26484846901E+03  0.19900000000E+03 0.  0.
<mgrwt>
<rscale>  0 0.51291935E+03</rscale>
<asrwt>0</asrwt>
<pdfrwt beam="1">  1        2 0.42932057E-01 0.51291935E+03</pdfrwt>
<pdfrwt beam="2">  1       -2 0.31265142E-01 0.51291935E+03</pdfrwt>
<totfact> 0.11294658E+03</totfact>
</mgrwt>
</event>
<event>
 4    1  0.5023236E-005  0.7529004E+03  0.7818608E-02  0.9630811E-01
          2   -1    0    0  501    0  0.00000000000E+00  0.00000000000E+00  0.39529382832E+03  0.39529382833E+03  0.25500000000E-02 0.  1.
         -2   -1    0    0    0  501 -0.00000000000E+00 -0.00000000000E+00 -0.35850481339E+03  0.35850481340E+03  0.25500000000E-02 0. -1.
    5000001    1    1    2    0    0 -0.20556073255E+02 -0.25617269765E+03 -0.17174452031E+03  0.36761961785E+03  0.19900000000E+03 0.  0.
   -5000001    1    1    2    0    0  0.20556073255E+02  0.25617269765E+03  0.20853353524E+03  0.38617902389E+03  0.19900000000E+03 0.  0.
<mgrwt>
<rscale>  0 0.75290037E+03</rscale>
<asrwt>0</asrwt>
<pdfrwt beam="1">  1        2 0.56470547E-01 0.75290037E+03</pdfrwt>
<pdfrwt beam="2">  1       -2 0.51214973E-01 0.75290037E+03</pdfrwt>
<totfact> 0.31809817E+02</totfact>
</mgrwt>
</event>
<event>
 4    1  0.5023236E-005  0.1033213E+04  0.7818608E-02  0.9272850E-01
          2   -1    0    0  501    0  0.00000000000E+00  0.00000000000E+00  0.27939693969E+04  0.27939693969E+04  0.25500000000E-02 0.  1.
         -2   -1    0    0    0  501 -0.00000000000E+00 -0.00000000000E+00 -0.95520754970E+02  0.95520755004E+02  0.25500000000E-02 0. -1.
    5000001    1    1    2    0    0  0.22812800293E+03  0.32237473998E+03  0.20960453056E+04  0.21421892498E+04  0.19900000000E+03 0.  0.
   -5000001    1    1    2    0    0 -0.22812800293E+03 -0.32237473998E+03  0.60240333629E+03  0.74730090209E+03  0.19900000000E+03 0.  0.
<mgrwt>
<rscale>  0 0.10332126E+04</rscale>
<asrwt>0</asrwt>
<pdfrwt beam="1">  1        2 0.39913854E+00 0.10332126E+04</pdfrwt>
<pdfrwt beam="2">  1       -2 0.13645820E-01 0.10332126E+04</pdfrwt>
<totfact> 0.12762773E+02</totfact>
</mgrwt>
</event>
<event>
 4    1  0.5023236E-005  0.4668894E+03  0.7818608E-02  0.1022802E+00
          2   -1    0    0  501    0  0.00000000000E+00  0.00000000000E+00  0.43923439553E+03  0.43923439554E+03  0.25500000000E-02 0.  1.
         -2   -1    0    0    0  501 -0.00000000000E+00 -0.00000000000E+00 -0.12407138420E+03  0.12407138423E+03  0.25500000000E-02 0. -1.
    5000001    1    1    2    0    0  0.72127853729E+01  0.11993725003E+03  0.18341462203E+03  0.29610621708E+03  0.19900000000E+03 0.  0.
   -5000001    1    1    2    0    0 -0.72127853729E+01 -0.11993725003E+03  0.13174838931E+03  0.26719956269E+03  0.19900000000E+03 0.  0.
<mgrwt>
<rscale>  0 0.46688936E+03</rscale>
<asrwt>0</asrwt>
<pdfrwt beam="1">  1        2 0.62747769E-01 0.46688936E+03</pdfrwt>
<pdfrwt beam="2">  1       -2 0.17724484E-01 0.46688936E+03</pdfrwt>
<totfact> 0.20355479E+03</totfact>
</mgrwt>
</event>
<event>
 4    1  0.5023236E-005  0.5694014E+03  0.7818608E-02  0.9971004E-01
         -2   -1    0    0    0  501 -0.00000000000E+00  0.00000000000E+00  0.12641164862E+03  0.12641164865E+03  0.25500000000E-02 0. -1.
          2   -1    0    0  501    0  0.00000000000E+00 -0.00000000000E+00 -0.64119476019E+03  0.64119476019E+03  0.25500000000E-02 0.  1.
    5000001    1    1    2    0    0  0.10707124089E+03  0.64879973024E+02 -0.47384278206E+03  0.52896279986E+03  0.19900000000E+03 0.  0.
   -5000001    1    1    2    0    0 -0.10707124089E+03 -0.64879973024E+02 -0.40940329507E+02  0.23864360898E+03  0.19900000000E+03 0.  0.
<mgrwt>
<rscale>  0 0.56940139E+03</rscale>
<asrwt>0</asrwt>
<pdfrwt beam="1">  1        2 0.91599250E-01 0.56940139E+03</pdfrwt>
<pdfrwt beam="2">  1       -2 0.18058807E-01 0.56940139E+03</pdfrwt>
<totfact> 0.12784217E+03</totfact>
</mgrwt>
</event>
<event>
 4    1  0.5023236E-005  0.5729084E+03  0.7818608E-02  0.9963263E-01
          2   -1    0    0  501    0  0.00000000000E+00  0.00000000000E+00  0.94031022162E+03  0.94031022163E+03  0.25500000000E-02 0.  1.
         -2   -1    0    0    0  501 -0.00000000000E+00 -0.00000000000E+00 -0.87264839437E+02  0.87264839474E+02  0.25500000000E-02 0. -1.
    5000001    1    1    2    0    0  0.18202770491E+03 -0.94610279312E+02  0.39202980490E+03  0.48515312865E+03  0.19900000000E+03 0.  0.
   -5000001    1    1    2    0    0 -0.18202770491E+03  0.94610279312E+02  0.46101557728E+03  0.54242193245E+03  0.19900000000E+03 0.  0.
<mgrwt>
<rscale>  0 0.57290844E+03</rscale>
<asrwt>0</asrwt>
<pdfrwt beam="1">  1        2 0.13433004E+00 0.57290844E+03</pdfrwt>
<pdfrwt beam="2">  1       -2 0.12466405E-01 0.57290844E+03</pdfrwt>
<totfact> 0.14679902E+03</totfact>
</mgrwt>
</event>
<event>
 4    1  0.5023236E-005  0.1022549E+04  0.7818608E-02  0.9284153E-01
         -2   -1    0    0    0  501 -0.00000000000E+00  0.00000000000E+00  0.11536433371E+03  0.11536433373E+03  0.25500000000E-02 0. -1.
          2   -1    0    0  501    0  0.00000000000E+00 -0.00000000000E+00 -0.22658805180E+04  0.22658805180E+04  0.25500000000E-02 0.  1.
    5000001    1    1    2    0    0 -0.43487239685E+03  0.10661136064E+03 -0.73522463578E+03  0.88353621817E+03  0.19900000000E+03 0.  0.
   -5000001    1    1    2    0    0  0.43487239685E+03 -0.10661136064E+03 -0.14152915485E+04  0.14977086336E+04  0.19900000000E+03 0.  0.
<mgrwt>
<rscale>  0 0.10225494E+04</rscale>
<asrwt>0</asrwt>
<pdfrwt beam="1">  1        2 0.32369719E+00 0.10225494E+04</pdfrwt>
<pdfrwt beam="2">  1       -2 0.16480620E-01 0.10225494E+04</pdfrwt>
<totfact> 0.17522981E+02</totfact>
</mgrwt>
</event>
<event>
 4    1  0.5023236E-005  0.4629386E+03  0.7818608E-02  0.1023932E+00
         -2   -1    0    0    0  501 -0.00000000000E+00  0.00000000000E+00  0.14958393514E+03  0.14958393516E+03  0.25500000000E-02 0. -1.
          2   -1    0    0  501    0  0.00000000000E+00 -0.00000000000E+00 -0.35818046773E+03  0.35818046774E+03  0.25500000000E-02 0.  1.
    5000001    1    1    2    0    0 -0.97110696138E+02 -0.31888632141E+02 -0.16946200371E+03  0.28065235232E+03  0.19900000000E+03 0.  0.
   -5000001    1    1    2    0    0  0.97110696138E+02  0.31888632141E+02 -0.39134528887E+02  0.22711205057E+03  0.19900000000E+03 0.  0.
<mgrwt>
<rscale>  0 0.46293863E+03</rscale>
<asrwt>0</asrwt>
<pdfrwt beam="1">  1        2 0.51168638E-01 0.46293863E+03</pdfrwt>
<pdfrwt beam="2">  1       -2 0.21369134E-01 0.46293863E+03</pdfrwt>
<totfact> 0.18458045E+03</totfact>
</mgrwt>
</event>
<event>
 4    1  0.5023236E-005  0.7243388E+03  0.7818608E-02  0.9676492E-01
          2   -1    0    0  501    0  0.00000000000E+00  0.00000000000E+00  0.10794885103E+03  0.10794885106E+03  0.25500000000E-02 0.  1.
         -2   -1    0    0    0  501 -0.00000000000E+00 -0.00000000000E+00 -0.12150818351E+04  0.12150818351E+04  0.25500000000E-02 0. -1.
    5000001    1    1    2    0    0 -0.23106295587E+03 -0.13324804372E+03 -0.29255361099E+03  0.44309563983E+03  0.19900000000E+03 0.  0.
   -5000001    1    1    2    0    0  0.23106295587E+03  0.13324804372E+03 -0.81457937309E+03  0.87993504635E+03  0.19900000000E+03 0.  0.
<mgrwt>
<rscale>  0 0.72433884E+03</rscale>
<asrwt>0</asrwt>
<pdfrwt beam="1">  1        2 0.15421265E-01 0.72433884E+03</pdfrwt>
<pdfrwt beam="2">  1       -2 0.17358311E+00 0.72433884E+03</pdfrwt>
<totfact> 0.79119010E+01</totfact>
</mgrwt>
</event>
<event>
 4    1  0.5023236E-005  0.6099900E+03  0.7818608E-02  0.9884894E-01
         -2   -1    0    0    0  501 -0.00000000000E+00  0.00000000000E+00  0.84320819448E+02  0.84320819487E+02  0.25500000000E-02 0. -1.
          2   -1    0    0  501    0  0.00000000000E+00 -0.00000000000E+00 -0.11031906029E+04  0.11031906029E+04  0.25500000000E-02 0.  1.
    5000001    1    1    2    0    0 -0.14098076508E+03  0.14468626802E+03 -0.29081278876E+03  0.40618071149E+03  0.19900000000E+03 0.  0.
   -5000001    1    1    2    0    0  0.14098076508E+03 -0.14468626802E+03 -0.72805699471E+03  0.78133071091E+03  0.19900000000E+03 0.  0.
<mgrwt>
<rscale>  0 0.60998995E+03</rscale>
<asrwt>0</asrwt>
<pdfrwt beam="1">  1        2 0.15759865E+00 0.60998995E+03</pdfrwt>
<pdfrwt beam="2">  1       -2 0.12045832E-01 0.60998995E+03</pdfrwt>
<totfact> 0.12379634E+03</totfact>
</mgrwt>
</event>
<event>
 4    1  0.5023236E-005  0.4529257E+03  0.7818608E-02  0.1026853E+00
          2   -1    0    0  501    0  0.00000000000E+00  0.00000000000E+00  0.10631937548E+04  0.10631937548E+04  0.25500000000E-02 0.  1.
         -2   -1    0    0    0  501 -0.00000000000E+00 -0.00000000000E+00 -0.48237128395E+02  0.48237128462E+02  0.25500000000E-02 0. -1.
    5000001    1    1    2    0    0  0.59699244522E+02 -0.73731772928E+02  0.38034774451E+03  0.43962004150E+03  0.19900000000E+03 0.  0.
   -5000001    1    1    2    0    0 -0.59699244522E+02  0.73731772928E+02  0.63460888194E+03  0.67181084181E+03  0.19900000000E+03 0.  0.
<mgrwt>
<rscale>  0 0.45292566E+03</rscale>
<asrwt>0</asrwt>
<pdfrwt beam="1">  1        2 0.15188482E+00 0.45292566E+03</pdfrwt>
<pdfrwt beam="2">  1       -2 0.68910183E-02 0.45292566E+03</pdfrwt>
<totfact> 0.32071730E+03</totfact>
</mgrwt>
</event>
<event>
 4    1  0.5023236E-005  0.6995183E+03  0.7818608E-02  0.9718056E-01
          2   -1    0    0  501    0  0.00000000000E+00  0.00000000000E+00  0.48176261126E+03  0.48176261126E+03  0.25500000000E-02 0.  1.
         -2   -1    0    0    0  501 -0.00000000000E+00 -0.00000000000E+00 -0.25392476051E+03  0.25392476052E+03  0.25500000000E-02 0. -1.
    5000001    1    1    2    0    0 -0.23841168873E+03 -0.10164979784E+03 -0.17260615410E+02  0.32721818954E+03  0.19900000000E+03 0.  0.
   -5000001    1    1    2    0    0  0.23841168873E+03  0.10164979784E+03  0.24509846616E+03  0.40846918224E+03  0.19900000000E+03 0.  0.
<mgrwt>
<rscale>  0 0.69951828E+03</rscale>
<asrwt>0</asrwt>
<pdfrwt beam="1">  1        2 0.68823229E-01 0.69951828E+03</pdfrwt>
<pdfrwt beam="2">  1       -2 0.36274966E-01 0.69951828E+03</pdfrwt>
<totfact> 0.50398843E+02</totfact>
</mgrwt>
</event>
<event>
 4    1  0.5023236E-005  0.1034122E+04  0.7818608E-02  0.9271893E-01
          2   -1    0    0  501    0  0.00000000000E+00  0.00000000000E+00  0.30379570297E+04  0.30379570297E+04  0.25500000000E-02 0.  1.
         -2   -1    0    0    0  501 -0.00000000000E+00 -0.00000000000E+00 -0.88003821440E+02  0.88003821477E+02  0.25500000000E-02 0. -1.
    5000001    1    1    2    0    0 -0.13198201327E+03 -0.45664815628E+03  0.13465855541E+04  0.14418184508E+04  0.19900000000E+03 0.  0.
   -5000001    1    1    2    0    0  0.13198201327E+03  0.45664815628E+03  0.16033676541E+04  0.16841424004E+04  0.19900000000E+03 0.  0.
<mgrwt>
<rscale>  0 0.10341215E+04</rscale>
<asrwt>0</asrwt>
<pdfrwt beam="1">  1        2 0.43399384E+00 0.10341215E+04</pdfrwt>
<pdfrwt beam="2">  1       -2 0.12571975E-01 0.10341215E+04</pdfrwt>
<totfact> 0.10772193E+02</totfact>
</mgrwt>
</event>
<event>
 4    1  0.5023236E-005  0.7459642E+03  0.7818608E-02  0.9641703E-01
         -2   -1    0    0    0  501 -0.00000000000E+00  0.00000000000E+00  0.80679051852E+02  0.80679051892E+02  0.25500000000E-02 0. -1.
          2   -1    0    0  501    0  0.00000000000E+00 -0.00000000000E+00 -0.17243092035E+04  0.17243092035E+04  0.25500000000E-02 0.  1.
    5000001    1    1    2    0    0 -0.28237338683E+03 -0.96126847168E+02 -0.10702239283E+04  0.11286963086E+04  0.19900000000E+03 0.  0.
   -5000001    1    1    2    0    0  0.28237338683E+03  0.96126847168E+02 -0.57340622341E+03  0.67629194685E+03  0.19900000000E+03 0.  0.
<mgrwt>
<rscale>  0 0.74596416E+03</rscale>
<asrwt>0</asrwt>
<pdfrwt beam="1">  1        2 0.24632986E+00 0.74596416E+03</pdfrwt>
<pdfrwt beam="2">  1       -2 0.11525580E-01 0.74596416E+03</pdfrwt>
<totfact> 0.61457332E+02</totfact>
</mgrwt>
</event>
<event>
 4    1  0.5023236E-005  0.5506711E+03  0.7818608E-02  0.1001339E+00
          2   -1    0    0  501    0  0.00000000000E+00  0.00000000000E+00  0.10321917266E+04  0.10321917266E+04  0.25500000000E-02 0.  1.
         -2   -1    0    0    0  501 -0.00000000000E+00 -0.00000000000E+00 -0.73445324025E+02  0.73445324069E+02  0.25500000000E-02 0. -1.
    5000001    1    1    2    0    0 -0.21230205799E+02  0.18376257594E+03  0.56892307877E+03  0.63047115360E+03  0.19900000000E+03 0.  0.
   -5000001    1    1    2    0    0  0.21230205799E+02 -0.18376257594E+03  0.38982332375E+03  0.47516589703E+03  0.19900000000E+03 0.  0.
<mgrwt>
<rscale>  0 0.55067107E+03</rscale>
<asrwt>0</asrwt>
<pdfrwt beam="1">  1        2 0.14745596E+00 0.55067107E+03</pdfrwt>
<pdfrwt beam="2">  1       -2 0.10492189E-01 0.55067107E+03</pdfrwt>
<totfact> 0.17105379E+03</totfact>
</mgrwt>
</event>
<event>
 4    1  0.5023236E-005  0.6398994E+03  0.7818608E-02  0.9825919E-01
         -2   -1    0    0    0  501 -0.00000000000E+00  0.00000000000E+00  0.52226839466E+02  0.52226839528E+02  0.25500000000E-02 0. -1.
          2   -1    0    0  501    0  0.00000000000E+00 -0.00000000000E+00 -0.19600616197E+04  0.19600616197E+04  0.25500000000E-02 0.  1.
    5000001    1    1    2    0    0 -0.40258395109E+02  0.23255451729E+03 -0.12182304722E+04  0.12567373732E+04  0.19900000000E+03 0.  0.
   -5000001    1    1    2    0    0  0.40258395109E+02 -0.23255451729E+03 -0.68960430801E+03  0.75555108597E+03  0.19900000000E+03 0.  0.
<mgrwt>
<rscale>  0 0.63989944E+03</rscale>
<asrwt>0</asrwt>
<pdfrwt beam="1">  1        2 0.28000876E+00 0.63989944E+03</pdfrwt>
<pdfrwt beam="2">  1       -2 0.74609783E-02 0.63989944E+03</pdfrwt>
<totfact> 0.94833846E+02</totfact>
</mgrwt>
</event>
<event>
 4    1  0.5023236E-005  0.6584186E+03  0.7818608E-02  0.9791109E-01
         -2   -1    0    0    0  501 -0.00000000000E+00  0.00000000000E+00  0.40914495235E+02  0.40914495314E+02  0.25500000000E-02 0. -1.
          2   -1    0    0  501    0  0.00000000000E+00 -0.00000000000E+00 -0.26489090556E+04  0.26489090556E+04  0.25500000000E-02 0.  1.
    5000001    1    1    2    0    0  0.43771955719E+01  0.15804080352E+03 -0.44919023934E+03  0.51610941334E+03  0.19900000000E+03 0.  0.
   -5000001    1    1    2    0    0 -0.43771955719E+01 -0.15804080352E+03 -0.21588043210E+04  0.21737141376E+04  0.19900000000E+03 0.  0.
<mgrwt>
<rscale>  0 0.65841864E+03</rscale>
<asrwt>0</asrwt>
<pdfrwt beam="1">  1        2 0.37841547E+00 0.65841864E+03</pdfrwt>
<pdfrwt beam="2">  1       -2 0.58449296E-02 0.65841864E+03</pdfrwt>
<totfact> 0.62069426E+02</totfact>
</mgrwt>
</event>
<event>
 4    1  0.5023236E-005  0.5700689E+03  0.7818608E-02  0.9969526E-01
          2   -1    0    0  501    0  0.00000000000E+00  0.00000000000E+00  0.98881452677E+03  0.98881452677E+03  0.25500000000E-02 0.  1.
         -2   -1    0    0    0  501 -0.00000000000E+00 -0.00000000000E+00 -0.82163669486E+02  0.82163669525E+02  0.25500000000E-02 0. -1.
    5000001    1    1    2    0    0  0.18210585086E+03 -0.84252920846E+02  0.52317942760E+03  0.59462493141E+03  0.19900000000E+03 0.  0.
   -5000001    1    1    2    0    0 -0.18210585086E+03  0.84252920846E+02  0.38347142968E+03  0.47635326489E+03  0.19900000000E+03 0.  0.
<mgrwt>
<rscale>  0 0.57006887E+03</rscale>
<asrwt>0</asrwt>
<pdfrwt beam="1">  1        2 0.14125921E+00 0.57006887E+03</pdfrwt>
<pdfrwt beam="2">  1       -2 0.11737668E-01 0.57006887E+03</pdfrwt>
<totfact> 0.15125634E+03</totfact>
</mgrwt>
</event>
<event>
 4    1  0.5023236E-005  0.7248946E+03  0.7818608E-02  0.9675581E-01
         -2   -1    0    0    0  501 -0.00000000000E+00  0.00000000000E+00  0.26574291027E+03  0.26574291028E+03  0.25500000000E-02 0. -1.
          2   -1    0    0  501    0  0.00000000000E+00 -0.00000000000E+00 -0.49434265008E+03  0.49434265009E+03  0.25500000000E-02 0.  1.
    5000001    1    1    2    0    0 -0.93350949752E+02  0.21234605703E+03  0.89996683244E+02  0.31859951468E+03  0.19900000000E+03 0.  0.
   -5000001    1    1    2    0    0  0.93350949752E+02 -0.21234605703E+03 -0.31859642306E+03  0.44148604569E+03  0.19900000000E+03 0.  0.
<mgrwt>
<rscale>  0 0.72489463E+03</rscale>
<asrwt>0</asrwt>
<pdfrwt beam="1">  1        2 0.70620378E-01 0.72489463E+03</pdfrwt>
<pdfrwt beam="2">  1       -2 0.37963273E-01 0.72489463E+03</pdfrwt>
<totfact> 0.44815686E+02</totfact>
</mgrwt>
</event>
<event>
 4    1  0.5023236E-005  0.5261777E+03  0.7818608E-02  0.1007163E+00
          2   -1    0    0  501    0  0.00000000000E+00  0.00000000000E+00  0.12653561870E+03  0.12653561873E+03  0.25500000000E-02 0.  1.
         -2   -1    0    0    0  501 -0.00000000000E+00 -0.00000000000E+00 -0.54700608023E+03  0.54700608024E+03  0.25500000000E-02 0. -1.
    5000001    1    1    2    0    0 -0.83744232841E+02 -0.15030881604E+03 -0.21405748276E+03  0.33915695871E+03  0.19900000000E+03 0.  0.
   -5000001    1    1    2    0    0  0.83744232841E+02  0.15030881604E+03 -0.20641297876E+03  0.33438474026E+03  0.19900000000E+03 0.  0.
<mgrwt>
<rscale>  0 0.52617774E+03</rscale>
<asrwt>0</asrwt>
<pdfrwt beam="1">  1        2 0.18076517E-01 0.52617774E+03</pdfrwt>
<pdfrwt beam="2">  1       -2 0.78143725E-01 0.52617774E+03</pdfrwt>
<totfact> 0.47095286E+02</totfact>
</mgrwt>
</event>
<event>
 4    1  0.5023236E-005  0.5181920E+03  0.7818608E-02  0.1009137E+00
          2   -1    0    0  501    0  0.00000000000E+00  0.00000000000E+00  0.13866631064E+03  0.13866631066E+03  0.25500000000E-02 0.  1.
         -2   -1    0    0    0  501 -0.00000000000E+00 -0.00000000000E+00 -0.48411707347E+03  0.48411707347E+03  0.25500000000E-02 0. -1.
    5000001    1    1    2    0    0 -0.11134398318E+03  0.96866074985E+02 -0.26385308075E+03  0.36193917624E+03  0.19900000000E+03 0.  0.
   -5000001    1    1    2    0    0  0.11134398318E+03 -0.96866074985E+02 -0.81597682077E+02  0.26084420790E+03  0.19900000000E+03 0.  0.
<mgrwt>
<rscale>  0 0.51819197E+03</rscale>
<asrwt>0</asrwt>
<pdfrwt beam="1">  1        2 0.19809473E-01 0.51819197E+03</pdfrwt>
<pdfrwt beam="2">  1       -2 0.69159581E-01 0.51819197E+03</pdfrwt>
<totfact> 0.55279757E+02</totfact>
</mgrwt>
</event>
<event>
 4    1  0.5023236E-005  0.5910314E+03  0.7818608E-02  0.9924190E-01
         -2   -1    0    0    0  501 -0.00000000000E+00  0.00000000000E+00  0.18114641543E+03  0.18114641545E+03  0.25500000000E-02 0. -1.
          2   -1    0    0  501    0  0.00000000000E+00 -0.00000000000E+00 -0.48209368668E+03  0.48209368668E+03  0.25500000000E-02 0.  1.
    5000001    1    1    2    0    0  0.93157328745E+02  0.18950554491E+03 -0.87612821698E+02  0.30309676009E+03  0.19900000000E+03 0.  0.
   -5000001    1    1    2    0    0 -0.93157328745E+02 -0.18950554491E+03 -0.21333444955E+03  0.36014334204E+03  0.19900000000E+03 0.  0.
<mgrwt>
<rscale>  0 0.59103145E+03</rscale>
<asrwt>0</asrwt>
<pdfrwt beam="1">  1        2 0.68870526E-01 0.59103145E+03</pdfrwt>
<pdfrwt beam="2">  1       -2 0.25878060E-01 0.59103145E+03</pdfrwt>
<totfact> 0.94470402E+02</totfact>
</mgrwt>
</event>
<event>
 4    1  0.5023236E-005  0.6812139E+03  0.7818608E-02  0.9749909E-01
          2   -1    0    0  501    0  0.00000000000E+00  0.00000000000E+00  0.57685933804E+02  0.57685933861E+02  0.25500000000E-02 0.  1.
         -2   -1    0    0    0  501 -0.00000000000E+00 -0.00000000000E+00 -0.20111159957E+04  0.20111159957E+04  0.25500000000E-02 0. -1.
    5000001    1    1    2    0    0  0.21317048260E+03  0.12914810315E+03 -0.61366205517E+03  0.69159453812E+03  0.19900000000E+03 0.  0.
   -5000001    1    1    2    0    0 -0.21317048260E+03 -0.12914810315E+03 -0.13397680067E+04  0.13772073915E+04  0.19900000000E+03 0.  0.
<mgrwt>
<rscale>  0 0.68121393E+03</rscale>
<asrwt>0</asrwt>
<pdfrwt beam="1">  1        2 0.82408489E-02 0.68121393E+03</pdfrwt>
<pdfrwt beam="2">  1       -2 0.28730224E+00 0.68121393E+03</pdfrwt>
<totfact> 0.33842709E+01</totfact>
</mgrwt>
</event>
<event>
 4    1  0.5023236E-005  0.5208067E+03  0.7818608E-02  0.1008486E+00
          2   -1    0    0  501    0  0.00000000000E+00  0.00000000000E+00  0.63894254328E+02  0.63894254379E+02  0.25500000000E-02 0.  1.
         -2   -1    0    0    0  501 -0.00000000000E+00 -0.00000000000E+00 -0.10612833379E+04  0.10612833379E+04  0.25500000000E-02 0. -1.
    5000001    1    1    2    0    0 -0.98975325097E+02 -0.92942696450E+02 -0.28509977042E+03  0.37325237962E+03  0.19900000000E+03 0.  0.
   -5000001    1    1    2    0    0  0.98975325097E+02  0.92942696450E+02 -0.71228931317E+03  0.75192521267E+03  0.19900000000E+03 0.  0.
<mgrwt>
<rscale>  0 0.52080671E+03</rscale>
<asrwt>0</asrwt>
<pdfrwt beam="1">  1        2 0.91277513E-02 0.52080671E+03</pdfrwt>
<pdfrwt beam="2">  1       -2 0.15161189E+00 0.52080671E+03</pdfrwt>
<totfact> 0.22131107E+02</totfact>
</mgrwt>
</event>
<event>
 4    1  0.5023236E-005  0.8321152E+03  0.7818608E-02  0.9514661E-01
          2   -1    0    0  501    0  0.00000000000E+00  0.00000000000E+00  0.29501273005E+03  0.29501273006E+03  0.25500000000E-02 0.  1.
         -2   -1    0    0    0  501 -0.00000000000E+00 -0.00000000000E+00 -0.58676760201E+03  0.58676760201E+03  0.25500000000E-02 0. -1.
    5000001    1    1    2    0    0  0.14050562956E+03  0.31453293074E+03 -0.27492483047E+03  0.48358810869E+03  0.19900000000E+03 0.  0.
   -5000001    1    1    2    0    0 -0.14050562956E+03 -0.31453293074E+03 -0.16830041487E+02  0.39819222338E+03  0.19900000000E+03 0.  0.
<mgrwt>
<rscale>  0 0.83211517E+03</rscale>
<asrwt>0</asrwt>
<pdfrwt beam="1">  1        2 0.42144676E-01 0.83211517E+03</pdfrwt>
<pdfrwt beam="2">  1       -2 0.83823943E-01 0.83211517E+03</pdfrwt>
<totfact> 0.15207897E+02</totfact>
</mgrwt>
</event>
<event>
 4    1  0.5023236E-005  0.5132275E+03  0.7818608E-02  0.1010383E+00
         -2   -1    0    0    0  501 -0.00000000000E+00  0.00000000000E+00  0.38856576752E+03  0.38856576752E+03  0.25500000000E-02 0. -1.
          2   -1    0    0  501    0  0.00000000000E+00 -0.00000000000E+00 -0.16947095605E+03  0.16947095607E+03  0.25500000000E-02 0.  1.
    5000001    1    1    2    0    0  0.14529912484E+03  0.46120932753E+02  0.16920723435E+03  0.30244183618E+03  0.19900000000E+03 0.  0.
   -5000001    1    1    2    0    0 -0.14529912484E+03 -0.46120932753E+02  0.49887577117E+02  0.25559488741E+03  0.19900000000E+03 0.  0.
<mgrwt>
<rscale>  0 0.51322748E+03</rscale>
<asrwt>0</asrwt>
<pdfrwt beam="1">  1        2 0.24210136E-01 0.51322748E+03</pdfrwt>
<pdfrwt beam="2">  1       -2 0.55509396E-01 0.51322748E+03</pdfrwt>
<totfact> 0.69757625E+02</totfact>
</mgrwt>
</event>
<event>
 4    1  0.5023236E-005  0.5496786E+03  0.7818608E-02  0.1001568E+00
         -2   -1    0    0    0  501 -0.00000000000E+00  0.00000000000E+00  0.15790288540E+03  0.15790288542E+03  0.25500000000E-02 0. -1.
          2   -1    0    0  501    0  0.00000000000E+00 -0.00000000000E+00 -0.47837408382E+03  0.47837408383E+03  0.25500000000E-02 0.  1.
    5000001    1    1    2    0    0 -0.26153373334E+02 -0.13069458977E+03 -0.31627047142E+03  0.39672797460E+03  0.19900000000E+03 0.  0.
   -5000001    1    1    2    0    0  0.26153373334E+02  0.13069458977E+03 -0.42007270037E+01  0.23954899465E+03  0.19900000000E+03 0.  0.
<mgrwt>
<rscale>  0 0.54967863E+03</rscale>
<asrwt>0</asrwt>
<pdfrwt beam="1">  1        2 0.68339154E-01 0.54967863E+03</pdfrwt>
<pdfrwt beam="2">  1       -2 0.22557555E-01 0.54967863E+03</pdfrwt>
<totfact> 0.12180710E+03</totfact>
</mgrwt>
</event>
<event>
 4    1  0.5023236E-005  0.4271287E+03  0.7818608E-02  0.1034771E+00
         -2   -1    0    0    0  501 -0.00000000000E+00  0.00000000000E+00  0.33987683095E+02  0.33987683191E+02  0.25500000000E-02 0. -1.
          2   -1    0    0  501    0  0.00000000000E+00 -0.00000000000E+00 -0.13419488808E+04  0.13419488808E+04  0.25500000000E-02 0.  1.
    5000001    1    1    2    0    0  0.29073659663E+01 -0.77269599485E+02 -0.63642799067E+03  0.67128282496E+03  0.19900000000E+03 0.  0.
   -5000001    1    1    2    0    0 -0.29073659663E+01  0.77269599485E+02 -0.67153320707E+03  0.70465373907E+03  0.19900000000E+03 0.  0.
<mgrwt>
<rscale>  0 0.42712871E+03</rscale>
<asrwt>0</asrwt>
<pdfrwt beam="1">  1        2 0.19170695E+00 0.42712871E+03</pdfrwt>
<pdfrwt beam="2">  1       -2 0.48553842E-02 0.42712871E+03</pdfrwt>
<totfact> 0.38664433E+03</totfact>
</mgrwt>
</event>
<event>
 4    1  0.5023236E-005  0.1051531E+04  0.7818608E-02  0.9253765E-01
         -2   -1    0    0    0  501 -0.00000000000E+00  0.00000000000E+00  0.98165312532E+02  0.98165312565E+02  0.25500000000E-02 0. -1.
          2   -1    0    0  501    0  0.00000000000E+00 -0.00000000000E+00 -0.28159569145E+04  0.28159569145E+04  0.25500000000E-02 0.  1.
    5000001    1    1    2    0    0 -0.23090528118E+03 -0.20227368642E+03 -0.24053976864E+04  0.24330579366E+04  0.19900000000E+03 0.  0.
   -5000001    1    1    2    0    0  0.23090528118E+03  0.20227368642E+03 -0.31239391562E+03  0.48106429052E+03  0.19900000000E+03 0.  0.
<mgrwt>
<rscale>  0 0.10515309E+04</rscale>
<asrwt>0</asrwt>
<pdfrwt beam="1">  1        2 0.40227951E+00 0.10515309E+04</pdfrwt>
<pdfrwt beam="2">  1       -2 0.14023618E-01 0.10515309E+04</pdfrwt>
<totfact> 0.11842274E+02</totfact>
</mgrwt>
</event>
<event>
 4    1  0.5023236E-005  0.8142878E+03  0.7818608E-02  0.9539563E-01
         -2   -1    0    0    0  501 -0.00000000000E+00  0.00000000000E+00  0.24137506427E+03  0.24137506428E+03  0.25500000000E-02 0. -1.
          2   -1    0    0  501    0  0.00000000000E+00 -0.00000000000E+00 -0.68675754047E+03  0.68675754047E+03  0.25500000000E-02 0.  1.
    5000001    1    1    2    0    0 -0.14224391129E+03  0.28873325492E+03 -0.51473388164E+02  0.38190408807E+03  0.19900000000E+03 0.  0.
   -5000001    1    1    2    0    0  0.14224391129E+03 -0.28873325492E+03 -0.39390908803E+03  0.54622851668E+03  0.19900000000E+03 0.  0.
<mgrwt>
<rscale>  0 0.81428778E+03</rscale>
<asrwt>0</asrwt>
<pdfrwt beam="1">  1        2 0.98108219E-01 0.81428778E+03</pdfrwt>
<pdfrwt beam="2">  1       -2 0.34482152E-01 0.81428778E+03</pdfrwt>
<totfact> 0.36441768E+02</totfact>
</mgrwt>
</event>
<event>
 4    1  0.5023236E-005  0.7940264E+03  0.7818608E-02  0.9568704E-01
          2   -1    0    0  501    0  0.00000000000E+00  0.00000000000E+00  0.10707798241E+04  0.10707798241E+04  0.25500000000E-02 0.  1.
         -2   -1    0    0    0  501 -0.00000000000E+00 -0.00000000000E+00 -0.14720066118E+03  0.14720066120E+03  0.25500000000E-02 0. -1.
    5000001    1    1    2    0    0  0.33072397696E+03  0.26109145043E+02  0.32494741862E+03  0.50522456517E+03  0.19900000000E+03 0.  0.
   -5000001    1    1    2    0    0 -0.33072397696E+03 -0.26109145043E+02  0.59863174432E+03  0.71275592014E+03  0.19900000000E+03 0.  0.
<mgrwt>
<rscale>  0 0.79402644E+03</rscale>
<asrwt>0</asrwt>
<pdfrwt beam="1">  1        2 0.15296854E+00 0.79402644E+03</pdfrwt>
<pdfrwt beam="2">  1       -2 0.21028667E-01 0.79402644E+03</pdfrwt>
<totfact> 0.49825104E+02</totfact>
</mgrwt>
</event>
<event>
 4    1  0.5023236E-005  0.5787511E+03  0.7818608E-02  0.9950499E-01
         -2   -1    0    0    0  501 -0.00000000000E+00  0.00000000000E+00  0.17518605820E+03  0.17518605822E+03  0.25500000000E-02 0.  1.
          2   -1    0    0  501    0  0.00000000000E+00 -0.00000000000E+00 -0.47799585804E+03  0.47799585804E+03  0.25500000000E-02 0. -1.
    5000001    1    1    2    0    0 -0.18954121436E+03 -0.79769304084E+02 -0.10288539289E+03  0.30409771108E+03  0.19900000000E+03 0.  0.
   -5000001    1    1    2    0    0  0.18954121436E+03  0.79769304084E+02 -0.19992440695E+03  0.34908420518E+03  0.19900000000E+03 0.  0.
<mgrwt>
<rscale>  0 0.57875110E+03</rscale>
<asrwt>0</asrwt>
<pdfrwt beam="1">  1        2 0.68285122E-01 0.57875110E+03</pdfrwt>
<pdfrwt beam="2">  1       -2 0.25026580E-01 0.57875110E+03</pdfrwt>
<totfact> 0.10131619E+03</totfact>
</mgrwt>
</event>
<event>
 4    1  0.5023236E-005  0.5340931E+03  0.7818608E-02  0.1005244E+00
         -2   -1    0    0    0  501 -0.00000000000E+00  0.00000000000E+00  0.19462242909E+03  0.19462242911E+03  0.25500000000E-02 0. -1.
          2   -1    0    0  501    0  0.00000000000E+00 -0.00000000000E+00 -0.36642159672E+03  0.36642159673E+03  0.25500000000E-02 0.  1.
    5000001    1    1    2    0    0  0.44004882128E+02 -0.17248970170E+03 -0.91017214944E+02  0.28208909986E+03  0.19900000000E+03 0.  0.
   -5000001    1    1    2    0    0 -0.44004882128E+02  0.17248970170E+03 -0.80781952683E+02  0.27895492597E+03  0.19900000000E+03 0.  0.
<mgrwt>
<rscale>  0 0.53409311E+03</rscale>
<asrwt>0</asrwt>
<pdfrwt beam="1">  1        2 0.52345943E-01 0.53409311E+03</pdfrwt>
<pdfrwt beam="2">  1       -2 0.27803204E-01 0.53409311E+03</pdfrwt>
<totfact> 0.11266533E+03</totfact>
</mgrwt>
</event>
<event>
 4    1  0.5023236E-005  0.9450167E+03  0.7818608E-02  0.9370994E-01
          2   -1    0    0  501    0  0.00000000000E+00  0.00000000000E+00  0.18458108127E+04  0.18458108127E+04  0.25500000000E-02 0.  1.
         -2   -1    0    0    0  501 -0.00000000000E+00 -0.00000000000E+00 -0.12095720934E+03  0.12095720937E+03  0.25500000000E-02 0. -1.
    5000001    1    1    2    0    0  0.73471651700E+02 -0.39575478964E+03  0.11686050150E+04  0.12519020002E+04  0.19900000000E+03 0.  0.
   -5000001    1    1    2    0    0 -0.73471651700E+02  0.39575478964E+03  0.55624858840E+03  0.71486602187E+03  0.19900000000E+03 0.  0.
<mgrwt>
<rscale>  0 0.94501667E+03</rscale>
<asrwt>0</asrwt>
<pdfrwt beam="1">  1        2 0.26368727E+00 0.94501667E+03</pdfrwt>
<pdfrwt beam="2">  1       -2 0.17279601E-01 0.94501667E+03</pdfrwt>
<totfact> 0.26617558E+02</totfact>
</mgrwt>
</event>
<event>
 4    1  0.5023236E-005  0.5906232E+03  0.7818608E-02  0.9925053E-01
          2   -1    0    0  501    0  0.00000000000E+00  0.00000000000E+00  0.60785687052E+03  0.60785687053E+03  0.25500000000E-02 0. -1.
         -2   -1    0    0    0  501 -0.00000000000E+00 -0.00000000000E+00 -0.14346954620E+03  0.14346954622E+03  0.25500000000E-02 0.  1.
    5000001    1    1    2    0    0  0.13780517387E+03  0.16903640787E+03  0.24066775917E+03  0.38090096276E+03  0.19900000000E+03 0.  0.
   -5000001    1    1    2    0    0 -0.13780517387E+03 -0.16903640787E+03  0.22371956516E+03  0.37042545399E+03  0.19900000000E+03 0.  0.
<mgrwt>
<rscale>  0 0.59062323E+03</rscale>
<asrwt>0</asrwt>
<pdfrwt beam="1">  1        2 0.86836694E-01 0.59062323E+03</pdfrwt>
<pdfrwt beam="2">  1       -2 0.20495650E-01 0.59062323E+03</pdfrwt>
<totfact> 0.10936787E+03</totfact>
</mgrwt>
</event>
<event>
 4    1  0.5023236E-005  0.4400442E+03  0.7818608E-02  0.1030733E+00
          2   -1    0    0  501    0  0.00000000000E+00  0.00000000000E+00  0.11386601960E+04  0.11386601960E+04  0.25500000000E-02 0.  1.
         -2   -1    0    0    0  501 -0.00000000000E+00 -0.00000000000E+00 -0.42514636671E+02  0.42514636747E+02  0.25500000000E-02 0. -1.
    5000001    1    1    2    0    0  0.74589224641E+02  0.47186615129E+02  0.63374080538E+03  0.67008845497E+03  0.19900000000E+03 0.  0.
   -5000001    1    1    2    0    0 -0.74589224641E+02 -0.47186615129E+02  0.46240475397E+03  0.51108637780E+03  0.19900000000E+03 0.  0.
<mgrwt>
<rscale>  0 0.44004420E+03</rscale>
<asrwt>0</asrwt>
<pdfrwt beam="1">  1        2 0.16266576E+00 0.44004420E+03</pdfrwt>
<pdfrwt beam="2">  1       -2 0.60735188E-02 0.44004420E+03</pdfrwt>
<totfact> 0.35344283E+03</totfact>
</mgrwt>
</event>
<event>
 4    1  0.5023236E-005  0.5560777E+03  0.7818608E-02  0.1000097E+00
         -2   -1    0    0    0  501 -0.00000000000E+00  0.00000000000E+00  0.71015106475E+02  0.71015106521E+02  0.25500000000E-02 0.  1.
          2   -1    0    0  501    0  0.00000000000E+00 -0.00000000000E+00 -0.10885796457E+04  0.10885796457E+04  0.25500000000E-02 0. -1.
    5000001    1    1    2    0    0 -0.10679126389E+03  0.14480330445E+03 -0.35650848444E+03  0.44617448437E+03  0.19900000000E+03 0.  0.
   -5000001    1    1    2    0    0  0.10679126389E+03 -0.14480330445E+03 -0.66105605478E+03  0.71342026785E+03  0.19900000000E+03 0.  0.
<mgrwt>
<rscale>  0 0.55607769E+03</rscale>
<asrwt>0</asrwt>
<pdfrwt beam="1">  1        2 0.15551137E+00 0.55607769E+03</pdfrwt>
<pdfrwt beam="2">  1       -2 0.10145016E-01 0.55607769E+03</pdfrwt>
<totfact> 0.16731013E+03</totfact>
</mgrwt>
</event>
<event>
 4    1  0.5023236E-005  0.5403888E+03  0.7818608E-02  0.1003743E+00
          2   -1    0    0  501    0  0.00000000000E+00  0.00000000000E+00  0.64094891345E+03  0.64094891346E+03  0.25500000000E-02 0.  1.
         -2   -1    0    0    0  501 -0.00000000000E+00 -0.00000000000E+00 -0.11390145776E+03  0.11390145779E+03  0.25500000000E-02 0. -1.
    5000001    1    1    2    0    0  0.97941065340E+02  0.14675741236E+03  0.33013275184E+03  0.42393257035E+03  0.19900000000E+03 0.  0.
   -5000001    1    1    2    0    0 -0.97941065340E+02 -0.14675741236E+03  0.19691470385E+03  0.33091780091E+03  0.19900000000E+03 0.  0.
<mgrwt>
<rscale>  0 0.54038881E+03</rscale>
<asrwt>0</asrwt>
<pdfrwt beam="1">  1        2 0.91564132E-01 0.54038881E+03</pdfrwt>
<pdfrwt beam="2">  1       -2 0.16271637E-01 0.54038881E+03</pdfrwt>
<totfact> 0.15280361E+03</totfact>
</mgrwt>
</event>
<event>
 4    1  0.5023236E-005  0.9675634E+03  0.7818608E-02  0.9344854E-01
          2   -1    0    0  501    0  0.00000000000E+00  0.00000000000E+00  0.58498249178E+03  0.58498249178E+03  0.25500000000E-02 0.  1.
         -2   -1    0    0    0  501 -0.00000000000E+00 -0.00000000000E+00 -0.40008842069E+03  0.40008842069E+03  0.25500000000E-02 0. -1.
    5000001    1    1    2    0    0 -0.35576160375E+03  0.24801568817E+03  0.11218530030E+02  0.47728917408E+03  0.19900000000E+03 0.  0.
   -5000001    1    1    2    0    0  0.35576160375E+03 -0.24801568817E+03  0.17367554106E+03  0.50778173839E+03  0.19900000000E+03 0.  0.
<mgrwt>
<rscale>  0 0.96756338E+03</rscale>
<asrwt>0</asrwt>
<pdfrwt beam="1">  1        2 0.83568927E-01 0.96756338E+03</pdfrwt>
<pdfrwt beam="2">  1       -2 0.57155489E-01 0.96756338E+03</pdfrwt>
<totfact> 0.16048531E+02</totfact>
</mgrwt>
</event>
<event>
 4    1  0.5023236E-005  0.7527024E+03  0.7818608E-02  0.9631120E-01
         -2   -1    0    0    0  501 -0.00000000000E+00  0.00000000000E+00  0.24938296748E+03  0.24938296749E+03  0.25500000000E-02 0. -1.
          2   -1    0    0  501    0  0.00000000000E+00 -0.00000000000E+00 -0.56796275150E+03  0.56796275151E+03  0.25500000000E-02 0.  1.
    5000001    1    1    2    0    0 -0.29765128664E+01  0.23531561453E+03  0.75262892683E+02  0.31725037602E+03  0.19900000000E+03 0.  0.
   -5000001    1    1    2    0    0  0.29765128664E+01 -0.23531561453E+03 -0.39384267671E+03  0.50009534298E+03  0.19900000000E+03 0.  0.
<mgrwt>
<rscale>  0 0.75270243E+03</rscale>
<asrwt>0</asrwt>
<pdfrwt beam="1">  1        2 0.81137536E-01 0.75270243E+03</pdfrwt>
<pdfrwt beam="2">  1       -2 0.35626138E-01 0.75270243E+03</pdfrwt>
<totfact> 0.43083613E+02</totfact>
</mgrwt>
</event>
<event>
 4    1  0.5023236E-005  0.6453529E+03  0.7818608E-02  0.9815538E-01
         -2   -1    0    0    0  501 -0.00000000000E+00  0.00000000000E+00  0.78607427606E+02  0.78607427647E+02  0.25500000000E-02 0. -1.
          2   -1    0    0  501    0  0.00000000000E+00 -0.00000000000E+00 -0.13245581137E+04  0.13245581137E+04  0.25500000000E-02 0.  1.
    5000001    1    1    2    0    0 -0.36833501064E+02 -0.24808154511E+03 -0.71043215812E+03  0.77924066315E+03  0.19900000000E+03 0.  0.
   -5000001    1    1    2    0    0  0.36833501064E+02  0.24808154511E+03 -0.53551852797E+03  0.62392487819E+03  0.19900000000E+03 0.  0.
<mgrwt>
<rscale>  0 0.64535295E+03</rscale>
<asrwt>0</asrwt>
<pdfrwt beam="1">  1        2 0.18922257E+00 0.64535295E+03</pdfrwt>
<pdfrwt beam="2">  1       -2 0.11229633E-01 0.64535295E+03</pdfrwt>
<totfact> 0.10432853E+03</totfact>
</mgrwt>
</event>
<event>
 4    1  0.5023236E-005  0.8212225E+03  0.7818608E-02  0.9529796E-01
         -2   -1    0    0    0  501 -0.00000000000E+00  0.00000000000E+00  0.13506489399E+03  0.13506489401E+03  0.25500000000E-02 0. -1.
          2   -1    0    0  501    0  0.00000000000E+00 -0.00000000000E+00 -0.12483007675E+04  0.12483007675E+04  0.25500000000E-02 0.  1.
    5000001    1    1    2    0    0  0.85210621927E+02 -0.19899119441E+03 -0.10394092791E+04  0.10801995163E+04  0.19900000000E+03 0.  0.
   -5000001    1    1    2    0    0 -0.85210621927E+02  0.19899119441E+03 -0.73826594368E+02  0.30316614517E+03  0.19900000000E+03 0.  0.
<mgrwt>
<rscale>  0 0.82122253E+03</rscale>
<asrwt>0</asrwt>
<pdfrwt beam="1">  1        2 0.17832867E+00 0.82122253E+03</pdfrwt>
<pdfrwt beam="2">  1       -2 0.19294986E-01 0.82122253E+03</pdfrwt>
<totfact> 0.45748808E+02</totfact>
</mgrwt>
</event>
<event>
 4    1  0.5023236E-005  0.5677623E+03  0.7818608E-02  0.9974643E-01
         -2   -1    0    0    0  501 -0.00000000000E+00  0.00000000000E+00  0.23118154000E+03  0.23118154002E+03  0.25500000000E-02 0. -1.
          2   -1    0    0  501    0  0.00000000000E+00 -0.00000000000E+00 -0.34859408417E+03  0.34859408417E+03  0.25500000000E-02 0.  1.
    5000001    1    1    2    0    0  0.11342176857E+03 -0.88289928429E+02 -0.20429901196E+03  0.31937234592E+03  0.19900000000E+03 0.  0.
   -5000001    1    1    2    0    0 -0.11342176857E+03  0.88289928429E+02  0.86886467801E+02  0.26040327827E+03  0.19900000000E+03 0.  0.
<mgrwt>
<rscale>  0 0.56776233E+03</rscale>
<asrwt>0</asrwt>
<pdfrwt beam="1">  1        2 0.49799155E-01 0.56776233E+03</pdfrwt>
<pdfrwt beam="2">  1       -2 0.33025934E-01 0.56776233E+03</pdfrwt>
<totfact> 0.86599454E+02</totfact>
</mgrwt>
</event>
<event>
 4    1  0.5023236E-005  0.7245423E+03  0.7818608E-02  0.9676158E-01
         -2   -1    0    0    0  501 -0.00000000000E+00  0.00000000000E+00  0.22556039711E+03  0.22556039713E+03  0.25500000000E-02 0. -1.
          2   -1    0    0  501    0  0.00000000000E+00 -0.00000000000E+00 -0.58184140870E+03  0.58184140870E+03  0.25500000000E-02 0.  1.
    5000001    1    1    2    0    0 -0.27594053076E+03  0.72234384474E+02 -0.65163863348E+02  0.35384786548E+03  0.19900000000E+03 0.  0.
   -5000001    1    1    2    0    0  0.27594053076E+03 -0.72234384474E+02 -0.29111714824E+03  0.45355394036E+03  0.19900000000E+03 0.  0.
<mgrwt>
<rscale>  0 0.72454228E+03</rscale>
<asrwt>0</asrwt>
<pdfrwt beam="1">  1        2 0.83120201E-01 0.72454228E+03</pdfrwt>
<pdfrwt beam="2">  1       -2 0.32222914E-01 0.72454228E+03</pdfrwt>
<totfact> 0.50681997E+02</totfact>
</mgrwt>
</event>
<event>
 4    1  0.5023236E-005  0.1076946E+04  0.7818608E-02  0.9227958E-01
          2   -1    0    0  501    0  0.00000000000E+00  0.00000000000E+00  0.36571404117E+04  0.36571404117E+04  0.25500000000E-02 0.  1.
         -2   -1    0    0    0  501 -0.00000000000E+00 -0.00000000000E+00 -0.79284147429E+02  0.79284147470E+02  0.25500000000E-02 0. -1.
    5000001    1    1    2    0    0 -0.34705925666E+03  0.30333886693E+03  0.24642505057E+04  0.25148749771E+04  0.19900000000E+03 0.  0.
   -5000001    1    1    2    0    0  0.34705925666E+03 -0.30333886693E+03  0.11136057586E+04  0.12215495820E+04  0.19900000000E+03 0.  0.
<mgrwt>
<rscale>  0 0.10769462E+04</rscale>
<asrwt>0</asrwt>
<pdfrwt beam="1">  1        2 0.52244877E+00 0.10769462E+04</pdfrwt>
<pdfrwt beam="2">  1       -2 0.11326304E-01 0.10769462E+04</pdfrwt>
<totfact> 0.55266912E+01</totfact>
</mgrwt>
</event>
<event>
 4    1  0.5023236E-005  0.4577337E+03  0.7818608E-02  0.1025441E+00
          2   -1    0    0  501    0  0.00000000000E+00  0.00000000000E+00  0.43217152257E+03  0.43217152258E+03  0.25500000000E-02 0.  1.
         -2   -1    0    0    0  501 -0.00000000000E+00 -0.00000000000E+00 -0.12120198122E+03  0.12120198125E+03  0.25500000000E-02 0. -1.
    5000001    1    1    2    0    0  0.67525347795E+02 -0.54449642534E+02  0.67850168645E+02  0.22744028129E+03  0.19900000000E+03 0.  0.
   -5000001    1    1    2    0    0 -0.67525347795E+02  0.54449642534E+02  0.24311937271E+03  0.32593322254E+03  0.19900000000E+03 0.  0.
<mgrwt>
<rscale>  0 0.45773374E+03</rscale>
<asrwt>0</asrwt>
<pdfrwt beam="1">  1        2 0.61738790E-01 0.45773374E+03</pdfrwt>
<pdfrwt beam="2">  1       -2 0.17314569E-01 0.45773374E+03</pdfrwt>
<totfact> 0.21563463E+03</totfact>
</mgrwt>
</event>
<event>
 4    1  0.5023236E-005  0.9333853E+03  0.7818608E-02  0.9384784E-01
         -2   -1    0    0    0  501 -0.00000000000E+00  0.00000000000E+00  0.97569528565E+02  0.97569528598E+02  0.25500000000E-02 0. -1.
          2   -1    0    0  501    0  0.00000000000E+00 -0.00000000000E+00 -0.22322748692E+04  0.22322748692E+04  0.25500000000E-02 0.  1.
    5000001    1    1    2    0    0 -0.21890788358E+03  0.33902544780E+03 -0.13765304391E+04  0.14482043936E+04  0.19900000000E+03 0.  0.
   -5000001    1    1    2    0    0  0.21890788358E+03 -0.33902544780E+03 -0.75817490149E+03  0.88164000420E+03  0.19900000000E+03 0.  0.
<mgrwt>
<rscale>  0 0.93338525E+03</rscale>
<asrwt>0</asrwt>
<pdfrwt beam="1">  1        2 0.31889638E+00 0.93338525E+03</pdfrwt>
<pdfrwt beam="2">  1       -2 0.13938505E-01 0.93338525E+03</pdfrwt>
<totfact> 0.24396340E+02</totfact>
</mgrwt>
</event>
<event>
 4    1  0.5023236E-005  0.6721140E+03  0.7818608E-02  0.9766146E-01
         -2   -1    0    0    0  501 -0.00000000000E+00  0.00000000000E+00  0.17064171268E+03  0.17064171270E+03  0.25500000000E-02 0. -1.
          2   -1    0    0  501    0  0.00000000000E+00 -0.00000000000E+00 -0.66182127056E+03  0.66182127057E+03  0.25500000000E-02 0.  1.
    5000001    1    1    2    0    0  0.21357821771E+02 -0.26720029849E+03 -0.29325732790E+03  0.44435685708E+03  0.19900000000E+03 0.  0.
   -5000001    1    1    2    0    0 -0.21357821771E+02  0.26720029849E+03 -0.19792222998E+03  0.38810612619E+03  0.19900000000E+03 0.  0.
<mgrwt>
<rscale>  0 0.67211402E+03</rscale>
<asrwt>0</asrwt>
<pdfrwt beam="1">  1        2 0.94545895E-01 0.67211402E+03</pdfrwt>
<pdfrwt beam="2">  1       -2 0.24377388E-01 0.67211402E+03</pdfrwt>
<totfact> 0.72588406E+02</totfact>
</mgrwt>
</event>
<event>
 4    1  0.5023236E-005  0.5458293E+03  0.7818608E-02  0.1002464E+00
          2   -1    0    0  501    0  0.00000000000E+00  0.00000000000E+00  0.77884545716E+03  0.77884545717E+03  0.25500000000E-02 0.  1.
         -2   -1    0    0    0  501 -0.00000000000E+00 -0.00000000000E+00 -0.95631827506E+02  0.95631827540E+02  0.25500000000E-02 0. -1.
    5000001    1    1    2    0    0 -0.36330679679E+02 -0.18316459097E+03  0.34720932743E+03  0.44161578632E+03  0.19900000000E+03 0.  0.
   -5000001    1    1    2    0    0  0.36330679679E+02  0.18316459097E+03  0.33600430223E+03  0.43286149839E+03  0.19900000000E+03 0.  0.
<mgrwt>
<rscale>  0 0.54582933E+03</rscale>
<asrwt>0</asrwt>
<pdfrwt beam="1">  1        2 0.11126364E+00 0.54582933E+03</pdfrwt>
<pdfrwt beam="2">  1       -2 0.13661689E-01 0.54582933E+03</pdfrwt>
<totfact> 0.16144302E+03</totfact>
</mgrwt>
</event>
<event>
 4    1  0.5023236E-005  0.5372087E+03  0.7818608E-02  0.1004499E+00
         -2   -1    0    0    0  501 -0.00000000000E+00  0.00000000000E+00  0.10999932723E+03  0.10999932726E+03  0.25500000000E-02 0. -1.
          2   -1    0    0  501    0  0.00000000000E+00 -0.00000000000E+00 -0.65589757646E+03  0.65589757646E+03  0.25500000000E-02 0.  1.
    5000001    1    1    2    0    0 -0.15266394054E+02 -0.14488638267E+03 -0.12124686848E+03  0.27482163268E+03  0.19900000000E+03 0.  0.
   -5000001    1    1    2    0    0  0.15266394054E+02  0.14488638267E+03 -0.42465138074E+03  0.49107527105E+03  0.19900000000E+03 0.  0.
<mgrwt>
<rscale>  0 0.53720868E+03</rscale>
<asrwt>0</asrwt>
<pdfrwt beam="1">  1        2 0.93699651E-01 0.53720868E+03</pdfrwt>
<pdfrwt beam="2">  1       -2 0.15714190E-01 0.53720868E+03</pdfrwt>
<totfact> 0.15768296E+03</totfact>
</mgrwt>
</event>
<event>
 4    1  0.5023236E-005  0.6291790E+03  0.7818608E-02  0.9846652E-01
          2   -1    0    0  501    0  0.00000000000E+00  0.00000000000E+00  0.24277965130E+03  0.24277965131E+03  0.25500000000E-02 0.  1.
         -2   -1    0    0    0  501 -0.00000000000E+00 -0.00000000000E+00 -0.40763943207E+03  0.40763943208E+03  0.25500000000E-02 0. -1.
    5000001    1    1    2    0    0 -0.24610366792E+02 -0.23598566498E+03 -0.25145729928E+02  0.31068989678E+03  0.19900000000E+03 0.  0.
   -5000001    1    1    2    0    0  0.24610366792E+02  0.23598566498E+03 -0.13971405084E+03  0.33972918661E+03  0.19900000000E+03 0.  0.
<mgrwt>
<rscale>  0 0.62917902E+03</rscale>
<asrwt>0</asrwt>
<pdfrwt beam="1">  1        2 0.34682807E-01 0.62917902E+03</pdfrwt>
<pdfrwt beam="2">  1       -2 0.58234205E-01 0.62917902E+03</pdfrwt>
<totfact> 0.42050838E+02</totfact>
</mgrwt>
</event>
<event>
 4    1  0.5023236E-005  0.5588820E+03  0.7818608E-02  0.9994587E-01
         -2   -1    0    0    0  501 -0.00000000000E+00  0.00000000000E+00  0.68812630937E+03  0.68812630938E+03  0.25500000000E-02 0. -1.
          2   -1    0    0  501    0  0.00000000000E+00 -0.00000000000E+00 -0.11347812882E+03  0.11347812885E+03  0.25500000000E-02 0.  1.
    5000001    1    1    2    0    0  0.10732557138E+03 -0.15163437626E+03  0.19690034391E+03  0.33597992167E+03  0.19900000000E+03 0.  0.
   -5000001    1    1    2    0    0 -0.10732557138E+03  0.15163437626E+03  0.37774783664E+03  0.46562451656E+03  0.19900000000E+03 0.  0.
<mgrwt>
<rscale>  0 0.55888205E+03</rscale>
<asrwt>0</asrwt>
<pdfrwt beam="1">  1        2 0.16211161E-01 0.55888205E+03</pdfrwt>
<pdfrwt beam="2">  1       -2 0.98303760E-01 0.55888205E+03</pdfrwt>
<totfact> 0.31750599E+02</totfact>
</mgrwt>
</event>
<event>
 4    1  0.5023236E-005  0.9603462E+03  0.7818608E-02  0.9353139E-01
         -2   -1    0    0    0  501 -0.00000000000E+00  0.00000000000E+00  0.52080249976E+03  0.52080249976E+03  0.25500000000E-02 0. -1.
          2   -1    0    0  501    0  0.00000000000E+00 -0.00000000000E+00 -0.44271331716E+03  0.44271331717E+03  0.25500000000E-02 0.  1.
    5000001    1    1    2    0    0 -0.52301754232E+02  0.12710763788E+03  0.45523097827E+03  0.51548818481E+03  0.19900000000E+03 0.  0.
   -5000001    1    1    2    0    0  0.52301754232E+02 -0.12710763788E+03 -0.37714179567E+03  0.44802763213E+03  0.19900000000E+03 0.  0.
<mgrwt>
<rscale>  0 0.96034619E+03</rscale>
<asrwt>0</asrwt>
<pdfrwt beam="1">  1        2 0.63244760E-01 0.96034619E+03</pdfrwt>
<pdfrwt beam="2">  1       -2 0.74400357E-01 0.96034619E+03</pdfrwt>
<totfact> 0.12554562E+02</totfact>
</mgrwt>
</event>
<event>
 4    1  0.5023236E-005  0.6782283E+03  0.7818608E-02  0.9755207E-01
         -2   -1    0    0    0  501 -0.00000000000E+00  0.00000000000E+00  0.79827528749E+02  0.79827528790E+02  0.25500000000E-02 0. -1.
          2   -1    0    0  501    0  0.00000000000E+00 -0.00000000000E+00 -0.14405858260E+04  0.14405858260E+04  0.25500000000E-02 0.  1.
    5000001    1    1    2    0    0  0.11878750592E+03  0.24710622983E+03 -0.64671969055E+03  0.73008172044E+03  0.19900000000E+03 0.  0.
   -5000001    1    1    2    0    0 -0.11878750592E+03 -0.24710622983E+03 -0.71403860665E+03  0.79033163430E+03  0.19900000000E+03 0.  0.
<mgrwt>
<rscale>  0 0.67822830E+03</rscale>
<asrwt>0</asrwt>
<pdfrwt beam="1">  1        2 0.20579796E+00 0.67822830E+03</pdfrwt>
<pdfrwt beam="2">  1       -2 0.11403934E-01 0.67822830E+03</pdfrwt>
<totfact> 0.88061980E+02</totfact>
</mgrwt>
</event>
<event>
 4    1  0.5023236E-005  0.5394982E+03  0.7818608E-02  0.1003954E+00
         -2   -1    0    0    0  501 -0.00000000000E+00  0.00000000000E+00  0.76388618251E+02  0.76388618294E+02  0.25500000000E-02 0. -1.
          2   -1    0    0  501    0  0.00000000000E+00 -0.00000000000E+00 -0.95255793936E+03  0.95255793937E+03  0.25500000000E-02 0.  1.
    5000001    1    1    2    0    0  0.83341084343E+02  0.11572366197E+03 -0.22208830465E+03  0.33054790476E+03  0.19900000000E+03 0.  0.
   -5000001    1    1    2    0    0 -0.83341084343E+02 -0.11572366197E+03 -0.65408101646E+03  0.69839865290E+03  0.19900000000E+03 0.  0.
<mgrwt>
<rscale>  0 0.53949823E+03</rscale>
<asrwt>0</asrwt>
<pdfrwt beam="1">  1        2 0.13607970E+00 0.53949823E+03</pdfrwt>
<pdfrwt beam="2">  1       -2 0.10912660E-01 0.53949823E+03</pdfrwt>
<totfact> 0.17947457E+03</totfact>
</mgrwt>
</event>
<event>
 4    1  0.5023236E-005  0.4530493E+03  0.7818608E-02  0.1026817E+00
          2   -1    0    0  501    0  0.00000000000E+00  0.00000000000E+00  0.10103860901E+04  0.10103860901E+04  0.25500000000E-02 0.  1.
         -2   -1    0    0    0  501 -0.00000000000E+00 -0.00000000000E+00 -0.50785954082E+02  0.50785954146E+02  0.25500000000E-02 0. -1.
    5000001    1    1    2    0    0  0.60649461896E+00 -0.10588508248E+03  0.53219633023E+03  0.57796708594E+03  0.19900000000E+03 0.  0.
   -5000001    1    1    2    0    0 -0.60649461896E+00  0.10588508248E+03  0.42740380581E+03  0.48320495832E+03  0.19900000000E+03 0.  0.
<mgrwt>
<rscale>  0 0.45304932E+03</rscale>
<asrwt>0</asrwt>
<pdfrwt beam="1">  1        2 0.14434088E+00 0.45304932E+03</pdfrwt>
<pdfrwt beam="2">  1       -2 0.72551359E-02 0.45304932E+03</pdfrwt>
<totfact> 0.31788036E+03</totfact>
</mgrwt>
</event>
<event>
 4    1  0.5023236E-005  0.5399805E+03  0.7818608E-02  0.1003840E+00
          2   -1    0    0  501    0  0.00000000000E+00  0.00000000000E+00  0.18485366355E+04  0.18485366355E+04  0.25500000000E-02 0.  1.
         -2   -1    0    0    0  501 -0.00000000000E+00 -0.00000000000E+00 -0.39433750836E+02  0.39433750918E+02  0.25500000000E-02 0. -1.
    5000001    1    1    2    0    0  0.48260328306E+02 -0.63403478648E+02  0.14784743557E+04  0.14939332250E+04  0.19900000000E+03 0.  0.
   -5000001    1    1    2    0    0 -0.48260328306E+02  0.63403478648E+02  0.33062852899E+03  0.39403716142E+03  0.19900000000E+03 0.  0.
<mgrwt>
<rscale>  0 0.53998049E+03</rscale>
<asrwt>0</asrwt>
<pdfrwt beam="1">  1        2 0.26407663E+00 0.53998049E+03</pdfrwt>
<pdfrwt beam="2">  1       -2 0.56333936E-02 0.53998049E+03</pdfrwt>
<totfact> 0.16867058E+03</totfact>
</mgrwt>
</event>
<event>
 4    1  0.5023236E-005  0.7163922E+03  0.7818608E-02  0.9689603E-01
         -2   -1    0    0    0  501 -0.00000000000E+00  0.00000000000E+00  0.33687744789E+03  0.33687744790E+03  0.25500000000E-02 0. -1.
          2   -1    0    0  501    0  0.00000000000E+00 -0.00000000000E+00 -0.38086381944E+03  0.38086381945E+03  0.25500000000E-02 0.  1.
    5000001    1    1    2    0    0 -0.16530194758E+03 -0.24770695314E+03 -0.17516776110E+02  0.35859629941E+03  0.19900000000E+03 0.  0.
   -5000001    1    1    2    0    0  0.16530194758E+03  0.24770695314E+03 -0.26469595439E+02  0.35914496793E+03  0.19900000000E+03 0.  0.
<mgrwt>
<rscale>  0 0.71639216E+03</rscale>
<asrwt>0</asrwt>
<pdfrwt beam="1">  1        2 0.54409117E-01 0.71639216E+03</pdfrwt>
<pdfrwt beam="2">  1       -2 0.48125350E-01 0.71639216E+03</pdfrwt>
<totfact> 0.37663159E+02</totfact>
</mgrwt>
</event>
<event>
 4    1  0.5023236E-005  0.5041803E+03  0.7818608E-02  0.1012694E+00
         -2   -1    0    0    0  501 -0.00000000000E+00  0.00000000000E+00  0.42756077532E+03  0.42756077533E+03  0.25500000000E-02 0. -1.
          2   -1    0    0  501    0  0.00000000000E+00 -0.00000000000E+00 -0.14863256864E+03  0.14863256867E+03  0.25500000000E-02 0.  1.
    5000001    1    1    2    0    0  0.98978646193E+02 -0.11715575343E+03  0.16305779160E+03  0.29951809021E+03  0.19900000000E+03 0.  0.
   -5000001    1    1    2    0    0 -0.98978646193E+02  0.11715575343E+03  0.11587041508E+03  0.27667525378E+03  0.19900000000E+03 0.  0.
<mgrwt>
<rscale>  0 0.50418035E+03</rscale>
<asrwt>0</asrwt>
<pdfrwt beam="1">  1        2 0.21233224E-01 0.50418035E+03</pdfrwt>
<pdfrwt beam="2">  1       -2 0.61080111E-01 0.50418035E+03</pdfrwt>
<totfact> 0.66468529E+02</totfact>
</mgrwt>
</event>
<event>
 4    1  0.5023236E-005  0.5750959E+03  0.7818608E-02  0.9958465E-01
          2   -1    0    0  501    0  0.00000000000E+00  0.00000000000E+00  0.34127637116E+04  0.34127637116E+04  0.25500000000E-02 0.  1.
         -2   -1    0    0    0  501 -0.00000000000E+00 -0.00000000000E+00 -0.24227817411E+02  0.24227817545E+02  0.25500000000E-02 0. -1.
    5000001    1    1    2    0    0 -0.10470545157E+03 -0.85531974420E+02  0.75303331541E+03  0.79053091297E+03  0.19900000000E+03 0.  0.
   -5000001    1    1    2    0    0  0.10470545157E+03  0.85531974420E+02  0.26355025787E+04  0.26464606161E+04  0.19900000000E+03 0.  0.
<mgrwt>
<rscale>  0 0.57509587E+03</rscale>
<asrwt>0</asrwt>
<pdfrwt beam="1">  1        2 0.48753766E+00 0.57509587E+03</pdfrwt>
<pdfrwt beam="2">  1       -2 0.34611169E-02 0.57509587E+03</pdfrwt>
<totfact> 0.53563417E+02</totfact>
</mgrwt>
</event>
<event>
 4    1  0.5023236E-005  0.5637214E+03  0.7818608E-02  0.9983669E-01
          2   -1    0    0  501    0  0.00000000000E+00  0.00000000000E+00  0.38591283538E+03  0.38591283539E+03  0.25500000000E-02 0.  1.
         -2   -1    0    0    0  501 -0.00000000000E+00 -0.00000000000E+00 -0.20586374351E+03  0.20586374353E+03  0.25500000000E-02 0. -1.
    5000001    1    1    2    0    0  0.19374505435E+03  0.20435707477E+02  0.44390466961E+02  0.28200403859E+03  0.19900000000E+03 0.  0.
   -5000001    1    1    2    0    0 -0.19374505435E+03 -0.20435707477E+02  0.13565862491E+03  0.30977254032E+03  0.19900000000E+03 0.  0.
<mgrwt>
<rscale>  0 0.56372142E+03</rscale>
<asrwt>0</asrwt>
<pdfrwt beam="1">  1        2 0.55130405E-01 0.56372142E+03</pdfrwt>
<pdfrwt beam="2">  1       -2 0.29409106E-01 0.56372142E+03</pdfrwt>
<totfact> 0.95989573E+02</totfact>
</mgrwt>
</event>
<event>
 4    1  0.5023236E-005  0.1262758E+04  0.7818608E-02  0.9059631E-01
          2   -1    0    0  501    0  0.00000000000E+00  0.00000000000E+00  0.28632368075E+04  0.28632368075E+04  0.25500000000E-02 0.  1.
         -2   -1    0    0    0  501 -0.00000000000E+00 -0.00000000000E+00 -0.13922691235E+03  0.13922691237E+03  0.25500000000E-02 0. -1.
    5000001    1    1    2    0    0 -0.29676409262E+03  0.45460279423E+03  0.75905221654E+03  0.95419803743E+03  0.19900000000E+03 0.  0.
   -5000001    1    1    2    0    0  0.29676409262E+03 -0.45460279423E+03  0.19649576786E+04  0.20482656825E+04  0.19900000000E+03 0.  0.
<mgrwt>
<rscale>  0 0.12627583E+04</rscale>
<asrwt>0</asrwt>
<pdfrwt beam="1">  1        2 0.40903382E+00 0.12627583E+04</pdfrwt>
<pdfrwt beam="2">  1       -2 0.19889559E-01 0.12627583E+04</pdfrwt>
<totfact> 0.60076671E+01</totfact>
</mgrwt>
</event>
<event>
 4    1  0.5023236E-005  0.5152344E+03  0.7818608E-02  0.1009877E+00
          2   -1    0    0  501    0  0.00000000000E+00  0.00000000000E+00  0.55774788504E+04  0.55774788504E+04  0.25500000000E-02 0.  1.
         -2   -1    0    0    0  501 -0.00000000000E+00 -0.00000000000E+00 -0.11899036595E+02  0.11899036868E+02  0.25500000000E-02 0. -1.
    5000001    1    1    2    0    0 -0.27608246963E+02 -0.10698204903E+03  0.14738695610E+04  0.14913416299E+04  0.19900000000E+03 0.  0.
   -5000001    1    1    2    0    0  0.27608246963E+02  0.10698204903E+03  0.40917102528E+04  0.40980362574E+04  0.19900000000E+03 0.  0.
<mgrwt>
<rscale>  0 0.51523442E+03</rscale>
<asrwt>0</asrwt>
<pdfrwt beam="1">  1        2 0.79678426E+00 0.51523442E+03</pdfrwt>
<pdfrwt beam="2">  1       -2 0.16998590E-02 0.51523442E+03</pdfrwt>
<totfact> 0.26671575E+01</totfact>
</mgrwt>
</event>
<event>
 4    1  0.5023236E-005  0.5603938E+03  0.7818608E-02  0.9991164E-01
         -2   -1    0    0    0  501 -0.00000000000E+00  0.00000000000E+00  0.18960749533E+03  0.18960749535E+03  0.25500000000E-02 0. -1.
          2   -1    0    0  501    0  0.00000000000E+00 -0.00000000000E+00 -0.41406756933E+03  0.41406756934E+03  0.25500000000E-02 0.  1.
    5000001    1    1    2    0    0  0.12899612452E+03  0.12566582562E+03 -0.19892836839E+03  0.33407393735E+03  0.19900000000E+03 0.  0.
   -5000001    1    1    2    0    0 -0.12899612452E+03 -0.12566582562E+03 -0.25531705613E+02  0.26960112734E+03  0.19900000000E+03 0.  0.
<mgrwt>
<rscale>  0 0.56039384E+03</rscale>
<asrwt>0</asrwt>
<pdfrwt beam="1">  1        2 0.59152510E-01 0.56039384E+03</pdfrwt>
<pdfrwt beam="2">  1       -2 0.27086785E-01 0.56039384E+03</pdfrwt>
<totfact> 0.10317353E+03</totfact>
</mgrwt>
</event>
<event>
 4    1  0.5023236E-005  0.5351026E+03  0.7818608E-02  0.1005002E+00
          2   -1    0    0  501    0  0.00000000000E+00  0.00000000000E+00  0.14270823610E+04  0.14270823610E+04  0.25500000000E-02 0.  1.
         -2   -1    0    0    0  501 -0.00000000000E+00 -0.00000000000E+00 -0.50160865834E+02  0.50160865899E+02  0.25500000000E-02 0. -1.
    5000001    1    1    2    0    0  0.85548041369E+01  0.15457581945E+03  0.93562685122E+03  0.96900230823E+03  0.19900000000E+03 0.  0.
   -5000001    1    1    2    0    0 -0.85548041369E+01 -0.15457581945E+03  0.44129464393E+03  0.50824091866E+03  0.19900000000E+03 0.  0.
<mgrwt>
<rscale>  0 0.53510256E+03</rscale>
<asrwt>0</asrwt>
<pdfrwt beam="1">  1        2 0.20386894E+00 0.53510256E+03</pdfrwt>
<pdfrwt beam="2">  1       -2 0.71658370E-02 0.53510256E+03</pdfrwt>
<totfact> 0.18998161E+03</totfact>
</mgrwt>
</event>
<event>
 4    1  0.5023236E-005  0.7426242E+03  0.7818608E-02  0.9646993E-01
         -2   -1    0    0    0  501 -0.00000000000E+00  0.00000000000E+00  0.12299228794E+03  0.12299228796E+03  0.25500000000E-02 0. -1.
          2   -1    0    0  501    0  0.00000000000E+00 -0.00000000000E+00 -0.11209864212E+04  0.11209864212E+04  0.25500000000E-02 0.  1.
    5000001    1    1    2    0    0 -0.12771210363E+03  0.26869590346E+03 -0.33347587616E+03  0.48919835438E+03  0.19900000000E+03 0.  0.
   -5000001    1    1    2    0    0  0.12771210363E+03 -0.26869590346E+03 -0.66451825714E+03  0.75478035482E+03  0.19900000000E+03 0.  0.
<mgrwt>
<rscale>  0 0.74262422E+03</rscale>
<asrwt>0</asrwt>
<pdfrwt beam="1">  1        2 0.16014091E+00 0.74262422E+03</pdfrwt>
<pdfrwt beam="2">  1       -2 0.17570327E-01 0.74262422E+03</pdfrwt>
<totfact> 0.63776963E+02</totfact>
</mgrwt>
</event>
<event>
 4    1  0.5023236E-005  0.1352465E+04  0.7818608E-02  0.8988965E-01
          2   -1    0    0  501    0  0.00000000000E+00  0.00000000000E+00  0.12911061496E+04  0.12911061496E+04  0.25500000000E-02 0.  1.
         -2   -1    0    0    0  501 -0.00000000000E+00 -0.00000000000E+00 -0.35418476539E+03  0.35418476540E+03  0.25500000000E-02 0. -1.
    5000001    1    1    2    0    0  0.49973630681E+03 -0.28038499580E+03  0.83206790414E+03  0.10297038988E+04  0.19900000000E+03 0.  0.
   -5000001    1    1    2    0    0 -0.49973630681E+03  0.28038499580E+03  0.10485348011E+03  0.61558701619E+03  0.19900000000E+03 0.  0.
<mgrwt>
<rscale>  0 0.13524646E+04</rscale>
<asrwt>0</asrwt>
<pdfrwt beam="1">  1        2 0.18444374E+00 0.13524646E+04</pdfrwt>
<pdfrwt beam="2">  1       -2 0.50597822E-01 0.13524646E+04</pdfrwt>
<totfact> 0.68531601E+01</totfact>
</mgrwt>
</event>
<event>
 4    1  0.5023236E-005  0.6265784E+03  0.7818608E-02  0.9851749E-01
         -2   -1    0    0    0  501 -0.00000000000E+00  0.00000000000E+00  0.19624454409E+02  0.19624454575E+02  0.25500000000E-02 0. -1.
          2   -1    0    0  501    0  0.00000000000E+00 -0.00000000000E+00 -0.50014189101E+04  0.50014189101E+04  0.25500000000E-02 0.  1.
    5000001    1    1    2    0    0  0.86249459001E+02 -0.44692973137E+01 -0.67961029142E+03  0.71339336414E+03  0.19900000000E+03 0.  0.
   -5000001    1    1    2    0    0 -0.86249459001E+02  0.44692973137E+01 -0.43021841642E+04  0.43076500005E+04  0.19900000000E+03 0.  0.
<mgrwt>
<rscale>  0 0.62657838E+03</rscale>
<asrwt>0</asrwt>
<pdfrwt beam="1">  1        2 0.71448761E+00 0.62657838E+03</pdfrwt>
<pdfrwt beam="2">  1       -2 0.28034967E-02 0.62657838E+03</pdfrwt>
<totfact> 0.51754605E+01</totfact>
</mgrwt>
</event>
<event>
 4    1  0.5023236E-005  0.6052368E+03  0.7818608E-02  0.9894601E-01
         -2   -1    0    0    0  501 -0.00000000000E+00  0.00000000000E+00  0.22996873941E+02  0.22996874082E+02  0.25500000000E-02 0. -1.
          2   -1    0    0  501    0  0.00000000000E+00 -0.00000000000E+00 -0.39821885530E+04  0.39821885530E+04  0.25500000000E-02 0.  1.
    5000001    1    1    2    0    0  0.18729201212E+03  0.61497534679E+02 -0.27374902122E+04  0.27517837681E+04  0.19900000000E+03 0.  0.
   -5000001    1    1    2    0    0 -0.18729201212E+03 -0.61497534679E+02 -0.12217014668E+04  0.12534016589E+04  0.19900000000E+03 0.  0.
<mgrwt>
<rscale>  0 0.60523677E+03</rscale>
<asrwt>0</asrwt>
<pdfrwt beam="1">  1        2 0.56888364E+00 0.60523677E+03</pdfrwt>
<pdfrwt beam="2">  1       -2 0.32852702E-02 0.60523677E+03</pdfrwt>
<totfact> 0.25604700E+02</totfact>
</mgrwt>
</event>
<event>
 4    1  0.5023236E-005  0.5328759E+03  0.7818608E-02  0.1005537E+00
         -2   -1    0    0    0  501 -0.00000000000E+00  0.00000000000E+00  0.70368768333E+02  0.70368768379E+02  0.25500000000E-02 0. -1.
          2   -1    0    0  501    0  0.00000000000E+00 -0.00000000000E+00 -0.10088165056E+04  0.10088165056E+04  0.25500000000E-02 0.  1.
    5000001    1    1    2    0    0  0.81699961313E+02 -0.12453708830E+03 -0.66351530272E+03  0.70854634780E+03  0.19900000000E+03 0.  0.
   -5000001    1    1    2    0    0 -0.81699961313E+02  0.12453708830E+03 -0.27493243458E+03  0.37063892621E+03  0.19900000000E+03 0.  0.
<mgrwt>
<rscale>  0 0.53287588E+03</rscale>
<asrwt>0</asrwt>
<pdfrwt beam="1">  1        2 0.14411664E+00 0.53287588E+03</pdfrwt>
<pdfrwt beam="2">  1       -2 0.10052682E-01 0.53287588E+03</pdfrwt>
<totfact> 0.18940319E+03</totfact>
</mgrwt>
</event>
<event>
 4    1  0.5023236E-005  0.5063784E+03  0.7818608E-02  0.1012127E+00
         -2   -1    0    0    0  501 -0.00000000000E+00  0.00000000000E+00  0.18572395676E+02  0.18572395851E+02  0.25500000000E-02 0. -1.
          2   -1    0    0  501    0  0.00000000000E+00 -0.00000000000E+00 -0.34516158897E+04  0.34516158897E+04  0.25500000000E-02 0.  1.
    5000001    1    1    2    0    0 -0.11858980506E+03 -0.94873859541E+02 -0.19764995073E+04  0.19922891089E+04  0.19900000000E+03 0.  0.
   -5000001    1    1    2    0    0  0.11858980506E+03  0.94873859541E+02 -0.14565439867E+04  0.14778991767E+04  0.19900000000E+03 0.  0.
<mgrwt>
<rscale>  0 0.50637842E+03</rscale>
<asrwt>0</asrwt>
<pdfrwt beam="1">  1        2 0.49308757E+00 0.50637842E+03</pdfrwt>
<pdfrwt beam="2">  1       -2 0.26532016E-02 0.50637842E+03</pdfrwt>
<totfact> 0.76698776E+02</totfact>
</mgrwt>
</event>
<event>
 4    1  0.5023236E-005  0.6380307E+03  0.7818608E-02  0.9829502E-01
          2   -1    0    0  501    0  0.00000000000E+00  0.00000000000E+00  0.43321779960E+03  0.43321779961E+03  0.25500000000E-02 0.  1.
         -2   -1    0    0    0  501 -0.00000000000E+00 -0.00000000000E+00 -0.23491831566E+03  0.23491831567E+03  0.25500000000E-02 0. -1.
    5000001    1    1    2    0    0 -0.12459413076E+02  0.20279766332E+03  0.25049482986E+03  0.37898652880E+03  0.19900000000E+03 0.  0.
   -5000001    1    1    2    0    0  0.12459413076E+02 -0.20279766332E+03 -0.52195345923E+02  0.28914958648E+03  0.19900000000E+03 0.  0.
<mgrwt>
<rscale>  0 0.63803071E+03</rscale>
<asrwt>0</asrwt>
<pdfrwt beam="1">  1        2 0.61888258E-01 0.63803071E+03</pdfrwt>
<pdfrwt beam="2">  1       -2 0.33559759E-01 0.63803071E+03</pdfrwt>
<totfact> 0.65943959E+02</totfact>
</mgrwt>
</event>
<event>
 4    1  0.5023236E-005  0.4755814E+03  0.7818608E-02  0.1020357E+00
          2   -1    0    0  501    0  0.00000000000E+00  0.00000000000E+00  0.21499798080E+04  0.21499798080E+04  0.25500000000E-02 0.  1.
         -2   -1    0    0    0  501 -0.00000000000E+00 -0.00000000000E+00 -0.26299976019E+02  0.26299976142E+02  0.25500000000E-02 0. -1.
    5000001    1    1    2    0    0  0.33021311110E+02 -0.12585675257E+03  0.10452847839E+04  0.10719848920E+04  0.19900000000E+03 0.  0.
   -5000001    1    1    2    0    0 -0.33021311110E+02  0.12585675257E+03  0.10783950480E+04  0.11042948921E+04  0.19900000000E+03 0.  0.
<mgrwt>
<rscale>  0 0.47558140E+03</rscale>
<asrwt>0</asrwt>
<pdfrwt beam="1">  1        2 0.30714005E+00 0.47558140E+03</pdfrwt>
<pdfrwt beam="2">  1       -2 0.37571384E-02 0.47558140E+03</pdfrwt>
<totfact> 0.22310440E+03</totfact>
</mgrwt>
</event>
<event>
 4    1  0.5023236E-005  0.4850048E+03  0.7818608E-02  0.1017769E+00
         -2   -1    0    0    0  501 -0.00000000000E+00  0.00000000000E+00  0.15244218323E+03  0.15244218326E+03  0.25500000000E-02 0. -1.
          2   -1    0    0  501    0  0.00000000000E+00 -0.00000000000E+00 -0.38576858859E+03  0.38576858860E+03  0.25500000000E-02 0.  1.
    5000001    1    1    2    0    0 -0.10734328839E+03  0.64560249817E+02 -0.18246206194E+03  0.29763066285E+03  0.19900000000E+03 0.  0.
   -5000001    1    1    2    0    0  0.10734328839E+03 -0.64560249817E+02 -0.50864343415E+02  0.24058010901E+03  0.19900000000E+03 0.  0.
<mgrwt>
<rscale>  0 0.48500477E+03</rscale>
<asrwt>0</asrwt>
<pdfrwt beam="1">  1        2 0.55109798E-01 0.48500477E+03</pdfrwt>
<pdfrwt beam="2">  1       -2 0.21777455E-01 0.48500477E+03</pdfrwt>
<totfact> 0.16462758E+03</totfact>
</mgrwt>
</event>
<event>
 4    1  0.5023236E-005  0.7186043E+03  0.7818608E-02  0.9685935E-01
          2   -1    0    0  501    0  0.00000000000E+00  0.00000000000E+00  0.31380985135E+03  0.31380985136E+03  0.25500000000E-02 0.  1.
         -2   -1    0    0    0  501 -0.00000000000E+00 -0.00000000000E+00 -0.41138941400E+03  0.41138941400E+03  0.25500000000E-02 0. -1.
    5000001    1    1    2    0    0  0.26225183367E+03 -0.59658531684E+02  0.83415871805E+02  0.34481063257E+03  0.19900000000E+03 0.  0.
   -5000001    1    1    2    0    0 -0.26225183367E+03  0.59658531684E+02 -0.18099543445E+03  0.38038863279E+03  0.19900000000E+03 0.  0.
<mgrwt>
<rscale>  0 0.71860434E+03</rscale>
<asrwt>0</asrwt>
<pdfrwt beam="1">  1        2 0.44829979E-01 0.71860434E+03</pdfrwt>
<pdfrwt beam="2">  1       -2 0.58769916E-01 0.71860434E+03</pdfrwt>
<totfact> 0.30955254E+02</totfact>
</mgrwt>
</event>
<event>
 4    1  0.5023236E-005  0.4696691E+03  0.7818608E-02  0.1022014E+00
         -2   -1    0    0    0  501 -0.00000000000E+00  0.00000000000E+00  0.52768921350E+03  0.52768921350E+03  0.25500000000E-02 0. -1.
          2   -1    0    0  501    0  0.00000000000E+00 -0.00000000000E+00 -0.10450710590E+03  0.10450710593E+03  0.25500000000E-02 0.  1.
    5000001    1    1    2    0    0 -0.67286533553E+02  0.59652237805E+02  0.95328150482E+02  0.23827363125E+03  0.19900000000E+03 0.  0.
   -5000001    1    1    2    0    0  0.67286533553E+02 -0.59652237805E+02  0.32785395712E+03  0.39392268819E+03  0.19900000000E+03 0.  0.
<mgrwt>
<rscale>  0 0.46966913E+03</rscale>
<asrwt>0</asrwt>
<pdfrwt beam="1">  1        2 0.14929586E-01 0.46966913E+03</pdfrwt>
<pdfrwt beam="2">  1       -2 0.75384174E-01 0.46966913E+03</pdfrwt>
<totfact> 0.64086953E+02</totfact>
</mgrwt>
</event>
<event>
 4    1  0.5023236E-005  0.4721029E+03  0.7818608E-02  0.1021328E+00
          2   -1    0    0  501    0  0.00000000000E+00  0.00000000000E+00  0.54876545374E+03  0.54876545375E+03  0.25500000000E-02 0.  1.
         -2   -1    0    0    0  501 -0.00000000000E+00 -0.00000000000E+00 -0.10153751547E+03  0.10153751551E+03  0.25500000000E-02 0. -1.
    5000001    1    1    2    0    0  0.70727176740E+02 -0.10263857949E+03  0.25685243838E+03  0.34801032547E+03  0.19900000000E+03 0.  0.
   -5000001    1    1    2    0    0 -0.70727176740E+02  0.10263857949E+03  0.19037549989E+03  0.30229264378E+03  0.19900000000E+03 0.  0.
<mgrwt>
<rscale>  0 0.47210287E+03</rscale>
<asrwt>0</asrwt>
<pdfrwt beam="1">  1        2 0.78395065E-01 0.47210287E+03</pdfrwt>
<pdfrwt beam="2">  1       -2 0.14505359E-01 0.47210287E+03</pdfrwt>
<totfact> 0.22212003E+03</totfact>
</mgrwt>
</event>
<event>
 4    1  0.5023236E-005  0.1022154E+04  0.7818608E-02  0.9284575E-01
         -2   -1    0    0    0  501 -0.00000000000E+00  0.00000000000E+00  0.12466119821E+03  0.12466119824E+03  0.25500000000E-02 0. -1.
          2   -1    0    0  501    0  0.00000000000E+00 -0.00000000000E+00 -0.20952765485E+04  0.20952765485E+04  0.25500000000E-02 0.  1.
    5000001    1    1    2    0    0  0.58165583848E+02  0.42893433879E+03 -0.58348643253E+03  0.75327638957E+03  0.19900000000E+03 0.  0.
   -5000001    1    1    2    0    0 -0.58165583848E+02 -0.42893433879E+03 -0.13871289178E+04  0.14666613572E+04  0.19900000000E+03 0.  0.
<mgrwt>
<rscale>  0 0.10221540E+04</rscale>
<asrwt>0</asrwt>
<pdfrwt beam="1">  1        2 0.29932520E+00 0.10221540E+04</pdfrwt>
<pdfrwt beam="2">  1       -2 0.17808744E-01 0.10221540E+04</pdfrwt>
<totfact> 0.18747685E+02</totfact>
</mgrwt>
</event>
<event>
 4    1  0.5023236E-005  0.6190492E+03  0.7818608E-02  0.9866655E-01
         -2   -1    0    0    0  501 -0.00000000000E+00  0.00000000000E+00  0.72930312808E+02  0.72930312852E+02  0.25500000000E-02 0. -1.
          2   -1    0    0  501    0  0.00000000000E+00 -0.00000000000E+00 -0.13136577503E+04  0.13136577503E+04  0.25500000000E-02 0.  1.
    5000001    1    1    2    0    0  0.18661249723E+03  0.36088871566E+02 -0.30298280909E+03  0.40929966208E+03  0.19900000000E+03 0.  0.
   -5000001    1    1    2    0    0 -0.18661249723E+03 -0.36088871566E+02 -0.93774462837E+03  0.97728840105E+03  0.19900000000E+03 0.  0.
<mgrwt>
<rscale>  0 0.61904918E+03</rscale>
<asrwt>0</asrwt>
<pdfrwt beam="1">  1        2 0.18766538E+00 0.61904918E+03</pdfrwt>
<pdfrwt beam="2">  1       -2 0.10418617E-01 0.61904918E+03</pdfrwt>
<totfact> 0.11963784E+03</totfact>
</mgrwt>
</event>
<event>
 4    1  0.5023236E-005  0.4662319E+03  0.7818608E-02  0.1022989E+00
          2   -1    0    0  501    0  0.00000000000E+00  0.00000000000E+00  0.30426879432E+04  0.30426879432E+04  0.25500000000E-02 0.  1.
         -2   -1    0    0    0  501 -0.00000000000E+00 -0.00000000000E+00 -0.17860211220E+02  0.17860211402E+02  0.25500000000E-02 0. -1.
    5000001    1    1    2    0    0  0.37001964490E+02  0.90347055155E+02  0.10385766573E+04  0.10619671412E+04  0.19900000000E+03 0.  0.
   -5000001    1    1    2    0    0 -0.37001964490E+02 -0.90347055155E+02  0.19862510747E+04  0.19985810135E+04  0.19900000000E+03 0.  0.
<mgrwt>
<rscale>  0 0.46623191E+03</rscale>
<asrwt>0</asrwt>
<pdfrwt beam="1">  1        2 0.43466987E+00 0.46623191E+03</pdfrwt>
<pdfrwt beam="2">  1       -2 0.25514578E-02 0.46623191E+03</pdfrwt>
<totfact> 0.13882443E+03</totfact>
</mgrwt>
</event>
<event>
 4    1  0.5023236E-005  0.6172612E+03  0.7818608E-02  0.9870228E-01
          2   -1    0    0  501    0  0.00000000000E+00  0.00000000000E+00  0.89428848593E+03  0.89428848593E+03  0.25500000000E-02 0.  1.
         -2   -1    0    0    0  501 -0.00000000000E+00 -0.00000000000E+00 -0.10651245360E+03  0.10651245363E+03  0.25500000000E-02 0. -1.
    5000001    1    1    2    0    0 -0.10609730752E+03 -0.19501116919E+03  0.26452580077E+03  0.39857357419E+03  0.19900000000E+03 0.  0.
   -5000001    1    1    2    0    0  0.10609730752E+03  0.19501116919E+03  0.52325023156E+03  0.60222736537E+03  0.19900000000E+03 0.  0.
<mgrwt>
<rscale>  0 0.61726124E+03</rscale>
<asrwt>0</asrwt>
<pdfrwt beam="1">  1        2 0.12775551E+00 0.61726124E+03</pdfrwt>
<pdfrwt beam="2">  1       -2 0.15216063E-01 0.61726124E+03</pdfrwt>
<totfact> 0.11254789E+03</totfact>
</mgrwt>
</event>
<event>
 4    1  0.5023236E-005  0.1626618E+04  0.7818608E-02  0.8804361E-01
          2   -1    0    0  501    0  0.00000000000E+00  0.00000000000E+00  0.12925630596E+04  0.12925630596E+04  0.25500000000E-02 0.  1.
         -2   -1    0    0    0  501 -0.00000000000E+00 -0.00000000000E+00 -0.51175161278E+03  0.51175161279E+03  0.25500000000E-02 0. -1.
    5000001    1    1    2    0    0  0.48539662294E+03  0.62113903029E+03  0.36696276899E+03  0.89201247208E+03  0.19900000000E+03 0.  0.
   -5000001    1    1    2    0    0 -0.48539662294E+03 -0.62113903029E+03  0.41384867779E+03  0.91230220027E+03  0.19900000000E+03 0.  0.
<mgrwt>
<rscale>  0 0.16266176E+04</rscale>
<asrwt>0</asrwt>
<pdfrwt beam="1">  1        2 0.18465187E+00 0.16266176E+04</pdfrwt>
<pdfrwt beam="2">  1       -2 0.73107373E-01 0.16266176E+04</pdfrwt>
<totfact> 0.30719772E+01</totfact>
</mgrwt>
</event>
<event>
 4    1  0.5023236E-005  0.7765419E+03  0.7818608E-02  0.9594606E-01
          2   -1    0    0  501    0  0.00000000000E+00  0.00000000000E+00  0.83420518485E+03  0.83420518485E+03  0.25500000000E-02 0.  1.
         -2   -1    0    0    0  501 -0.00000000000E+00 -0.00000000000E+00 -0.18071614400E+03  0.18071614402E+03  0.25500000000E-02 0. -1.
    5000001    1    1    2    0    0  0.30996759295E+03 -0.11943984416E+03  0.36388561248E+03  0.53137512552E+03  0.19900000000E+03 0.  0.
   -5000001    1    1    2    0    0 -0.30996759295E+03  0.11943984416E+03  0.28960342836E+03  0.48354620335E+03  0.19900000000E+03 0.  0.
<mgrwt>
<rscale>  0 0.77654194E+03</rscale>
<asrwt>0</asrwt>
<pdfrwt beam="1">  1        2 0.11917217E+00 0.77654194E+03</pdfrwt>
<pdfrwt beam="2">  1       -2 0.25816592E-01 0.77654194E+03</pdfrwt>
<totfact> 0.48798832E+02</totfact>
</mgrwt>
</event>
<event>
 4    1  0.5023236E-005  0.4566390E+03  0.7818608E-02  0.1025761E+00
         -2   -1    0    0    0  501 -0.00000000000E+00  0.00000000000E+00  0.32471288144E+02  0.32471288244E+02  0.25500000000E-02 0. -1.
          2   -1    0    0  501    0  0.00000000000E+00 -0.00000000000E+00 -0.16054121161E+04  0.16054121161E+04  0.25500000000E-02 0.  1.
    5000001    1    1    2    0    0 -0.20763290802E+02  0.10874243995E+03 -0.72723166535E+03  0.76205178799E+03  0.19900000000E+03 0.  0.
   -5000001    1    1    2    0    0  0.20763290802E+02 -0.10874243995E+03 -0.84570916260E+03  0.87583161635E+03  0.19900000000E+03 0.  0.
<mgrwt>
<rscale>  0 0.45663902E+03</rscale>
<asrwt>0</asrwt>
<pdfrwt beam="1">  1        2 0.22934454E+00 0.45663902E+03</pdfrwt>
<pdfrwt beam="2">  1       -2 0.46387565E-02 0.45663902E+03</pdfrwt>
<totfact> 0.30281471E+03</totfact>
</mgrwt>
</event>
<event>
 4    1  0.5023236E-005  0.4940690E+03  0.7818608E-02  0.1015339E+00
          2   -1    0    0  501    0  0.00000000000E+00  0.00000000000E+00  0.53856943544E+03  0.53856943545E+03  0.25500000000E-02 0.  1.
         -2   -1    0    0    0  501 -0.00000000000E+00 -0.00000000000E+00 -0.11331137739E+03  0.11331137742E+03  0.25500000000E-02 0. -1.
    5000001    1    1    2    0    0 -0.21509718039E+02  0.14138665359E+03  0.25376827626E+03  0.35277782218E+03  0.19900000000E+03 0.  0.
   -5000001    1    1    2    0    0  0.21509718039E+02 -0.14138665359E+03  0.17148978179E+03  0.29910299069E+03  0.19900000000E+03 0.  0.
<mgrwt>
<rscale>  0 0.49406900E+03</rscale>
<asrwt>0</asrwt>
<pdfrwt beam="1">  1        2 0.76938492E-01 0.49406900E+03</pdfrwt>
<pdfrwt beam="2">  1       -2 0.16187339E-01 0.49406900E+03</pdfrwt>
<totfact> 0.18881680E+03</totfact>
</mgrwt>
</event>
<event>
 4    1  0.5023236E-005  0.6601139E+03  0.7818608E-02  0.9787984E-01
          2   -1    0    0  501    0  0.00000000000E+00  0.00000000000E+00  0.15847238030E+04  0.15847238030E+04  0.25500000000E-02 0.  1.
         -2   -1    0    0    0  501 -0.00000000000E+00 -0.00000000000E+00 -0.68742312119E+02  0.68742312166E+02  0.25500000000E-02 0. -1.
    5000001    1    1    2    0    0 -0.94995171730E+02 -0.55521328488E+02  0.15876860115E+03  0.27733584204E+03  0.19900000000E+03 0.  0.
   -5000001    1    1    2    0    0  0.94995171730E+02  0.55521328488E+02  0.13572128897E+04  0.13761302731E+04  0.19900000000E+03 0.  0.
<mgrwt>
<rscale>  0 0.66011386E+03</rscale>
<asrwt>0</asrwt>
<pdfrwt beam="1">  1        2 0.22638909E+00 0.66011386E+03</pdfrwt>
<pdfrwt beam="2">  1       -2 0.98203315E-02 0.66011386E+03</pdfrwt>
<totfact> 0.94579434E+02</totfact>
</mgrwt>
</event>
<event>
 4    1  0.5023236E-005  0.6435383E+03  0.7818608E-02  0.9818980E-01
          2   -1    0    0  501    0  0.00000000000E+00  0.00000000000E+00  0.32851096700E+04  0.32851096700E+04  0.25500000000E-02 0.  1.
         -2   -1    0    0    0  501 -0.00000000000E+00 -0.00000000000E+00 -0.31516570835E+02  0.31516570938E+02  0.25500000000E-02 0. -1.
    5000001    1    1    2    0    0 -0.16512538233E+03  0.17917917122E+03  0.12786685106E+04  0.13168013242E+04  0.19900000000E+03 0.  0.
   -5000001    1    1    2    0    0  0.16512538233E+03 -0.17917917122E+03  0.19749245886E+04  0.19998249168E+04  0.19900000000E+03 0.  0.
<mgrwt>
<rscale>  0 0.64353832E+03</rscale>
<asrwt>0</asrwt>
<pdfrwt beam="1">  1        2 0.46930086E+00 0.64353832E+03</pdfrwt>
<pdfrwt beam="2">  1       -2 0.45023722E-02 0.64353832E+03</pdfrwt>
<totfact> 0.42050442E+02</totfact>
</mgrwt>
</event>
<event>
 4    1  0.5023236E-005  0.5040106E+03  0.7818608E-02  0.1012737E+00
          2   -1    0    0  501    0  0.00000000000E+00  0.00000000000E+00  0.15473332568E+03  0.15473332570E+03  0.25500000000E-02 0.  1.
         -2   -1    0    0    0  501 -0.00000000000E+00 -0.00000000000E+00 -0.41042651992E+03  0.41042651992E+03  0.25500000000E-02 0. -1.
    5000001    1    1    2    0    0  0.12823721680E+03  0.51352929847E+02 -0.49966908812E+02  0.24734510133E+03  0.19900000000E+03 0.  0.
   -5000001    1    1    2    0    0 -0.12823721680E+03 -0.51352929847E+02 -0.20572628542E+03  0.31781474429E+03  0.19900000000E+03 0.  0.
<mgrwt>
<rscale>  0 0.50401056E+03</rscale>
<asrwt>0</asrwt>
<pdfrwt beam="1">  1        2 0.22104761E-01 0.50401056E+03</pdfrwt>
<pdfrwt beam="2">  1       -2 0.58632359E-01 0.50401056E+03</pdfrwt>
<totfact> 0.69125403E+02</totfact>
</mgrwt>
</event>
<event>
 4    1  0.5023236E-005  0.4708046E+03  0.7818608E-02  0.1021693E+00
         -2   -1    0    0    0  501 -0.00000000000E+00  0.00000000000E+00  0.11770551286E+03  0.11770551288E+03  0.25500000000E-02 0. -1.
          2   -1    0    0  501    0  0.00000000000E+00 -0.00000000000E+00 -0.47078708918E+03  0.47078708918E+03  0.25500000000E-02 0.  1.
    5000001    1    1    2    0    0 -0.69149816232E+02 -0.10501493450E+03 -0.17423519614E+03  0.29286300061E+03  0.19900000000E+03 0.  0.
   -5000001    1    1    2    0    0  0.69149816232E+02  0.10501493450E+03 -0.17884638019E+03  0.29562960146E+03  0.19900000000E+03 0.  0.
<mgrwt>
<rscale>  0 0.47080457E+03</rscale>
<asrwt>0</asrwt>
<pdfrwt beam="1">  1        2 0.67255298E-01 0.47080457E+03</pdfrwt>
<pdfrwt beam="2">  1       -2 0.16815073E-01 0.47080457E+03</pdfrwt>
<totfact> 0.20607136E+03</totfact>
</mgrwt>
</event>
<event>
 4    1  0.5023236E-005  0.5880682E+03  0.7818608E-02  0.9930475E-01
          2   -1    0    0  501    0  0.00000000000E+00  0.00000000000E+00  0.65448231294E+03  0.65448231294E+03  0.25500000000E-02 0.  1.
         -2   -1    0    0    0  501 -0.00000000000E+00 -0.00000000000E+00 -0.13209837577E+03  0.13209837579E+03  0.25500000000E-02 0. -1.
    5000001    1    1    2    0    0 -0.13204176737E+03  0.90157355978E+02  0.66018632519E+02  0.26367183582E+03  0.19900000000E+03 0.  0.
   -5000001    1    1    2    0    0  0.13204176737E+03 -0.90157355978E+02  0.45636530465E+03  0.52290885291E+03  0.19900000000E+03 0.  0.
<mgrwt>
<rscale>  0 0.58806820E+03</rscale>
<asrwt>0</asrwt>
<pdfrwt beam="1">  1        2 0.93497475E-01 0.58806820E+03</pdfrwt>
<pdfrwt beam="2">  1       -2 0.18871196E-01 0.58806820E+03</pdfrwt>
<totfact> 0.11561753E+03</totfact>
</mgrwt>
</event>
<event>
 4    1  0.5023236E-005  0.5364335E+03  0.7818608E-02  0.1004684E+00
         -2   -1    0    0    0  501 -0.00000000000E+00  0.00000000000E+00  0.82712667984E+02  0.82712668023E+02  0.25500000000E-02 0. -1.
          2   -1    0    0  501    0  0.00000000000E+00 -0.00000000000E+00 -0.86976056225E+03  0.86976056225E+03  0.25500000000E-02 0.  1.
    5000001    1    1    2    0    0  0.73807719410E+02 -0.15482154584E+03 -0.29754598414E+03  0.39692808313E+03  0.19900000000E+03 0.  0.
   -5000001    1    1    2    0    0 -0.73807719410E+02  0.15482154584E+03 -0.48950191013E+03  0.55554514715E+03  0.19900000000E+03 0.  0.
<mgrwt>
<rscale>  0 0.53643347E+03</rscale>
<asrwt>0</asrwt>
<pdfrwt beam="1">  1        2 0.12425150E+00 0.53643347E+03</pdfrwt>
<pdfrwt beam="2">  1       -2 0.11816096E-01 0.53643347E+03</pdfrwt>
<totfact> 0.17801285E+03</totfact>
</mgrwt>
</event>
<event>
 4    1  0.5023236E-005  0.4824801E+03  0.7818608E-02  0.1018456E+00
         -2   -1    0    0    0  501 -0.00000000000E+00  0.00000000000E+00  0.69533927352E+02  0.69533927398E+02  0.25500000000E-02 0. -1.
          2   -1    0    0  501    0  0.00000000000E+00 -0.00000000000E+00 -0.83695477767E+03  0.83695477768E+03  0.25500000000E-02 0.  1.
    5000001    1    1    2    0    0  0.84509290979E+02  0.66804615917E+02 -0.54080277261E+03  0.58623656985E+03  0.19900000000E+03 0.  0.
   -5000001    1    1    2    0    0 -0.84509290979E+02 -0.66804615917E+02 -0.22661807771E+03  0.32025213523E+03  0.19900000000E+03 0.  0.
<mgrwt>
<rscale>  0 0.48248006E+03</rscale>
<asrwt>0</asrwt>
<pdfrwt beam="1">  1        2 0.11956496E+00 0.48248006E+03</pdfrwt>
<pdfrwt beam="2">  1       -2 0.99334187E-02 0.48248006E+03</pdfrwt>
<totfact> 0.24814962E+03</totfact>
</mgrwt>
</event>
<event>
 4    1  0.5023236E-005  0.4647372E+03  0.7818608E-02  0.1023416E+00
          2   -1    0    0  501    0  0.00000000000E+00  0.00000000000E+00  0.17813181433E+03  0.17813181434E+03  0.25500000000E-02 0.  1.
         -2   -1    0    0    0  501 -0.00000000000E+00 -0.00000000000E+00 -0.30311917805E+03  0.30311917806E+03  0.25500000000E-02 0. -1.
    5000001    1    1    2    0    0  0.18137767205E+02  0.11215619073E+03 -0.22572828836E+02  0.23025751306E+03  0.19900000000E+03 0.  0.
   -5000001    1    1    2    0    0 -0.18137767205E+02 -0.11215619073E+03 -0.10241453489E+03  0.25099347935E+03  0.19900000000E+03 0.  0.
<mgrwt>
<rscale>  0 0.46473721E+03</rscale>
<asrwt>0</asrwt>
<pdfrwt beam="1">  1        2 0.25447402E-01 0.46473721E+03</pdfrwt>
<pdfrwt beam="2">  1       -2 0.43302740E-01 0.46473721E+03</pdfrwt>
<totfact> 0.10859654E+03</totfact>
</mgrwt>
</event>
<event>
 4    1  0.5023236E-005  0.4842724E+03  0.7818608E-02  0.1017968E+00
         -2   -1    0    0    0  501 -0.00000000000E+00  0.00000000000E+00  0.43727248654E+02  0.43727248728E+02  0.25500000000E-02 0. -1.
          2   -1    0    0  501    0  0.00000000000E+00 -0.00000000000E+00 -0.13408099575E+04  0.13408099575E+04  0.25500000000E-02 0.  1.
    5000001    1    1    2    0    0 -0.23641928685E+02 -0.12180304646E+03 -0.47619271558E+03  0.53080639153E+03  0.19900000000E+03 0.  0.
   -5000001    1    1    2    0    0  0.23641928685E+02  0.12180304646E+03 -0.82088999327E+03  0.85373081471E+03  0.19900000000E+03 0.  0.
<mgrwt>
<rscale>  0 0.48427236E+03</rscale>
<asrwt>0</asrwt>
<pdfrwt beam="1">  1        2 0.19154425E+00 0.48427236E+03</pdfrwt>
<pdfrwt beam="2">  1       -2 0.62467507E-02 0.48427236E+03</pdfrwt>
<totfact> 0.26205774E+03</totfact>
</mgrwt>
</event>
<event>
 4    1  0.5023236E-005  0.6632120E+03  0.7818608E-02  0.9782299E-01
          2   -1    0    0  501    0  0.00000000000E+00  0.00000000000E+00  0.10682955687E+04  0.10682955687E+04  0.25500000000E-02 0.  1.
         -2   -1    0    0    0  501 -0.00000000000E+00 -0.00000000000E+00 -0.10293269113E+03  0.10293269117E+03  0.25500000000E-02 0. -1.
    5000001    1    1    2    0    0 -0.14582107425E+03 -0.10356107608E+03  0.82862179626E+03  0.87074896693E+03  0.19900000000E+03 0.  0.
   -5000001    1    1    2    0    0  0.14582107425E+03  0.10356107608E+03  0.13674108132E+03  0.30047929296E+03  0.19900000000E+03 0.  0.
<mgrwt>
<rscale>  0 0.66321200E+03</rscale>
<asrwt>0</asrwt>
<pdfrwt beam="1">  1        2 0.15261365E+00 0.66321200E+03</pdfrwt>
<pdfrwt beam="2">  1       -2 0.14704671E-01 0.66321200E+03</pdfrwt>
<totfact> 0.92963152E+02</totfact>
</mgrwt>
</event>
<event>
 4    1  0.5023236E-005  0.5977867E+03  0.7818608E-02  0.9910009E-01
         -2   -1    0    0    0  501 -0.00000000000E+00  0.00000000000E+00  0.65750538710E+02  0.65750538760E+02  0.25500000000E-02 0. -1.
          2   -1    0    0  501    0  0.00000000000E+00 -0.00000000000E+00 -0.13587300688E+04  0.13587300688E+04  0.25500000000E-02 0.  1.
    5000001    1    1    2    0    0 -0.20398461806E+03 -0.88959730672E+02 -0.61173859171E+03  0.68069718867E+03  0.19900000000E+03 0.  0.
   -5000001    1    1    2    0    0  0.20398461806E+03  0.88959730672E+02 -0.68124093838E+03  0.74378341889E+03  0.19900000000E+03 0.  0.
<mgrwt>
<rscale>  0 0.59778670E+03</rscale>
<asrwt>0</asrwt>
<pdfrwt beam="1">  1        2 0.19410428E+00 0.59778670E+03</pdfrwt>
<pdfrwt beam="2">  1       -2 0.93929349E-02 0.59778670E+03</pdfrwt>
<totfact> 0.13389896E+03</totfact>
</mgrwt>
</event>
<event>
 4    1  0.5023236E-005  0.9353795E+03  0.7818608E-02  0.9382405E-01
         -2   -1    0    0    0  501 -0.00000000000E+00  0.00000000000E+00  0.72057309558E+03  0.72057309558E+03  0.25500000000E-02 0. -1.
          2   -1    0    0  501    0  0.00000000000E+00 -0.00000000000E+00 -0.30355518486E+03  0.30355518487E+03  0.25500000000E-02 0.  1.
    5000001    1    1    2    0    0 -0.21204403120E+03  0.27675171722E+03 -0.54213227998E+02  0.40508549498E+03  0.19900000000E+03 0.  0.
   -5000001    1    1    2    0    0  0.21204403120E+03 -0.27675171722E+03  0.47123113872E+03  0.61904278548E+03  0.19900000000E+03 0.  0.
<mgrwt>
<rscale>  0 0.93537949E+03</rscale>
<asrwt>0</asrwt>
<pdfrwt beam="1">  1        2 0.43365027E-01 0.93537949E+03</pdfrwt>
<pdfrwt beam="2">  1       -2 0.10293901E+00 0.93537949E+03</pdfrwt>
<totfact> 0.90914008E+01</totfact>
</mgrwt>
</event>
<event>
 4    1  0.5023236E-005  0.6507085E+03  0.7818608E-02  0.9805451E-01
          2   -1    0    0  501    0  0.00000000000E+00  0.00000000000E+00  0.85014655489E+02  0.85014655527E+02  0.25500000000E-02 0.  1.
         -2   -1    0    0    0  501 -0.00000000000E+00 -0.00000000000E+00 -0.12451429106E+04  0.12451429106E+04  0.25500000000E-02 0. -1.
    5000001    1    1    2    0    0 -0.17863898234E+03 -0.85234886875E+02 -0.24369117630E+03  0.37170318987E+03  0.19900000000E+03 0.  0.
   -5000001    1    1    2    0    0  0.17863898234E+03  0.85234886875E+02 -0.91643707882E+03  0.95845437627E+03  0.19900000000E+03 0.  0.
<mgrwt>
<rscale>  0 0.65070852E+03</rscale>
<asrwt>0</asrwt>
<pdfrwt beam="1">  1        2 0.12144952E-01 0.65070852E+03</pdfrwt>
<pdfrwt beam="2">  1       -2 0.17787755E+00 0.65070852E+03</pdfrwt>
<totfact> 0.99432418E+01</totfact>
</mgrwt>
</event>
<event>
 4    1  0.5023236E-005  0.5704960E+03  0.7818608E-02  0.9968582E-01
         -2   -1    0    0    0  501 -0.00000000000E+00  0.00000000000E+00  0.28430910632E+02  0.28430910746E+02  0.25500000000E-02 0. -1.
          2   -1    0    0  501    0  0.00000000000E+00 -0.00000000000E+00 -0.28618998275E+04  0.28618998275E+04  0.25500000000E-02 0.  1.
    5000001    1    1    2    0    0  0.48777419332E+02  0.17621613899E+03 -0.18792465642E+04  0.18985784191E+04  0.19900000000E+03 0.  0.
   -5000001    1    1    2    0    0 -0.48777419332E+02 -0.17621613899E+03 -0.95422235271E+03  0.99175231922E+03  0.19900000000E+03 0.  0.
<mgrwt>
<rscale>  0 0.57049599E+03</rscale>
<asrwt>0</asrwt>
<pdfrwt beam="1">  1        2 0.40884265E+00 0.57049599E+03</pdfrwt>
<pdfrwt beam="2">  1       -2 0.40615605E-02 0.57049599E+03</pdfrwt>
<totfact> 0.84911846E+02</totfact>
</mgrwt>
</event>
<event>
 4    1  0.5023236E-005  0.5350504E+03  0.7818608E-02  0.1005015E+00
          2   -1    0    0  501    0  0.00000000000E+00  0.00000000000E+00  0.23601017495E+03  0.23601017497E+03  0.25500000000E-02 0.  1.
         -2   -1    0    0    0  501 -0.00000000000E+00 -0.00000000000E+00 -0.30324849586E+03  0.30324849587E+03  0.25500000000E-02 0. -1.
    5000001    1    1    2    0    0  0.18195813214E+02  0.16133081573E+03 -0.10910826967E+03  0.27904181449E+03  0.19900000000E+03 0.  0.
   -5000001    1    1    2    0    0 -0.18195813214E+02 -0.16133081573E+03  0.41869948765E+02  0.26021685635E+03  0.19900000000E+03 0.  0.
<mgrwt>
<rscale>  0 0.53505039E+03</rscale>
<asrwt>0</asrwt>
<pdfrwt beam="1">  1        2 0.33715739E-01 0.53505039E+03</pdfrwt>
<pdfrwt beam="2">  1       -2 0.43321214E-01 0.53505039E+03</pdfrwt>
<totfact> 0.79156728E+02</totfact>
</mgrwt>
</event>
<event>
 4    1  0.5023236E-005  0.7348858E+03  0.7818608E-02  0.9659365E-01
          2   -1    0    0  501    0  0.00000000000E+00  0.00000000000E+00  0.88224358978E+02  0.88224359015E+02  0.25500000000E-02 0.  1.
         -2   -1    0    0    0  501 -0.00000000000E+00 -0.00000000000E+00 -0.15303514051E+04  0.15303514051E+04  0.25500000000E-02 0. -1.
    5000001    1    1    2    0    0 -0.26708419324E+03 -0.12064713668E+03 -0.93600150962E+03  0.10007944464E+04  0.19900000000E+03 0.  0.
   -5000001    1    1    2    0    0  0.26708419324E+03  0.12064713668E+03 -0.50612553651E+03  0.61778131776E+03  0.19900000000E+03 0.  0.
<mgrwt>
<rscale>  0 0.73488576E+03</rscale>
<asrwt>0</asrwt>
<pdfrwt beam="1">  1        2 0.12603481E-01 0.73488576E+03</pdfrwt>
<pdfrwt beam="2">  1       -2 0.21862161E+00 0.73488576E+03</pdfrwt>
<totfact> 0.51207072E+01</totfact>
</mgrwt>
</event>
<event>
 4    1  0.5023236E-005  0.7312926E+03  0.7818608E-02  0.9665165E-01
          2   -1    0    0  501    0  0.00000000000E+00  0.00000000000E+00  0.40568300317E+03  0.40568300318E+03  0.25500000000E-02 0.  1.
         -2   -1    0    0    0  501 -0.00000000000E+00 -0.00000000000E+00 -0.32956083415E+03  0.32956083416E+03  0.25500000000E-02 0. -1.
    5000001    1    1    2    0    0  0.23624553903E+03 -0.18113770559E+03  0.11244328460E+03  0.37532294807E+03  0.19900000000E+03 0.  0.
   -5000001    1    1    2    0    0 -0.23624553903E+03  0.18113770559E+03 -0.36321115574E+02  0.35992088927E+03  0.19900000000E+03 0.  0.
<mgrwt>
<rscale>  0 0.73129263E+03</rscale>
<asrwt>0</asrwt>
<pdfrwt beam="1">  1        2 0.57954715E-01 0.73129263E+03</pdfrwt>
<pdfrwt beam="2">  1       -2 0.47080119E-01 0.73129263E+03</pdfrwt>
<totfact> 0.36669651E+02</totfact>
</mgrwt>
</event>
<event>
 4    1  0.5023236E-005  0.5565149E+03  0.7818608E-02  0.9999971E-01
         -2   -1    0    0    0  501 -0.00000000000E+00  0.00000000000E+00  0.15124296973E+03  0.15124296975E+03  0.25500000000E-02 0. -1.
          2   -1    0    0  501    0  0.00000000000E+00 -0.00000000000E+00 -0.51193920322E+03  0.51193920323E+03  0.25500000000E-02 0.  1.
    5000001    1    1    2    0    0  0.14291869759E+03 -0.12524975997E+03 -0.13102752677E+03  0.30476625349E+03  0.19900000000E+03 0.  0.
   -5000001    1    1    2    0    0 -0.14291869759E+03  0.12524975997E+03 -0.22966870673E+03  0.35841591949E+03  0.19900000000E+03 0.  0.
<mgrwt>
<rscale>  0 0.55651489E+03</rscale>
<asrwt>0</asrwt>
<pdfrwt beam="1">  1        2 0.73134171E-01 0.55651489E+03</pdfrwt>
<pdfrwt beam="2">  1       -2 0.21606139E-01 0.55651489E+03</pdfrwt>
<totfact> 0.12168741E+03</totfact>
</mgrwt>
</event>
<event>
 4    1  0.5023236E-005  0.7757489E+03  0.7818608E-02  0.9595798E-01
          2   -1    0    0  501    0  0.00000000000E+00  0.00000000000E+00  0.12972432274E+04  0.12972432274E+04  0.25500000000E-02 0.  1.
         -2   -1    0    0    0  501 -0.00000000000E+00 -0.00000000000E+00 -0.11597407535E+03  0.11597407538E+03  0.25500000000E-02 0. -1.
    5000001    1    1    2    0    0 -0.31865354878E+02 -0.29221957015E+03  0.87542132532E+03  0.94465399742E+03  0.19900000000E+03 0.  0.
   -5000001    1    1    2    0    0  0.31865354878E+02  0.29221957015E+03  0.30584782675E+03  0.46856330538E+03  0.19900000000E+03 0.  0.
<mgrwt>
<rscale>  0 0.77574889E+03</rscale>
<asrwt>0</asrwt>
<pdfrwt beam="1">  1        2 0.18532046E+00 0.77574889E+03</pdfrwt>
<pdfrwt beam="2">  1       -2 0.16567725E-01 0.77574889E+03</pdfrwt>
<totfact> 0.56031890E+02</totfact>
</mgrwt>
</event>
<event>
 4    1  0.5023236E-005  0.8213853E+03  0.7818608E-02  0.9529568E-01
          2   -1    0    0  501    0  0.00000000000E+00  0.00000000000E+00  0.25291862780E+04  0.25291862780E+04  0.25500000000E-02 0.  1.
         -2   -1    0    0    0  501 -0.00000000000E+00 -0.00000000000E+00 -0.66688828745E+02  0.66688828794E+02  0.25500000000E-02 0. -1.
    5000001    1    1    2    0    0  0.25493129029E+03 -0.50965800858E+02  0.20148655572E+04  0.20412916718E+04  0.19900000000E+03 0.  0.
   -5000001    1    1    2    0    0 -0.25493129029E+03  0.50965800858E+02  0.44763189206E+03  0.55458343504E+03  0.19900000000E+03 0.  0.
<mgrwt>
<rscale>  0 0.82138534E+03</rscale>
<asrwt>0</asrwt>
<pdfrwt beam="1">  1        2 0.36131231E+00 0.82138534E+03</pdfrwt>
<pdfrwt beam="2">  1       -2 0.95269760E-02 0.82138534E+03</pdfrwt>
<totfact> 0.32452996E+02</totfact>
</mgrwt>
</event>
<event>
 4    1  0.5023236E-005  0.8308109E+03  0.7818608E-02  0.9516460E-01
         -2   -1    0    0    0  501 -0.00000000000E+00  0.00000000000E+00  0.21217376141E+03  0.21217376142E+03  0.25500000000E-02 0. -1.
          2   -1    0    0  501    0  0.00000000000E+00 -0.00000000000E+00 -0.81330368519E+03  0.81330368519E+03  0.25500000000E-02 0.  1.
    5000001    1    1    2    0    0 -0.31310924508E+03 -0.28733260918E+02 -0.72642846022E+02  0.37913188038E+03  0.19900000000E+03 0.  0.
   -5000001    1    1    2    0    0  0.31310924508E+03  0.28733260918E+02 -0.52848707776E+03  0.64634556624E+03  0.19900000000E+03 0.  0.
<mgrwt>
<rscale>  0 0.83081093E+03</rscale>
<asrwt>0</asrwt>
<pdfrwt beam="1">  1        2 0.11618624E+00 0.83081093E+03</pdfrwt>
<pdfrwt beam="2">  1       -2 0.30310538E-01 0.83081093E+03</pdfrwt>
<totfact> 0.37492163E+02</totfact>
</mgrwt>
</event>
<event>
 4    1  0.5023236E-005  0.6484715E+03  0.7818608E-02  0.9809652E-01
         -2   -1    0    0    0  501 -0.00000000000E+00  0.00000000000E+00  0.91641432643E+02  0.91641432678E+02  0.25500000000E-02 0. -1.
          2   -1    0    0  501    0  0.00000000000E+00 -0.00000000000E+00 -0.11471757351E+04  0.11471757352E+04  0.25500000000E-02 0.  1.
    5000001    1    1    2    0    0  0.13635166626E+03 -0.13921062591E+03 -0.84489031335E+03  0.88961340865E+03  0.19900000000E+03 0.  0.
   -5000001    1    1    2    0    0 -0.13635166626E+03  0.13921062591E+03 -0.21064398916E+03  0.34920375918E+03  0.19900000000E+03 0.  0.
<mgrwt>
<rscale>  0 0.64847152E+03</rscale>
<asrwt>0</asrwt>
<pdfrwt beam="1">  1        2 0.16388224E+00 0.64847152E+03</pdfrwt>
<pdfrwt beam="2">  1       -2 0.13091634E-01 0.64847152E+03</pdfrwt>
<totfact> 0.10163158E+03</totfact>
</mgrwt>
</event>
<event>
 4    1  0.5023236E-005  0.5240014E+03  0.7818608E-02  0.1007697E+00
         -2   -1    0    0    0  501 -0.00000000000E+00  0.00000000000E+00  0.33316146427E+02  0.33316146524E+02  0.25500000000E-02 0. -1.
          2   -1    0    0  501    0  0.00000000000E+00 -0.00000000000E+00 -0.20603933271E+04  0.20603933271E+04  0.25500000000E-02 0.  1.
    5000001    1    1    2    0    0 -0.14536492153E+03  0.88658819211E+02 -0.98472044539E+03  0.10189537292E+04  0.19900000000E+03 0.  0.
   -5000001    1    1    2    0    0  0.14536492153E+03 -0.88658819211E+02 -0.10423567353E+04  0.10747557445E+04  0.19900000000E+03 0.  0.
<mgrwt>
<rscale>  0 0.52400140E+03</rscale>
<asrwt>0</asrwt>
<pdfrwt beam="1">  1        2 0.29434182E+00 0.52400140E+03</pdfrwt>
<pdfrwt beam="2">  1       -2 0.47594508E-02 0.52400140E+03</pdfrwt>
<totfact> 0.17171049E+03</totfact>
</mgrwt>
</event>
<event>
 4    1  0.5023236E-005  0.7398383E+03  0.7818608E-02  0.9651429E-01
         -2   -1    0    0    0  501 -0.00000000000E+00  0.00000000000E+00  0.98081272228E+03  0.98081272228E+03  0.25500000000E-02 0. -1.
          2   -1    0    0  501    0  0.00000000000E+00 -0.00000000000E+00 -0.13951713491E+03  0.13951713494E+03  0.25500000000E-02 0.  1.
    5000001    1    1    2    0    0 -0.48174240113E+02  0.27999918793E+03  0.22602245960E+03  0.41401383418E+03  0.19900000000E+03 0.  0.
   -5000001    1    1    2    0    0  0.48174240113E+02 -0.27999918793E+03  0.61527312776E+03  0.70631602304E+03  0.19900000000E+03 0.  0.
<mgrwt>
<rscale>  0 0.73983831E+03</rscale>
<asrwt>0</asrwt>
<pdfrwt beam="1">  1        2 0.19931019E-01 0.73983831E+03</pdfrwt>
<pdfrwt beam="2">  1       -2 0.14011610E+00 0.73983831E+03</pdfrwt>
<totfact> 0.10335475E+02</totfact>
</mgrwt>
</event>
<event>
 4    1  0.5023236E-005  0.5076417E+03  0.7818608E-02  0.1011803E+00
          2   -1    0    0  501    0  0.00000000000E+00  0.00000000000E+00  0.10856896130E+03  0.10856896133E+03  0.25500000000E-02 0.  1.
         -2   -1    0    0    0  501 -0.00000000000E+00 -0.00000000000E+00 -0.59340177655E+03  0.59340177655E+03  0.25500000000E-02 0. -1.
    5000001    1    1    2    0    0  0.11783834610E+02  0.14790037689E+03 -0.31572652592E+03  0.40161874883E+03  0.19900000000E+03 0.  0.
   -5000001    1    1    2    0    0 -0.11783834610E+02 -0.14790037689E+03 -0.16910628933E+03  0.30035198906E+03  0.19900000000E+03 0.  0.
<mgrwt>
<rscale>  0 0.50764166E+03</rscale>
<asrwt>0</asrwt>
<pdfrwt beam="1">  1        2 0.15509852E-01 0.50764166E+03</pdfrwt>
<pdfrwt beam="2">  1       -2 0.84771681E-01 0.50764166E+03</pdfrwt>
<totfact> 0.47108822E+02</totfact>
</mgrwt>
</event>
<event>
 4    1  0.5023236E-005  0.9079640E+03  0.7818608E-02  0.9415680E-01
         -2   -1    0    0    0  501 -0.00000000000E+00  0.00000000000E+00  0.81525854566E+02  0.81525854606E+02  0.25500000000E-02 0. -1.
          2   -1    0    0  501    0  0.00000000000E+00 -0.00000000000E+00 -0.25280279881E+04  0.25280279881E+04  0.25500000000E-02 0.  1.
    5000001    1    1    2    0    0  0.26104568230E+03 -0.31022043287E+03 -0.13554920188E+04  0.14287551149E+04  0.19900000000E+03 0.  0.
   -5000001    1    1    2    0    0 -0.26104568230E+03  0.31022043287E+03 -0.10910101147E+04  0.11807987278E+04  0.19900000000E+03 0.  0.
<mgrwt>
<rscale>  0 0.90796397E+03</rscale>
<asrwt>0</asrwt>
<pdfrwt beam="1">  1        2 0.36114681E+00 0.90796397E+03</pdfrwt>
<pdfrwt beam="2">  1       -2 0.11646552E-01 0.90796397E+03</pdfrwt>
<totfact> 0.23219695E+02</totfact>
</mgrwt>
</event>
<event>
 4    1  0.5023236E-005  0.5850512E+03  0.7818608E-02  0.9936915E-01
         -2   -1    0    0    0  501 -0.00000000000E+00  0.00000000000E+00  0.12117227954E+03  0.12117227957E+03  0.25500000000E-02 0. -1.
          2   -1    0    0  501    0  0.00000000000E+00 -0.00000000000E+00 -0.70619485238E+03  0.70619485239E+03  0.25500000000E-02 0.  1.
    5000001    1    1    2    0    0  0.93239031857E+02 -0.16177178632E+03 -0.14347392299E+03  0.30830081818E+03  0.19900000000E+03 0.  0.
   -5000001    1    1    2    0    0 -0.93239031857E+02  0.16177178632E+03 -0.44154864985E+03  0.51906631378E+03  0.19900000000E+03 0.  0.
<mgrwt>
<rscale>  0 0.58505125E+03</rscale>
<asrwt>0</asrwt>
<pdfrwt beam="1">  1        2 0.10088498E+00 0.58505125E+03</pdfrwt>
<pdfrwt beam="2">  1       -2 0.17310326E-01 0.58505125E+03</pdfrwt>
<totfact> 0.12229482E+03</totfact>
</mgrwt>
</event>
<event>
 4    1  0.5023236E-005  0.7200031E+03  0.7818608E-02  0.9683623E-01
          2   -1    0    0  501    0  0.00000000000E+00  0.00000000000E+00  0.15390203969E+04  0.15390203969E+04  0.25500000000E-02 0.  1.
         -2   -1    0    0    0  501 -0.00000000000E+00 -0.00000000000E+00 -0.84210137768E+02  0.84210137807E+02  0.25500000000E-02 0. -1.
    5000001    1    1    2    0    0  0.27765600547E+03  0.11337471785E+03  0.74388528946E+03  0.82638550803E+03  0.19900000000E+03 0.  0.
   -5000001    1    1    2    0    0 -0.27765600547E+03 -0.11337471785E+03  0.71092496963E+03  0.79684502663E+03  0.19900000000E+03 0.  0.
<mgrwt>
<rscale>  0 0.72000311E+03</rscale>
<asrwt>0</asrwt>
<pdfrwt beam="1">  1        2 0.21986005E+00 0.72000311E+03</pdfrwt>
<pdfrwt beam="2">  1       -2 0.12030020E-01 0.72000311E+03</pdfrwt>
<totfact> 0.71457121E+02</totfact>
</mgrwt>
</event>
<event>
 4    1  0.5023236E-005  0.5302201E+03  0.7818608E-02  0.1006179E+00
         -2   -1    0    0    0  501 -0.00000000000E+00  0.00000000000E+00  0.21820764650E+02  0.21820764799E+02  0.25500000000E-02 0. -1.
          2   -1    0    0  501    0  0.00000000000E+00 -0.00000000000E+00 -0.32209387642E+04  0.32209387642E+04  0.25500000000E-02 0.  1.
    5000001    1    1    2    0    0 -0.72204171928E+02 -0.14750648406E+03 -0.12270052898E+04  0.12538399365E+04  0.19900000000E+03 0.  0.
   -5000001    1    1    2    0    0  0.72204171928E+02  0.14750648406E+03 -0.19721127097E+04  0.19889195924E+04  0.19900000000E+03 0.  0.
<mgrwt>
<rscale>  0 0.53022013E+03</rscale>
<asrwt>0</asrwt>
<pdfrwt beam="1">  1        2 0.46013381E+00 0.53022013E+03</pdfrwt>
<pdfrwt beam="2">  1       -2 0.31172542E-02 0.53022013E+03</pdfrwt>
<totfact> 0.81266098E+02</totfact>
</mgrwt>
</event>
<event>
 4    1  0.5023236E-005  0.7619212E+03  0.7818608E-02  0.9616831E-01
         -2   -1    0    0    0  501 -0.00000000000E+00  0.00000000000E+00  0.78929001104E+02  0.78929001145E+02  0.25500000000E-02 0. -1.
          2   -1    0    0  501    0  0.00000000000E+00 -0.00000000000E+00 -0.18387533304E+04  0.18387533304E+04  0.25500000000E-02 0.  1.
    5000001    1    1    2    0    0  0.13747239076E+03 -0.67886311211E+02 -0.16007437460E+04  0.16203359991E+04  0.19900000000E+03 0.  0.
   -5000001    1    1    2    0    0 -0.13747239076E+03  0.67886311211E+02 -0.15908058331E+03  0.29734633251E+03  0.19900000000E+03 0.  0.
<mgrwt>
<rscale>  0 0.76192116E+03</rscale>
<asrwt>0</asrwt>
<pdfrwt beam="1">  1        2 0.26267902E+00 0.76192116E+03</pdfrwt>
<pdfrwt beam="2">  1       -2 0.11275573E-01 0.76192116E+03</pdfrwt>
<totfact> 0.55659056E+02</totfact>
</mgrwt>
</event>
<event>
 4    1  0.5023236E-005  0.6991742E+03  0.7818608E-02  0.9718645E-01
          2   -1    0    0  501    0  0.00000000000E+00  0.00000000000E+00  0.10202027651E+04  0.10202027651E+04  0.25500000000E-02 0.  1.
         -2   -1    0    0    0  501 -0.00000000000E+00 -0.00000000000E+00 -0.11979103987E+03  0.11979103990E+03  0.25500000000E-02 0. -1.
    5000001    1    1    2    0    0  0.23751353857E+03 -0.26009674170E+02  0.71068061521E+03  0.77573005677E+03  0.19900000000E+03 0.  0.
   -5000001    1    1    2    0    0 -0.23751353857E+03  0.26009674170E+02  0.18973111001E+03  0.36426374821E+03  0.19900000000E+03 0.  0.
<mgrwt>
<rscale>  0 0.69917423E+03</rscale>
<asrwt>0</asrwt>
<pdfrwt beam="1">  1        2 0.14574325E+00 0.69917423E+03</pdfrwt>
<pdfrwt beam="2">  1       -2 0.17113006E-01 0.69917423E+03</pdfrwt>
<totfact> 0.76697960E+02</totfact>
</mgrwt>
</event>
<event>
 4    1  0.5023236E-005  0.7797521E+03  0.7818608E-02  0.9589797E-01
         -2   -1    0    0    0  501 -0.00000000000E+00  0.00000000000E+00  0.34391557705E+03  0.34391557706E+03  0.25500000000E-02 0. -1.
          2   -1    0    0  501    0  0.00000000000E+00 -0.00000000000E+00 -0.44197858448E+03  0.44197858449E+03  0.25500000000E-02 0.  1.
    5000001    1    1    2    0    0 -0.62892079360E+02 -0.32085836587E+03  0.25693011075E+02  0.38362303817E+03  0.19900000000E+03 0.  0.
   -5000001    1    1    2    0    0  0.62892079360E+02  0.32085836587E+03 -0.12375601850E+03  0.40227112339E+03  0.19900000000E+03 0.  0.
<mgrwt>
<rscale>  0 0.77975206E+03</rscale>
<asrwt>0</asrwt>
<pdfrwt beam="1">  1        2 0.63139797E-01 0.77975206E+03</pdfrwt>
<pdfrwt beam="2">  1       -2 0.49130797E-01 0.77975206E+03</pdfrwt>
<totfact> 0.30513641E+02</totfact>
</mgrwt>
</event>
<event>
 4    1  0.5023236E-005  0.4573345E+03  0.7818608E-02  0.1025557E+00
         -2   -1    0    0    0  501 -0.00000000000E+00  0.00000000000E+00  0.15671479770E+03  0.15671479772E+03  0.25500000000E-02 0. -1.
          2   -1    0    0  501    0  0.00000000000E+00 -0.00000000000E+00 -0.33365527905E+03  0.33365527906E+03  0.25500000000E-02 0.  1.
    5000001    1    1    2    0    0  0.43622858563E+02 -0.10384738634E+03 -0.89217831846E+02  0.24545479209E+03  0.19900000000E+03 0.  0.
   -5000001    1    1    2    0    0 -0.43622858563E+02  0.10384738634E+03 -0.87722649509E+02  0.24491528469E+03  0.19900000000E+03 0.  0.
<mgrwt>
<rscale>  0 0.45733454E+03</rscale>
<asrwt>0</asrwt>
<pdfrwt beam="1">  1        2 0.47665040E-01 0.45733454E+03</pdfrwt>
<pdfrwt beam="2">  1       -2 0.22387828E-01 0.45733454E+03</pdfrwt>
<totfact> 0.18384970E+03</totfact>
</mgrwt>
</event>
<event>
 4    1  0.5023236E-005  0.6801745E+03  0.7818608E-02  0.9751750E-01
          2   -1    0    0  501    0  0.00000000000E+00  0.00000000000E+00  0.11235825012E+04  0.11235825012E+04  0.25500000000E-02 0.  1.
         -2   -1    0    0    0  501 -0.00000000000E+00 -0.00000000000E+00 -0.10293799917E+03  0.10293799920E+03  0.25500000000E-02 0. -1.
    5000001    1    1    2    0    0  0.20205522944E+03  0.82343287869E+02  0.20615823623E+03  0.36015128927E+03  0.19900000000E+03 0.  0.
   -5000001    1    1    2    0    0 -0.20205522944E+03 -0.82343287869E+02  0.81448626582E+03  0.86636921114E+03  0.19900000000E+03 0.  0.
<mgrwt>
<rscale>  0 0.68017449E+03</rscale>
<asrwt>0</asrwt>
<pdfrwt beam="1">  1        2 0.16051180E+00 0.68017449E+03</pdfrwt>
<pdfrwt beam="2">  1       -2 0.14705428E-01 0.68017449E+03</pdfrwt>
<totfact> 0.86235822E+02</totfact>
</mgrwt>
</event>
<event>
 4    1  0.5023236E-005  0.4656079E+03  0.7818608E-02  0.1023167E+00
          2   -1    0    0  501    0  0.00000000000E+00  0.00000000000E+00  0.75454867126E+03  0.75454867127E+03  0.25500000000E-02 0.  1.
         -2   -1    0    0    0  501 -0.00000000000E+00 -0.00000000000E+00 -0.71827951219E+02  0.71827951264E+02  0.25500000000E-02 0. -1.
    5000001    1    1    2    0    0  0.40872150396E+01  0.65542939883E+02  0.52134724657E+03  0.56188658447E+03  0.19900000000E+03 0.  0.
   -5000001    1    1    2    0    0 -0.40872150396E+01 -0.65542939883E+02  0.16137347348E+03  0.26449003807E+03  0.19900000000E+03 0.  0.
<mgrwt>
<rscale>  0 0.46560793E+03</rscale>
<asrwt>0</asrwt>
<pdfrwt beam="1">  1        2 0.10779267E+00 0.46560793E+03</pdfrwt>
<pdfrwt beam="2">  1       -2 0.10261136E-01 0.46560793E+03</pdfrwt>
<totfact> 0.26839852E+03</totfact>
</mgrwt>
</event>
<event>
 4    1  0.5023236E-005  0.5882802E+03  0.7818608E-02  0.9930024E-01
         -2   -1    0    0    0  501 -0.00000000000E+00  0.00000000000E+00  0.28140916526E+04  0.28140916526E+04  0.25500000000E-02 0. -1.
          2   -1    0    0  501    0  0.00000000000E+00 -0.00000000000E+00 -0.30744699594E+02  0.30744699699E+02  0.25500000000E-02 0.  1.
    5000001    1    1    2    0    0 -0.18041695530E+03 -0.97638362192E+02  0.10554556319E+04  0.10934674748E+04  0.19900000000E+03 0.  0.
   -5000001    1    1    2    0    0  0.18041695530E+03  0.97638362192E+02  0.17278913212E+04  0.17513688776E+04  0.19900000000E+03 0.  0.
<mgrwt>
<rscale>  0 0.58828021E+03</rscale>
<asrwt>0</asrwt>
<pdfrwt beam="1">  1        2 0.43921014E-02 0.58828021E+03</pdfrwt>
<pdfrwt beam="2">  1       -2 0.40201296E+00 0.58828021E+03</pdfrwt>
<totfact> 0.15465544E+01</totfact>
</mgrwt>
</event>
<event>
 4    1  0.5023236E-005  0.5039444E+03  0.7818608E-02  0.1012754E+00
         -2   -1    0    0    0  501 -0.00000000000E+00  0.00000000000E+00  0.46265790117E+03  0.46265790118E+03  0.25500000000E-02 0. -1.
          2   -1    0    0  501    0  0.00000000000E+00 -0.00000000000E+00 -0.13722877693E+03  0.13722877695E+03  0.25500000000E-02 0.  1.
    5000001    1    1    2    0    0 -0.14706148292E+03  0.96510874840E+01  0.10727856696E+03  0.26987018023E+03  0.19900000000E+03 0.  0.
   -5000001    1    1    2    0    0  0.14706148292E+03 -0.96510874840E+01  0.21815055728E+03  0.33001649790E+03  0.19900000000E+03 0.  0.
<mgrwt>
<rscale>  0 0.50394435E+03</rscale>
<asrwt>0</asrwt>
<pdfrwt beam="1">  1        2 0.19604111E-01 0.50394435E+03</pdfrwt>
<pdfrwt beam="2">  1       -2 0.66093987E-01 0.50394435E+03</pdfrwt>
<totfact> 0.61695420E+02</totfact>
</mgrwt>
</event>
<event>
 4    1  0.5023236E-005  0.8250063E+03  0.7818608E-02  0.9524510E-01
          2   -1    0    0  501    0  0.00000000000E+00  0.00000000000E+00  0.29974518701E+03  0.29974518702E+03  0.25500000000E-02 0.  1.
         -2   -1    0    0    0  501 -0.00000000000E+00 -0.00000000000E+00 -0.56767840136E+03  0.56767840137E+03  0.25500000000E-02 0. -1.
    5000001    1    1    2    0    0  0.98223722553E+02 -0.20689494663E+03  0.15987400960E+03  0.34294914719E+03  0.19900000000E+03 0.  0.
   -5000001    1    1    2    0    0 -0.98223722553E+02  0.20689494663E+03 -0.42780722395E+03  0.52447444120E+03  0.19900000000E+03 0.  0.
<mgrwt>
<rscale>  0 0.82500635E+03</rscale>
<asrwt>0</asrwt>
<pdfrwt beam="1">  1        2 0.42820741E-01 0.82500635E+03</pdfrwt>
<pdfrwt beam="2">  1       -2 0.81096914E-01 0.82500635E+03</pdfrwt>
<totfact> 0.16106991E+02</totfact>
</mgrwt>
</event>
<event>
 4    1  0.5023236E-005  0.5831433E+03  0.7818608E-02  0.9941009E-01
          2   -1    0    0  501    0  0.00000000000E+00  0.00000000000E+00  0.37270125737E+03  0.37270125738E+03  0.25500000000E-02 0.  1.
         -2   -1    0    0    0  501 -0.00000000000E+00 -0.00000000000E+00 -0.22810236634E+03  0.22810236635E+03  0.25500000000E-02 0. -1.
    5000001    1    1    2    0    0  0.17337991415E+03 -0.11659960838E+03  0.29113734965E+02  0.29000805656E+03  0.19900000000E+03 0.  0.
   -5000001    1    1    2    0    0 -0.17337991415E+03  0.11659960838E+03  0.11548515607E+03  0.31079556718E+03  0.19900000000E+03 0.  0.
<mgrwt>
<rscale>  0 0.58314334E+03</rscale>
<asrwt>0</asrwt>
<pdfrwt beam="1">  1        2 0.53243037E-01 0.58314334E+03</pdfrwt>
<pdfrwt beam="2">  1       -2 0.32586052E-01 0.58314334E+03</pdfrwt>
<totfact> 0.82464818E+02</totfact>
</mgrwt>
</event>
<event>
 4    1  0.5023236E-005  0.4445894E+03  0.7818608E-02  0.1029348E+00
         -2   -1    0    0    0  501 -0.00000000000E+00  0.00000000000E+00  0.37564739815E+02  0.37564739902E+02  0.25500000000E-02 0. -1.
          2   -1    0    0  501    0  0.00000000000E+00 -0.00000000000E+00 -0.13154607184E+04  0.13154607184E+04  0.25500000000E-02 0.  1.
    5000001    1    1    2    0    0  0.57329048095E+02 -0.69672028260E+02 -0.51446457998E+03  0.55894151334E+03  0.19900000000E+03 0.  0.
   -5000001    1    1    2    0    0 -0.57329048095E+02  0.69672028260E+02 -0.76343139857E+03  0.79408394493E+03  0.19900000000E+03 0.  0.
<mgrwt>
<rscale>  0 0.44458943E+03</rscale>
<asrwt>0</asrwt>
<pdfrwt beam="1">  1        2 0.18792293E+00 0.44458943E+03</pdfrwt>
<pdfrwt beam="2">  1       -2 0.53663922E-02 0.44458943E+03</pdfrwt>
<totfact> 0.34237425E+03</totfact>
</mgrwt>
</event>
<event>
 4    1  0.5023236E-005  0.4813734E+03  0.7818608E-02  0.1018758E+00
         -2   -1    0    0    0  501 -0.00000000000E+00  0.00000000000E+00  0.32973096759E+03  0.32973096760E+03  0.25500000000E-02 0. -1.
          2   -1    0    0  501    0  0.00000000000E+00 -0.00000000000E+00 -0.17568897995E+03  0.17568897996E+03  0.25500000000E-02 0.  1.
    5000001    1    1    2    0    0  0.11150510712E+03  0.51676413934E+02  0.13664928942E+03  0.27088349704E+03  0.19900000000E+03 0.  0.
   -5000001    1    1    2    0    0 -0.11150510712E+03 -0.51676413934E+02  0.17392698219E+02  0.23453645052E+03  0.19900000000E+03 0.  0.
<mgrwt>
<rscale>  0 0.48137344E+03</rscale>
<asrwt>0</asrwt>
<pdfrwt beam="1">  1        2 0.25098426E-01 0.48137344E+03</pdfrwt>
<pdfrwt beam="2">  1       -2 0.47104424E-01 0.48137344E+03</pdfrwt>
<totfact> 0.93414994E+02</totfact>
</mgrwt>
</event>
<event>
 4    1  0.5023236E-005  0.1085210E+04  0.7818608E-02  0.9219728E-01
          2   -1    0    0  501    0  0.00000000000E+00  0.00000000000E+00  0.76224967552E+03  0.76224967552E+03  0.25500000000E-02 0.  1.
         -2   -1    0    0    0  501 -0.00000000000E+00 -0.00000000000E+00 -0.38625174921E+03  0.38625174922E+03  0.25500000000E-02 0. -1.
    5000001    1    1    2    0    0 -0.26307420084E+03 -0.41411777880E+03  0.62251372313E+02  0.53308329858E+03  0.19900000000E+03 0.  0.
   -5000001    1    1    2    0    0  0.26307420084E+03  0.41411777880E+03  0.31374655400E+03  0.61541812616E+03  0.19900000000E+03 0.  0.
<mgrwt>
<rscale>  0 0.10852102E+04</rscale>
<asrwt>0</asrwt>
<pdfrwt beam="1">  1        2 0.10889281E+00 0.10852102E+04</pdfrwt>
<pdfrwt beam="2">  1       -2 0.55178821E-01 0.10852102E+04</pdfrwt>
<totfact> 0.12414284E+02</totfact>
</mgrwt>
</event>
<event>
 4    1  0.5023236E-005  0.4379014E+03  0.7818608E-02  0.1031393E+00
         -2   -1    0    0    0  501 -0.00000000000E+00  0.00000000000E+00  0.12935678351E+04  0.12935678351E+04  0.25500000000E-02 0. -1.
          2   -1    0    0  501    0  0.00000000000E+00 -0.00000000000E+00 -0.37059841728E+02  0.37059841816E+02  0.25500000000E-02 0.  1.
    5000001    1    1    2    0    0 -0.82613488571E+02 -0.81914079859E+01  0.51269224539E+03  0.55618919995E+03  0.19900000000E+03 0.  0.
   -5000001    1    1    2    0    0  0.82613488571E+02  0.81914079859E+01  0.74381574794E+03  0.77443847693E+03  0.19900000000E+03 0.  0.
<mgrwt>
<rscale>  0 0.43790145E+03</rscale>
<asrwt>0</asrwt>
<pdfrwt beam="1">  1        2 0.52942621E-02 0.43790145E+03</pdfrwt>
<pdfrwt beam="2">  1       -2 0.18479544E+00 0.43790145E+03</pdfrwt>
<totfact> 0.26345676E+02</totfact>
</mgrwt>
</event>
<event>
 4    1  0.5023236E-005  0.4626669E+03  0.7818608E-02  0.1024011E+00
          2   -1    0    0  501    0  0.00000000000E+00  0.00000000000E+00  0.26662628935E+04  0.26662628935E+04  0.25500000000E-02 0.  1.
         -2   -1    0    0    0  501 -0.00000000000E+00 -0.00000000000E+00 -0.20071229717E+02  0.20071229879E+02  0.25500000000E-02 0. -1.
    5000001    1    1    2    0    0  0.70593702062E+02 -0.71200938976E+02  0.16838811135E+04  0.16985610524E+04  0.19900000000E+03 0.  0.
   -5000001    1    1    2    0    0 -0.70593702062E+02  0.71200938976E+02  0.96231055036E+03  0.98777307101E+03  0.19900000000E+03 0.  0.
<mgrwt>
<rscale>  0 0.46266694E+03</rscale>
<asrwt>0</asrwt>
<pdfrwt beam="1">  1        2 0.38089461E+00 0.46266694E+03</pdfrwt>
<pdfrwt beam="2">  1       -2 0.28673192E-02 0.46266694E+03</pdfrwt>
<totfact> 0.18428070E+03</totfact>
</mgrwt>
</event>
<event>
 4    1  0.5023236E-005  0.4718151E+03  0.7818608E-02  0.1021409E+00
         -2   -1    0    0    0  501 -0.00000000000E+00  0.00000000000E+00  0.25219299969E+02  0.25219300098E+02  0.25500000000E-02 0. -1.
          2   -1    0    0  501    0  0.00000000000E+00 -0.00000000000E+00 -0.22067372941E+04  0.22067372941E+04  0.25500000000E-02 0.  1.
    5000001    1    1    2    0    0 -0.58262614957E+01  0.12655263176E+03 -0.10972036789E+04  0.11222773395E+04  0.19900000000E+03 0.  0.
   -5000001    1    1    2    0    0  0.58262614957E+01 -0.12655263176E+03 -0.10843143152E+04  0.11096792546E+04  0.19900000000E+03 0.  0.
<mgrwt>
<rscale>  0 0.47181509E+03</rscale>
<asrwt>0</asrwt>
<pdfrwt beam="1">  1        2 0.31524806E+00 0.47181509E+03</pdfrwt>
<pdfrwt beam="2">  1       -2 0.36027586E-02 0.47181509E+03</pdfrwt>
<totfact> 0.22283862E+03</totfact>
</mgrwt>
</event>
<event>
 4    1  0.5023236E-005  0.8366859E+03  0.7818608E-02  0.9508383E-01
          2   -1    0    0  501    0  0.00000000000E+00  0.00000000000E+00  0.40947165934E+03  0.40947165935E+03  0.25500000000E-02 0.  1.
         -2   -1    0    0    0  501 -0.00000000000E+00 -0.00000000000E+00 -0.42740647324E+03  0.42740647325E+03  0.25500000000E-02 0. -1.
    5000001    1    1    2    0    0 -0.25762251034E+03 -0.26266095748E+03 -0.19158655307E+01  0.41828794742E+03  0.19900000000E+03 0.  0.
   -5000001    1    1    2    0    0  0.25762251034E+03  0.26266095748E+03 -0.16018948366E+02  0.41859018518E+03  0.19900000000E+03 0.  0.
<mgrwt>
<rscale>  0 0.83668593E+03</rscale>
<asrwt>0</asrwt>
<pdfrwt beam="1">  1        2 0.58495951E-01 0.83668593E+03</pdfrwt>
<pdfrwt beam="2">  1       -2 0.61058068E-01 0.83668593E+03</pdfrwt>
<totfact> 0.21148064E+02</totfact>
</mgrwt>
</event>
<event>
 4    1  0.5023236E-005  0.1087016E+04  0.7818608E-02  0.9217940E-01
          2   -1    0    0  501    0  0.00000000000E+00  0.00000000000E+00  0.45260592868E+03  0.45260592869E+03  0.25500000000E-02 0. -1.
         -2   -1    0    0    0  501 -0.00000000000E+00 -0.00000000000E+00 -0.65266721382E+03  0.65266721383E+03  0.25500000000E-02 0.  1.
    5000001    1    1    2    0    0  0.35713103884E+03 -0.35560032060E+03 -0.14324006604E+03  0.56045774456E+03  0.19900000000E+03 0.  0.
   -5000001    1    1    2    0    0 -0.35713103884E+03  0.35560032060E+03 -0.56821219101E+02  0.54481539796E+03  0.19900000000E+03 0.  0.
<mgrwt>
<rscale>  0 0.10870162E+04</rscale>
<asrwt>0</asrwt>
<pdfrwt beam="1">  1        2 0.64657990E-01 0.10870162E+04</pdfrwt>
<pdfrwt beam="2">  1       -2 0.93238174E-01 0.10870162E+04</pdfrwt>
<totfact> 0.72853337E+01</totfact>
</mgrwt>
</event>
<event>
 4    1  0.5023236E-005  0.4920878E+03  0.7818608E-02  0.1015865E+00
          2   -1    0    0  501    0  0.00000000000E+00  0.00000000000E+00  0.20835635274E+04  0.20835635274E+04  0.25500000000E-02 0.  1.
         -2   -1    0    0    0  501 -0.00000000000E+00 -0.00000000000E+00 -0.29054839040E+02  0.29054839152E+02  0.25500000000E-02 0. -1.
    5000001    1    1    2    0    0  0.27912779134E+02  0.11394961528E+03  0.13908576306E+04  0.14099111982E+04  0.19900000000E+03 0.  0.
   -5000001    1    1    2    0    0 -0.27912779134E+02 -0.11394961528E+03  0.66365105771E+03  0.70270716835E+03  0.19900000000E+03 0.  0.
<mgrwt>
<rscale>  0 0.49208781E+03</rscale>
<asrwt>0</asrwt>
<pdfrwt beam="1">  1        2 0.29765199E+00 0.49208781E+03</pdfrwt>
<pdfrwt beam="2">  1       -2 0.41506905E-02 0.49208781E+03</pdfrwt>
<totfact> 0.20664704E+03</totfact>
</mgrwt>
</event>
<event>
 4    1  0.5023236E-005  0.4999698E+03  0.7818608E-02  0.1013787E+00
         -2   -1    0    0    0  501 -0.00000000000E+00  0.00000000000E+00  0.52814675207E+02  0.52814675269E+02  0.25500000000E-02 0. -1.
          2   -1    0    0  501    0  0.00000000000E+00 -0.00000000000E+00 -0.11832402683E+04  0.11832402683E+04  0.25500000000E-02 0.  1.
    5000001    1    1    2    0    0 -0.63807358487E+02  0.11825837082E+03 -0.39330579908E+03  0.46081110323E+03  0.19900000000E+03 0.  0.
   -5000001    1    1    2    0    0  0.63807358487E+02 -0.11825837082E+03 -0.73711979399E+03  0.77524384033E+03  0.19900000000E+03 0.  0.
<mgrwt>
<rscale>  0 0.49996980E+03</rscale>
<asrwt>0</asrwt>
<pdfrwt beam="1">  1        2 0.16903431E+00 0.49996980E+03</pdfrwt>
<pdfrwt beam="2">  1       -2 0.75449543E-02 0.49996980E+03</pdfrwt>
<totfact> 0.23742038E+03</totfact>
</mgrwt>
</event>
<event>
 4    1  0.5023236E-005  0.5784228E+03  0.7818608E-02  0.9951212E-01
          2   -1    0    0  501    0  0.00000000000E+00  0.00000000000E+00  0.69868840843E+02  0.69868840890E+02  0.25500000000E-02 0.  1.
         -2   -1    0    0    0  501 -0.00000000000E+00 -0.00000000000E+00 -0.11971463497E+04  0.11971463497E+04  0.25500000000E-02 0. -1.
    5000001    1    1    2    0    0 -0.36347688815E+02 -0.83870147894E+02 -0.97743893268E+03  0.10016702168E+04  0.19900000000E+03 0.  0.
   -5000001    1    1    2    0    0  0.36347688815E+02  0.83870147894E+02 -0.14983857620E+03  0.26534497378E+03  0.19900000000E+03 0.  0.
<mgrwt>
<rscale>  0 0.57842278E+03</rscale>
<asrwt>0</asrwt>
<pdfrwt beam="1">  1        2 0.99812637E-02 0.57842278E+03</pdfrwt>
<pdfrwt beam="2">  1       -2 0.17102089E+00 0.57842278E+03</pdfrwt>
<totfact> 0.14245580E+02</totfact>
</mgrwt>
</event>
<event>
 4    1  0.5023236E-005  0.1051406E+04  0.7818608E-02  0.9253893E-01
         -2   -1    0    0    0  501 -0.00000000000E+00  0.00000000000E+00  0.11009988588E+03  0.11009988591E+03  0.25500000000E-02 0. -1.
          2   -1    0    0  501    0  0.00000000000E+00 -0.00000000000E+00 -0.25101181701E+04  0.25101181701E+04  0.25500000000E-02 0.  1.
    5000001    1    1    2    0    0  0.47533933370E+03  0.72606044702E+02 -0.10144582572E+04  0.11401516020E+04  0.19900000000E+03 0.  0.
   -5000001    1    1    2    0    0 -0.47533933370E+03 -0.72606044702E+02 -0.13855600270E+04  0.14800664540E+04  0.19900000000E+03 0.  0.
<mgrwt>
<rscale>  0 0.10514062E+04</rscale>
<asrwt>0</asrwt>
<pdfrwt beam="1">  1        2 0.35858828E+00 0.10514062E+04</pdfrwt>
<pdfrwt beam="2">  1       -2 0.15728557E-01 0.10514062E+04</pdfrwt>
<totfact> 0.14157422E+02</totfact>
</mgrwt>
</event>
<event>
 4    1  0.5023236E-005  0.7969378E+03  0.7818608E-02  0.9564460E-01
         -2   -1    0    0    0  501 -0.00000000000E+00  0.00000000000E+00  0.17041756213E+03  0.17041756215E+03  0.25500000000E-02 0. -1.
          2   -1    0    0  501    0  0.00000000000E+00 -0.00000000000E+00 -0.93169668564E+03  0.93169668564E+03  0.25500000000E-02 0.  1.
    5000001    1    1    2    0    0 -0.31726154925E+03 -0.99321030392E+02 -0.50931150995E+03  0.63993653739E+03  0.19900000000E+03 0.  0.
   -5000001    1    1    2    0    0  0.31726154925E+03  0.99321030392E+02 -0.25196761356E+03  0.46217771040E+03  0.19900000000E+03 0.  0.
<mgrwt>
<rscale>  0 0.79693783E+03</rscale>
<asrwt>0</asrwt>
<pdfrwt beam="1">  1        2 0.13309952E+00 0.79693783E+03</pdfrwt>
<pdfrwt beam="2">  1       -2 0.24345367E-01 0.79693783E+03</pdfrwt>
<totfact> 0.46753663E+02</totfact>
</mgrwt>
</event>
<event>
 4    1  0.5023236E-005  0.5378148E+03  0.7818608E-02  0.1004354E+00
         -2   -1    0    0    0  501 -0.00000000000E+00  0.00000000000E+00  0.22125172870E+02  0.22125173017E+02  0.25500000000E-02 0. -1.
          2   -1    0    0  501    0  0.00000000000E+00 -0.00000000000E+00 -0.32682773737E+04  0.32682773737E+04  0.25500000000E-02 0.  1.
    5000001    1    1    2    0    0 -0.77248591386E+02  0.14936178692E+03 -0.20304656386E+04  0.20471121117E+04  0.19900000000E+03 0.  0.
   -5000001    1    1    2    0    0  0.77248591386E+02 -0.14936178692E+03 -0.12156865622E+04  0.12432904350E+04  0.19900000000E+03 0.  0.
<mgrwt>
<rscale>  0 0.53781485E+03</rscale>
<asrwt>0</asrwt>
<pdfrwt beam="1">  1        2 0.46689646E+00 0.53781485E+03</pdfrwt>
<pdfrwt beam="2">  1       -2 0.31607411E-02 0.53781485E+03</pdfrwt>
<totfact> 0.74770436E+02</totfact>
</mgrwt>
</event>
<event>
 4    1  0.5023236E-005  0.9339726E+03  0.7818608E-02  0.9384083E-01
         -2   -1    0    0    0  501 -0.00000000000E+00  0.00000000000E+00  0.25496093799E+03  0.25496093800E+03  0.25500000000E-02 0. -1.
          2   -1    0    0  501    0  0.00000000000E+00 -0.00000000000E+00 -0.85533188122E+03  0.85533188122E+03  0.25500000000E-02 0.  1.
    5000001    1    1    2    0    0 -0.35174119893E+03 -0.21143662625E+03 -0.41934836793E+03  0.61958161015E+03  0.19900000000E+03 0.  0.
   -5000001    1    1    2    0    0  0.35174119893E+03  0.21143662625E+03 -0.18102257530E+03  0.49071120907E+03  0.19900000000E+03 0.  0.
<mgrwt>
<rscale>  0 0.93397263E+03</rscale>
<asrwt>0</asrwt>
<pdfrwt beam="1">  1        2 0.12219027E+00 0.93397263E+03</pdfrwt>
<pdfrwt beam="2">  1       -2 0.36422992E-01 0.93397263E+03</pdfrwt>
<totfact> 0.24689864E+02</totfact>
</mgrwt>
</event>
<event>
 4    1  0.5023236E-005  0.5005361E+03  0.7818608E-02  0.1013639E+00
         -2   -1    0    0    0  501 -0.00000000000E+00  0.00000000000E+00  0.48317699904E+02  0.48317699971E+02  0.25500000000E-02 0. -1.
          2   -1    0    0  501    0  0.00000000000E+00 -0.00000000000E+00 -0.12962970851E+04  0.12962970851E+04  0.25500000000E-02 0.  1.
    5000001    1    1    2    0    0 -0.29971878873E+02  0.12939936792E+03 -0.42675632813E+03  0.48924888711E+03  0.19900000000E+03 0.  0.
   -5000001    1    1    2    0    0  0.29971878873E+02 -0.12939936792E+03 -0.82122305707E+03  0.85536589797E+03  0.19900000000E+03 0.  0.
<mgrwt>
<rscale>  0 0.50053609E+03</rscale>
<asrwt>0</asrwt>
<pdfrwt beam="1">  1        2 0.18518528E+00 0.50053609E+03</pdfrwt>
<pdfrwt beam="2">  1       -2 0.69025294E-02 0.50053609E+03</pdfrwt>
<totfact> 0.23675230E+03</totfact>
</mgrwt>
</event>
<event>
 4    1  0.5023236E-005  0.7296621E+03  0.7818608E-02  0.9667809E-01
          2   -1    0    0  501    0  0.00000000000E+00  0.00000000000E+00  0.48176027622E+03  0.48176027623E+03  0.25500000000E-02 0.  1.
         -2   -1    0    0    0  501 -0.00000000000E+00 -0.00000000000E+00 -0.27628203875E+03  0.27628203876E+03  0.25500000000E-02 0. -1.
    5000001    1    1    2    0    0 -0.27440567867E+03  0.11418997913E+03  0.28091184082E+02  0.35878676459E+03  0.19900000000E+03 0.  0.
   -5000001    1    1    2    0    0  0.27440567867E+03 -0.11418997913E+03  0.17738705339E+03  0.39925555041E+03  0.19900000000E+03 0.  0.
<mgrwt>
<rscale>  0 0.72966214E+03</rscale>
<asrwt>0</asrwt>
<pdfrwt beam="1">  1        2 0.68822896E-01 0.72966214E+03</pdfrwt>
<pdfrwt beam="2">  1       -2 0.39468863E-01 0.72966214E+03</pdfrwt>
<totfact> 0.42800150E+02</totfact>
</mgrwt>
</event>
<event>
 4    1  0.5023236E-005  0.8959165E+03  0.7818608E-02  0.9430700E-01
         -2   -1    0    0    0  501 -0.00000000000E+00  0.00000000000E+00  0.40344295907E+03  0.40344295908E+03  0.25500000000E-02 0. -1.
          2   -1    0    0  501    0  0.00000000000E+00 -0.00000000000E+00 -0.49738531459E+03  0.49738531460E+03  0.25500000000E-02 0.  1.
    5000001    1    1    2    0    0 -0.11975936811E+03  0.36830562688E+03  0.58840076415E+02  0.43937967140E+03  0.19900000000E+03 0.  0.
   -5000001    1    1    2    0    0  0.11975936811E+03 -0.36830562688E+03 -0.15278243194E+03  0.46144860229E+03  0.19900000000E+03 0.  0.
<mgrwt>
<rscale>  0 0.89591652E+03</rscale>
<asrwt>0</asrwt>
<pdfrwt beam="1">  1        2 0.71055045E-01 0.89591652E+03</pdfrwt>
<pdfrwt beam="2">  1       -2 0.57634709E-01 0.89591652E+03</pdfrwt>
<totfact> 0.19111546E+02</totfact>
</mgrwt>
</event>
<event>
 4    1  0.5023236E-005  0.6880278E+03  0.7818608E-02  0.9737928E-01
          2   -1    0    0  501    0  0.00000000000E+00  0.00000000000E+00  0.72339984854E+03  0.72339984854E+03  0.25500000000E-02 0.  1.
         -2   -1    0    0    0  501 -0.00000000000E+00 -0.00000000000E+00 -0.16359633876E+03  0.16359633878E+03  0.25500000000E-02 0. -1.
    5000001    1    1    2    0    0  0.56223988414E+01 -0.23172311903E+03  0.75992740591E+02  0.31480646735E+03  0.19900000000E+03 0.  0.
   -5000001    1    1    2    0    0 -0.56223988414E+01  0.23172311903E+03  0.48381076919E+03  0.57218971997E+03  0.19900000000E+03 0.  0.
<mgrwt>
<rscale>  0 0.68802781E+03</rscale>
<asrwt>0</asrwt>
<pdfrwt beam="1">  1        2 0.10334284E+00 0.68802781E+03</pdfrwt>
<pdfrwt beam="2">  1       -2 0.23370905E-01 0.68802781E+03</pdfrwt>
<totfact> 0.70162827E+02</totfact>
</mgrwt>
</event>
<event>
 4    1  0.5023236E-005  0.6394463E+03  0.7818608E-02  0.9826786E-01
          2   -1    0    0  501    0  0.00000000000E+00  0.00000000000E+00  0.76139057275E+03  0.76139057276E+03  0.25500000000E-02 0.  1.
         -2   -1    0    0    0  501 -0.00000000000E+00 -0.00000000000E+00 -0.13425815227E+03  0.13425815229E+03  0.25500000000E-02 0. -1.
    5000001    1    1    2    0    0  0.18907047452E+03 -0.50003055070E+02  0.94892527545E+02  0.29470924932E+03  0.19900000000E+03 0.  0.
   -5000001    1    1    2    0    0 -0.18907047452E+03  0.50003055070E+02  0.53223989294E+03  0.60093947573E+03  0.19900000000E+03 0.  0.
<mgrwt>
<rscale>  0 0.63944630E+03</rscale>
<asrwt>0</asrwt>
<pdfrwt beam="1">  1        2 0.10877008E+00 0.63944630E+03</pdfrwt>
<pdfrwt beam="2">  1       -2 0.19179736E-01 0.63944630E+03</pdfrwt>
<totfact> 0.93268505E+02</totfact>
</mgrwt>
</event>
<event>
 4    1  0.5023236E-005  0.6096260E+03  0.7818608E-02  0.9885634E-01
          2   -1    0    0  501    0  0.00000000000E+00  0.00000000000E+00  0.89770123260E+03  0.89770123260E+03  0.25500000000E-02 0.  1.
         -2   -1    0    0    0  501 -0.00000000000E+00 -0.00000000000E+00 -0.10349875414E+03  0.10349875417E+03  0.25500000000E-02 0. -1.
    5000001    1    1    2    0    0  0.16763100273E+03  0.15467426584E+03  0.33821370023E+03  0.45388741844E+03  0.19900000000E+03 0.  0.
   -5000001    1    1    2    0    0 -0.16763100273E+03 -0.15467426584E+03  0.45598877823E+03  0.54731256834E+03  0.19900000000E+03 0.  0.
<mgrwt>
<rscale>  0 0.60962598E+03</rscale>
<asrwt>0</asrwt>
<pdfrwt beam="1">  1        2 0.12824303E+00 0.60962598E+03</pdfrwt>
<pdfrwt beam="2">  1       -2 0.14785536E-01 0.60962598E+03</pdfrwt>
<totfact> 0.11754099E+03</totfact>
</mgrwt>
</event>
<event>
 4    1  0.5023236E-005  0.6569037E+03  0.7818608E-02  0.9793910E-01
         -2   -1    0    0    0  501 -0.00000000000E+00  0.00000000000E+00  0.55207756315E+02  0.55207756374E+02  0.25500000000E-02 0. -1.
          2   -1    0    0  501    0  0.00000000000E+00 -0.00000000000E+00 -0.19540845024E+04  0.19540845024E+04  0.25500000000E-02 0.  1.
    5000001    1    1    2    0    0 -0.26984192278E+02  0.25262397867E+03 -0.76256513368E+03  0.82804203054E+03  0.19900000000E+03 0.  0.
   -5000001    1    1    2    0    0  0.26984192278E+02 -0.25262397867E+03 -0.11363116124E+04  0.11812502282E+04  0.19900000000E+03 0.  0.
<mgrwt>
<rscale>  0 0.65690371E+03</rscale>
<asrwt>0</asrwt>
<pdfrwt beam="1">  1        2 0.27915489E+00 0.65690371E+03</pdfrwt>
<pdfrwt beam="2">  1       -2 0.78868236E-02 0.65690371E+03</pdfrwt>
<totfact> 0.87333187E+02</totfact>
</mgrwt>
</event>
<event>
 4    1  0.5023236E-005  0.7511020E+03  0.7818608E-02  0.9633623E-01
         -2   -1    0    0    0  501 -0.00000000000E+00  0.00000000000E+00  0.16134925186E+03  0.16134925188E+03  0.25500000000E-02 0. -1.
          2   -1    0    0  501    0  0.00000000000E+00 -0.00000000000E+00 -0.87411977673E+03  0.87411977674E+03  0.25500000000E-02 0.  1.
    5000001    1    1    2    0    0 -0.15190317494E+03  0.13789539968E+03 -0.20538872305E+02  0.28655289404E+03  0.19900000000E+03 0.  0.
   -5000001    1    1    2    0    0  0.15190317494E+03 -0.13789539968E+03 -0.69223165257E+03  0.74891613458E+03  0.19900000000E+03 0.  0.
<mgrwt>
<rscale>  0 0.75110205E+03</rscale>
<asrwt>0</asrwt>
<pdfrwt beam="1">  1        2 0.12487425E+00 0.75110205E+03</pdfrwt>
<pdfrwt beam="2">  1       -2 0.23049894E-01 0.75110205E+03</pdfrwt>
<totfact> 0.56294554E+02</totfact>
</mgrwt>
</event>
<event>
 4    1  0.5023236E-005  0.9196184E+03  0.7818608E-02  0.9401384E-01
          2   -1    0    0  501    0  0.00000000000E+00  0.00000000000E+00  0.17702351460E+04  0.17702351460E+04  0.25500000000E-02 0.  1.
         -2   -1    0    0    0  501 -0.00000000000E+00 -0.00000000000E+00 -0.11943300897E+03  0.11943300900E+03  0.25500000000E-02 0. -1.
    5000001    1    1    2    0    0  0.38731148511E+03 -0.39811594396E+02  0.11176535619E+04  0.12001440055E+04  0.19900000000E+03 0.  0.
   -5000001    1    1    2    0    0 -0.38731148511E+03  0.39811594396E+02  0.53314857511E+03  0.68952414946E+03  0.19900000000E+03 0.  0.
<mgrwt>
<rscale>  0 0.91961842E+03</rscale>
<asrwt>0</asrwt>
<pdfrwt beam="1">  1        2 0.25289073E+00 0.91961842E+03</pdfrwt>
<pdfrwt beam="2">  1       -2 0.17061859E-01 0.91961842E+03</pdfrwt>
<totfact> 0.29788250E+02</totfact>
</mgrwt>
</event>
<event>
 4    1  0.5023236E-005  0.7125670E+03  0.7818608E-02  0.9695979E-01
         -2   -1    0    0    0  501 -0.00000000000E+00  0.00000000000E+00  0.83566028708E+02  0.83566028747E+02  0.25500000000E-02 0.  1.
          2   -1    0    0  501    0  0.00000000000E+00 -0.00000000000E+00 -0.15190133936E+04  0.15190133936E+04  0.25500000000E-02 0. -1.
    5000001    1    1    2    0    0  0.13132092910E+02 -0.20145856301E+03 -0.12031111453E+04  0.12360564034E+04  0.19900000000E+03 0.  0.
   -5000001    1    1    2    0    0 -0.13132092910E+02  0.20145856301E+03 -0.23233621958E+03  0.36652301893E+03  0.19900000000E+03 0.  0.
<mgrwt>
<rscale>  0 0.71256696E+03</rscale>
<asrwt>0</asrwt>
<pdfrwt beam="1">  1        2 0.21700190E+00 0.71256696E+03</pdfrwt>
<pdfrwt beam="2">  1       -2 0.11938005E-01 0.71256696E+03</pdfrwt>
<totfact> 0.74157094E+02</totfact>
</mgrwt>
</event>
<event>
 4    1  0.5023236E-005  0.4337017E+03  0.7818608E-02  0.1032697E+00
         -2   -1    0    0    0  501 -0.00000000000E+00  0.00000000000E+00  0.38314616743E+02  0.38314616828E+02  0.25500000000E-02 0. -1.
          2   -1    0    0  501    0  0.00000000000E+00 -0.00000000000E+00 -0.12273196328E+04  0.12273196328E+04  0.25500000000E-02 0.  1.
    5000001    1    1    2    0    0  0.47930802621E+02 -0.71556049799E+02 -0.60143982301E+03  0.63933441234E+03  0.19900000000E+03 0.  0.
   -5000001    1    1    2    0    0 -0.47930802621E+02  0.71556049799E+02 -0.58756519300E+03  0.62629983724E+03  0.19900000000E+03 0.  0.
<mgrwt>
<rscale>  0 0.43370166E+03</rscale>
<asrwt>0</asrwt>
<pdfrwt beam="1">  1        2 0.17533135E+00 0.43370166E+03</pdfrwt>
<pdfrwt beam="2">  1       -2 0.54735175E-02 0.43370166E+03</pdfrwt>
<totfact> 0.37064242E+03</totfact>
</mgrwt>
</event>
<event>
 4    1  0.5023236E-005  0.4330064E+03  0.7818608E-02  0.1032914E+00
          2   -1    0    0  501    0  0.00000000000E+00  0.00000000000E+00  0.16540586024E+04  0.16540586024E+04  0.25500000000E-02 0.  1.
         -2   -1    0    0    0  501 -0.00000000000E+00 -0.00000000000E+00 -0.28338559260E+02  0.28338559375E+02  0.25500000000E-02 0. -1.
    5000001    1    1    2    0    0 -0.83690612261E+02  0.31312283301E+01  0.87535494097E+03  0.90158815201E+03  0.19900000000E+03 0.  0.
   -5000001    1    1    2    0    0  0.83690612261E+02 -0.31312283301E+01  0.75036510215E+03  0.78080900974E+03  0.19900000000E+03 0.  0.
<mgrwt>
<rscale>  0 0.43300641E+03</rscale>
<asrwt>0</asrwt>
<pdfrwt beam="1">  1        2 0.23629410E+00 0.43300641E+03</pdfrwt>
<pdfrwt beam="2">  1       -2 0.40483653E-02 0.43300641E+03</pdfrwt>
<totfact> 0.35248325E+03</totfact>
</mgrwt>
</event>
<event>
 4    1  0.5023236E-005  0.5911724E+03  0.7818608E-02  0.9923892E-01
          2   -1    0    0  501    0  0.00000000000E+00  0.00000000000E+00  0.37762785996E+02  0.37762786082E+02  0.25500000000E-02 0.  1.
         -2   -1    0    0    0  501 -0.00000000000E+00 -0.00000000000E+00 -0.23136854097E+04  0.23136854097E+04  0.25500000000E-02 0. -1.
    5000001    1    1    2    0    0 -0.42370161425E+02  0.60580995581E+02 -0.19560807062E+04  0.19675665216E+04  0.19900000000E+03 0.  0.
   -5000001    1    1    2    0    0  0.42370161425E+02 -0.60580995581E+02 -0.31984191746E+03  0.38388167417E+03  0.19900000000E+03 0.  0.
<mgrwt>
<rscale>  0 0.59117242E+03</rscale>
<asrwt>0</asrwt>
<pdfrwt beam="1">  1        2 0.53946852E-02 0.59117242E+03</pdfrwt>
<pdfrwt beam="2">  1       -2 0.33052640E+00 0.59117242E+03</pdfrwt>
<totfact> 0.32846943E+01</totfact>
</mgrwt>
</event>
<event>
 4    1  0.5023236E-005  0.5801955E+03  0.7818608E-02  0.9947368E-01
          2   -1    0    0  501    0  0.00000000000E+00  0.00000000000E+00  0.71141886461E+03  0.71141886461E+03  0.25500000000E-02 0. -1.
         -2   -1    0    0    0  501 -0.00000000000E+00 -0.00000000000E+00 -0.11829418544E+03  0.11829418547E+03  0.25500000000E-02 0.  1.
    5000001    1    1    2    0    0 -0.52818552282E+02 -0.19793867673E+03  0.22383725302E+03  0.36286861954E+03  0.19900000000E+03 0.  0.
   -5000001    1    1    2    0    0  0.52818552282E+02  0.19793867673E+03  0.36928742615E+03  0.46684443054E+03  0.19900000000E+03 0.  0.
<mgrwt>
<rscale>  0 0.58019554E+03</rscale>
<asrwt>0</asrwt>
<pdfrwt beam="1">  1        2 0.10163127E+00 0.58019554E+03</pdfrwt>
<pdfrwt beam="2">  1       -2 0.16899169E-01 0.58019554E+03</pdfrwt>
<totfact> 0.12627667E+03</totfact>
</mgrwt>
</event>
<event>
 4    1  0.5023236E-005  0.9712189E+03  0.7818608E-02  0.9340687E-01
         -2   -1    0    0    0  501 -0.00000000000E+00  0.00000000000E+00  0.61055164001E+02  0.61055164055E+02  0.25500000000E-02 0. -1.
          2   -1    0    0  501    0  0.00000000000E+00 -0.00000000000E+00 -0.38623521521E+04  0.38623521521E+04  0.25500000000E-02 0.  1.
    5000001    1    1    2    0    0 -0.33190898622E+03 -0.29046826652E+03 -0.20662334843E+04  0.21221350571E+04  0.19900000000E+03 0.  0.
   -5000001    1    1    2    0    0  0.33190898622E+03  0.29046826652E+03 -0.17350635038E+04  0.18012722591E+04  0.19900000000E+03 0.  0.
<mgrwt>
<rscale>  0 0.97121891E+03</rscale>
<asrwt>0</asrwt>
<pdfrwt beam="1">  1        2 0.55176444E+00 0.97121891E+03</pdfrwt>
<pdfrwt beam="2">  1       -2 0.87221687E-02 0.97121891E+03</pdfrwt>
<totfact> 0.63440975E+01</totfact>
</mgrwt>
</event>
<event>
 4    1  0.5023236E-005  0.8301661E+03  0.7818608E-02  0.9517351E-01
         -2   -1    0    0    0  501 -0.00000000000E+00  0.00000000000E+00  0.19454043009E+03  0.19454043011E+03  0.25500000000E-02 0. -1.
          2   -1    0    0  501    0  0.00000000000E+00 -0.00000000000E+00 -0.88564589648E+03  0.88564589649E+03  0.25500000000E-02 0.  1.
    5000001    1    1    2    0    0  0.36366212769E+03 -0.12694207287E+02 -0.36738941870E+03  0.55406432026E+03  0.19900000000E+03 0.  0.
   -5000001    1    1    2    0    0 -0.36366212769E+03  0.12694207287E+02 -0.32371604769E+03  0.52612200633E+03  0.19900000000E+03 0.  0.
<mgrwt>
<rscale>  0 0.83016609E+03</rscale>
<asrwt>0</asrwt>
<pdfrwt beam="1">  1        2 0.12652084E+00 0.83016609E+03</pdfrwt>
<pdfrwt beam="2">  1       -2 0.27791491E-01 0.83016609E+03</pdfrwt>
<totfact> 0.39329589E+02</totfact>
</mgrwt>
</event>
<event>
 4    1  0.5023236E-005  0.7300187E+03  0.7818608E-02  0.9667230E-01
         -2   -1    0    0    0  501 -0.00000000000E+00  0.00000000000E+00  0.16211826596E+03  0.16211826598E+03  0.25500000000E-02 0. -1.
          2   -1    0    0  501    0  0.00000000000E+00 -0.00000000000E+00 -0.82181873391E+03  0.82181873392E+03  0.25500000000E-02 0.  1.
    5000001    1    1    2    0    0  0.26985929412E+03 -0.68536028558E+02 -0.50092096523E+03  0.60666633271E+03  0.19900000000E+03 0.  0.
   -5000001    1    1    2    0    0 -0.26985929412E+03  0.68536028558E+02 -0.15877950272E+03  0.37727066719E+03  0.19900000000E+03 0.  0.
<mgrwt>
<rscale>  0 0.73001871E+03</rscale>
<asrwt>0</asrwt>
<pdfrwt beam="1">  1        2 0.11740267E+00 0.73001871E+03</pdfrwt>
<pdfrwt beam="2">  1       -2 0.23159753E-01 0.73001871E+03</pdfrwt>
<totfact> 0.60579067E+02</totfact>
</mgrwt>
</event>
<event>
 4    1  0.5023236E-005  0.6836689E+03  0.7818608E-02  0.9745575E-01
         -2   -1    0    0    0  501 -0.00000000000E+00  0.00000000000E+00  0.98169525620E+02  0.98169525653E+02  0.25500000000E-02 0. -1.
          2   -1    0    0  501    0  0.00000000000E+00 -0.00000000000E+00 -0.11902959423E+04  0.11902959423E+04  0.25500000000E-02 0.  1.
    5000001    1    1    2    0    0  0.38703986298E+02 -0.22686640748E+03 -0.83974830898E+03  0.89316548738E+03  0.19900000000E+03 0.  0.
   -5000001    1    1    2    0    0 -0.38703986298E+02  0.22686640748E+03 -0.25237810768E+03  0.39529998057E+03  0.19900000000E+03 0.  0.
<mgrwt>
<rscale>  0 0.68366889E+03</rscale>
<asrwt>0</asrwt>
<pdfrwt beam="1">  1        2 0.17004227E+00 0.68366889E+03</pdfrwt>
<pdfrwt beam="2">  1       -2 0.14024219E-01 0.68366889E+03</pdfrwt>
<totfact> 0.85527957E+02</totfact>
</mgrwt>
</event>
<event>
 4    1  0.5023236E-005  0.8380864E+03  0.7818608E-02  0.9506468E-01
         -2   -1    0    0    0  501 -0.00000000000E+00  0.00000000000E+00  0.11489212447E+03  0.11489212450E+03  0.25500000000E-02 0. -1.
          2   -1    0    0  501    0  0.00000000000E+00 -0.00000000000E+00 -0.15283657794E+04  0.15283657794E+04  0.25500000000E-02 0.  1.
    5000001    1    1    2    0    0  0.12033665104E+03 -0.34255223284E+03 -0.83340109945E+03  0.93058118097E+03  0.19900000000E+03 0.  0.
   -5000001    1    1    2    0    0 -0.12033665104E+03  0.34255223284E+03 -0.58007255552E+03  0.71267672297E+03  0.19900000000E+03 0.  0.
<mgrwt>
<rscale>  0 0.83808637E+03</rscale>
<asrwt>0</asrwt>
<pdfrwt beam="1">  1        2 0.21833796E+00 0.83808637E+03</pdfrwt>
<pdfrwt beam="2">  1       -2 0.16413162E-01 0.83808637E+03</pdfrwt>
<totfact> 0.42683190E+02</totfact>
</mgrwt>
</event>
<event>
 4    1  0.5023236E-005  0.5486830E+03  0.7818608E-02  0.1001799E+00
          2   -1    0    0  501    0  0.00000000000E+00  0.00000000000E+00  0.18482637838E+03  0.18482637840E+03  0.25500000000E-02 0.  1.
         -2   -1    0    0    0  501 -0.00000000000E+00 -0.00000000000E+00 -0.40721058726E+03  0.40721058727E+03  0.25500000000E-02 0. -1.
    5000001    1    1    2    0    0  0.10502392269E+03  0.15679099168E+03 -0.11873121909E+03  0.29885036690E+03  0.19900000000E+03 0.  0.
   -5000001    1    1    2    0    0 -0.10502392269E+03 -0.15679099168E+03 -0.10365298979E+03  0.29318659877E+03  0.19900000000E+03 0.  0.
<mgrwt>
<rscale>  0 0.54868300E+03</rscale>
<asrwt>0</asrwt>
<pdfrwt beam="1">  1        2 0.26403768E-01 0.54868300E+03</pdfrwt>
<pdfrwt beam="2">  1       -2 0.58172941E-01 0.54868300E+03</pdfrwt>
<totfact> 0.57324384E+02</totfact>
</mgrwt>
</event>
<event>
 4    1  0.5023236E-005  0.6387253E+03  0.7818608E-02  0.9828168E-01
         -2   -1    0    0    0  501 -0.00000000000E+00  0.00000000000E+00  0.96310665415E+02  0.96310665449E+02  0.25500000000E-02 0.  1.
          2   -1    0    0  501    0  0.00000000000E+00 -0.00000000000E+00 -0.10589947379E+04  0.10589947379E+04  0.25500000000E-02 0. -1.
    5000001    1    1    2    0    0 -0.25714777863E+02  0.24207836271E+03 -0.38017542111E+03  0.49335335644E+03  0.19900000000E+03 0.  0.
   -5000001    1    1    2    0    0  0.25714777863E+02 -0.24207836271E+03 -0.58250865142E+03  0.66195204696E+03  0.19900000000E+03 0.  0.
<mgrwt>
<rscale>  0 0.63872526E+03</rscale>
<asrwt>0</asrwt>
<pdfrwt beam="1">  1        2 0.15128496E+00 0.63872526E+03</pdfrwt>
<pdfrwt beam="2">  1       -2 0.13758667E-01 0.63872526E+03</pdfrwt>
<totfact> 0.10533169E+03</totfact>
</mgrwt>
</event>
<event>
 4    1  0.5023236E-005  0.1009786E+04  0.7818608E-02  0.9297876E-01
         -2   -1    0    0    0  501 -0.00000000000E+00  0.00000000000E+00  0.78414338722E+03  0.78414338723E+03  0.25500000000E-02 0. -1.
          2   -1    0    0  501    0  0.00000000000E+00 -0.00000000000E+00 -0.32508997979E+03  0.32508997980E+03  0.25500000000E-02 0.  1.
    5000001    1    1    2    0    0 -0.25637810377E+03  0.38121353806E+03  0.30124565946E+03  0.58429739092E+03  0.19900000000E+03 0.  0.
   -5000001    1    1    2    0    0  0.25637810377E+03 -0.38121353806E+03  0.15780774797E+03  0.52493597611E+03  0.19900000000E+03 0.  0.
<mgrwt>
<rscale>  0 0.10097864E+04</rscale>
<asrwt>0</asrwt>
<pdfrwt beam="1">  1        2 0.46441425E-01 0.10097864E+04</pdfrwt>
<pdfrwt beam="2">  1       -2 0.11202048E+00 0.10097864E+04</pdfrwt>
<totfact> 0.68428536E+01</totfact>
</mgrwt>
</event>
<event>
 4    1  0.5023236E-005  0.4939717E+03  0.7818608E-02  0.1015364E+00
          2   -1    0    0  501    0  0.00000000000E+00  0.00000000000E+00  0.25105863833E+04  0.25105863833E+04  0.25500000000E-02 0.  1.
         -2   -1    0    0    0  501 -0.00000000000E+00 -0.00000000000E+00 -0.24297908520E+02  0.24297908654E+02  0.25500000000E-02 0. -1.
    5000001    1    1    2    0    0  0.23751845513E+02  0.14282016988E+03  0.13506943058E+04  0.13729303911E+04  0.19900000000E+03 0.  0.
   -5000001    1    1    2    0    0 -0.23751845513E+02 -0.14282016988E+03  0.11355941690E+04  0.11619539009E+04  0.19900000000E+03 0.  0.
<mgrwt>
<rscale>  0 0.49397165E+03</rscale>
<asrwt>0</asrwt>
<pdfrwt beam="1">  1        2 0.35865504E+00 0.49397165E+03</pdfrwt>
<pdfrwt beam="2">  1       -2 0.34711313E-02 0.49397165E+03</pdfrwt>
<totfact> 0.16548781E+03</totfact>
</mgrwt>
</event>
<event>
 4    1  0.5023236E-005  0.9675557E+03  0.7818608E-02  0.9344863E-01
          2   -1    0    0  501    0  0.00000000000E+00  0.00000000000E+00  0.15186530945E+04  0.15186530945E+04  0.25500000000E-02 0. -1.
         -2   -1    0    0    0  501 -0.00000000000E+00 -0.00000000000E+00 -0.15411089606E+03  0.15411089608E+03  0.25500000000E-02 0.  1.
    5000001    1    1    2    0    0  0.39973692654E+03 -0.43933059643E+02  0.36954284595E+03  0.58127673200E+03  0.19900000000E+03 0.  0.
   -5000001    1    1    2    0    0 -0.39973692654E+03  0.43933059643E+02  0.99499935246E+03  0.10914872585E+04  0.19900000000E+03 0.  0.
<mgrwt>
<rscale>  0 0.96755566E+03</rscale>
<asrwt>0</asrwt>
<pdfrwt beam="1">  1        2 0.21695045E+00 0.96755566E+03</pdfrwt>
<pdfrwt beam="2">  1       -2 0.22015842E-01 0.96755566E+03</pdfrwt>
<totfact> 0.25701746E+02</totfact>
</mgrwt>
</event>
<event>
 4    1  0.5023236E-005  0.4689021E+03  0.7818608E-02  0.1022231E+00
          2   -1    0    0  501    0  0.00000000000E+00  0.00000000000E+00  0.14105403324E+04  0.14105403324E+04  0.25500000000E-02 0.  1.
         -2   -1    0    0    0  501 -0.00000000000E+00 -0.00000000000E+00 -0.38968955938E+02  0.38968956021E+02  0.25500000000E-02 0. -1.
    5000001    1    1    2    0    0  0.84587116434E+01 -0.12297508265E+03  0.64525998815E+03  0.68640794945E+03  0.19900000000E+03 0.  0.
   -5000001    1    1    2    0    0 -0.84587116434E+01  0.12297508265E+03  0.72631138830E+03  0.76310133897E+03  0.19900000000E+03 0.  0.
<mgrwt>
<rscale>  0 0.46890205E+03</rscale>
<asrwt>0</asrwt>
<pdfrwt beam="1">  1        2 0.20150570E+00 0.46890205E+03</pdfrwt>
<pdfrwt beam="2">  1       -2 0.55669953E-02 0.46890205E+03</pdfrwt>
<totfact> 0.28800685E+03</totfact>
</mgrwt>
</event>
<event>
 4    1  0.5023236E-005  0.7868347E+03  0.7818608E-02  0.9579271E-01
         -2   -1    0    0    0  501 -0.00000000000E+00  0.00000000000E+00  0.10107112929E+03  0.10107112933E+03  0.25500000000E-02 0. -1.
          2   -1    0    0  501    0  0.00000000000E+00 -0.00000000000E+00 -0.15313692918E+04  0.15313692918E+04  0.25500000000E-02 0.  1.
    5000001    1    1    2    0    0  0.13454417239E+03  0.31081018834E+03 -0.67011743278E+03  0.77676475281E+03  0.19900000000E+03 0.  0.
   -5000001    1    1    2    0    0 -0.13454417239E+03 -0.31081018834E+03 -0.76018072973E+03  0.85567566832E+03  0.19900000000E+03 0.  0.
<mgrwt>
<rscale>  0 0.78683473E+03</rscale>
<asrwt>0</asrwt>
<pdfrwt beam="1">  1        2 0.21876703E+00 0.78683473E+03</pdfrwt>
<pdfrwt beam="2">  1       -2 0.14438734E-01 0.78683473E+03</pdfrwt>
<totfact> 0.53008334E+02</totfact>
</mgrwt>
</event>
<event>
 4    1  0.5023236E-005  0.6804087E+03  0.7818608E-02  0.9751335E-01
         -2   -1    0    0    0  501 -0.00000000000E+00  0.00000000000E+00  0.98116511887E+02  0.98116511920E+02  0.25500000000E-02 0. -1.
          2   -1    0    0  501    0  0.00000000000E+00 -0.00000000000E+00 -0.11796076501E+04  0.11796076501E+04  0.25500000000E-02 0.  1.
    5000001    1    1    2    0    0  0.23976391468E+03  0.13206705706E+03 -0.47543576013E+03  0.58358256002E+03  0.19900000000E+03 0.  0.
   -5000001    1    1    2    0    0 -0.23976391468E+03 -0.13206705706E+03 -0.60605537811E+03  0.69414160204E+03  0.19900000000E+03 0.  0.
<mgrwt>
<rscale>  0 0.68040867E+03</rscale>
<asrwt>0</asrwt>
<pdfrwt beam="1">  1        2 0.16851537E+00 0.68040867E+03</pdfrwt>
<pdfrwt beam="2">  1       -2 0.14016645E-01 0.68040867E+03</pdfrwt>
<totfact> 0.86815855E+02</totfact>
</mgrwt>
</event>
<event>
 4    1  0.5023236E-005  0.9287487E+03  0.7818608E-02  0.9390341E-01
         -2   -1    0    0    0  501 -0.00000000000E+00  0.00000000000E+00  0.15424686298E+04  0.15424686298E+04  0.25500000000E-02 0. -1.
          2   -1    0    0  501    0  0.00000000000E+00 -0.00000000000E+00 -0.13980415656E+03  0.13980415658E+03  0.25500000000E-02 0.  1.
    5000001    1    1    2    0    0  0.11007682952E+03  0.29899389640E+03  0.11958236154E+04  0.12534390203E+04  0.19900000000E+03 0.  0.
   -5000001    1    1    2    0    0 -0.11007682952E+03 -0.29899389640E+03  0.20684085790E+03  0.42883376614E+03  0.19900000000E+03 0.  0.
<mgrwt>
<rscale>  0 0.92874868E+03</rscale>
<asrwt>0</asrwt>
<pdfrwt beam="1">  1        2 0.19972023E-01 0.92874868E+03</pdfrwt>
<pdfrwt beam="2">  1       -2 0.22035265E+00 0.92874868E+03</pdfrwt>
<totfact> 0.28227582E+01</totfact>
</mgrwt>
</event>
<event>
 4    1  0.5023236E-005  0.5090476E+03  0.7818608E-02  0.1011444E+00
         -2   -1    0    0    0  501 -0.00000000000E+00  0.00000000000E+00  0.33530166156E+02  0.33530166253E+02  0.25500000000E-02 0. -1.
          2   -1    0    0  501    0  0.00000000000E+00 -0.00000000000E+00 -0.19320621842E+04  0.19320621842E+04  0.25500000000E-02 0.  1.
    5000001    1    1    2    0    0  0.86140799934E+02  0.41771973443E+02 -0.14379354892E+04  0.14547936645E+04  0.19900000000E+03 0.  0.
   -5000001    1    1    2    0    0 -0.86140799934E+02 -0.41771973443E+02 -0.46059652875E+03  0.51079868586E+03  0.19900000000E+03 0.  0.
<mgrwt>
<rscale>  0 0.50904761E+03</rscale>
<asrwt>0</asrwt>
<pdfrwt beam="1">  1        2 0.27600881E+00 0.50904761E+03</pdfrwt>
<pdfrwt beam="2">  1       -2 0.47900250E-02 0.50904761E+03</pdfrwt>
<totfact> 0.19719757E+03</totfact>
</mgrwt>
</event>
<event>
 4    1  0.5023236E-005  0.5119019E+03  0.7818608E-02  0.1010718E+00
          2   -1    0    0  501    0  0.00000000000E+00  0.00000000000E+00  0.12803998873E+04  0.12803998873E+04  0.25500000000E-02 0.  1.
         -2   -1    0    0    0  501 -0.00000000000E+00 -0.00000000000E+00 -0.51164393752E+02  0.51164393816E+02  0.25500000000E-02 0. -1.
    5000001    1    1    2    0    0 -0.63777893695E+02  0.14663348982E+03  0.56659149369E+03  0.62144663551E+03  0.19900000000E+03 0.  0.
   -5000001    1    1    2    0    0  0.63777893695E+02 -0.14663348982E+03  0.66264399985E+03  0.71011764561E+03  0.19900000000E+03 0.  0.
<mgrwt>
<rscale>  0 0.51190188E+03</rscale>
<asrwt>0</asrwt>
<pdfrwt beam="1">  1        2 0.18291427E+00 0.51190188E+03</pdfrwt>
<pdfrwt beam="2">  1       -2 0.73091990E-02 0.51190188E+03</pdfrwt>
<totfact> 0.22063487E+03</totfact>
</mgrwt>
</event>
<event>
 4    1  0.5023236E-005  0.4817532E+03  0.7818608E-02  0.1018654E+00
         -2   -1    0    0    0  501 -0.00000000000E+00  0.00000000000E+00  0.95122631058E+02  0.95122631092E+02  0.25500000000E-02 0. -1.
          2   -1    0    0  501    0  0.00000000000E+00 -0.00000000000E+00 -0.60996555076E+03  0.60996555076E+03  0.25500000000E-02 0.  1.
    5000001    1    1    2    0    0  0.10946577990E+03 -0.80205333875E+02 -0.26065314238E+03  0.35490380836E+03  0.19900000000E+03 0.  0.
   -5000001    1    1    2    0    0 -0.10946577990E+03  0.80205333875E+02 -0.25418977732E+03  0.35018437350E+03  0.19900000000E+03 0.  0.
<mgrwt>
<rscale>  0 0.48175317E+03</rscale>
<asrwt>0</asrwt>
<pdfrwt beam="1">  1        2 0.87137934E-01 0.48175317E+03</pdfrwt>
<pdfrwt beam="2">  1       -2 0.13588948E-01 0.48175317E+03</pdfrwt>
<totfact> 0.21907528E+03</totfact>
</mgrwt>
</event>
<event>
 4    1  0.5023236E-005  0.4682479E+03  0.7818608E-02  0.1022416E+00
         -2   -1    0    0    0  501 -0.00000000000E+00  0.00000000000E+00  0.67958607578E+02  0.67958607625E+02  0.25500000000E-02 0. -1.
          2   -1    0    0  501    0  0.00000000000E+00 -0.00000000000E+00 -0.80657969253E+03  0.80657969253E+03  0.25500000000E-02 0.  1.
    5000001    1    1    2    0    0 -0.24134973728E+02 -0.52291842462E+02 -0.57301721134E+03  0.60931655010E+03  0.19900000000E+03 0.  0.
   -5000001    1    1    2    0    0  0.24134973728E+02  0.52291842462E+02 -0.16560387362E+03  0.26522175005E+03  0.19900000000E+03 0.  0.
<mgrwt>
<rscale>  0 0.46824794E+03</rscale>
<asrwt>0</asrwt>
<pdfrwt beam="1">  1        2 0.11522566E+00 0.46824794E+03</pdfrwt>
<pdfrwt beam="2">  1       -2 0.97083730E-02 0.46824794E+03</pdfrwt>
<totfact> 0.26990061E+03</totfact>
</mgrwt>
</event>
<event>
 4    1  0.5023236E-005  0.8405800E+03  0.7818608E-02  0.9503068E-01
         -2   -1    0    0    0  501 -0.00000000000E+00  0.00000000000E+00  0.33438718021E+03  0.33438718022E+03  0.25500000000E-02 0. -1.
          2   -1    0    0  501    0  0.00000000000E+00 -0.00000000000E+00 -0.52826092636E+03  0.52826092637E+03  0.25500000000E-02 0.  1.
    5000001    1    1    2    0    0 -0.13695430404E+03 -0.21547924924E+03  0.17815819125E+03  0.36949848357E+03  0.19900000000E+03 0.  0.
   -5000001    1    1    2    0    0  0.13695430404E+03  0.21547924924E+03 -0.37203193740E+03  0.49314962303E+03  0.19900000000E+03 0.  0.
<mgrwt>
<rscale>  0 0.84057999E+03</rscale>
<asrwt>0</asrwt>
<pdfrwt beam="1">  1        2 0.75465847E-01 0.84057999E+03</pdfrwt>
<pdfrwt beam="2">  1       -2 0.47769597E-01 0.84057999E+03</pdfrwt>
<totfact> 0.26289549E+02</totfact>
</mgrwt>
</event>
<event>
 4    1  0.5023236E-005  0.4536049E+03  0.7818608E-02  0.1026652E+00
          2   -1    0    0  501    0  0.00000000000E+00  0.00000000000E+00  0.13395804777E+04  0.13395804777E+04  0.25500000000E-02 0.  1.
         -2   -1    0    0    0  501 -0.00000000000E+00 -0.00000000000E+00 -0.38399601122E+02  0.38399601206E+02  0.25500000000E-02 0. -1.
    5000001    1    1    2    0    0 -0.38224920531E+02  0.32142220702E+02  0.35693796099E+03  0.41170374652E+03  0.19900000000E+03 0.  0.
   -5000001    1    1    2    0    0  0.38224920531E+02 -0.32142220702E+02  0.94424291559E+03  0.96627633240E+03  0.19900000000E+03 0.  0.
<mgrwt>
<rscale>  0 0.45360492E+03</rscale>
<asrwt>0</asrwt>
<pdfrwt beam="1">  1        2 0.19136862E+00 0.45360492E+03</pdfrwt>
<pdfrwt beam="2">  1       -2 0.54856578E-02 0.45360492E+03</pdfrwt>
<totfact> 0.32125847E+03</totfact>
</mgrwt>
</event>
<event>
 4    1  0.5023236E-005  0.7266589E+03  0.7818608E-02  0.9672698E-01
          2   -1    0    0  501    0  0.00000000000E+00  0.00000000000E+00  0.74219568604E+03  0.74219568604E+03  0.25500000000E-02 0.  1.
         -2   -1    0    0    0  501 -0.00000000000E+00 -0.00000000000E+00 -0.17786181669E+03  0.17786181671E+03  0.25500000000E-02 0. -1.
    5000001    1    1    2    0    0 -0.20029151650E+03 -0.20406031664E+03  0.41283172189E+03  0.54017435612E+03  0.19900000000E+03 0.  0.
   -5000001    1    1    2    0    0  0.20029151650E+03  0.20406031664E+03  0.15150214746E+03  0.37988314663E+03  0.19900000000E+03 0.  0.
<mgrwt>
<rscale>  0 0.72665886E+03</rscale>
<asrwt>0</asrwt>
<pdfrwt beam="1">  1        2 0.10602796E+00 0.72665886E+03</pdfrwt>
<pdfrwt beam="2">  1       -2 0.25408831E-01 0.72665886E+03</pdfrwt>
<totfact> 0.58424439E+02</totfact>
</mgrwt>
</event>
<event>
 4    1  0.5023236E-005  0.7986708E+03  0.7818608E-02  0.9561943E-01
         -2   -1    0    0    0  501 -0.00000000000E+00  0.00000000000E+00  0.18031975901E+03  0.18031975902E+03  0.25500000000E-02 0. -1.
          2   -1    0    0  501    0  0.00000000000E+00 -0.00000000000E+00 -0.88436661329E+03  0.88436661329E+03  0.25500000000E-02 0.  1.
    5000001    1    1    2    0    0 -0.23825200158E+03 -0.83576424624E+02 -0.66782030007E+03  0.74117068762E+03  0.19900000000E+03 0.  0.
   -5000001    1    1    2    0    0  0.23825200158E+03  0.83576424624E+02 -0.36226554214E+02  0.32351568469E+03  0.19900000000E+03 0.  0.
<mgrwt>
<rscale>  0 0.79867083E+03</rscale>
<asrwt>0</asrwt>
<pdfrwt beam="1">  1        2 0.12633809E+00 0.79867083E+03</pdfrwt>
<pdfrwt beam="2">  1       -2 0.25759966E-01 0.79867083E+03</pdfrwt>
<totfact> 0.45310898E+02</totfact>
</mgrwt>
</event>
<event>
 4    1  0.5023236E-005  0.5643581E+03  0.7818608E-02  0.9982242E-01
         -2   -1    0    0    0  501 -0.00000000000E+00  0.00000000000E+00  0.15762699916E+03  0.15762699918E+03  0.25500000000E-02 0. -1.
          2   -1    0    0  501    0  0.00000000000E+00 -0.00000000000E+00 -0.50514831379E+03  0.50514831380E+03  0.25500000000E-02 0.  1.
    5000001    1    1    2    0    0 -0.17464028727E+03  0.95983207263E+02 -0.19450471062E+03  0.34226464683E+03  0.19900000000E+03 0.  0.
   -5000001    1    1    2    0    0  0.17464028727E+03 -0.95983207263E+02 -0.15301660400E+03  0.32051066615E+03  0.19900000000E+03 0.  0.
<mgrwt>
<rscale>  0 0.56435809E+03</rscale>
<asrwt>0</asrwt>
<pdfrwt beam="1">  1        2 0.72164044E-01 0.56435809E+03</pdfrwt>
<pdfrwt beam="2">  1       -2 0.22518143E-01 0.56435809E+03</pdfrwt>
<totfact> 0.11486735E+03</totfact>
</mgrwt>
</event>
<event>
 4    1  0.5023236E-005  0.6856417E+03  0.7818608E-02  0.9742107E-01
         -2   -1    0    0    0  501 -0.00000000000E+00  0.00000000000E+00  0.53301999772E+03  0.53301999772E+03  0.25500000000E-02 0. -1.
          2   -1    0    0  501    0  0.00000000000E+00 -0.00000000000E+00 -0.22049106788E+03  0.22049106789E+03  0.25500000000E-02 0.  1.
    5000001    1    1    2    0    0 -0.27550548792E+03 -0.22753621335E+02  0.11364209657E+03  0.35907732770E+03  0.19900000000E+03 0.  0.
   -5000001    1    1    2    0    0  0.27550548792E+03  0.22753621335E+02  0.19888683327E+03  0.39443373791E+03  0.19900000000E+03 0.  0.
<mgrwt>
<rscale>  0 0.68564174E+03</rscale>
<asrwt>0</asrwt>
<pdfrwt beam="1">  1        2 0.31498724E-01 0.68564174E+03</pdfrwt>
<pdfrwt beam="2">  1       -2 0.76145714E-01 0.68564174E+03</pdfrwt>
<totfact> 0.26251469E+02</totfact>
</mgrwt>
</event>
<event>
 4    1  0.5023236E-005  0.8261140E+03  0.7818608E-02  0.9522969E-01
         -2   -1    0    0    0  501 -0.00000000000E+00  0.00000000000E+00  0.32268954476E+03  0.32268954477E+03  0.25500000000E-02 0.  1.
          2   -1    0    0  501    0  0.00000000000E+00 -0.00000000000E+00 -0.52873131014E+03  0.52873131014E+03  0.25500000000E-02 0. -1.
    5000001    1    1    2    0    0  0.15176793661E+03  0.30290441674E+03 -0.23432245340E+03  0.45748508657E+03  0.19900000000E+03 0.  0.
   -5000001    1    1    2    0    0 -0.15176793661E+03 -0.30290441674E+03  0.28280688025E+02  0.39393576834E+03  0.19900000000E+03 0.  0.
<mgrwt>
<rscale>  0 0.82611395E+03</rscale>
<asrwt>0</asrwt>
<pdfrwt beam="1">  1        2 0.75533044E-01 0.82611395E+03</pdfrwt>
<pdfrwt beam="2">  1       -2 0.46098507E-01 0.82611395E+03</pdfrwt>
<totfact> 0.28226781E+02</totfact>
</mgrwt>
</event>
<event>
 4    1  0.5023236E-005  0.5253931E+03  0.7818608E-02  0.1007356E+00
          2   -1    0    0  501    0  0.00000000000E+00  0.00000000000E+00  0.15100694139E+04  0.15100694139E+04  0.25500000000E-02 0.  1.
         -2   -1    0    0    0  501 -0.00000000000E+00 -0.00000000000E+00 -0.45699538593E+02  0.45699538664E+02  0.25500000000E-02 0. -1.
    5000001    1    1    2    0    0  0.11905398799E+03 -0.55907947408E+02  0.10580317928E+04  0.10845883206E+04  0.19900000000E+03 0.  0.
   -5000001    1    1    2    0    0 -0.11905398799E+03  0.55907947408E+02  0.40633808258E+03  0.47118063202E+03  0.19900000000E+03 0.  0.
<mgrwt>
<rscale>  0 0.52539309E+03</rscale>
<asrwt>0</asrwt>
<pdfrwt beam="1">  1        2 0.21572420E+00 0.52539309E+03</pdfrwt>
<pdfrwt beam="2">  1       -2 0.65285057E-02 0.52539309E+03</pdfrwt>
<totfact> 0.19915018E+03</totfact>
</mgrwt>
</event>
<event>
 4    1  0.5023236E-005  0.5553362E+03  0.7818608E-02  0.1000266E+00
          2   -1    0    0  501    0  0.00000000000E+00  0.00000000000E+00  0.13899520205E+04  0.13899520205E+04  0.25500000000E-02 0.  1.
         -2   -1    0    0    0  501 -0.00000000000E+00 -0.00000000000E+00 -0.55469239357E+02  0.55469239416E+02  0.25500000000E-02 0. -1.
    5000001    1    1    2    0    0 -0.27223086120E+02  0.17547932549E+03  0.46622793184E+03  0.53712528755E+03  0.19900000000E+03 0.  0.
   -5000001    1    1    2    0    0  0.27223086120E+02 -0.17547932549E+03  0.86825484932E+03  0.90829597239E+03  0.19900000000E+03 0.  0.
<mgrwt>
<rscale>  0 0.55533623E+03</rscale>
<asrwt>0</asrwt>
<pdfrwt beam="1">  1        2 0.19856455E+00 0.55533623E+03</pdfrwt>
<pdfrwt beam="2">  1       -2 0.79241780E-02 0.55533623E+03</pdfrwt>
<totfact> 0.16939248E+03</totfact>
</mgrwt>
</event>
<event>
 4    1  0.5023236E-005  0.8417962E+03  0.7818608E-02  0.9501414E-01
         -2   -1    0    0    0  501 -0.00000000000E+00  0.00000000000E+00  0.14605520380E+03  0.14605520382E+03  0.25500000000E-02 0. -1.
          2   -1    0    0  501    0  0.00000000000E+00 -0.00000000000E+00 -0.12129331764E+04  0.12129331764E+04  0.25500000000E-02 0.  1.
    5000001    1    1    2    0    0 -0.36771482650E+03  0.50569170008E+01 -0.45577290298E+03  0.61852219453E+03  0.19900000000E+03 0.  0.
   -5000001    1    1    2    0    0  0.36771482650E+03 -0.50569170008E+01 -0.61110506966E+03  0.74046618573E+03  0.19900000000E+03 0.  0.
<mgrwt>
<rscale>  0 0.84179618E+03</rscale>
<asrwt>0</asrwt>
<pdfrwt beam="1">  1        2 0.17327616E+00 0.84179618E+03</pdfrwt>
<pdfrwt beam="2">  1       -2 0.20865030E-01 0.84179618E+03</pdfrwt>
<totfact> 0.41712466E+02</totfact>
</mgrwt>
</event>
<event>
 4    1  0.5023236E-005  0.9564471E+03  0.7818608E-02  0.9357647E-01
         -2   -1    0    0    0  501 -0.00000000000E+00  0.00000000000E+00  0.19285497234E+03  0.19285497235E+03  0.25500000000E-02 0.  1.
          2   -1    0    0  501    0  0.00000000000E+00 -0.00000000000E+00 -0.11858534810E+04  0.11858534811E+04  0.25500000000E-02 0. -1.
    5000001    1    1    2    0    0  0.19392441476E+03  0.16956582636E+03 -0.10015094297E+04  0.10530818515E+04  0.19900000000E+03 0.  0.
   -5000001    1    1    2    0    0 -0.19392441476E+03 -0.16956582636E+03  0.85109209944E+01  0.32562660193E+03  0.19900000000E+03 0.  0.
<mgrwt>
<rscale>  0 0.95644705E+03</rscale>
<asrwt>0</asrwt>
<pdfrwt beam="1">  1        2 0.16940764E+00 0.95644705E+03</pdfrwt>
<pdfrwt beam="2">  1       -2 0.27550711E-01 0.95644705E+03</pdfrwt>
<totfact> 0.26077178E+02</totfact>
</mgrwt>
</event>
<event>
 4    1  0.5023236E-005  0.5637783E+03  0.7818608E-02  0.9983542E-01
          2   -1    0    0  501    0  0.00000000000E+00  0.00000000000E+00  0.15035991495E+04  0.15035991495E+04  0.25500000000E-02 0.  1.
         -2   -1    0    0    0  501 -0.00000000000E+00 -0.00000000000E+00 -0.52847528598E+02  0.52847528659E+02  0.25500000000E-02 0. -1.
    5000001    1    1    2    0    0  0.19799707924E+03  0.17454993236E+02  0.77724390117E+03  0.82656917562E+03  0.19900000000E+03 0.  0.
   -5000001    1    1    2    0    0 -0.19799707924E+03 -0.17454993236E+02  0.67350771973E+03  0.72987750254E+03  0.19900000000E+03 0.  0.
<mgrwt>
<rscale>  0 0.56377832E+03</rscale>
<asrwt>0</asrwt>
<pdfrwt beam="1">  1        2 0.21479987E+00 0.56377832E+03</pdfrwt>
<pdfrwt beam="2">  1       -2 0.75496473E-02 0.56377832E+03</pdfrwt>
<totfact> 0.15941177E+03</totfact>
</mgrwt>
</event>
<event>
 4    1  0.5023236E-005  0.6747419E+03  0.7818608E-02  0.9761429E-01
         -2   -1    0    0    0  501 -0.00000000000E+00  0.00000000000E+00  0.60909840446E+02  0.60909840499E+02  0.25500000000E-02 0. -1.
          2   -1    0    0  501    0  0.00000000000E+00 -0.00000000000E+00 -0.18686500169E+04  0.18686500169E+04  0.25500000000E-02 0.  1.
    5000001    1    1    2    0    0  0.26511019864E+03  0.62723939900E+02 -0.90581882552E+03  0.96660563557E+03  0.19900000000E+03 0.  0.
   -5000001    1    1    2    0    0 -0.26511019864E+03 -0.62723939900E+02 -0.90192135090E+03  0.96295422179E+03  0.19900000000E+03 0.  0.
<mgrwt>
<rscale>  0 0.67474195E+03</rscale>
<asrwt>0</asrwt>
<pdfrwt beam="1">  1        2 0.26694997E+00 0.67474195E+03</pdfrwt>
<pdfrwt beam="2">  1       -2 0.87014069E-02 0.67474195E+03</pdfrwt>
<totfact> 0.82320420E+02</totfact>
</mgrwt>
</event>
<event>
 4    1  0.5023236E-005  0.4644974E+03  0.7818608E-02  0.1023485E+00
          2   -1    0    0  501    0  0.00000000000E+00  0.00000000000E+00  0.36397341650E+03  0.36397341651E+03  0.25500000000E-02 0.  1.
         -2   -1    0    0    0  501 -0.00000000000E+00 -0.00000000000E+00 -0.14819612980E+03  0.14819612982E+03  0.25500000000E-02 0. -1.
    5000001    1    1    2    0    0 -0.70210219060E+02 -0.82199769313E+02  0.51103913996E+02  0.23216133821E+03  0.19900000000E+03 0.  0.
   -5000001    1    1    2    0    0  0.70210219060E+02  0.82199769313E+02  0.16467337270E+03  0.28000820812E+03  0.19900000000E+03 0.  0.
<mgrwt>
<rscale>  0 0.46449737E+03</rscale>
<asrwt>0</asrwt>
<pdfrwt beam="1">  1        2 0.51996202E-01 0.46449737E+03</pdfrwt>
<pdfrwt beam="2">  1       -2 0.21170876E-01 0.46449737E+03</pdfrwt>
<totfact> 0.18433886E+03</totfact>
</mgrwt>
</event>
<event>
 4    1  0.5023236E-005  0.9810286E+03  0.7818608E-02  0.9329601E-01
         -2   -1    0    0    0  501 -0.00000000000E+00  0.00000000000E+00  0.31339785328E+03  0.31339785329E+03  0.25500000000E-02 0. -1.
          2   -1    0    0  501    0  0.00000000000E+00 -0.00000000000E+00 -0.76772787520E+03  0.76772787521E+03  0.25500000000E-02 0.  1.
    5000001    1    1    2    0    0 -0.33657929672E+03  0.12686133196E+03  0.67767988066E+02  0.41662083569E+03  0.19900000000E+03 0.  0.
   -5000001    1    1    2    0    0  0.33657929672E+03 -0.12686133196E+03 -0.52209800999E+03  0.66450489281E+03  0.19900000000E+03 0.  0.
<mgrwt>
<rscale>  0 0.98102858E+03</rscale>
<asrwt>0</asrwt>
<pdfrwt beam="1">  1        2 0.10967541E+00 0.98102858E+03</pdfrwt>
<pdfrwt beam="2">  1       -2 0.44771122E-01 0.98102858E+03</pdfrwt>
<totfact> 0.18931578E+02</totfact>
</mgrwt>
</event>
<event>
 4    1  0.5023236E-005  0.7319981E+03  0.7818608E-02  0.9664024E-01
          2   -1    0    0  501    0  0.00000000000E+00  0.00000000000E+00  0.10599653685E+03  0.10599653689E+03  0.25500000000E-02 0.  1.
         -2   -1    0    0    0  501 -0.00000000000E+00 -0.00000000000E+00 -0.12637705668E+04  0.12637705668E+04  0.25500000000E-02 0. -1.
    5000001    1    1    2    0    0  0.16330530843E+03  0.23599664526E+03 -0.37397413987E+03  0.51168417762E+03  0.19900000000E+03 0.  0.
   -5000001    1    1    2    0    0 -0.16330530843E+03 -0.23599664526E+03 -0.78379989011E+03  0.85808292611E+03  0.19900000000E+03 0.  0.
<mgrwt>
<rscale>  0 0.73199810E+03</rscale>
<asrwt>0</asrwt>
<pdfrwt beam="1">  1        2 0.15142363E-01 0.73199810E+03</pdfrwt>
<pdfrwt beam="2">  1       -2 0.18053864E+00 0.73199810E+03</pdfrwt>
<totfact> 0.72379134E+01</totfact>
</mgrwt>
</event>
<event>
 4    1  0.5023236E-005  0.6093328E+03  0.7818608E-02  0.9886231E-01
          2   -1    0    0  501    0  0.00000000000E+00  0.00000000000E+00  0.16798035755E+04  0.16798035755E+04  0.25500000000E-02 0.  1.
         -2   -1    0    0    0  501 -0.00000000000E+00 -0.00000000000E+00 -0.55257413755E+02  0.55257413814E+02  0.25500000000E-02 0. -1.
    5000001    1    1    2    0    0 -0.22308289248E+03 -0.32352709200E+02  0.95200056463E+03  0.99835802684E+03  0.19900000000E+03 0.  0.
   -5000001    1    1    2    0    0  0.22308289248E+03  0.32352709200E+02  0.67254559710E+03  0.73670296245E+03  0.19900000000E+03 0.  0.
<mgrwt>
<rscale>  0 0.60933275E+03</rscale>
<asrwt>0</asrwt>
<pdfrwt beam="1">  1        2 0.23997190E+00 0.60933275E+03</pdfrwt>
<pdfrwt beam="2">  1       -2 0.78939177E-02 0.60933275E+03</pdfrwt>
<totfact> 0.12033122E+03</totfact>
</mgrwt>
</event>
<event>
 4    1  0.5023236E-005  0.5244070E+03  0.7818608E-02  0.1007598E+00
          2   -1    0    0  501    0  0.00000000000E+00  0.00000000000E+00  0.26928306723E+04  0.26928306723E+04  0.25500000000E-02 0.  1.
         -2   -1    0    0    0  501 -0.00000000000E+00 -0.00000000000E+00 -0.25531005431E+02  0.25531005559E+02  0.25500000000E-02 0. -1.
    5000001    1    1    2    0    0 -0.12840189666E+03 -0.30384021198E+02  0.77200414310E+03  0.80808516431E+03  0.19900000000E+03 0.  0.
   -5000001    1    1    2    0    0  0.12840189666E+03  0.30384021198E+02  0.18952955238E+04  0.19102765136E+04  0.19900000000E+03 0.  0.
<mgrwt>
<rscale>  0 0.52440700E+03</rscale>
<asrwt>0</asrwt>
<pdfrwt beam="1">  1        2 0.38468980E+00 0.52440700E+03</pdfrwt>
<pdfrwt beam="2">  1       -2 0.36472893E-02 0.52440700E+03</pdfrwt>
<totfact> 0.12336113E+03</totfact>
</mgrwt>
</event>
<event>
 4    1  0.5023236E-005  0.4996020E+03  0.7818608E-02  0.1013883E+00
          2   -1    0    0  501    0  0.00000000000E+00  0.00000000000E+00  0.14455216337E+04  0.14455216337E+04  0.25500000000E-02 0. -1.
         -2   -1    0    0    0  501 -0.00000000000E+00 -0.00000000000E+00 -0.43168180493E+02  0.43168180568E+02  0.25500000000E-02 0.  1.
    5000001    1    1    2    0    0  0.12608602977E+03  0.82642102848E+02  0.72648441073E+03  0.76818487560E+03  0.19900000000E+03 0.  0.
   -5000001    1    1    2    0    0 -0.12608602977E+03 -0.82642102848E+02  0.67586904244E+03  0.72050493864E+03  0.19900000000E+03 0.  0.
<mgrwt>
<rscale>  0 0.49960200E+03</rscale>
<asrwt>0</asrwt>
<pdfrwt beam="1">  1        2 0.20650308E+00 0.49960200E+03</pdfrwt>
<pdfrwt beam="2">  1       -2 0.61668831E-02 0.49960200E+03</pdfrwt>
<totfact> 0.23536687E+03</totfact>
</mgrwt>
</event>
<event>
 4    1  0.5023236E-005  0.7292086E+03  0.7818608E-02  0.9668546E-01
         -2   -1    0    0    0  501 -0.00000000000E+00  0.00000000000E+00  0.49347854416E+03  0.49347854416E+03  0.25500000000E-02 0. -1.
          2   -1    0    0  501    0  0.00000000000E+00 -0.00000000000E+00 -0.26938615176E+03  0.26938615177E+03  0.25500000000E-02 0.  1.
    5000001    1    1    2    0    0 -0.14437922402E+03 -0.23919899965E+03  0.24133734429E+03  0.41941177321E+03  0.19900000000E+03 0.  0.
   -5000001    1    1    2    0    0  0.14437922402E+03  0.23919899965E+03 -0.17244951891E+02  0.34345292273E+03  0.19900000000E+03 0.  0.
<mgrwt>
<rscale>  0 0.72920857E+03</rscale>
<asrwt>0</asrwt>
<pdfrwt beam="1">  1        2 0.38483736E-01 0.72920857E+03</pdfrwt>
<pdfrwt beam="2">  1       -2 0.70496934E-01 0.72920857E+03</pdfrwt>
<totfact> 0.24833523E+02</totfact>
</mgrwt>
</event>
<event>
 4    1  0.5023236E-005  0.6068137E+03  0.7818608E-02  0.9891370E-01
         -2   -1    0    0    0  501 -0.00000000000E+00  0.00000000000E+00  0.76201647838E+02  0.76201647880E+02  0.25500000000E-02 0. -1.
          2   -1    0    0  501    0  0.00000000000E+00 -0.00000000000E+00 -0.12080542032E+04  0.12080542032E+04  0.25500000000E-02 0.  1.
    5000001    1    1    2    0    0  0.22357081580E+03  0.11704313224E+02 -0.46368415017E+03  0.55201892336E+03  0.19900000000E+03 0.  0.
   -5000001    1    1    2    0    0 -0.22357081580E+03 -0.11704313224E+02 -0.66816840516E+03  0.73223692769E+03  0.19900000000E+03 0.  0.
<mgrwt>
<rscale>  0 0.60681371E+03</rscale>
<asrwt>0</asrwt>
<pdfrwt beam="1">  1        2 0.17257916E+00 0.60681371E+03</pdfrwt>
<pdfrwt beam="2">  1       -2 0.10885950E-01 0.60681371E+03</pdfrwt>
<totfact> 0.12737967E+03</totfact>
</mgrwt>
</event>
<event>
 4    1  0.5023236E-005  0.1259105E+04  0.7818608E-02  0.9062639E-01
          2   -1    0    0  501    0  0.00000000000E+00  0.00000000000E+00  0.20657127499E+04  0.20657127500E+04  0.25500000000E-02 0.  1.
         -2   -1    0    0    0  501 -0.00000000000E+00 -0.00000000000E+00 -0.19186414365E+03  0.19186414367E+03  0.25500000000E-02 0. -1.
    5000001    1    1    2    0    0 -0.56560533865E+03 -0.12560558520E+03  0.11970581637E+04  0.13447064399E+04  0.19900000000E+03 0.  0.
   -5000001    1    1    2    0    0  0.56560533865E+03  0.12560558520E+03  0.67679044258E+03  0.91287045374E+03  0.19900000000E+03 0.  0.
<mgrwt>
<rscale>  0 0.12591048E+04</rscale>
<asrwt>0</asrwt>
<pdfrwt beam="1">  1        2 0.29510182E+00 0.12591048E+04</pdfrwt>
<pdfrwt beam="2">  1       -2 0.27409164E-01 0.12591048E+04</pdfrwt>
<totfact> 0.88512909E+01</totfact>
</mgrwt>
</event>
<event>
 4    1  0.5023236E-005  0.7708385E+03  0.7818608E-02  0.9603213E-01
          2   -1    0    0  501    0  0.00000000000E+00  0.00000000000E+00  0.12819017730E+04  0.12819017730E+04  0.25500000000E-02 0.  1.
         -2   -1    0    0    0  501 -0.00000000000E+00 -0.00000000000E+00 -0.11588096527E+03  0.11588096530E+03  0.25500000000E-02 0. -1.
    5000001    1    1    2    0    0 -0.24688449291E+03 -0.15146426065E+03  0.87003007684E+03  0.93832121883E+03  0.19900000000E+03 0.  0.
   -5000001    1    1    2    0    0  0.24688449291E+03  0.15146426065E+03  0.29599073084E+03  0.45946151943E+03  0.19900000000E+03 0.  0.
<mgrwt>
<rscale>  0 0.77083854E+03</rscale>
<asrwt>0</asrwt>
<pdfrwt beam="1">  1        2 0.18312882E+00 0.77083854E+03</pdfrwt>
<pdfrwt beam="2">  1       -2 0.16554424E-01 0.77083854E+03</pdfrwt>
<totfact> 0.57222576E+02</totfact>
</mgrwt>
</event>
<event>
 4    1  0.5023236E-005  0.6439440E+03  0.7818608E-02  0.9818210E-01
          2   -1    0    0  501    0  0.00000000000E+00  0.00000000000E+00  0.72309929573E+03  0.72309929574E+03  0.25500000000E-02 0.  1.
         -2   -1    0    0    0  501 -0.00000000000E+00 -0.00000000000E+00 -0.14336340484E+03  0.14336340486E+03  0.25500000000E-02 0. -1.
    5000001    1    1    2    0    0 -0.13479363195E+03  0.56421647924E+01  0.57803004851E+03  0.62603585697E+03  0.19900000000E+03 0.  0.
   -5000001    1    1    2    0    0  0.13479363195E+03 -0.56421647924E+01  0.17058423918E+01  0.24042684362E+03  0.19900000000E+03 0.  0.
<mgrwt>
<rscale>  0 0.64394403E+03</rscale>
<asrwt>0</asrwt>
<pdfrwt beam="1">  1        2 0.10329990E+00 0.64394403E+03</pdfrwt>
<pdfrwt beam="2">  1       -2 0.20480486E-01 0.64394403E+03</pdfrwt>
<totfact> 0.88721676E+02</totfact>
</mgrwt>
</event>
<event>
 4    1  0.5023236E-005  0.5340168E+03  0.7818608E-02  0.1005263E+00
          2   -1    0    0  501    0  0.00000000000E+00  0.00000000000E+00  0.14831643299E+04  0.14831643299E+04  0.25500000000E-02 0.  1.
         -2   -1    0    0    0  501 -0.00000000000E+00 -0.00000000000E+00 -0.48068500095E+02  0.48068500162E+02  0.25500000000E-02 0. -1.
    5000001    1    1    2    0    0  0.38091376334E+02  0.12108829385E+03  0.10754451065E+04  0.11010433711E+04  0.19900000000E+03 0.  0.
   -5000001    1    1    2    0    0 -0.38091376334E+02 -0.12108829385E+03  0.35965072327E+03  0.43018945897E+03  0.19900000000E+03 0.  0.
<mgrwt>
<rscale>  0 0.53401680E+03</rscale>
<asrwt>0</asrwt>
<pdfrwt beam="1">  1        2 0.21188060E+00 0.53401680E+03</pdfrwt>
<pdfrwt beam="2">  1       -2 0.68669292E-02 0.53401680E+03</pdfrwt>
<totfact> 0.18991357E+03</totfact>
</mgrwt>
</event>
<event>
 4    1  0.5023236E-005  0.5710444E+03  0.7818608E-02  0.9967370E-01
          2   -1    0    0  501    0  0.00000000000E+00  0.00000000000E+00  0.27928261173E+04  0.27928261173E+04  0.25500000000E-02 0.  1.
         -2   -1    0    0    0  501 -0.00000000000E+00 -0.00000000000E+00 -0.29190119992E+02  0.29190120104E+02  0.25500000000E-02 0. -1.
    5000001    1    1    2    0    0  0.34262344525E+02 -0.12332972018E+03  0.21715529828E+04  0.21844055222E+04  0.19900000000E+03 0.  0.
   -5000001    1    1    2    0    0 -0.34262344525E+02  0.12332972018E+03  0.59208301456E+03  0.63761071529E+03  0.19900000000E+03 0.  0.
<mgrwt>
<rscale>  0 0.57104441E+03</rscale>
<asrwt>0</asrwt>
<pdfrwt beam="1">  1        2 0.39897507E+00 0.57104441E+03</pdfrwt>
<pdfrwt beam="2">  1       -2 0.41700181E-02 0.57104441E+03</pdfrwt>
<totfact> 0.88717581E+02</totfact>
</mgrwt>
</event>
<event>
 4    1  0.5023236E-005  0.4889151E+03  0.7818608E-02  0.1016713E+00
         -2   -1    0    0    0  501 -0.00000000000E+00  0.00000000000E+00  0.48459044795E+02  0.48459044862E+02  0.25500000000E-02 0. -1.
          2   -1    0    0  501    0  0.00000000000E+00 -0.00000000000E+00 -0.12331957582E+04  0.12331957582E+04  0.25500000000E-02 0.  1.
    5000001    1    1    2    0    0 -0.63621044681E+02  0.94660456417E+02 -0.37070279447E+03  0.43592407729E+03  0.19900000000E+03 0.  0.
   -5000001    1    1    2    0    0  0.63621044681E+02 -0.94660456417E+02 -0.81403391889E+03  0.84573072573E+03  0.19900000000E+03 0.  0.
<mgrwt>
<rscale>  0 0.48891508E+03</rscale>
<asrwt>0</asrwt>
<pdfrwt beam="1">  1        2 0.17617080E+00 0.48891508E+03</pdfrwt>
<pdfrwt beam="2">  1       -2 0.69227214E-02 0.48891508E+03</pdfrwt>
<totfact> 0.25512842E+03</totfact>
</mgrwt>
</event>
<event>
 4    1  0.5023236E-005  0.7563017E+03  0.7818608E-02  0.9625516E-01
          2   -1    0    0  501    0  0.00000000000E+00  0.00000000000E+00  0.71932270552E+03  0.71932270553E+03  0.25500000000E-02 0.  1.
         -2   -1    0    0    0  501 -0.00000000000E+00 -0.00000000000E+00 -0.19879540863E+03  0.19879540865E+03  0.25500000000E-02 0. -1.
    5000001    1    1    2    0    0 -0.32003066811E+03  0.16771922589E+02  0.29229293025E+03  0.47721806650E+03  0.19900000000E+03 0.  0.
   -5000001    1    1    2    0    0  0.32003066811E+03 -0.16771922589E+02  0.22823436664E+03  0.44090004767E+03  0.19900000000E+03 0.  0.
<mgrwt>
<rscale>  0 0.75630166E+03</rscale>
<asrwt>0</asrwt>
<pdfrwt beam="1">  1        2 0.10276039E+00 0.75630166E+03</pdfrwt>
<pdfrwt beam="2">  1       -2 0.28399344E-01 0.75630166E+03</pdfrwt>
<totfact> 0.49557570E+02</totfact>
</mgrwt>
</event>
<event>
 4    1  0.5023236E-005  0.5497653E+03  0.7818608E-02  0.1001548E+00
          2   -1    0    0  501    0  0.00000000000E+00  0.00000000000E+00  0.23251406020E+03  0.23251406021E+03  0.25500000000E-02 0.  1.
         -2   -1    0    0    0  501 -0.00000000000E+00 -0.00000000000E+00 -0.32497158782E+03  0.32497158783E+03  0.25500000000E-02 0. -1.
    5000001    1    1    2    0    0  0.13456795488E+03  0.78921782797E+02  0.63091853740E+02  0.26061228729E+03  0.19900000000E+03 0.  0.
   -5000001    1    1    2    0    0 -0.13456795488E+03 -0.78921782797E+02 -0.15554938136E+03  0.29687336075E+03  0.19900000000E+03 0.  0.
<mgrwt>
<rscale>  0 0.54976527E+03</rscale>
<asrwt>0</asrwt>
<pdfrwt beam="1">  1        2 0.33216294E-01 0.54976527E+03</pdfrwt>
<pdfrwt beam="2">  1       -2 0.46424513E-01 0.54976527E+03</pdfrwt>
<totfact> 0.70172908E+02</totfact>
</mgrwt>
</event>
<event>
 4    1  0.5023236E-005  0.1007226E+04  0.7818608E-02  0.9300655E-01
          2   -1    0    0  501    0  0.00000000000E+00  0.00000000000E+00  0.97969814824E+03  0.97969814824E+03  0.25500000000E-02 0.  1.
         -2   -1    0    0    0  501 -0.00000000000E+00 -0.00000000000E+00 -0.25888192765E+03  0.25888192766E+03  0.25500000000E-02 0. -1.
    5000001    1    1    2    0    0  0.35421886921E+03 -0.21835443090E+03  0.11179242901E+03  0.47460321531E+03  0.19900000000E+03 0.  0.
   -5000001    1    1    2    0    0 -0.35421886921E+03  0.21835443090E+03  0.60902379158E+03  0.76397686059E+03  0.19900000000E+03 0.  0.
<mgrwt>
<rscale>  0 0.10072262E+04</rscale>
<asrwt>0</asrwt>
<pdfrwt beam="1">  1        2 0.13995688E+00 0.10072262E+04</pdfrwt>
<pdfrwt beam="2">  1       -2 0.36983133E-01 0.10072262E+04</pdfrwt>
<totfact> 0.19842989E+02</totfact>
</mgrwt>
</event>
<event>
 4    1  0.5023236E-005  0.5279547E+03  0.7818608E-02  0.1006729E+00
          2   -1    0    0  501    0  0.00000000000E+00  0.00000000000E+00  0.42674378114E+03  0.42674378115E+03  0.25500000000E-02 0.  1.
         -2   -1    0    0    0  501 -0.00000000000E+00 -0.00000000000E+00 -0.16329248384E+03  0.16329248386E+03  0.25500000000E-02 0. -1.
    5000001    1    1    2    0    0 -0.77327471743E+02 -0.14093267755E+03  0.20451057821E+03  0.32751661650E+03  0.19900000000E+03 0.  0.
   -5000001    1    1    2    0    0  0.77327471743E+02  0.14093267755E+03  0.58940719093E+02  0.26251964851E+03  0.19900000000E+03 0.  0.
<mgrwt>
<rscale>  0 0.52795474E+03</rscale>
<asrwt>0</asrwt>
<pdfrwt beam="1">  1        2 0.60963397E-01 0.52795474E+03</pdfrwt>
<pdfrwt beam="2">  1       -2 0.23327498E-01 0.52795474E+03</pdfrwt>
<totfact> 0.13044348E+03</totfact>
</mgrwt>
</event>
<event>
 4    1  0.5023236E-005  0.5600778E+03  0.7818608E-02  0.9991879E-01
          2   -1    0    0  501    0  0.00000000000E+00  0.00000000000E+00  0.15349103931E+04  0.15349103931E+04  0.25500000000E-02 0. -1.
         -2   -1    0    0    0  501 -0.00000000000E+00 -0.00000000000E+00 -0.51092095399E+02  0.51092095462E+02  0.25500000000E-02 0.  1.
    5000001    1    1    2    0    0  0.99310873588E+02 -0.16496242164E+03  0.62359949963E+03  0.68231414034E+03  0.19900000000E+03 0.  0.
   -5000001    1    1    2    0    0 -0.99310873588E+02  0.16496242164E+03  0.86021879807E+03  0.90368834823E+03  0.19900000000E+03 0.  0.
<mgrwt>
<rscale>  0 0.56007781E+03</rscale>
<asrwt>0</asrwt>
<pdfrwt beam="1">  1        2 0.21927289E+00 0.56007781E+03</pdfrwt>
<pdfrwt beam="2">  1       -2 0.72988717E-02 0.56007781E+03</pdfrwt>
<totfact> 0.16202222E+03</totfact>
</mgrwt>
</event>
<event>
 4    1  0.5023236E-005  0.1081698E+04  0.7818608E-02  0.9223216E-01
          2   -1    0    0  501    0  0.00000000000E+00  0.00000000000E+00  0.52600732445E+03  0.52600732446E+03  0.25500000000E-02 0.  1.
         -2   -1    0    0    0  501 -0.00000000000E+00 -0.00000000000E+00 -0.55610911949E+03  0.55610911950E+03  0.25500000000E-02 0. -1.
    5000001    1    1    2    0    0  0.30708259109E+03 -0.39545198907E+03 -0.62339448501E+02  0.54237367216E+03  0.19900000000E+03 0.  0.
   -5000001    1    1    2    0    0 -0.30708259109E+03  0.39545198907E+03  0.32237653463E+02  0.53974277180E+03  0.19900000000E+03 0.  0.
<mgrwt>
<rscale>  0 0.10816977E+04</rscale>
<asrwt>0</asrwt>
<pdfrwt beam="1">  1        2 0.75143903E-01 0.10816977E+04</pdfrwt>
<pdfrwt beam="2">  1       -2 0.79444160E-01 0.10816977E+04</pdfrwt>
<totfact> 0.88478630E+01</totfact>
</mgrwt>
</event>
<event>
 4    1  0.5023236E-005  0.7223637E+03  0.7818608E-02  0.9679734E-01
         -2   -1    0    0    0  501 -0.00000000000E+00  0.00000000000E+00  0.18635351673E+03  0.18635351675E+03  0.25500000000E-02 0. -1.
          2   -1    0    0  501    0  0.00000000000E+00 -0.00000000000E+00 -0.70002610028E+03  0.70002610029E+03  0.25500000000E-02 0.  1.
    5000001    1    1    2    0    0 -0.16118375322E+03 -0.24489486336E+03 -0.17096325868E+03  0.39342487494E+03  0.19900000000E+03 0.  0.
   -5000001    1    1    2    0    0  0.16118375322E+03  0.24489486336E+03 -0.34270932487E+03  0.49295474210E+03  0.19900000000E+03 0.  0.
<mgrwt>
<rscale>  0 0.72236369E+03</rscale>
<asrwt>0</asrwt>
<pdfrwt beam="1">  1        2 0.10000373E+00 0.72236369E+03</pdfrwt>
<pdfrwt beam="2">  1       -2 0.26621931E-01 0.72236369E+03</pdfrwt>
<totfact> 0.57743506E+02</totfact>
</mgrwt>
</event>
<event>
 4    1  0.5023236E-005  0.4689496E+03  0.7818608E-02  0.1022217E+00
          2   -1    0    0  501    0  0.00000000000E+00  0.00000000000E+00  0.21095896133E+04  0.21095896133E+04  0.25500000000E-02 0.  1.
         -2   -1    0    0    0  501 -0.00000000000E+00 -0.00000000000E+00 -0.26061197530E+02  0.26061197655E+02  0.25500000000E-02 0. -1.
    5000001    1    1    2    0    0  0.23307828668E+02 -0.11140500623E+03  0.81758781567E+03  0.84912023096E+03  0.19900000000E+03 0.  0.
   -5000001    1    1    2    0    0 -0.23307828668E+02  0.11140500623E+03  0.12659406001E+04  0.12865305800E+04  0.19900000000E+03 0.  0.
<mgrwt>
<rscale>  0 0.46894960E+03</rscale>
<asrwt>0</asrwt>
<pdfrwt beam="1">  1        2 0.30137002E+00 0.46894960E+03</pdfrwt>
<pdfrwt beam="2">  1       -2 0.37230272E-02 0.46894960E+03</pdfrwt>
<totfact> 0.23702979E+03</totfact>
</mgrwt>
</event>
<event>
 4    1  0.5023236E-005  0.5772029E+03  0.7818608E-02  0.9953865E-01
          2   -1    0    0  501    0  0.00000000000E+00  0.00000000000E+00  0.46401764003E+03  0.46401764004E+03  0.25500000000E-02 0.  1.
         -2   -1    0    0    0  501 -0.00000000000E+00 -0.00000000000E+00 -0.17949918221E+03  0.17949918223E+03  0.25500000000E-02 0. -1.
    5000001    1    1    2    0    0  0.51190302415E+02 -0.15851397109E+03  0.14886717481E+01  0.25951944481E+03  0.19900000000E+03 0.  0.
   -5000001    1    1    2    0    0 -0.51190302415E+02  0.15851397109E+03  0.28302978607E+03  0.38399737746E+03  0.19900000000E+03 0.  0.
<mgrwt>
<rscale>  0 0.57720287E+03</rscale>
<asrwt>0</asrwt>
<pdfrwt beam="1">  1        2 0.66288234E-01 0.57720287E+03</pdfrwt>
<pdfrwt beam="2">  1       -2 0.25642740E-01 0.57720287E+03</pdfrwt>
<totfact> 0.10028337E+03</totfact>
</mgrwt>
</event>
<event>
 4    1  0.5023236E-005  0.4373612E+03  0.7818608E-02  0.1031560E+00
          2   -1    0    0  501    0  0.00000000000E+00  0.00000000000E+00  0.15842090629E+03  0.15842090631E+03  0.25500000000E-02 0.  1.
         -2   -1    0    0    0  501 -0.00000000000E+00 -0.00000000000E+00 -0.30186169608E+03  0.30186169609E+03  0.25500000000E-02 0. -1.
    5000001    1    1    2    0    0 -0.54709383018E+02  0.64385151603E+02 -0.37108489333E+02  0.21935497331E+03  0.19900000000E+03 0.  0.
   -5000001    1    1    2    0    0  0.54709383018E+02 -0.64385151603E+02 -0.10633230046E+03  0.24092762909E+03  0.19900000000E+03 0.  0.
<mgrwt>
<rscale>  0 0.43736119E+03</rscale>
<asrwt>0</asrwt>
<pdfrwt beam="1">  1        2 0.22631558E-01 0.43736119E+03</pdfrwt>
<pdfrwt beam="2">  1       -2 0.43123099E-01 0.43736119E+03</pdfrwt>
<totfact> 0.12509220E+03</totfact>
</mgrwt>
</event>
<event>
 4    1  0.5023236E-005  0.6105364E+03  0.7818608E-02  0.9883784E-01
          2   -1    0    0  501    0  0.00000000000E+00  0.00000000000E+00  0.31222217602E+03  0.31222217603E+03  0.25500000000E-02 0.  1.
         -2   -1    0    0    0  501 -0.00000000000E+00 -0.00000000000E+00 -0.29846914565E+03  0.29846914567E+03  0.25500000000E-02 0. -1.
    5000001    1    1    2    0    0  0.60556220416E+02 -0.19168309029E+03 -0.10794904900E+03  0.30275973992E+03  0.19900000000E+03 0.  0.
   -5000001    1    1    2    0    0 -0.60556220416E+02  0.19168309029E+03  0.12170207936E+03  0.30793158178E+03  0.19900000000E+03 0.  0.
<mgrwt>
<rscale>  0 0.61053644E+03</rscale>
<asrwt>0</asrwt>
<pdfrwt beam="1">  1        2 0.44603168E-01 0.61053644E+03</pdfrwt>
<pdfrwt beam="2">  1       -2 0.42638449E-01 0.61053644E+03</pdfrwt>
<totfact> 0.59874035E+02</totfact>
</mgrwt>
</event>
<event>
 4    1  0.5023236E-005  0.8837076E+03  0.7818608E-02  0.9446180E-01
          2   -1    0    0  501    0  0.00000000000E+00  0.00000000000E+00  0.13851435971E+04  0.13851435971E+04  0.25500000000E-02 0.  1.
         -2   -1    0    0    0  501 -0.00000000000E+00 -0.00000000000E+00 -0.14094911175E+03  0.14094911177E+03  0.25500000000E-02 0. -1.
    5000001    1    1    2    0    0  0.95181092565E+02 -0.36850347547E+03  0.80139374508E+03  0.90922339745E+03  0.19900000000E+03 0.  0.
   -5000001    1    1    2    0    0 -0.95181092565E+02  0.36850347547E+03  0.44280074030E+03  0.61686931146E+03  0.19900000000E+03 0.  0.
<mgrwt>
<rscale>  0 0.88370755E+03</rscale>
<asrwt>0</asrwt>
<pdfrwt beam="1">  1        2 0.19787767E+00 0.88370755E+03</pdfrwt>
<pdfrwt beam="2">  1       -2 0.20135586E-01 0.88370755E+03</pdfrwt>
<totfact> 0.35615295E+02</totfact>
</mgrwt>
</event>
<event>
 4    1  0.5023236E-005  0.5776443E+03  0.7818608E-02  0.9952904E-01
          2   -1    0    0  501    0  0.00000000000E+00  0.00000000000E+00  0.40976897239E+03  0.40976897240E+03  0.25500000000E-02 0. -1.
         -2   -1    0    0    0  501 -0.00000000000E+00 -0.00000000000E+00 -0.20357381232E+03  0.20357381234E+03  0.25500000000E-02 0.  1.
    5000001    1    1    2    0    0 -0.61058499512E+01 -0.20302144188E+03  0.49350723374E+02  0.28860263541E+03  0.19900000000E+03 0.  0.
   -5000001    1    1    2    0    0  0.61058499512E+01  0.20302144188E+03  0.15684443669E+03  0.32474014933E+03  0.19900000000E+03 0.  0.
<mgrwt>
<rscale>  0 0.57764429E+03</rscale>
<asrwt>0</asrwt>
<pdfrwt beam="1">  1        2 0.58538424E-01 0.57764429E+03</pdfrwt>
<pdfrwt beam="2">  1       -2 0.29081974E-01 0.57764429E+03</pdfrwt>
<totfact> 0.91662874E+02</totfact>
</mgrwt>
</event>
<event>
 4    1  0.5023236E-005  0.5677464E+03  0.7818608E-02  0.9974678E-01
          2   -1    0    0  501    0  0.00000000000E+00  0.00000000000E+00  0.19087843389E+04  0.19087843389E+04  0.25500000000E-02 0.  1.
         -2   -1    0    0    0  501 -0.00000000000E+00 -0.00000000000E+00 -0.42217438135E+02  0.42217438212E+02  0.25500000000E-02 0. -1.
    5000001    1    1    2    0    0  0.13638855757E+03 -0.11894548358E+03  0.62147672889E+03  0.67718844589E+03  0.19900000000E+03 0.  0.
   -5000001    1    1    2    0    0 -0.13638855757E+03  0.11894548358E+03  0.12450901719E+04  0.12738133313E+04  0.19900000000E+03 0.  0.
<mgrwt>
<rscale>  0 0.56774637E+03</rscale>
<asrwt>0</asrwt>
<pdfrwt beam="1">  1        2 0.27268348E+00 0.56774637E+03</pdfrwt>
<pdfrwt beam="2">  1       -2 0.60310624E-02 0.56774637E+03</pdfrwt>
<totfact> 0.14126532E+03</totfact>
</mgrwt>
</event>
<event>
 4    1  0.5023236E-005  0.5986524E+03  0.7818608E-02  0.9908206E-01
         -2   -1    0    0    0  501 -0.00000000000E+00  0.00000000000E+00  0.18215523317E+03  0.18215523318E+03  0.25500000000E-02 0. -1.
          2   -1    0    0  501    0  0.00000000000E+00 -0.00000000000E+00 -0.49186706129E+03  0.49186706129E+03  0.25500000000E-02 0.  1.
    5000001    1    1    2    0    0 -0.13398129861E+03  0.14050073283E+03 -0.29968779844E+02  0.27962577147E+03  0.19900000000E+03 0.  0.
   -5000001    1    1    2    0    0  0.13398129861E+03 -0.14050073283E+03 -0.27974304827E+03  0.39439652301E+03  0.19900000000E+03 0.  0.
<mgrwt>
<rscale>  0 0.59865235E+03</rscale>
<asrwt>0</asrwt>
<pdfrwt beam="1">  1        2 0.70266723E-01 0.59865235E+03</pdfrwt>
<pdfrwt beam="2">  1       -2 0.26022176E-01 0.59865235E+03</pdfrwt>
<totfact> 0.91416648E+02</totfact>
</mgrwt>
</event>
<event>
 4    1  0.5023236E-005  0.5301460E+03  0.7818608E-02  0.1006197E+00
         -2   -1    0    0    0  501 -0.00000000000E+00  0.00000000000E+00  0.33787208261E+02  0.33787208357E+02  0.25500000000E-02 0. -1.
          2   -1    0    0  501    0  0.00000000000E+00 -0.00000000000E+00 -0.20795945503E+04  0.20795945503E+04  0.25500000000E-02 0.  1.
    5000001    1    1    2    0    0  0.29111990175E+02  0.16971226100E+03 -0.89602950285E+03  0.93387345475E+03  0.19900000000E+03 0.  0.
   -5000001    1    1    2    0    0 -0.29111990175E+02 -0.16971226100E+03 -0.11497778392E+04  0.11795083039E+04  0.19900000000E+03 0.  0.
<mgrwt>
<rscale>  0 0.53014600E+03</rscale>
<asrwt>0</asrwt>
<pdfrwt beam="1">  1        2 0.29708485E+00 0.53014600E+03</pdfrwt>
<pdfrwt beam="2">  1       -2 0.48267454E-02 0.53014600E+03</pdfrwt>
<totfact> 0.16430581E+03</totfact>
</mgrwt>
</event>
<event>
 4    1  0.5023236E-005  0.5937615E+03  0.7818608E-02  0.9918434E-01
          2   -1    0    0  501    0  0.00000000000E+00  0.00000000000E+00  0.32903919348E+03  0.32903919349E+03  0.25500000000E-02 0.  1.
         -2   -1    0    0    0  501 -0.00000000000E+00 -0.00000000000E+00 -0.26786528905E+03  0.26786528906E+03  0.25500000000E-02 0. -1.
    5000001    1    1    2    0    0 -0.76375609014E+02 -0.16598954747E+03 -0.93155696486E+02  0.28577044513E+03  0.19900000000E+03 0.  0.
   -5000001    1    1    2    0    0  0.76375609014E+02  0.16598954747E+03  0.15432960091E+03  0.31113403742E+03  0.19900000000E+03 0.  0.
<mgrwt>
<rscale>  0 0.59376150E+03</rscale>
<asrwt>0</asrwt>
<pdfrwt beam="1">  1        2 0.47005599E-01 0.59376150E+03</pdfrwt>
<pdfrwt beam="2">  1       -2 0.38266470E-01 0.59376150E+03</pdfrwt>
<totfact> 0.69755172E+02</totfact>
</mgrwt>
</event>
<event>
 4    1  0.5023236E-005  0.4749942E+03  0.7818608E-02  0.1020520E+00
          2   -1    0    0  501    0  0.00000000000E+00  0.00000000000E+00  0.66780851069E+03  0.66780851070E+03  0.25500000000E-02 0.  1.
         -2   -1    0    0    0  501 -0.00000000000E+00 -0.00000000000E+00 -0.84462641629E+02  0.84462641668E+02  0.25500000000E-02 0. -1.
    5000001    1    1    2    0    0 -0.91969646146E+02 -0.31507731800E+02  0.42747615252E+03  0.48144367682E+03  0.19900000000E+03 0.  0.
   -5000001    1    1    2    0    0  0.91969646146E+02  0.31507731800E+02  0.15586971654E+03  0.27082747555E+03  0.19900000000E+03 0.  0.
<mgrwt>
<rscale>  0 0.47499419E+03</rscale>
<asrwt>0</asrwt>
<pdfrwt beam="1">  1        2 0.95401215E-01 0.47499419E+03</pdfrwt>
<pdfrwt beam="2">  1       -2 0.12066092E-01 0.47499419E+03</pdfrwt>
<totfact> 0.23934357E+03</totfact>
</mgrwt>
</event>
<event>
 4    1  0.5023236E-005  0.5254439E+03  0.7818608E-02  0.1007343E+00
          2   -1    0    0  501    0  0.00000000000E+00  0.00000000000E+00  0.29359866984E+03  0.29359866985E+03  0.25500000000E-02 0.  1.
         -2   -1    0    0    0  501 -0.00000000000E+00 -0.00000000000E+00 -0.23509243559E+03  0.23509243560E+03  0.25500000000E-02 0. -1.
    5000001    1    1    2    0    0 -0.13263669602E+03 -0.10080083573E+03  0.70353130967E+02  0.26889377950E+03  0.19900000000E+03 0.  0.
   -5000001    1    1    2    0    0  0.13263669602E+03  0.10080083573E+03 -0.11846896711E+02  0.25979732596E+03  0.19900000000E+03 0.  0.
<mgrwt>
<rscale>  0 0.52544391E+03</rscale>
<asrwt>0</asrwt>
<pdfrwt beam="1">  1        2 0.41942667E-01 0.52544391E+03</pdfrwt>
<pdfrwt beam="2">  1       -2 0.33584634E-01 0.52544391E+03</pdfrwt>
<totfact> 0.10139677E+03</totfact>
</mgrwt>
</event>
<event>
 4    1  0.5023236E-005  0.6857358E+03  0.7818608E-02  0.9741942E-01
         -2   -1    0    0    0  501 -0.00000000000E+00  0.00000000000E+00  0.62156389670E+03  0.62156389671E+03  0.25500000000E-02 0. -1.
          2   -1    0    0  501    0  0.00000000000E+00 -0.00000000000E+00 -0.18913327122E+03  0.18913327124E+03  0.25500000000E-02 0.  1.
    5000001    1    1    2    0    0  0.24456709080E+03  0.95868662147E+02  0.10434896654E+03  0.34567841862E+03  0.19900000000E+03 0.  0.
   -5000001    1    1    2    0    0 -0.24456709080E+03 -0.95868662147E+02  0.32808165894E+03  0.46501874932E+03  0.19900000000E+03 0.  0.
<mgrwt>
<rscale>  0 0.68573585E+03</rscale>
<asrwt>0</asrwt>
<pdfrwt beam="1">  1        2 0.27019039E-01 0.68573585E+03</pdfrwt>
<pdfrwt beam="2">  1       -2 0.88794842E-01 0.68573585E+03</pdfrwt>
<totfact> 0.22072969E+02</totfact>
</mgrwt>
</event>
<event>
 4    1  0.5023236E-005  0.7954174E+03  0.7818608E-02  0.9566674E-01
         -2   -1    0    0    0  501 -0.00000000000E+00  0.00000000000E+00  0.10908907422E+03  0.10908907425E+03  0.25500000000E-02 0. -1.
          2   -1    0    0  501    0  0.00000000000E+00 -0.00000000000E+00 -0.14499362537E+04  0.14499362537E+04  0.25500000000E-02 0.  1.
    5000001    1    1    2    0    0  0.43581964462E+02 -0.30676400023E+03 -0.37598047879E+03  0.52627546009E+03  0.19900000000E+03 0.  0.
   -5000001    1    1    2    0    0 -0.43581964462E+02  0.30676400023E+03 -0.96486670064E+03  0.10327498678E+04  0.19900000000E+03 0.  0.
<mgrwt>
<rscale>  0 0.79541738E+03</rscale>
<asrwt>0</asrwt>
<pdfrwt beam="1">  1        2 0.20713374E+00 0.79541738E+03</pdfrwt>
<pdfrwt beam="2">  1       -2 0.15584154E-01 0.79541738E+03</pdfrwt>
<totfact> 0.51401481E+02</totfact>
</mgrwt>
</event>
<event>
 4    1  0.5023236E-005  0.1076489E+04  0.7818608E-02  0.9228415E-01
         -2   -1    0    0    0  501 -0.00000000000E+00  0.00000000000E+00  0.55969270125E+03  0.55969270125E+03  0.25500000000E-02 0. -1.
          2   -1    0    0  501    0  0.00000000000E+00 -0.00000000000E+00 -0.51761868044E+03  0.51761868044E+03  0.25500000000E-02 0.  1.
    5000001    1    1    2    0    0  0.44446782825E+03 -0.16466375134E+03 -0.13858585471E+03  0.53242167544E+03  0.19900000000E+03 0.  0.
   -5000001    1    1    2    0    0 -0.44446782825E+03  0.16466375134E+03  0.18065987552E+03  0.54488970625E+03  0.19900000000E+03 0.  0.
<mgrwt>
<rscale>  0 0.10764895E+04</rscale>
<asrwt>0</asrwt>
<pdfrwt beam="1">  1        2 0.73945525E-01 0.10764895E+04</pdfrwt>
<pdfrwt beam="2">  1       -2 0.79956101E-01 0.10764895E+04</pdfrwt>
<totfact> 0.88873549E+01</totfact>
</mgrwt>
</event>
<event>
 4    1  0.5023236E-005  0.5984751E+03  0.7818608E-02  0.9908575E-01
          2   -1    0    0  501    0  0.00000000000E+00  0.00000000000E+00  0.12630848359E+04  0.12630848359E+04  0.25500000000E-02 0.  1.
         -2   -1    0    0    0  501 -0.00000000000E+00 -0.00000000000E+00 -0.70892391203E+02  0.70892391248E+02  0.25500000000E-02 0. -1.
    5000001    1    1    2    0    0 -0.20271562637E+03 -0.64144450032E+02  0.74945725976E+03  0.80404932675E+03  0.19900000000E+03 0.  0.
   -5000001    1    1    2    0    0  0.20271562637E+03  0.64144450032E+02  0.44273518495E+03  0.52992790041E+03  0.19900000000E+03 0.  0.
<mgrwt>
<rscale>  0 0.59847508E+03</rscale>
<asrwt>0</asrwt>
<pdfrwt beam="1">  1        2 0.18044068E+00 0.59847508E+03</pdfrwt>
<pdfrwt beam="2">  1       -2 0.10127485E-01 0.59847508E+03</pdfrwt>
<totfact> 0.13358261E+03</totfact>
</mgrwt>
</event>
<event>
 4    1  0.5023236E-005  0.6009508E+03  0.7818608E-02  0.9903435E-01
         -2   -1    0    0    0  501 -0.00000000000E+00  0.00000000000E+00  0.11255283778E+03  0.11255283781E+03  0.25500000000E-02 0. -1.
          2   -1    0    0  501    0  0.00000000000E+00 -0.00000000000E+00 -0.80216073704E+03  0.80216073705E+03  0.25500000000E-02 0.  1.
    5000001    1    1    2    0    0 -0.11850307834E+03 -0.19112291165E+03 -0.32858647826E+03  0.44513034117E+03  0.19900000000E+03 0.  0.
   -5000001    1    1    2    0    0  0.11850307834E+03  0.19112291165E+03 -0.36102142100E+03  0.46958323368E+03  0.19900000000E+03 0.  0.
<mgrwt>
<rscale>  0 0.60095080E+03</rscale>
<asrwt>0</asrwt>
<pdfrwt beam="1">  1        2 0.11459439E+00 0.60095080E+03</pdfrwt>
<pdfrwt beam="2">  1       -2 0.16078977E-01 0.60095080E+03</pdfrwt>
<totfact> 0.11820411E+03</totfact>
</mgrwt>
</event>
<event>
 4    1  0.5023236E-005  0.8371880E+03  0.7818608E-02  0.9507696E-01
         -2   -1    0    0    0  501 -0.00000000000E+00  0.00000000000E+00  0.31468820639E+03  0.31468820640E+03  0.25500000000E-02 0. -1.
          2   -1    0    0  501    0  0.00000000000E+00 -0.00000000000E+00 -0.55680808251E+03  0.55680808252E+03  0.25500000000E-02 0.  1.
    5000001    1    1    2    0    0  0.36206230712E+03 -0.67263314748E+02 -0.12370760197E+03  0.43648372081E+03  0.19900000000E+03 0.  0.
   -5000001    1    1    2    0    0 -0.36206230712E+03  0.67263314748E+02 -0.11841227415E+03  0.43501256811E+03  0.19900000000E+03 0.  0.
<mgrwt>
<rscale>  0 0.83718800E+03</rscale>
<asrwt>0</asrwt>
<pdfrwt beam="1">  1        2 0.79544011E-01 0.83718800E+03</pdfrwt>
<pdfrwt beam="2">  1       -2 0.44955458E-01 0.83718800E+03</pdfrwt>
<totfact> 0.27933838E+02</totfact>
</mgrwt>
</event>
<event>
 4    1  0.5023236E-005  0.1189012E+04  0.7818608E-02  0.9122529E-01
          2   -1    0    0  501    0  0.00000000000E+00  0.00000000000E+00  0.39990451298E+04  0.39990451298E+04  0.25500000000E-02 0.  1.
         -2   -1    0    0    0  501 -0.00000000000E+00 -0.00000000000E+00 -0.88380445927E+02  0.88380445964E+02  0.25500000000E-02 0. -1.
    5000001    1    1    2    0    0 -0.21629550396E+03 -0.56007297180E+02  0.18930942313E+03  0.35406160489E+03  0.19900000000E+03 0.  0.
   -5000001    1    1    2    0    0  0.21629550396E+03  0.56007297180E+02  0.37213552608E+04  0.37333639709E+04  0.19900000000E+03 0.  0.
<mgrwt>
<rscale>  0 0.11890120E+04</rscale>
<asrwt>0</asrwt>
<pdfrwt beam="1">  1        2 0.57129213E+00 0.11890120E+04</pdfrwt>
<pdfrwt beam="2">  1       -2 0.12625779E-01 0.11890120E+04</pdfrwt>
<totfact> 0.27328623E+01</totfact>
</mgrwt>
</event>
<event>
 4    1  0.5023236E-005  0.5555252E+03  0.7818608E-02  0.1000223E+00
         -2   -1    0    0    0  501 -0.00000000000E+00  0.00000000000E+00  0.29627724476E+03  0.29627724477E+03  0.25500000000E-02 0. -1.
          2   -1    0    0  501    0  0.00000000000E+00 -0.00000000000E+00 -0.26040492904E+03  0.26040492905E+03  0.25500000000E-02 0.  1.
    5000001    1    1    2    0    0 -0.13335091170E+03 -0.13993511457E+03  0.31630378469E+02  0.27922353551E+03  0.19900000000E+03 0.  0.
   -5000001    1    1    2    0    0  0.13335091170E+03  0.13993511457E+03  0.42419372544E+01  0.27745863831E+03  0.19900000000E+03 0.  0.
<mgrwt>
<rscale>  0 0.55552517E+03</rscale>
<asrwt>0</asrwt>
<pdfrwt beam="1">  1        2 0.37200704E-01 0.55552517E+03</pdfrwt>
<pdfrwt beam="2">  1       -2 0.42325321E-01 0.55552517E+03</pdfrwt>
<totfact> 0.74278686E+02</totfact>
</mgrwt>
</event>
<event>
 4    1  0.5023236E-005  0.9565210E+03  0.7818608E-02  0.9357561E-01
          2   -1    0    0  501    0  0.00000000000E+00  0.00000000000E+00  0.95603575907E+03  0.95603575907E+03  0.25500000000E-02 0.  1.
         -2   -1    0    0    0  501 -0.00000000000E+00 -0.00000000000E+00 -0.23925162654E+03  0.23925162655E+03  0.25500000000E-02 0. -1.
    5000001    1    1    2    0    0 -0.40194511765E+03 -0.10944488180E+03  0.20234439468E+03  0.50406578322E+03  0.19900000000E+03 0.  0.
   -5000001    1    1    2    0    0  0.40194511765E+03  0.10944488180E+03  0.51443973785E+03  0.69122160240E+03  0.19900000000E+03 0.  0.
<mgrwt>
<rscale>  0 0.95652101E+03</rscale>
<asrwt>0</asrwt>
<pdfrwt beam="1">  1        2 0.13657654E+00 0.95652101E+03</pdfrwt>
<pdfrwt beam="2">  1       -2 0.34178803E-01 0.95652101E+03</pdfrwt>
<totfact> 0.23939836E+02</totfact>
</mgrwt>
</event>
<event>
 4    1  0.5023236E-005  0.5415806E+03  0.7818608E-02  0.1003462E+00
         -2   -1    0    0    0  501 -0.00000000000E+00  0.00000000000E+00  0.12761317156E+03  0.12761317158E+03  0.25500000000E-02 0. -1.
          2   -1    0    0  501    0  0.00000000000E+00 -0.00000000000E+00 -0.57460662187E+03  0.57460662188E+03  0.25500000000E-02 0.  1.
    5000001    1    1    2    0    0 -0.87273942903E+02  0.15714403066E+02 -0.43201631044E+03  0.48384168491E+03  0.19900000000E+03 0.  0.
   -5000001    1    1    2    0    0  0.87273942903E+02 -0.15714403066E+02 -0.14977139876E+02  0.21837810855E+03  0.19900000000E+03 0.  0.
<mgrwt>
<rscale>  0 0.54158055E+03</rscale>
<asrwt>0</asrwt>
<pdfrwt beam="1">  1        2 0.82086659E-01 0.54158055E+03</pdfrwt>
<pdfrwt beam="2">  1       -2 0.18230453E-01 0.54158055E+03</pdfrwt>
<totfact> 0.14312657E+03</totfact>
</mgrwt>
</event>
<event>
 4    1  0.5023236E-005  0.7646831E+03  0.7818608E-02  0.9612592E-01
         -2   -1    0    0    0  501 -0.00000000000E+00  0.00000000000E+00  0.16534168456E+03  0.16534168458E+03  0.25500000000E-02 0. -1.
          2   -1    0    0  501    0  0.00000000000E+00 -0.00000000000E+00 -0.88413922853E+03  0.88413922854E+03  0.25500000000E-02 0.  1.
    5000001    1    1    2    0    0 -0.78266218426E+02 -0.30520007558E+03 -0.47675139149E+03  0.60511616766E+03  0.19900000000E+03 0.  0.
   -5000001    1    1    2    0    0  0.78266218426E+02  0.30520007558E+03 -0.24204615248E+03  0.44436474546E+03  0.19900000000E+03 0.  0.
<mgrwt>
<rscale>  0 0.76468312E+03</rscale>
<asrwt>0</asrwt>
<pdfrwt beam="1">  1        2 0.12630560E+00 0.76468312E+03</pdfrwt>
<pdfrwt beam="2">  1       -2 0.23620241E-01 0.76468312E+03</pdfrwt>
<totfact> 0.53051611E+02</totfact>
</mgrwt>
</event>
<event>
 4    1  0.5023236E-005  0.5749207E+03  0.7818608E-02  0.9958848E-01
         -2   -1    0    0    0  501 -0.00000000000E+00  0.00000000000E+00  0.28252260733E+03  0.28252260734E+03  0.25500000000E-02 0. -1.
          2   -1    0    0  501    0  0.00000000000E+00 -0.00000000000E+00 -0.29248442481E+03  0.29248442482E+03  0.25500000000E-02 0.  1.
    5000001    1    1    2    0    0  0.29902652216E+02 -0.16670080030E+03  0.11482495502E+03  0.28542791686E+03  0.19900000000E+03 0.  0.
   -5000001    1    1    2    0    0 -0.29902652216E+02  0.16670080030E+03 -0.12478677250E+03  0.28957911531E+03  0.19900000000E+03 0.  0.
<mgrwt>
<rscale>  0 0.57492073E+03</rscale>
<asrwt>0</asrwt>
<pdfrwt beam="1">  1        2 0.41783489E-01 0.57492073E+03</pdfrwt>
<pdfrwt beam="2">  1       -2 0.40360372E-01 0.57492073E+03</pdfrwt>
<totfact> 0.71668154E+02</totfact>
</mgrwt>
</event>
<event>
 4    1  0.5023236E-005  0.4942743E+03  0.7818608E-02  0.1015284E+00
          2   -1    0    0  501    0  0.00000000000E+00  0.00000000000E+00  0.20796528192E+03  0.20796528193E+03  0.25500000000E-02 0.  1.
         -2   -1    0    0    0  501 -0.00000000000E+00 -0.00000000000E+00 -0.29368740089E+03  0.29368740090E+03  0.25500000000E-02 0. -1.
    5000001    1    1    2    0    0 -0.41916089094E+02 -0.13906369323E+03 -0.62648603842E+02  0.25420762550E+03  0.19900000000E+03 0.  0.
   -5000001    1    1    2    0    0  0.41916089094E+02  0.13906369323E+03 -0.23073515132E+02  0.24744505734E+03  0.19900000000E+03 0.  0.
<mgrwt>
<rscale>  0 0.49427435E+03</rscale>
<asrwt>0</asrwt>
<pdfrwt beam="1">  1        2 0.29709326E-01 0.49427435E+03</pdfrwt>
<pdfrwt beam="2">  1       -2 0.41955343E-01 0.49427435E+03</pdfrwt>
<totfact> 0.97060133E+02</totfact>
</mgrwt>
</event>
<event>
 4    1  0.5023236E-005  0.5077178E+03  0.7818608E-02  0.1011784E+00
          2   -1    0    0  501    0  0.00000000000E+00  0.00000000000E+00  0.53176226673E+03  0.53176226673E+03  0.25500000000E-02 0. -1.
         -2   -1    0    0    0  501 -0.00000000000E+00 -0.00000000000E+00 -0.12119011398E+03  0.12119011401E+03  0.25500000000E-02 0.  1.
    5000001    1    1    2    0    0 -0.75946453900E+02 -0.13809582594E+03  0.20240786525E+03  0.32466639019E+03  0.19900000000E+03 0.  0.
   -5000001    1    1    2    0    0  0.75946453900E+02  0.13809582594E+03  0.20816428750E+03  0.32828599055E+03  0.19900000000E+03 0.  0.
<mgrwt>
<rscale>  0 0.50771776E+03</rscale>
<asrwt>0</asrwt>
<pdfrwt beam="1">  1        2 0.75966039E-01 0.50771776E+03</pdfrwt>
<pdfrwt beam="2">  1       -2 0.17312873E-01 0.50771776E+03</pdfrwt>
<totfact> 0.17094256E+03</totfact>
</mgrwt>
</event>
<event>
 4    1  0.5023236E-005  0.5326151E+03  0.7818608E-02  0.1005600E+00
         -2   -1    0    0    0  501 -0.00000000000E+00  0.00000000000E+00  0.30340604110E+02  0.30340604217E+02  0.25500000000E-02 0. -1.
          2   -1    0    0  501    0  0.00000000000E+00 -0.00000000000E+00 -0.23374518655E+04  0.23374518655E+04  0.25500000000E-02 0.  1.
    5000001    1    1    2    0    0  0.16349607805E+03 -0.27786680326E+02 -0.87894737988E+03  0.91632557736E+03  0.19900000000E+03 0.  0.
   -5000001    1    1    2    0    0 -0.16349607805E+03  0.27786680326E+02 -0.14281638815E+04  0.14514668924E+04  0.19900000000E+03 0.  0.
<mgrwt>
<rscale>  0 0.53261506E+03</rscale>
<asrwt>0</asrwt>
<pdfrwt beam="1">  1        2 0.33392158E+00 0.53261506E+03</pdfrwt>
<pdfrwt beam="2">  1       -2 0.43343735E-02 0.53261506E+03</pdfrwt>
<totfact> 0.14392083E+03</totfact>
</mgrwt>
</event>
<event>
 4    1  0.5023236E-005  0.5222385E+03  0.7818608E-02  0.1008132E+00
         -2   -1    0    0    0  501 -0.00000000000E+00  0.00000000000E+00  0.20435274950E+02  0.20435275109E+02  0.25500000000E-02 0. -1.
          2   -1    0    0  501    0  0.00000000000E+00 -0.00000000000E+00 -0.33365472727E+04  0.33365472727E+04  0.25500000000E-02 0.  1.
    5000001    1    1    2    0    0  0.12127236095E+03  0.11713627208E+03 -0.17379217927E+04  0.17573847186E+04  0.19900000000E+03 0.  0.
   -5000001    1    1    2    0    0 -0.12127236095E+03 -0.11713627208E+03 -0.15781902051E+04  0.15995978292E+04  0.19900000000E+03 0.  0.
<mgrwt>
<rscale>  0 0.52223849E+03</rscale>
<asrwt>0</asrwt>
<pdfrwt beam="1">  1        2 0.47664926E+00 0.52223849E+03</pdfrwt>
<pdfrwt beam="2">  1       -2 0.29193271E-02 0.52223849E+03</pdfrwt>
<totfact> 0.77251899E+02</totfact>
</mgrwt>
</event>
<event>
 4    1  0.5023236E-005  0.7673165E+03  0.7818608E-02  0.9608568E-01
         -2   -1    0    0    0  501 -0.00000000000E+00  0.00000000000E+00  0.69625201978E+02  0.69625202024E+02  0.25500000000E-02 0. -1.
          2   -1    0    0  501    0  0.00000000000E+00 -0.00000000000E+00 -0.21140858974E+04  0.21140858974E+04  0.25500000000E-02 0.  1.
    5000001    1    1    2    0    0  0.29895031074E+03  0.29643215207E+02 -0.13970120301E+04  0.14427382371E+04  0.19900000000E+03 0.  0.
   -5000001    1    1    2    0    0 -0.29895031074E+03 -0.29643215207E+02 -0.64744866534E+03  0.74097286236E+03  0.19900000000E+03 0.  0.
<mgrwt>
<rscale>  0 0.76731651E+03</rscale>
<asrwt>0</asrwt>
<pdfrwt beam="1">  1        2 0.30201223E+00 0.76731651E+03</pdfrwt>
<pdfrwt beam="2">  1       -2 0.99464587E-02 0.76731651E+03</pdfrwt>
<totfact> 0.49546511E+02</totfact>
</mgrwt>
</event>
<event>
 4    1  0.5023236E-005  0.1121476E+04  0.7818608E-02  0.9184509E-01
         -2   -1    0    0    0  501 -0.00000000000E+00  0.00000000000E+00  0.88440193711E+02  0.88440193747E+02  0.25500000000E-02 0. -1.
          2   -1    0    0  501    0  0.00000000000E+00 -0.00000000000E+00 -0.35552504517E+04  0.35552504517E+04  0.25500000000E-02 0.  1.
    5000001    1    1    2    0    0  0.47466192353E+03  0.22199569612E+03 -0.16830707881E+04  0.17739544268E+04  0.19900000000E+03 0.  0.
   -5000001    1    1    2    0    0 -0.47466192353E+03 -0.22199569612E+03 -0.17837394699E+04  0.18697362186E+04  0.19900000000E+03 0.  0.
<mgrwt>
<rscale>  0 0.11214759E+04</rscale>
<asrwt>0</asrwt>
<pdfrwt beam="1">  1        2 0.50789283E+00 0.11214759E+04</pdfrwt>
<pdfrwt beam="2">  1       -2 0.12634316E-01 0.11214759E+04</pdfrwt>
<totfact> 0.53017768E+01</totfact>
</mgrwt>
</event>
<event>
 4    1  0.5023236E-005  0.6880228E+03  0.7818608E-02  0.9737937E-01
         -2   -1    0    0    0  501 -0.00000000000E+00  0.00000000000E+00  0.41558879419E+02  0.41558879497E+02  0.25500000000E-02 0. -1.
          2   -1    0    0  501    0  0.00000000000E+00 -0.00000000000E+00 -0.28476186661E+04  0.28476186661E+04  0.25500000000E-02 0.  1.
    5000001    1    1    2    0    0 -0.29288127066E+02  0.20660869498E+03 -0.21908548650E+04  0.22097490777E+04  0.19900000000E+03 0.  0.
   -5000001    1    1    2    0    0  0.29288127066E+02 -0.20660869498E+03 -0.61520492168E+03  0.67942846782E+03  0.19900000000E+03 0.  0.
<mgrwt>
<rscale>  0 0.68802279E+03</rscale>
<asrwt>0</asrwt>
<pdfrwt beam="1">  1        2 0.40680254E+00 0.68802279E+03</pdfrwt>
<pdfrwt beam="2">  1       -2 0.59369846E-02 0.68802279E+03</pdfrwt>
<totfact> 0.47442103E+02</totfact>
</mgrwt>
</event>
<event>
 4    1  0.5023236E-005  0.4659301E+03  0.7818608E-02  0.1023075E+00
         -2   -1    0    0    0  501 -0.00000000000E+00  0.00000000000E+00  0.35321442959E+02  0.35321443051E+02  0.25500000000E-02 0.  1.
          2   -1    0    0  501    0  0.00000000000E+00 -0.00000000000E+00 -0.15365374856E+04  0.15365374856E+04  0.25500000000E-02 0. -1.
    5000001    1    1    2    0    0  0.11480435842E+03 -0.30239469150E+02 -0.83166242797E+03  0.86334110310E+03  0.19900000000E+03 0.  0.
   -5000001    1    1    2    0    0 -0.11480435842E+03  0.30239469150E+02 -0.66955361467E+03  0.70851782555E+03  0.19900000000E+03 0.  0.
<mgrwt>
<rscale>  0 0.46593013E+03</rscale>
<asrwt>0</asrwt>
<pdfrwt beam="1">  1        2 0.21950531E+00 0.46593013E+03</pdfrwt>
<pdfrwt beam="2">  1       -2 0.50459214E-02 0.46593013E+03</pdfrwt>
<totfact> 0.28843975E+03</totfact>
</mgrwt>
</event>
<event>
 4    1  0.5023236E-005  0.5188606E+03  0.7818608E-02  0.1008970E+00
         -2   -1    0    0    0  501 -0.00000000000E+00  0.00000000000E+00  0.33748517365E+02  0.33748517461E+02  0.25500000000E-02 0. -1.
          2   -1    0    0  501    0  0.00000000000E+00 -0.00000000000E+00 -0.19942828564E+04  0.19942828564E+04  0.25500000000E-02 0.  1.
    5000001    1    1    2    0    0  0.14069869149E+03  0.87724809667E+02 -0.92344731809E+03  0.95908691645E+03  0.19900000000E+03 0.  0.
   -5000001    1    1    2    0    0 -0.14069869149E+03 -0.87724809667E+02 -0.10370870209E+04  0.10689444574E+04  0.19900000000E+03 0.  0.
<mgrwt>
<rscale>  0 0.51886064E+03</rscale>
<asrwt>0</asrwt>
<pdfrwt beam="1">  1        2 0.28489748E+00 0.51886064E+03</pdfrwt>
<pdfrwt beam="2">  1       -2 0.48212180E-02 0.51886064E+03</pdfrwt>
<totfact> 0.18167237E+03</totfact>
</mgrwt>
</event>
<event>
 4    1  0.5023236E-005  0.6814108E+03  0.7818608E-02  0.9749561E-01
          2   -1    0    0  501    0  0.00000000000E+00  0.00000000000E+00  0.40728381813E+03  0.40728381814E+03  0.25500000000E-02 0.  1.
         -2   -1    0    0    0  501 -0.00000000000E+00 -0.00000000000E+00 -0.28501048014E+03  0.28501048015E+03  0.25500000000E-02 0. -1.
    5000001    1    1    2    0    0  0.11922362882E+03  0.24383156992E+03  0.72705199445E+01  0.33663328508E+03  0.19900000000E+03 0.  0.
   -5000001    1    1    2    0    0 -0.11922362882E+03 -0.24383156992E+03  0.11500281804E+03  0.35566101321E+03  0.19900000000E+03 0.  0.
<mgrwt>
<rscale>  0 0.68141076E+03</rscale>
<asrwt>0</asrwt>
<pdfrwt beam="1">  1        2 0.58183402E-01 0.68141076E+03</pdfrwt>
<pdfrwt beam="2">  1       -2 0.40715783E-01 0.68141076E+03</pdfrwt>
<totfact> 0.48734344E+02</totfact>
</mgrwt>
</event>
<event>
 4    1  0.5023236E-005  0.1233283E+04  0.7818608E-02  0.9084213E-01
          2   -1    0    0  501    0  0.00000000000E+00  0.00000000000E+00  0.12314320887E+04  0.12314320887E+04  0.25500000000E-02 0.  1.
         -2   -1    0    0    0  501 -0.00000000000E+00 -0.00000000000E+00 -0.30878409659E+03  0.30878409660E+03  0.25500000000E-02 0. -1.
    5000001    1    1    2    0    0  0.30955380732E+03 -0.40711061875E+03  0.11011903611E+03  0.55972298295E+03  0.19900000000E+03 0.  0.
   -5000001    1    1    2    0    0 -0.30955380732E+03  0.40711061875E+03  0.81252895603E+03  0.98049320238E+03  0.19900000000E+03 0.  0.
<mgrwt>
<rscale>  0 0.12332828E+04</rscale>
<asrwt>0</asrwt>
<pdfrwt beam="1">  1        2 0.17591887E+00 0.12332828E+04</pdfrwt>
<pdfrwt beam="2">  1       -2 0.44112015E-01 0.12332828E+04</pdfrwt>
<totfact> 0.98387479E+01</totfact>
</mgrwt>
</event>
<event>
 4    1  0.5023236E-005  0.6808760E+03  0.7818608E-02  0.9750508E-01
         -2   -1    0    0    0  501 -0.00000000000E+00  0.00000000000E+00  0.16917370302E+03  0.16917370304E+03  0.25500000000E-02 0.  1.
          2   -1    0    0  501    0  0.00000000000E+00 -0.00000000000E+00 -0.68508297953E+03  0.68508297953E+03  0.25500000000E-02 0. -1.
    5000001    1    1    2    0    0 -0.50349137836E+02 -0.17145774749E+03 -0.52221793275E+03  0.58672426585E+03  0.19900000000E+03 0.  0.
   -5000001    1    1    2    0    0  0.50349137836E+02  0.17145774749E+03  0.63086562408E+01  0.26753241672E+03  0.19900000000E+03 0.  0.
<mgrwt>
<rscale>  0 0.68087598E+03</rscale>
<asrwt>0</asrwt>
<pdfrwt beam="1">  1        2 0.97868996E-01 0.68087598E+03</pdfrwt>
<pdfrwt beam="2">  1       -2 0.24167672E-01 0.68087598E+03</pdfrwt>
<totfact> 0.70675478E+02</totfact>
</mgrwt>
</event>
<event>
 4    1  0.5023236E-005  0.7640493E+03  0.7818608E-02  0.9613564E-01
          2   -1    0    0  501    0  0.00000000000E+00  0.00000000000E+00  0.24415221910E+03  0.24415221911E+03  0.25500000000E-02 0. -1.
         -2   -1    0    0    0  501 -0.00000000000E+00 -0.00000000000E+00 -0.59775339037E+03  0.59775339037E+03  0.25500000000E-02 0.  1.
    5000001    1    1    2    0    0  0.21270349810E+03 -0.94606077216E+02  0.74830278258E+02  0.31526759823E+03  0.19900000000E+03 0.  0.
   -5000001    1    1    2    0    0 -0.21270349810E+03  0.94606077216E+02 -0.42843144953E+03  0.52663801125E+03  0.19900000000E+03 0.  0.
<mgrwt>
<rscale>  0 0.76404926E+03</rscale>
<asrwt>0</asrwt>
<pdfrwt beam="1">  1        2 0.34878889E-01 0.76404926E+03</pdfrwt>
<pdfrwt beam="2">  1       -2 0.85393341E-01 0.76404926E+03</pdfrwt>
<totfact> 0.18050774E+02</totfact>
</mgrwt>
</event>
<event>
 4    1  0.5023236E-005  0.4727552E+03  0.7818608E-02  0.1021145E+00
         -2   -1    0    0    0  501 -0.00000000000E+00  0.00000000000E+00  0.30738335017E+02  0.30738335122E+02  0.25500000000E-02 0. -1.
          2   -1    0    0  501    0  0.00000000000E+00 -0.00000000000E+00 -0.18177422163E+04  0.18177422163E+04  0.25500000000E-02 0.  1.
    5000001    1    1    2    0    0 -0.57211367776E+02 -0.10966203176E+03 -0.77144506365E+03  0.80624275999E+03  0.19900000000E+03 0.  0.
   -5000001    1    1    2    0    0  0.57211367776E+02  0.10966203176E+03 -0.10155588176E+04  0.10422377914E+04  0.19900000000E+03 0.  0.
<mgrwt>
<rscale>  0 0.47275520E+03</rscale>
<asrwt>0</asrwt>
<pdfrwt beam="1">  1        2 0.25967739E+00 0.47275520E+03</pdfrwt>
<pdfrwt beam="2">  1       -2 0.43911919E-02 0.47275520E+03</pdfrwt>
<totfact> 0.25742350E+03</totfact>
</mgrwt>
</event>
<event>
 4    1  0.5023236E-005  0.6893839E+03  0.7818608E-02  0.9735561E-01
         -2   -1    0    0    0  501 -0.00000000000E+00  0.00000000000E+00  0.77089091126E+02  0.77089091168E+02  0.25500000000E-02 0. -1.
          2   -1    0    0  501    0  0.00000000000E+00 -0.00000000000E+00 -0.15412368440E+04  0.15412368440E+04  0.25500000000E-02 0.  1.
    5000001    1    1    2    0    0 -0.65113411712E+02 -0.19130101181E+03 -0.11919417589E+04  0.12252191601E+04  0.19900000000E+03 0.  0.
   -5000001    1    1    2    0    0  0.65113411712E+02  0.19130101181E+03 -0.27220599397E+03  0.39310677514E+03  0.19900000000E+03 0.  0.
<mgrwt>
<rscale>  0 0.68938392E+03</rscale>
<asrwt>0</asrwt>
<pdfrwt beam="1">  1        2 0.22017667E+00 0.68938392E+03</pdfrwt>
<pdfrwt beam="2">  1       -2 0.11012728E-01 0.68938392E+03</pdfrwt>
<totfact> 0.82537052E+02</totfact>
</mgrwt>
</event>
<event>
 4    1  0.5023236E-005  0.4325903E+03  0.7818608E-02  0.1033045E+00
          2   -1    0    0  501    0  0.00000000000E+00  0.00000000000E+00  0.15099346118E+04  0.15099346118E+04  0.25500000000E-02 0.  1.
         -2   -1    0    0    0  501 -0.00000000000E+00 -0.00000000000E+00 -0.30983849889E+02  0.30983849994E+02  0.25500000000E-02 0. -1.
    5000001    1    1    2    0    0  0.31944015724E+02 -0.77157253600E+02  0.68798825610E+03  0.72104264954E+03  0.19900000000E+03 0.  0.
   -5000001    1    1    2    0    0 -0.31944015724E+02  0.77157253600E+02  0.79096250579E+03  0.81987581224E+03  0.19900000000E+03 0.  0.
<mgrwt>
<rscale>  0 0.43259028E+03</rscale>
<asrwt>0</asrwt>
<pdfrwt beam="1">  1        2 0.21570498E+00 0.43259028E+03</pdfrwt>
<pdfrwt beam="2">  1       -2 0.44262635E-02 0.43259028E+03</pdfrwt>
<totfact> 0.36414956E+03</totfact>
</mgrwt>
</event>
<event>
 4    1  0.5023236E-005  0.7739189E+03  0.7818608E-02  0.9598555E-01
         -2   -1    0    0    0  501 -0.00000000000E+00  0.00000000000E+00  0.47322452931E+03  0.47322452932E+03  0.25500000000E-02 0. -1.
          2   -1    0    0  501    0  0.00000000000E+00 -0.00000000000E+00 -0.31641978116E+03  0.31641978117E+03  0.25500000000E-02 0.  1.
    5000001    1    1    2    0    0  0.26038625672E+03  0.94212317457E+02 -0.10823417713E+03  0.35776053520E+03  0.19900000000E+03 0.  0.
   -5000001    1    1    2    0    0 -0.26038625672E+03 -0.94212317457E+02  0.26503892527E+03  0.43188377529E+03  0.19900000000E+03 0.  0.
<mgrwt>
<rscale>  0 0.77391886E+03</rscale>
<asrwt>0</asrwt>
<pdfrwt beam="1">  1        2 0.45202826E-01 0.77391886E+03</pdfrwt>
<pdfrwt beam="2">  1       -2 0.67603504E-01 0.77391886E+03</pdfrwt>
<totfact> 0.22716666E+02</totfact>
</mgrwt>
</event>
<event>
 4    1  0.5023236E-005  0.5532943E+03  0.7818608E-02  0.1000734E+00
          2   -1    0    0  501    0  0.00000000000E+00  0.00000000000E+00  0.24397060801E+03  0.24397060802E+03  0.25500000000E-02 0.  1.
         -2   -1    0    0    0  501 -0.00000000000E+00 -0.00000000000E+00 -0.31370021585E+03  0.31370021586E+03  0.25500000000E-02 0. -1.
    5000001    1    1    2    0    0 -0.57187525248E+02 -0.16577084079E+03  0.44384410507E+02  0.26892631072E+03  0.19900000000E+03 0.  0.
   -5000001    1    1    2    0    0  0.57187525248E+02  0.16577084079E+03 -0.11411401835E+03  0.28874451317E+03  0.19900000000E+03 0.  0.
<mgrwt>
<rscale>  0 0.55329425E+03</rscale>
<asrwt>0</asrwt>
<pdfrwt beam="1">  1        2 0.34852944E-01 0.55329425E+03</pdfrwt>
<pdfrwt beam="2">  1       -2 0.44814316E-01 0.55329425E+03</pdfrwt>
<totfact> 0.71349211E+02</totfact>
</mgrwt>
</event>
<event>
 4    1  0.5023236E-005  0.5454157E+03  0.7818608E-02  0.1002561E+00
         -2   -1    0    0    0  501 -0.00000000000E+00  0.00000000000E+00  0.71571176267E+03  0.71571176267E+03  0.25500000000E-02 0. -1.
          2   -1    0    0  501    0  0.00000000000E+00 -0.00000000000E+00 -0.10390993595E+03  0.10390993598E+03  0.25500000000E-02 0.  1.
    5000001    1    1    2    0    0 -0.96649698783E+02  0.52156042975E+02  0.53234819681E+03  0.57884110060E+03  0.19900000000E+03 0.  0.
   -5000001    1    1    2    0    0  0.96649698783E+02 -0.52156042975E+02  0.79453629912E+02  0.24078059806E+03  0.19900000000E+03 0.  0.
<mgrwt>
<rscale>  0 0.54541567E+03</rscale>
<asrwt>0</asrwt>
<pdfrwt beam="1">  1        2 0.14844276E-01 0.54541567E+03</pdfrwt>
<pdfrwt beam="2">  1       -2 0.10224454E+00 0.54541567E+03</pdfrwt>
<totfact> 0.32188344E+02</totfact>
</mgrwt>
</event>
<event>
 4    1  0.5023236E-005  0.4812437E+03  0.7818608E-02  0.1018794E+00
         -2   -1    0    0    0  501 -0.00000000000E+00  0.00000000000E+00  0.33469492303E+02  0.33469492400E+02  0.25500000000E-02 0. -1.
          2   -1    0    0  501    0  0.00000000000E+00 -0.00000000000E+00 -0.17298997046E+04  0.17298997046E+04  0.25500000000E-02 0.  1.
    5000001    1    1    2    0    0  0.56078455980E+02 -0.98688848586E+02 -0.57861464891E+03  0.62231840242E+03  0.19900000000E+03 0.  0.
   -5000001    1    1    2    0    0 -0.56078455980E+02  0.98688848586E+02 -0.11178155634E+04  0.11410507945E+04  0.19900000000E+03 0.  0.
<mgrwt>
<rscale>  0 0.48124366E+03</rscale>
<asrwt>0</asrwt>
<pdfrwt beam="1">  1        2 0.24712847E+00 0.48124366E+03</pdfrwt>
<pdfrwt beam="2">  1       -2 0.47813571E-02 0.48124366E+03</pdfrwt>
<totfact> 0.24991704E+03</totfact>
</mgrwt>
</event>
<event>
 4    1  0.5023236E-005  0.4594202E+03  0.7818608E-02  0.1024950E+00
         -2   -1    0    0    0  501 -0.00000000000E+00  0.00000000000E+00  0.23776065878E+02  0.23776066015E+02  0.25500000000E-02 0. -1.
          2   -1    0    0  501    0  0.00000000000E+00 -0.00000000000E+00 -0.22193214597E+04  0.22193214597E+04  0.25500000000E-02 0.  1.
    5000001    1    1    2    0    0 -0.82529448947E+02 -0.40922837372E+02 -0.14317818916E+04  0.14484771913E+04  0.19900000000E+03 0.  0.
   -5000001    1    1    2    0    0  0.82529448947E+02  0.40922837372E+02 -0.76376350219E+03  0.79462033440E+03  0.19900000000E+03 0.  0.
<mgrwt>
<rscale>  0 0.45942021E+03</rscale>
<asrwt>0</asrwt>
<pdfrwt beam="1">  1        2 0.31704579E+00 0.45942021E+03</pdfrwt>
<pdfrwt beam="2">  1       -2 0.33965822E-02 0.45942021E+03</pdfrwt>
<totfact> 0.24034271E+03</totfact>
</mgrwt>
</event>
<event>
 4    1  0.5023236E-005  0.6827835E+03  0.7818608E-02  0.9747136E-01
          2   -1    0    0  501    0  0.00000000000E+00  0.00000000000E+00  0.20958606087E+04  0.20958606087E+04  0.25500000000E-02 0.  1.
         -2   -1    0    0    0  501 -0.00000000000E+00 -0.00000000000E+00 -0.55608817022E+02  0.55608817080E+02  0.25500000000E-02 0. -1.
    5000001    1    1    2    0    0 -0.38879369082E+02  0.17317538778E+03  0.16918640734E+04  0.17127481902E+04  0.19900000000E+03 0.  0.
   -5000001    1    1    2    0    0  0.38879369082E+02 -0.17317538778E+03  0.34838771824E+03  0.43872123552E+03  0.19900000000E+03 0.  0.
<mgrwt>
<rscale>  0 0.68278351E+03</rscale>
<asrwt>0</asrwt>
<pdfrwt beam="1">  1        2 0.29940860E+00 0.68278351E+03</pdfrwt>
<pdfrwt beam="2">  1       -2 0.79441184E-02 0.68278351E+03</pdfrwt>
<totfact> 0.73116873E+02</totfact>
</mgrwt>
</event>
<event>
 4    1  0.5023236E-005  0.1452864E+04  0.7818608E-02  0.8916417E-01
          2   -1    0    0  501    0  0.00000000000E+00  0.00000000000E+00  0.19816903587E+04  0.19816903587E+04  0.25500000000E-02 0.  1.
         -2   -1    0    0    0  501 -0.00000000000E+00 -0.00000000000E+00 -0.26628969681E+03  0.26628969682E+03  0.25500000000E-02 0. -1.
    5000001    1    1    2    0    0 -0.56639868640E+03 -0.36736994383E+03  0.11359284192E+04  0.13363018076E+04  0.19900000000E+03 0.  0.
   -5000001    1    1    2    0    0  0.56639868640E+03  0.36736994383E+03  0.57947224271E+03  0.91167824788E+03  0.19900000000E+03 0.  0.
<mgrwt>
<rscale>  0 0.14528644E+04</rscale>
<asrwt>0</asrwt>
<pdfrwt beam="1">  1        2 0.28309862E+00 0.14528644E+04</pdfrwt>
<pdfrwt beam="2">  1       -2 0.38041385E-01 0.14528644E+04</pdfrwt>
<totfact> 0.51919445E+01</totfact>
</mgrwt>
</event>
<event>
 4    1  0.5023236E-005  0.5403496E+03  0.7818608E-02  0.1003753E+00
         -2   -1    0    0    0  501 -0.00000000000E+00  0.00000000000E+00  0.51981017140E+03  0.51981017140E+03  0.25500000000E-02 0. -1.
          2   -1    0    0  501    0  0.00000000000E+00 -0.00000000000E+00 -0.14042515504E+03  0.14042515506E+03  0.25500000000E-02 0.  1.
    5000001    1    1    2    0    0 -0.59322909006E+02 -0.81950616987E+02  0.37563445641E+03  0.43696379255E+03  0.19900000000E+03 0.  0.
   -5000001    1    1    2    0    0  0.59322909006E+02  0.81950616987E+02  0.37505599432E+01  0.22327153392E+03  0.19900000000E+03 0.  0.
<mgrwt>
<rscale>  0 0.54034961E+03</rscale>
<asrwt>0</asrwt>
<pdfrwt beam="1">  1        2 0.20060736E-01 0.54034961E+03</pdfrwt>
<pdfrwt beam="2">  1       -2 0.74258596E-01 0.54034961E+03</pdfrwt>
<totfact> 0.46635911E+02</totfact>
</mgrwt>
</event>
<event>
 4    1  0.5023236E-005  0.7417910E+03  0.7818608E-02  0.9648318E-01
          2   -1    0    0  501    0  0.00000000000E+00  0.00000000000E+00  0.61816297639E+03  0.61816297639E+03  0.25500000000E-02 0.  1.
         -2   -1    0    0    0  501 -0.00000000000E+00 -0.00000000000E+00 -0.22253590360E+03  0.22253590361E+03  0.25500000000E-02 0. -1.
    5000001    1    1    2    0    0 -0.72361387251E+02  0.29407909908E+03  0.28736699628E+03  0.46249267825E+03  0.19900000000E+03 0.  0.
   -5000001    1    1    2    0    0  0.72361387251E+02 -0.29407909908E+03  0.10826007651E+03  0.37820620176E+03  0.19900000000E+03 0.  0.
<mgrwt>
<rscale>  0 0.74179096E+03</rscale>
<asrwt>0</asrwt>
<pdfrwt beam="1">  1        2 0.88308998E-01 0.74179096E+03</pdfrwt>
<pdfrwt beam="2">  1       -2 0.31790843E-01 0.74179096E+03</pdfrwt>
<totfact> 0.48359888E+02</totfact>
</mgrwt>
</event>
<event>
 4    1  0.5023236E-005  0.1398012E+04  0.7818608E-02  0.8955258E-01
         -2   -1    0    0    0  501 -0.00000000000E+00  0.00000000000E+00  0.16758196754E+03  0.16758196756E+03  0.25500000000E-02 0. -1.
          2   -1    0    0  501    0  0.00000000000E+00 -0.00000000000E+00 -0.29156461899E+04  0.29156461899E+04  0.25500000000E-02 0.  1.
    5000001    1    1    2    0    0  0.66467183578E+03  0.47390473978E+02 -0.15295774713E+04  0.16802507988E+04  0.19900000000E+03 0.  0.
   -5000001    1    1    2    0    0 -0.66467183578E+03 -0.47390473978E+02 -0.12184867511E+04  0.14029773587E+04  0.19900000000E+03 0.  0.
<mgrwt>
<rscale>  0 0.13980125E+04</rscale>
<asrwt>0</asrwt>
<pdfrwt beam="1">  1        2 0.41652085E+00 0.13980125E+04</pdfrwt>
<pdfrwt beam="2">  1       -2 0.23940283E-01 0.13980125E+04</pdfrwt>
<totfact> 0.39967448E+01</totfact>
</mgrwt>
</event>
<event>
 4    1  0.5023236E-005  0.4917277E+03  0.7818608E-02  0.1015961E+00
         -2   -1    0    0    0  501 -0.00000000000E+00  0.00000000000E+00  0.30969084917E+02  0.30969085022E+02  0.25500000000E-02 0. -1.
          2   -1    0    0  501    0  0.00000000000E+00 -0.00000000000E+00 -0.19519151723E+04  0.19519151723E+04  0.25500000000E-02 0.  1.
    5000001    1    1    2    0    0 -0.14331291762E+03 -0.17563599919E+02 -0.96441256924E+03  0.99525859760E+03  0.19900000000E+03 0.  0.
   -5000001    1    1    2    0    0  0.14331291762E+03  0.17563599919E+02 -0.95653351810E+03  0.98762565967E+03  0.19900000000E+03 0.  0.
<mgrwt>
<rscale>  0 0.49172768E+03</rscale>
<asrwt>0</asrwt>
<pdfrwt beam="1">  1        2 0.27884495E+00 0.49172768E+03</pdfrwt>
<pdfrwt beam="2">  1       -2 0.44241562E-02 0.49172768E+03</pdfrwt>
<totfact> 0.21796750E+03</totfact>
</mgrwt>
</event>
<event>
 4    1  0.5023236E-005  0.5868585E+03  0.7818608E-02  0.9933052E-01
         -2   -1    0    0    0  501 -0.00000000000E+00  0.00000000000E+00  0.29693168986E+02  0.29693169095E+02  0.25500000000E-02 0. -1.
          2   -1    0    0  501    0  0.00000000000E+00 -0.00000000000E+00 -0.28996816011E+04  0.28996816011E+04  0.25500000000E-02 0.  1.
    5000001    1    1    2    0    0 -0.13825975150E+03  0.17513460676E+01 -0.60902198442E+03  0.65545984134E+03  0.19900000000E+03 0.  0.
   -5000001    1    1    2    0    0  0.13825975150E+03 -0.17513460676E+01 -0.22609664477E+04  0.22739149289E+04  0.19900000000E+03 0.  0.
<mgrwt>
<rscale>  0 0.58685854E+03</rscale>
<asrwt>0</asrwt>
<pdfrwt beam="1">  1        2 0.41424005E+00 0.58685854E+03</pdfrwt>
<pdfrwt beam="2">  1       -2 0.42418831E-02 0.58685854E+03</pdfrwt>
<totfact> 0.75705759E+02</totfact>
</mgrwt>
</event>
<event>
 4    1  0.5023236E-005  0.5228920E+03  0.7818608E-02  0.1007971E+00
          2   -1    0    0  501    0  0.00000000000E+00  0.00000000000E+00  0.38126599298E+03  0.38126599299E+03  0.25500000000E-02 0.  1.
         -2   -1    0    0    0  501 -0.00000000000E+00 -0.00000000000E+00 -0.17928166612E+03  0.17928166614E+03  0.25500000000E-02 0. -1.
    5000001    1    1    2    0    0  0.83145138579E+02  0.94567242326E+02  0.22273506859E+03  0.32414192597E+03  0.19900000000E+03 0.  0.
   -5000001    1    1    2    0    0 -0.83145138579E+02 -0.94567242326E+02 -0.20750741734E+02  0.23640573316E+03  0.19900000000E+03 0.  0.
<mgrwt>
<rscale>  0 0.52289197E+03</rscale>
<asrwt>0</asrwt>
<pdfrwt beam="1">  1        2 0.54466570E-01 0.52289197E+03</pdfrwt>
<pdfrwt beam="2">  1       -2 0.25611667E-01 0.52289197E+03</pdfrwt>
<totfact> 0.12509408E+03</totfact>
</mgrwt>
</event>
<event>
 4    1  0.5023236E-005  0.4153194E+03  0.7818608E-02  0.1038601E+00
         -2   -1    0    0    0  501 -0.00000000000E+00  0.00000000000E+00  0.14128385718E+02  0.14128385948E+02  0.25500000000E-02 0. -1.
          2   -1    0    0  501    0  0.00000000000E+00 -0.00000000000E+00 -0.30521919724E+04  0.30521919724E+04  0.25500000000E-02 0.  1.
    5000001    1    1    2    0    0  0.50755955576E+02  0.24960046907E+02 -0.13864707495E+04  0.14018207125E+04  0.19900000000E+03 0.  0.
   -5000001    1    1    2    0    0 -0.50755955576E+02 -0.24960046907E+02 -0.16515928372E+04  0.16644996458E+04  0.19900000000E+03 0.  0.
<mgrwt>
<rscale>  0 0.41531938E+03</rscale>
<asrwt>0</asrwt>
<pdfrwt beam="1">  1        2 0.43602700E+00 0.41531938E+03</pdfrwt>
<pdfrwt beam="2">  1       -2 0.20183428E-02 0.41531938E+03</pdfrwt>
<totfact> 0.19570591E+03</totfact>
</mgrwt>
</event>
<event>
 4    1  0.5023236E-005  0.7277600E+03  0.7818608E-02  0.9670902E-01
          2   -1    0    0  501    0  0.00000000000E+00  0.00000000000E+00  0.43313891407E+03  0.43313891408E+03  0.25500000000E-02 0.  1.
         -2   -1    0    0    0  501 -0.00000000000E+00 -0.00000000000E+00 -0.30569558420E+03  0.30569558421E+03  0.25500000000E-02 0. -1.
    5000001    1    1    2    0    0 -0.15853915065E+03  0.17523807504E+03 -0.13146585189E+03  0.33574888748E+03  0.19900000000E+03 0.  0.
   -5000001    1    1    2    0    0  0.15853915065E+03 -0.17523807504E+03  0.25890918176E+03  0.40308561080E+03  0.19900000000E+03 0.  0.
<mgrwt>
<rscale>  0 0.72776000E+03</rscale>
<asrwt>0</asrwt>
<pdfrwt beam="1">  1        2 0.61876987E-01 0.72776000E+03</pdfrwt>
<pdfrwt beam="2">  1       -2 0.43670798E-01 0.72776000E+03</pdfrwt>
<totfact> 0.39588086E+02</totfact>
</mgrwt>
</event>
<event>
 4    1  0.5023236E-005  0.5420517E+03  0.7818608E-02  0.1003351E+00
         -2   -1    0    0    0  501 -0.00000000000E+00  0.00000000000E+00  0.37761846978E+02  0.37761847064E+02  0.25500000000E-02 0. -1.
          2   -1    0    0  501    0  0.00000000000E+00 -0.00000000000E+00 -0.19452176263E+04  0.19452176263E+04  0.25500000000E-02 0.  1.
    5000001    1    1    2    0    0 -0.17753604347E+03 -0.26804321481E+02 -0.11008115052E+04  0.11329715302E+04  0.19900000000E+03 0.  0.
   -5000001    1    1    2    0    0  0.17753604347E+03  0.26804321481E+02 -0.80664427415E+03  0.85000794314E+03  0.19900000000E+03 0.  0.
<mgrwt>
<rscale>  0 0.54205170E+03</rscale>
<asrwt>0</asrwt>
<pdfrwt beam="1">  1        2 0.27788817E+00 0.54205170E+03</pdfrwt>
<pdfrwt beam="2">  1       -2 0.53945508E-02 0.54205170E+03</pdfrwt>
<totfact> 0.16136366E+03</totfact>
</mgrwt>
</event>
<event>
 4    1  0.5023236E-005  0.4849135E+03  0.7818608E-02  0.1017793E+00
          2   -1    0    0  501    0  0.00000000000E+00  0.00000000000E+00  0.21385825517E+04  0.21385825517E+04  0.25500000000E-02 0.  1.
         -2   -1    0    0    0  501 -0.00000000000E+00 -0.00000000000E+00 -0.27487959016E+02  0.27487959134E+02  0.25500000000E-02 0. -1.
    5000001    1    1    2    0    0 -0.95252039706E+02 -0.53593275686E+01  0.15040804235E+04  0.15201843946E+04  0.19900000000E+03 0.  0.
   -5000001    1    1    2    0    0  0.95252039706E+02  0.53593275686E+01  0.60701416922E+03  0.64588611619E+03  0.19900000000E+03 0.  0.
<mgrwt>
<rscale>  0 0.48491348E+03</rscale>
<asrwt>0</asrwt>
<pdfrwt beam="1">  1        2 0.30551176E+00 0.48491348E+03</pdfrwt>
<pdfrwt beam="2">  1       -2 0.39268518E-02 0.48491348E+03</pdfrwt>
<totfact> 0.21122136E+03</totfact>
</mgrwt>
</event>
<event>
 4    1  0.5023236E-005  0.4679545E+03  0.7818608E-02  0.1022499E+00
          2   -1    0    0  501    0  0.00000000000E+00  0.00000000000E+00  0.54102710684E+03  0.54102710685E+03  0.25500000000E-02 0.  1.
         -2   -1    0    0    0  501 -0.00000000000E+00 -0.00000000000E+00 -0.10118782484E+03  0.10118782487E+03  0.25500000000E-02 0. -1.
    5000001    1    1    2    0    0  0.93622744207E+00 -0.93030581902E+02  0.33046961248E+03  0.39682077877E+03  0.19900000000E+03 0.  0.
   -5000001    1    1    2    0    0 -0.93622744207E+00  0.93030581902E+02  0.10936966952E+03  0.24539415295E+03  0.19900000000E+03 0.  0.
<mgrwt>
<rscale>  0 0.46795451E+03</rscale>
<asrwt>0</asrwt>
<pdfrwt beam="1">  1        2 0.77289587E-01 0.46795451E+03</pdfrwt>
<pdfrwt beam="2">  1       -2 0.14455404E-01 0.46795451E+03</pdfrwt>
<totfact> 0.22704726E+03</totfact>
</mgrwt>
</event>
<event>
 4    1  0.5023236E-005  0.5154170E+03  0.7818608E-02  0.1009831E+00
          2   -1    0    0  501    0  0.00000000000E+00  0.00000000000E+00  0.33998246979E+03  0.33998246980E+03  0.25500000000E-02 0.  1.
         -2   -1    0    0    0  501 -0.00000000000E+00 -0.00000000000E+00 -0.19534443052E+03  0.19534443054E+03  0.25500000000E-02 0. -1.
    5000001    1    1    2    0    0  0.17021211605E+02  0.16183326747E+03  0.91270900343E+02  0.27278399028E+03  0.19900000000E+03 0.  0.
   -5000001    1    1    2    0    0 -0.17021211605E+02 -0.16183326747E+03  0.53367138924E+02  0.26254291006E+03  0.19900000000E+03 0.  0.
<mgrwt>
<rscale>  0 0.51541704E+03</rscale>
<asrwt>0</asrwt>
<pdfrwt beam="1">  1        2 0.48568924E-01 0.51541704E+03</pdfrwt>
<pdfrwt beam="2">  1       -2 0.27906348E-01 0.51541704E+03</pdfrwt>
<totfact> 0.12152962E+03</totfact>
</mgrwt>
</event>
<event>
 4    1  0.5023236E-005  0.8754692E+03  0.7818608E-02  0.9456776E-01
          2   -1    0    0  501    0  0.00000000000E+00  0.00000000000E+00  0.86401227779E+03  0.86401227780E+03  0.25500000000E-02 0.  1.
         -2   -1    0    0    0  501 -0.00000000000E+00 -0.00000000000E+00 -0.22176952416E+03  0.22176952418E+03  0.25500000000E-02 0. -1.
    5000001    1    1    2    0    0 -0.24083906042E+03 -0.17938937448E+03  0.62950359224E+03  0.72529978171E+03  0.19900000000E+03 0.  0.
   -5000001    1    1    2    0    0  0.24083906042E+03  0.17938937448E+03  0.12739161382E+02  0.36048202026E+03  0.19900000000E+03 0.  0.
<mgrwt>
<rscale>  0 0.87546923E+03</rscale>
<asrwt>0</asrwt>
<pdfrwt beam="1">  1        2 0.12343033E+00 0.87546923E+03</pdfrwt>
<pdfrwt beam="2">  1       -2 0.31681360E-01 0.87546923E+03</pdfrwt>
<totfact> 0.31823758E+02</totfact>
</mgrwt>
</event>
<event>
 4    1  0.5023236E-005  0.4701330E+03  0.7818608E-02  0.1021883E+00
          2   -1    0    0  501    0  0.00000000000E+00  0.00000000000E+00  0.10243904644E+04  0.10243904644E+04  0.25500000000E-02 0.  1.
         -2   -1    0    0    0  501 -0.00000000000E+00 -0.00000000000E+00 -0.53940624253E+02  0.53940624313E+02  0.25500000000E-02 0. -1.
    5000001    1    1    2    0    0 -0.12082741608E+03  0.87409612432E+01  0.55701328481E+03  0.60377186779E+03  0.19900000000E+03 0.  0.
   -5000001    1    1    2    0    0  0.12082741608E+03 -0.87409612432E+01  0.41343655536E+03  0.47455922095E+03  0.19900000000E+03 0.  0.
<mgrwt>
<rscale>  0 0.47013301E+03</rscale>
<asrwt>0</asrwt>
<pdfrwt beam="1">  1        2 0.14634149E+00 0.47013301E+03</pdfrwt>
<pdfrwt beam="2">  1       -2 0.77058038E-02 0.47013301E+03</pdfrwt>
<totfact> 0.28358109E+03</totfact>
</mgrwt>
</event>
<event>
 4    1  0.5023236E-005  0.5052826E+03  0.7818608E-02  0.1012409E+00
         -2   -1    0    0    0  501 -0.00000000000E+00  0.00000000000E+00  0.13481760255E+03  0.13481760257E+03  0.25500000000E-02 0. -1.
          2   -1    0    0  501    0  0.00000000000E+00 -0.00000000000E+00 -0.47343694086E+03  0.47343694087E+03  0.25500000000E-02 0.  1.
    5000001    1    1    2    0    0 -0.12309108489E+03 -0.93632688170E+02 -0.14817849996E+03  0.29236340969E+03  0.19900000000E+03 0.  0.
   -5000001    1    1    2    0    0  0.12309108489E+03  0.93632688170E+02 -0.19044083835E+03  0.31589113376E+03  0.19900000000E+03 0.  0.
<mgrwt>
<rscale>  0 0.50528263E+03</rscale>
<asrwt>0</asrwt>
<pdfrwt beam="1">  1        2 0.67633848E-01 0.50528263E+03</pdfrwt>
<pdfrwt beam="2">  1       -2 0.19259658E-01 0.50528263E+03</pdfrwt>
<totfact> 0.16240938E+03</totfact>
</mgrwt>
</event>
<event>
 4    1  0.5023236E-005  0.7793125E+03  0.7818608E-02  0.9590454E-01
          2   -1    0    0  501    0  0.00000000000E+00  0.00000000000E+00  0.13747443637E+04  0.13747443637E+04  0.25500000000E-02 0.  1.
         -2   -1    0    0    0  501 -0.00000000000E+00 -0.00000000000E+00 -0.11044380003E+03  0.11044380006E+03  0.25500000000E-02 0. -1.
    5000001    1    1    2    0    0  0.29787202746E+03 -0.14021661826E+03  0.75028551007E+03  0.84315941043E+03  0.19900000000E+03 0.  0.
   -5000001    1    1    2    0    0 -0.29787202746E+03  0.14021661826E+03  0.51401505360E+03  0.64202875334E+03  0.19900000000E+03 0.  0.
<mgrwt>
<rscale>  0 0.77931250E+03</rscale>
<asrwt>0</asrwt>
<pdfrwt beam="1">  1        2 0.19639204E+00 0.77931250E+03</pdfrwt>
<pdfrwt beam="2">  1       -2 0.15777687E-01 0.77931250E+03</pdfrwt>
<totfact> 0.55259663E+02</totfact>
</mgrwt>
</event>
<event>
 4    1  0.5023236E-005  0.5444622E+03  0.7818608E-02  0.1002784E+00
          2   -1    0    0  501    0  0.00000000000E+00  0.00000000000E+00  0.26119918286E+04  0.26119918286E+04  0.25500000000E-02 0.  1.
         -2   -1    0    0    0  501 -0.00000000000E+00 -0.00000000000E+00 -0.28372898983E+02  0.28372899098E+02  0.25500000000E-02 0. -1.
    5000001    1    1    2    0    0  0.11535387865E+03 -0.13638076474E+03  0.15392071979E+04  0.15622631111E+04  0.19900000000E+03 0.  0.
   -5000001    1    1    2    0    0 -0.11535387865E+03  0.13638076474E+03  0.10444117317E+04  0.10781016165E+04  0.19900000000E+03 0.  0.
<mgrwt>
<rscale>  0 0.54446223E+03</rscale>
<asrwt>0</asrwt>
<pdfrwt beam="1">  1        2 0.37314173E+00 0.54446223E+03</pdfrwt>
<pdfrwt beam="2">  1       -2 0.40532708E-02 0.54446223E+03</pdfrwt>
<totfact> 0.11543349E+03</totfact>
</mgrwt>
</event>
<event>
 4    1  0.5023236E-005  0.5139573E+03  0.7818608E-02  0.1010199E+00
          2   -1    0    0  501    0  0.00000000000E+00  0.00000000000E+00  0.13830122339E+04  0.13830122339E+04  0.25500000000E-02 0.  1.
         -2   -1    0    0    0  501 -0.00000000000E+00 -0.00000000000E+00 -0.47749418567E+02  0.47749418635E+02  0.25500000000E-02 0. -1.
    5000001    1    1    2    0    0 -0.13346207768E+03 -0.92742387941E+02  0.65406380767E+03  0.70271882087E+03  0.19900000000E+03 0.  0.
   -5000001    1    1    2    0    0  0.13346207768E+03  0.92742387941E+02  0.68119900765E+03  0.72804283165E+03  0.19900000000E+03 0.  0.
<mgrwt>
<rscale>  0 0.51395731E+03</rscale>
<asrwt>0</asrwt>
<pdfrwt beam="1">  1        2 0.19757313E+00 0.51395731E+03</pdfrwt>
<pdfrwt beam="2">  1       -2 0.68213469E-02 0.51395731E+03</pdfrwt>
<totfact> 0.21671007E+03</totfact>
</mgrwt>
</event>
<event>
 4    1  0.5023236E-005  0.6606365E+03  0.7818608E-02  0.9787023E-01
         -2   -1    0    0    0  501 -0.00000000000E+00  0.00000000000E+00  0.40182757193E+03  0.40182757194E+03  0.25500000000E-02 0. -1.
          2   -1    0    0  501    0  0.00000000000E+00 -0.00000000000E+00 -0.27153470965E+03  0.27153470966E+03  0.25500000000E-02 0.  1.
    5000001    1    1    2    0    0 -0.12149349450E+03 -0.18629404452E+03 -0.79153968238E+02  0.30875960053E+03  0.19900000000E+03 0.  0.
   -5000001    1    1    2    0    0  0.12149349450E+03  0.18629404452E+03  0.20944683053E+03  0.36460268107E+03  0.19900000000E+03 0.  0.
<mgrwt>
<rscale>  0 0.66063646E+03</rscale>
<asrwt>0</asrwt>
<pdfrwt beam="1">  1        2 0.38790673E-01 0.66063646E+03</pdfrwt>
<pdfrwt beam="2">  1       -2 0.57403939E-01 0.66063646E+03</pdfrwt>
<totfact> 0.38231149E+02</totfact>
</mgrwt>
</event>
<event>
 4    1  0.5023236E-005  0.9812779E+03  0.7818608E-02  0.9329321E-01
         -2   -1    0    0    0  501 -0.00000000000E+00  0.00000000000E+00  0.17073732141E+03  0.17073732143E+03  0.25500000000E-02 0. -1.
          2   -1    0    0  501    0  0.00000000000E+00 -0.00000000000E+00 -0.14099237364E+04  0.14099237364E+04  0.25500000000E-02 0.  1.
    5000001    1    1    2    0    0 -0.22618949898E+03 -0.34634545922E+03 -0.34055057282E+03  0.57157025746E+03  0.19900000000E+03 0.  0.
   -5000001    1    1    2    0    0  0.22618949898E+03  0.34634545922E+03 -0.89863584215E+03  0.10090908004E+04  0.19900000000E+03 0.  0.
<mgrwt>
<rscale>  0 0.98127795E+03</rscale>
<asrwt>0</asrwt>
<pdfrwt beam="1">  1        2 0.20141767E+00 0.98127795E+03</pdfrwt>
<pdfrwt beam="2">  1       -2 0.24391047E-01 0.98127795E+03</pdfrwt>
<totfact> 0.24429277E+02</totfact>
</mgrwt>
</event>
<event>
 4    1  0.5023236E-005  0.4853697E+03  0.7818608E-02  0.1017670E+00
         -2   -1    0    0    0  501 -0.00000000000E+00  0.00000000000E+00  0.59624684715E+02  0.59624684770E+02  0.25500000000E-02 0. -1.
          2   -1    0    0  501    0  0.00000000000E+00 -0.00000000000E+00 -0.98777793518E+03  0.98777793518E+03  0.25500000000E-02 0.  1.
    5000001    1    1    2    0    0  0.50090779160E+02  0.12311260733E+03 -0.37697601705E+03  0.44651732069E+03  0.19900000000E+03 0.  0.
   -5000001    1    1    2    0    0 -0.50090779160E+02 -0.12311260733E+03 -0.55117723341E+03  0.60088529926E+03  0.19900000000E+03 0.  0.
<mgrwt>
<rscale>  0 0.48536975E+03</rscale>
<asrwt>0</asrwt>
<pdfrwt beam="1">  1        2 0.14111112E+00 0.48536975E+03</pdfrwt>
<pdfrwt beam="2">  1       -2 0.85178127E-02 0.48536975E+03</pdfrwt>
<totfact> 0.25451749E+03</totfact>
</mgrwt>
</event>
<event>
 4    1  0.5023236E-005  0.1060053E+04  0.7818608E-02  0.9245026E-01
         -2   -1    0    0    0  501 -0.00000000000E+00  0.00000000000E+00  0.15129224885E+03  0.15129224887E+03  0.25500000000E-02 0.  1.
          2   -1    0    0  501    0  0.00000000000E+00 -0.00000000000E+00 -0.18568580822E+04  0.18568580822E+04  0.25500000000E-02 0. -1.
    5000001    1    1    2    0    0 -0.45287723843E+03  0.15354399976E+03 -0.63968608622E+03  0.82308738409E+03  0.19900000000E+03 0.  0.
   -5000001    1    1    2    0    0  0.45287723843E+03 -0.15354399976E+03 -0.10658797471E+04  0.11850629470E+04  0.19900000000E+03 0.  0.
<mgrwt>
<rscale>  0 0.10600533E+04</rscale>
<asrwt>0</asrwt>
<pdfrwt beam="1">  1        2 0.26526543E+00 0.10600533E+04</pdfrwt>
<pdfrwt beam="2">  1       -2 0.21613179E-01 0.10600533E+04</pdfrwt>
<totfact> 0.17632989E+02</totfact>
</mgrwt>
</event>
<event>
 4    1  0.5023236E-005  0.8320553E+03  0.7818608E-02  0.9514743E-01
         -2   -1    0    0    0  501 -0.00000000000E+00  0.00000000000E+00  0.93219144861E+03  0.93219144861E+03  0.25500000000E-02 0. -1.
          2   -1    0    0  501    0  0.00000000000E+00 -0.00000000000E+00 -0.18566894199E+03  0.18566894201E+03  0.25500000000E-02 0.  1.
    5000001    1    1    2    0    0 -0.13750765475E+03 -0.33033044480E+03  0.47245655138E+03  0.62517417639E+03  0.19900000000E+03 0.  0.
   -5000001    1    1    2    0    0  0.13750765475E+03  0.33033044480E+03  0.27406595523E+03  0.49268621423E+03  0.19900000000E+03 0.  0.
<mgrwt>
<rscale>  0 0.83205529E+03</rscale>
<asrwt>0</asrwt>
<pdfrwt beam="1">  1        2 0.26524134E-01 0.83205529E+03</pdfrwt>
<pdfrwt beam="2">  1       -2 0.13317021E+00 0.83205529E+03</pdfrwt>
<totfact> 0.84181828E+01</totfact>
</mgrwt>
</event>
<event>
 4    1  0.5023236E-005  0.5791657E+03  0.7818608E-02  0.9949599E-01
          2   -1    0    0  501    0  0.00000000000E+00  0.00000000000E+00  0.21964175013E+04  0.21964175013E+04  0.25500000000E-02 0.  1.
         -2   -1    0    0    0  501 -0.00000000000E+00 -0.00000000000E+00 -0.38179550389E+02  0.38179550474E+02  0.25500000000E-02 0. -1.
    5000001    1    1    2    0    0 -0.19645157413E+03  0.89614299839E+01  0.13674275696E+04  0.13957552386E+04  0.19900000000E+03 0.  0.
   -5000001    1    1    2    0    0  0.19645157413E+03 -0.89614299839E+01  0.79081038133E+03  0.83884181311E+03  0.19900000000E+03 0.  0.
<mgrwt>
<rscale>  0 0.57916572E+03</rscale>
<asrwt>0</asrwt>
<pdfrwt beam="1">  1        2 0.31377387E+00 0.57916572E+03</pdfrwt>
<pdfrwt beam="2">  1       -2 0.54542225E-02 0.57916572E+03</pdfrwt>
<totfact> 0.11846188E+03</totfact>
</mgrwt>
</event>
<event>
 4    1  0.5023236E-005  0.5828568E+03  0.7818608E-02  0.9941625E-01
         -2   -1    0    0    0  501 -0.00000000000E+00  0.00000000000E+00  0.41963119537E+03  0.41963119538E+03  0.25500000000E-02 0. -1.
          2   -1    0    0  501    0  0.00000000000E+00 -0.00000000000E+00 -0.20239321555E+03  0.20239321557E+03  0.25500000000E-02 0.  1.
    5000001    1    1    2    0    0 -0.11655719609E+03  0.15392992292E+03  0.20436709436E+03  0.34445160820E+03  0.19900000000E+03 0.  0.
   -5000001    1    1    2    0    0  0.11655719609E+03 -0.15392992292E+03  0.12870885453E+02  0.27757280275E+03  0.19900000000E+03 0.  0.
<mgrwt>
<rscale>  0 0.58285678E+03</rscale>
<asrwt>0</asrwt>
<pdfrwt beam="1">  1        2 0.28913317E-01 0.58285678E+03</pdfrwt>
<pdfrwt beam="2">  1       -2 0.59947312E-01 0.58285678E+03</pdfrwt>
<totfact> 0.48558110E+02</totfact>
</mgrwt>
</event>
<event>
 4    1  0.5023236E-005  0.4606528E+03  0.7818608E-02  0.1024592E+00
         -2   -1    0    0    0  501 -0.00000000000E+00  0.00000000000E+00  0.10804916821E+03  0.10804916824E+03  0.25500000000E-02 0. -1.
          2   -1    0    0  501    0  0.00000000000E+00 -0.00000000000E+00 -0.49098247513E+03  0.49098247514E+03  0.25500000000E-02 0.  1.
    5000001    1    1    2    0    0  0.20772210130E+02  0.82912946716E+02 -0.89543319790E+02  0.23436093439E+03  0.19900000000E+03 0.  0.
   -5000001    1    1    2    0    0 -0.20772210130E+02 -0.82912946716E+02 -0.29338998714E+03  0.36467070899E+03  0.19900000000E+03 0.  0.
<mgrwt>
<rscale>  0 0.46065279E+03</rscale>
<asrwt>0</asrwt>
<pdfrwt beam="1">  1        2 0.70140352E-01 0.46065279E+03</pdfrwt>
<pdfrwt beam="2">  1       -2 0.15435596E-01 0.46065279E+03</pdfrwt>
<totfact> 0.22707842E+03</totfact>
</mgrwt>
</event>
<event>
 4    1  0.5023236E-005  0.9352082E+03  0.7818608E-02  0.9382609E-01
          2   -1    0    0  501    0  0.00000000000E+00  0.00000000000E+00  0.51389507475E+03  0.51389507475E+03  0.25500000000E-02 0.  1.
         -2   -1    0    0    0  501 -0.00000000000E+00 -0.00000000000E+00 -0.42548294930E+03  0.42548294931E+03  0.25500000000E-02 0. -1.
    5000001    1    1    2    0    0  0.39262526369E+03 -0.14671295674E+03 -0.14133040379E+02  0.46419826819E+03  0.19900000000E+03 0.  0.
   -5000001    1    1    2    0    0 -0.39262526369E+03  0.14671295674E+03  0.10254516582E+03  0.47517975587E+03  0.19900000000E+03 0.  0.
<mgrwt>
<rscale>  0 0.93520820E+03</rscale>
<asrwt>0</asrwt>
<pdfrwt beam="1">  1        2 0.73413582E-01 0.93520820E+03</pdfrwt>
<pdfrwt beam="2">  1       -2 0.60783278E-01 0.93520820E+03</pdfrwt>
<totfact> 0.16426104E+02</totfact>
</mgrwt>
</event>
<event>
 4    1  0.5023236E-005  0.5344374E+03  0.7818608E-02  0.1005162E+00
          2   -1    0    0  501    0  0.00000000000E+00  0.00000000000E+00  0.70549766158E+03  0.70549766159E+03  0.25500000000E-02 0.  1.
         -2   -1    0    0    0  501 -0.00000000000E+00 -0.00000000000E+00 -0.10121340481E+03  0.10121340484E+03  0.25500000000E-02 0. -1.
    5000001    1    1    2    0    0  0.17425200509E+03  0.20986086061E+02  0.25439350360E+03  0.36758839993E+03  0.19900000000E+03 0.  0.
   -5000001    1    1    2    0    0 -0.17425200509E+03 -0.20986086061E+02  0.34989075317E+03  0.43912266651E+03  0.19900000000E+03 0.  0.
<mgrwt>
<rscale>  0 0.53443735E+03</rscale>
<asrwt>0</asrwt>
<pdfrwt beam="1">  1        2 0.10078538E+00 0.53443735E+03</pdfrwt>
<pdfrwt beam="2">  1       -2 0.14459058E-01 0.53443735E+03</pdfrwt>
<totfact> 0.16605298E+03</totfact>
</mgrwt>
</event>
<event>
 4    1  0.5023236E-005  0.5106737E+03  0.7818608E-02  0.1011030E+00
         -2   -1    0    0    0  501 -0.00000000000E+00  0.00000000000E+00  0.53890756232E+03  0.53890756233E+03  0.25500000000E-02 0. -1.
          2   -1    0    0  501    0  0.00000000000E+00 -0.00000000000E+00 -0.12097975648E+03  0.12097975651E+03  0.25500000000E-02 0.  1.
    5000001    1    1    2    0    0  0.85210742049E+02  0.69162295735E+02  0.35938951023E+03  0.42521302164E+03  0.19900000000E+03 0.  0.
   -5000001    1    1    2    0    0 -0.85210742049E+02 -0.69162295735E+02  0.58538295612E+02  0.23467429720E+03  0.19900000000E+03 0.  0.
<mgrwt>
<rscale>  0 0.51067369E+03</rscale>
<asrwt>0</asrwt>
<pdfrwt beam="1">  1        2 0.17282822E-01 0.51067369E+03</pdfrwt>
<pdfrwt beam="2">  1       -2 0.76986794E-01 0.51067369E+03</pdfrwt>
<totfact> 0.51346444E+02</totfact>
</mgrwt>
</event>
<event>
 4    1  0.5023236E-005  0.5488330E+03  0.7818608E-02  0.1001764E+00
         -2   -1    0    0    0  501 -0.00000000000E+00  0.00000000000E+00  0.73244397280E+02  0.73244397324E+02  0.25500000000E-02 0. -1.
          2   -1    0    0  501    0  0.00000000000E+00 -0.00000000000E+00 -0.10281252531E+04  0.10281252531E+04  0.25500000000E-02 0.  1.
    5000001    1    1    2    0    0  0.17701271631E+03  0.23667503963E+02 -0.60130349106E+03  0.65807335521E+03  0.19900000000E+03 0.  0.
   -5000001    1    1    2    0    0 -0.17701271631E+03 -0.23667503963E+02 -0.35357736476E+03  0.44329629521E+03  0.19900000000E+03 0.  0.
<mgrwt>
<rscale>  0 0.54883300E+03</rscale>
<asrwt>0</asrwt>
<pdfrwt beam="1">  1        2 0.14687503E+00 0.54883300E+03</pdfrwt>
<pdfrwt beam="2">  1       -2 0.10463486E-01 0.54883300E+03</pdfrwt>
<totfact> 0.17278599E+03</totfact>
</mgrwt>
</event>
<event>
 4    1  0.5023236E-005  0.5030115E+03  0.7818608E-02  0.1012996E+00
         -2   -1    0    0    0  501 -0.00000000000E+00  0.00000000000E+00  0.39626082417E+02  0.39626082499E+02  0.25500000000E-02 0. -1.
          2   -1    0    0  501    0  0.00000000000E+00 -0.00000000000E+00 -0.15963008860E+04  0.15963008860E+04  0.25500000000E-02 0.  1.
    5000001    1    1    2    0    0  0.33627679189E+02 -0.47608420700E+02 -0.12412202053E+04  0.12584220200E+04  0.19900000000E+03 0.  0.
   -5000001    1    1    2    0    0 -0.33627679189E+02  0.47608420700E+02 -0.31545459837E+03  0.37750494853E+03  0.19900000000E+03 0.  0.
<mgrwt>
<rscale>  0 0.50301153E+03</rscale>
<asrwt>0</asrwt>
<pdfrwt beam="1">  1        2 0.22804294E+00 0.50301153E+03</pdfrwt>
<pdfrwt beam="2">  1       -2 0.56608699E-02 0.50301153E+03</pdfrwt>
<totfact> 0.22480121E+03</totfact>
</mgrwt>
</event>
<event>
 4    1  0.5023236E-005  0.5798476E+03  0.7818608E-02  0.9948121E-01
         -2   -1    0    0    0  501 -0.00000000000E+00  0.00000000000E+00  0.25107949915E+03  0.25107949916E+03  0.25500000000E-02 0. -1.
          2   -1    0    0  501    0  0.00000000000E+00 -0.00000000000E+00 -0.33477765511E+03  0.33477765512E+03  0.25500000000E-02 0.  1.
    5000001    1    1    2    0    0 -0.10517928257E+03  0.95312796792E+02 -0.19937385804E+03  0.31543326709E+03  0.19900000000E+03 0.  0.
   -5000001    1    1    2    0    0  0.10517928257E+03 -0.95312796792E+02  0.11567570208E+03  0.27042388720E+03  0.19900000000E+03 0.  0.
<mgrwt>
<rscale>  0 0.57984759E+03</rscale>
<asrwt>0</asrwt>
<pdfrwt beam="1">  1        2 0.47825379E-01 0.57984759E+03</pdfrwt>
<pdfrwt beam="2">  1       -2 0.35868500E-01 0.57984759E+03</pdfrwt>
<totfact> 0.77470447E+02</totfact>
</mgrwt>
</event>
<event>
 4    1  0.5023236E-005  0.6126797E+03  0.7818608E-02  0.9879443E-01
          2   -1    0    0  501    0  0.00000000000E+00  0.00000000000E+00  0.15233259333E+04  0.15233259333E+04  0.25500000000E-02 0.  1.
         -2   -1    0    0    0  501 -0.00000000000E+00 -0.00000000000E+00 -0.61604737626E+02  0.61604737679E+02  0.25500000000E-02 0. -1.
    5000001    1    1    2    0    0 -0.41853115753E+02  0.21605581545E+03  0.92806349498E+03  0.97433805705E+03  0.19900000000E+03 0.  0.
   -5000001    1    1    2    0    0  0.41853115753E+02 -0.21605581545E+03  0.53365770073E+03  0.61059261397E+03  0.19900000000E+03 0.  0.
<mgrwt>
<rscale>  0 0.61267967E+03</rscale>
<asrwt>0</asrwt>
<pdfrwt beam="1">  1        2 0.21761797E+00 0.61267967E+03</pdfrwt>
<pdfrwt beam="2">  1       -2 0.88006776E-02 0.61267967E+03</pdfrwt>
<totfact> 0.12170132E+03</totfact>
</mgrwt>
</event>
<event>
 4    1  0.5023236E-005  0.1068086E+04  0.7818608E-02  0.9236868E-01
          2   -1    0    0  501    0  0.00000000000E+00  0.00000000000E+00  0.93621145255E+03  0.93621145255E+03  0.25500000000E-02 0.  1.
         -2   -1    0    0    0  501 -0.00000000000E+00 -0.00000000000E+00 -0.30463417164E+03  0.30463417165E+03  0.25500000000E-02 0. -1.
    5000001    1    1    2    0    0 -0.38718779910E+03  0.22919315901E+03  0.55713326125E+03  0.74326466800E+03  0.19900000000E+03 0.  0.
   -5000001    1    1    2    0    0  0.38718779910E+03 -0.22919315901E+03  0.74444019660E+02  0.49758095620E+03  0.19900000000E+03 0.  0.
<mgrwt>
<rscale>  0 0.10680861E+04</rscale>
<asrwt>0</asrwt>
<pdfrwt beam="1">  1        2 0.13374449E+00 0.10680861E+04</pdfrwt>
<pdfrwt beam="2">  1       -2 0.43519168E-01 0.10680861E+04</pdfrwt>
<totfact> 0.15328872E+02</totfact>
</mgrwt>
</event>
<event>
 4    1  0.5023236E-005  0.1172299E+04  0.7818608E-02  0.9137454E-01
         -2   -1    0    0    0  501 -0.00000000000E+00  0.00000000000E+00  0.23013802740E+03  0.23013802741E+03  0.25500000000E-02 0. -1.
          2   -1    0    0  501    0  0.00000000000E+00 -0.00000000000E+00 -0.14928927699E+04  0.14928927699E+04  0.25500000000E-02 0.  1.
    5000001    1    1    2    0    0 -0.29323019811E+02 -0.48068418225E+03 -0.23684612397E+03  0.57237593328E+03  0.19900000000E+03 0.  0.
   -5000001    1    1    2    0    0  0.29323019811E+02  0.48068418225E+03 -0.10259086185E+04  0.11506548640E+04  0.19900000000E+03 0.  0.
<mgrwt>
<rscale>  0 0.11722993E+04</rscale>
<asrwt>0</asrwt>
<pdfrwt beam="1">  1        2 0.21327039E+00 0.11722993E+04</pdfrwt>
<pdfrwt beam="2">  1       -2 0.32876862E-01 0.11722993E+04</pdfrwt>
<totfact> 0.12567040E+02</totfact>
</mgrwt>
</event>
<event>
 4    1  0.5023236E-005  0.5844053E+03  0.7818608E-02  0.9938299E-01
         -2   -1    0    0    0  501 -0.00000000000E+00  0.00000000000E+00  0.52659206186E+02  0.52659206248E+02  0.25500000000E-02 0. -1.
          2   -1    0    0  501    0  0.00000000000E+00 -0.00000000000E+00 -0.16214142494E+04  0.16214142494E+04  0.25500000000E-02 0.  1.
    5000001    1    1    2    0    0  0.35329361242E+02  0.20909702183E+03 -0.86598823577E+03  0.91351319245E+03  0.19900000000E+03 0.  0.
   -5000001    1    1    2    0    0 -0.35329361242E+02 -0.20909702183E+03 -0.70276680745E+03  0.76056026320E+03  0.19900000000E+03 0.  0.
<mgrwt>
<rscale>  0 0.58440530E+03</rscale>
<asrwt>0</asrwt>
<pdfrwt beam="1">  1        2 0.23163058E+00 0.58440530E+03</pdfrwt>
<pdfrwt beam="2">  1       -2 0.75227448E-02 0.58440530E+03</pdfrwt>
<totfact> 0.13928582E+03</totfact>
</mgrwt>
</event>
<event>
 4    1  0.5023236E-005  0.4995128E+03  0.7818608E-02  0.1013906E+00
         -2   -1    0    0    0  501 -0.00000000000E+00  0.00000000000E+00  0.60857216984E+02  0.60857217038E+02  0.25500000000E-02 0. -1.
          2   -1    0    0  501    0  0.00000000000E+00 -0.00000000000E+00 -0.10249937490E+04  0.10249937490E+04  0.25500000000E-02 0.  1.
    5000001    1    1    2    0    0 -0.13270991706E+03  0.27769414914E+02 -0.62616817540E+03  0.67087304788E+03  0.19900000000E+03 0.  0.
   -5000001    1    1    2    0    0  0.13270991706E+03 -0.27769414914E+02 -0.33796835665E+03  0.41497791819E+03  0.19900000000E+03 0.  0.
<mgrwt>
<rscale>  0 0.49951283E+03</rscale>
<asrwt>0</asrwt>
<pdfrwt beam="1">  1        2 0.14642767E+00 0.49951283E+03</pdfrwt>
<pdfrwt beam="2">  1       -2 0.86938887E-02 0.49951283E+03</pdfrwt>
<totfact> 0.23394161E+03</totfact>
</mgrwt>
</event>
<event>
 4    1  0.5023236E-005  0.4347899E+03  0.7818608E-02  0.1032357E+00
          2   -1    0    0  501    0  0.00000000000E+00  0.00000000000E+00  0.52914318179E+03  0.52914318180E+03  0.25500000000E-02 0.  1.
         -2   -1    0    0    0  501 -0.00000000000E+00 -0.00000000000E+00 -0.89315259751E+02  0.89315259787E+02  0.25500000000E-02 0. -1.
    5000001    1    1    2    0    0 -0.19438248424E+01 -0.83090582267E+02  0.18091399966E+03  0.28149369192E+03  0.19900000000E+03 0.  0.
   -5000001    1    1    2    0    0  0.19438248424E+01  0.83090582267E+02  0.25891392238E+03  0.33696474967E+03  0.19900000000E+03 0.  0.
<mgrwt>
<rscale>  0 0.43478988E+03</rscale>
<asrwt>0</asrwt>
<pdfrwt beam="1">  1        2 0.75591883E-01 0.43478988E+03</pdfrwt>
<pdfrwt beam="2">  1       -2 0.12759323E-01 0.43478988E+03</pdfrwt>
<totfact> 0.28609639E+03</totfact>
</mgrwt>
</event>
<event>
 4    1  0.5023236E-005  0.5020921E+03  0.7818608E-02  0.1013234E+00
          2   -1    0    0  501    0  0.00000000000E+00  0.00000000000E+00  0.68447860087E+03  0.68447860087E+03  0.25500000000E-02 0.  1.
         -2   -1    0    0    0  501 -0.00000000000E+00 -0.00000000000E+00 -0.92076088835E+02  0.92076088871E+02  0.25500000000E-02 0. -1.
    5000001    1    1    2    0    0  0.54120537207E+02  0.53386219670E+02  0.50164224712E+03  0.54500005972E+03  0.19900000000E+03 0.  0.
   -5000001    1    1    2    0    0 -0.54120537207E+02 -0.53386219670E+02  0.90760264911E+02  0.23155463002E+03  0.19900000000E+03 0.  0.
<mgrwt>
<rscale>  0 0.50209207E+03</rscale>
<asrwt>0</asrwt>
<pdfrwt beam="1">  1        2 0.97782663E-01 0.50209207E+03</pdfrwt>
<pdfrwt beam="2">  1       -2 0.13153726E-01 0.50209207E+03</pdfrwt>
<totfact> 0.20163031E+03</totfact>
</mgrwt>
</event>
<event>
 4    1  0.5023236E-005  0.4422120E+03  0.7818608E-02  0.1030070E+00
         -2   -1    0    0    0  501 -0.00000000000E+00  0.00000000000E+00  0.13170116015E+02  0.13170116261E+02  0.25500000000E-02 0. -1.
          2   -1    0    0  501    0  0.00000000000E+00 -0.00000000000E+00 -0.37120299718E+04  0.37120299718E+04  0.25500000000E-02 0.  1.
    5000001    1    1    2    0    0 -0.85731875803E+02  0.40746305784E+02 -0.17093150316E+04  0.17234758754E+04  0.19900000000E+03 0.  0.
   -5000001    1    1    2    0    0  0.85731875803E+02 -0.40746305784E+02 -0.19895448242E+04  0.20017242127E+04  0.19900000000E+03 0.  0.
<mgrwt>
<rscale>  0 0.44221201E+03</rscale>
<asrwt>0</asrwt>
<pdfrwt beam="1">  1        2 0.53028933E+00 0.44221201E+03</pdfrwt>
<pdfrwt beam="2">  1       -2 0.18814475E-02 0.44221201E+03</pdfrwt>
<totfact> 0.90317448E+02</totfact>
</mgrwt>
</event>
<event>
 4    1  0.5023236E-005  0.5517394E+03  0.7818608E-02  0.1001092E+00
          2   -1    0    0  501    0  0.00000000000E+00  0.00000000000E+00  0.86819701357E+03  0.86819701358E+03  0.25500000000E-02 0.  1.
         -2   -1    0    0    0  501 -0.00000000000E+00 -0.00000000000E+00 -0.87657629369E+02  0.87657629406E+02  0.25500000000E-02 0. -1.
    5000001    1    1    2    0    0  0.13592929036E+03  0.10430308822E+03  0.24380754654E+03  0.35832809817E+03  0.19900000000E+03 0.  0.
   -5000001    1    1    2    0    0 -0.13592929036E+03 -0.10430308822E+03  0.53673183766E+03  0.59752654481E+03  0.19900000000E+03 0.  0.
<mgrwt>
<rscale>  0 0.55173940E+03</rscale>
<asrwt>0</asrwt>
<pdfrwt beam="1">  1        2 0.12402815E+00 0.55173940E+03</pdfrwt>
<pdfrwt beam="2">  1       -2 0.12522518E-01 0.55173940E+03</pdfrwt>
<totfact> 0.16216247E+03</totfact>
</mgrwt>
</event>
<event>
 4    1  0.5023236E-005  0.4523025E+03  0.7818608E-02  0.1027038E+00
         -2   -1    0    0    0  501 -0.00000000000E+00  0.00000000000E+00  0.19830251223E+02  0.19830251387E+02  0.25500000000E-02 0. -1.
          2   -1    0    0  501    0  0.00000000000E+00 -0.00000000000E+00 -0.25791096694E+04  0.25791096694E+04  0.25500000000E-02 0.  1.
    5000001    1    1    2    0    0 -0.72228423397E+02  0.60155877599E+02 -0.98064124499E+03  0.10050342910E+04  0.19900000000E+03 0.  0.
   -5000001    1    1    2    0    0  0.72228423397E+02 -0.60155877599E+02 -0.15786381732E+04  0.15939056298E+04  0.19900000000E+03 0.  0.
<mgrwt>
<rscale>  0 0.45230252E+03</rscale>
<asrwt>0</asrwt>
<pdfrwt beam="1">  1        2 0.36844403E+00 0.45230252E+03</pdfrwt>
<pdfrwt beam="2">  1       -2 0.28328947E-02 0.45230252E+03</pdfrwt>
<totfact> 0.20822026E+03</totfact>
</mgrwt>
</event>
<event>
 4    1  0.5023236E-005  0.6011662E+03  0.7818608E-02  0.9902990E-01
          2   -1    0    0  501    0  0.00000000000E+00  0.00000000000E+00  0.25945155367E+03  0.25945155369E+03  0.25500000000E-02 0.  1.
         -2   -1    0    0    0  501 -0.00000000000E+00 -0.00000000000E+00 -0.34823534186E+03  0.34823534187E+03  0.25500000000E-02 0. -1.
    5000001    1    1    2    0    0  0.34703473476E+02  0.21403899005E+03  0.17362322313E+02  0.29482108230E+03  0.19900000000E+03 0.  0.
   -5000001    1    1    2    0    0 -0.34703473476E+02 -0.21403899005E+03 -0.10614611050E+03  0.31286581326E+03  0.19900000000E+03 0.  0.
<mgrwt>
<rscale>  0 0.60116620E+03</rscale>
<asrwt>0</asrwt>
<pdfrwt beam="1">  1        2 0.37064508E-01 0.60116620E+03</pdfrwt>
<pdfrwt beam="2">  1       -2 0.49747906E-01 0.60116620E+03</pdfrwt>
<totfact> 0.54034914E+02</totfact>
</mgrwt>
</event>
<event>
 4    1  0.5023236E-005  0.6456404E+03  0.7818608E-02  0.9814994E-01
          2   -1    0    0  501    0  0.00000000000E+00  0.00000000000E+00  0.63099577201E+03  0.63099577201E+03  0.25500000000E-02 0.  1.
         -2   -1    0    0    0  501 -0.00000000000E+00 -0.00000000000E+00 -0.16515620718E+03  0.16515620720E+03  0.25500000000E-02 0. -1.
    5000001    1    1    2    0    0  0.12992932133E+03 -0.20274215603E+03  0.13254459402E+03  0.33934507478E+03  0.19900000000E+03 0.  0.
   -5000001    1    1    2    0    0 -0.12992932133E+03  0.20274215603E+03  0.33329497081E+03  0.45680690443E+03  0.19900000000E+03 0.  0.
<mgrwt>
<rscale>  0 0.64564036E+03</rscale>
<asrwt>0</asrwt>
<pdfrwt beam="1">  1        2 0.90142253E-01 0.64564036E+03</pdfrwt>
<pdfrwt beam="2">  1       -2 0.23593744E-01 0.64564036E+03</pdfrwt>
<totfact> 0.81539651E+02</totfact>
</mgrwt>
</event>
<event>
 4    1  0.5023236E-005  0.4364906E+03  0.7818608E-02  0.1031829E+00
          2   -1    0    0  501    0  0.00000000000E+00  0.00000000000E+00  0.22778642981E+04  0.22778642981E+04  0.25500000000E-02 0.  1.
         -2   -1    0    0    0  501 -0.00000000000E+00 -0.00000000000E+00 -0.20910381920E+02  0.20910382075E+02  0.25500000000E-02 0. -1.
    5000001    1    1    2    0    0 -0.68684588862E+00 -0.86939570962E+02  0.12427794933E+04  0.12616104112E+04  0.19900000000E+03 0.  0.
   -5000001    1    1    2    0    0  0.68684588862E+00  0.86939570962E+02  0.10141744229E+04  0.10371642690E+04  0.19900000000E+03 0.  0.
<mgrwt>
<rscale>  0 0.43649061E+03</rscale>
<asrwt>0</asrwt>
<pdfrwt beam="1">  1        2 0.32540929E+00 0.43649061E+03</pdfrwt>
<pdfrwt beam="2">  1       -2 0.29871965E-02 0.43649061E+03</pdfrwt>
<totfact> 0.27314300E+03</totfact>
</mgrwt>
</event>
<event>
 4    1  0.5023236E-005  0.5526912E+03  0.7818608E-02  0.1000873E+00
         -2   -1    0    0    0  501 -0.00000000000E+00  0.00000000000E+00  0.39635326498E+02  0.39635326580E+02  0.25500000000E-02 0. -1.
          2   -1    0    0  501    0  0.00000000000E+00 -0.00000000000E+00 -0.19267378349E+04  0.19267378349E+04  0.25500000000E-02 0.  1.
    5000001    1    1    2    0    0  0.17400973804E+03  0.42478735198E+02 -0.70010589705E+03  0.74955526745E+03  0.19900000000E+03 0.  0.
   -5000001    1    1    2    0    0 -0.17400973804E+03 -0.42478735198E+02 -0.11869966114E+04  0.12168178940E+04  0.19900000000E+03 0.  0.
<mgrwt>
<rscale>  0 0.55269117E+03</rscale>
<asrwt>0</asrwt>
<pdfrwt beam="1">  1        2 0.27524820E+00 0.55269117E+03</pdfrwt>
<pdfrwt beam="2">  1       -2 0.56621907E-02 0.55269117E+03</pdfrwt>
<totfact> 0.15280278E+03</totfact>
</mgrwt>
</event>
<event>
 4    1  0.5023236E-005  0.4976902E+03  0.7818608E-02  0.1014384E+00
          2   -1    0    0  501    0  0.00000000000E+00  0.00000000000E+00  0.29394153572E+03  0.29394153573E+03  0.25500000000E-02 0.  1.
         -2   -1    0    0    0  501 -0.00000000000E+00 -0.00000000000E+00 -0.21066735239E+03  0.21066735240E+03  0.25500000000E-02 0. -1.
    5000001    1    1    2    0    0 -0.87629972534E+02 -0.10819452890E+03 -0.13318029043E+02  0.24323535530E+03  0.19900000000E+03 0.  0.
   -5000001    1    1    2    0    0  0.87629972534E+02  0.10819452890E+03  0.96592212374E+02  0.26137353283E+03  0.19900000000E+03 0.  0.
<mgrwt>
<rscale>  0 0.49769021E+03</rscale>
<asrwt>0</asrwt>
<pdfrwt beam="1">  1        2 0.41991648E-01 0.49769021E+03</pdfrwt>
<pdfrwt beam="2">  1       -2 0.30095336E-01 0.49769021E+03</pdfrwt>
<totfact> 0.12417051E+03</totfact>
</mgrwt>
</event>
<event>
 4    1  0.5023236E-005  0.4820284E+03  0.7818608E-02  0.1018579E+00
         -2   -1    0    0    0  501 -0.00000000000E+00  0.00000000000E+00  0.91853795427E+02  0.91853795462E+02  0.25500000000E-02 0. -1.
          2   -1    0    0  501    0  0.00000000000E+00 -0.00000000000E+00 -0.63239456763E+03  0.63239456764E+03  0.25500000000E-02 0.  1.
    5000001    1    1    2    0    0  0.10169609726E+03  0.23100126310E+02 -0.13918947359E+03  0.26429230332E+03  0.19900000000E+03 0.  0.
   -5000001    1    1    2    0    0 -0.10169609726E+03 -0.23100126310E+02 -0.40135129861E+03  0.45995605978E+03  0.19900000000E+03 0.  0.
<mgrwt>
<rscale>  0 0.48202839E+03</rscale>
<asrwt>0</asrwt>
<pdfrwt beam="1">  1        2 0.90342079E-01 0.48202839E+03</pdfrwt>
<pdfrwt beam="2">  1       -2 0.13121971E-01 0.48202839E+03</pdfrwt>
<totfact> 0.22247452E+03</totfact>
</mgrwt>
</event>
<event>
 4    1  0.5023236E-005  0.8987695E+03  0.7818608E-02  0.9427121E-01
          2   -1    0    0  501    0  0.00000000000E+00  0.00000000000E+00  0.16744528648E+04  0.16744528648E+04  0.25500000000E-02 0.  1.
         -2   -1    0    0    0  501 -0.00000000000E+00 -0.00000000000E+00 -0.12060457160E+03  0.12060457163E+03  0.25500000000E-02 0. -1.
    5000001    1    1    2    0    0 -0.19434783750E+03  0.27560049349E+03  0.33653883867E+03  0.51631976902E+03  0.19900000000E+03 0.  0.
   -5000001    1    1    2    0    0  0.19434783750E+03 -0.27560049349E+03  0.12173094545E+04  0.12787376674E+04  0.19900000000E+03 0.  0.
<mgrwt>
<rscale>  0 0.89876954E+03</rscale>
<asrwt>0</asrwt>
<pdfrwt beam="1">  1        2 0.23920753E+00 0.89876954E+03</pdfrwt>
<pdfrwt beam="2">  1       -2 0.17229226E-01 0.89876954E+03</pdfrwt>
<totfact> 0.32854476E+02</totfact>
</mgrwt>
</event>
<event>
 4    1  0.5023236E-005  0.7429384E+03  0.7818608E-02  0.9646494E-01
         -2   -1    0    0    0  501 -0.00000000000E+00  0.00000000000E+00  0.44588149519E+02  0.44588149592E+02  0.25500000000E-02 0. -1.
          2   -1    0    0  501    0  0.00000000000E+00 -0.00000000000E+00 -0.30947546781E+04  0.30947546781E+04  0.25500000000E-02 0.  1.
    5000001    1    1    2    0    0  0.16039160630E+03  0.19917648132E+03 -0.22926000894E+04  0.23153861251E+04  0.19900000000E+03 0.  0.
   -5000001    1    1    2    0    0 -0.16039160630E+03 -0.19917648132E+03 -0.75756643916E+03  0.82395670264E+03  0.19900000000E+03 0.  0.
<mgrwt>
<rscale>  0 0.74293845E+03</rscale>
<asrwt>0</asrwt>
<pdfrwt beam="1">  1        2 0.44210767E+00 0.74293845E+03</pdfrwt>
<pdfrwt beam="2">  1       -2 0.63697376E-02 0.74293845E+03</pdfrwt>
<totfact> 0.30986535E+02</totfact>
</mgrwt>
</event>
<event>
 4    1  0.5023236E-005  0.6183168E+03  0.7818608E-02  0.9868117E-01
          2   -1    0    0  501    0  0.00000000000E+00  0.00000000000E+00  0.17258465052E+04  0.17258465052E+04  0.25500000000E-02 0.  1.
         -2   -1    0    0    0  501 -0.00000000000E+00 -0.00000000000E+00 -0.55380893705E+02  0.55380893764E+02  0.25500000000E-02 0. -1.
    5000001    1    1    2    0    0 -0.53166950564E+02  0.13496833983E+03  0.13736725300E+04  0.13955717098E+04  0.19900000000E+03 0.  0.
   -5000001    1    1    2    0    0  0.53166950564E+02 -0.13496833983E+03  0.29679308144E+03  0.38565568916E+03  0.19900000000E+03 0.  0.
<mgrwt>
<rscale>  0 0.61831682E+03</rscale>
<asrwt>0</asrwt>
<pdfrwt beam="1">  1        2 0.24654951E+00 0.61831682E+03</pdfrwt>
<pdfrwt beam="2">  1       -2 0.79115560E-02 0.61831682E+03</pdfrwt>
<totfact> 0.11356025E+03</totfact>
</mgrwt>
</event>
<event>
 4    1  0.5023236E-005  0.6505261E+03  0.7818608E-02  0.9805792E-01
          2   -1    0    0  501    0  0.00000000000E+00  0.00000000000E+00  0.39033213960E+03  0.39033213961E+03  0.25500000000E-02 0.  1.
         -2   -1    0    0    0  501 -0.00000000000E+00 -0.00000000000E+00 -0.27104110873E+03  0.27104110874E+03  0.25500000000E-02 0. -1.
    5000001    1    1    2    0    0 -0.12366273632E+03  0.20687210214E+03 -0.31891982242E+02  0.31417612502E+03  0.19900000000E+03 0.  0.
   -5000001    1    1    2    0    0  0.12366273632E+03 -0.20687210214E+03  0.15118301311E+03  0.34719712334E+03  0.19900000000E+03 0.  0.
<mgrwt>
<rscale>  0 0.65052611E+03</rscale>
<asrwt>0</asrwt>
<pdfrwt beam="1">  1        2 0.55761733E-01 0.65052611E+03</pdfrwt>
<pdfrwt beam="2">  1       -2 0.38720159E-01 0.65052611E+03</pdfrwt>
<totfact> 0.56376666E+02</totfact>
</mgrwt>
</event>
<event>
 4    1  0.5023236E-005  0.7168165E+03  0.7818608E-02  0.9688898E-01
         -2   -1    0    0    0  501 -0.00000000000E+00  0.00000000000E+00  0.64605929880E+03  0.64605929881E+03  0.25500000000E-02 0. -1.
          2   -1    0    0  501    0  0.00000000000E+00 -0.00000000000E+00 -0.19883076209E+03  0.19883076210E+03  0.25500000000E-02 0.  1.
    5000001    1    1    2    0    0  0.27582809955E+03 -0.85069109648E+02  0.31132481035E+03  0.46887315071E+03  0.19900000000E+03 0.  0.
   -5000001    1    1    2    0    0 -0.27582809955E+03  0.85069109648E+02  0.13590372636E+03  0.37601691020E+03  0.19900000000E+03 0.  0.
<mgrwt>
<rscale>  0 0.71681647E+03</rscale>
<asrwt>0</asrwt>
<pdfrwt beam="1">  1        2 0.28404394E-01 0.71681647E+03</pdfrwt>
<pdfrwt beam="2">  1       -2 0.92294187E-01 0.71681647E+03</pdfrwt>
<totfact> 0.19057496E+02</totfact>
</mgrwt>
</event>
<event>
 4    1  0.5023236E-005  0.4587161E+03  0.7818608E-02  0.1025154E+00
         -2   -1    0    0    0  501 -0.00000000000E+00  0.00000000000E+00  0.67354841906E+02  0.67354841954E+02  0.25500000000E-02 0. -1.
          2   -1    0    0  501    0  0.00000000000E+00 -0.00000000000E+00 -0.78101445953E+03  0.78101445953E+03  0.25500000000E-02 0.  1.
    5000001    1    1    2    0    0 -0.56283304988E+02 -0.61437875052E+02 -0.50082155426E+03  0.54531243532E+03  0.19900000000E+03 0.  0.
   -5000001    1    1    2    0    0  0.56283304988E+02  0.61437875052E+02 -0.21283806337E+03  0.30305686616E+03  0.19900000000E+03 0.  0.
<mgrwt>
<rscale>  0 0.45871606E+03</rscale>
<asrwt>0</asrwt>
<pdfrwt beam="1">  1        2 0.11157349E+00 0.45871606E+03</pdfrwt>
<pdfrwt beam="2">  1       -2 0.96221207E-02 0.45871606E+03</pdfrwt>
<totfact> 0.28511616E+03</totfact>
</mgrwt>
</event>
<event>
 4    1  0.5023236E-005  0.7986052E+03  0.7818608E-02  0.9562038E-01
         -2   -1    0    0    0  501 -0.00000000000E+00  0.00000000000E+00  0.26406563454E+03  0.26406563455E+03  0.25500000000E-02 0. -1.
          2   -1    0    0  501    0  0.00000000000E+00 -0.00000000000E+00 -0.60379905934E+03  0.60379905935E+03  0.25500000000E-02 0.  1.
    5000001    1    1    2    0    0 -0.34634321115E+02 -0.30333330400E+03  0.74759459138E+01  0.36450997144E+03  0.19900000000E+03 0.  0.
   -5000001    1    1    2    0    0  0.34634321115E+02  0.30333330400E+03 -0.34720937072E+03  0.50335472246E+03  0.19900000000E+03 0.  0.
<mgrwt>
<rscale>  0 0.79860524E+03</rscale>
<asrwt>0</asrwt>
<pdfrwt beam="1">  1        2 0.86257008E-01 0.79860524E+03</pdfrwt>
<pdfrwt beam="2">  1       -2 0.37723662E-01 0.79860524E+03</pdfrwt>
<totfact> 0.35862959E+02</totfact>
</mgrwt>
</event>
<event>
 4    1  0.5023236E-005  0.5952747E+03  0.7818608E-02  0.9915258E-01
          2   -1    0    0  501    0  0.00000000000E+00  0.00000000000E+00  0.51260971076E+03  0.51260971077E+03  0.25500000000E-02 0.  1.
         -2   -1    0    0    0  501 -0.00000000000E+00 -0.00000000000E+00 -0.17281760882E+03  0.17281760884E+03  0.25500000000E-02 0. -1.
    5000001    1    1    2    0    0 -0.15913527132E+03 -0.93255967031E+02  0.29031778116E+02  0.27288194170E+03  0.19900000000E+03 0.  0.
   -5000001    1    1    2    0    0  0.15913527132E+03  0.93255967031E+02  0.31076032382E+03  0.41254537790E+03  0.19900000000E+03 0.  0.
<mgrwt>
<rscale>  0 0.59527467E+03</rscale>
<asrwt>0</asrwt>
<pdfrwt beam="1">  1        2 0.73229958E-01 0.59527467E+03</pdfrwt>
<pdfrwt beam="2">  1       -2 0.24688230E-01 0.59527467E+03</pdfrwt>
<totfact> 0.95880061E+02</totfact>
</mgrwt>
</event>
<event>
 4    1  0.5023236E-005  0.5960845E+03  0.7818608E-02  0.9913563E-01
          2   -1    0    0  501    0  0.00000000000E+00  0.00000000000E+00  0.13287718844E+03  0.13287718847E+03  0.25500000000E-02 0.  1.
         -2   -1    0    0    0  501 -0.00000000000E+00 -0.00000000000E+00 -0.66850578694E+03  0.66850578694E+03  0.25500000000E-02 0. -1.
    5000001    1    1    2    0    0  0.72332264960E+02  0.20102721236E+03 -0.18732598303E+03  0.34689468226E+03  0.19900000000E+03 0.  0.
   -5000001    1    1    2    0    0 -0.72332264960E+02 -0.20102721236E+03 -0.34830261547E+03  0.45448829315E+03  0.19900000000E+03 0.  0.
<mgrwt>
<rscale>  0 0.59608446E+03</rscale>
<asrwt>0</asrwt>
<pdfrwt beam="1">  1        2 0.18982456E-01 0.59608446E+03</pdfrwt>
<pdfrwt beam="2">  1       -2 0.95500825E-01 0.59608446E+03</pdfrwt>
<totfact> 0.28137718E+02</totfact>
</mgrwt>
</event>
<event>
 4    1  0.5023236E-005  0.1176609E+04  0.7818608E-02  0.9133581E-01
          2   -1    0    0  501    0  0.00000000000E+00  0.00000000000E+00  0.13696245459E+04  0.13696245459E+04  0.25500000000E-02 0.  1.
         -2   -1    0    0    0  501 -0.00000000000E+00 -0.00000000000E+00 -0.25269845394E+03  0.25269845396E+03  0.25500000000E-02 0. -1.
    5000001    1    1    2    0    0 -0.40756609484E+03 -0.64030891033E+01  0.41914312652E+02  0.45553148170E+03  0.19900000000E+03 0.  0.
   -5000001    1    1    2    0    0  0.40756609484E+03  0.64030891033E+01  0.10750117793E+04  0.11667915182E+04  0.19900000000E+03 0.  0.
<mgrwt>
<rscale>  0 0.11766087E+04</rscale>
<asrwt>0</asrwt>
<pdfrwt beam="1">  1        2 0.19566065E+00 0.11766087E+04</pdfrwt>
<pdfrwt beam="2">  1       -2 0.36099778E-01 0.11766087E+04</pdfrwt>
<totfact> 0.12247989E+02</totfact>
</mgrwt>
</event>
<event>
 4    1  0.5023236E-005  0.9025269E+03  0.7818608E-02  0.9422428E-01
         -2   -1    0    0    0  501 -0.00000000000E+00  0.00000000000E+00  0.19795239403E+03  0.19795239404E+03  0.25500000000E-02 0. -1.
          2   -1    0    0  501    0  0.00000000000E+00 -0.00000000000E+00 -0.10287256197E+04  0.10287256197E+04  0.25500000000E-02 0.  1.
    5000001    1    1    2    0    0 -0.36778523452E+03  0.50854265383E+02 -0.19544804318E+03  0.46438461712E+03  0.19900000000E+03 0.  0.
   -5000001    1    1    2    0    0  0.36778523452E+03 -0.50854265383E+02 -0.63532518250E+03  0.76229339664E+03  0.19900000000E+03 0.  0.
<mgrwt>
<rscale>  0 0.90252690E+03</rscale>
<asrwt>0</asrwt>
<pdfrwt beam="1">  1        2 0.14696080E+00 0.90252690E+03</pdfrwt>
<pdfrwt beam="2">  1       -2 0.28278914E-01 0.90252690E+03</pdfrwt>
<totfact> 0.30837493E+02</totfact>
</mgrwt>
</event>
<event>
 4    1  0.5023236E-005  0.4340361E+03  0.7818608E-02  0.1032593E+00
         -2   -1    0    0    0  501 -0.00000000000E+00  0.00000000000E+00  0.41156156000E+02  0.41156156079E+02  0.25500000000E-02 0. -1.
          2   -1    0    0  501    0  0.00000000000E+00 -0.00000000000E+00 -0.11443447634E+04  0.11443447634E+04  0.25500000000E-02 0.  1.
    5000001    1    1    2    0    0 -0.85622491923E+02  0.86627436062E+01 -0.57744518048E+03  0.61680644509E+03  0.19900000000E+03 0.  0.
   -5000001    1    1    2    0    0  0.85622491923E+02 -0.86627436062E+01 -0.52574342693E+03  0.56869447440E+03  0.19900000000E+03 0.  0.
<mgrwt>
<rscale>  0 0.43403609E+03</rscale>
<asrwt>0</asrwt>
<pdfrwt beam="1">  1        2 0.16347780E+00 0.43403609E+03</pdfrwt>
<pdfrwt beam="2">  1       -2 0.58794516E-02 0.43403609E+03</pdfrwt>
<totfact> 0.36896583E+03</totfact>
</mgrwt>
</event>
<event>
 4    1  0.5023236E-005  0.8134554E+03  0.7818608E-02  0.9540743E-01
          2   -1    0    0  501    0  0.00000000000E+00  0.00000000000E+00  0.17511131558E+04  0.17511131558E+04  0.25500000000E-02 0.  1.
         -2   -1    0    0    0  501 -0.00000000000E+00 -0.00000000000E+00 -0.94469875369E+02  0.94469875403E+02  0.25500000000E-02 0. -1.
    5000001    1    1    2    0    0 -0.16753214984E+01  0.34452760561E+03  0.63681983910E+03  0.75089452336E+03  0.19900000000E+03 0.  0.
   -5000001    1    1    2    0    0  0.16753214984E+01 -0.34452760561E+03  0.10198234413E+04  0.10946885078E+04  0.19900000000E+03 0.  0.
<mgrwt>
<rscale>  0 0.81345545E+03</rscale>
<asrwt>0</asrwt>
<pdfrwt beam="1">  1        2 0.25015904E+00 0.81345545E+03</pdfrwt>
<pdfrwt beam="2">  1       -2 0.13495695E-01 0.81345545E+03</pdfrwt>
<totfact> 0.45646070E+02</totfact>
</mgrwt>
</event>
<event>
 4    1  0.5023236E-005  0.6062224E+03  0.7818608E-02  0.9892580E-01
          2   -1    0    0  501    0  0.00000000000E+00  0.00000000000E+00  0.16765649007E+04  0.16765649007E+04  0.25500000000E-02 0.  1.
         -2   -1    0    0    0  501 -0.00000000000E+00 -0.00000000000E+00 -0.54800376062E+02  0.54800376121E+02  0.25500000000E-02 0. -1.
    5000001    1    1    2    0    0  0.28258813678E+02  0.22190564459E+03  0.67587178258E+03  0.73921873768E+03  0.19900000000E+03 0.  0.
   -5000001    1    1    2    0    0 -0.28258813678E+02 -0.22190564459E+03  0.94589274210E+03  0.99214653918E+03  0.19900000000E+03 0.  0.
<mgrwt>
<rscale>  0 0.60622236E+03</rscale>
<asrwt>0</asrwt>
<pdfrwt beam="1">  1        2 0.23950932E+00 0.60622236E+03</pdfrwt>
<pdfrwt beam="2">  1       -2 0.78286237E-02 0.60622236E+03</pdfrwt>
<totfact> 0.12241418E+03</totfact>
</mgrwt>
</event>
<event>
 4    1  0.5023236E-005  0.6353324E+03  0.7818608E-02  0.9834698E-01
          2   -1    0    0  501    0  0.00000000000E+00  0.00000000000E+00  0.70316996455E+03  0.70316996456E+03  0.25500000000E-02 0.  1.
         -2   -1    0    0    0  501 -0.00000000000E+00 -0.00000000000E+00 -0.14350984113E+03  0.14350984115E+03  0.25500000000E-02 0. -1.
    5000001    1    1    2    0    0 -0.10358229076E+03  0.21565177151E+03  0.19475028008E+03  0.36710168769E+03  0.19900000000E+03 0.  0.
   -5000001    1    1    2    0    0  0.10358229076E+03 -0.21565177151E+03  0.36490984334E+03  0.47957811802E+03  0.19900000000E+03 0.  0.
<mgrwt>
<rscale>  0 0.63533239E+03</rscale>
<asrwt>0</asrwt>
<pdfrwt beam="1">  1        2 0.10045285E+00 0.63533239E+03</pdfrwt>
<pdfrwt beam="2">  1       -2 0.20501405E-01 0.63533239E+03</pdfrwt>
<totfact> 0.91685088E+02</totfact>
</mgrwt>
</event>
<event>
 4    1  0.5023236E-005  0.5452995E+03  0.7818608E-02  0.1002588E+00
          2   -1    0    0  501    0  0.00000000000E+00  0.00000000000E+00  0.20442061650E+03  0.20442061652E+03  0.25500000000E-02 0.  1.
         -2   -1    0    0    0  501 -0.00000000000E+00 -0.00000000000E+00 -0.36365165032E+03  0.36365165033E+03  0.25500000000E-02 0. -1.
    5000001    1    1    2    0    0  0.17467600646E+03 -0.54338181573E+02 -0.42452943471E+02  0.27361943940E+03  0.19900000000E+03 0.  0.
   -5000001    1    1    2    0    0 -0.17467600646E+03  0.54338181573E+02 -0.11677809035E+03  0.29445282745E+03  0.19900000000E+03 0.  0.
<mgrwt>
<rscale>  0 0.54529953E+03</rscale>
<asrwt>0</asrwt>
<pdfrwt beam="1">  1        2 0.29202945E-01 0.54529953E+03</pdfrwt>
<pdfrwt beam="2">  1       -2 0.51950236E-01 0.54529953E+03</pdfrwt>
<totfact> 0.64606252E+02</totfact>
</mgrwt>
</event>
<event>
 4    1  0.5023236E-005  0.5144860E+03  0.7818608E-02  0.1010066E+00
          2   -1    0    0  501    0  0.00000000000E+00  0.00000000000E+00  0.30227141710E+03  0.30227141711E+03  0.25500000000E-02 0.  1.
         -2   -1    0    0    0  501 -0.00000000000E+00 -0.00000000000E+00 -0.21892230289E+03  0.21892230290E+03  0.25500000000E-02 0. -1.
    5000001    1    1    2    0    0 -0.12610595083E+03 -0.79639462331E-01  0.14631815847E+03  0.27733142749E+03  0.19900000000E+03 0.  0.
   -5000001    1    1    2    0    0  0.12610595083E+03  0.79639462331E-01 -0.62969044253E+02  0.24386229252E+03  0.19900000000E+03 0.  0.
<mgrwt>
<rscale>  0 0.51448598E+03</rscale>
<asrwt>0</asrwt>
<pdfrwt beam="1">  1        2 0.43181631E-01 0.51448598E+03</pdfrwt>
<pdfrwt beam="2">  1       -2 0.31274615E-01 0.51448598E+03</pdfrwt>
<totfact> 0.11216673E+03</totfact>
</mgrwt>
</event>
<event>
 4    1  0.5023236E-005  0.4671141E+03  0.7818608E-02  0.1022738E+00
         -2   -1    0    0    0  501 -0.00000000000E+00  0.00000000000E+00  0.11362859910E+03  0.11362859913E+03  0.25500000000E-02 0. -1.
          2   -1    0    0  501    0  0.00000000000E+00 -0.00000000000E+00 -0.48006306008E+03  0.48006306009E+03  0.25500000000E-02 0.  1.
    5000001    1    1    2    0    0 -0.11164161101E+03 -0.45661459424E+02 -0.20860737337E+03  0.31251696660E+03  0.19900000000E+03 0.  0.
   -5000001    1    1    2    0    0  0.11164161101E+03  0.45661459424E+02 -0.15782708761E+03  0.28117469262E+03  0.19900000000E+03 0.  0.
<mgrwt>
<rscale>  0 0.46711409E+03</rscale>
<asrwt>0</asrwt>
<pdfrwt beam="1">  1        2 0.68580436E-01 0.46711409E+03</pdfrwt>
<pdfrwt beam="2">  1       -2 0.16232657E-01 0.46711409E+03</pdfrwt>
<totfact> 0.21398993E+03</totfact>
</mgrwt>
</event>
<event>
 4    1  0.5023236E-005  0.4420020E+03  0.7818608E-02  0.1030134E+00
         -2   -1    0    0    0  501 -0.00000000000E+00  0.00000000000E+00  0.42335068857E+02  0.42335068933E+02  0.25500000000E-02 0. -1.
          2   -1    0    0  501    0  0.00000000000E+00 -0.00000000000E+00 -0.11536873962E+04  0.11536873962E+04  0.25500000000E-02 0.  1.
    5000001    1    1    2    0    0 -0.90196577928E+02  0.20651488399E+02 -0.48519074834E+03  0.53251569829E+03  0.19900000000E+03 0.  0.
   -5000001    1    1    2    0    0  0.90196577928E+02 -0.20651488399E+02 -0.62616157904E+03  0.66350676689E+03  0.19900000000E+03 0.  0.
<mgrwt>
<rscale>  0 0.44200197E+03</rscale>
<asrwt>0</asrwt>
<pdfrwt beam="1">  1        2 0.16481247E+00 0.44200197E+03</pdfrwt>
<pdfrwt beam="2">  1       -2 0.60478677E-02 0.44200197E+03</pdfrwt>
<totfact> 0.34890200E+03</totfact>
</mgrwt>
</event>
<event>
 4    1  0.5023236E-005  0.7992184E+03  0.7818608E-02  0.9561149E-01
         -2   -1    0    0    0  501 -0.00000000000E+00  0.00000000000E+00  0.31256249309E+03  0.31256249310E+03  0.25500000000E-02 0. -1.
          2   -1    0    0  501    0  0.00000000000E+00 -0.00000000000E+00 -0.51089783968E+03  0.51089783968E+03  0.25500000000E-02 0.  1.
    5000001    1    1    2    0    0 -0.34487084905E+03  0.27780867054E+02 -0.79113922432E+02  0.40690010055E+03  0.19900000000E+03 0.  0.
   -5000001    1    1    2    0    0  0.34487084905E+03 -0.27780867054E+02 -0.11922142416E+03  0.41656023223E+03  0.19900000000E+03 0.  0.
<mgrwt>
<rscale>  0 0.79921837E+03</rscale>
<asrwt>0</asrwt>
<pdfrwt beam="1">  1        2 0.72985405E-01 0.79921837E+03</pdfrwt>
<pdfrwt beam="2">  1       -2 0.44651785E-01 0.79921837E+03</pdfrwt>
<totfact> 0.31327915E+02</totfact>
</mgrwt>
</event>
<event>
 4    1  0.5023236E-005  0.5759690E+03  0.7818608E-02  0.9956556E-01
          2   -1    0    0  501    0  0.00000000000E+00  0.00000000000E+00  0.37953201895E+03  0.37953201895E+03  0.25500000000E-02 0.  1.
         -2   -1    0    0    0  501 -0.00000000000E+00 -0.00000000000E+00 -0.21851927168E+03  0.21851927170E+03  0.25500000000E-02 0. -1.
    5000001    1    1    2    0    0  0.13941096522E+03  0.13358715199E+03  0.16129102421E+03  0.32077521552E+03  0.19900000000E+03 0.  0.
   -5000001    1    1    2    0    0 -0.13941096522E+03 -0.13358715199E+03 -0.27827694558E+00  0.27727607513E+03  0.19900000000E+03 0.  0.
<mgrwt>
<rscale>  0 0.57596896E+03</rscale>
<asrwt>0</asrwt>
<pdfrwt beam="1">  1        2 0.54218860E-01 0.57596896E+03</pdfrwt>
<pdfrwt beam="2">  1       -2 0.31217039E-01 0.57596896E+03</pdfrwt>
<totfact> 0.87562124E+02</totfact>
</mgrwt>
</event>
<event>
 4    1  0.5023236E-005  0.5547636E+03  0.7818608E-02  0.1000397E+00
          2   -1    0    0  501    0  0.00000000000E+00  0.00000000000E+00  0.49936652752E+03  0.49936652753E+03  0.25500000000E-02 0.  1.
         -2   -1    0    0    0  501 -0.00000000000E+00 -0.00000000000E+00 -0.15407655286E+03  0.15407655288E+03  0.25500000000E-02 0. -1.
    5000001    1    1    2    0    0  0.59611801798E+02  0.10089065623E+03 -0.83313725601E+01  0.23109068176E+03  0.19900000000E+03 0.  0.
   -5000001    1    1    2    0    0 -0.59611801798E+02 -0.10089065623E+03  0.35362134723E+03  0.42235239865E+03  0.19900000000E+03 0.  0.
<mgrwt>
<rscale>  0 0.55476364E+03</rscale>
<asrwt>0</asrwt>
<pdfrwt beam="1">  1        2 0.71338075E-01 0.55476364E+03</pdfrwt>
<pdfrwt beam="2">  1       -2 0.22010936E-01 0.55476364E+03</pdfrwt>
<totfact> 0.12115782E+03</totfact>
</mgrwt>
</event>
<event>
 4    1  0.5023236E-005  0.7712849E+03  0.7818608E-02  0.9602537E-01
         -2   -1    0    0    0  501 -0.00000000000E+00  0.00000000000E+00  0.11732147212E+03  0.11732147214E+03  0.25500000000E-02 0. -1.
          2   -1    0    0  501    0  0.00000000000E+00 -0.00000000000E+00 -0.12676289582E+04  0.12676289582E+04  0.25500000000E-02 0.  1.
    5000001    1    1    2    0    0 -0.25176800386E+03  0.10874476246E+02 -0.19165219508E+03  0.37394778496E+03  0.19900000000E+03 0.  0.
   -5000001    1    1    2    0    0  0.25176800386E+03 -0.10874476246E+02 -0.95865529097E+03  0.10110026454E+04  0.19900000000E+03 0.  0.
<mgrwt>
<rscale>  0 0.77128489E+03</rscale>
<asrwt>0</asrwt>
<pdfrwt beam="1">  1        2 0.18108984E+00 0.77128489E+03</pdfrwt>
<pdfrwt beam="2">  1       -2 0.16760211E-01 0.77128489E+03</pdfrwt>
<totfact> 0.57051110E+02</totfact>
</mgrwt>
</event>
<event>
 4    1  0.5023236E-005  0.1007285E+04  0.7818608E-02  0.9300590E-01
         -2   -1    0    0    0  501 -0.00000000000E+00  0.00000000000E+00  0.79058077548E+03  0.79058077549E+03  0.25500000000E-02 0. -1.
          2   -1    0    0  501    0  0.00000000000E+00 -0.00000000000E+00 -0.32084757377E+03  0.32084757378E+03  0.25500000000E-02 0.  1.
    5000001    1    1    2    0    0  0.29471408225E+03 -0.35501160018E+03  0.27253241098E+03  0.57163322294E+03  0.19900000000E+03 0.  0.
   -5000001    1    1    2    0    0 -0.29471408225E+03  0.35501160018E+03  0.19720079073E+03  0.53979512633E+03  0.19900000000E+03 0.  0.
<mgrwt>
<rscale>  0 0.10072853E+04</rscale>
<asrwt>0</asrwt>
<pdfrwt beam="1">  1        2 0.45835369E-01 0.10072853E+04</pdfrwt>
<pdfrwt beam="2">  1       -2 0.11294011E+00 0.10072853E+04</pdfrwt>
<totfact> 0.68076548E+01</totfact>
</mgrwt>
</event>
<event>
 4    1  0.5023236E-005  0.7471312E+03  0.7818608E-02  0.9639862E-01
         -2   -1    0    0    0  501 -0.00000000000E+00  0.00000000000E+00  0.20794479806E+03  0.20794479808E+03  0.25500000000E-02 0. -1.
          2   -1    0    0  501    0  0.00000000000E+00 -0.00000000000E+00 -0.67109759835E+03  0.67109759835E+03  0.25500000000E-02 0.  1.
    5000001    1    1    2    0    0  0.24948875909E+03 -0.48200584714E+02 -0.10263825865E+02  0.32291528827E+03  0.19900000000E+03 0.  0.
   -5000001    1    1    2    0    0 -0.24948875909E+03  0.48200584714E+02 -0.45288897442E+03  0.55612710816E+03  0.19900000000E+03 0.  0.
<mgrwt>
<rscale>  0 0.74713119E+03</rscale>
<asrwt>0</asrwt>
<pdfrwt beam="1">  1        2 0.95871084E-01 0.74713119E+03</pdfrwt>
<pdfrwt beam="2">  1       -2 0.29706400E-01 0.74713119E+03</pdfrwt>
<totfact> 0.49688066E+02</totfact>
</mgrwt>
</event>
<event>
 4    1  0.5023236E-005  0.5185354E+03  0.7818608E-02  0.1009051E+00
          2   -1    0    0  501    0  0.00000000000E+00  0.00000000000E+00  0.95505765610E+03  0.95505765610E+03  0.25500000000E-02 0.  1.
         -2   -1    0    0    0  501 -0.00000000000E+00 -0.00000000000E+00 -0.70382914534E+02  0.70382914580E+02  0.25500000000E-02 0. -1.
    5000001    1    1    2    0    0  0.15501585880E+03 -0.54961789944E+02  0.39520531218E+03  0.47205820998E+03  0.19900000000E+03 0.  0.
   -5000001    1    1    2    0    0 -0.15501585880E+03  0.54961789944E+02  0.48946942938E+03  0.55338236070E+03  0.19900000000E+03 0.  0.
<mgrwt>
<rscale>  0 0.51853540E+03</rscale>
<asrwt>0</asrwt>
<pdfrwt beam="1">  1        2 0.13643680E+00 0.51853540E+03</pdfrwt>
<pdfrwt beam="2">  1       -2 0.10054703E-01 0.51853540E+03</pdfrwt>
<totfact> 0.20427326E+03</totfact>
</mgrwt>
</event>
<event>
 4    1  0.5023236E-005  0.5688890E+03  0.7818608E-02  0.9972140E-01
         -2   -1    0    0    0  501 -0.00000000000E+00  0.00000000000E+00  0.28102426214E+03  0.28102426215E+03  0.25500000000E-02 0. -1.
          2   -1    0    0  501    0  0.00000000000E+00 -0.00000000000E+00 -0.28790632018E+03  0.28790632019E+03  0.25500000000E-02 0.  1.
    5000001    1    1    2    0    0 -0.18132395054E+03  0.78052351365E+02 -0.51788300253E+02  0.28505012302E+03  0.19900000000E+03 0.  0.
   -5000001    1    1    2    0    0  0.18132395054E+03 -0.78052351365E+02  0.44906242211E+02  0.28388045931E+03  0.19900000000E+03 0.  0.
<mgrwt>
<rscale>  0 0.56888896E+03</rscale>
<asrwt>0</asrwt>
<pdfrwt beam="1">  1        2 0.41129474E-01 0.56888896E+03</pdfrwt>
<pdfrwt beam="2">  1       -2 0.40146324E-01 0.56888896E+03</pdfrwt>
<totfact> 0.73687029E+02</totfact>
</mgrwt>
</event>
<event>
 4    1  0.5023236E-005  0.4540388E+03  0.7818608E-02  0.1026524E+00
          2   -1    0    0  501    0  0.00000000000E+00  0.00000000000E+00  0.29067473718E+03  0.29067473719E+03  0.25500000000E-02 0.  1.
         -2   -1    0    0    0  501 -0.00000000000E+00 -0.00000000000E+00 -0.17730401093E+03  0.17730401095E+03  0.25500000000E-02 0. -1.
    5000001    1    1    2    0    0  0.37774963142E+02 -0.75521776105E+02  0.12814143090E+03  0.25130004540E+03  0.19900000000E+03 0.  0.
   -5000001    1    1    2    0    0 -0.37774963142E+02  0.75521776105E+02 -0.14770704652E+02  0.21667870274E+03  0.19900000000E+03 0.  0.
<mgrwt>
<rscale>  0 0.45403875E+03</rscale>
<asrwt>0</asrwt>
<pdfrwt beam="1">  1        2 0.41524962E-01 0.45403875E+03</pdfrwt>
<pdfrwt beam="2">  1       -2 0.25329145E-01 0.45403875E+03</pdfrwt>
<totfact> 0.17177324E+03</totfact>
</mgrwt>
</event>
<event>
 4    1  0.5023236E-005  0.5925713E+03  0.7818608E-02  0.9920939E-01
          2   -1    0    0  501    0  0.00000000000E+00  0.00000000000E+00  0.16522270129E+04  0.16522270129E+04  0.25500000000E-02 0.  1.
         -2   -1    0    0    0  501 -0.00000000000E+00 -0.00000000000E+00 -0.53131439889E+02  0.53131439950E+02  0.25500000000E-02 0. -1.
    5000001    1    1    2    0    0 -0.21096663088E+03 -0.19322408452E+02  0.63412697365E+03  0.69756597790E+03  0.19900000000E+03 0.  0.
   -5000001    1    1    2    0    0  0.21096663088E+03  0.19322408452E+02  0.96496859934E+03  0.10077924749E+04  0.19900000000E+03 0.  0.
<mgrwt>
<rscale>  0 0.59257135E+03</rscale>
<asrwt>0</asrwt>
<pdfrwt beam="1">  1        2 0.23603247E+00 0.59257135E+03</pdfrwt>
<pdfrwt beam="2">  1       -2 0.75902045E-02 0.59257135E+03</pdfrwt>
<totfact> 0.13238976E+03</totfact>
</mgrwt>
</event>
<event>
 4    1  0.5023236E-005  0.5670639E+03  0.7818608E-02  0.9976197E-01
         -2   -1    0    0    0  501 -0.00000000000E+00  0.00000000000E+00  0.33824713995E+02  0.33824714091E+02  0.25500000000E-02 0. -1.
          2   -1    0    0  501    0  0.00000000000E+00 -0.00000000000E+00 -0.23766753585E+04  0.23766753585E+04  0.25500000000E-02 0.  1.
    5000001    1    1    2    0    0 -0.13807817249E+03  0.98962532291E+02 -0.16357256758E+04  0.16565200424E+04  0.19900000000E+03 0.  0.
   -5000001    1    1    2    0    0  0.13807817249E+03 -0.98962532291E+02 -0.70712496876E+03  0.75398003021E+03  0.19900000000E+03 0.  0.
<mgrwt>
<rscale>  0 0.56706389E+03</rscale>
<asrwt>0</asrwt>
<pdfrwt beam="1">  1        2 0.33952494E+00 0.56706389E+03</pdfrwt>
<pdfrwt beam="2">  1       -2 0.48321035E-02 0.56706389E+03</pdfrwt>
<totfact> 0.11601043E+03</totfact>
</mgrwt>
</event>
<event>
 4    1  0.5023236E-005  0.5082958E+03  0.7818608E-02  0.1011636E+00
         -2   -1    0    0    0  501 -0.00000000000E+00  0.00000000000E+00  0.38988766519E+02  0.38988766603E+02  0.25500000000E-02 0. -1.
          2   -1    0    0  501    0  0.00000000000E+00 -0.00000000000E+00 -0.16566605770E+04  0.16566605770E+04  0.25500000000E-02 0.  1.
    5000001    1    1    2    0    0  0.88008880300E+02  0.13029381342E+03 -0.75421267215E+03  0.79571338789E+03  0.19900000000E+03 0.  0.
   -5000001    1    1    2    0    0 -0.88008880300E+02 -0.13029381342E+03 -0.86345913828E+03  0.89993595567E+03  0.19900000000E+03 0.  0.
<mgrwt>
<rscale>  0 0.50829579E+03</rscale>
<asrwt>0</asrwt>
<pdfrwt beam="1">  1        2 0.23666575E+00 0.50829579E+03</pdfrwt>
<pdfrwt beam="2">  1       -2 0.55698248E-02 0.50829579E+03</pdfrwt>
<totfact> 0.21475856E+03</totfact>
</mgrwt>
</event>
<event>
 4    1  0.5023236E-005  0.6559423E+03  0.7818608E-02  0.9795692E-01
          2   -1    0    0  501    0  0.00000000000E+00  0.00000000000E+00  0.80856373259E+03  0.80856373260E+03  0.25500000000E-02 0.  1.
         -2   -1    0    0    0  501 -0.00000000000E+00 -0.00000000000E+00 -0.13303228559E+03  0.13303228562E+03  0.25500000000E-02 0. -1.
    5000001    1    1    2    0    0 -0.17935162492E+03 -0.12233601929E+03  0.13058289614E+03  0.32215834576E+03  0.19900000000E+03 0.  0.
   -5000001    1    1    2    0    0  0.17935162492E+03  0.12233601929E+03  0.54494855086E+03  0.61943767246E+03  0.19900000000E+03 0.  0.
<mgrwt>
<rscale>  0 0.65594232E+03</rscale>
<asrwt>0</asrwt>
<pdfrwt beam="1">  1        2 0.11550910E+00 0.65594232E+03</pdfrwt>
<pdfrwt beam="2">  1       -2 0.19004614E-01 0.65594232E+03</pdfrwt>
<totfact> 0.87753987E+02</totfact>
</mgrwt>
</event>
<event>
 4    1  0.5023236E-005  0.5512284E+03  0.7818608E-02  0.1001210E+00
          2   -1    0    0  501    0  0.00000000000E+00  0.00000000000E+00  0.28068390139E+04  0.28068390139E+04  0.25500000000E-02 0.  1.
         -2   -1    0    0    0  501 -0.00000000000E+00 -0.00000000000E+00 -0.27063604613E+02  0.27063604733E+02  0.25500000000E-02 0. -1.
    5000001    1    1    2    0    0  0.18201798937E+03  0.49725517532E+02  0.15315244480E+04  0.15558828074E+04  0.19900000000E+03 0.  0.
   -5000001    1    1    2    0    0 -0.18201798937E+03 -0.49725517532E+02  0.12482509613E+04  0.12780198113E+04  0.19900000000E+03 0.  0.
<mgrwt>
<rscale>  0 0.55122838E+03</rscale>
<asrwt>0</asrwt>
<pdfrwt beam="1">  1        2 0.40097718E+00 0.55122838E+03</pdfrwt>
<pdfrwt beam="2">  1       -2 0.38662275E-02 0.55122838E+03</pdfrwt>
<totfact> 0.98115298E+02</totfact>
</mgrwt>
</event>
<event>
 4    1  0.5023236E-005  0.5832061E+03  0.7818608E-02  0.9940874E-01
         -2   -1    0    0    0  501 -0.00000000000E+00  0.00000000000E+00  0.36195278033E+02  0.36195278123E+02  0.25500000000E-02 0. -1.
          2   -1    0    0  501    0  0.00000000000E+00 -0.00000000000E+00 -0.23492658776E+04  0.23492658776E+04  0.25500000000E-02 0.  1.
    5000001    1    1    2    0    0 -0.16632127591E+03  0.13081578224E+03 -0.12612806367E+04  0.12942972535E+04  0.19900000000E+03 0.  0.
   -5000001    1    1    2    0    0  0.16632127591E+03 -0.13081578224E+03 -0.10517899629E+04  0.10911639023E+04  0.19900000000E+03 0.  0.
<mgrwt>
<rscale>  0 0.58320608E+03</rscale>
<asrwt>0</asrwt>
<pdfrwt beam="1">  1        2 0.33560931E+00 0.58320608E+03</pdfrwt>
<pdfrwt beam="2">  1       -2 0.51707555E-02 0.58320608E+03</pdfrwt>
<totfact> 0.10772843E+03</totfact>
</mgrwt>
</event>
<event>
 4    1  0.5023236E-005  0.5218967E+03  0.7818608E-02  0.1008216E+00
          2   -1    0    0  501    0  0.00000000000E+00  0.00000000000E+00  0.99990372078E+03  0.99990372078E+03  0.25500000000E-02 0.  1.
         -2   -1    0    0    0  501 -0.00000000000E+00 -0.00000000000E+00 -0.68100586932E+02  0.68100586979E+02  0.25500000000E-02 0. -1.
    5000001    1    1    2    0    0 -0.13913337161E+03  0.33056277325E+02  0.64941860961E+03  0.69411551133E+03  0.19900000000E+03 0.  0.
   -5000001    1    1    2    0    0  0.13913337161E+03 -0.33056277325E+02  0.28238452424E+03  0.37388879643E+03  0.19900000000E+03 0.  0.
<mgrwt>
<rscale>  0 0.52189666E+03</rscale>
<asrwt>0</asrwt>
<pdfrwt beam="1">  1        2 0.14284339E+00 0.52189666E+03</pdfrwt>
<pdfrwt beam="2">  1       -2 0.97286554E-02 0.52189666E+03</pdfrwt>
<totfact> 0.20220804E+03</totfact>
</mgrwt>
</event>
<event>
 4    1  0.5023236E-005  0.5606909E+03  0.7818608E-02  0.9990493E-01
          2   -1    0    0  501    0  0.00000000000E+00  0.00000000000E+00  0.34587982183E+03  0.34587982184E+03  0.25500000000E-02 0.  1.
         -2   -1    0    0    0  501 -0.00000000000E+00 -0.00000000000E+00 -0.22722799061E+03  0.22722799063E+03  0.25500000000E-02 0. -1.
    5000001    1    1    2    0    0  0.48965810685E+02  0.14905427357E+03 -0.63236769534E+02  0.26117947107E+03  0.19900000000E+03 0.  0.
   -5000001    1    1    2    0    0 -0.48965810685E+02 -0.14905427357E+03  0.18188860075E+03  0.31192834140E+03  0.19900000000E+03 0.  0.
<mgrwt>
<rscale>  0 0.56069092E+03</rscale>
<asrwt>0</asrwt>
<pdfrwt beam="1">  1        2 0.49411403E-01 0.56069092E+03</pdfrwt>
<pdfrwt beam="2">  1       -2 0.32461141E-01 0.56069092E+03</pdfrwt>
<totfact> 0.90220112E+02</totfact>
</mgrwt>
</event>
<event>
 4    1  0.5023236E-005  0.8019404E+03  0.7818608E-02  0.9557213E-01
         -2   -1    0    0    0  501 -0.00000000000E+00  0.00000000000E+00  0.39843944816E+02  0.39843944898E+02  0.25500000000E-02 0. -1.
          2   -1    0    0  501    0  0.00000000000E+00 -0.00000000000E+00 -0.40351705213E+04  0.40351705213E+04  0.25500000000E-02 0.  1.
    5000001    1    1    2    0    0  0.27408519930E+03  0.21352008167E+03 -0.18883720959E+04  0.19303532564E+04  0.19900000000E+03 0.  0.
   -5000001    1    1    2    0    0 -0.27408519930E+03 -0.21352008167E+03 -0.21069544805E+04  0.21446612098E+04  0.19900000000E+03 0.  0.
<mgrwt>
<rscale>  0 0.80194043E+03</rscale>
<asrwt>0</asrwt>
<pdfrwt beam="1">  1        2 0.57645267E+00 0.80194043E+03</pdfrwt>
<pdfrwt beam="2">  1       -2 0.56919947E-02 0.80194043E+03</pdfrwt>
<totfact> 0.98141263E+01</totfact>
</mgrwt>
</event>
<event>
 4    1  0.5023236E-005  0.6027277E+03  0.7818608E-02  0.9899763E-01
         -2   -1    0    0    0  501 -0.00000000000E+00  0.00000000000E+00  0.10856922178E+04  0.10856922178E+04  0.25500000000E-02 0. -1.
          2   -1    0    0  501    0  0.00000000000E+00 -0.00000000000E+00 -0.83651865252E+02  0.83651865290E+02  0.25500000000E-02 0.  1.
    5000001    1    1    2    0    0  0.58841807619E+02  0.20706130184E+03  0.63658266151E+03  0.70083894440E+03  0.19900000000E+03 0.  0.
   -5000001    1    1    2    0    0 -0.58841807619E+02 -0.20706130184E+03  0.36545769102E+03  0.46850513868E+03  0.19900000000E+03 0.  0.
<mgrwt>
<rscale>  0 0.60272773E+03</rscale>
<asrwt>0</asrwt>
<pdfrwt beam="1">  1        2 0.11950267E-01 0.60272773E+03</pdfrwt>
<pdfrwt beam="2">  1       -2 0.15509888E+00 0.60272773E+03</pdfrwt>
<totfact> 0.14793811E+02</totfact>
</mgrwt>
</event>
<event>
 4    1  0.5023236E-005  0.4852184E+03  0.7818608E-02  0.1017711E+00
         -2   -1    0    0    0  501 -0.00000000000E+00  0.00000000000E+00  0.88187874660E+02  0.88187874696E+02  0.25500000000E-02 0. -1.
          2   -1    0    0  501    0  0.00000000000E+00 -0.00000000000E+00 -0.66742986428E+03  0.66742986429E+03  0.25500000000E-02 0.  1.
    5000001    1    1    2    0    0  0.13546698227E+03 -0.71730037149E+00 -0.33650510334E+03  0.41374932312E+03  0.19900000000E+03 0.  0.
   -5000001    1    1    2    0    0 -0.13546698227E+03  0.71730037149E+00 -0.24273688628E+03  0.34186841587E+03  0.19900000000E+03 0.  0.
<mgrwt>
<rscale>  0 0.48521839E+03</rscale>
<asrwt>0</asrwt>
<pdfrwt beam="1">  1        2 0.95347120E-01 0.48521839E+03</pdfrwt>
<pdfrwt beam="2">  1       -2 0.12598268E-01 0.48521839E+03</pdfrwt>
<totfact> 0.22315058E+03</totfact>
</mgrwt>
</event>
<event>
 4    1  0.5023236E-005  0.1013354E+04  0.7818608E-02  0.9294018E-01
         -2   -1    0    0    0  501 -0.00000000000E+00  0.00000000000E+00  0.28463217421E+03  0.28463217422E+03  0.25500000000E-02 0. -1.
          2   -1    0    0  501    0  0.00000000000E+00 -0.00000000000E+00 -0.90194181117E+03  0.90194181118E+03  0.25500000000E-02 0.  1.
    5000001    1    1    2    0    0 -0.43255295434E+03 -0.11617873089E+03 -0.15814906922E+03  0.51498707159E+03  0.19900000000E+03 0.  0.
   -5000001    1    1    2    0    0  0.43255295434E+03  0.11617873089E+03 -0.45916056775E+03  0.67158691380E+03  0.19900000000E+03 0.  0.
<mgrwt>
<rscale>  0 0.10133542E+04</rscale>
<asrwt>0</asrwt>
<pdfrwt beam="1">  1        2 0.12884883E+00 0.10133542E+04</pdfrwt>
<pdfrwt beam="2">  1       -2 0.40661739E-01 0.10133542E+04</pdfrwt>
<totfact> 0.18498605E+02</totfact>
</mgrwt>
</event>
<event>
 4    1  0.5023236E-005  0.1585284E+04  0.7818608E-02  0.8829640E-01
          2   -1    0    0  501    0  0.00000000000E+00  0.00000000000E+00  0.42437837198E+04  0.42437837198E+04  0.25500000000E-02 0.  1.
         -2   -1    0    0    0  501 -0.00000000000E+00 -0.00000000000E+00 -0.14804750294E+03  0.14804750296E+03  0.25500000000E-02 0. -1.
    5000001    1    1    2    0    0  0.17996511812E+03  0.47973782776E+03  0.46573258626E+03  0.72044685371E+03  0.19900000000E+03 0.  0.
   -5000001    1    1    2    0    0 -0.17996511812E+03 -0.47973782776E+03  0.36300036306E+04  0.36713843691E+04  0.19900000000E+03 0.  0.
<mgrwt>
<rscale>  0 0.15852843E+04</rscale>
<asrwt>0</asrwt>
<pdfrwt beam="1">  1        2 0.60625486E+00 0.15852843E+04</pdfrwt>
<pdfrwt beam="2">  1       -2 0.21149642E-01 0.15852843E+04</pdfrwt>
<totfact> 0.72495350E+00</totfact>
</mgrwt>
</event>
<event>
 4    1  0.5023236E-005  0.5198106E+03  0.7818608E-02  0.1008734E+00
          2   -1    0    0  501    0  0.00000000000E+00  0.00000000000E+00  0.37757118588E+04  0.37757118588E+04  0.25500000000E-02 0.  1.
         -2   -1    0    0    0  501 -0.00000000000E+00 -0.00000000000E+00 -0.17890870169E+02  0.17890870351E+02  0.25500000000E-02 0. -1.
    5000001    1    1    2    0    0 -0.68324047241E+02 -0.14410254118E+03  0.22449825756E+04  0.22594206077E+04  0.19900000000E+03 0.  0.
   -5000001    1    1    2    0    0  0.68324047241E+02  0.14410254118E+03  0.15128384131E+04  0.15341821215E+04  0.19900000000E+03 0.  0.
<mgrwt>
<rscale>  0 0.51981062E+03</rscale>
<asrwt>0</asrwt>
<pdfrwt beam="1">  1        2 0.53938703E+00 0.51981062E+03</pdfrwt>
<pdfrwt beam="2">  1       -2 0.25558404E-02 0.51981062E+03</pdfrwt>
<totfact> 0.51547403E+02</totfact>
</mgrwt>
</event>
<event>
 4    1  0.5023236E-005  0.5375095E+03  0.7818608E-02  0.1004427E+00
          2   -1    0    0  501    0  0.00000000000E+00  0.00000000000E+00  0.11896351417E+04  0.11896351417E+04  0.25500000000E-02 0.  1.
         -2   -1    0    0    0  501 -0.00000000000E+00 -0.00000000000E+00 -0.60715357177E+02  0.60715357230E+02  0.25500000000E-02 0. -1.
    5000001    1    1    2    0    0 -0.10715441079E+03 -0.13834676786E+03  0.66865218696E+03  0.71924866567E+03  0.19900000000E+03 0.  0.
   -5000001    1    1    2    0    0  0.10715441079E+03  0.13834676786E+03  0.46026759751E+03  0.53110183322E+03  0.19900000000E+03 0.  0.
<mgrwt>
<rscale>  0 0.53750953E+03</rscale>
<asrwt>0</asrwt>
<pdfrwt beam="1">  1        2 0.16994786E+00 0.53750953E+03</pdfrwt>
<pdfrwt beam="2">  1       -2 0.86736235E-02 0.53750953E+03</pdfrwt>
<totfact> 0.18857123E+03</totfact>
</mgrwt>
</event>
<event>
 4    1  0.5023236E-005  0.5050078E+03  0.7818608E-02  0.1012480E+00
         -2   -1    0    0    0  501 -0.00000000000E+00  0.00000000000E+00  0.15001108119E+04  0.15001108119E+04  0.25500000000E-02 0. -1.
          2   -1    0    0  501    0  0.00000000000E+00 -0.00000000000E+00 -0.42502333125E+02  0.42502333201E+02  0.25500000000E-02 0.  1.
    5000001    1    1    2    0    0 -0.12292781987E+03 -0.73966768517E+02  0.91144157991E+03  0.94387980450E+03  0.19900000000E+03 0.  0.
   -5000001    1    1    2    0    0  0.12292781987E+03  0.73966768517E+02  0.54616689889E+03  0.59873334064E+03  0.19900000000E+03 0.  0.
<mgrwt>
<rscale>  0 0.50500776E+03</rscale>
<asrwt>0</asrwt>
<pdfrwt beam="1">  1        2 0.60717619E-02 0.50500776E+03</pdfrwt>
<pdfrwt beam="2">  1       -2 0.21430155E+00 0.50500776E+03</pdfrwt>
<totfact> 0.14139815E+02</totfact>
</mgrwt>
</event>
<event>
 4    1  0.5023236E-005  0.4573524E+03  0.7818608E-02  0.1025552E+00
         -2   -1    0    0    0  501 -0.00000000000E+00  0.00000000000E+00  0.96956647872E+02  0.96956647906E+02  0.25500000000E-02 0. -1.
          2   -1    0    0  501    0  0.00000000000E+00 -0.00000000000E+00 -0.53934218447E+03  0.53934218448E+03  0.25500000000E-02 0.  1.
    5000001    1    1    2    0    0  0.94433399803E+02  0.45902151664E+02 -0.27799895305E+03  0.35764380663E+03  0.19900000000E+03 0.  0.
   -5000001    1    1    2    0    0 -0.94433399803E+02 -0.45902151664E+02 -0.16438658355E+03  0.27865502575E+03  0.19900000000E+03 0.  0.
<mgrwt>
<rscale>  0 0.45735243E+03</rscale>
<asrwt>0</asrwt>
<pdfrwt beam="1">  1        2 0.77048882E-01 0.45735243E+03</pdfrwt>
<pdfrwt beam="2">  1       -2 0.13850950E-01 0.45735243E+03</pdfrwt>
<totfact> 0.24458658E+03</totfact>
</mgrwt>
</event>
<event>
 4    1  0.5023236E-005  0.7646234E+03  0.7818608E-02  0.9612684E-01
         -2   -1    0    0    0  501 -0.00000000000E+00  0.00000000000E+00  0.32752549010E+02  0.32752549109E+02  0.25500000000E-02 0. -1.
          2   -1    0    0  501    0  0.00000000000E+00 -0.00000000000E+00 -0.44626219927E+04  0.44626219927E+04  0.25500000000E-02 0.  1.
    5000001    1    1    2    0    0 -0.77788770570E+02  0.29306153008E+03 -0.29259314357E+04  0.29483235779E+04  0.19900000000E+03 0.  0.
   -5000001    1    1    2    0    0  0.77788770570E+02 -0.29306153008E+03 -0.15039380080E+04  0.15470509640E+04  0.19900000000E+03 0.  0.
<mgrwt>
<rscale>  0 0.76462343E+03</rscale>
<asrwt>0</asrwt>
<pdfrwt beam="1">  1        2 0.63751704E+00 0.76462343E+03</pdfrwt>
<pdfrwt beam="2">  1       -2 0.46789384E-02 0.76462343E+03</pdfrwt>
<totfact> 0.65884504E+01</totfact>
</mgrwt>
</event>
<event>
 4    1  0.5023236E-005  0.7643604E+03  0.7818608E-02  0.9613087E-01
          2   -1    0    0  501    0  0.00000000000E+00  0.00000000000E+00  0.18444141247E+04  0.18444141247E+04  0.25500000000E-02 0.  1.
         -2   -1    0    0    0  501 -0.00000000000E+00 -0.00000000000E+00 -0.79191387404E+02  0.79191387445E+02  0.25500000000E-02 0. -1.
    5000001    1    1    2    0    0  0.23356143783E+03 -0.53476328386E+02  0.32524911778E+03  0.45033171280E+03  0.19900000000E+03 0.  0.
   -5000001    1    1    2    0    0 -0.23356143783E+03  0.53476328386E+02  0.14399736195E+04  0.14732737994E+04  0.19900000000E+03 0.  0.
<mgrwt>
<rscale>  0 0.76436042E+03</rscale>
<asrwt>0</asrwt>
<pdfrwt beam="1">  1        2 0.26348773E+00 0.76436042E+03</pdfrwt>
<pdfrwt beam="2">  1       -2 0.11313056E-01 0.76436042E+03</pdfrwt>
<totfact> 0.54982728E+02</totfact>
</mgrwt>
</event>
<event>
 4    1  0.5023236E-005  0.7083054E+03  0.7818608E-02  0.9703133E-01
         -2   -1    0    0    0  501 -0.00000000000E+00  0.00000000000E+00  0.18180298783E+04  0.18180298783E+04  0.25500000000E-02 0. -1.
          2   -1    0    0  501    0  0.00000000000E+00 -0.00000000000E+00 -0.68989035708E+02  0.68989035755E+02  0.25500000000E-02 0.  1.
    5000001    1    1    2    0    0 -0.13350781676E+03  0.15970442322E+03  0.32533894282E+03  0.43448390954E+03  0.19900000000E+03 0.  0.
   -5000001    1    1    2    0    0  0.13350781676E+03 -0.15970442322E+03  0.14237018998E+04  0.14525350045E+04  0.19900000000E+03 0.  0.
<mgrwt>
<rscale>  0 0.70830538E+03</rscale>
<asrwt>0</asrwt>
<pdfrwt beam="1">  1        2 0.98555781E-02 0.70830538E+03</pdfrwt>
<pdfrwt beam="2">  1       -2 0.25971851E+00 0.70830538E+03</pdfrwt>
<totfact> 0.39223278E+01</totfact>
</mgrwt>
</event>
<event>
 4    1  0.5023236E-005  0.7667412E+03  0.7818608E-02  0.9609446E-01
          2   -1    0    0  501    0  0.00000000000E+00  0.00000000000E+00  0.61015114276E+03  0.61015114277E+03  0.25500000000E-02 0.  1.
         -2   -1    0    0    0  501 -0.00000000000E+00 -0.00000000000E+00 -0.24087967358E+03  0.24087967360E+03  0.25500000000E-02 0. -1.
    5000001    1    1    2    0    0  0.59260954777E+02  0.79004097215E+02 -0.16215107019E+03  0.27504086551E+03  0.19900000000E+03 0.  0.
   -5000001    1    1    2    0    0 -0.59260954777E+02 -0.79004097215E+02  0.53142253937E+03  0.57598995086E+03  0.19900000000E+03 0.  0.
<mgrwt>
<rscale>  0 0.76674118E+03</rscale>
<asrwt>0</asrwt>
<pdfrwt beam="1">  1        2 0.87164448E-01 0.76674118E+03</pdfrwt>
<pdfrwt beam="2">  1       -2 0.34411382E-01 0.76674118E+03</pdfrwt>
<totfact> 0.42273352E+02</totfact>
</mgrwt>
</event>
<event>
 4    1  0.5023236E-005  0.4918627E+03  0.7818608E-02  0.1015925E+00
         -2   -1    0    0    0  501 -0.00000000000E+00  0.00000000000E+00  0.61472604459E+02  0.61472604512E+02  0.25500000000E-02 0. -1.
          2   -1    0    0  501    0  0.00000000000E+00 -0.00000000000E+00 -0.98388901382E+03  0.98388901382E+03  0.25500000000E-02 0.  1.
    5000001    1    1    2    0    0  0.20207348274E+02  0.10161373205E+03 -0.67530142903E+03  0.71159448249E+03  0.19900000000E+03 0.  0.
   -5000001    1    1    2    0    0 -0.20207348274E+02 -0.10161373205E+03 -0.24711498033E+03  0.33376713584E+03  0.19900000000E+03 0.  0.
<mgrwt>
<rscale>  0 0.49186266E+03</rscale>
<asrwt>0</asrwt>
<pdfrwt beam="1">  1        2 0.14055556E+00 0.49186266E+03</pdfrwt>
<pdfrwt beam="2">  1       -2 0.87818012E-02 0.49186266E+03</pdfrwt>
<totfact> 0.24375406E+03</totfact>
</mgrwt>
</event>
<event>
 4    1  0.5023236E-005  0.9980498E+03  0.7818608E-02  0.9310686E-01
         -2   -1    0    0    0  501 -0.00000000000E+00  0.00000000000E+00  0.90872723217E+02  0.90872723253E+02  0.25500000000E-02 0. -1.
          2   -1    0    0  501    0  0.00000000000E+00 -0.00000000000E+00 -0.27403803753E+04  0.27403803753E+04  0.25500000000E-02 0.  1.
    5000001    1    1    2    0    0  0.32500374852E+03  0.26012810605E+03 -0.78553499903E+03  0.91102157099E+03  0.19900000000E+03 0.  0.
   -5000001    1    1    2    0    0 -0.32500374852E+03 -0.26012810605E+03 -0.18639726531E+04  0.19202315276E+04  0.19900000000E+03 0.  0.
<mgrwt>
<rscale>  0 0.99804975E+03</rscale>
<asrwt>0</asrwt>
<pdfrwt beam="1">  1        2 0.39148286E+00 0.99804975E+03</pdfrwt>
<pdfrwt beam="2">  1       -2 0.12981819E-01 0.99804975E+03</pdfrwt>
<totfact> 0.14870057E+02</totfact>
</mgrwt>
</event>
<event>
 4    1  0.5023236E-005  0.5906202E+03  0.7818608E-02  0.9925060E-01
         -2   -1    0    0    0  501 -0.00000000000E+00  0.00000000000E+00  0.47070721758E+03  0.47070721759E+03  0.25500000000E-02 0. -1.
          2   -1    0    0  501    0  0.00000000000E+00 -0.00000000000E+00 -0.18527027478E+03  0.18527027480E+03  0.25500000000E-02 0.  1.
    5000001    1    1    2    0    0  0.12061378519E+03  0.14147454933E+03  0.26956874283E+03  0.38318538646E+03  0.19900000000E+03 0.  0.
   -5000001    1    1    2    0    0 -0.12061378519E+03 -0.14147454933E+03  0.15868199966E+02  0.27279210593E+03  0.19900000000E+03 0.  0.
<mgrwt>
<rscale>  0 0.59062020E+03</rscale>
<asrwt>0</asrwt>
<pdfrwt beam="1">  1        2 0.26467182E-01 0.59062020E+03</pdfrwt>
<pdfrwt beam="2">  1       -2 0.67243888E-01 0.59062020E+03</pdfrwt>
<totfact> 0.42027840E+02</totfact>
</mgrwt>
</event>
<event>
 4    1  0.5023236E-005  0.5669095E+03  0.7818608E-02  0.9976541E-01
          2   -1    0    0  501    0  0.00000000000E+00  0.00000000000E+00  0.36736579325E+04  0.36736579325E+04  0.25500000000E-02 0.  1.
         -2   -1    0    0    0  501 -0.00000000000E+00 -0.00000000000E+00 -0.21871005101E+02  0.21871005249E+02  0.25500000000E-02 0. -1.
    5000001    1    1    2    0    0 -0.95917894606E+02 -0.17341082245E+03  0.20761681348E+04  0.20950767718E+04  0.19900000000E+03 0.  0.
   -5000001    1    1    2    0    0  0.95917894606E+02  0.17341082245E+03  0.15756187927E+04  0.16004521660E+04  0.19900000000E+03 0.  0.
<mgrwt>
<rscale>  0 0.56690949E+03</rscale>
<asrwt>0</asrwt>
<pdfrwt beam="1">  1        2 0.52480756E+00 0.56690949E+03</pdfrwt>
<pdfrwt beam="2">  1       -2 0.31244336E-02 0.56690949E+03</pdfrwt>
<totfact> 0.43738965E+02</totfact>
</mgrwt>
</event>
<event>
 4    1  0.5023236E-005  0.7403015E+03  0.7818608E-02  0.9650690E-01
          2   -1    0    0  501    0  0.00000000000E+00  0.00000000000E+00  0.96076949356E+03  0.96076949356E+03  0.25500000000E-02 0.  1.
         -2   -1    0    0    0  501 -0.00000000000E+00 -0.00000000000E+00 -0.14260607571E+03  0.14260607573E+03  0.25500000000E-02 0. -1.
    5000001    1    1    2    0    0  0.31399832783E+01 -0.31180302106E+03  0.42905493548E+03  0.56649812100E+03  0.19900000000E+03 0.  0.
   -5000001    1    1    2    0    0 -0.31399832783E+01  0.31180302106E+03  0.38910848237E+03  0.53687744829E+03  0.19900000000E+03 0.  0.
<mgrwt>
<rscale>  0 0.74030147E+03</rscale>
<asrwt>0</asrwt>
<pdfrwt beam="1">  1        2 0.13725278E+00 0.74030147E+03</pdfrwt>
<pdfrwt beam="2">  1       -2 0.20372297E-01 0.74030147E+03</pdfrwt>
<totfact> 0.61608847E+02</totfact>
</mgrwt>
</event>
<event>
 4    1  0.5023236E-005  0.1230258E+04  0.7818608E-02  0.9086776E-01
          2   -1    0    0  501    0  0.00000000000E+00  0.00000000000E+00  0.40365160960E+04  0.40365160960E+04  0.25500000000E-02 0.  1.
         -2   -1    0    0    0  501 -0.00000000000E+00 -0.00000000000E+00 -0.93740172494E+02  0.93740172529E+02  0.25500000000E-02 0. -1.
    5000001    1    1    2    0    0  0.47141263345E+02 -0.57984468472E+03  0.19094329598E+04  0.20059853901E+04  0.19900000000E+03 0.  0.
   -5000001    1    1    2    0    0 -0.47141263345E+02  0.57984468472E+03  0.20333429637E+04  0.21242708785E+04  0.19900000000E+03 0.  0.
<mgrwt>
<rscale>  0 0.12302580E+04</rscale>
<asrwt>0</asrwt>
<pdfrwt beam="1">  1        2 0.57664531E+00 0.12302580E+04</pdfrwt>
<pdfrwt beam="2">  1       -2 0.13391450E-01 0.12302580E+04</pdfrwt>
<totfact> 0.23236217E+01</totfact>
</mgrwt>
</event>
<event>
 4    1  0.5023236E-005  0.4270795E+03  0.7818608E-02  0.1034787E+00
          2   -1    0    0  501    0  0.00000000000E+00  0.00000000000E+00  0.62271320211E+03  0.62271320212E+03  0.25500000000E-02 0.  1.
         -2   -1    0    0    0  501 -0.00000000000E+00 -0.00000000000E+00 -0.73226676513E+02  0.73226676558E+02  0.25500000000E-02 0. -1.
    5000001    1    1    2    0    0 -0.17667498583E+02  0.71131765490E+02  0.31552553812E+03  0.38017000641E+03  0.19900000000E+03 0.  0.
   -5000001    1    1    2    0    0  0.17667498583E+02 -0.71131765490E+02  0.23396098748E+03  0.31576987226E+03  0.19900000000E+03 0.  0.
<mgrwt>
<rscale>  0 0.42707947E+03</rscale>
<asrwt>0</asrwt>
<pdfrwt beam="1">  1        2 0.88959033E-01 0.42707947E+03</pdfrwt>
<pdfrwt beam="2">  1       -2 0.10460953E-01 0.42707947E+03</pdfrwt>
<totfact> 0.32759161E+03</totfact>
</mgrwt>
</event>
<event>
 4    1  0.5023236E-005  0.5912423E+03  0.7818608E-02  0.9923744E-01
         -2   -1    0    0    0  501 -0.00000000000E+00  0.00000000000E+00  0.14648721419E+03  0.14648721421E+03  0.25500000000E-02 0. -1.
          2   -1    0    0  501    0  0.00000000000E+00 -0.00000000000E+00 -0.59658356207E+03  0.59658356207E+03  0.25500000000E-02 0.  1.
    5000001    1    1    2    0    0 -0.20684046839E+03 -0.63786655950E+02 -0.18653303043E+03  0.34820581311E+03  0.19900000000E+03 0.  0.
   -5000001    1    1    2    0    0  0.20684046839E+03  0.63786655950E+02 -0.26356331745E+03  0.39486496318E+03  0.19900000000E+03 0.  0.
<mgrwt>
<rscale>  0 0.59124230E+03</rscale>
<asrwt>0</asrwt>
<pdfrwt beam="1">  1        2 0.85226222E-01 0.59124230E+03</pdfrwt>
<pdfrwt beam="2">  1       -2 0.20926745E-01 0.59124230E+03</pdfrwt>
<totfact> 0.10780621E+03</totfact>
</mgrwt>
</event>
<event>
 4    1  0.5023236E-005  0.1202183E+04  0.7818608E-02  0.9110948E-01
         -2   -1    0    0    0  501 -0.00000000000E+00  0.00000000000E+00  0.16836134301E+03  0.16836134303E+03  0.25500000000E-02 0. -1.
          2   -1    0    0  501    0  0.00000000000E+00 -0.00000000000E+00 -0.21460435683E+04  0.21460435683E+04  0.25500000000E-02 0.  1.
    5000001    1    1    2    0    0  0.29039483206E+03 -0.48686183147E+03 -0.95302179469E+03  0.11265944890E+04  0.19900000000E+03 0.  0.
   -5000001    1    1    2    0    0 -0.29039483206E+03  0.48686183147E+03 -0.10246604306E+04  0.11878104224E+04  0.19900000000E+03 0.  0.
<mgrwt>
<rscale>  0 0.12021826E+04</rscale>
<asrwt>0</asrwt>
<pdfrwt beam="1">  1        2 0.30657764E+00 0.12021826E+04</pdfrwt>
<pdfrwt beam="2">  1       -2 0.24051622E-01 0.12021826E+04</pdfrwt>
<totfact> 0.10253476E+02</totfact>
</mgrwt>
</event>
<event>
 4    1  0.5023236E-005  0.5364461E+03  0.7818608E-02  0.1004681E+00
         -2   -1    0    0    0  501 -0.00000000000E+00  0.00000000000E+00  0.34608506336E+03  0.34608506337E+03  0.25500000000E-02 0. -1.
          2   -1    0    0  501    0  0.00000000000E+00 -0.00000000000E+00 -0.20787837740E+03  0.20787837742E+03  0.25500000000E-02 0.  1.
    5000001    1    1    2    0    0  0.96236983509E+02 -0.15183110379E+03  0.74602685872E+02  0.27835373505E+03  0.19900000000E+03 0.  0.
   -5000001    1    1    2    0    0 -0.96236983509E+02  0.15183110379E+03  0.63604000087E+02  0.27560970575E+03  0.19900000000E+03 0.  0.
<mgrwt>
<rscale>  0 0.53644609E+03</rscale>
<asrwt>0</asrwt>
<pdfrwt beam="1">  1        2 0.29696911E-01 0.53644609E+03</pdfrwt>
<pdfrwt beam="2">  1       -2 0.49440723E-01 0.53644609E+03</pdfrwt>
<totfact> 0.70102625E+02</totfact>
</mgrwt>
</event>
<event>
 4    1  0.5023236E-005  0.8588652E+03  0.7818608E-02  0.9478515E-01
          2   -1    0    0  501    0  0.00000000000E+00  0.00000000000E+00  0.11607147903E+04  0.11607147903E+04  0.25500000000E-02 0.  1.
         -2   -1    0    0    0  501 -0.00000000000E+00 -0.00000000000E+00 -0.15887825404E+03  0.15887825406E+03  0.25500000000E-02 0. -1.
    5000001    1    1    2    0    0 -0.35233863890E+03  0.12640451934E+03  0.39568942278E+03  0.57990666341E+03  0.19900000000E+03 0.  0.
   -5000001    1    1    2    0    0  0.35233863890E+03 -0.12640451934E+03  0.60614711347E+03  0.73968638093E+03  0.19900000000E+03 0.  0.
<mgrwt>
<rscale>  0 0.85886516E+03</rscale>
<asrwt>0</asrwt>
<pdfrwt beam="1">  1        2 0.16581641E+00 0.85886516E+03</pdfrwt>
<pdfrwt beam="2">  1       -2 0.22696893E-01 0.85886516E+03</pdfrwt>
<totfact> 0.38451341E+02</totfact>
</mgrwt>
</event>
<event>
 4    1  0.5023236E-005  0.7020429E+03  0.7818608E-02  0.9713745E-01
          2   -1    0    0  501    0  0.00000000000E+00  0.00000000000E+00  0.10577984430E+04  0.10577984430E+04  0.25500000000E-02 0.  1.
         -2   -1    0    0    0  501 -0.00000000000E+00 -0.00000000000E+00 -0.11648349376E+03  0.11648349379E+03  0.25500000000E-02 0. -1.
    5000001    1    1    2    0    0  0.86082532777E+02  0.27577212129E+03  0.44986033153E+03  0.57046979167E+03  0.19900000000E+03 0.  0.
   -5000001    1    1    2    0    0 -0.86082532777E+02 -0.27577212129E+03  0.49145461774E+03  0.60381214515E+03  0.19900000000E+03 0.  0.
<mgrwt>
<rscale>  0 0.70204290E+03</rscale>
<asrwt>0</asrwt>
<pdfrwt beam="1">  1        2 0.15111406E+00 0.70204290E+03</pdfrwt>
<pdfrwt beam="2">  1       -2 0.16640500E-01 0.70204290E+03</pdfrwt>
<totfact> 0.76374006E+02</totfact>
</mgrwt>
</event>
<event>
 4    1  0.5023236E-005  0.6519971E+03  0.7818608E-02  0.9803039E-01
         -2   -1    0    0    0  501 -0.00000000000E+00  0.00000000000E+00  0.16515335511E+03  0.16515335513E+03  0.25500000000E-02 0. -1.
          2   -1    0    0  501    0  0.00000000000E+00 -0.00000000000E+00 -0.64349312711E+03  0.64349312711E+03  0.25500000000E-02 0.  1.
    5000001    1    1    2    0    0 -0.63792707277E+02  0.23263388576E+03 -0.12491758972E+03  0.33673942230E+03  0.19900000000E+03 0.  0.
   -5000001    1    1    2    0    0  0.63792707277E+02 -0.23263388576E+03 -0.35342218227E+03  0.47190705995E+03  0.19900000000E+03 0.  0.
<mgrwt>
<rscale>  0 0.65199708E+03</rscale>
<asrwt>0</asrwt>
<pdfrwt beam="1">  1        2 0.91927588E-01 0.65199708E+03</pdfrwt>
<pdfrwt beam="2">  1       -2 0.23593337E-01 0.65199708E+03</pdfrwt>
<totfact> 0.79640934E+02</totfact>
</mgrwt>
</event>
<event>
 4    1  0.5023236E-005  0.6204388E+03  0.7818608E-02  0.9863886E-01
         -2   -1    0    0    0  501 -0.00000000000E+00  0.00000000000E+00  0.69728262227E+02  0.69728262273E+02  0.25500000000E-02 0. -1.
          2   -1    0    0  501    0  0.00000000000E+00 -0.00000000000E+00 -0.13801589911E+04  0.13801589911E+04  0.25500000000E-02 0.  1.
    5000001    1    1    2    0    0  0.12846670185E+03  0.19029716216E+03 -0.80149665738E+03  0.85715494236E+03  0.19900000000E+03 0.  0.
   -5000001    1    1    2    0    0 -0.12846670185E+03 -0.19029716216E+03 -0.50893407154E+03  0.59273231106E+03  0.19900000000E+03 0.  0.
<mgrwt>
<rscale>  0 0.62043884E+03</rscale>
<asrwt>0</asrwt>
<pdfrwt beam="1">  1        2 0.19716555E+00 0.62043884E+03</pdfrwt>
<pdfrwt beam="2">  1       -2 0.99611811E-02 0.62043884E+03</pdfrwt>
<totfact> 0.11850492E+03</totfact>
</mgrwt>
</event>
<event>
 4    1  0.5023236E-005  0.5231755E+03  0.7818608E-02  0.1007901E+00
         -2   -1    0    0    0  501 -0.00000000000E+00  0.00000000000E+00  0.21764698568E+03  0.21764698570E+03  0.25500000000E-02 0. -1.
          2   -1    0    0  501    0  0.00000000000E+00 -0.00000000000E+00 -0.31439977460E+03  0.31439977461E+03  0.25500000000E-02 0.  1.
    5000001    1    1    2    0    0 -0.98725089194E+02  0.69334490445E+01 -0.18867381422E+03  0.29153648850E+03  0.19900000000E+03 0.  0.
   -5000001    1    1    2    0    0  0.98725089194E+02 -0.69334490445E+01  0.91921025303E+02  0.24051027181E+03  0.19900000000E+03 0.  0.
<mgrwt>
<rscale>  0 0.52317555E+03</rscale>
<asrwt>0</asrwt>
<pdfrwt beam="1">  1        2 0.44914254E-01 0.52317555E+03</pdfrwt>
<pdfrwt beam="2">  1       -2 0.31092426E-01 0.52317555E+03</pdfrwt>
<totfact> 0.10859100E+03</totfact>
</mgrwt>
</event>
<event>
 4    1  0.5023236E-005  0.4816664E+03  0.7818608E-02  0.1018678E+00
          2   -1    0    0  501    0  0.00000000000E+00  0.00000000000E+00  0.10658301601E+04  0.10658301601E+04  0.25500000000E-02 0. -1.
         -2   -1    0    0    0  501 -0.00000000000E+00 -0.00000000000E+00 -0.54418273246E+02  0.54418273306E+02  0.25500000000E-02 0.  1.
    5000001    1    1    2    0    0  0.81640330544E+02 -0.57703235583E+02  0.71892815019E+03  0.75263104646E+03  0.19900000000E+03 0.  0.
   -5000001    1    1    2    0    0 -0.81640330544E+02  0.57703235583E+02  0.29248373665E+03  0.36761738693E+03  0.19900000000E+03 0.  0.
<mgrwt>
<rscale>  0 0.48166643E+03</rscale>
<asrwt>0</asrwt>
<pdfrwt beam="1">  1        2 0.15226144E+00 0.48166643E+03</pdfrwt>
<pdfrwt beam="2">  1       -2 0.77740396E-02 0.48166643E+03</pdfrwt>
<totfact> 0.26433450E+03</totfact>
</mgrwt>
</event>
<event>
 4    1  0.5023236E-005  0.5302540E+03  0.7818608E-02  0.1006171E+00
          2   -1    0    0  501    0  0.00000000000E+00  0.00000000000E+00  0.47599292675E+03  0.47599292676E+03  0.25500000000E-02 0. -1.
         -2   -1    0    0    0  501 -0.00000000000E+00 -0.00000000000E+00 -0.14767513788E+03  0.14767513790E+03  0.25500000000E-02 0.  1.
    5000001    1    1    2    0    0 -0.75485712237E+01  0.16994039507E+03  0.11489157712E+03  0.28589822192E+03  0.19900000000E+03 0.  0.
   -5000001    1    1    2    0    0  0.75485712237E+01 -0.16994039507E+03  0.21342621175E+03  0.33776984274E+03  0.19900000000E+03 0.  0.
<mgrwt>
<rscale>  0 0.53025398E+03</rscale>
<asrwt>0</asrwt>
<pdfrwt beam="1">  1        2 0.67998990E-01 0.53025398E+03</pdfrwt>
<pdfrwt beam="2">  1       -2 0.21096448E-01 0.53025398E+03</pdfrwt>
<totfact> 0.13780043E+03</totfact>
</mgrwt>
</event>
<event>
 4    1  0.5023236E-005  0.4964613E+03  0.7818608E-02  0.1014707E+00
          2   -1    0    0  501    0  0.00000000000E+00  0.00000000000E+00  0.71053617843E+03  0.71053617844E+03  0.25500000000E-02 0.  1.
         -2   -1    0    0    0  501 -0.00000000000E+00 -0.00000000000E+00 -0.86721068037E+02  0.86721068075E+02  0.25500000000E-02 0. -1.
    5000001    1    1    2    0    0 -0.13500873419E+03  0.60856392775E+02  0.32685151180E+03  0.41032154418E+03  0.19900000000E+03 0.  0.
   -5000001    1    1    2    0    0  0.13500873419E+03 -0.60856392775E+02  0.29696359860E+03  0.38693570234E+03  0.19900000000E+03 0.  0.
<mgrwt>
<rscale>  0 0.49646130E+03</rscale>
<asrwt>0</asrwt>
<pdfrwt beam="1">  1        2 0.10150518E+00 0.49646130E+03</pdfrwt>
<pdfrwt beam="2">  1       -2 0.12388723E-01 0.49646130E+03</pdfrwt>
<totfact> 0.21269114E+03</totfact>
</mgrwt>
</event>
<event>
 4    1  0.5023236E-005  0.7164456E+03  0.7818608E-02  0.9689514E-01
         -2   -1    0    0    0  501 -0.00000000000E+00  0.00000000000E+00  0.16140650521E+03  0.16140650523E+03  0.25500000000E-02 0. -1.
          2   -1    0    0  501    0  0.00000000000E+00 -0.00000000000E+00 -0.79503339823E+03  0.79503339823E+03  0.25500000000E-02 0.  1.
    5000001    1    1    2    0    0 -0.27473823208E+03 -0.11481085813E+03 -0.30647851466E+03  0.47137321653E+03  0.19900000000E+03 0.  0.
   -5000001    1    1    2    0    0  0.27473823208E+03  0.11481085813E+03 -0.32714837836E+03  0.48506668694E+03  0.19900000000E+03 0.  0.
<mgrwt>
<rscale>  0 0.71644557E+03</rscale>
<asrwt>0</asrwt>
<pdfrwt beam="1">  1        2 0.11357620E+00 0.71644557E+03</pdfrwt>
<pdfrwt beam="2">  1       -2 0.23058073E-01 0.71644557E+03</pdfrwt>
<totfact> 0.63749573E+02</totfact>
</mgrwt>
</event>
<event>
 4    1  0.5023236E-005  0.8230208E+03  0.7818608E-02  0.9527280E-01
         -2   -1    0    0    0  501 -0.00000000000E+00  0.00000000000E+00  0.20630769547E+03  0.20630769548E+03  0.25500000000E-02 0. -1.
          2   -1    0    0  501    0  0.00000000000E+00 -0.00000000000E+00 -0.82081681293E+03  0.82081681293E+03  0.25500000000E-02 0.  1.
    5000001    1    1    2    0    0 -0.32734937747E+03  0.12807940878E+03 -0.20916295701E+03  0.45487590887E+03  0.19900000000E+03 0.  0.
   -5000001    1    1    2    0    0  0.32734937747E+03 -0.12807940878E+03 -0.40534616046E+03  0.57224859955E+03  0.19900000000E+03 0.  0.
<mgrwt>
<rscale>  0 0.82302084E+03</rscale>
<asrwt>0</asrwt>
<pdfrwt beam="1">  1        2 0.11725954E+00 0.82302084E+03</pdfrwt>
<pdfrwt beam="2">  1       -2 0.29472528E-01 0.82302084E+03</pdfrwt>
<totfact> 0.39037068E+02</totfact>
</mgrwt>
</event>
<event>
 4    1  0.5023236E-005  0.5602246E+03  0.7818608E-02  0.9991547E-01
         -2   -1    0    0    0  501 -0.00000000000E+00  0.00000000000E+00  0.28516766743E+03  0.28516766744E+03  0.25500000000E-02 0. -1.
          2   -1    0    0  501    0  0.00000000000E+00 -0.00000000000E+00 -0.27514658177E+03  0.27514658179E+03  0.25500000000E-02 0.  1.
    5000001    1    1    2    0    0 -0.18427631471E+03 -0.19084438834E+02  0.72400346172E+02  0.28136237505E+03  0.19900000000E+03 0.  0.
   -5000001    1    1    2    0    0  0.18427631471E+03  0.19084438834E+02 -0.62379260513E+02  0.27895187418E+03  0.19900000000E+03 0.  0.
<mgrwt>
<rscale>  0 0.56022463E+03</rscale>
<asrwt>0</asrwt>
<pdfrwt beam="1">  1        2 0.39306654E-01 0.56022463E+03</pdfrwt>
<pdfrwt beam="2">  1       -2 0.40738239E-01 0.56022463E+03</pdfrwt>
<totfact> 0.75299808E+02</totfact>
</mgrwt>
</event>
<event>
 4    1  0.5023236E-005  0.5276822E+03  0.7818608E-02  0.1006796E+00
         -2   -1    0    0    0  501 -0.00000000000E+00  0.00000000000E+00  0.26912017892E+03  0.26912017893E+03  0.25500000000E-02 0. -1.
          2   -1    0    0  501    0  0.00000000000E+00 -0.00000000000E+00 -0.25866557038E+03  0.25866557040E+03  0.25500000000E-02 0.  1.
    5000001    1    1    2    0    0 -0.16809371810E+03  0.29831182243E+02  0.34656319084E+02  0.26447581733E+03  0.19900000000E+03 0.  0.
   -5000001    1    1    2    0    0  0.16809371810E+03 -0.29831182243E+02 -0.24201710549E+02  0.26330993200E+03  0.19900000000E+03 0.  0.
<mgrwt>
<rscale>  0 0.52768219E+03</rscale>
<asrwt>0</asrwt>
<pdfrwt beam="1">  1        2 0.36952224E-01 0.52768219E+03</pdfrwt>
<pdfrwt beam="2">  1       -2 0.38445740E-01 0.52768219E+03</pdfrwt>
<totfact> 0.90192889E+02</totfact>
</mgrwt>
</event>
<event>
 4    1  0.5023236E-005  0.7910140E+03  0.7818608E-02  0.9573116E-01
          2   -1    0    0  501    0  0.00000000000E+00  0.00000000000E+00  0.29669032131E+04  0.29669032131E+04  0.25500000000E-02 0.  1.
         -2   -1    0    0    0  501 -0.00000000000E+00 -0.00000000000E+00 -0.52723590170E+02  0.52723590232E+02  0.25500000000E-02 0. -1.
    5000001    1    1    2    0    0 -0.19638743325E+03  0.27929045554E+03  0.13962973900E+04  0.14511438881E+04  0.19900000000E+03 0.  0.
   -5000001    1    1    2    0    0  0.19638743325E+03 -0.27929045554E+03  0.15178822329E+04  0.15684829152E+04  0.19900000000E+03 0.  0.
<mgrwt>
<rscale>  0 0.79101401E+03</rscale>
<asrwt>0</asrwt>
<pdfrwt beam="1">  1        2 0.42384327E+00 0.79101401E+03</pdfrwt>
<pdfrwt beam="2">  1       -2 0.75319423E-02 0.79101401E+03</pdfrwt>
<totfact> 0.27799808E+02</totfact>
</mgrwt>
</event>
<event>
 4    1  0.5023236E-005  0.7647548E+03  0.7818608E-02  0.9612483E-01
         -2   -1    0    0    0  501 -0.00000000000E+00  0.00000000000E+00  0.10687707739E+03  0.10687707742E+03  0.25500000000E-02 0. -1.
          2   -1    0    0  501    0  0.00000000000E+00 -0.00000000000E+00 -0.13680434784E+04  0.13680434784E+04  0.25500000000E-02 0.  1.
    5000001    1    1    2    0    0 -0.24934988387E+03 -0.15220444601E+03 -0.91185710126E+03  0.97797031196E+03  0.19900000000E+03 0.  0.
   -5000001    1    1    2    0    0  0.24934988387E+03  0.15220444601E+03 -0.34930929974E+03  0.49695024384E+03  0.19900000000E+03 0.  0.
<mgrwt>
<rscale>  0 0.76475483E+03</rscale>
<asrwt>0</asrwt>
<pdfrwt beam="1">  1        2 0.19543477E+00 0.76475483E+03</pdfrwt>
<pdfrwt beam="2">  1       -2 0.15268155E-01 0.76475483E+03</pdfrwt>
<totfact> 0.58954412E+02</totfact>
</mgrwt>
</event>
<event>
 4    1  0.5023236E-005  0.5380108E+03  0.7818608E-02  0.1004308E+00
          2   -1    0    0  501    0  0.00000000000E+00  0.00000000000E+00  0.12200070491E+04  0.12200070491E+04  0.25500000000E-02 0.  1.
         -2   -1    0    0    0  501 -0.00000000000E+00 -0.00000000000E+00 -0.59314325429E+02  0.59314325484E+02  0.25500000000E-02 0. -1.
    5000001    1    1    2    0    0 -0.69310387030E+02  0.10201071203E+03  0.89538342332E+03  0.92548505654E+03  0.19900000000E+03 0.  0.
   -5000001    1    1    2    0    0  0.69310387030E+02 -0.10201071203E+03  0.26530930037E+03  0.35383631807E+03  0.19900000000E+03 0.  0.
<mgrwt>
<rscale>  0 0.53801076E+03</rscale>
<asrwt>0</asrwt>
<pdfrwt beam="1">  1        2 0.17428674E+00 0.53801076E+03</pdfrwt>
<pdfrwt beam="2">  1       -2 0.84734743E-02 0.53801076E+03</pdfrwt>
<totfact> 0.18825410E+03</totfact>
</mgrwt>
</event>
<event>
 4    1  0.5023236E-005  0.1023990E+04  0.7818608E-02  0.9282617E-01
          2   -1    0    0  501    0  0.00000000000E+00  0.00000000000E+00  0.17848749976E+04  0.17848749976E+04  0.25500000000E-02 0.  1.
         -2   -1    0    0    0  501 -0.00000000000E+00 -0.00000000000E+00 -0.14686686813E+03  0.14686686816E+03  0.25500000000E-02 0. -1.
    5000001    1    1    2    0    0 -0.23267339656E+03 -0.15256040556E+03  0.15376690883E+04  0.15752583318E+04  0.19900000000E+03 0.  0.
   -5000001    1    1    2    0    0  0.23267339656E+03  0.15256040556E+03  0.10033904120E+03  0.35648353398E+03  0.19900000000E+03 0.  0.
<mgrwt>
<rscale>  0 0.10239902E+04</rscale>
<asrwt>0</asrwt>
<pdfrwt beam="1">  1        2 0.25498213E+00 0.10239902E+04</pdfrwt>
<pdfrwt beam="2">  1       -2 0.20980982E-01 0.10239902E+04</pdfrwt>
<totfact> 0.20283084E+02</totfact>
</mgrwt>
</event>
<event>
 4    1  0.5023236E-005  0.4841910E+03  0.7818608E-02  0.1017990E+00
          2   -1    0    0  501    0  0.00000000000E+00  0.00000000000E+00  0.96558164105E+03  0.96558164106E+03  0.25500000000E-02 0.  1.
         -2   -1    0    0    0  501 -0.00000000000E+00 -0.00000000000E+00 -0.60699398089E+02  0.60699398142E+02  0.25500000000E-02 0. -1.
    5000001    1    1    2    0    0  0.29125798028E+01  0.10195477321E+03  0.64907095834E+03  0.68651101074E+03  0.19900000000E+03 0.  0.
   -5000001    1    1    2    0    0 -0.29125798028E+01 -0.10195477321E+03  0.25581128463E+03  0.33977002846E+03  0.19900000000E+03 0.  0.
<mgrwt>
<rscale>  0 0.48419097E+03</rscale>
<asrwt>0</asrwt>
<pdfrwt beam="1">  1        2 0.13794021E+00 0.48419097E+03</pdfrwt>
<pdfrwt beam="2">  1       -2 0.86713441E-02 0.48419097E+03</pdfrwt>
<totfact> 0.25523206E+03</totfact>
</mgrwt>
</event>
<event>
 4    1  0.5023236E-005  0.5111779E+03  0.7818608E-02  0.1010902E+00
          2   -1    0    0  501    0  0.00000000000E+00  0.00000000000E+00  0.70022739030E+03  0.70022739031E+03  0.25500000000E-02 0.  1.
         -2   -1    0    0    0  501 -0.00000000000E+00 -0.00000000000E+00 -0.93292151286E+02  0.93292151321E+02  0.25500000000E-02 0. -1.
    5000001    1    1    2    0    0 -0.57885373346E+02 -0.94604348584E+02  0.12361083221E+03  0.25919362850E+03  0.19900000000E+03 0.  0.
   -5000001    1    1    2    0    0  0.57885373346E+02  0.94604348584E+02  0.48332440681E+03  0.53432591313E+03  0.19900000000E+03 0.  0.
<mgrwt>
<rscale>  0 0.51117793E+03</rscale>
<asrwt>0</asrwt>
<pdfrwt beam="1">  1        2 0.10003248E+00 0.51117793E+03</pdfrwt>
<pdfrwt beam="2">  1       -2 0.13327451E-01 0.51117793E+03</pdfrwt>
<totfact> 0.19193399E+03</totfact>
</mgrwt>
</event>
<event>
 4    1  0.5023236E-005  0.4243376E+03  0.7818608E-02  0.1035664E+00
         -2   -1    0    0    0  501 -0.00000000000E+00  0.00000000000E+00  0.10582371253E+03  0.10582371256E+03  0.25500000000E-02 0. -1.
          2   -1    0    0  501    0  0.00000000000E+00 -0.00000000000E+00 -0.42538293778E+03  0.42538293778E+03  0.25500000000E-02 0.  1.
    5000001    1    1    2    0    0  0.65862152006E+02 -0.89250884610E+01 -0.12024968584E+03  0.24182321480E+03  0.19900000000E+03 0.  0.
   -5000001    1    1    2    0    0 -0.65862152006E+02  0.89250884610E+01 -0.19930953941E+03  0.28938343555E+03  0.19900000000E+03 0.  0.
<mgrwt>
<rscale>  0 0.42433761E+03</rscale>
<asrwt>0</asrwt>
<pdfrwt beam="1">  1        2 0.60768990E-01 0.42433761E+03</pdfrwt>
<pdfrwt beam="2">  1       -2 0.15117674E-01 0.42433761E+03</pdfrwt>
<totfact> 0.27559548E+03</totfact>
</mgrwt>
</event>
<event>
 4    1  0.5023236E-005  0.6809738E+03  0.7818608E-02  0.9750334E-01
         -2   -1    0    0    0  501 -0.00000000000E+00  0.00000000000E+00  0.46750637896E+02  0.46750637966E+02  0.25500000000E-02 0. -1.
          2   -1    0    0  501    0  0.00000000000E+00 -0.00000000000E+00 -0.24797803644E+04  0.24797803644E+04  0.25500000000E-02 0.  1.
    5000001    1    1    2    0    0 -0.93463400057E+02  0.25828910008E+03 -0.13266793895E+04  0.13693530841E+04  0.19900000000E+03 0.  0.
   -5000001    1    1    2    0    0  0.93463400057E+02 -0.25828910008E+03 -0.11063503370E+04  0.11571779183E+04  0.19900000000E+03 0.  0.
<mgrwt>
<rscale>  0 0.68097376E+03</rscale>
<asrwt>0</asrwt>
<pdfrwt beam="1">  1        2 0.35425425E+00 0.68097376E+03</pdfrwt>
<pdfrwt beam="2">  1       -2 0.66786641E-02 0.68097376E+03</pdfrwt>
<totfact> 0.61459807E+02</totfact>
</mgrwt>
</event>
<event>
 4    1  0.5023236E-005  0.4945001E+03  0.7818608E-02  0.1015225E+00
          2   -1    0    0  501    0  0.00000000000E+00  0.00000000000E+00  0.20598010496E+04  0.20598010496E+04  0.25500000000E-02 0.  1.
         -2   -1    0    0    0  501 -0.00000000000E+00 -0.00000000000E+00 -0.29678878208E+02  0.29678878318E+02  0.25500000000E-02 0. -1.
    5000001    1    1    2    0    0  0.82321706449E+02  0.43365377182E+02  0.53562428151E+03  0.57892295708E+03  0.19900000000E+03 0.  0.
   -5000001    1    1    2    0    0 -0.82321706449E+02 -0.43365377182E+02  0.14944978899E+04  0.15105569709E+04  0.19900000000E+03 0.  0.
<mgrwt>
<rscale>  0 0.49450009E+03</rscale>
<asrwt>0</asrwt>
<pdfrwt beam="1">  1        2 0.29425735E+00 0.49450009E+03</pdfrwt>
<pdfrwt beam="2">  1       -2 0.42398390E-02 0.49450009E+03</pdfrwt>
<totfact> 0.20554008E+03</totfact>
</mgrwt>
</event>
<event>
 4    1  0.5023236E-005  0.5168127E+03  0.7818608E-02  0.1009481E+00
         -2   -1    0    0    0  501 -0.00000000000E+00  0.00000000000E+00  0.94093140904E+02  0.94093140938E+02  0.25500000000E-02 0.  1.
          2   -1    0    0  501    0  0.00000000000E+00 -0.00000000000E+00 -0.70965676492E+03  0.70965676492E+03  0.25500000000E-02 0. -1.
    5000001    1    1    2    0    0  0.13342457296E+03 -0.68588406360E+02 -0.41401894382E+03  0.48323821455E+03  0.19900000000E+03 0.  0.
   -5000001    1    1    2    0    0 -0.13342457296E+03  0.68588406360E+02 -0.20154468020E+03  0.32051169132E+03  0.19900000000E+03 0.  0.
<mgrwt>
<rscale>  0 0.51681267E+03</rscale>
<asrwt>0</asrwt>
<pdfrwt beam="1">  1        2 0.10137954E+00 0.51681267E+03</pdfrwt>
<pdfrwt beam="2">  1       -2 0.13441878E-01 0.51681267E+03</pdfrwt>
<totfact> 0.18617124E+03</totfact>
</mgrwt>
</event>
<event>
 4    1  0.5023236E-005  0.9157693E+03  0.7818608E-02  0.9406081E-01
          2   -1    0    0  501    0  0.00000000000E+00  0.00000000000E+00  0.33432308073E+03  0.33432308074E+03  0.25500000000E-02 0.  1.
         -2   -1    0    0    0  501 -0.00000000000E+00 -0.00000000000E+00 -0.62711300741E+03  0.62711300741E+03  0.25500000000E-02 0. -1.
    5000001    1    1    2    0    0  0.38971158948E+03  0.11459253401E+03 -0.71782118489E+02  0.45799589994E+03  0.19900000000E+03 0.  0.
   -5000001    1    1    2    0    0 -0.38971158948E+03 -0.11459253401E+03 -0.22100780819E+03  0.50344018821E+03  0.19900000000E+03 0.  0.
<mgrwt>
<rscale>  0 0.91576930E+03</rscale>
<asrwt>0</asrwt>
<pdfrwt beam="1">  1        2 0.47760440E-01 0.91576930E+03</pdfrwt>
<pdfrwt beam="2">  1       -2 0.89587572E-01 0.91576930E+03</pdfrwt>
<totfact> 0.11324032E+02</totfact>
</mgrwt>
</event>
<event>
 4    1  0.5023236E-005  0.1118383E+04  0.7818608E-02  0.9187457E-01
          2   -1    0    0  501    0  0.00000000000E+00  0.00000000000E+00  0.14978463718E+04  0.14978463718E+04  0.25500000000E-02 0.  1.
         -2   -1    0    0    0  501 -0.00000000000E+00 -0.00000000000E+00 -0.20876333590E+03  0.20876333592E+03  0.25500000000E-02 0. -1.
    5000001    1    1    2    0    0  0.13603561230E+03  0.50301672690E+03  0.70486795257E+03  0.89887226340E+03  0.19900000000E+03 0.  0.
   -5000001    1    1    2    0    0 -0.13603561230E+03 -0.50301672690E+03  0.58421508331E+03  0.80773744430E+03  0.19900000000E+03 0.  0.
<mgrwt>
<rscale>  0 0.11183835E+04</rscale>
<asrwt>0</asrwt>
<pdfrwt beam="1">  1        2 0.21397806E+00 0.11183835E+04</pdfrwt>
<pdfrwt beam="2">  1       -2 0.29823333E-01 0.11183835E+04</pdfrwt>
<totfact> 0.15047709E+02</totfact>
</mgrwt>
</event>
<event>
 4    1  0.5023236E-005  0.9271348E+03  0.7818608E-02  0.9392283E-01
          2   -1    0    0  501    0  0.00000000000E+00  0.00000000000E+00  0.35652944847E+04  0.35652944847E+04  0.25500000000E-02 0.  1.
         -2   -1    0    0    0  501 -0.00000000000E+00 -0.00000000000E+00 -0.60274047615E+02  0.60274047669E+02  0.25500000000E-02 0. -1.
    5000001    1    1    2    0    0 -0.37743610416E+03 -0.16100377003E+03  0.14273612975E+04  0.14984463622E+04  0.19900000000E+03 0.  0.
   -5000001    1    1    2    0    0  0.37743610416E+03  0.16100377003E+03  0.20776591396E+04  0.21271221702E+04  0.19900000000E+03 0.  0.
<mgrwt>
<rscale>  0 0.92713479E+03</rscale>
<asrwt>0</asrwt>
<pdfrwt beam="1">  1        2 0.50932783E+00 0.92713479E+03</pdfrwt>
<pdfrwt beam="2">  1       -2 0.86105775E-02 0.92713479E+03</pdfrwt>
<totfact> 0.10014742E+02</totfact>
</mgrwt>
</event>
<event>
 4    1  0.5023236E-005  0.7930172E+03  0.7818608E-02  0.9570180E-01
          2   -1    0    0  501    0  0.00000000000E+00  0.00000000000E+00  0.24392050588E+03  0.24392050589E+03  0.25500000000E-02 0.  1.
         -2   -1    0    0    0  501 -0.00000000000E+00 -0.00000000000E+00 -0.64455038236E+03  0.64455038236E+03  0.25500000000E-02 0. -1.
    5000001    1    1    2    0    0  0.29079047152E+03  0.11907234710E+03 -0.35426151728E+03  0.51365313666E+03  0.19900000000E+03 0.  0.
   -5000001    1    1    2    0    0 -0.29079047152E+03 -0.11907234710E+03 -0.46368359198E+02  0.37481775159E+03  0.19900000000E+03 0.  0.
<mgrwt>
<rscale>  0 0.79301716E+03</rscale>
<asrwt>0</asrwt>
<pdfrwt beam="1">  1        2 0.34845787E-01 0.79301716E+03</pdfrwt>
<pdfrwt beam="2">  1       -2 0.92078625E-01 0.79301716E+03</pdfrwt>
<totfact> 0.15179832E+02</totfact>
</mgrwt>
</event>
<event>
 4    1  0.5023236E-005  0.5415094E+03  0.7818608E-02  0.1003478E+00
          2   -1    0    0  501    0  0.00000000000E+00  0.00000000000E+00  0.11351987962E+04  0.11351987962E+04  0.25500000000E-02 0.  1.
         -2   -1    0    0    0  501 -0.00000000000E+00 -0.00000000000E+00 -0.64577336538E+02  0.64577336588E+02  0.25500000000E-02 0. -1.
    5000001    1    1    2    0    0 -0.11282062768E+03 -0.14442389423E+03  0.55961789680E+03  0.62157859171E+03  0.19900000000E+03 0.  0.
   -5000001    1    1    2    0    0  0.11282062768E+03  0.14442389423E+03  0.51100356288E+03  0.57819754109E+03  0.19900000000E+03 0.  0.
<mgrwt>
<rscale>  0 0.54150943E+03</rscale>
<asrwt>0</asrwt>
<pdfrwt beam="1">  1        2 0.16217124E+00 0.54150943E+03</pdfrwt>
<pdfrwt beam="2">  1       -2 0.92253347E-02 0.54150943E+03</pdfrwt>
<totfact> 0.18336160E+03</totfact>
</mgrwt>
</event>
<event>
 4    1  0.5023236E-005  0.4627901E+03  0.7818608E-02  0.1023975E+00
         -2   -1    0    0    0  501 -0.00000000000E+00  0.00000000000E+00  0.18611567915E+03  0.18611567917E+03  0.25500000000E-02 0. -1.
          2   -1    0    0  501    0  0.00000000000E+00 -0.00000000000E+00 -0.28769021891E+03  0.28769021892E+03  0.25500000000E-02 0.  1.
    5000001    1    1    2    0    0 -0.11193043955E+03  0.37255882527E+02 -0.56031341154E+02  0.23802717339E+03  0.19900000000E+03 0.  0.
   -5000001    1    1    2    0    0  0.11193043955E+03 -0.37255882527E+02 -0.45543198603E+02  0.23577872470E+03  0.19900000000E+03 0.  0.
<mgrwt>
<rscale>  0 0.46279006E+03</rscale>
<asrwt>0</asrwt>
<pdfrwt beam="1">  1        2 0.41098603E-01 0.46279006E+03</pdfrwt>
<pdfrwt beam="2">  1       -2 0.26587954E-01 0.46279006E+03</pdfrwt>
<totfact> 0.15926444E+03</totfact>
</mgrwt>
</event>
<event>
 4    1  0.5023236E-005  0.7556385E+03  0.7818608E-02  0.9626546E-01
          2   -1    0    0  501    0  0.00000000000E+00  0.00000000000E+00  0.19407473771E+04  0.19407473771E+04  0.25500000000E-02 0.  1.
         -2   -1    0    0    0  501 -0.00000000000E+00 -0.00000000000E+00 -0.73552785186E+02  0.73552785230E+02  0.25500000000E-02 0. -1.
    5000001    1    1    2    0    0  0.31947774043E+03  0.21013701044E+02  0.10009698954E+04  0.10696024185E+04  0.19900000000E+03 0.  0.
   -5000001    1    1    2    0    0 -0.31947774043E+03 -0.21013701044E+02  0.86622469651E+03  0.94469774378E+03  0.19900000000E+03 0.  0.
<mgrwt>
<rscale>  0 0.75563847E+03</rscale>
<asrwt>0</asrwt>
<pdfrwt beam="1">  1        2 0.27724965E+00 0.75563847E+03</pdfrwt>
<pdfrwt beam="2">  1       -2 0.10507540E-01 0.75563847E+03</pdfrwt>
<totfact> 0.55489203E+02</totfact>
</mgrwt>
</event>
<event>
 4    1  0.5023236E-005  0.5543748E+03  0.7818608E-02  0.1000486E+00
         -2   -1    0    0    0  501 -0.00000000000E+00  0.00000000000E+00  0.32945684806E+02  0.32945684904E+02  0.25500000000E-02 0. -1.
          2   -1    0    0  501    0  0.00000000000E+00 -0.00000000000E+00 -0.23321070771E+04  0.23321070771E+04  0.25500000000E-02 0.  1.
    5000001    1    1    2    0    0  0.24053992219E+02  0.19141418032E+03 -0.11654757097E+04  0.11979785527E+04  0.19900000000E+03 0.  0.
   -5000001    1    1    2    0    0 -0.24053992219E+02 -0.19141418032E+03 -0.11336856826E+04  0.11670742093E+04  0.19900000000E+03 0.  0.
<mgrwt>
<rscale>  0 0.55437484E+03</rscale>
<asrwt>0</asrwt>
<pdfrwt beam="1">  1        2 0.33315805E+00 0.55437484E+03</pdfrwt>
<pdfrwt beam="2">  1       -2 0.47065279E-02 0.55437484E+03</pdfrwt>
<totfact> 0.12738262E+03</totfact>
</mgrwt>
</event>
<event>
 4    1  0.5023236E-005  0.7329199E+03  0.7818608E-02  0.9662534E-01
         -2   -1    0    0    0  501 -0.00000000000E+00  0.00000000000E+00  0.26187069385E+03  0.26187069386E+03  0.25500000000E-02 0. -1.
          2   -1    0    0  501    0  0.00000000000E+00 -0.00000000000E+00 -0.51282136796E+03  0.51282136797E+03  0.25500000000E-02 0.  1.
    5000001    1    1    2    0    0 -0.23853269081E+03 -0.13277113726E+03  0.24624791480E+02  0.33872319057E+03  0.19900000000E+03 0.  0.
   -5000001    1    1    2    0    0  0.23853269081E+03  0.13277113726E+03 -0.27557546560E+03  0.43596887126E+03  0.19900000000E+03 0.  0.
<mgrwt>
<rscale>  0 0.73291988E+03</rscale>
<asrwt>0</asrwt>
<pdfrwt beam="1">  1        2 0.73260196E-01 0.73291988E+03</pdfrwt>
<pdfrwt beam="2">  1       -2 0.37410099E-01 0.73291988E+03</pdfrwt>
<totfact> 0.44192563E+02</totfact>
</mgrwt>
</event>
<event>
 4    1  0.5023236E-005  0.5743818E+03  0.7818608E-02  0.9960029E-01
         -2   -1    0    0    0  501 -0.00000000000E+00  0.00000000000E+00  0.75205029683E+02  0.75205029726E+02  0.25500000000E-02 0. -1.
          2   -1    0    0  501    0  0.00000000000E+00 -0.00000000000E+00 -0.10967167052E+04  0.10967167052E+04  0.25500000000E-02 0.  1.
    5000001    1    1    2    0    0  0.16620820538E+03  0.29623169341E+01 -0.76266426885E+03  0.80553816162E+03  0.19900000000E+03 0.  0.
   -5000001    1    1    2    0    0 -0.16620820538E+03 -0.29623169341E+01 -0.25884740671E+03  0.36638357334E+03  0.19900000000E+03 0.  0.
<mgrwt>
<rscale>  0 0.57438180E+03</rscale>
<asrwt>0</asrwt>
<pdfrwt beam="1">  1        2 0.15667381E+00 0.57438180E+03</pdfrwt>
<pdfrwt beam="2">  1       -2 0.10743576E-01 0.57438180E+03</pdfrwt>
<totfact> 0.15073091E+03</totfact>
</mgrwt>
</event>
<event>
 4    1  0.5023236E-005  0.6444482E+03  0.7818608E-02  0.9817253E-01
          2   -1    0    0  501    0  0.00000000000E+00  0.00000000000E+00  0.37534776650E+03  0.37534776651E+03  0.25500000000E-02 0.  1.
         -2   -1    0    0    0  501 -0.00000000000E+00 -0.00000000000E+00 -0.27661916527E+03  0.27661916528E+03  0.25500000000E-02 0. -1.
    5000001    1    1    2    0    0  0.14561205597E+03  0.27063548058E+02  0.25741397531E+03  0.35748882662E+03  0.19900000000E+03 0.  0.
   -5000001    1    1    2    0    0 -0.14561205597E+03 -0.27063548058E+02 -0.15868537408E+03  0.29447810517E+03  0.19900000000E+03 0.  0.
<mgrwt>
<rscale>  0 0.64444825E+03</rscale>
<asrwt>0</asrwt>
<pdfrwt beam="1">  1        2 0.53621109E-01 0.64444825E+03</pdfrwt>
<pdfrwt beam="2">  1       -2 0.39517024E-01 0.64444825E+03</pdfrwt>
<totfact> 0.56615185E+02</totfact>
</mgrwt>
</event>
<event>
 4    1  0.5023236E-005  0.4918800E+03  0.7818608E-02  0.1015920E+00
         -2   -1    0    0    0  501 -0.00000000000E+00  0.00000000000E+00  0.49410097844E+02  0.49410097910E+02  0.25500000000E-02 0. -1.
          2   -1    0    0  501    0  0.00000000000E+00 -0.00000000000E+00 -0.12241726138E+04  0.12241726138E+04  0.25500000000E-02 0.  1.
    5000001    1    1    2    0    0  0.12911104519E+03  0.63385861827E+02 -0.62382017669E+03  0.67040289552E+03  0.19900000000E+03 0.  0.
   -5000001    1    1    2    0    0 -0.12911104519E+03 -0.63385861827E+02 -0.55094233921E+03  0.60317981615E+03  0.19900000000E+03 0.  0.
<mgrwt>
<rscale>  0 0.49188002E+03</rscale>
<asrwt>0</asrwt>
<pdfrwt beam="1">  1        2 0.17488178E+00 0.49188002E+03</pdfrwt>
<pdfrwt beam="2">  1       -2 0.70585862E-02 0.49188002E+03</pdfrwt>
<totfact> 0.25029177E+03</totfact>
</mgrwt>
</event>
<event>
 4    1  0.5023236E-005  0.8172352E+03  0.7818608E-02  0.9535400E-01
          2   -1    0    0  501    0  0.00000000000E+00  0.00000000000E+00  0.11582135046E+04  0.11582135046E+04  0.25500000000E-02 0.  1.
         -2   -1    0    0    0  501 -0.00000000000E+00 -0.00000000000E+00 -0.14416023222E+03  0.14416023224E+03  0.25500000000E-02 0. -1.
    5000001    1    1    2    0    0 -0.11708713543E+03  0.27753055910E+03  0.81205134368E+03  0.88868497979E+03  0.19900000000E+03 0.  0.
   -5000001    1    1    2    0    0  0.11708713543E+03 -0.27753055910E+03  0.20200192870E+03  0.41368875706E+03  0.19900000000E+03 0.  0.
<mgrwt>
<rscale>  0 0.81723516E+03</rscale>
<asrwt>0</asrwt>
<pdfrwt beam="1">  1        2 0.16545906E+00 0.81723516E+03</pdfrwt>
<pdfrwt beam="2">  1       -2 0.20594321E-01 0.81723516E+03</pdfrwt>
<totfact> 0.45907866E+02</totfact>
</mgrwt>
</event>
<event>
 4    1  0.5023236E-005  0.1014947E+04  0.7818608E-02  0.9292301E-01
          2   -1    0    0  501    0  0.00000000000E+00  0.00000000000E+00  0.31743062073E+03  0.31743062074E+03  0.25500000000E-02 0.  1.
         -2   -1    0    0    0  501 -0.00000000000E+00 -0.00000000000E+00 -0.81129331277E+03  0.81129331278E+03  0.25500000000E-02 0. -1.
    5000001    1    1    2    0    0 -0.44111051865E+03  0.74080814146E+02 -0.98300823917E+02  0.49933005985E+03  0.19900000000E+03 0.  0.
   -5000001    1    1    2    0    0  0.44111051865E+03 -0.74080814146E+02 -0.39556186813E+03  0.62939387366E+03  0.19900000000E+03 0.  0.
<mgrwt>
<rscale>  0 0.10149470E+04</rscale>
<asrwt>0</asrwt>
<pdfrwt beam="1">  1        2 0.45347232E-01 0.10149470E+04</pdfrwt>
<pdfrwt beam="2">  1       -2 0.11589904E+00 0.10149470E+04</pdfrwt>
<totfact> 0.64647645E+01</totfact>
</mgrwt>
</event>
<event>
 4    1  0.5023236E-005  0.5013488E+03  0.7818608E-02  0.1013427E+00
          2   -1    0    0  501    0  0.00000000000E+00  0.00000000000E+00  0.48052404592E+03  0.48052404592E+03  0.25500000000E-02 0.  1.
         -2   -1    0    0    0  501 -0.00000000000E+00 -0.00000000000E+00 -0.13076903041E+03  0.13076903044E+03  0.25500000000E-02 0. -1.
    5000001    1    1    2    0    0 -0.13888624916E+03 -0.48051740311E+02  0.22422972440E+03  0.33388370619E+03  0.19900000000E+03 0.  0.
   -5000001    1    1    2    0    0  0.13888624916E+03  0.48051740311E+02  0.12552529110E+03  0.27740937017E+03  0.19900000000E+03 0.  0.
<mgrwt>
<rscale>  0 0.50134883E+03</rscale>
<asrwt>0</asrwt>
<pdfrwt beam="1">  1        2 0.68646292E-01 0.50134883E+03</pdfrwt>
<pdfrwt beam="2">  1       -2 0.18681290E-01 0.50134883E+03</pdfrwt>
<totfact> 0.16833323E+03</totfact>
</mgrwt>
</event>
<event>
 4    1  0.5023236E-005  0.6604806E+03  0.7818608E-02  0.9787309E-01
          2   -1    0    0  501    0  0.00000000000E+00  0.00000000000E+00  0.58305804089E+03  0.58305804089E+03  0.25500000000E-02 0.  1.
         -2   -1    0    0    0  501 -0.00000000000E+00 -0.00000000000E+00 -0.18704597170E+03  0.18704597171E+03  0.25500000000E-02 0. -1.
    5000001    1    1    2    0    0 -0.15049595910E+03 -0.43495041300E+02 -0.49105914993E+02  0.25797915267E+03  0.19900000000E+03 0.  0.
   -5000001    1    1    2    0    0  0.15049595910E+03  0.43495041300E+02  0.44511798418E+03  0.51212485994E+03  0.19900000000E+03 0.  0.
<mgrwt>
<rscale>  0 0.66048061E+03</rscale>
<asrwt>0</asrwt>
<pdfrwt beam="1">  1        2 0.83294006E-01 0.66048061E+03</pdfrwt>
<pdfrwt beam="2">  1       -2 0.26720853E-01 0.66048061E+03</pdfrwt>
<totfact> 0.71539692E+02</totfact>
</mgrwt>
</event>
<event>
 4    1  0.5023236E-005  0.7121398E+03  0.7818608E-02  0.9696694E-01
         -2   -1    0    0    0  501 -0.00000000000E+00  0.00000000000E+00  0.90583609595E+03  0.90583609595E+03  0.25500000000E-02 0. -1.
          2   -1    0    0  501    0  0.00000000000E+00 -0.00000000000E+00 -0.13996545858E+03  0.13996545860E+03  0.25500000000E-02 0.  1.
    5000001    1    1    2    0    0  0.11899230897E+03 -0.26981113392E+03  0.40508765804E+03  0.53912357422E+03  0.19900000000E+03 0.  0.
   -5000001    1    1    2    0    0 -0.11899230897E+03  0.26981113392E+03  0.36078297933E+03  0.50667798033E+03  0.19900000000E+03 0.  0.
<mgrwt>
<rscale>  0 0.71213977E+03</rscale>
<asrwt>0</asrwt>
<pdfrwt beam="1">  1        2 0.19995065E-01 0.71213977E+03</pdfrwt>
<pdfrwt beam="2">  1       -2 0.12940516E+00 0.71213977E+03</pdfrwt>
<totfact> 0.12627452E+02</totfact>
</mgrwt>
</event>
<event>
 4    1  0.5023236E-005  0.9382322E+03  0.7818608E-02  0.9379012E-01
          2   -1    0    0  501    0  0.00000000000E+00  0.00000000000E+00  0.76189541884E+03  0.76189541884E+03  0.25500000000E-02 0.  1.
         -2   -1    0    0    0  501 -0.00000000000E+00 -0.00000000000E+00 -0.28884531733E+03  0.28884531734E+03  0.25500000000E-02 0. -1.
    5000001    1    1    2    0    0 -0.17032409677E+03 -0.36573657089E+03  0.87549411538E+02  0.45830059643E+03  0.19900000000E+03 0.  0.
   -5000001    1    1    2    0    0  0.17032409677E+03  0.36573657089E+03  0.38550068997E+03  0.59244013976E+03  0.19900000000E+03 0.  0.
<mgrwt>
<rscale>  0 0.93823222E+03</rscale>
<asrwt>0</asrwt>
<pdfrwt beam="1">  1        2 0.10884220E+00 0.93823222E+03</pdfrwt>
<pdfrwt beam="2">  1       -2 0.41263616E-01 0.93823222E+03</pdfrwt>
<totfact> 0.22512448E+02</totfact>
</mgrwt>
</event>
<event>
 4    1  0.5023236E-005  0.7187850E+03  0.7818608E-02  0.9685636E-01
          2   -1    0    0  501    0  0.00000000000E+00  0.00000000000E+00  0.13362865274E+04  0.13362865274E+04  0.25500000000E-02 0.  1.
         -2   -1    0    0    0  501 -0.00000000000E+00 -0.00000000000E+00 -0.96658149403E+02  0.96658149437E+02  0.25500000000E-02 0. -1.
    5000001    1    1    2    0    0 -0.11512832918E+03 -0.25805174395E+03  0.42330137846E+03  0.54647076019E+03  0.19900000000E+03 0.  0.
   -5000001    1    1    2    0    0  0.11512832918E+03  0.25805174395E+03  0.81632699956E+03  0.88647391667E+03  0.19900000000E+03 0.  0.
<mgrwt>
<rscale>  0 0.71878504E+03</rscale>
<asrwt>0</asrwt>
<pdfrwt beam="1">  1        2 0.19089807E+00 0.71878504E+03</pdfrwt>
<pdfrwt beam="2">  1       -2 0.13808308E-01 0.71878504E+03</pdfrwt>
<totfact> 0.72794245E+02</totfact>
</mgrwt>
</event>
<event>
 4    1  0.5023236E-005  0.5407020E+03  0.7818608E-02  0.1003669E+00
          2   -1    0    0  501    0  0.00000000000E+00  0.00000000000E+00  0.62866469955E+03  0.62866469956E+03  0.25500000000E-02 0.  1.
         -2   -1    0    0    0  501 -0.00000000000E+00 -0.00000000000E+00 -0.11626177424E+03  0.11626177427E+03  0.25500000000E-02 0. -1.
    5000001    1    1    2    0    0 -0.94919716611E+02  0.13832530471E+03  0.15547803160E+03  0.30317991496E+03  0.19900000000E+03 0.  0.
   -5000001    1    1    2    0    0  0.94919716611E+02 -0.13832530471E+03  0.35692489371E+03  0.44174655887E+03  0.19900000000E+03 0.  0.
<mgrwt>
<rscale>  0 0.54070204E+03</rscale>
<asrwt>0</asrwt>
<pdfrwt beam="1">  1        2 0.89809242E-01 0.54070204E+03</pdfrwt>
<pdfrwt beam="2">  1       -2 0.16608825E-01 0.54070204E+03</pdfrwt>
<totfact> 0.15100959E+03</totfact>
</mgrwt>
</event>
<event>
 4    1  0.5023236E-005  0.4732989E+03  0.7818608E-02  0.1020993E+00
          2   -1    0    0  501    0  0.00000000000E+00  0.00000000000E+00  0.33728901949E+04  0.33728901949E+04  0.25500000000E-02 0.  1.
         -2   -1    0    0    0  501 -0.00000000000E+00 -0.00000000000E+00 -0.16603849026E+02  0.16603849222E+02  0.25500000000E-02 0. -1.
    5000001    1    1    2    0    0 -0.55444132371E+02 -0.81973712255E+02  0.22603021371E+04  0.22712024332E+04  0.19900000000E+03 0.  0.
   -5000001    1    1    2    0    0  0.55444132371E+02  0.81973712255E+02  0.10959842087E+04  0.11182916109E+04  0.19900000000E+03 0.  0.
<mgrwt>
<rscale>  0 0.47329889E+03</rscale>
<asrwt>0</asrwt>
<pdfrwt beam="1">  1        2 0.48184155E+00 0.47329889E+03</pdfrwt>
<pdfrwt beam="2">  1       -2 0.23719780E-02 0.47329889E+03</pdfrwt>
<totfact> 0.10123557E+03</totfact>
</mgrwt>
</event>
<event>
 4    1  0.5023236E-005  0.7960956E+03  0.7818608E-02  0.9565686E-01
          2   -1    0    0  501    0  0.00000000000E+00  0.00000000000E+00  0.20032617975E+03  0.20032617977E+03  0.25500000000E-02 0.  1.
         -2   -1    0    0    0  501 -0.00000000000E+00 -0.00000000000E+00 -0.79092028061E+03  0.79092028061E+03  0.25500000000E-02 0. -1.
    5000001    1    1    2    0    0 -0.31480569559E+03  0.13753541405E+03 -0.25958918731E+03  0.47434814457E+03  0.19900000000E+03 0.  0.
   -5000001    1    1    2    0    0  0.31480569559E+03 -0.13753541405E+03 -0.33100491355E+03  0.51689831580E+03  0.19900000000E+03 0.  0.
<mgrwt>
<rscale>  0 0.79609557E+03</rscale>
<asrwt>0</asrwt>
<pdfrwt beam="1">  1        2 0.28618026E-01 0.79609557E+03</pdfrwt>
<pdfrwt beam="2">  1       -2 0.11298861E+00 0.79609557E+03</pdfrwt>
<totfact> 0.11644241E+02</totfact>
</mgrwt>
</event>
<event>
 4    1  0.5023236E-005  0.1186902E+04  0.7818608E-02  0.9124399E-01
         -2   -1    0    0    0  501 -0.00000000000E+00  0.00000000000E+00  0.47800917845E+03  0.47800917845E+03  0.25500000000E-02 0. -1.
          2   -1    0    0  501    0  0.00000000000E+00 -0.00000000000E+00 -0.73677238799E+03  0.73677238800E+03  0.25500000000E-02 0.  1.
    5000001    1    1    2    0    0 -0.53850828400E+03 -0.13011990234E+03 -0.20638586562E+03  0.62379362489E+03  0.19900000000E+03 0.  0.
   -5000001    1    1    2    0    0  0.53850828400E+03  0.13011990234E+03 -0.52377343922E+02  0.59098794157E+03  0.19900000000E+03 0.  0.
<mgrwt>
<rscale>  0 0.11869018E+04</rscale>
<asrwt>0</asrwt>
<pdfrwt beam="1">  1        2 0.10525320E+00 0.11869018E+04</pdfrwt>
<pdfrwt beam="2">  1       -2 0.68287026E-01 0.11869018E+04</pdfrwt>
<totfact> 0.81904969E+01</totfact>
</mgrwt>
</event>
<event>
 4    1  0.5023236E-005  0.6365273E+03  0.7818608E-02  0.9832393E-01
          2   -1    0    0  501    0  0.00000000000E+00  0.00000000000E+00  0.43750004321E+03  0.43750004322E+03  0.25500000000E-02 0.  1.
         -2   -1    0    0    0  501 -0.00000000000E+00 -0.00000000000E+00 -0.23152395919E+03  0.23152395920E+03  0.25500000000E-02 0. -1.
    5000001    1    1    2    0    0  0.10639413305E+03  0.19690829391E+03 -0.10204842177E+02  0.29966268797E+03  0.19900000000E+03 0.  0.
   -5000001    1    1    2    0    0 -0.10639413305E+03 -0.19690829391E+03  0.21618092620E+03  0.36936131445E+03  0.19900000000E+03 0.  0.
<mgrwt>
<rscale>  0 0.63652727E+03</rscale>
<asrwt>0</asrwt>
<pdfrwt beam="1">  1        2 0.62500006E-01 0.63652727E+03</pdfrwt>
<pdfrwt beam="2">  1       -2 0.33074852E-01 0.63652727E+03</pdfrwt>
<totfact> 0.67033489E+02</totfact>
</mgrwt>
</event>
<event>
 4    1  0.5023236E-005  0.5493847E+03  0.7818608E-02  0.1001636E+00
          2   -1    0    0  501    0  0.00000000000E+00  0.00000000000E+00  0.45836221440E+03  0.45836221441E+03  0.25500000000E-02 0.  1.
         -2   -1    0    0    0  501 -0.00000000000E+00 -0.00000000000E+00 -0.16462066066E+03  0.16462066068E+03  0.25500000000E-02 0. -1.
    5000001    1    1    2    0    0 -0.23522852746E+02  0.67411213657E+02  0.34574275889E+03  0.40526121410E+03  0.19900000000E+03 0.  0.
   -5000001    1    1    2    0    0  0.23522852746E+02 -0.67411213657E+02 -0.52001205149E+02  0.21772166099E+03  0.19900000000E+03 0.  0.
<mgrwt>
<rscale>  0 0.54938471E+03</rscale>
<asrwt>0</asrwt>
<pdfrwt beam="1">  1        2 0.65480316E-01 0.54938471E+03</pdfrwt>
<pdfrwt beam="2">  1       -2 0.23517237E-01 0.54938471E+03</pdfrwt>
<totfact> 0.11871175E+03</totfact>
</mgrwt>
</event>
<event>
 4    1  0.5023236E-005  0.7203300E+03  0.7818608E-02  0.9683083E-01
         -2   -1    0    0    0  501 -0.00000000000E+00  0.00000000000E+00  0.11310922696E+03  0.11310922699E+03  0.25500000000E-02 0. -1.
          2   -1    0    0  501    0  0.00000000000E+00 -0.00000000000E+00 -0.11468456401E+04  0.11468456401E+04  0.25500000000E-02 0.  1.
    5000001    1    1    2    0    0  0.21210070675E+03 -0.20632511678E+03 -0.42834984137E+03  0.55735208820E+03  0.19900000000E+03 0.  0.
   -5000001    1    1    2    0    0 -0.21210070675E+03  0.20632511678E+03 -0.60538657173E+03  0.70260277885E+03  0.19900000000E+03 0.  0.
<mgrwt>
<rscale>  0 0.72032999E+03</rscale>
<asrwt>0</asrwt>
<pdfrwt beam="1">  1        2 0.16383508E+00 0.72032999E+03</pdfrwt>
<pdfrwt beam="2">  1       -2 0.16158462E-01 0.72032999E+03</pdfrwt>
<totfact> 0.71179589E+02</totfact>
</mgrwt>
</event>
<event>
 4    1  0.5023236E-005  0.8709071E+03  0.7818608E-02  0.9462698E-01
         -2   -1    0    0    0  501 -0.00000000000E+00  0.00000000000E+00  0.13673144129E+03  0.13673144132E+03  0.25500000000E-02 0. -1.
          2   -1    0    0  501    0  0.00000000000E+00 -0.00000000000E+00 -0.13868046772E+04  0.13868046772E+04  0.25500000000E-02 0.  1.
    5000001    1    1    2    0    0 -0.37550693819E+03 -0.79987018144E+02 -0.53557195712E+03  0.68836160915E+03  0.19900000000E+03 0.  0.
   -5000001    1    1    2    0    0  0.37550693819E+03  0.79987018144E+02 -0.71450127876E+03  0.83517450934E+03  0.19900000000E+03 0.  0.
<mgrwt>
<rscale>  0 0.87090712E+03</rscale>
<asrwt>0</asrwt>
<pdfrwt beam="1">  1        2 0.19811495E+00 0.87090712E+03</pdfrwt>
<pdfrwt beam="2">  1       -2 0.19533064E-01 0.87090712E+03</pdfrwt>
<totfact> 0.37508904E+02</totfact>
</mgrwt>
</event>
<event>
 4    1  0.5023236E-005  0.6548048E+03  0.7818608E-02  0.9797805E-01
         -2   -1    0    0    0  501 -0.00000000000E+00  0.00000000000E+00  0.15746861547E+04  0.15746861547E+04  0.25500000000E-02 0. -1.
          2   -1    0    0  501    0  0.00000000000E+00 -0.00000000000E+00 -0.68072194213E+02  0.68072194261E+02  0.25500000000E-02 0.  1.
    5000001    1    1    2    0    0  0.13185169858E+03 -0.21979093336E+03  0.86261640619E+03  0.92162952917E+03  0.19900000000E+03 0.  0.
   -5000001    1    1    2    0    0 -0.13185169858E+03  0.21979093336E+03  0.64399755433E+03  0.72112881983E+03  0.19900000000E+03 0.  0.
<mgrwt>
<rscale>  0 0.65480483E+03</rscale>
<asrwt>0</asrwt>
<pdfrwt beam="1">  1        2 0.97245992E-02 0.65480483E+03</pdfrwt>
<pdfrwt beam="2">  1       -2 0.22495516E+00 0.65480483E+03</pdfrwt>
<totfact> 0.65165623E+01</totfact>
</mgrwt>
</event>
<event>
 4    1  0.5023236E-005  0.1289017E+04  0.7818608E-02  0.9038320E-01
          2   -1    0    0  501    0  0.00000000000E+00  0.00000000000E+00  0.46857071820E+03  0.46857071821E+03  0.25500000000E-02 0.  1.
         -2   -1    0    0    0  501 -0.00000000000E+00 -0.00000000000E+00 -0.88650741384E+03  0.88650741384E+03  0.25500000000E-02 0. -1.
    5000001    1    1    2    0    0 -0.27477048683E+03 -0.43820454407E+03  0.13693629176E+03  0.57085426413E+03  0.19900000000E+03 0.  0.
   -5000001    1    1    2    0    0  0.27477048683E+03  0.43820454407E+03 -0.55487298740E+03  0.78422386792E+03  0.19900000000E+03 0.  0.
<mgrwt>
<rscale>  0 0.12890173E+04</rscale>
<asrwt>0</asrwt>
<pdfrwt beam="1">  1        2 0.66938674E-01 0.12890173E+04</pdfrwt>
<pdfrwt beam="2">  1       -2 0.12664392E+00 0.12890173E+04</pdfrwt>
<totfact> 0.32944914E+01</totfact>
</mgrwt>
</event>
<event>
 4    1  0.5023236E-005  0.6400444E+03  0.7818608E-02  0.9825641E-01
         -2   -1    0    0    0  501 -0.00000000000E+00  0.00000000000E+00  0.47769185917E+02  0.47769185985E+02  0.25500000000E-02 0. -1.
          2   -1    0    0  501    0  0.00000000000E+00 -0.00000000000E+00 -0.21439390755E+04  0.21439390755E+04  0.25500000000E-02 0.  1.
    5000001    1    1    2    0    0  0.82988366830E+02 -0.22129807467E+03 -0.76254383790E+03  0.82275999636E+03  0.19900000000E+03 0.  0.
   -5000001    1    1    2    0    0 -0.82988366830E+02  0.22129807467E+03 -0.13336260517E+04  0.13689482651E+04  0.19900000000E+03 0.  0.
<mgrwt>
<rscale>  0 0.64004445E+03</rscale>
<asrwt>0</asrwt>
<pdfrwt beam="1">  1        2 0.30627695E+00 0.64004445E+03</pdfrwt>
<pdfrwt beam="2">  1       -2 0.68241708E-02 0.64004445E+03</pdfrwt>
<totfact> 0.88263246E+02</totfact>
</mgrwt>
</event>
<event>
 4    1  0.5023236E-005  0.6842431E+03  0.7818608E-02  0.9744564E-01
          2   -1    0    0  501    0  0.00000000000E+00  0.00000000000E+00  0.10729501747E+04  0.10729501747E+04  0.25500000000E-02 0.  1.
         -2   -1    0    0    0  501 -0.00000000000E+00 -0.00000000000E+00 -0.10908910230E+03  0.10908910233E+03  0.25500000000E-02 0. -1.
    5000001    1    1    2    0    0 -0.88786429830E+02  0.16566468679E+03  0.12739714921E+03  0.30192524273E+03  0.19900000000E+03 0.  0.
   -5000001    1    1    2    0    0  0.88786429830E+02 -0.16566468679E+03  0.83646392322E+03  0.88011403433E+03  0.19900000000E+03 0.  0.
<mgrwt>
<rscale>  0 0.68424315E+03</rscale>
<asrwt>0</asrwt>
<pdfrwt beam="1">  1        2 0.15327860E+00 0.68424315E+03</pdfrwt>
<pdfrwt beam="2">  1       -2 0.15584158E-01 0.68424315E+03</pdfrwt>
<totfact> 0.83687855E+02</totfact>
</mgrwt>
</event>
<event>
 4    1  0.5023236E-005  0.7167562E+03  0.7818608E-02  0.9688998E-01
          2   -1    0    0  501    0  0.00000000000E+00  0.00000000000E+00  0.12648501770E+04  0.12648501770E+04  0.25500000000E-02 0.  1.
         -2   -1    0    0    0  501 -0.00000000000E+00 -0.00000000000E+00 -0.10154157518E+03  0.10154157522E+03  0.25500000000E-02 0. -1.
    5000001    1    1    2    0    0  0.21590141879E+03 -0.20356243921E+03  0.52831756940E+03  0.63778644030E+03  0.19900000000E+03 0.  0.
   -5000001    1    1    2    0    0 -0.21590141879E+03  0.20356243921E+03  0.63499103237E+03  0.72860531187E+03  0.19900000000E+03 0.  0.
<mgrwt>
<rscale>  0 0.71675625E+03</rscale>
<asrwt>0</asrwt>
<pdfrwt beam="1">  1        2 0.18069287E+00 0.71675625E+03</pdfrwt>
<pdfrwt beam="2">  1       -2 0.14505940E-01 0.71675625E+03</pdfrwt>
<totfact> 0.73330944E+02</totfact>
</mgrwt>
</event>
<event>
 4    1  0.5023236E-005  0.4264481E+03  0.7818608E-02  0.1034988E+00
          2   -1    0    0  501    0  0.00000000000E+00  0.00000000000E+00  0.31020125873E+03  0.31020125874E+03  0.25500000000E-02 0.  1.
         -2   -1    0    0    0  501 -0.00000000000E+00 -0.00000000000E+00 -0.14656452493E+03  0.14656452495E+03  0.25500000000E-02 0. -1.
    5000001    1    1    2    0    0  0.68840563472E+02  0.14082157997E+02  0.11441499358E+03  0.24006066131E+03  0.19900000000E+03 0.  0.
   -5000001    1    1    2    0    0 -0.68840563472E+02 -0.14082157997E+02  0.49221740221E+02  0.21670512237E+03  0.19900000000E+03 0.  0.
<mgrwt>
<rscale>  0 0.42644812E+03</rscale>
<asrwt>0</asrwt>
<pdfrwt beam="1">  1        2 0.44314466E-01 0.42644812E+03</pdfrwt>
<pdfrwt beam="2">  1       -2 0.20937789E-01 0.42644812E+03</pdfrwt>
<totfact> 0.22366193E+03</totfact>
</mgrwt>
</event>
<event>
 4    1  0.5023236E-005  0.6495780E+03  0.7818608E-02  0.9807571E-01
         -2   -1    0    0    0  501 -0.00000000000E+00  0.00000000000E+00  0.22900618586E+02  0.22900618728E+02  0.25500000000E-02 0. -1.
          2   -1    0    0  501    0  0.00000000000E+00 -0.00000000000E+00 -0.46063341991E+04  0.46063341991E+04  0.25500000000E-02 0.  1.
    5000001    1    1    2    0    0  0.10542417692E+03 -0.23244891980E+03 -0.24855983214E+04  0.25065806935E+04  0.19900000000E+03 0.  0.
   -5000001    1    1    2    0    0 -0.10542417692E+03  0.23244891980E+03 -0.20978352591E+04  0.21226541244E+04  0.19900000000E+03 0.  0.
<mgrwt>
<rscale>  0 0.64957803E+03</rscale>
<asrwt>0</asrwt>
<pdfrwt beam="1">  1        2 0.65804715E+00 0.64957803E+03</pdfrwt>
<pdfrwt beam="2">  1       -2 0.32715199E-02 0.64957803E+03</pdfrwt>
<totfact> 0.89795025E+01</totfact>
</mgrwt>
</event>
<event>
 4    1  0.5023236E-005  0.7915350E+03  0.7818608E-02  0.9572351E-01
         -2   -1    0    0    0  501 -0.00000000000E+00  0.00000000000E+00  0.54828417411E+03  0.54828417411E+03  0.25500000000E-02 0. -1.
          2   -1    0    0  501    0  0.00000000000E+00 -0.00000000000E+00 -0.28567649121E+03  0.28567649123E+03  0.25500000000E-02 0.  1.
    5000001    1    1    2    0    0  0.13472500391E+03 -0.18975174004E+03  0.39549131231E+03  0.50017089843E+03  0.19900000000E+03 0.  0.
   -5000001    1    1    2    0    0 -0.13472500391E+03  0.18975174004E+03 -0.13288362941E+03  0.33378976691E+03  0.19900000000E+03 0.  0.
<mgrwt>
<rscale>  0 0.79153496E+03</rscale>
<asrwt>0</asrwt>
<pdfrwt beam="1">  1        2 0.40810928E-01 0.79153496E+03</pdfrwt>
<pdfrwt beam="2">  1       -2 0.78326310E-01 0.79153496E+03</pdfrwt>
<totfact> 0.18394032E+02</totfact>
</mgrwt>
</event>
<event>
 4    1  0.5023236E-005  0.5440986E+03  0.7818608E-02  0.1002869E+00
         -2   -1    0    0    0  501 -0.00000000000E+00  0.00000000000E+00  0.94540556718E+02  0.94540556753E+02  0.25500000000E-02 0. -1.
          2   -1    0    0  501    0  0.00000000000E+00 -0.00000000000E+00 -0.78284730187E+03  0.78284730188E+03  0.25500000000E-02 0.  1.
    5000001    1    1    2    0    0  0.10059021091E+03  0.68048695153E+02 -0.57026071095E+03  0.61607409773E+03  0.19900000000E+03 0.  0.
   -5000001    1    1    2    0    0 -0.10059021091E+03 -0.68048695153E+02 -0.11804603421E+03  0.26131376090E+03  0.19900000000E+03 0.  0.
<mgrwt>
<rscale>  0 0.54409859E+03</rscale>
<asrwt>0</asrwt>
<pdfrwt beam="1">  1        2 0.11183533E+00 0.54409859E+03</pdfrwt>
<pdfrwt beam="2">  1       -2 0.13505794E-01 0.54409859E+03</pdfrwt>
<totfact> 0.16349428E+03</totfact>
</mgrwt>
</event>
<event>
 4    1  0.5023236E-005  0.1018331E+04  0.7818608E-02  0.9288665E-01
          2   -1    0    0  501    0  0.00000000000E+00  0.00000000000E+00  0.32321256761E+03  0.32321256762E+03  0.25500000000E-02 0.  1.
         -2   -1    0    0    0  501 -0.00000000000E+00 -0.00000000000E+00 -0.80210181206E+03  0.80210181206E+03  0.25500000000E-02 0. -1.
    5000001    1    1    2    0    0  0.32485676193E+03 -0.12453618014E+03 -0.58645250495E+03  0.71033000535E+03  0.19900000000E+03 0.  0.
   -5000001    1    1    2    0    0 -0.32485676193E+03  0.12453618014E+03  0.10756326051E+03  0.41498437434E+03  0.19900000000E+03 0.  0.
<mgrwt>
<rscale>  0 0.10183308E+04</rscale>
<asrwt>0</asrwt>
<pdfrwt beam="1">  1        2 0.46173224E-01 0.10183308E+04</pdfrwt>
<pdfrwt beam="2">  1       -2 0.11458597E+00 0.10183308E+04</pdfrwt>
<totfact> 0.65141203E+01</totfact>
</mgrwt>
</event>
<event>
 4    1  0.5023236E-005  0.1114882E+04  0.7818608E-02  0.9190807E-01
         -2   -1    0    0    0  501 -0.00000000000E+00  0.00000000000E+00  0.32799246508E+03  0.32799246509E+03  0.25500000000E-02 0. -1.
          2   -1    0    0  501    0  0.00000000000E+00 -0.00000000000E+00 -0.94740198858E+03  0.94740198858E+03  0.25500000000E-02 0.  1.
    5000001    1    1    2    0    0  0.36249215423E+03  0.34957248979E+03 -0.15820627944E+03  0.56412030131E+03  0.19900000000E+03 0.  0.
   -5000001    1    1    2    0    0 -0.36249215423E+03 -0.34957248979E+03 -0.46120324405E+03  0.71127415236E+03  0.19900000000E+03 0.  0.
<mgrwt>
<rscale>  0 0.11148824E+04</rscale>
<asrwt>0</asrwt>
<pdfrwt beam="1">  1        2 0.13534314E+00 0.11148824E+04</pdfrwt>
<pdfrwt beam="2">  1       -2 0.46856067E-01 0.11148824E+04</pdfrwt>
<totfact> 0.12973985E+02</totfact>
</mgrwt>
</event>
<event>
 4    1  0.5023236E-005  0.5215888E+03  0.7818608E-02  0.1008293E+00
         -2   -1    0    0    0  501 -0.00000000000E+00  0.00000000000E+00  0.26909713869E+02  0.26909713990E+02  0.25500000000E-02 0. -1.
          2   -1    0    0  501    0  0.00000000000E+00 -0.00000000000E+00 -0.25274787192E+04  0.25274787192E+04  0.25500000000E-02 0.  1.
    5000001    1    1    2    0    0 -0.15804456209E+03 -0.54420166882E+02 -0.13568044767E+04  0.13814698789E+04  0.19900000000E+03 0.  0.
   -5000001    1    1    2    0    0  0.15804456209E+03  0.54420166882E+02 -0.11437645286E+04  0.11729185544E+04  0.19900000000E+03 0.  0.
<mgrwt>
<rscale>  0 0.52158884E+03</rscale>
<asrwt>0</asrwt>
<pdfrwt beam="1">  1        2 0.36106824E+00 0.52158884E+03</pdfrwt>
<pdfrwt beam="2">  1       -2 0.38442464E-02 0.52158884E+03</pdfrwt>
<totfact> 0.13858848E+03</totfact>
</mgrwt>
</event>
<event>
 4    1  0.5023236E-005  0.9465421E+03  0.7818608E-02  0.9369201E-01
         -2   -1    0    0    0  501 -0.00000000000E+00  0.00000000000E+00  0.18784608878E+03  0.18784608880E+03  0.25500000000E-02 0. -1.
          2   -1    0    0  501    0  0.00000000000E+00 -0.00000000000E+00 -0.11923884623E+04  0.11923884623E+04  0.25500000000E-02 0.  1.
    5000001    1    1    2    0    0 -0.10653849560E+03  0.11871441694E+03  0.79069653128E+02  0.26701418292E+03  0.19900000000E+03 0.  0.
   -5000001    1    1    2    0    0  0.10653849560E+03 -0.11871441694E+03 -0.10836120266E+04  0.11132203682E+04  0.19900000000E+03 0.  0.
<mgrwt>
<rscale>  0 0.94654215E+03</rscale>
<asrwt>0</asrwt>
<pdfrwt beam="1">  1        2 0.17034120E+00 0.94654215E+03</pdfrwt>
<pdfrwt beam="2">  1       -2 0.26835156E-01 0.94654215E+03</pdfrwt>
<totfact> 0.27144548E+02</totfact>
</mgrwt>
</event>
<event>
 4    1  0.5023236E-005  0.5455828E+03  0.7818608E-02  0.1002522E+00
         -2   -1    0    0    0  501 -0.00000000000E+00  0.00000000000E+00  0.55685689020E+02  0.55685689079E+02  0.25500000000E-02 0. -1.
          2   -1    0    0  501    0  0.00000000000E+00 -0.00000000000E+00 -0.13363426378E+04  0.13363426378E+04  0.25500000000E-02 0.  1.
    5000001    1    1    2    0    0 -0.14100271863E+03  0.15034435687E+02 -0.94974247228E+03  0.98067301614E+03  0.19900000000E+03 0.  0.
   -5000001    1    1    2    0    0  0.14100271863E+03 -0.15034435687E+02 -0.33091447645E+03  0.41135531070E+03  0.19900000000E+03 0.  0.
<mgrwt>
<rscale>  0 0.54558285E+03</rscale>
<asrwt>0</asrwt>
<pdfrwt beam="1">  1        2 0.19090607E+00 0.54558285E+03</pdfrwt>
<pdfrwt beam="2">  1       -2 0.79550993E-02 0.54558285E+03</pdfrwt>
<totfact> 0.17985380E+03</totfact>
</mgrwt>
</event>
<event>
 4    1  0.5023236E-005  0.9147029E+03  0.7818608E-02  0.9407386E-01
         -2   -1    0    0    0  501 -0.00000000000E+00  0.00000000000E+00  0.41970760790E+02  0.41970760868E+02  0.25500000000E-02 0.  1.
          2   -1    0    0  501    0  0.00000000000E+00 -0.00000000000E+00 -0.49837161687E+04  0.49837161687E+04  0.25500000000E-02 0. -1.
    5000001    1    1    2    0    0  0.15405316883E+03 -0.37795702165E+03 -0.21706650621E+04  0.22176500402E+04  0.19900000000E+03 0.  0.
   -5000001    1    1    2    0    0 -0.15405316883E+03  0.37795702165E+03 -0.27710803457E+04  0.28080368893E+04  0.19900000000E+03 0.  0.
<mgrwt>
<rscale>  0 0.91470292E+03</rscale>
<asrwt>0</asrwt>
<pdfrwt beam="1">  1        2 0.71195907E+00 0.91470292E+03</pdfrwt>
<pdfrwt beam="2">  1       -2 0.59958262E-02 0.91470292E+03</pdfrwt>
<totfact> 0.15749744E+01</totfact>
</mgrwt>
</event>
<event>
 4    1  0.5023236E-005  0.7750944E+03  0.7818608E-02  0.9596783E-01
         -2   -1    0    0    0  501 -0.00000000000E+00  0.00000000000E+00  0.93950132537E+02  0.93950132572E+02  0.25500000000E-02 0. -1.
          2   -1    0    0  501    0  0.00000000000E+00 -0.00000000000E+00 -0.15986440211E+04  0.15986440211E+04  0.25500000000E-02 0.  1.
    5000001    1    1    2    0    0 -0.29319485349E+01  0.25347213898E+03 -0.28228694831E+03  0.42841993738E+03  0.19900000000E+03 0.  0.
   -5000001    1    1    2    0    0  0.29319485349E+01 -0.25347213898E+03 -0.12224069403E+04  0.12641742163E+04  0.19900000000E+03 0.  0.
<mgrwt>
<rscale>  0 0.77509436E+03</rscale>
<asrwt>0</asrwt>
<pdfrwt beam="1">  1        2 0.22837770E+00 0.77509436E+03</pdfrwt>
<pdfrwt beam="2">  1       -2 0.13421449E-01 0.77509436E+03</pdfrwt>
<totfact> 0.55313502E+02</totfact>
</mgrwt>
</event>
<event>
 4    1  0.5023236E-005  0.5019071E+03  0.7818608E-02  0.1013282E+00
         -2   -1    0    0    0  501 -0.00000000000E+00  0.00000000000E+00  0.39271570123E+03  0.39271570124E+03  0.25500000000E-02 0. -1.
          2   -1    0    0  501    0  0.00000000000E+00 -0.00000000000E+00 -0.16036459935E+03  0.16036459937E+03  0.25500000000E-02 0.  1.
    5000001    1    1    2    0    0 -0.12559810866E+03 -0.18734927936E+02  0.22341993318E+02  0.23712032197E+03  0.19900000000E+03 0.  0.
   -5000001    1    1    2    0    0  0.12559810866E+03  0.18734927936E+02  0.21000910856E+03  0.31595997864E+03  0.19900000000E+03 0.  0.
<mgrwt>
<rscale>  0 0.50190715E+03</rscale>
<asrwt>0</asrwt>
<pdfrwt beam="1">  1        2 0.22909229E-01 0.50190715E+03</pdfrwt>
<pdfrwt beam="2">  1       -2 0.56102243E-01 0.50190715E+03</pdfrwt>
<totfact> 0.72704278E+02</totfact>
</mgrwt>
</event>
<event>
 4    1  0.5023236E-005  0.6876133E+03  0.7818608E-02  0.9738653E-01
         -2   -1    0    0    0  501 -0.00000000000E+00  0.00000000000E+00  0.15167502669E+03  0.15167502671E+03  0.25500000000E-02 0. -1.
          2   -1    0    0  501    0  0.00000000000E+00 -0.00000000000E+00 -0.77931753960E+03  0.77931753960E+03  0.25500000000E-02 0.  1.
    5000001    1    1    2    0    0  0.12510741303E+03  0.21699407671E+03 -0.14328984174E+03  0.35052998855E+03  0.19900000000E+03 0.  0.
   -5000001    1    1    2    0    0 -0.12510741303E+03 -0.21699407671E+03 -0.48435267116E+03  0.58046257777E+03  0.19900000000E+03 0.  0.
<mgrwt>
<rscale>  0 0.68761329E+03</rscale>
<asrwt>0</asrwt>
<pdfrwt beam="1">  1        2 0.11133107E+00 0.68761329E+03</pdfrwt>
<pdfrwt beam="2">  1       -2 0.21667861E-01 0.68761329E+03</pdfrwt>
<totfact> 0.73075674E+02</totfact>
</mgrwt>
</event>
<event>
 4    1  0.5023236E-005  0.6080123E+03  0.7818608E-02  0.9888921E-01
          2   -1    0    0  501    0  0.00000000000E+00  0.00000000000E+00  0.41805116847E+03  0.41805116848E+03  0.25500000000E-02 0.  1.
         -2   -1    0    0    0  501 -0.00000000000E+00 -0.00000000000E+00 -0.22107279462E+03  0.22107279463E+03  0.25500000000E-02 0. -1.
    5000001    1    1    2    0    0 -0.22967762430E+03  0.26624968840E+01  0.10662065502E+03  0.32206810471E+03  0.19900000000E+03 0.  0.
   -5000001    1    1    2    0    0  0.22967762430E+03 -0.26624968840E+01  0.90357718835E+02  0.31705585840E+03  0.19900000000E+03 0.  0.
<mgrwt>
<rscale>  0 0.60801230E+03</rscale>
<asrwt>0</asrwt>
<pdfrwt beam="1">  1        2 0.59721595E-01 0.60801230E+03</pdfrwt>
<pdfrwt beam="2">  1       -2 0.31581828E-01 0.60801230E+03</pdfrwt>
<totfact> 0.76933724E+02</totfact>
</mgrwt>
</event>
<event>
 4    1  0.5023236E-005  0.4663069E+03  0.7818608E-02  0.1022968E+00
         -2   -1    0    0    0  501 -0.00000000000E+00  0.00000000000E+00  0.24907160499E+03  0.24907160500E+03  0.25500000000E-02 0. -1.
          2   -1    0    0  501    0  0.00000000000E+00 -0.00000000000E+00 -0.21825262348E+03  0.21825262350E+03  0.25500000000E-02 0.  1.
    5000001    1    1    2    0    0  0.11751985145E+03 -0.25979302563E+02  0.31989210183E+02  0.23475550945E+03  0.19900000000E+03 0.  0.
   -5000001    1    1    2    0    0 -0.11751985145E+03  0.25979302563E+02 -0.11702286723E+01  0.23256871905E+03  0.19900000000E+03 0.  0.
<mgrwt>
<rscale>  0 0.46630690E+03</rscale>
<asrwt>0</asrwt>
<pdfrwt beam="1">  1        2 0.31178946E-01 0.46630690E+03</pdfrwt>
<pdfrwt beam="2">  1       -2 0.35581658E-01 0.46630690E+03</pdfrwt>
<totfact> 0.12618078E+03</totfact>
</mgrwt>
</event>
<event>
 4    1  0.5023236E-005  0.5172961E+03  0.7818608E-02  0.1009360E+00
          2   -1    0    0  501    0  0.00000000000E+00  0.00000000000E+00  0.17232277372E+04  0.17232277372E+04  0.25500000000E-02 0.  1.
         -2   -1    0    0    0  501 -0.00000000000E+00 -0.00000000000E+00 -0.38821810398E+02  0.38821810482E+02  0.25500000000E-02 0. -1.
    5000001    1    1    2    0    0  0.12367635549E+03  0.10718758149E+03  0.76506755964E+03  0.80728829383E+03  0.19900000000E+03 0.  0.
   -5000001    1    1    2    0    0 -0.12367635549E+03 -0.10718758149E+03  0.91933836715E+03  0.95476125385E+03  0.19900000000E+03 0.  0.
<mgrwt>
<rscale>  0 0.51729613E+03</rscale>
<asrwt>0</asrwt>
<pdfrwt beam="1">  1        2 0.24617540E+00 0.51729613E+03</pdfrwt>
<pdfrwt beam="2">  1       -2 0.55459727E-02 0.51729613E+03</pdfrwt>
<totfact> 0.20000048E+03</totfact>
</mgrwt>
</event>
<event>
 4    1  0.5023236E-005  0.8202708E+03  0.7818608E-02  0.9531131E-01
         -2   -1    0    0    0  501 -0.00000000000E+00  0.00000000000E+00  0.21735755585E+03  0.21735755586E+03  0.25500000000E-02 0. -1.
          2   -1    0    0  501    0  0.00000000000E+00 -0.00000000000E+00 -0.77389092332E+03  0.77389092332E+03  0.25500000000E-02 0.  1.
    5000001    1    1    2    0    0  0.17410569727E+03  0.31232908619E+03 -0.31131234503E+03  0.51417762307E+03  0.19900000000E+03 0.  0.
   -5000001    1    1    2    0    0 -0.17410569727E+03 -0.31232908619E+03 -0.24522102244E+03  0.47707085611E+03  0.19900000000E+03 0.  0.
<mgrwt>
<rscale>  0 0.82027078E+03</rscale>
<asrwt>0</asrwt>
<pdfrwt beam="1">  1        2 0.11055584E+00 0.82027078E+03</pdfrwt>
<pdfrwt beam="2">  1       -2 0.31051080E-01 0.82027078E+03</pdfrwt>
<totfact> 0.38223663E+02</totfact>
</mgrwt>
</event>
<event>
 4    1  0.5023236E-005  0.7889122E+03  0.7818608E-02  0.9576206E-01
          2   -1    0    0  501    0  0.00000000000E+00  0.00000000000E+00  0.25806115216E+03  0.25806115217E+03  0.25500000000E-02 0.  1.
         -2   -1    0    0    0  501 -0.00000000000E+00 -0.00000000000E+00 -0.60294084872E+03  0.60294084873E+03  0.25500000000E-02 0. -1.
    5000001    1    1    2    0    0 -0.22087628214E+03 -0.17619616162E+03  0.35103522537E+02  0.34736821484E+03  0.19900000000E+03 0.  0.
   -5000001    1    1    2    0    0  0.22087628214E+03  0.17619616162E+03 -0.37998321910E+03  0.51363378606E+03  0.19900000000E+03 0.  0.
<mgrwt>
<rscale>  0 0.78891219E+03</rscale>
<asrwt>0</asrwt>
<pdfrwt beam="1">  1        2 0.36865879E-01 0.78891219E+03</pdfrwt>
<pdfrwt beam="2">  1       -2 0.86134406E-01 0.78891219E+03</pdfrwt>
<totfact> 0.16620628E+02</totfact>
</mgrwt>
</event>
<event>
 4    1  0.5023236E-005  0.8035611E+03  0.7818608E-02  0.9554877E-01
         -2   -1    0    0    0  501 -0.00000000000E+00  0.00000000000E+00  0.22529310908E+03  0.22529310909E+03  0.25500000000E-02 0.  1.
          2   -1    0    0  501    0  0.00000000000E+00 -0.00000000000E+00 -0.71652257011E+03  0.71652257012E+03  0.25500000000E-02 0. -1.
    5000001    1    1    2    0    0 -0.86792744386E+02  0.26812020526E+03 -0.42596492428E+01  0.34502256384E+03  0.19900000000E+03 0.  0.
   -5000001    1    1    2    0    0  0.86792744386E+02 -0.26812020526E+03 -0.48696981179E+03  0.59679311536E+03  0.19900000000E+03 0.  0.
<mgrwt>
<rscale>  0 0.80356107E+03</rscale>
<asrwt>0</asrwt>
<pdfrwt beam="1">  1        2 0.10236037E+00 0.80356107E+03</pdfrwt>
<pdfrwt beam="2">  1       -2 0.32184730E-01 0.80356107E+03</pdfrwt>
<totfact> 0.39404947E+02</totfact>
</mgrwt>
</event>
<event>
 4    1  0.5023236E-005  0.6205608E+03  0.7818608E-02  0.9863644E-01
         -2   -1    0    0    0  501 -0.00000000000E+00  0.00000000000E+00  0.19652884938E+03  0.19652884939E+03  0.25500000000E-02 0. -1.
          2   -1    0    0  501    0  0.00000000000E+00 -0.00000000000E+00 -0.48987165951E+03  0.48987165951E+03  0.25500000000E-02 0.  1.
    5000001    1    1    2    0    0  0.15848711174E+03  0.17437179766E+03 -0.10917446270E+03  0.32717541429E+03  0.19900000000E+03 0.  0.
   -5000001    1    1    2    0    0 -0.15848711174E+03 -0.17437179766E+03 -0.18416834742E+03  0.35922509462E+03  0.19900000000E+03 0.  0.
<mgrwt>
<rscale>  0 0.62056076E+03</rscale>
<asrwt>0</asrwt>
<pdfrwt beam="1">  1        2 0.69981665E-01 0.62056076E+03</pdfrwt>
<pdfrwt beam="2">  1       -2 0.28075550E-01 0.62056076E+03</pdfrwt>
<totfact> 0.79972882E+02</totfact>
</mgrwt>
</event>
<event>
 4    1  0.5023236E-005  0.1112477E+04  0.7818608E-02  0.9193115E-01
         -2   -1    0    0    0  501 -0.00000000000E+00  0.00000000000E+00  0.32280427631E+03  0.32280427632E+03  0.25500000000E-02 0. -1.
          2   -1    0    0  501    0  0.00000000000E+00 -0.00000000000E+00 -0.95847996219E+03  0.95847996220E+03  0.25500000000E-02 0.  1.
    5000001    1    1    2    0    0 -0.20129874088E+01  0.48837687175E+03 -0.11412504629E+03  0.53957533966E+03  0.19900000000E+03 0.  0.
   -5000001    1    1    2    0    0  0.20129874088E+01 -0.48837687175E+03 -0.52155063959E+03  0.74170889885E+03  0.19900000000E+03 0.  0.
<mgrwt>
<rscale>  0 0.11124773E+04</rscale>
<asrwt>0</asrwt>
<pdfrwt beam="1">  1        2 0.13692571E+00 0.11124773E+04</pdfrwt>
<pdfrwt beam="2">  1       -2 0.46114897E-01 0.11124773E+04</pdfrwt>
<totfact> 0.13183159E+02</totfact>
</mgrwt>
</event>
<event>
 4    1  0.5023236E-005  0.4477833E+03  0.7818608E-02  0.1028385E+00
          2   -1    0    0  501    0  0.00000000000E+00  0.00000000000E+00  0.14123676418E+04  0.14123676418E+04  0.25500000000E-02 0.  1.
         -2   -1    0    0    0  501 -0.00000000000E+00 -0.00000000000E+00 -0.35491795988E+02  0.35491796080E+02  0.25500000000E-02 0. -1.
    5000001    1    1    2    0    0 -0.74417323634E+02  0.46572115982E+02  0.86012971493E+03  0.88720405012E+03  0.19900000000E+03 0.  0.
   -5000001    1    1    2    0    0  0.74417323634E+02 -0.46572115982E+02  0.51674613087E+03  0.56065538775E+03  0.19900000000E+03 0.  0.
<mgrwt>
<rscale>  0 0.44778327E+03</rscale>
<asrwt>0</asrwt>
<pdfrwt beam="1">  1        2 0.20176680E+00 0.44778327E+03</pdfrwt>
<pdfrwt beam="2">  1       -2 0.50702567E-02 0.44778327E+03</pdfrwt>
<totfact> 0.33208736E+03</totfact>
</mgrwt>
</event>
<event>
 4    1  0.5023236E-005  0.8050148E+03  0.7818608E-02  0.9552787E-01
          2   -1    0    0  501    0  0.00000000000E+00  0.00000000000E+00  0.49666932236E+03  0.49666932236E+03  0.25500000000E-02 0.  1.
         -2   -1    0    0    0  501 -0.00000000000E+00 -0.00000000000E+00 -0.32619732207E+03  0.32619732208E+03  0.25500000000E-02 0. -1.
    5000001    1    1    2    0    0  0.20881898684E+03  0.25202822663E+03  0.21162094655E+03  0.43761629460E+03  0.19900000000E+03 0.  0.
   -5000001    1    1    2    0    0 -0.20881898684E+03 -0.25202822663E+03 -0.41148946263E+02  0.38525034985E+03  0.19900000000E+03 0.  0.
<mgrwt>
<rscale>  0 0.80501479E+03</rscale>
<asrwt>0</asrwt>
<pdfrwt beam="1">  1        2 0.70952760E-01 0.80501479E+03</pdfrwt>
<pdfrwt beam="2">  1       -2 0.46599618E-01 0.80501479E+03</pdfrwt>
<totfact> 0.29707561E+02</totfact>
</mgrwt>
</event>
<event>
 4    1  0.5023236E-005  0.5395350E+03  0.7818608E-02  0.1003946E+00
         -2   -1    0    0    0  501 -0.00000000000E+00  0.00000000000E+00  0.18397152391E+03  0.18397152393E+03  0.25500000000E-02 0. -1.
          2   -1    0    0  501    0  0.00000000000E+00 -0.00000000000E+00 -0.39557479477E+03  0.39557479478E+03  0.25500000000E-02 0.  1.
    5000001    1    1    2    0    0 -0.17964729232E+03  0.86896916623E+01 -0.74951808588E+02  0.27850930683E+03  0.19900000000E+03 0.  0.
   -5000001    1    1    2    0    0  0.17964729232E+03 -0.86896916623E+01 -0.13665146227E+03  0.30103701188E+03  0.19900000000E+03 0.  0.
<mgrwt>
<rscale>  0 0.53953498E+03</rscale>
<asrwt>0</asrwt>
<pdfrwt beam="1">  1        2 0.56510685E-01 0.53953498E+03</pdfrwt>
<pdfrwt beam="2">  1       -2 0.26281646E-01 0.53953498E+03</pdfrwt>
<totfact> 0.11463900E+03</totfact>
</mgrwt>
</event>
<event>
 4    1  0.5023236E-005  0.5397225E+03  0.7818608E-02  0.1003901E+00
          2   -1    0    0  501    0  0.00000000000E+00  0.00000000000E+00  0.33975603080E+03  0.33975603081E+03  0.25500000000E-02 0.  1.
         -2   -1    0    0    0  501 -0.00000000000E+00 -0.00000000000E+00 -0.21434525481E+03  0.21434525482E+03  0.25500000000E-02 0. -1.
    5000001    1    1    2    0    0 -0.32112420221E+02 -0.17427082318E+03  0.18876522468E+02  0.26713077405E+03  0.19900000000E+03 0.  0.
   -5000001    1    1    2    0    0  0.32112420221E+02  0.17427082318E+03  0.10653425353E+03  0.28697051158E+03  0.19900000000E+03 0.  0.
<mgrwt>
<rscale>  0 0.53972250E+03</rscale>
<asrwt>0</asrwt>
<pdfrwt beam="1">  1        2 0.48536576E-01 0.53972250E+03</pdfrwt>
<pdfrwt beam="2">  1       -2 0.30620751E-01 0.53972250E+03</pdfrwt>
<totfact> 0.10256994E+03</totfact>
</mgrwt>
</event>
<event>
 4    1  0.5023236E-005  0.5739224E+03  0.7818608E-02  0.9961036E-01
          2   -1    0    0  501    0  0.00000000000E+00  0.00000000000E+00  0.67105890173E+03  0.67105890173E+03  0.25500000000E-02 0.  1.
         -2   -1    0    0    0  501 -0.00000000000E+00 -0.00000000000E+00 -0.12271161853E+03  0.12271161855E+03  0.25500000000E-02 0. -1.
    5000001    1    1    2    0    0  0.20077083329E+02  0.15403373900E+03  0.46288055636E+03  0.52724651870E+03  0.19900000000E+03 0.  0.
   -5000001    1    1    2    0    0 -0.20077083329E+02 -0.15403373900E+03  0.85466726839E+02  0.26652400158E+03  0.19900000000E+03 0.  0.
<mgrwt>
<rscale>  0 0.57392238E+03</rscale>
<asrwt>0</asrwt>
<pdfrwt beam="1">  1        2 0.95865558E-01 0.57392238E+03</pdfrwt>
<pdfrwt beam="2">  1       -2 0.17530231E-01 0.57392238E+03</pdfrwt>
<totfact> 0.12736332E+03</totfact>
</mgrwt>
</event>
<event>
 4    1  0.5023236E-005  0.5097861E+03  0.7818608E-02  0.1011256E+00
         -2   -1    0    0    0  501 -0.00000000000E+00  0.00000000000E+00  0.32876776554E+03  0.32876776555E+03  0.25500000000E-02 0. -1.
          2   -1    0    0  501    0  0.00000000000E+00 -0.00000000000E+00 -0.19761812664E+03  0.19761812666E+03  0.25500000000E-02 0.  1.
    5000001    1    1    2    0    0 -0.14467354234E+03 -0.66242228997E+02  0.72949018592E+02  0.26503023614E+03  0.19900000000E+03 0.  0.
   -5000001    1    1    2    0    0  0.14467354234E+03  0.66242228997E+02  0.58200620312E+02  0.26135565607E+03  0.19900000000E+03 0.  0.
<mgrwt>
<rscale>  0 0.50978611E+03</rscale>
<asrwt>0</asrwt>
<pdfrwt beam="1">  1        2 0.28231161E-01 0.50978611E+03</pdfrwt>
<pdfrwt beam="2">  1       -2 0.46966824E-01 0.50978611E+03</pdfrwt>
<totfact> 0.82263981E+02</totfact>
</mgrwt>
</event>
<event>
 4    1  0.5023236E-005  0.7173648E+03  0.7818608E-02  0.9687988E-01
          2   -1    0    0  501    0  0.00000000000E+00  0.00000000000E+00  0.11855878006E+04  0.11855878006E+04  0.25500000000E-02 0.  1.
         -2   -1    0    0    0  501 -0.00000000000E+00 -0.00000000000E+00 -0.10851414793E+03  0.10851414796E+03  0.25500000000E-02 0. -1.
    5000001    1    1    2    0    0 -0.28438042810E+03  0.85974796453E+02  0.58918160521E+03  0.68920233417E+03  0.19900000000E+03 0.  0.
   -5000001    1    1    2    0    0  0.28438042810E+03 -0.85974796453E+02  0.48789204749E+03  0.60489961441E+03  0.19900000000E+03 0.  0.
<mgrwt>
<rscale>  0 0.71736476E+03</rscale>
<asrwt>0</asrwt>
<pdfrwt beam="1">  1        2 0.16936968E+00 0.71736476E+03</pdfrwt>
<pdfrwt beam="2">  1       -2 0.15502021E-01 0.71736476E+03</pdfrwt>
<totfact> 0.72593582E+02</totfact>
</mgrwt>
</event>
<event>
 4    1  0.5023236E-005  0.6585294E+03  0.7818608E-02  0.9790905E-01
          2   -1    0    0  501    0  0.00000000000E+00  0.00000000000E+00  0.30014206905E+04  0.30014206905E+04  0.25500000000E-02 0.  1.
         -2   -1    0    0    0  501 -0.00000000000E+00 -0.00000000000E+00 -0.36121313832E+02  0.36121313922E+02  0.25500000000E-02 0. -1.
    5000001    1    1    2    0    0  0.60078550882E+02  0.24620266702E+03  0.17951205962E+04  0.18238103357E+04  0.19900000000E+03 0.  0.
   -5000001    1    1    2    0    0 -0.60078550882E+02 -0.24620266702E+03  0.11701787805E+04  0.12137316688E+04  0.19900000000E+03 0.  0.
<mgrwt>
<rscale>  0 0.65852945E+03</rscale>
<asrwt>0</asrwt>
<pdfrwt beam="1">  1        2 0.42877442E+00 0.65852945E+03</pdfrwt>
<pdfrwt beam="2">  1       -2 0.51601873E-02 0.65852945E+03</pdfrwt>
<totfact> 0.48918667E+02</totfact>
</mgrwt>
</event>
<event>
 4    1  0.5023236E-005  0.1231361E+04  0.7818608E-02  0.9085841E-01
         -2   -1    0    0    0  501 -0.00000000000E+00  0.00000000000E+00  0.32445405279E+03  0.32445405280E+03  0.25500000000E-02 0. -1.
          2   -1    0    0  501    0  0.00000000000E+00 -0.00000000000E+00 -0.11683084717E+04  0.11683084717E+04  0.25500000000E-02 0.  1.
    5000001    1    1    2    0    0  0.10555759011E+03  0.52948242407E+03 -0.68743565839E+03  0.89647243496E+03  0.19900000000E+03 0.  0.
   -5000001    1    1    2    0    0 -0.10555759011E+03 -0.52948242407E+03 -0.15641876052E+03  0.59629008953E+03  0.19900000000E+03 0.  0.
<mgrwt>
<rscale>  0 0.12313609E+04</rscale>
<asrwt>0</asrwt>
<pdfrwt beam="1">  1        2 0.16690121E+00 0.12313609E+04</pdfrwt>
<pdfrwt beam="2">  1       -2 0.46350579E-01 0.12313609E+04</pdfrwt>
<totfact> 0.96834728E+01</totfact>
</mgrwt>
</event>
<event>
 4    1  0.5023236E-005  0.5518163E+03  0.7818608E-02  0.1001074E+00
         -2   -1    0    0    0  501 -0.00000000000E+00  0.00000000000E+00  0.47009011035E+03  0.47009011036E+03  0.25500000000E-02 0. -1.
          2   -1    0    0  501    0  0.00000000000E+00 -0.00000000000E+00 -0.16193767145E+03  0.16193767147E+03  0.25500000000E-02 0.  1.
    5000001    1    1    2    0    0 -0.12385484428E+03  0.14038988744E+03  0.11008854102E+03  0.29456719066E+03  0.19900000000E+03 0.  0.
   -5000001    1    1    2    0    0  0.12385484428E+03 -0.14038988744E+03  0.19806389788E+03  0.33746059117E+03  0.19900000000E+03 0.  0.
<mgrwt>
<rscale>  0 0.55181627E+03</rscale>
<asrwt>0</asrwt>
<pdfrwt beam="1">  1        2 0.23133952E-01 0.55181627E+03</pdfrwt>
<pdfrwt beam="2">  1       -2 0.67155732E-01 0.55181627E+03</pdfrwt>
<totfact> 0.49187570E+02</totfact>
</mgrwt>
</event>
<event>
 4    1  0.5023236E-005  0.6047636E+03  0.7818608E-02  0.9895572E-01
          2   -1    0    0  501    0  0.00000000000E+00  0.00000000000E+00  0.46755979876E+03  0.46755979877E+03  0.25500000000E-02 0.  1.
         -2   -1    0    0    0  501 -0.00000000000E+00 -0.00000000000E+00 -0.19555736460E+03  0.19555736462E+03  0.25500000000E-02 0. -1.
    5000001    1    1    2    0    0  0.29516239774E+02  0.17473698592E+03  0.29272463383E+03  0.39584458302E+03  0.19900000000E+03 0.  0.
   -5000001    1    1    2    0    0 -0.29516239774E+02 -0.17473698592E+03 -0.20722199672E+02  0.26727258037E+03  0.19900000000E+03 0.  0.
<mgrwt>
<rscale>  0 0.60476363E+03</rscale>
<asrwt>0</asrwt>
<pdfrwt beam="1">  1        2 0.66794256E-01 0.60476363E+03</pdfrwt>
<pdfrwt beam="2">  1       -2 0.27936767E-01 0.60476363E+03</pdfrwt>
<totfact> 0.85093527E+02</totfact>
</mgrwt>
</event>
<event>
 4    1  0.5023236E-005  0.6267541E+03  0.7818608E-02  0.9851404E-01
          2   -1    0    0  501    0  0.00000000000E+00  0.00000000000E+00  0.90510376305E+03  0.90510376306E+03  0.25500000000E-02 0. -1.
         -2   -1    0    0    0  501 -0.00000000000E+00 -0.00000000000E+00 -0.10850155412E+03  0.10850155415E+03  0.25500000000E-02 0.  1.
    5000001    1    1    2    0    0 -0.40161101804E+01 -0.23753514738E+03  0.47355165008E+03  0.56594278923E+03  0.19900000000E+03 0.  0.
   -5000001    1    1    2    0    0  0.40161101804E+01  0.23753514738E+03  0.32305055885E+03  0.44766252798E+03  0.19900000000E+03 0.  0.
<mgrwt>
<rscale>  0 0.62675407E+03</rscale>
<asrwt>0</asrwt>
<pdfrwt beam="1">  1        2 0.12930054E+00 0.62675407E+03</pdfrwt>
<pdfrwt beam="2">  1       -2 0.15500222E-01 0.62675407E+03</pdfrwt>
<totfact> 0.10732082E+03</totfact>
</mgrwt>
</event>
<event>
 4    1  0.5023236E-005  0.4323337E+03  0.7818608E-02  0.1033125E+00
          2   -1    0    0  501    0  0.00000000000E+00  0.00000000000E+00  0.41512986185E+02  0.41512986263E+02  0.25500000000E-02 0.  1.
         -2   -1    0    0    0  501 -0.00000000000E+00 -0.00000000000E+00 -0.11256262402E+04  0.11256262402E+04  0.25500000000E-02 0. -1.
    5000001    1    1    2    0    0  0.75555575743E+01 -0.83664162178E+02 -0.51941706112E+03  0.56254054242E+03  0.19900000000E+03 0.  0.
   -5000001    1    1    2    0    0 -0.75555575743E+01  0.83664162178E+02 -0.56469619292E+03  0.60459868407E+03  0.19900000000E+03 0.  0.
<mgrwt>
<rscale>  0 0.43233370E+03</rscale>
<asrwt>0</asrwt>
<pdfrwt beam="1">  1        2 0.59304273E-02 0.43233370E+03</pdfrwt>
<pdfrwt beam="2">  1       -2 0.16080373E+00 0.43233370E+03</pdfrwt>
<totfact> 0.33237630E+02</totfact>
</mgrwt>
</event>
<event>
 4    1  0.5023236E-005  0.5620339E+03  0.7818608E-02  0.9987463E-01
         -2   -1    0    0    0  501 -0.00000000000E+00  0.00000000000E+00  0.71641693115E+02  0.71641693160E+02  0.25500000000E-02 0. -1.
          2   -1    0    0  501    0  0.00000000000E+00 -0.00000000000E+00 -0.11022982631E+04  0.11022982631E+04  0.25500000000E-02 0.  1.
    5000001    1    1    2    0    0  0.15033599741E+03  0.10244962311E+03 -0.34989996752E+03  0.44173275254E+03  0.19900000000E+03 0.  0.
   -5000001    1    1    2    0    0 -0.15033599741E+03 -0.10244962311E+03 -0.68075660246E+03  0.73220720373E+03  0.19900000000E+03 0.  0.
<mgrwt>
<rscale>  0 0.56203386E+03</rscale>
<asrwt>0</asrwt>
<pdfrwt beam="1">  1        2 0.15747117E+00 0.56203386E+03</pdfrwt>
<pdfrwt beam="2">  1       -2 0.10234528E-01 0.56203386E+03</pdfrwt>
<totfact> 0.16192724E+03</totfact>
</mgrwt>
</event>
<event>
 4    1  0.5023236E-005  0.7851350E+03  0.7818608E-02  0.9581786E-01
          2   -1    0    0  501    0  0.00000000000E+00  0.00000000000E+00  0.15372980892E+03  0.15372980894E+03  0.25500000000E-02 0.  1.
         -2   -1    0    0    0  501 -0.00000000000E+00 -0.00000000000E+00 -0.10024681988E+04  0.10024681988E+04  0.25500000000E-02 0. -1.
    5000001    1    1    2    0    0  0.37444965831E+02 -0.31335071899E+03 -0.60422941223E+03  0.71013025648E+03  0.19900000000E+03 0.  0.
   -5000001    1    1    2    0    0 -0.37444965831E+02  0.31335071899E+03 -0.24450897765E+03  0.44606775125E+03  0.19900000000E+03 0.  0.
<mgrwt>
<rscale>  0 0.78513501E+03</rscale>
<asrwt>0</asrwt>
<pdfrwt beam="1">  1        2 0.21961402E-01 0.78513501E+03</pdfrwt>
<pdfrwt beam="2">  1       -2 0.14320974E+00 0.78513501E+03</pdfrwt>
<totfact> 0.86986720E+01</totfact>
</mgrwt>
</event>
<event>
 4    1  0.5023236E-005  0.8112210E+03  0.7818608E-02  0.9543916E-01
          2   -1    0    0  501    0  0.00000000000E+00  0.00000000000E+00  0.25005056280E+04  0.25005056280E+04  0.25500000000E-02 0.  1.
         -2   -1    0    0    0  501 -0.00000000000E+00 -0.00000000000E+00 -0.65794636076E+02  0.65794636126E+02  0.25500000000E-02 0. -1.
    5000001    1    1    2    0    0  0.20906693801E+03 -0.28440585823E+03  0.12742265512E+04  0.13371050747E+04  0.19900000000E+03 0.  0.
   -5000001    1    1    2    0    0 -0.20906693801E+03  0.28440585823E+03  0.11604844407E+04  0.12291951895E+04  0.19900000000E+03 0.  0.
<mgrwt>
<rscale>  0 0.81122095E+03</rscale>
<asrwt>0</asrwt>
<pdfrwt beam="1">  1        2 0.35721505E+00 0.81122095E+03</pdfrwt>
<pdfrwt beam="2">  1       -2 0.93992347E-02 0.81122095E+03</pdfrwt>
<totfact> 0.34355989E+02</totfact>
</mgrwt>
</event>
<event>
 4    1  0.5023236E-005  0.4679509E+03  0.7818608E-02  0.1022500E+00
         -2   -1    0    0    0  501 -0.00000000000E+00  0.00000000000E+00  0.61330137926E+02  0.61330137979E+02  0.25500000000E-02 0. -1.
          2   -1    0    0  501    0  0.00000000000E+00 -0.00000000000E+00 -0.89262002017E+03  0.89262002017E+03  0.25500000000E-02 0.  1.
    5000001    1    1    2    0    0 -0.78017142449E+02 -0.84312871905E+02 -0.50562355287E+03  0.55538411222E+03  0.19900000000E+03 0.  0.
   -5000001    1    1    2    0    0  0.78017142449E+02  0.84312871905E+02 -0.32566632937E+03  0.39856604593E+03  0.19900000000E+03 0.  0.
<mgrwt>
<rscale>  0 0.46795089E+03</rscale>
<asrwt>0</asrwt>
<pdfrwt beam="1">  1        2 0.12751714E+00 0.46795089E+03</pdfrwt>
<pdfrwt beam="2">  1       -2 0.87614488E-02 0.46795089E+03</pdfrwt>
<totfact> 0.27899393E+03</totfact>
</mgrwt>
</event>
<event>
 4    1  0.5023236E-005  0.5194186E+03  0.7818608E-02  0.1008831E+00
         -2   -1    0    0    0  501 -0.00000000000E+00  0.00000000000E+00  0.10339884005E+03  0.10339884009E+03  0.25500000000E-02 0. -1.
          2   -1    0    0  501    0  0.00000000000E+00 -0.00000000000E+00 -0.65231796846E+03  0.65231796847E+03  0.25500000000E-02 0.  1.
    5000001    1    1    2    0    0 -0.51395777364E+02  0.51028906729E+02 -0.55724049424E+02  0.21897864037E+03  0.19900000000E+03 0.  0.
   -5000001    1    1    2    0    0  0.51395777364E+02 -0.51028906729E+02 -0.49319507898E+03  0.53673816819E+03  0.19900000000E+03 0.  0.
<mgrwt>
<rscale>  0 0.51941860E+03</rscale>
<asrwt>0</asrwt>
<pdfrwt beam="1">  1        2 0.93188279E-01 0.51941860E+03</pdfrwt>
<pdfrwt beam="2">  1       -2 0.14771263E-01 0.51941860E+03</pdfrwt>
<totfact> 0.17612627E+03</totfact>
</mgrwt>
</event>
<event>
 4    1  0.5023236E-005  0.5361321E+03  0.7818608E-02  0.1004756E+00
         -2   -1    0    0    0  501 -0.00000000000E+00  0.00000000000E+00  0.74591823996E+02  0.74591824040E+02  0.25500000000E-02 0. -1.
          2   -1    0    0  501    0  0.00000000000E+00 -0.00000000000E+00 -0.96336836406E+03  0.96336836406E+03  0.25500000000E-02 0.  1.
    5000001    1    1    2    0    0 -0.15796011348E+03 -0.80827060061E+02 -0.39052691904E+03  0.47286011206E+03  0.19900000000E+03 0.  0.
   -5000001    1    1    2    0    0  0.15796011348E+03  0.80827060061E+02 -0.49824962103E+03  0.56510007604E+03  0.19900000000E+03 0.  0.
<mgrwt>
<rscale>  0 0.53613209E+03</rscale>
<asrwt>0</asrwt>
<pdfrwt beam="1">  1        2 0.13762404E+00 0.53613209E+03</pdfrwt>
<pdfrwt beam="2">  1       -2 0.10655975E-01 0.53613209E+03</pdfrwt>
<totfact> 0.18370571E+03</totfact>
</mgrwt>
</event>
<event>
 4    1  0.5023236E-005  0.5010247E+03  0.7818608E-02  0.1013512E+00
          2   -1    0    0  501    0  0.00000000000E+00  0.00000000000E+00  0.71387067664E+03  0.71387067665E+03  0.25500000000E-02 0. -1.
         -2   -1    0    0    0  501 -0.00000000000E+00 -0.00000000000E+00 -0.87910108230E+02  0.87910108267E+02  0.25500000000E-02 0.  1.
    5000001    1    1    2    0    0 -0.76993014073E+02 -0.10829370279E+03  0.43166034015E+03  0.49354543817E+03  0.19900000000E+03 0.  0.
   -5000001    1    1    2    0    0  0.76993014073E+02  0.10829370279E+03  0.19430022826E+03  0.30823534674E+03  0.19900000000E+03 0.  0.
<mgrwt>
<rscale>  0 0.50102474E+03</rscale>
<asrwt>0</asrwt>
<pdfrwt beam="1">  1        2 0.10198153E+00 0.50102474E+03</pdfrwt>
<pdfrwt beam="2">  1       -2 0.12558587E-01 0.50102474E+03</pdfrwt>
<totfact> 0.20679662E+03</totfact>
</mgrwt>
</event>
<event>
 4    1  0.5023236E-005  0.1452194E+04  0.7818608E-02  0.8916881E-01
          2   -1    0    0  501    0  0.00000000000E+00  0.00000000000E+00  0.17230653670E+04  0.17230653670E+04  0.25500000000E-02 0.  1.
         -2   -1    0    0    0  501 -0.00000000000E+00 -0.00000000000E+00 -0.30597608141E+03  0.30597608142E+03  0.25500000000E-02 0. -1.
    5000001    1    1    2    0    0  0.31438105329E+03  0.17033354327E+03  0.15466080239E+04  0.15998269726E+04  0.19900000000E+03 0.  0.
   -5000001    1    1    2    0    0 -0.31438105329E+03 -0.17033354327E+03 -0.12951873837E+03  0.42921447578E+03  0.19900000000E+03 0.  0.
<mgrwt>
<rscale>  0 0.14521939E+04</rscale>
<asrwt>0</asrwt>
<pdfrwt beam="1">  1        2 0.24615219E+00 0.14521939E+04</pdfrwt>
<pdfrwt beam="2">  1       -2 0.43710870E-01 0.14521939E+04</pdfrwt>
<totfact> 0.53744466E+01</totfact>
</mgrwt>
</event>
<event>
 4    1  0.5023236E-005  0.4959166E+03  0.7818608E-02  0.1014850E+00
         -2   -1    0    0    0  501 -0.00000000000E+00  0.00000000000E+00  0.46862040015E+02  0.46862040084E+02  0.25500000000E-02 0. -1.
          2   -1    0    0  501    0  0.00000000000E+00 -0.00000000000E+00 -0.13120070296E+04  0.13120070296E+04  0.25500000000E-02 0.  1.
    5000001    1    1    2    0    0  0.86993165934E+02 -0.11155203656E+03 -0.51405944866E+03  0.56909558472E+03  0.19900000000E+03 0.  0.
   -5000001    1    1    2    0    0 -0.86993165934E+02  0.11155203656E+03 -0.75108554088E+03  0.78977348493E+03  0.19900000000E+03 0.  0.
<mgrwt>
<rscale>  0 0.49591663E+03</rscale>
<asrwt>0</asrwt>
<pdfrwt beam="1">  1        2 0.18742955E+00 0.49591663E+03</pdfrwt>
<pdfrwt beam="2">  1       -2 0.66945779E-02 0.49591663E+03</pdfrwt>
<totfact> 0.24361908E+03</totfact>
</mgrwt>
</event>
<event>
 4    1  0.5023236E-005  0.6181078E+03  0.7818608E-02  0.9868534E-01
         -2   -1    0    0    0  501 -0.00000000000E+00  0.00000000000E+00  0.10710223390E+03  0.10710223393E+03  0.25500000000E-02 0. -1.
          2   -1    0    0  501    0  0.00000000000E+00 -0.00000000000E+00 -0.89180490677E+03  0.89180490678E+03  0.25500000000E-02 0.  1.
    5000001    1    1    2    0    0 -0.18101864533E+03  0.28827551275E+02 -0.15094164335E+03  0.30981148682E+03  0.19900000000E+03 0.  0.
   -5000001    1    1    2    0    0  0.18101864533E+03 -0.28827551275E+02 -0.63376102952E+03  0.68909565388E+03  0.19900000000E+03 0.  0.
<mgrwt>
<rscale>  0 0.61810775E+03</rscale>
<asrwt>0</asrwt>
<pdfrwt beam="1">  1        2 0.12740070E+00 0.61810775E+03</pdfrwt>
<pdfrwt beam="2">  1       -2 0.15300320E-01 0.61810775E+03</pdfrwt>
<totfact> 0.11191670E+03</totfact>
</mgrwt>
</event>
<event>
 4    1  0.5023236E-005  0.7033543E+03  0.7818608E-02  0.9711513E-01
         -2   -1    0    0    0  501 -0.00000000000E+00  0.00000000000E+00  0.11401646032E+03  0.11401646035E+03  0.25500000000E-02 0. -1.
          2   -1    0    0  501    0  0.00000000000E+00 -0.00000000000E+00 -0.10847276906E+04  0.10847276906E+04  0.25500000000E-02 0.  1.
    5000001    1    1    2    0    0  0.14993012626E+03  0.20543169151E+03 -0.24800374599E+03  0.40717082491E+03  0.19900000000E+03 0.  0.
   -5000001    1    1    2    0    0 -0.14993012626E+03 -0.20543169151E+03 -0.72270748428E+03  0.79157332602E+03  0.19900000000E+03 0.  0.
<mgrwt>
<rscale>  0 0.70335428E+03</rscale>
<asrwt>0</asrwt>
<pdfrwt beam="1">  1        2 0.15496109E+00 0.70335428E+03</pdfrwt>
<pdfrwt beam="2">  1       -2 0.16288066E-01 0.70335428E+03</pdfrwt>
<totfact> 0.76354655E+02</totfact>
</mgrwt>
</event>
<event>
 4    1  0.5023236E-005  0.7571831E+03  0.7818608E-02  0.9624148E-01
          2   -1    0    0  501    0  0.00000000000E+00  0.00000000000E+00  0.73827929102E+03  0.73827929103E+03  0.25500000000E-02 0.  1.
         -2   -1    0    0    0  501 -0.00000000000E+00 -0.00000000000E+00 -0.19414275606E+03  0.19414275608E+03  0.25500000000E-02 0. -1.
    5000001    1    1    2    0    0  0.30673573744E+03  0.87638292610E+02  0.32663201593E+03  0.49805296585E+03  0.19900000000E+03 0.  0.
   -5000001    1    1    2    0    0 -0.30673573744E+03 -0.87638292610E+02  0.21750451903E+03  0.43436908126E+03  0.19900000000E+03 0.  0.
<mgrwt>
<rscale>  0 0.75718314E+03</rscale>
<asrwt>0</asrwt>
<pdfrwt beam="1">  1        2 0.10546847E+00 0.75718314E+03</pdfrwt>
<pdfrwt beam="2">  1       -2 0.27734679E-01 0.75718314E+03</pdfrwt>
<totfact> 0.50104579E+02</totfact>
</mgrwt>
</event>
<event>
 4    1  0.5023236E-005  0.6007447E+03  0.7818608E-02  0.9903862E-01
         -2   -1    0    0    0  501 -0.00000000000E+00  0.00000000000E+00  0.89601598480E+02  0.89601598517E+02  0.25500000000E-02 0. -1.
          2   -1    0    0  501    0  0.00000000000E+00 -0.00000000000E+00 -0.10069412590E+04  0.10069412590E+04  0.25500000000E-02 0.  1.
    5000001    1    1    2    0    0  0.11546980589E+03 -0.18995080847E+03 -0.52210966862E+03  0.60134357216E+03  0.19900000000E+03 0.  0.
   -5000001    1    1    2    0    0 -0.11546980589E+03  0.18995080847E+03 -0.39522999185E+03  0.49519928531E+03  0.19900000000E+03 0.  0.
<mgrwt>
<rscale>  0 0.60074469E+03</rscale>
<asrwt>0</asrwt>
<pdfrwt beam="1">  1        2 0.14384874E+00 0.60074469E+03</pdfrwt>
<pdfrwt beam="2">  1       -2 0.12800229E-01 0.60074469E+03</pdfrwt>
<totfact> 0.12775579E+03</totfact>
</mgrwt>
</event>
<event>
 4    1  0.5023236E-005  0.7952945E+03  0.7818608E-02  0.9566853E-01
          2   -1    0    0  501    0  0.00000000000E+00  0.00000000000E+00  0.87822822401E+02  0.87822822438E+02  0.25500000000E-02 0.  1.
         -2   -1    0    0    0  501 -0.00000000000E+00 -0.00000000000E+00 -0.18004812136E+04  0.18004812136E+04  0.25500000000E-02 0. -1.
    5000001    1    1    2    0    0 -0.21070281507E+02  0.33681808215E+03 -0.10179236872E+04  0.10907153663E+04  0.19900000000E+03 0.  0.
   -5000001    1    1    2    0    0  0.21070281507E+02 -0.33681808215E+03 -0.69473470396E+03  0.79758866975E+03  0.19900000000E+03 0.  0.
<mgrwt>
<rscale>  0 0.79529452E+03</rscale>
<asrwt>0</asrwt>
<pdfrwt beam="1">  1        2 0.12546119E-01 0.79529452E+03</pdfrwt>
<pdfrwt beam="2">  1       -2 0.25721158E+00 0.79529452E+03</pdfrwt>
<totfact> 0.29752788E+01</totfact>
</mgrwt>
</event>
<event>
 4    1  0.5023236E-005  0.1146074E+04  0.7818608E-02  0.9161413E-01
          2   -1    0    0  501    0  0.00000000000E+00  0.00000000000E+00  0.68389403959E+03  0.68389403959E+03  0.25500000000E-02 0.  1.
         -2   -1    0    0    0  501 -0.00000000000E+00 -0.00000000000E+00 -0.48014920743E+03  0.48014920744E+03  0.25500000000E-02 0. -1.
    5000001    1    1    2    0    0  0.35708116276E+03 -0.24117549734E+03  0.42799501018E+03  0.63910351748E+03  0.19900000000E+03 0.  0.
   -5000001    1    1    2    0    0 -0.35708116276E+03  0.24117549734E+03 -0.22425017803E+03  0.52493972955E+03  0.19900000000E+03 0.  0.
<mgrwt>
<rscale>  0 0.11460736E+04</rscale>
<asrwt>0</asrwt>
<pdfrwt beam="1">  1        2 0.97699148E-01 0.11460736E+04</pdfrwt>
<pdfrwt beam="2">  1       -2 0.68592744E-01 0.11460736E+04</pdfrwt>
<totfact> 0.89211600E+01</totfact>
</mgrwt>
</event>
<event>
 4    1  0.5023236E-005  0.5087998E+03  0.7818608E-02  0.1011507E+00
         -2   -1    0    0    0  501 -0.00000000000E+00  0.00000000000E+00  0.68683261704E+03  0.68683261705E+03  0.25500000000E-02 0. -1.
          2   -1    0    0  501    0  0.00000000000E+00 -0.00000000000E+00 -0.94228652386E+02  0.94228652420E+02  0.25500000000E-02 0.  1.
    5000001    1    1    2    0    0 -0.85423001412E+02 -0.96311397252E+02  0.15439532436E+03  0.28286373149E+03  0.19900000000E+03 0.  0.
   -5000001    1    1    2    0    0  0.85423001412E+02  0.96311397252E+02  0.43820864030E+03  0.49819753797E+03  0.19900000000E+03 0.  0.
<mgrwt>
<rscale>  0 0.50879981E+03</rscale>
<asrwt>0</asrwt>
<pdfrwt beam="1">  1        2 0.13461236E-01 0.50879981E+03</pdfrwt>
<pdfrwt beam="2">  1       -2 0.98118946E-01 0.50879981E+03</pdfrwt>
<totfact> 0.39972676E+02</totfact>
</mgrwt>
</event>
<event>
 4    1  0.5023236E-005  0.4612262E+03  0.7818608E-02  0.1024426E+00
         -2   -1    0    0    0  501 -0.00000000000E+00  0.00000000000E+00  0.22712890377E+02  0.22712890520E+02  0.25500000000E-02 0.  1.
          2   -1    0    0  501    0  0.00000000000E+00 -0.00000000000E+00 -0.23415074895E+04  0.23415074895E+04  0.25500000000E-02 0. -1.
    5000001    1    1    2    0    0 -0.55820358666E+02  0.99094116541E+02 -0.12896655895E+04  0.13098755243E+04  0.19900000000E+03 0.  0.
   -5000001    1    1    2    0    0  0.55820358666E+02 -0.99094116541E+02 -0.10291290096E+04  0.10543448557E+04  0.19900000000E+03 0.  0.
<mgrwt>
<rscale>  0 0.46122621E+03</rscale>
<asrwt>0</asrwt>
<pdfrwt beam="1">  1        2 0.33450092E+00 0.46122621E+03</pdfrwt>
<pdfrwt beam="2">  1       -2 0.32447001E-02 0.46122621E+03</pdfrwt>
<totfact> 0.22371564E+03</totfact>
</mgrwt>
</event>
<event>
 4    1  0.5023236E-005  0.5229134E+03  0.7818608E-02  0.1007965E+00
          2   -1    0    0  501    0  0.00000000000E+00  0.00000000000E+00  0.81968369581E+03  0.81968369582E+03  0.25500000000E-02 0.  1.
         -2   -1    0    0    0  501 -0.00000000000E+00 -0.00000000000E+00 -0.83397553196E+02  0.83397553235E+02  0.25500000000E-02 0. -1.
    5000001    1    1    2    0    0 -0.15356236725E+03  0.70608905128E+02  0.34423795613E+03  0.43205067823E+03  0.19900000000E+03 0.  0.
   -5000001    1    1    2    0    0  0.15356236725E+03 -0.70608905128E+02  0.39204818649E+03  0.47103057082E+03  0.19900000000E+03 0.  0.
<mgrwt>
<rscale>  0 0.52291343E+03</rscale>
<asrwt>0</asrwt>
<pdfrwt beam="1">  1        2 0.11709767E+00 0.52291343E+03</pdfrwt>
<pdfrwt beam="2">  1       -2 0.11913936E-01 0.52291343E+03</pdfrwt>
<totfact> 0.18968468E+03</totfact>
</mgrwt>
</event>
<event>
 4    1  0.5023236E-005  0.4145952E+03  0.7818608E-02  0.1038840E+00
          2   -1    0    0  501    0  0.00000000000E+00  0.00000000000E+00  0.16165126079E+03  0.16165126081E+03  0.25500000000E-02 0.  1.
         -2   -1    0    0    0  501 -0.00000000000E+00 -0.00000000000E+00 -0.26583334185E+03  0.26583334186E+03  0.25500000000E-02 0. -1.
    5000001    1    1    2    0    0 -0.42060194077E+02 -0.38705222916E+02 -0.62613236606E+02  0.21630666103E+03  0.19900000000E+03 0.  0.
   -5000001    1    1    2    0    0  0.42060194077E+02  0.38705222916E+02 -0.41568844457E+02  0.21117794164E+03  0.19900000000E+03 0.  0.
<mgrwt>
<rscale>  0 0.41459520E+03</rscale>
<asrwt>0</asrwt>
<pdfrwt beam="1">  1        2 0.23093037E-01 0.41459520E+03</pdfrwt>
<pdfrwt beam="2">  1       -2 0.37976192E-01 0.41459520E+03</pdfrwt>
<totfact> 0.15619830E+03</totfact>
</mgrwt>
</event>
<event>
 4    1  0.5023236E-005  0.5278327E+03  0.7818608E-02  0.1006759E+00
         -2   -1    0    0    0  501 -0.00000000000E+00  0.00000000000E+00  0.40531035754E+03  0.40531035755E+03  0.25500000000E-02 0. -1.
          2   -1    0    0  501    0  0.00000000000E+00 -0.00000000000E+00 -0.17184817136E+03  0.17184817137E+03  0.25500000000E-02 0.  1.
    5000001    1    1    2    0    0 -0.16459535909E+03 -0.53977993567E+02  0.12411392432E+03  0.29156563966E+03  0.19900000000E+03 0.  0.
   -5000001    1    1    2    0    0  0.16459535909E+03  0.53977993567E+02  0.10934826186E+03  0.28559288926E+03  0.19900000000E+03 0.  0.
<mgrwt>
<rscale>  0 0.52783272E+03</rscale>
<asrwt>0</asrwt>
<pdfrwt beam="1">  1        2 0.24549739E-01 0.52783272E+03</pdfrwt>
<pdfrwt beam="2">  1       -2 0.57901480E-01 0.52783272E+03</pdfrwt>
<totfact> 0.62899978E+02</totfact>
</mgrwt>
</event>
<event>
 4    1  0.5023236E-005  0.6914624E+03  0.7818608E-02  0.9731945E-01
          2   -1    0    0  501    0  0.00000000000E+00  0.00000000000E+00  0.14158294474E+04  0.14158294474E+04  0.25500000000E-02 0.  1.
         -2   -1    0    0    0  501 -0.00000000000E+00 -0.00000000000E+00 -0.84424057561E+02  0.84424057599E+02  0.25500000000E-02 0. -1.
    5000001    1    1    2    0    0  0.24204887624E+03 -0.14608004533E+03  0.66261239212E+03  0.74738425213E+03  0.19900000000E+03 0.  0.
   -5000001    1    1    2    0    0 -0.24204887624E+03  0.14608004533E+03  0.66879299776E+03  0.75286925291E+03  0.19900000000E+03 0.  0.
<mgrwt>
<rscale>  0 0.69146241E+03</rscale>
<asrwt>0</asrwt>
<pdfrwt beam="1">  1        2 0.20226132E+00 0.69146241E+03</pdfrwt>
<pdfrwt beam="2">  1       -2 0.12060581E-01 0.69146241E+03</pdfrwt>
<totfact> 0.82724061E+02</totfact>
</mgrwt>
</event>
<event>
 4    1  0.5023236E-005  0.5655141E+03  0.7818608E-02  0.9979655E-01
         -2   -1    0    0    0  501 -0.00000000000E+00  0.00000000000E+00  0.16105277373E+03  0.16105277375E+03  0.25500000000E-02 0. -1.
          2   -1    0    0  501    0  0.00000000000E+00 -0.00000000000E+00 -0.49643081904E+03  0.49643081905E+03  0.25500000000E-02 0.  1.
    5000001    1    1    2    0    0 -0.35157580150E+02  0.16861856751E+03 -0.47525263987E+02  0.26744705545E+03  0.19900000000E+03 0.  0.
   -5000001    1    1    2    0    0  0.35157580150E+02 -0.16861856751E+03 -0.28785278133E+03  0.39003653735E+03  0.19900000000E+03 0.  0.
<mgrwt>
<rscale>  0 0.56551414E+03</rscale>
<asrwt>0</asrwt>
<pdfrwt beam="1">  1        2 0.70918688E-01 0.56551414E+03</pdfrwt>
<pdfrwt beam="2">  1       -2 0.23007539E-01 0.56551414E+03</pdfrwt>
<totfact> 0.11278694E+03</totfact>
</mgrwt>
</event>
<event>
 4    1  0.5023236E-005  0.7593982E+03  0.7818608E-02  0.9620720E-01
          2   -1    0    0  501    0  0.00000000000E+00  0.00000000000E+00  0.29829997313E+04  0.29829997313E+04  0.25500000000E-02 0.  1.
         -2   -1    0    0    0  501 -0.00000000000E+00 -0.00000000000E+00 -0.48331013584E+02  0.48331013652E+02  0.25500000000E-02 0. -1.
    5000001    1    1    2    0    0  0.75147377216E+02  0.26232696894E+03  0.77470080899E+03  0.84511828189E+03  0.19900000000E+03 0.  0.
   -5000001    1    1    2    0    0 -0.75147377216E+02 -0.26232696894E+03  0.21599679088E+04  0.21862124631E+04  0.19900000000E+03 0.  0.
<mgrwt>
<rscale>  0 0.75939818E+03</rscale>
<asrwt>0</asrwt>
<pdfrwt beam="1">  1        2 0.42614289E+00 0.75939818E+03</pdfrwt>
<pdfrwt beam="2">  1       -2 0.69044294E-02 0.75939818E+03</pdfrwt>
<totfact> 0.31380279E+02</totfact>
</mgrwt>
</event>
<event>
 4    1  0.5023236E-005  0.7510653E+03  0.7818608E-02  0.9633681E-01
          2   -1    0    0  501    0  0.00000000000E+00  0.00000000000E+00  0.22502855038E+03  0.22502855040E+03  0.25500000000E-02 0.  1.
         -2   -1    0    0    0  501 -0.00000000000E+00 -0.00000000000E+00 -0.62669726592E+03  0.62669726593E+03  0.25500000000E-02 0. -1.
    5000001    1    1    2    0    0 -0.11322110523E+03 -0.18504656120E+03  0.63572021844E+02  0.30117046742E+03  0.19900000000E+03 0.  0.
   -5000001    1    1    2    0    0  0.11322110523E+03  0.18504656120E+03 -0.46524073738E+03  0.55055534890E+03  0.19900000000E+03 0.  0.
<mgrwt>
<rscale>  0 0.75106532E+03</rscale>
<asrwt>0</asrwt>
<pdfrwt beam="1">  1        2 0.32146936E-01 0.75106532E+03</pdfrwt>
<pdfrwt beam="2">  1       -2 0.89528181E-01 0.75106532E+03</pdfrwt>
<totfact> 0.17758296E+02</totfact>
</mgrwt>
</event>
<event>
 4    1  0.5023236E-005  0.7298393E+03  0.7818608E-02  0.9667521E-01
          2   -1    0    0  501    0  0.00000000000E+00  0.00000000000E+00  0.31523385353E+04  0.31523385353E+04  0.25500000000E-02 0.  1.
         -2   -1    0    0    0  501 -0.00000000000E+00 -0.00000000000E+00 -0.42243671609E+02  0.42243671686E+02  0.25500000000E-02 0. -1.
    5000001    1    1    2    0    0 -0.27940647129E+03  0.45033790375E+02  0.10470518864E+04  0.11027305525E+04  0.19900000000E+03 0.  0.
   -5000001    1    1    2    0    0  0.27940647129E+03 -0.45033790375E+02  0.20630429773E+04  0.20918516545E+04  0.19900000000E+03 0.  0.
<mgrwt>
<rscale>  0 0.72983931E+03</rscale>
<asrwt>0</asrwt>
<pdfrwt beam="1">  1        2 0.45033433E+00 0.72983931E+03</pdfrwt>
<pdfrwt beam="2">  1       -2 0.60348069E-02 0.72983931E+03</pdfrwt>
<totfact> 0.31373866E+02</totfact>
</mgrwt>
</event>
<event>
 4    1  0.5023236E-005  0.4507344E+03  0.7818608E-02  0.1027503E+00
          2   -1    0    0  501    0  0.00000000000E+00  0.00000000000E+00  0.23916839937E+04  0.23916839937E+04  0.25500000000E-02 0.  1.
         -2   -1    0    0    0  501 -0.00000000000E+00 -0.00000000000E+00 -0.21236238489E+02  0.21236238642E+02  0.25500000000E-02 0. -1.
    5000001    1    1    2    0    0 -0.83025920910E+02  0.12989007110E+02  0.15291444332E+04  0.15443269458E+04  0.19900000000E+03 0.  0.
   -5000001    1    1    2    0    0  0.83025920910E+02 -0.12989007110E+02  0.84130332194E+03  0.86859328650E+03  0.19900000000E+03 0.  0.
<mgrwt>
<rscale>  0 0.45073439E+03</rscale>
<asrwt>0</asrwt>
<pdfrwt beam="1">  1        2 0.34166888E+00 0.45073439E+03</pdfrwt>
<pdfrwt beam="2">  1       -2 0.30337507E-02 0.45073439E+03</pdfrwt>
<totfact> 0.23379766E+03</totfact>
</mgrwt>
</event>
<event>
 4    1  0.5023236E-005  0.7094790E+03  0.7818608E-02  0.9701158E-01
          2   -1    0    0  501    0  0.00000000000E+00  0.00000000000E+00  0.37666705093E+03  0.37666705093E+03  0.25500000000E-02 0.  1.
         -2   -1    0    0    0  501 -0.00000000000E+00 -0.00000000000E+00 -0.33408849033E+03  0.33408849034E+03  0.25500000000E-02 0. -1.
    5000001    1    1    2    0    0  0.15157538920E+03  0.19788434676E+03 -0.13425053475E+03  0.34605999391E+03  0.19900000000E+03 0.  0.
   -5000001    1    1    2    0    0 -0.15157538920E+03 -0.19788434676E+03  0.17682909535E+03  0.36469554736E+03  0.19900000000E+03 0.  0.
<mgrwt>
<rscale>  0 0.70947904E+03</rscale>
<asrwt>0</asrwt>
<pdfrwt beam="1">  1        2 0.53809579E-01 0.70947904E+03</pdfrwt>
<pdfrwt beam="2">  1       -2 0.47726927E-01 0.70947904E+03</pdfrwt>
<totfact> 0.38782199E+02</totfact>
</mgrwt>
</event>
<event>
 4    1  0.5023236E-005  0.5758102E+03  0.7818608E-02  0.9956903E-01
         -2   -1    0    0    0  501 -0.00000000000E+00  0.00000000000E+00  0.12254636525E+03  0.12254636528E+03  0.25500000000E-02 0.  1.
          2   -1    0    0  501    0  0.00000000000E+00 -0.00000000000E+00 -0.67639162728E+03  0.67639162728E+03  0.25500000000E-02 0. -1.
    5000001    1    1    2    0    0 -0.13510662557E+03 -0.15803535215E+03 -0.26623232151E+03  0.39205818678E+03  0.19900000000E+03 0.  0.
   -5000001    1    1    2    0    0  0.13510662557E+03  0.15803535215E+03 -0.28761294051E+03  0.40687980578E+03  0.19900000000E+03 0.  0.
<mgrwt>
<rscale>  0 0.57581016E+03</rscale>
<asrwt>0</asrwt>
<pdfrwt beam="1">  1        2 0.96627373E-01 0.57581016E+03</pdfrwt>
<pdfrwt beam="2">  1       -2 0.17506624E-01 0.57581016E+03</pdfrwt>
<totfact> 0.12643946E+03</totfact>
</mgrwt>
</event>
<event>
 4    1  0.5023236E-005  0.5538873E+03  0.7818608E-02  0.1000598E+00
          2   -1    0    0  501    0  0.00000000000E+00  0.00000000000E+00  0.37197597205E+03  0.37197597205E+03  0.25500000000E-02 0.  1.
         -2   -1    0    0    0  501 -0.00000000000E+00 -0.00000000000E+00 -0.20619014823E+03  0.20619014825E+03  0.25500000000E-02 0. -1.
    5000001    1    1    2    0    0  0.13836756960E+03  0.13359223106E+03  0.93553938302E+02  0.29214004841E+03  0.19900000000E+03 0.  0.
   -5000001    1    1    2    0    0 -0.13836756960E+03 -0.13359223106E+03  0.72231885510E+02  0.28602607189E+03  0.19900000000E+03 0.  0.
<mgrwt>
<rscale>  0 0.55388728E+03</rscale>
<asrwt>0</asrwt>
<pdfrwt beam="1">  1        2 0.53139424E-01 0.55388728E+03</pdfrwt>
<pdfrwt beam="2">  1       -2 0.29455736E-01 0.55388728E+03</pdfrwt>
<totfact> 0.99692329E+02</totfact>
</mgrwt>
</event>
<event>
 4    1  0.5023236E-005  0.4402875E+03  0.7818608E-02  0.1030659E+00
          2   -1    0    0  501    0  0.00000000000E+00  0.00000000000E+00  0.25303799894E+04  0.25303799894E+04  0.25500000000E-02 0.  1.
         -2   -1    0    0    0  501 -0.00000000000E+00 -0.00000000000E+00 -0.19152568706E+02  0.19152568876E+02  0.25500000000E-02 0. -1.
    5000001    1    1    2    0    0 -0.56059443362E+02  0.69146818045E+02  0.10782345003E+04  0.11000520812E+04  0.19900000000E+03 0.  0.
   -5000001    1    1    2    0    0  0.56059443362E+02 -0.69146818045E+02  0.14329929204E+04  0.14494804771E+04  0.19900000000E+03 0.  0.
<mgrwt>
<rscale>  0 0.44028753E+03</rscale>
<asrwt>0</asrwt>
<pdfrwt beam="1">  1        2 0.36148284E+00 0.44028753E+03</pdfrwt>
<pdfrwt beam="2">  1       -2 0.27360814E-02 0.44028753E+03</pdfrwt>
<totfact> 0.23251678E+03</totfact>
</mgrwt>
</event>
<event>
 4    1  0.5023236E-005  0.4974290E+03  0.7818608E-02  0.1014452E+00
          2   -1    0    0  501    0  0.00000000000E+00  0.00000000000E+00  0.45039893481E+03  0.45039893481E+03  0.25500000000E-02 0.  1.
         -2   -1    0    0    0  501 -0.00000000000E+00 -0.00000000000E+00 -0.13734249505E+03  0.13734249507E+03  0.25500000000E-02 0. -1.
    5000001    1    1    2    0    0 -0.13118551343E+03  0.32822016375E+02  0.82071388374E+02  0.25421179454E+03  0.19900000000E+03 0.  0.
   -5000001    1    1    2    0    0  0.13118551343E+03 -0.32822016375E+02  0.23098505139E+03  0.33352963535E+03  0.19900000000E+03 0.  0.
<mgrwt>
<rscale>  0 0.49742904E+03</rscale>
<asrwt>0</asrwt>
<pdfrwt beam="1">  1        2 0.64342706E-01 0.49742904E+03</pdfrwt>
<pdfrwt beam="2">  1       -2 0.19620356E-01 0.49742904E+03</pdfrwt>
<totfact> 0.16630828E+03</totfact>
</mgrwt>
</event>
<event>
 4    1  0.5023236E-005  0.1177102E+04  0.7818608E-02  0.9133138E-01
         -2   -1    0    0    0  501 -0.00000000000E+00  0.00000000000E+00  0.41938119480E+03  0.41938119481E+03  0.25500000000E-02 0. -1.
          2   -1    0    0  501    0  0.00000000000E+00 -0.00000000000E+00 -0.82596092771E+03  0.82596092772E+03  0.25500000000E-02 0.  1.
    5000001    1    1    2    0    0  0.12793111416E+03  0.36786860214E+03 -0.61994551731E+03  0.75870094428E+03  0.19900000000E+03 0.  0.
   -5000001    1    1    2    0    0 -0.12793111416E+03 -0.36786860214E+03  0.21336578440E+03  0.48664117825E+03  0.19900000000E+03 0.  0.
<mgrwt>
<rscale>  0 0.11771023E+04</rscale>
<asrwt>0</asrwt>
<pdfrwt beam="1">  1        2 0.11799442E+00 0.11771023E+04</pdfrwt>
<pdfrwt beam="2">  1       -2 0.59911600E-01 0.11771023E+04</pdfrwt>
<totfact> 0.93677675E+01</totfact>
</mgrwt>
</event>
<event>
 4    1  0.5023236E-005  0.9542737E+03  0.7818608E-02  0.9360169E-01
          2   -1    0    0  501    0  0.00000000000E+00  0.00000000000E+00  0.18281922914E+04  0.18281922914E+04  0.25500000000E-02 0.  1.
         -2   -1    0    0    0  501 -0.00000000000E+00 -0.00000000000E+00 -0.12452713869E+03  0.12452713872E+03  0.25500000000E-02 0. -1.
    5000001    1    1    2    0    0  0.16471974866E+03  0.37494072074E+03  0.55995536307E+03  0.72170918541E+03  0.19900000000E+03 0.  0.
   -5000001    1    1    2    0    0 -0.16471974866E+03 -0.37494072074E+03  0.11437097897E+04  0.12310102447E+04  0.19900000000E+03 0.  0.
<mgrwt>
<rscale>  0 0.95427366E+03</rscale>
<asrwt>0</asrwt>
<pdfrwt beam="1">  1        2 0.26117033E+00 0.95427366E+03</pdfrwt>
<pdfrwt beam="2">  1       -2 0.17789591E-01 0.95427366E+03</pdfrwt>
<totfact> 0.25829779E+02</totfact>
</mgrwt>
</event>
<event>
 4    1  0.5023236E-005  0.5883777E+03  0.7818608E-02  0.9929816E-01
         -2   -1    0    0    0  501 -0.00000000000E+00  0.00000000000E+00  0.59507146662E+02  0.59507146716E+02  0.25500000000E-02 0. -1.
          2   -1    0    0  501    0  0.00000000000E+00 -0.00000000000E+00 -0.14543982198E+04  0.14543982198E+04  0.25500000000E-02 0.  1.
    5000001    1    1    2    0    0 -0.60746025090E+02 -0.20722462382E+03 -0.74303687907E+03  0.79895990383E+03  0.19900000000E+03 0.  0.
   -5000001    1    1    2    0    0  0.60746025090E+02  0.20722462382E+03 -0.65185419406E+03  0.71494546267E+03  0.19900000000E+03 0.  0.
<mgrwt>
<rscale>  0 0.58837773E+03</rscale>
<asrwt>0</asrwt>
<pdfrwt beam="1">  1        2 0.20777115E+00 0.58837773E+03</pdfrwt>
<pdfrwt beam="2">  1       -2 0.85010219E-02 0.58837773E+03</pdfrwt>
<totfact> 0.13988901E+03</totfact>
</mgrwt>
</event>
<event>
 4    1  0.5023236E-005  0.5499330E+03  0.7818608E-02  0.1001509E+00
          2   -1    0    0  501    0  0.00000000000E+00  0.00000000000E+00  0.10191074261E+04  0.10191074261E+04  0.25500000000E-02 0.  1.
         -2   -1    0    0    0  501 -0.00000000000E+00 -0.00000000000E+00 -0.74189002558E+02  0.74189002602E+02  0.25500000000E-02 0. -1.
    5000001    1    1    2    0    0 -0.12222268748E+03  0.12855088488E+03  0.60644060475E+03  0.66244616568E+03  0.19900000000E+03 0.  0.
   -5000001    1    1    2    0    0  0.12222268748E+03 -0.12855088488E+03  0.33847781882E+03  0.43085026305E+03  0.19900000000E+03 0.  0.
<mgrwt>
<rscale>  0 0.54993295E+03</rscale>
<asrwt>0</asrwt>
<pdfrwt beam="1">  1        2 0.14558677E+00 0.54993295E+03</pdfrwt>
<pdfrwt beam="2">  1       -2 0.10598429E-01 0.54993295E+03</pdfrwt>
<totfact> 0.17134626E+03</totfact>
</mgrwt>
</event>
<event>
 4    1  0.5023236E-005  0.6116537E+03  0.7818608E-02  0.9881519E-01
         -2   -1    0    0    0  501 -0.00000000000E+00  0.00000000000E+00  0.13381624245E+03  0.13381624247E+03  0.25500000000E-02 0. -1.
          2   -1    0    0  501    0  0.00000000000E+00 -0.00000000000E+00 -0.69894390648E+03  0.69894390648E+03  0.25500000000E-02 0.  1.
    5000001    1    1    2    0    0 -0.16422812987E+03 -0.16279004621E+03 -0.31168728614E+03  0.43614383193E+03  0.19900000000E+03 0.  0.
   -5000001    1    1    2    0    0  0.16422812987E+03  0.16279004621E+03 -0.25344037788E+03  0.39661631702E+03  0.19900000000E+03 0.  0.
<mgrwt>
<rscale>  0 0.61165365E+03</rscale>
<asrwt>0</asrwt>
<pdfrwt beam="1">  1        2 0.99849127E-01 0.61165365E+03</pdfrwt>
<pdfrwt beam="2">  1       -2 0.19116607E-01 0.61165365E+03</pdfrwt>
<totfact> 0.10436863E+03</totfact>
</mgrwt>
</event>
<event>
 4    1  0.5023236E-005  0.6448856E+03  0.7818608E-02  0.9816424E-01
         -2   -1    0    0    0  501 -0.00000000000E+00  0.00000000000E+00  0.19714532000E+04  0.19714532000E+04  0.25500000000E-02 0. -1.
          2   -1    0    0  501    0  0.00000000000E+00 -0.00000000000E+00 -0.52737417108E+02  0.52737417170E+02  0.25500000000E-02 0.  1.
    5000001    1    1    2    0    0 -0.26730003403E+02 -0.24995508059E+03  0.85170382174E+03  0.91005078724E+03  0.19900000000E+03 0.  0.
   -5000001    1    1    2    0    0  0.26730003403E+02  0.24995508059E+03  0.10670119612E+04  0.11141398300E+04  0.19900000000E+03 0.  0.
<mgrwt>
<rscale>  0 0.64488557E+03</rscale>
<asrwt>0</asrwt>
<pdfrwt beam="1">  1        2 0.75339166E-02 0.64488557E+03</pdfrwt>
<pdfrwt beam="2">  1       -2 0.28163618E+00 0.64488557E+03</pdfrwt>
<totfact> 0.41256434E+01</totfact>
</mgrwt>
</event>
<event>
 4    1  0.5023236E-005  0.5874118E+03  0.7818608E-02  0.9931872E-01
         -2   -1    0    0    0  501 -0.00000000000E+00  0.00000000000E+00  0.36985167651E+03  0.36985167652E+03  0.25500000000E-02 0. -1.
          2   -1    0    0  501    0  0.00000000000E+00 -0.00000000000E+00 -0.23323716614E+03  0.23323716615E+03  0.25500000000E-02 0.  1.
    5000001    1    1    2    0    0 -0.60468066876E+02  0.20474184039E+03  0.34464695409E+02  0.29387824613E+03  0.19900000000E+03 0.  0.
   -5000001    1    1    2    0    0  0.60468066876E+02 -0.20474184039E+03  0.10214981496E+03  0.30921059654E+03  0.19900000000E+03 0.  0.
<mgrwt>
<rscale>  0 0.58741180E+03</rscale>
<asrwt>0</asrwt>
<pdfrwt beam="1">  1        2 0.33319595E-01 0.58741180E+03</pdfrwt>
<pdfrwt beam="2">  1       -2 0.52835954E-01 0.58741180E+03</pdfrwt>
<totfact> 0.53822845E+02</totfact>
</mgrwt>
</event>
<event>
 4    1  0.5023236E-005  0.4825438E+03  0.7818608E-02  0.1018438E+00
          2   -1    0    0  501    0  0.00000000000E+00  0.00000000000E+00  0.75720366673E+03  0.75720366673E+03  0.25500000000E-02 0.  1.
         -2   -1    0    0    0  501 -0.00000000000E+00 -0.00000000000E+00 -0.76877785384E+02  0.76877785427E+02  0.25500000000E-02 0. -1.
    5000001    1    1    2    0    0 -0.81066636474E+02  0.70855132540E+02  0.48497540720E+03  0.53515828961E+03  0.19900000000E+03 0.  0.
   -5000001    1    1    2    0    0  0.81066636474E+02 -0.70855132540E+02  0.19535047415E+03  0.29892316254E+03  0.19900000000E+03 0.  0.
<mgrwt>
<rscale>  0 0.48254385E+03</rscale>
<asrwt>0</asrwt>
<pdfrwt beam="1">  1        2 0.10817196E+00 0.48254385E+03</pdfrwt>
<pdfrwt beam="2">  1       -2 0.10982540E-01 0.48254385E+03</pdfrwt>
<totfact> 0.23942956E+03</totfact>
</mgrwt>
</event>
<event>
 4    1  0.5023236E-005  0.5024677E+03  0.7818608E-02  0.1013137E+00
          2   -1    0    0  501    0  0.00000000000E+00  0.00000000000E+00  0.27852616883E+03  0.27852616885E+03  0.25500000000E-02 0.  1.
         -2   -1    0    0    0  501 -0.00000000000E+00 -0.00000000000E+00 -0.22661589230E+03  0.22661589232E+03  0.25500000000E-02 0. -1.
    5000001    1    1    2    0    0  0.13182357527E+03  0.75894014293E+02  0.63552218138E+01  0.25055687029E+03  0.19900000000E+03 0.  0.
   -5000001    1    1    2    0    0 -0.13182357527E+03 -0.75894014293E+02  0.45555054717E+02  0.25458519088E+03  0.19900000000E+03 0.  0.
<mgrwt>
<rscale>  0 0.50246774E+03</rscale>
<asrwt>0</asrwt>
<pdfrwt beam="1">  1        2 0.39789452E-01 0.50246774E+03</pdfrwt>
<pdfrwt beam="2">  1       -2 0.32373699E-01 0.50246774E+03</pdfrwt>
<totfact> 0.11508536E+03</totfact>
</mgrwt>
</event>
<event>
 4    1  0.5023236E-005  0.6164003E+03  0.7818608E-02  0.9871953E-01
          2   -1    0    0  501    0  0.00000000000E+00  0.00000000000E+00  0.65613215099E+03  0.65613215100E+03  0.25500000000E-02 0.  1.
         -2   -1    0    0    0  501 -0.00000000000E+00 -0.00000000000E+00 -0.14476860347E+03  0.14476860349E+03  0.25500000000E-02 0. -1.
    5000001    1    1    2    0    0  0.15886930991E+03  0.17101503471E+03  0.21668627418E+03  0.37555231479E+03  0.19900000000E+03 0.  0.
   -5000001    1    1    2    0    0 -0.15886930991E+03 -0.17101503471E+03  0.29467727334E+03  0.42534843970E+03  0.19900000000E+03 0.  0.
<mgrwt>
<rscale>  0 0.61640031E+03</rscale>
<asrwt>0</asrwt>
<pdfrwt beam="1">  1        2 0.93733167E-01 0.61640031E+03</pdfrwt>
<pdfrwt beam="2">  1       -2 0.20681229E-01 0.61640031E+03</pdfrwt>
<totfact> 0.98254913E+02</totfact>
</mgrwt>
</event>
<event>
 4    1  0.5023236E-005  0.6639935E+03  0.7818608E-02  0.9780870E-01
          2   -1    0    0  501    0  0.00000000000E+00  0.00000000000E+00  0.63169444929E+03  0.63169444930E+03  0.25500000000E-02 0.  1.
         -2   -1    0    0    0  501 -0.00000000000E+00 -0.00000000000E+00 -0.17448601052E+03  0.17448601054E+03  0.25500000000E-02 0. -1.
    5000001    1    1    2    0    0  0.14021232905E+03  0.55795211975E+02 -0.36979485735E+02  0.25246996903E+03  0.19900000000E+03 0.  0.
   -5000001    1    1    2    0    0 -0.14021232905E+03 -0.55795211975E+02  0.49418792451E+03  0.55371049081E+03  0.19900000000E+03 0.  0.
<mgrwt>
<rscale>  0 0.66399351E+03</rscale>
<asrwt>0</asrwt>
<pdfrwt beam="1">  1        2 0.90242065E-01 0.66399351E+03</pdfrwt>
<pdfrwt beam="2">  1       -2 0.24926573E-01 0.66399351E+03</pdfrwt>
<totfact> 0.73772285E+02</totfact>
</mgrwt>
</event>
<event>
 4    1  0.5023236E-005  0.4395740E+03  0.7818608E-02  0.1030878E+00
          2   -1    0    0  501    0  0.00000000000E+00  0.00000000000E+00  0.12670500561E+04  0.12670500561E+04  0.25500000000E-02 0.  1.
         -2   -1    0    0    0  501 -0.00000000000E+00 -0.00000000000E+00 -0.38125037259E+02  0.38125037344E+02  0.25500000000E-02 0. -1.
    5000001    1    1    2    0    0  0.67686779536E+02  0.63932240855E+02  0.59652434939E+03  0.63569735799E+03  0.19900000000E+03 0.  0.
   -5000001    1    1    2    0    0 -0.67686779536E+02 -0.63932240855E+02  0.63240066943E+03  0.66947773543E+03  0.19900000000E+03 0.  0.
<mgrwt>
<rscale>  0 0.43957402E+03</rscale>
<asrwt>0</asrwt>
<pdfrwt beam="1">  1        2 0.18100720E+00 0.43957402E+03</pdfrwt>
<pdfrwt beam="2">  1       -2 0.54464325E-02 0.43957402E+03</pdfrwt>
<totfact> 0.35533441E+03</totfact>
</mgrwt>
</event>
<event>
 4    1  0.5023236E-005  0.4858070E+03  0.7818608E-02  0.1017551E+00
         -2   -1    0    0    0  501 -0.00000000000E+00  0.00000000000E+00  0.20502470858E+03  0.20502470859E+03  0.25500000000E-02 0.  1.
          2   -1    0    0  501    0  0.00000000000E+00 -0.00000000000E+00 -0.28778048114E+03  0.28778048115E+03  0.25500000000E-02 0. -1.
    5000001    1    1    2    0    0  0.70002421859E+02  0.11853736965E+03 -0.62888594374E+02  0.25001484430E+03  0.19900000000E+03 0.  0.
   -5000001    1    1    2    0    0 -0.70002421859E+02 -0.11853736965E+03 -0.19867178190E+02  0.24279034544E+03  0.19900000000E+03 0.  0.
<mgrwt>
<rscale>  0 0.48580700E+03</rscale>
<asrwt>0</asrwt>
<pdfrwt beam="1">  1        2 0.41111497E-01 0.48580700E+03</pdfrwt>
<pdfrwt beam="2">  1       -2 0.29289244E-01 0.48580700E+03</pdfrwt>
<totfact> 0.13357774E+03</totfact>
</mgrwt>
</event>
<event>
 4    1  0.5023236E-005  0.5628365E+03  0.7818608E-02  0.9985657E-01
          2   -1    0    0  501    0  0.00000000000E+00  0.00000000000E+00  0.91546266512E+03  0.91546266512E+03  0.25500000000E-02 0.  1.
         -2   -1    0    0    0  501 -0.00000000000E+00 -0.00000000000E+00 -0.86509515986E+02  0.86509516024E+02  0.25500000000E-02 0. -1.
    5000001    1    1    2    0    0 -0.39726690420E+02 -0.78591830281E+02  0.73213640528E+03  0.76379290495E+03  0.19900000000E+03 0.  0.
   -5000001    1    1    2    0    0  0.39726690420E+02  0.78591830281E+02  0.96816743855E+02  0.23817927620E+03  0.19900000000E+03 0.  0.
<mgrwt>
<rscale>  0 0.56283650E+03</rscale>
<asrwt>0</asrwt>
<pdfrwt beam="1">  1        2 0.13078039E+00 0.56283650E+03</pdfrwt>
<pdfrwt beam="2">  1       -2 0.12358502E-01 0.56283650E+03</pdfrwt>
<totfact> 0.15443366E+03</totfact>
</mgrwt>
</event>
<event>
 4    1  0.5023236E-005  0.6409799E+03  0.7818608E-02  0.9823854E-01
         -2   -1    0    0    0  501 -0.00000000000E+00  0.00000000000E+00  0.82564617529E+02  0.82564617568E+02  0.25500000000E-02 0. -1.
          2   -1    0    0  501    0  0.00000000000E+00 -0.00000000000E+00 -0.12440413439E+04  0.12440413439E+04  0.25500000000E-02 0.  1.
    5000001    1    1    2    0    0  0.52115794938E+02  0.22930839467E+03 -0.76369384444E+03  0.82348508425E+03  0.19900000000E+03 0.  0.
   -5000001    1    1    2    0    0 -0.52115794938E+02 -0.22930839467E+03 -0.39778288197E+03  0.50312087726E+03  0.19900000000E+03 0.  0.
<mgrwt>
<rscale>  0 0.64097987E+03</rscale>
<asrwt>0</asrwt>
<pdfrwt beam="1">  1        2 0.17772018E+00 0.64097987E+03</pdfrwt>
<pdfrwt beam="2">  1       -2 0.11794946E-01 0.64097987E+03</pdfrwt>
<totfact> 0.10654457E+03</totfact>
</mgrwt>
</event>
<event>
 4    1  0.5023236E-005  0.5197503E+03  0.7818608E-02  0.1008749E+00
         -2   -1    0    0    0  501 -0.00000000000E+00  0.00000000000E+00  0.20430336413E+02  0.20430336572E+02  0.25500000000E-02 0. -1.
          2   -1    0    0  501    0  0.00000000000E+00 -0.00000000000E+00 -0.33056280210E+04  0.33056280210E+04  0.25500000000E-02 0.  1.
    5000001    1    1    2    0    0  0.16676624940E+03 -0.69777688010E+01 -0.16978046297E+04  0.17175567623E+04  0.19900000000E+03 0.  0.
   -5000001    1    1    2    0    0 -0.16676624940E+03  0.69777688010E+01 -0.15873930549E+04  0.16085015952E+04  0.19900000000E+03 0.  0.
<mgrwt>
<rscale>  0 0.51975030E+03</rscale>
<asrwt>0</asrwt>
<pdfrwt beam="1">  1        2 0.47223223E+00 0.51975030E+03</pdfrwt>
<pdfrwt beam="2">  1       -2 0.29186216E-02 0.51975030E+03</pdfrwt>
<totfact> 0.80509611E+02</totfact>
</mgrwt>
</event>
<event>
 4    1  0.5023236E-005  0.1365635E+04  0.7818608E-02  0.8979076E-01
         -2   -1    0    0    0  501 -0.00000000000E+00  0.00000000000E+00  0.51362380044E+03  0.51362380044E+03  0.25500000000E-02 0. -1.
          2   -1    0    0  501    0  0.00000000000E+00 -0.00000000000E+00 -0.90774587570E+03  0.90774587570E+03  0.25500000000E-02 0.  1.
    5000001    1    1    2    0    0 -0.21424496425E+03 -0.52926407151E+03  0.13308732817E+03  0.61914020950E+03  0.19900000000E+03 0.  0.
   -5000001    1    1    2    0    0  0.21424496425E+03  0.52926407151E+03 -0.52720940343E+03  0.80222946665E+03  0.19900000000E+03 0.  0.
<mgrwt>
<rscale>  0 0.13656352E+04</rscale>
<asrwt>0</asrwt>
<pdfrwt beam="1">  1        2 0.12967798E+00 0.13656352E+04</pdfrwt>
<pdfrwt beam="2">  1       -2 0.73374828E-01 0.13656352E+04</pdfrwt>
<totfact> 0.52648327E+01</totfact>
</mgrwt>
</event>
<event>
 4    1  0.5023236E-005  0.1328506E+04  0.7818608E-02  0.9007260E-01
          2   -1    0    0  501    0  0.00000000000E+00  0.00000000000E+00  0.40529995571E+03  0.40529995572E+03  0.25500000000E-02 0.  1.
         -2   -1    0    0    0  501 -0.00000000000E+00 -0.00000000000E+00 -0.10886553888E+04  0.10886553888E+04  0.25500000000E-02 0. -1.
    5000001    1    1    2    0    0  0.45830030668E+03 -0.38602735471E+03 -0.10964464860E+03  0.64084260053E+03  0.19900000000E+03 0.  0.
   -5000001    1    1    2    0    0 -0.45830030668E+03  0.38602735471E+03 -0.57371078446E+03  0.85311274395E+03  0.19900000000E+03 0.  0.
<mgrwt>
<rscale>  0 0.13285059E+04</rscale>
<asrwt>0</asrwt>
<pdfrwt beam="1">  1        2 0.57899994E-01 0.13285059E+04</pdfrwt>
<pdfrwt beam="2">  1       -2 0.15552220E+00 0.13285059E+04</pdfrwt>
<totfact> 0.22687529E+01</totfact>
</mgrwt>
</event>
<event>
 4    1  0.5023236E-005  0.5240727E+03  0.7818608E-02  0.1007680E+00
          2   -1    0    0  501    0  0.00000000000E+00  0.00000000000E+00  0.19516856965E+04  0.19516856965E+04  0.25500000000E-02 0.  1.
         -2   -1    0    0    0  501 -0.00000000000E+00 -0.00000000000E+00 -0.35181412095E+02  0.35181412187E+02  0.25500000000E-02 0. -1.
    5000001    1    1    2    0    0 -0.11602759478E+03 -0.12423326732E+03  0.90944247379E+03  0.94635242938E+03  0.19900000000E+03 0.  0.
   -5000001    1    1    2    0    0  0.11602759478E+03  0.12423326732E+03  0.10070618106E+04  0.10405146793E+04  0.19900000000E+03 0.  0.
<mgrwt>
<rscale>  0 0.52407274E+03</rscale>
<asrwt>0</asrwt>
<pdfrwt beam="1">  1        2 0.27881230E+00 0.52407274E+03</pdfrwt>
<pdfrwt beam="2">  1       -2 0.50259150E-02 0.52407274E+03</pdfrwt>
<totfact> 0.17888429E+03</totfact>
</mgrwt>
</event>
<event>
 4    1  0.5023236E-005  0.5638184E+03  0.7818608E-02  0.9983452E-01
          2   -1    0    0  501    0  0.00000000000E+00  0.00000000000E+00  0.81567358377E+03  0.81567358377E+03  0.25500000000E-02 0.  1.
         -2   -1    0    0    0  501 -0.00000000000E+00 -0.00000000000E+00 -0.97432106245E+02  0.97432106278E+02  0.25500000000E-02 0. -1.
    5000001    1    1    2    0    0  0.38525716240E+02  0.19254412821E+03  0.30040792532E+03  0.41036982554E+03  0.19900000000E+03 0.  0.
   -5000001    1    1    2    0    0 -0.38525716240E+02 -0.19254412821E+03  0.41783355220E+03  0.50273586451E+03  0.19900000000E+03 0.  0.
<mgrwt>
<rscale>  0 0.56381839E+03</rscale>
<asrwt>0</asrwt>
<pdfrwt beam="1">  1        2 0.11652479E+00 0.56381839E+03</pdfrwt>
<pdfrwt beam="2">  1       -2 0.13918873E-01 0.56381839E+03</pdfrwt>
<totfact> 0.14754698E+03</totfact>
</mgrwt>
</event>
<event>
 4    1  0.5023236E-005  0.4889874E+03  0.7818608E-02  0.1016694E+00
          2   -1    0    0  501    0  0.00000000000E+00  0.00000000000E+00  0.48250304388E+03  0.48250304388E+03  0.25500000000E-02 0.  1.
         -2   -1    0    0    0  501 -0.00000000000E+00 -0.00000000000E+00 -0.12388972002E+03  0.12388972005E+03  0.25500000000E-02 0. -1.
    5000001    1    1    2    0    0  0.61289082623E+02 -0.92254982392E+02  0.69022646797E+02  0.23797575338E+03  0.19900000000E+03 0.  0.
   -5000001    1    1    2    0    0 -0.61289082623E+02  0.92254982392E+02  0.28959067706E+03  0.36841701055E+03  0.19900000000E+03 0.  0.
<mgrwt>
<rscale>  0 0.48898739E+03</rscale>
<asrwt>0</asrwt>
<pdfrwt beam="1">  1        2 0.68929006E-01 0.48898739E+03</pdfrwt>
<pdfrwt beam="2">  1       -2 0.17698532E-01 0.48898739E+03</pdfrwt>
<totfact> 0.18378973E+03</totfact>
</mgrwt>
</event>
<event>
 4    1  0.5023236E-005  0.9056971E+03  0.7818608E-02  0.9418488E-01
         -2   -1    0    0    0  501 -0.00000000000E+00  0.00000000000E+00  0.26673060075E+03  0.26673060076E+03  0.25500000000E-02 0. -1.
          2   -1    0    0  501    0  0.00000000000E+00 -0.00000000000E+00 -0.76883488854E+03  0.76883488854E+03  0.25500000000E-02 0.  1.
    5000001    1    1    2    0    0 -0.38580085458E+03 -0.87987025733E+01 -0.39815046486E+03  0.58910483722E+03  0.19900000000E+03 0.  0.
   -5000001    1    1    2    0    0  0.38580085458E+03  0.87987025733E+01 -0.10395382292E+03  0.44646065209E+03  0.19900000000E+03 0.  0.
<mgrwt>
<rscale>  0 0.90569706E+03</rscale>
<asrwt>0</asrwt>
<pdfrwt beam="1">  1        2 0.10983355E+00 0.90569706E+03</pdfrwt>
<pdfrwt beam="2">  1       -2 0.38104372E-01 0.90569706E+03</pdfrwt>
<totfact> 0.26030860E+02</totfact>
</mgrwt>
</event>
<event>
 4    1  0.5023236E-005  0.5976076E+03  0.7818608E-02  0.9910382E-01
         -2   -1    0    0    0  501 -0.00000000000E+00  0.00000000000E+00  0.13730910031E+03  0.13730910033E+03  0.25500000000E-02 0. -1.
          2   -1    0    0  501    0  0.00000000000E+00 -0.00000000000E+00 -0.65023883991E+03  0.65023883992E+03  0.25500000000E-02 0.  1.
    5000001    1    1    2    0    0 -0.39761289596E+01  0.16425140409E+03 -0.45496582579E+03  0.52305758381E+03  0.19900000000E+03 0.  0.
   -5000001    1    1    2    0    0  0.39761289596E+01 -0.16425140409E+03 -0.57963913810E+02  0.26449035644E+03  0.19900000000E+03 0.  0.
<mgrwt>
<rscale>  0 0.59760760E+03</rscale>
<asrwt>0</asrwt>
<pdfrwt beam="1">  1        2 0.92891261E-01 0.59760760E+03</pdfrwt>
<pdfrwt beam="2">  1       -2 0.19615586E-01 0.59760760E+03</pdfrwt>
<totfact> 0.10895585E+03</totfact>
</mgrwt>
</event>
<event>
 4    1  0.5023236E-005  0.4569089E+03  0.7818608E-02  0.1025682E+00
          2   -1    0    0  501    0  0.00000000000E+00  0.00000000000E+00  0.49336319261E+03  0.49336319262E+03  0.25500000000E-02 0.  1.
         -2   -1    0    0    0  501 -0.00000000000E+00 -0.00000000000E+00 -0.10578706164E+03  0.10578706167E+03  0.25500000000E-02 0. -1.
    5000001    1    1    2    0    0 -0.12651112715E+02  0.73220879602E+02  0.30404045215E+03  0.37089478886E+03  0.19900000000E+03 0.  0.
   -5000001    1    1    2    0    0  0.12651112715E+02 -0.73220879602E+02  0.83535678818E+02  0.22825546543E+03  0.19900000000E+03 0.  0.
<mgrwt>
<rscale>  0 0.45690893E+03</rscale>
<asrwt>0</asrwt>
<pdfrwt beam="1">  1        2 0.70480458E-01 0.45690893E+03</pdfrwt>
<pdfrwt beam="2">  1       -2 0.15112437E-01 0.45690893E+03</pdfrwt>
<totfact> 0.23398254E+03</totfact>
</mgrwt>
</event>
<event>
 4    1  0.5023236E-005  0.9793543E+03  0.7818608E-02  0.9331483E-01
          2   -1    0    0  501    0  0.00000000000E+00  0.00000000000E+00  0.64562510044E+03  0.64562510045E+03  0.25500000000E-02 0.  1.
         -2   -1    0    0    0  501 -0.00000000000E+00 -0.00000000000E+00 -0.37139778140E+03  0.37139778141E+03  0.25500000000E-02 0. -1.
    5000001    1    1    2    0    0  0.18036637107E+02 -0.36586454131E+03 -0.12967332631E+03  0.43657571442E+03  0.19900000000E+03 0.  0.
   -5000001    1    1    2    0    0 -0.18036637107E+02  0.36586454131E+03  0.40390064535E+03  0.58044716743E+03  0.19900000000E+03 0.  0.
<mgrwt>
<rscale>  0 0.97935434E+03</rscale>
<asrwt>0</asrwt>
<pdfrwt beam="1">  1        2 0.92232158E-01 0.97935434E+03</pdfrwt>
<pdfrwt beam="2">  1       -2 0.53056826E-01 0.97935434E+03</pdfrwt>
<totfact> 0.16637238E+02</totfact>
</mgrwt>
</event>
<event>
 4    1  0.5023236E-005  0.5559924E+03  0.7818608E-02  0.1000116E+00
         -2   -1    0    0    0  501 -0.00000000000E+00  0.00000000000E+00  0.36434051470E+03  0.36434051471E+03  0.25500000000E-02 0. -1.
          2   -1    0    0  501    0  0.00000000000E+00 -0.00000000000E+00 -0.21211448349E+03  0.21211448351E+03  0.25500000000E-02 0.  1.
    5000001    1    1    2    0    0 -0.16439967616E+03 -0.10064274057E+03  0.52363979623E+02  0.28195602691E+03  0.19900000000E+03 0.  0.
   -5000001    1    1    2    0    0  0.16439967616E+03  0.10064274057E+03  0.99862051586E+02  0.29449897130E+03  0.19900000000E+03 0.  0.
<mgrwt>
<rscale>  0 0.55599245E+03</rscale>
<asrwt>0</asrwt>
<pdfrwt beam="1">  1        2 0.30302069E-01 0.55599245E+03</pdfrwt>
<pdfrwt beam="2">  1       -2 0.52048645E-01 0.55599245E+03</pdfrwt>
<totfact> 0.61737351E+02</totfact>
</mgrwt>
</event>
<event>
 4    1  0.5023236E-005  0.4696478E+03  0.7818608E-02  0.1022020E+00
         -2   -1    0    0    0  501 -0.00000000000E+00  0.00000000000E+00  0.26434610662E+03  0.26434610663E+03  0.25500000000E-02 0. -1.
          2   -1    0    0  501    0  0.00000000000E+00 -0.00000000000E+00 -0.20859876083E+03  0.20859876084E+03  0.25500000000E-02 0.  1.
    5000001    1    1    2    0    0 -0.40919835931E+02 -0.47894200472E+02  0.13620669407E+03  0.24924195257E+03  0.19900000000E+03 0.  0.
   -5000001    1    1    2    0    0  0.40919835931E+02  0.47894200472E+02 -0.80459348279E+02  0.22370291491E+03  0.19900000000E+03 0.  0.
<mgrwt>
<rscale>  0 0.46964783E+03</rscale>
<asrwt>0</asrwt>
<pdfrwt beam="1">  1        2 0.29799823E-01 0.46964783E+03</pdfrwt>
<pdfrwt beam="2">  1       -2 0.37763730E-01 0.46964783E+03</pdfrwt>
<totfact> 0.11851304E+03</totfact>
</mgrwt>
</event>
<event>
 4    1  0.5023236E-005  0.1598957E+04  0.7818608E-02  0.8821189E-01
          2   -1    0    0  501    0  0.00000000000E+00  0.00000000000E+00  0.18563675848E+04  0.18563675848E+04  0.25500000000E-02 0.  1.
         -2   -1    0    0    0  501 -0.00000000000E+00 -0.00000000000E+00 -0.34430989178E+03  0.34430989179E+03  0.25500000000E-02 0. -1.
    5000001    1    1    2    0    0 -0.69202309705E+03 -0.33753341783E+03  0.64303678997E+03  0.10227033237E+04  0.19900000000E+03 0.  0.
   -5000001    1    1    2    0    0  0.69202309705E+03  0.33753341783E+03  0.86902090309E+03  0.11779741529E+04  0.19900000000E+03 0.  0.
<mgrwt>
<rscale>  0 0.15989568E+04</rscale>
<asrwt>0</asrwt>
<pdfrwt beam="1">  1        2 0.26519537E+00 0.15989568E+04</pdfrwt>
<pdfrwt beam="2">  1       -2 0.49187127E-01 0.15989568E+04</pdfrwt>
<totfact> 0.35773290E+01</totfact>
</mgrwt>
</event>
<event>
 4    1  0.5023236E-005  0.7307797E+03  0.7818608E-02  0.9665996E-01
          2   -1    0    0  501    0  0.00000000000E+00  0.00000000000E+00  0.20278121097E+04  0.20278121097E+04  0.25500000000E-02 0.  1.
         -2   -1    0    0    0  501 -0.00000000000E+00 -0.00000000000E+00 -0.65839300697E+02  0.65839300746E+02  0.25500000000E-02 0. -1.
    5000001    1    1    2    0    0 -0.28569475577E+03  0.45203488728E+02  0.12709544960E+04  0.13185564757E+04  0.19900000000E+03 0.  0.
   -5000001    1    1    2    0    0  0.28569475577E+03 -0.45203488728E+02  0.69101831298E+03  0.77509493466E+03  0.19900000000E+03 0.  0.
<mgrwt>
<rscale>  0 0.73077967E+03</rscale>
<asrwt>0</asrwt>
<pdfrwt beam="1">  1        2 0.28968747E+00 0.73077967E+03</pdfrwt>
<pdfrwt beam="2">  1       -2 0.94056134E-02 0.73077967E+03</pdfrwt>
<totfact> 0.60133764E+02</totfact>
</mgrwt>
</event>
<event>
 4    1  0.5023236E-005  0.4852968E+03  0.7818608E-02  0.1017690E+00
         -2   -1    0    0    0  501 -0.00000000000E+00  0.00000000000E+00  0.39693183856E+03  0.39693183856E+03  0.25500000000E-02 0. -1.
          2   -1    0    0  501    0  0.00000000000E+00 -0.00000000000E+00 -0.14833342043E+03  0.14833342045E+03  0.25500000000E-02 0.  1.
    5000001    1    1    2    0    0 -0.13856816125E+03 -0.36908457624E+01  0.11541662884E+03  0.26858286592E+03  0.19900000000E+03 0.  0.
   -5000001    1    1    2    0    0  0.13856816125E+03  0.36908457624E+01  0.13318178928E+03  0.27668239310E+03  0.19900000000E+03 0.  0.
<mgrwt>
<rscale>  0 0.48529685E+03</rscale>
<asrwt>0</asrwt>
<pdfrwt beam="1">  1        2 0.21190489E-01 0.48529685E+03</pdfrwt>
<pdfrwt beam="2">  1       -2 0.56704548E-01 0.48529685E+03</pdfrwt>
<totfact> 0.77805547E+02</totfact>
</mgrwt>
</event>
<event>
 4    1  0.5023236E-005  0.8638020E+03  0.7818608E-02  0.9471997E-01
          2   -1    0    0  501    0  0.00000000000E+00  0.00000000000E+00  0.97275260974E+03  0.97275260975E+03  0.25500000000E-02 0. -1.
         -2   -1    0    0    0  501 -0.00000000000E+00 -0.00000000000E+00 -0.19176354604E+03  0.19176354606E+03  0.25500000000E-02 0.  1.
    5000001    1    1    2    0    0 -0.33523459860E+03  0.12780413369E+03  0.57247369138E+03  0.70430338634E+03  0.19900000000E+03 0.  0.
   -5000001    1    1    2    0    0  0.33523459860E+03 -0.12780413369E+03  0.20851537232E+03  0.46021276947E+03  0.19900000000E+03 0.  0.
<mgrwt>
<rscale>  0 0.86380204E+03</rscale>
<asrwt>0</asrwt>
<pdfrwt beam="1">  1        2 0.13896466E+00 0.86380204E+03</pdfrwt>
<pdfrwt beam="2">  1       -2 0.27394792E-01 0.86380204E+03</pdfrwt>
<totfact> 0.35456899E+02</totfact>
</mgrwt>
</event>
<event>
 4    1  0.5023236E-005  0.4392436E+03  0.7818608E-02  0.1030979E+00
         -2   -1    0    0    0  501 -0.00000000000E+00  0.00000000000E+00  0.60724291568E+02  0.60724291622E+02  0.25500000000E-02 0. -1.
          2   -1    0    0  501    0  0.00000000000E+00 -0.00000000000E+00 -0.79430722511E+03  0.79430722512E+03  0.25500000000E-02 0.  1.
    5000001    1    1    2    0    0  0.67792973456E+02  0.32055461087E+01 -0.24326931437E+03  0.32153867900E+03  0.19900000000E+03 0.  0.
   -5000001    1    1    2    0    0 -0.67792973456E+02 -0.32055461087E+01 -0.49031361917E+03  0.53349283774E+03  0.19900000000E+03 0.  0.
<mgrwt>
<rscale>  0 0.43924364E+03</rscale>
<asrwt>0</asrwt>
<pdfrwt beam="1">  1        2 0.11347245E+00 0.43924364E+03</pdfrwt>
<pdfrwt beam="2">  1       -2 0.86748993E-02 0.43924364E+03</pdfrwt>
<totfact> 0.32929884E+03</totfact>
</mgrwt>
</event>
<event>
 4    1  0.5023236E-005  0.5404293E+03  0.7818608E-02  0.1003734E+00
          2   -1    0    0  501    0  0.00000000000E+00  0.00000000000E+00  0.14077682792E+03  0.14077682794E+03  0.25500000000E-02 0.  1.
         -2   -1    0    0    0  501 -0.00000000000E+00 -0.00000000000E+00 -0.51866459857E+03  0.51866459858E+03  0.25500000000E-02 0. -1.
    5000001    1    1    2    0    0  0.13350663523E+03  0.71652297666E+02 -0.31372201611E+03  0.40122384875E+03  0.19900000000E+03 0.  0.
   -5000001    1    1    2    0    0 -0.13350663523E+03 -0.71652297666E+02 -0.64165754542E+02  0.25821757777E+03  0.19900000000E+03 0.  0.
<mgrwt>
<rscale>  0 0.54042930E+03</rscale>
<asrwt>0</asrwt>
<pdfrwt beam="1">  1        2 0.20110976E-01 0.54042930E+03</pdfrwt>
<pdfrwt beam="2">  1       -2 0.74094942E-01 0.54042930E+03</pdfrwt>
<totfact> 0.46725863E+02</totfact>
</mgrwt>
</event>
<event>
 4    1  0.5023236E-005  0.5824052E+03  0.7818608E-02  0.9942597E-01
          2   -1    0    0  501    0  0.00000000000E+00  0.00000000000E+00  0.50982472952E+03  0.50982472953E+03  0.25500000000E-02 0.  1.
         -2   -1    0    0    0  501 -0.00000000000E+00 -0.00000000000E+00 -0.16632962252E+03  0.16632962254E+03  0.25500000000E-02 0. -1.
    5000001    1    1    2    0    0 -0.71838449248E+02 -0.14173800358E+03  0.33571784542E+03  0.42137619318E+03  0.19900000000E+03 0.  0.
   -5000001    1    1    2    0    0  0.71838449248E+02  0.14173800358E+03  0.77772615843E+01  0.25477815889E+03  0.19900000000E+03 0.  0.
<mgrwt>
<rscale>  0 0.58240520E+03</rscale>
<asrwt>0</asrwt>
<pdfrwt beam="1">  1        2 0.72832104E-01 0.58240520E+03</pdfrwt>
<pdfrwt beam="2">  1       -2 0.23761375E-01 0.58240520E+03</pdfrwt>
<totfact> 0.10331746E+03</totfact>
</mgrwt>
</event>
<event>
 4    1  0.5023236E-005  0.1137836E+04  0.7818608E-02  0.9169079E-01
          2   -1    0    0  501    0  0.00000000000E+00  0.00000000000E+00  0.21119330323E+04  0.21119330323E+04  0.25500000000E-02 0.  1.
         -2   -1    0    0    0  501 -0.00000000000E+00 -0.00000000000E+00 -0.15325670848E+03  0.15325670850E+03  0.25500000000E-02 0. -1.
    5000001    1    1    2    0    0 -0.33483383073E+03  0.15423096068E+03  0.17456386142E+04  0.17952036249E+04  0.19900000000E+03 0.  0.
   -5000001    1    1    2    0    0  0.33483383073E+03 -0.15423096068E+03  0.21303770964E+03  0.46998611593E+03  0.19900000000E+03 0.  0.
<mgrwt>
<rscale>  0 0.11378364E+04</rscale>
<asrwt>0</asrwt>
<pdfrwt beam="1">  1        2 0.30170468E+00 0.11378364E+04</pdfrwt>
<pdfrwt beam="2">  1       -2 0.21893818E-01 0.11378364E+04</pdfrwt>
<totfact> 0.12690793E+02</totfact>
</mgrwt>
</event>
<event>
 4    1  0.5023236E-005  0.4647892E+03  0.7818608E-02  0.1023401E+00
         -2   -1    0    0    0  501 -0.00000000000E+00  0.00000000000E+00  0.36907658639E+02  0.36907658727E+02  0.25500000000E-02 0. -1.
          2   -1    0    0  501    0  0.00000000000E+00 -0.00000000000E+00 -0.14633073832E+04  0.14633073832E+04  0.25500000000E-02 0.  1.
    5000001    1    1    2    0    0 -0.20894198349E+02  0.11818497830E+03 -0.70864334983E+03  0.74577520332E+03  0.19900000000E+03 0.  0.
   -5000001    1    1    2    0    0  0.20894198349E+02 -0.11818497830E+03 -0.71775637472E+03  0.75443983861E+03  0.19900000000E+03 0.  0.
<mgrwt>
<rscale>  0 0.46478920E+03</rscale>
<asrwt>0</asrwt>
<pdfrwt beam="1">  1        2 0.20904388E+00 0.46478920E+03</pdfrwt>
<pdfrwt beam="2">  1       -2 0.52725236E-02 0.46478920E+03</pdfrwt>
<totfact> 0.29404107E+03</totfact>
</mgrwt>
</event>
<event>
 4    1  0.5023236E-005  0.5869556E+03  0.7818608E-02  0.9932845E-01
          2   -1    0    0  501    0  0.00000000000E+00  0.00000000000E+00  0.22473887168E+04  0.22473887168E+04  0.25500000000E-02 0.  1.
         -2   -1    0    0    0  501 -0.00000000000E+00 -0.00000000000E+00 -0.38324135285E+02  0.38324135370E+02  0.25500000000E-02 0. -1.
    5000001    1    1    2    0    0  0.78587879286E+02 -0.34167620195E+02  0.18753912505E+04  0.18878656794E+04  0.19900000000E+03 0.  0.
   -5000001    1    1    2    0    0 -0.78587879286E+02  0.34167620195E+02  0.33367333098E+03  0.39784717273E+03  0.19900000000E+03 0.  0.
<mgrwt>
<rscale>  0 0.58695563E+03</rscale>
<asrwt>0</asrwt>
<pdfrwt beam="1">  1        2 0.32105562E+00 0.58695563E+03</pdfrwt>
<pdfrwt beam="2">  1       -2 0.54748750E-02 0.58695563E+03</pdfrwt>
<totfact> 0.11095175E+03</totfact>
</mgrwt>
</event>
<event>
 4    1  0.5023236E-005  0.8625426E+03  0.7818608E-02  0.9473656E-01
          2   -1    0    0  501    0  0.00000000000E+00  0.00000000000E+00  0.49856360648E+03  0.49856360649E+03  0.25500000000E-02 0.  1.
         -2   -1    0    0    0  501 -0.00000000000E+00 -0.00000000000E+00 -0.37306162606E+03  0.37306162606E+03  0.25500000000E-02 0. -1.
    5000001    1    1    2    0    0  0.37999045675E+03 -0.30387540646E+02  0.95926552208E+02  0.44058943844E+03  0.19900000000E+03 0.  0.
   -5000001    1    1    2    0    0 -0.37999045675E+03  0.30387540646E+02  0.29575428218E+02  0.43103579411E+03  0.19900000000E+03 0.  0.
<mgrwt>
<rscale>  0 0.86254264E+03</rscale>
<asrwt>0</asrwt>
<pdfrwt beam="1">  1        2 0.71223372E-01 0.86254264E+03</pdfrwt>
<pdfrwt beam="2">  1       -2 0.53294518E-01 0.86254264E+03</pdfrwt>
<totfact> 0.22460716E+02</totfact>
</mgrwt>
</event>
<event>
 4    1  0.5023236E-005  0.9687898E+03  0.7818608E-02  0.9343454E-01
         -2   -1    0    0    0  501 -0.00000000000E+00  0.00000000000E+00  0.17673425346E+03  0.17673425348E+03  0.25500000000E-02 0. -1.
          2   -1    0    0  501    0  0.00000000000E+00 -0.00000000000E+00 -0.13276340355E+04  0.13276340355E+04  0.25500000000E-02 0.  1.
    5000001    1    1    2    0    0 -0.26996128858E+03 -0.33193605583E+03 -0.40551035300E+03  0.62217384136E+03  0.19900000000E+03 0.  0.
   -5000001    1    1    2    0    0  0.26996128858E+03  0.33193605583E+03 -0.74538942903E+03  0.88219444761E+03  0.19900000000E+03 0.  0.
<mgrwt>
<rscale>  0 0.96878978E+03</rscale>
<asrwt>0</asrwt>
<pdfrwt beam="1">  1        2 0.18966200E+00 0.96878978E+03</pdfrwt>
<pdfrwt beam="2">  1       -2 0.25247751E-01 0.96878978E+03</pdfrwt>
<totfact> 0.25457226E+02</totfact>
</mgrwt>
</event>
<event>
 4    1  0.5023236E-005  0.4429374E+03  0.7818608E-02  0.1029849E+00
         -2   -1    0    0    0  501 -0.00000000000E+00  0.00000000000E+00  0.44154121007E+02  0.44154121081E+02  0.25500000000E-02 0. -1.
          2   -1    0    0  501    0  0.00000000000E+00 -0.00000000000E+00 -0.11108451719E+04  0.11108451719E+04  0.25500000000E-02 0.  1.
    5000001    1    1    2    0    0  0.51881573267E+02 -0.72469702667E+02 -0.43222491574E+03  0.48411045561E+03  0.19900000000E+03 0.  0.
   -5000001    1    1    2    0    0 -0.51881573267E+02  0.72469702667E+02 -0.63446613514E+03  0.67088883736E+03  0.19900000000E+03 0.  0.
<mgrwt>
<rscale>  0 0.44293743E+03</rscale>
<asrwt>0</asrwt>
<pdfrwt beam="1">  1        2 0.15869215E+00 0.44293743E+03</pdfrwt>
<pdfrwt beam="2">  1       -2 0.63077323E-02 0.44293743E+03</pdfrwt>
<totfact> 0.34560066E+03</totfact>
</mgrwt>
</event>
<event>
 4    1  0.5023236E-005  0.4931682E+03  0.7818608E-02  0.1015578E+00
         -2   -1    0    0    0  501 -0.00000000000E+00  0.00000000000E+00  0.45870063014E+03  0.45870063014E+03  0.25500000000E-02 0. -1.
          2   -1    0    0  501    0  0.00000000000E+00 -0.00000000000E+00 -0.13255644374E+03  0.13255644376E+03  0.25500000000E-02 0.  1.
    5000001    1    1    2    0    0 -0.10856756467E+03 -0.58747933425E+02  0.70481286811E+02  0.24455438571E+03  0.19900000000E+03 0.  0.
   -5000001    1    1    2    0    0  0.10856756467E+03  0.58747933425E+02  0.25566289959E+03  0.34670268820E+03  0.19900000000E+03 0.  0.
<mgrwt>
<rscale>  0 0.49316822E+03</rscale>
<asrwt>0</asrwt>
<pdfrwt beam="1">  1        2 0.18936635E-01 0.49316822E+03</pdfrwt>
<pdfrwt beam="2">  1       -2 0.65528661E-01 0.49316822E+03</pdfrwt>
<totfact> 0.65442646E+02</totfact>
</mgrwt>
</event>
<event>
 4    1  0.5023236E-005  0.5024432E+03  0.7818608E-02  0.1013143E+00
         -2   -1    0    0    0  501 -0.00000000000E+00  0.00000000000E+00  0.58715286871E+02  0.58715286926E+02  0.25500000000E-02 0. -1.
          2   -1    0    0  501    0  0.00000000000E+00 -0.00000000000E+00 -0.10748870913E+04  0.10748870913E+04  0.25500000000E-02 0.  1.
    5000001    1    1    2    0    0  0.13270493913E+03 -0.67591614311E+02 -0.59043111576E+03  0.64061621089E+03  0.19900000000E+03 0.  0.
   -5000001    1    1    2    0    0 -0.13270493913E+03  0.67591614311E+02 -0.42574068863E+03  0.49298616730E+03  0.19900000000E+03 0.  0.
<mgrwt>
<rscale>  0 0.50244325E+03</rscale>
<asrwt>0</asrwt>
<pdfrwt beam="1">  1        2 0.15355529E+00 0.50244325E+03</pdfrwt>
<pdfrwt beam="2">  1       -2 0.83878988E-02 0.50244325E+03</pdfrwt>
<totfact> 0.23143977E+03</totfact>
</mgrwt>
</event>
<event>
 4    1  0.5023236E-005  0.6289903E+03  0.7818608E-02  0.9847021E-01
         -2   -1    0    0    0  501 -0.00000000000E+00  0.00000000000E+00  0.28881971548E+02  0.28881971661E+02  0.25500000000E-02 0. -1.
          2   -1    0    0  501    0  0.00000000000E+00 -0.00000000000E+00 -0.34245309872E+04  0.34245309872E+04  0.25500000000E-02 0.  1.
    5000001    1    1    2    0    0  0.69109795897E+02 -0.16455766222E+03 -0.26074910060E+04  0.26211573273E+04  0.19900000000E+03 0.  0.
   -5000001    1    1    2    0    0 -0.69109795897E+02  0.16455766222E+03 -0.78815800959E+03  0.83225563150E+03  0.19900000000E+03 0.  0.
<mgrwt>
<rscale>  0 0.62899032E+03</rscale>
<asrwt>0</asrwt>
<pdfrwt beam="1">  1        2 0.48921845E+00 0.62899032E+03</pdfrwt>
<pdfrwt beam="2">  1       -2 0.41259981E-02 0.62899032E+03</pdfrwt>
<totfact> 0.40025941E+02</totfact>
</mgrwt>
</event>
<event>
 4    1  0.5023236E-005  0.5175987E+03  0.7818608E-02  0.1009285E+00
         -2   -1    0    0    0  501 -0.00000000000E+00  0.00000000000E+00  0.53013544683E+02  0.53013544744E+02  0.25500000000E-02 0. -1.
          2   -1    0    0  501    0  0.00000000000E+00 -0.00000000000E+00 -0.12633960706E+04  0.12633960706E+04  0.25500000000E-02 0.  1.
    5000001    1    1    2    0    0 -0.75024210178E+02 -0.11769679066E+03 -0.83117241260E+03  0.86598484173E+03  0.19900000000E+03 0.  0.
   -5000001    1    1    2    0    0  0.75024210178E+02  0.11769679066E+03 -0.37921011333E+03  0.45042477363E+03  0.19900000000E+03 0.  0.
<mgrwt>
<rscale>  0 0.51759870E+03</rscale>
<asrwt>0</asrwt>
<pdfrwt beam="1">  1        2 0.18048513E+00 0.51759870E+03</pdfrwt>
<pdfrwt beam="2">  1       -2 0.75733643E-02 0.51759870E+03</pdfrwt>
<totfact> 0.21307371E+03</totfact>
</mgrwt>
</event>
<event>
 4    1  0.5023236E-005  0.8270071E+03  0.7818608E-02  0.9521728E-01
         -2   -1    0    0    0  501 -0.00000000000E+00  0.00000000000E+00  0.76820807361E+03  0.76820807362E+03  0.25500000000E-02 0. -1.
          2   -1    0    0  501    0  0.00000000000E+00 -0.00000000000E+00 -0.22257667421E+03  0.22257667422E+03  0.25500000000E-02 0.  1.
    5000001    1    1    2    0    0 -0.20574965869E+03 -0.29368158555E+03  0.33623702402E+03  0.53031889657E+03  0.19900000000E+03 0.  0.
   -5000001    1    1    2    0    0  0.20574965869E+03  0.29368158555E+03  0.20939437539E+03  0.46046585127E+03  0.19900000000E+03 0.  0.
<mgrwt>
<rscale>  0 0.82700713E+03</rscale>
<asrwt>0</asrwt>
<pdfrwt beam="1">  1        2 0.31796668E-01 0.82700713E+03</pdfrwt>
<pdfrwt beam="2">  1       -2 0.10974401E+00 0.82700713E+03</pdfrwt>
<totfact> 0.11079917E+02</totfact>
</mgrwt>
</event>
<event>
 4    1  0.5023236E-005  0.7628742E+03  0.7818608E-02  0.9615366E-01
         -2   -1    0    0    0  501 -0.00000000000E+00  0.00000000000E+00  0.12419019571E+03  0.12419019574E+03  0.25500000000E-02 0. -1.
          2   -1    0    0  501    0  0.00000000000E+00 -0.00000000000E+00 -0.11715439467E+04  0.11715439467E+04  0.25500000000E-02 0.  1.
    5000001    1    1    2    0    0  0.26929795882E+03 -0.22591856028E+02 -0.21577907890E+03  0.39899046790E+03  0.19900000000E+03 0.  0.
   -5000001    1    1    2    0    0 -0.26929795882E+03  0.22591856028E+02 -0.83157467213E+03  0.89674367459E+03  0.19900000000E+03 0.  0.
<mgrwt>
<rscale>  0 0.76287423E+03</rscale>
<asrwt>0</asrwt>
<pdfrwt beam="1">  1        2 0.16736341E+00 0.76287423E+03</pdfrwt>
<pdfrwt beam="2">  1       -2 0.17741457E-01 0.76287423E+03</pdfrwt>
<totfact> 0.58607982E+02</totfact>
</mgrwt>
</event>
<event>
 4    1  0.5023236E-005  0.6669562E+03  0.7818608E-02  0.9775472E-01
         -2   -1    0    0    0  501 -0.00000000000E+00  0.00000000000E+00  0.62959061289E+02  0.62959061340E+02  0.25500000000E-02 0. -1.
          2   -1    0    0  501    0  0.00000000000E+00 -0.00000000000E+00 -0.17663486786E+04  0.17663486786E+04  0.25500000000E-02 0.  1.
    5000001    1    1    2    0    0  0.19905203104E+03 -0.15611272974E+03 -0.10910203264E+04  0.11375057134E+04  0.19900000000E+03 0.  0.
   -5000001    1    1    2    0    0 -0.19905203104E+03  0.15611272974E+03 -0.61236929092E+03  0.69180202653E+03  0.19900000000E+03 0.  0.
<mgrwt>
<rscale>  0 0.66695623E+03</rscale>
<asrwt>0</asrwt>
<pdfrwt beam="1">  1        2 0.25233550E+00 0.66695623E+03</pdfrwt>
<pdfrwt beam="2">  1       -2 0.89941527E-02 0.66695623E+03</pdfrwt>
<totfact> 0.87981386E+02</totfact>
</mgrwt>
</event>
<event>
 4    1  0.5023236E-005  0.7552509E+03  0.7818608E-02  0.9627148E-01
         -2   -1    0    0    0  501 -0.00000000000E+00  0.00000000000E+00  0.10547743990E+03  0.10547743993E+03  0.25500000000E-02 0. -1.
          2   -1    0    0  501    0  0.00000000000E+00 -0.00000000000E+00 -0.13519573261E+04  0.13519573261E+04  0.25500000000E-02 0.  1.
    5000001    1    1    2    0    0 -0.22236487691E+03  0.44758871873E+02 -0.10613813508E+04  0.11034404682E+04  0.19900000000E+03 0.  0.
   -5000001    1    1    2    0    0  0.22236487691E+03 -0.44758871873E+02 -0.18509853546E+03  0.35399429787E+03  0.19900000000E+03 0.  0.
<mgrwt>
<rscale>  0 0.75525095E+03</rscale>
<asrwt>0</asrwt>
<pdfrwt beam="1">  1        2 0.19313675E+00 0.75525095E+03</pdfrwt>
<pdfrwt beam="2">  1       -2 0.15068206E-01 0.75525095E+03</pdfrwt>
<totfact> 0.61529815E+02</totfact>
</mgrwt>
</event>
<event>
 4    1  0.5023236E-005  0.1065429E+04  0.7818608E-02  0.9239558E-01
          2   -1    0    0  501    0  0.00000000000E+00  0.00000000000E+00  0.78022063464E+03  0.78022063464E+03  0.25500000000E-02 0.  1.
         -2   -1    0    0    0  501 -0.00000000000E+00 -0.00000000000E+00 -0.36372375917E+03  0.36372375918E+03  0.25500000000E-02 0. -1.
    5000001    1    1    2    0    0 -0.21384684975E+03 -0.39316475508E+03 -0.16650733526E+02  0.49008901917E+03  0.19900000000E+03 0.  0.
   -5000001    1    1    2    0    0  0.21384684975E+03  0.39316475508E+03  0.43314760899E+03  0.65385537465E+03  0.19900000000E+03 0.  0.
<mgrwt>
<rscale>  0 0.10654291E+04</rscale>
<asrwt>0</asrwt>
<pdfrwt beam="1">  1        2 0.11146009E+00 0.10654291E+04</pdfrwt>
<pdfrwt beam="2">  1       -2 0.51960537E-01 0.10654291E+04</pdfrwt>
<totfact> 0.13658338E+02</totfact>
</mgrwt>
</event>
<event>
 4    1  0.5023236E-005  0.9270369E+03  0.7818608E-02  0.9392401E-01
         -2   -1    0    0    0  501 -0.00000000000E+00  0.00000000000E+00  0.33359782975E+03  0.33359782976E+03  0.25500000000E-02 0. -1.
          2   -1    0    0  501    0  0.00000000000E+00 -0.00000000000E+00 -0.64403701208E+03  0.64403701209E+03  0.25500000000E-02 0.  1.
    5000001    1    1    2    0    0  0.17880444404E+03 -0.53639457910E+02  0.23993170144E+03  0.36334066936E+03  0.19900000000E+03 0.  0.
   -5000001    1    1    2    0    0 -0.17880444404E+03  0.53639457910E+02 -0.55037088377E+03  0.61429417249E+03  0.19900000000E+03 0.  0.
<mgrwt>
<rscale>  0 0.92703689E+03</rscale>
<asrwt>0</asrwt>
<pdfrwt beam="1">  1        2 0.92005287E-01 0.92703689E+03</pdfrwt>
<pdfrwt beam="2">  1       -2 0.47656833E-01 0.92703689E+03</pdfrwt>
<totfact> 0.20823131E+02</totfact>
</mgrwt>
</event>
<event>
 4    1  0.5023236E-005  0.5159747E+03  0.7818608E-02  0.1009691E+00
          2   -1    0    0  501    0  0.00000000000E+00  0.00000000000E+00  0.78062740453E+03  0.78062740454E+03  0.25500000000E-02 0.  1.
         -2   -1    0    0    0  501 -0.00000000000E+00 -0.00000000000E+00 -0.85261505124E+02  0.85261505162E+02  0.25500000000E-02 0. -1.
    5000001    1    1    2    0    0  0.14094005418E+03 -0.84056502492E+02  0.35638239860E+03  0.43993068604E+03  0.19900000000E+03 0.  0.
   -5000001    1    1    2    0    0 -0.14094005418E+03  0.84056502492E+02  0.33898350081E+03  0.42595822366E+03  0.19900000000E+03 0.  0.
<mgrwt>
<rscale>  0 0.51597468E+03</rscale>
<asrwt>0</asrwt>
<pdfrwt beam="1">  1        2 0.11151820E+00 0.51597468E+03</pdfrwt>
<pdfrwt beam="2">  1       -2 0.12180215E-01 0.51597468E+03</pdfrwt>
<totfact> 0.19463769E+03</totfact>
</mgrwt>
</event>
<event>
 4    1  0.5023236E-005  0.1204142E+04  0.7818608E-02  0.9109239E-01
          2   -1    0    0  501    0  0.00000000000E+00  0.00000000000E+00  0.93835214306E+03  0.93835214306E+03  0.25500000000E-02 0. -1.
         -2   -1    0    0    0  501 -0.00000000000E+00 -0.00000000000E+00 -0.38630436193E+03  0.38630436194E+03  0.25500000000E-02 0.  1.
    5000001    1    1    2    0    0  0.46936438203E+03  0.28891623502E+03  0.12393758330E+03  0.59894660741E+03  0.19900000000E+03 0.  0.
   -5000001    1    1    2    0    0 -0.46936438203E+03 -0.28891623502E+03  0.42811019783E+03  0.72570989759E+03  0.19900000000E+03 0.  0.
<mgrwt>
<rscale>  0 0.12041421E+04</rscale>
<asrwt>0</asrwt>
<pdfrwt beam="1">  1        2 0.13405031E+00 0.12041421E+04</pdfrwt>
<pdfrwt beam="2">  1       -2 0.55186338E-01 0.12041421E+04</pdfrwt>
<totfact> 0.93568204E+01</totfact>
</mgrwt>
</event>
<event>
 4    1  0.5023236E-005  0.6106832E+03  0.7818608E-02  0.9883486E-01
          2   -1    0    0  501    0  0.00000000000E+00  0.00000000000E+00  0.16400668291E+04  0.16400668291E+04  0.25500000000E-02 0. -1.
         -2   -1    0    0    0  501 -0.00000000000E+00 -0.00000000000E+00 -0.56847377995E+02  0.56847378052E+02  0.25500000000E-02 0.  1.
    5000001    1    1    2    0    0  0.12706047515E+03  0.19360792950E+03  0.78598030180E+03  0.84320485620E+03  0.19900000000E+03 0.  0.
   -5000001    1    1    2    0    0 -0.12706047515E+03 -0.19360792950E+03  0.79723914932E+03  0.85370935096E+03  0.19900000000E+03 0.  0.
<mgrwt>
<rscale>  0 0.61068322E+03</rscale>
<asrwt>0</asrwt>
<pdfrwt beam="1">  1        2 0.23429525E+00 0.61068322E+03</pdfrwt>
<pdfrwt beam="2">  1       -2 0.81210545E-02 0.61068322E+03</pdfrwt>
<totfact> 0.12050587E+03</totfact>
</mgrwt>
</event>
<event>
 4    1  0.5023236E-005  0.6825246E+03  0.7818608E-02  0.9747593E-01
         -2   -1    0    0    0  501 -0.00000000000E+00  0.00000000000E+00  0.88829049851E+02  0.88829049888E+02  0.25500000000E-02 0. -1.
          2   -1    0    0  501    0  0.00000000000E+00 -0.00000000000E+00 -0.13110570196E+04  0.13110570197E+04  0.25500000000E-02 0.  1.
    5000001    1    1    2    0    0 -0.18650302083E+02 -0.20071367110E+03 -0.10014866692E+04  0.10407739237E+04  0.19900000000E+03 0.  0.
   -5000001    1    1    2    0    0  0.18650302083E+02  0.20071367110E+03 -0.22074130055E+03  0.35911214586E+03  0.19900000000E+03 0.  0.
<mgrwt>
<rscale>  0 0.68252458E+03</rscale>
<asrwt>0</asrwt>
<pdfrwt beam="1">  1        2 0.18729385E+00 0.68252458E+03</pdfrwt>
<pdfrwt beam="2">  1       -2 0.12689865E-01 0.68252458E+03</pdfrwt>
<totfact> 0.86616696E+02</totfact>
</mgrwt>
</event>
<event>
 4    1  0.5023236E-005  0.4205245E+03  0.7818608E-02  0.1036896E+00
         -2   -1    0    0    0  501 -0.00000000000E+00  0.00000000000E+00  0.26803836516E+02  0.26803836637E+02  0.25500000000E-02 0. -1.
          2   -1    0    0  501    0  0.00000000000E+00 -0.00000000000E+00 -0.16493985915E+04  0.16493985915E+04  0.25500000000E-02 0.  1.
    5000001    1    1    2    0    0  0.61230247749E+01 -0.46690796403E+02 -0.61636342988E+03  0.64940157037E+03  0.19900000000E+03 0.  0.
   -5000001    1    1    2    0    0 -0.61230247749E+01  0.46690796403E+02 -0.10062313251E+04  0.10268008577E+04  0.19900000000E+03 0.  0.
<mgrwt>
<rscale>  0 0.42052448E+03</rscale>
<asrwt>0</asrwt>
<pdfrwt beam="1">  1        2 0.23562831E+00 0.42052448E+03</pdfrwt>
<pdfrwt beam="2">  1       -2 0.38291206E-02 0.42052448E+03</pdfrwt>
<totfact> 0.38578092E+03</totfact>
</mgrwt>
</event>
<event>
 4    1  0.5023236E-005  0.4931210E+03  0.7818608E-02  0.1015590E+00
          2   -1    0    0  501    0  0.00000000000E+00  0.00000000000E+00  0.21687555624E+04  0.21687555624E+04  0.25500000000E-02 0.  1.
         -2   -1    0    0    0  501 -0.00000000000E+00 -0.00000000000E+00 -0.28030856707E+02  0.28030856823E+02  0.25500000000E-02 0. -1.
    5000001    1    1    2    0    0  0.13507725904E+03  0.54155049168E+02  0.10546490774E+04  0.10830809350E+04  0.19900000000E+03 0.  0.
   -5000001    1    1    2    0    0 -0.13507725904E+03 -0.54155049168E+02  0.10860756283E+04  0.11137054842E+04  0.19900000000E+03 0.  0.
<mgrwt>
<rscale>  0 0.49312099E+03</rscale>
<asrwt>0</asrwt>
<pdfrwt beam="1">  1        2 0.30982228E+00 0.49312099E+03</pdfrwt>
<pdfrwt beam="2">  1       -2 0.40044073E-02 0.49312099E+03</pdfrwt>
<totfact> 0.19793168E+03</totfact>
</mgrwt>
</event>
<event>
 4    1  0.5023236E-005  0.8158898E+03  0.7818608E-02  0.9537298E-01
          2   -1    0    0  501    0  0.00000000000E+00  0.00000000000E+00  0.24702268957E+03  0.24702268959E+03  0.25500000000E-02 0.  1.
         -2   -1    0    0    0  501 -0.00000000000E+00 -0.00000000000E+00 -0.67369947160E+03  0.67369947160E+03  0.25500000000E-02 0. -1.
    5000001    1    1    2    0    0  0.34049683018E+03 -0.75578141630E+01 -0.33073830110E+03  0.51476600095E+03  0.19900000000E+03 0.  0.
   -5000001    1    1    2    0    0 -0.34049683018E+03  0.75578141630E+01 -0.95938480930E+02  0.40595616025E+03  0.19900000000E+03 0.  0.
<mgrwt>
<rscale>  0 0.81588983E+03</rscale>
<asrwt>0</asrwt>
<pdfrwt beam="1">  1        2 0.35288956E-01 0.81588983E+03</pdfrwt>
<pdfrwt beam="2">  1       -2 0.96242781E-01 0.81588983E+03</pdfrwt>
<totfact> 0.13487988E+02</totfact>
</mgrwt>
</event>
<event>
 4    1  0.5023236E-005  0.5527280E+03  0.7818608E-02  0.1000864E+00
         -2   -1    0    0    0  501 -0.00000000000E+00  0.00000000000E+00  0.67894814932E+02  0.67894814980E+02  0.25500000000E-02 0. -1.
          2   -1    0    0  501    0  0.00000000000E+00 -0.00000000000E+00 -0.11249323351E+04  0.11249323351E+04  0.25500000000E-02 0.  1.
    5000001    1    1    2    0    0  0.12916371155E+03  0.14111735252E+03 -0.55736769002E+03  0.62197838664E+03  0.19900000000E+03 0.  0.
   -5000001    1    1    2    0    0 -0.12916371155E+03 -0.14111735252E+03 -0.49966983011E+03  0.57084876341E+03  0.19900000000E+03 0.  0.
<mgrwt>
<rscale>  0 0.55272804E+03</rscale>
<asrwt>0</asrwt>
<pdfrwt beam="1">  1        2 0.16070461E+00 0.55272804E+03</pdfrwt>
<pdfrwt beam="2">  1       -2 0.96992600E-02 0.55272804E+03</pdfrwt>
<totfact> 0.17142397E+03</totfact>
</mgrwt>
</event>
<event>
 4    1  0.5023236E-005  0.5383749E+03  0.7818608E-02  0.1004221E+00
         -2   -1    0    0    0  501 -0.00000000000E+00  0.00000000000E+00  0.29667268773E+02  0.29667268882E+02  0.25500000000E-02 0. -1.
          2   -1    0    0  501    0  0.00000000000E+00 -0.00000000000E+00 -0.24424856053E+04  0.24424856053E+04  0.25500000000E-02 0.  1.
    5000001    1    1    2    0    0  0.14292423533E+03 -0.95263169131E+02 -0.94029917403E+03  0.97635339151E+03  0.19900000000E+03 0.  0.
   -5000001    1    1    2    0    0 -0.14292423533E+03  0.95263169131E+02 -0.14725191625E+04  0.14957994827E+04  0.19900000000E+03 0.  0.
<mgrwt>
<rscale>  0 0.53837488E+03</rscale>
<asrwt>0</asrwt>
<pdfrwt beam="1">  1        2 0.34892639E+00 0.53837488E+03</pdfrwt>
<pdfrwt beam="2">  1       -2 0.42381828E-02 0.53837488E+03</pdfrwt>
<totfact> 0.13173319E+03</totfact>
</mgrwt>
</event>
<event>
 4    1  0.5023236E-005  0.5200958E+03  0.7818608E-02  0.1008663E+00
         -2   -1    0    0    0  501 -0.00000000000E+00  0.00000000000E+00  0.97982611764E+02  0.97982611797E+02  0.25500000000E-02 0. -1.
          2   -1    0    0  501    0  0.00000000000E+00 -0.00000000000E+00 -0.69017250143E+03  0.69017250144E+03  0.25500000000E-02 0.  1.
    5000001    1    1    2    0    0 -0.14394764713E+03 -0.27146883211E+02 -0.41888965701E+03  0.48634085078E+03  0.19900000000E+03 0.  0.
   -5000001    1    1    2    0    0  0.14394764713E+03  0.27146883211E+02 -0.17330023265E+03  0.30181426245E+03  0.19900000000E+03 0.  0.
<mgrwt>
<rscale>  0 0.52009578E+03</rscale>
<asrwt>0</asrwt>
<pdfrwt beam="1">  1        2 0.98596069E-01 0.52009578E+03</pdfrwt>
<pdfrwt beam="2">  1       -2 0.13997516E-01 0.52009578E+03</pdfrwt>
<totfact> 0.18004660E+03</totfact>
</mgrwt>
</event>
<event>
 4    1  0.5023236E-005  0.5201542E+03  0.7818608E-02  0.1008648E+00
          2   -1    0    0  501    0  0.00000000000E+00  0.00000000000E+00  0.67240778930E+03  0.67240778931E+03  0.25500000000E-02 0.  1.
         -2   -1    0    0    0  501 -0.00000000000E+00 -0.00000000000E+00 -0.10059386044E+03  0.10059386047E+03  0.25500000000E-02 0. -1.
    5000001    1    1    2    0    0 -0.14695429233E+03 -0.24966474621E+02  0.39928202035E+03  0.47036796305E+03  0.19900000000E+03 0.  0.
   -5000001    1    1    2    0    0  0.14695429233E+03  0.24966474621E+02  0.17253190852E+03  0.30263368673E+03  0.19900000000E+03 0.  0.
<mgrwt>
<rscale>  0 0.52015419E+03</rscale>
<asrwt>0</asrwt>
<pdfrwt beam="1">  1        2 0.96058255E-01 0.52015419E+03</pdfrwt>
<pdfrwt beam="2">  1       -2 0.14370552E-01 0.52015419E+03</pdfrwt>
<totfact> 0.17783257E+03</totfact>
</mgrwt>
</event>
<event>
 4    1  0.5023236E-005  0.5143908E+03  0.7818608E-02  0.1010090E+00
          2   -1    0    0  501    0  0.00000000000E+00  0.00000000000E+00  0.61479497693E+02  0.61479497745E+02  0.25500000000E-02 0.  1.
         -2   -1    0    0    0  501 -0.00000000000E+00 -0.00000000000E+00 -0.10759597164E+04  0.10759597164E+04  0.25500000000E-02 0. -1.
    5000001    1    1    2    0    0 -0.59662070641E+02  0.14689021212E+03 -0.42414453557E+03  0.49460679751E+03  0.19900000000E+03 0.  0.
   -5000001    1    1    2    0    0  0.59662070641E+02 -0.14689021212E+03 -0.59033568310E+03  0.64283241660E+03  0.19900000000E+03 0.  0.
<mgrwt>
<rscale>  0 0.51439076E+03</rscale>
<asrwt>0</asrwt>
<pdfrwt beam="1">  1        2 0.87827860E-02 0.51439076E+03</pdfrwt>
<pdfrwt beam="2">  1       -2 0.15370852E+00 0.51439076E+03</pdfrwt>
<totfact> 0.22427677E+02</totfact>
</mgrwt>
</event>
<event>
 4    1  0.5023236E-005  0.1135004E+04  0.7818608E-02  0.9171731E-01
         -2   -1    0    0    0  501 -0.00000000000E+00  0.00000000000E+00  0.22052298427E+03  0.22052298428E+03  0.25500000000E-02 0. -1.
          2   -1    0    0  501    0  0.00000000000E+00 -0.00000000000E+00 -0.14604297671E+04  0.14604297671E+04  0.25500000000E-02 0.  1.
    5000001    1    1    2    0    0  0.45297294084E+03  0.27127355479E+03 -0.70983871973E+03  0.90677772066E+03  0.19900000000E+03 0.  0.
   -5000001    1    1    2    0    0 -0.45297294084E+03 -0.27127355479E+03 -0.53006806306E+03  0.77417503069E+03  0.19900000000E+03 0.  0.
<mgrwt>
<rscale>  0 0.11350037E+04</rscale>
<asrwt>0</asrwt>
<pdfrwt beam="1">  1        2 0.20863282E+00 0.11350037E+04</pdfrwt>
<pdfrwt beam="2">  1       -2 0.31503284E-01 0.11350037E+04</pdfrwt>
<totfact> 0.14206428E+02</totfact>
</mgrwt>
</event>
<event>
 4    1  0.5023236E-005  0.5759886E+03  0.7818608E-02  0.9956514E-01
         -2   -1    0    0    0  501 -0.00000000000E+00  0.00000000000E+00  0.80843582848E+03  0.80843582848E+03  0.25500000000E-02 0. -1.
          2   -1    0    0  501    0  0.00000000000E+00 -0.00000000000E+00 -0.10259405654E+03  0.10259405657E+03  0.25500000000E-02 0.  1.
    5000001    1    1    2    0    0  0.12089967302E+03 -0.54221398378E+01  0.62084458067E+03  0.66309510923E+03  0.19900000000E+03 0.  0.
   -5000001    1    1    2    0    0 -0.12089967302E+03  0.54221398378E+01  0.84997191268E+02  0.24793477582E+03  0.19900000000E+03 0.  0.
<mgrwt>
<rscale>  0 0.57598858E+03</rscale>
<asrwt>0</asrwt>
<pdfrwt beam="1">  1        2 0.14656294E-01 0.57598858E+03</pdfrwt>
<pdfrwt beam="2">  1       -2 0.11549083E+00 0.57598858E+03</pdfrwt>
<totfact> 0.24381223E+02</totfact>
</mgrwt>
</event>
<event>
 4    1  0.5023236E-005  0.6963060E+03  0.7818608E-02  0.9723570E-01
          2   -1    0    0  501    0  0.00000000000E+00  0.00000000000E+00  0.73413878998E+03  0.73413878998E+03  0.25500000000E-02 0.  1.
         -2   -1    0    0    0  501 -0.00000000000E+00 -0.00000000000E+00 -0.16510572106E+03  0.16510572108E+03  0.25500000000E-02 0. -1.
    5000001    1    1    2    0    0 -0.25306418947E+03  0.73180895405E+02  0.42723543305E+03  0.53993336876E+03  0.19900000000E+03 0.  0.
   -5000001    1    1    2    0    0  0.25306418947E+03 -0.73180895405E+02  0.14179763587E+03  0.35931114230E+03  0.19900000000E+03 0.  0.
<mgrwt>
<rscale>  0 0.69630601E+03</rscale>
<asrwt>0</asrwt>
<pdfrwt beam="1">  1        2 0.10487697E+00 0.69630601E+03</pdfrwt>
<pdfrwt beam="2">  1       -2 0.23586532E-01 0.69630601E+03</pdfrwt>
<totfact> 0.67753600E+02</totfact>
</mgrwt>
</event>
<event>
 4    1  0.5023236E-005  0.5491776E+03  0.7818608E-02  0.1001684E+00
         -2   -1    0    0    0  501 -0.00000000000E+00  0.00000000000E+00  0.15675772803E+03  0.15675772805E+03  0.25500000000E-02 0. -1.
          2   -1    0    0  501    0  0.00000000000E+00 -0.00000000000E+00 -0.48099067639E+03  0.48099067640E+03  0.25500000000E-02 0.  1.
    5000001    1    1    2    0    0  0.14524515945E+03 -0.89343074848E+02 -0.66922301509E+02  0.27047723713E+03  0.19900000000E+03 0.  0.
   -5000001    1    1    2    0    0 -0.14524515945E+03  0.89343074848E+02 -0.25731064685E+03  0.36727116733E+03  0.19900000000E+03 0.  0.
<mgrwt>
<rscale>  0 0.54917759E+03</rscale>
<asrwt>0</asrwt>
<pdfrwt beam="1">  1        2 0.68712953E-01 0.54917759E+03</pdfrwt>
<pdfrwt beam="2">  1       -2 0.22393961E-01 0.54917759E+03</pdfrwt>
<totfact> 0.12262573E+03</totfact>
</mgrwt>
</event>
<event>
 4    1  0.5023236E-005  0.8830884E+03  0.7818608E-02  0.9446972E-01
         -2   -1    0    0    0  501 -0.00000000000E+00  0.00000000000E+00  0.80346979524E+02  0.80346979565E+02  0.25500000000E-02 0. -1.
          2   -1    0    0  501    0  0.00000000000E+00 -0.00000000000E+00 -0.24264917425E+04  0.24264917425E+04  0.25500000000E-02 0.  1.
    5000001    1    1    2    0    0  0.38002325603E+03  0.13676385046E+02 -0.87867170600E+03  0.97789042615E+03  0.19900000000E+03 0.  0.
   -5000001    1    1    2    0    0 -0.38002325603E+03 -0.13676385046E+02 -0.14674730569E+04  0.15289482959E+04  0.19900000000E+03 0.  0.
<mgrwt>
<rscale>  0 0.88308840E+03</rscale>
<asrwt>0</asrwt>
<pdfrwt beam="1">  1        2 0.34664163E+00 0.88308840E+03</pdfrwt>
<pdfrwt beam="2">  1       -2 0.11478141E-01 0.88308840E+03</pdfrwt>
<totfact> 0.26903246E+02</totfact>
</mgrwt>
</event>
<event>
 4    1  0.5023236E-005  0.6875712E+03  0.7818608E-02  0.9738726E-01
          2   -1    0    0  501    0  0.00000000000E+00  0.00000000000E+00  0.50431246384E+03  0.50431246385E+03  0.25500000000E-02 0.  1.
         -2   -1    0    0    0  501 -0.00000000000E+00 -0.00000000000E+00 -0.23435574982E+03  0.23435574984E+03  0.25500000000E-02 0. -1.
    5000001    1    1    2    0    0 -0.27295021322E+03 -0.62053847744E+02  0.11850847989E+03  0.36331495802E+03  0.19900000000E+03 0.  0.
   -5000001    1    1    2    0    0  0.27295021322E+03  0.62053847744E+02  0.15144823413E+03  0.37535325566E+03  0.19900000000E+03 0.  0.
<mgrwt>
<rscale>  0 0.68757116E+03</rscale>
<asrwt>0</asrwt>
<pdfrwt beam="1">  1        2 0.72044639E-01 0.68757116E+03</pdfrwt>
<pdfrwt beam="2">  1       -2 0.33479392E-01 0.68757116E+03</pdfrwt>
<totfact> 0.55721001E+02</totfact>
</mgrwt>
</event>
<event>
 4    1  0.5023236E-005  0.5389612E+03  0.7818608E-02  0.1004082E+00
         -2   -1    0    0    0  501 -0.00000000000E+00  0.00000000000E+00  0.28858702032E+03  0.28858702033E+03  0.25500000000E-02 0. -1.
          2   -1    0    0  501    0  0.00000000000E+00 -0.00000000000E+00 -0.25163913195E+03  0.25163913196E+03  0.25500000000E-02 0.  1.
    5000001    1    1    2    0    0  0.97191558758E+02 -0.15175699092E+03  0.41818172731E+02  0.27170966666E+03  0.19900000000E+03 0.  0.
   -5000001    1    1    2    0    0 -0.97191558758E+02  0.15175699092E+03 -0.48702843582E+01  0.26851648563E+03  0.19900000000E+03 0.  0.
<mgrwt>
<rscale>  0 0.53896118E+03</rscale>
<asrwt>0</asrwt>
<pdfrwt beam="1">  1        2 0.35948447E-01 0.53896118E+03</pdfrwt>
<pdfrwt beam="2">  1       -2 0.41226717E-01 0.53896118E+03</pdfrwt>
<totfact> 0.81226154E+02</totfact>
</mgrwt>
</event>
<event>
 4    1  0.5023236E-005  0.7820556E+03  0.7818608E-02  0.9586360E-01
          2   -1    0    0  501    0  0.00000000000E+00  0.00000000000E+00  0.47009918202E+03  0.47009918202E+03  0.25500000000E-02 0.  1.
         -2   -1    0    0    0  501 -0.00000000000E+00 -0.00000000000E+00 -0.32525631036E+03  0.32525631037E+03  0.25500000000E-02 0. -1.
    5000001    1    1    2    0    0 -0.54832988510E+02  0.21333524673E+03  0.33127531460E+03  0.44481784833E+03  0.19900000000E+03 0.  0.
   -5000001    1    1    2    0    0  0.54832988510E+02 -0.21333524673E+03 -0.18643244295E+03  0.35053764407E+03  0.19900000000E+03 0.  0.
<mgrwt>
<rscale>  0 0.78205556E+03</rscale>
<asrwt>0</asrwt>
<pdfrwt beam="1">  1        2 0.67157026E-01 0.78205556E+03</pdfrwt>
<pdfrwt beam="2">  1       -2 0.46465187E-01 0.78205556E+03</pdfrwt>
<totfact> 0.31839910E+02</totfact>
</mgrwt>
</event>
<event>
 4    1  0.5023236E-005  0.5025645E+03  0.7818608E-02  0.1013112E+00
         -2   -1    0    0    0  501 -0.00000000000E+00  0.00000000000E+00  0.39186081182E+02  0.39186081265E+02  0.25500000000E-02 0. -1.
          2   -1    0    0  501    0  0.00000000000E+00 -0.00000000000E+00 -0.16113568275E+04  0.16113568275E+04  0.25500000000E-02 0.  1.
    5000001    1    1    2    0    0  0.71565186019E-01  0.14121342899E+03 -0.58901661889E+03  0.63756004813E+03  0.19900000000E+03 0.  0.
   -5000001    1    1    2    0    0 -0.71565186019E-01 -0.14121342899E+03 -0.98315412739E+03  0.10129828606E+04  0.19900000000E+03 0.  0.
<mgrwt>
<rscale>  0 0.50256446E+03</rscale>
<asrwt>0</asrwt>
<pdfrwt beam="1">  1        2 0.23019379E+00 0.50256446E+03</pdfrwt>
<pdfrwt beam="2">  1       -2 0.55980126E-02 0.50256446E+03</pdfrwt>
<totfact> 0.22472763E+03</totfact>
</mgrwt>
</event>
<event>
 4    1  0.5023236E-005  0.1178692E+04  0.7818608E-02  0.9131714E-01
          2   -1    0    0  501    0  0.00000000000E+00  0.00000000000E+00  0.15235851106E+04  0.15235851106E+04  0.25500000000E-02 0.  1.
         -2   -1    0    0    0  501 -0.00000000000E+00 -0.00000000000E+00 -0.22796808791E+03  0.22796808793E+03  0.25500000000E-02 0. -1.
    5000001    1    1    2    0    0 -0.47127000949E+03  0.27762237686E+03  0.51033671172E+03  0.77408924893E+03  0.19900000000E+03 0.  0.
   -5000001    1    1    2    0    0  0.47127000949E+03 -0.27762237686E+03  0.78528031099E+03  0.97746394962E+03  0.19900000000E+03 0.  0.
<mgrwt>
<rscale>  0 0.11786921E+04</rscale>
<asrwt>0</asrwt>
<pdfrwt beam="1">  1        2 0.21765503E+00 0.11786921E+04</pdfrwt>
<pdfrwt beam="2">  1       -2 0.32566868E-01 0.11786921E+04</pdfrwt>
<totfact> 0.12317875E+02</totfact>
</mgrwt>
</event>
<event>
 4    1  0.5023236E-005  0.5501002E+03  0.7818608E-02  0.1001471E+00
          2   -1    0    0  501    0  0.00000000000E+00  0.00000000000E+00  0.11946968589E+04  0.11946968589E+04  0.25500000000E-02 0.  1.
         -2   -1    0    0    0  501 -0.00000000000E+00 -0.00000000000E+00 -0.63323643585E+02  0.63323643636E+02  0.25500000000E-02 0. -1.
    5000001    1    1    2    0    0 -0.16218938888E+03 -0.36758780803E+02  0.77522086185E+03  0.81745029847E+03  0.19900000000E+03 0.  0.
   -5000001    1    1    2    0    0  0.16218938888E+03  0.36758780803E+02  0.35615235349E+03  0.44057020409E+03  0.19900000000E+03 0.  0.
<mgrwt>
<rscale>  0 0.55010020E+03</rscale>
<asrwt>0</asrwt>
<pdfrwt beam="1">  1        2 0.17067096E+00 0.55010020E+03</pdfrwt>
<pdfrwt beam="2">  1       -2 0.90462359E-02 0.55010020E+03</pdfrwt>
<totfact> 0.17509826E+03</totfact>
</mgrwt>
</event>
<event>
 4    1  0.5023236E-005  0.5941145E+03  0.7818608E-02  0.9917692E-01
          2   -1    0    0  501    0  0.00000000000E+00  0.00000000000E+00  0.16865691216E+03  0.16865691218E+03  0.25500000000E-02 0.  1.
         -2   -1    0    0    0  501 -0.00000000000E+00 -0.00000000000E+00 -0.52321007126E+03  0.52321007126E+03  0.25500000000E-02 0. -1.
    5000001    1    1    2    0    0 -0.55530421233E+00 -0.20001721554E+03 -0.28548937993E+03  0.40138806775E+03  0.19900000000E+03 0.  0.
   -5000001    1    1    2    0    0  0.55530421233E+00  0.20001721554E+03 -0.69063779162E+02  0.29047891570E+03  0.19900000000E+03 0.  0.
<mgrwt>
<rscale>  0 0.59411445E+03</rscale>
<asrwt>0</asrwt>
<pdfrwt beam="1">  1        2 0.24093845E-01 0.59411445E+03</pdfrwt>
<pdfrwt beam="2">  1       -2 0.74744295E-01 0.59411445E+03</pdfrwt>
<totfact> 0.37156866E+02</totfact>
</mgrwt>
</event>
<event>
 4    1  0.5023236E-005  0.1072343E+04  0.7818608E-02  0.9232575E-01
          2   -1    0    0  501    0  0.00000000000E+00  0.00000000000E+00  0.79308696729E+03  0.79308696729E+03  0.25500000000E-02 0.  1.
         -2   -1    0    0    0  501 -0.00000000000E+00 -0.00000000000E+00 -0.36248239459E+03  0.36248239460E+03  0.25500000000E-02 0. -1.
    5000001    1    1    2    0    0  0.22548134424E+03 -0.65176203431E+02  0.68845747623E+03  0.75409844893E+03  0.19900000000E+03 0.  0.
   -5000001    1    1    2    0    0 -0.22548134424E+03  0.65176203431E+02 -0.25785290354E+03  0.40147091296E+03  0.19900000000E+03 0.  0.
<mgrwt>
<rscale>  0 0.10723433E+04</rscale>
<asrwt>0</asrwt>
<pdfrwt beam="1">  1        2 0.11329814E+00 0.10723433E+04</pdfrwt>
<pdfrwt beam="2">  1       -2 0.51783198E-01 0.10723433E+04</pdfrwt>
<totfact> 0.13462868E+02</totfact>
</mgrwt>
</event>
<event>
 4    1  0.5023236E-005  0.9263406E+03  0.7818608E-02  0.9393240E-01
         -2   -1    0    0    0  501 -0.00000000000E+00  0.00000000000E+00  0.24401674130E+03  0.24401674131E+03  0.25500000000E-02 0. -1.
          2   -1    0    0  501    0  0.00000000000E+00 -0.00000000000E+00 -0.87914755795E+03  0.87914755795E+03  0.25500000000E-02 0.  1.
    5000001    1    1    2    0    0  0.12998291165E+03 -0.35366355794E+03 -0.53766292927E+03  0.68604365389E+03  0.19900000000E+03 0.  0.
   -5000001    1    1    2    0    0 -0.12998291165E+03  0.35366355794E+03 -0.97467887377E+02  0.43712064537E+03  0.19900000000E+03 0.  0.
<mgrwt>
<rscale>  0 0.92634059E+03</rscale>
<asrwt>0</asrwt>
<pdfrwt beam="1">  1        2 0.12559251E+00 0.92634059E+03</pdfrwt>
<pdfrwt beam="2">  1       -2 0.34859535E-01 0.92634059E+03</pdfrwt>
<totfact> 0.25894635E+02</totfact>
</mgrwt>
</event>
<event>
 4    1  0.5023236E-005  0.4583346E+03  0.7818608E-02  0.1025265E+00
          2   -1    0    0  501    0  0.00000000000E+00  0.00000000000E+00  0.13384282517E+03  0.13384282519E+03  0.25500000000E-02 0. -1.
         -2   -1    0    0    0  501 -0.00000000000E+00 -0.00000000000E+00 -0.39238298788E+03  0.39238298789E+03  0.25500000000E-02 0.  1.
    5000001    1    1    2    0    0  0.44090946713E+02  0.89761066570E+02 -0.67275672648E+02  0.23265441492E+03  0.19900000000E+03 0.  0.
   -5000001    1    1    2    0    0 -0.44090946713E+02 -0.89761066570E+02 -0.19126449007E+03  0.29357139815E+03  0.19900000000E+03 0.  0.
<mgrwt>
<rscale>  0 0.45833458E+03</rscale>
<asrwt>0</asrwt>
<pdfrwt beam="1">  1        2 0.19120404E-01 0.45833458E+03</pdfrwt>
<pdfrwt beam="2">  1       -2 0.56054712E-01 0.45833458E+03</pdfrwt>
<totfact> 0.89787993E+02</totfact>
</mgrwt>
</event>
<event>
 4    1  0.5023236E-005  0.7679011E+03  0.7818608E-02  0.9607678E-01
          2   -1    0    0  501    0  0.00000000000E+00  0.00000000000E+00  0.26591472621E+03  0.26591472622E+03  0.25500000000E-02 0.  1.
         -2   -1    0    0    0  501 -0.00000000000E+00 -0.00000000000E+00 -0.55438081354E+03  0.55438081355E+03  0.25500000000E-02 0. -1.
    5000001    1    1    2    0    0 -0.27566021665E+03 -0.11866712922E+03 -0.19273109956E+01  0.36010436977E+03  0.19900000000E+03 0.  0.
   -5000001    1    1    2    0    0  0.27566021665E+03  0.11866712922E+03 -0.28653877634E+03  0.46019117000E+03  0.19900000000E+03 0.  0.
<mgrwt>
<rscale>  0 0.76790109E+03</rscale>
<asrwt>0</asrwt>
<pdfrwt beam="1">  1        2 0.37987818E-01 0.76790109E+03</pdfrwt>
<pdfrwt beam="2">  1       -2 0.79197259E-01 0.76790109E+03</pdfrwt>
<totfact> 0.19451210E+02</totfact>
</mgrwt>
</event>
<event>
 4    1  0.5023236E-005  0.5067857E+03  0.7818608E-02  0.1012023E+00
         -2   -1    0    0    0  501 -0.00000000000E+00  0.00000000000E+00  0.14203046555E+02  0.14203046784E+02  0.25500000000E-02 0. -1.
          2   -1    0    0  501    0  0.00000000000E+00 -0.00000000000E+00 -0.45207148649E+04  0.45207148649E+04  0.25500000000E-02 0.  1.
    5000001    1    1    2    0    0 -0.44665304094E+02 -0.14667078464E+03 -0.25499887376E+04  0.25623330912E+04  0.19900000000E+03 0.  0.
   -5000001    1    1    2    0    0  0.44665304094E+02  0.14667078464E+03 -0.19565230807E+04  0.19725848204E+04  0.19900000000E+03 0.  0.
<mgrwt>
<rscale>  0 0.50678565E+03</rscale>
<asrwt>0</asrwt>
<pdfrwt beam="1">  1        2 0.64581549E+00 0.50678565E+03</pdfrwt>
<pdfrwt beam="2">  1       -2 0.20290096E-02 0.50678565E+03</pdfrwt>
<totfact> 0.22173654E+02</totfact>
</mgrwt>
</event>
<event>
 4    1  0.5023236E-005  0.7094284E+03  0.7818608E-02  0.9701243E-01
          2   -1    0    0  501    0  0.00000000000E+00  0.00000000000E+00  0.38654956666E+04  0.38654956666E+04  0.25500000000E-02 0.  1.
         -2   -1    0    0    0  501 -0.00000000000E+00 -0.00000000000E+00 -0.32550071974E+02  0.32550072074E+02  0.25500000000E-02 0. -1.
    5000001    1    1    2    0    0  0.24951134505E+03  0.90356498068E+02  0.26071577927E+04  0.26281729326E+04  0.19900000000E+03 0.  0.
   -5000001    1    1    2    0    0 -0.24951134505E+03 -0.90356498068E+02  0.12257878020E+04  0.12698728060E+04  0.19900000000E+03 0.  0.
<mgrwt>
<rscale>  0 0.70942840E+03</rscale>
<asrwt>0</asrwt>
<pdfrwt beam="1">  1        2 0.55221358E+00 0.70942840E+03</pdfrwt>
<pdfrwt beam="2">  1       -2 0.46500110E-02 0.70942840E+03</pdfrwt>
<totfact> 0.17643501E+02</totfact>
</mgrwt>
</event>
<event>
 4    1  0.5023236E-005  0.1025342E+04  0.7818608E-02  0.9281179E-01
         -2   -1    0    0    0  501 -0.00000000000E+00  0.00000000000E+00  0.54947767923E+03  0.54947767923E+03  0.25500000000E-02 0. -1.
          2   -1    0    0  501    0  0.00000000000E+00 -0.00000000000E+00 -0.47832989539E+03  0.47832989539E+03  0.25500000000E-02 0.  1.
    5000001    1    1    2    0    0 -0.26507261493E+03 -0.33461047307E+03 -0.16740483865E+03  0.49985301828E+03  0.19900000000E+03 0.  0.
   -5000001    1    1    2    0    0  0.26507261493E+03  0.33461047307E+03  0.23855262249E+03  0.52795455635E+03  0.19900000000E+03 0.  0.
<mgrwt>
<rscale>  0 0.10253421E+04</rscale>
<asrwt>0</asrwt>
<pdfrwt beam="1">  1        2 0.68332842E-01 0.10253421E+04</pdfrwt>
<pdfrwt beam="2">  1       -2 0.78496811E-01 0.10253421E+04</pdfrwt>
<totfact> 0.10170186E+02</totfact>
</mgrwt>
</event>
<event>
 4    1  0.5023236E-005  0.4896151E+03  0.7818608E-02  0.1016526E+00
         -2   -1    0    0    0  501 -0.00000000000E+00  0.00000000000E+00  0.12232398052E+03  0.12232398054E+03  0.25500000000E-02 0. -1.
          2   -1    0    0  501    0  0.00000000000E+00 -0.00000000000E+00 -0.48993456591E+03  0.48993456592E+03  0.25500000000E-02 0.  1.
    5000001    1    1    2    0    0  0.13673745630E+03 -0.26077158081E+02 -0.22240059392E+03  0.32930255739E+03  0.19900000000E+03 0.  0.
   -5000001    1    1    2    0    0 -0.13673745630E+03  0.26077158081E+02 -0.14520999147E+03  0.28295598907E+03  0.19900000000E+03 0.  0.
<mgrwt>
<rscale>  0 0.48961514E+03</rscale>
<asrwt>0</asrwt>
<pdfrwt beam="1">  1        2 0.69990651E-01 0.48961514E+03</pdfrwt>
<pdfrwt beam="2">  1       -2 0.17474855E-01 0.48961514E+03</pdfrwt>
<totfact> 0.18461774E+03</totfact>
</mgrwt>
</event>
<event>
 4    1  0.5023236E-005  0.5626722E+03  0.7818608E-02  0.9986026E-01
         -2   -1    0    0    0  501 -0.00000000000E+00  0.00000000000E+00  0.11042895888E+03  0.11042895891E+03  0.25500000000E-02 0. -1.
          2   -1    0    0  501    0  0.00000000000E+00 -0.00000000000E+00 -0.71675038209E+03  0.71675038209E+03  0.25500000000E-02 0.  1.
    5000001    1    1    2    0    0 -0.57805441586E+02 -0.14800656221E+03 -0.47896778468E+03  0.54245603536E+03  0.19900000000E+03 0.  0.
   -5000001    1    1    2    0    0  0.57805441586E+02  0.14800656221E+03 -0.12735363853E+03  0.28472330565E+03  0.19900000000E+03 0.  0.
<mgrwt>
<rscale>  0 0.56267219E+03</rscale>
<asrwt>0</asrwt>
<pdfrwt beam="1">  1        2 0.10239291E+00 0.56267219E+03</pdfrwt>
<pdfrwt beam="2">  1       -2 0.15775566E-01 0.56267219E+03</pdfrwt>
<totfact> 0.14064481E+03</totfact>
</mgrwt>
</event>
<event>
 4    1  0.5023236E-005  0.6038238E+03  0.7818608E-02  0.9897505E-01
         -2   -1    0    0    0  501 -0.00000000000E+00  0.00000000000E+00  0.37009440195E+03  0.37009440196E+03  0.25500000000E-02 0. -1.
          2   -1    0    0  501    0  0.00000000000E+00 -0.00000000000E+00 -0.24629062609E+03  0.24629062610E+03  0.25500000000E-02 0.  1.
    5000001    1    1    2    0    0 -0.19831774255E+03 -0.96475402716E+01  0.17431439515E+03  0.33077108459E+03  0.19900000000E+03 0.  0.
   -5000001    1    1    2    0    0  0.19831774255E+03  0.96475402716E+01 -0.50510619294E+02  0.28561394347E+03  0.19900000000E+03 0.  0.
<mgrwt>
<rscale>  0 0.60382376E+03</rscale>
<asrwt>0</asrwt>
<pdfrwt beam="1">  1        2 0.35184375E-01 0.60382376E+03</pdfrwt>
<pdfrwt beam="2">  1       -2 0.52870629E-01 0.60382376E+03</pdfrwt>
<totfact> 0.50573838E+02</totfact>
</mgrwt>
</event>
<event>
 4    1  0.5023236E-005  0.4207641E+03  0.7818608E-02  0.1036818E+00
         -2   -1    0    0    0  501 -0.00000000000E+00  0.00000000000E+00  0.13236686960E+03  0.13236686962E+03  0.25500000000E-02 0. -1.
          2   -1    0    0  501    0  0.00000000000E+00 -0.00000000000E+00 -0.33437836106E+03  0.33437836107E+03  0.25500000000E-02 0.  1.
    5000001    1    1    2    0    0  0.12394602846E+02 -0.47364124526E+02 -0.15377099274E+03  0.25620988404E+03  0.19900000000E+03 0.  0.
   -5000001    1    1    2    0    0 -0.12394602846E+02  0.47364124526E+02 -0.48240498716E+02  0.21053534665E+03  0.19900000000E+03 0.  0.
<mgrwt>
<rscale>  0 0.42076415E+03</rscale>
<asrwt>0</asrwt>
<pdfrwt beam="1">  1        2 0.47768337E-01 0.42076415E+03</pdfrwt>
<pdfrwt beam="2">  1       -2 0.18909553E-01 0.42076415E+03</pdfrwt>
<totfact> 0.24567554E+03</totfact>
</mgrwt>
</event>
<event>
 4    1  0.5023236E-005  0.7816796E+03  0.7818608E-02  0.9586920E-01
         -2   -1    0    0    0  501 -0.00000000000E+00  0.00000000000E+00  0.24904913223E+03  0.24904913225E+03  0.25500000000E-02 0. -1.
          2   -1    0    0  501    0  0.00000000000E+00 -0.00000000000E+00 -0.61335594516E+03  0.61335594516E+03  0.25500000000E-02 0.  1.
    5000001    1    1    2    0    0  0.60150639198E+02  0.28056227874E+03 -0.37584430197E+03  0.51302361639E+03  0.19900000000E+03 0.  0.
   -5000001    1    1    2    0    0 -0.60150639198E+02 -0.28056227874E+03  0.11537489044E+02  0.34938146102E+03  0.19900000000E+03 0.  0.
<mgrwt>
<rscale>  0 0.78167964E+03</rscale>
<asrwt>0</asrwt>
<pdfrwt beam="1">  1        2 0.87622278E-01 0.78167964E+03</pdfrwt>
<pdfrwt beam="2">  1       -2 0.35578448E-01 0.78167964E+03</pdfrwt>
<totfact> 0.39407261E+02</totfact>
</mgrwt>
</event>
<event>
 4    1  0.5023236E-005  0.9690001E+03  0.7818608E-02  0.9343214E-01
          2   -1    0    0  501    0  0.00000000000E+00  0.00000000000E+00  0.16042825205E+04  0.16042825205E+04  0.25500000000E-02 0.  1.
         -2   -1    0    0    0  501 -0.00000000000E+00 -0.00000000000E+00 -0.14632103526E+03  0.14632103528E+03  0.25500000000E-02 0. -1.
    5000001    1    1    2    0    0 -0.55496115890E+01 -0.42255399395E+03  0.96144148649E+03  0.10689028992E+04  0.19900000000E+03 0.  0.
   -5000001    1    1    2    0    0  0.55496115890E+01  0.42255399395E+03  0.49651999870E+03  0.68170065652E+03  0.19900000000E+03 0.  0.
<mgrwt>
<rscale>  0 0.96900006E+03</rscale>
<asrwt>0</asrwt>
<pdfrwt beam="1">  1        2 0.22918320E+00 0.96900006E+03</pdfrwt>
<pdfrwt beam="2">  1       -2 0.20903006E-01 0.96900006E+03</pdfrwt>
<totfact> 0.25404331E+02</totfact>
</mgrwt>
</event>
<event>
 4    1  0.5023236E-005  0.1044316E+04  0.7818608E-02  0.9261233E-01
         -2   -1    0    0    0  501 -0.00000000000E+00  0.00000000000E+00  0.11282341811E+03  0.11282341814E+03  0.25500000000E-02 0. -1.
          2   -1    0    0  501    0  0.00000000000E+00 -0.00000000000E+00 -0.24165969971E+04  0.24165969971E+04  0.25500000000E-02 0.  1.
    5000001    1    1    2    0    0  0.34392993683E+03 -0.27995461574E+03 -0.16138980183E+04  0.16855059187E+04  0.19900000000E+03 0.  0.
   -5000001    1    1    2    0    0 -0.34392993683E+03  0.27995461574E+03 -0.68987556065E+03  0.84391449656E+03  0.19900000000E+03 0.  0.
<mgrwt>
<rscale>  0 0.10443155E+04</rscale>
<asrwt>0</asrwt>
<pdfrwt beam="1">  1        2 0.34522811E+00 0.10443155E+04</pdfrwt>
<pdfrwt beam="2">  1       -2 0.16117633E-01 0.10443155E+04</pdfrwt>
<totfact> 0.15196080E+02</totfact>
</mgrwt>
</event>
<event>
 4    1  0.5023236E-005  0.6372301E+03  0.7818608E-02  0.9831041E-01
         -2   -1    0    0    0  501 -0.00000000000E+00  0.00000000000E+00  0.15720711565E+04  0.15720711565E+04  0.25500000000E-02 0. -1.
          2   -1    0    0  501    0  0.00000000000E+00 -0.00000000000E+00 -0.64574388984E+02  0.64574389034E+02  0.25500000000E-02 0.  1.
    5000001    1    1    2    0    0  0.59263958899E+02  0.22365157958E+03  0.51860125093E+03  0.60173125508E+03  0.19900000000E+03 0.  0.
   -5000001    1    1    2    0    0 -0.59263958899E+02 -0.22365157958E+03  0.98889551661E+03  0.10349142905E+04  0.19900000000E+03 0.  0.
<mgrwt>
<rscale>  0 0.63723005E+03</rscale>
<asrwt>0</asrwt>
<pdfrwt beam="1">  1        2 0.92249125E-02 0.63723005E+03</pdfrwt>
<pdfrwt beam="2">  1       -2 0.22458160E+00 0.63723005E+03</pdfrwt>
<totfact> 0.70165887E+01</totfact>
</mgrwt>
</event>
<event>
 4    1  0.5023236E-005  0.7556469E+03  0.7818608E-02  0.9626533E-01
         -2   -1    0    0    0  501 -0.00000000000E+00  0.00000000000E+00  0.67173078770E+02  0.67173078819E+02  0.25500000000E-02 0. -1.
          2   -1    0    0  501    0  0.00000000000E+00 -0.00000000000E+00 -0.21251157352E+04  0.21251157352E+04  0.25500000000E-02 0.  1.
    5000001    1    1    2    0    0 -0.10720082877E+03  0.24117184690E+03 -0.49801311227E+03  0.59772396423E+03  0.19900000000E+03 0.  0.
   -5000001    1    1    2    0    0  0.10720082877E+03 -0.24117184690E+03 -0.15599295442E+04  0.15945648498E+04  0.19900000000E+03 0.  0.
<mgrwt>
<rscale>  0 0.75564692E+03</rscale>
<asrwt>0</asrwt>
<pdfrwt beam="1">  1        2 0.30358792E+00 0.75564692E+03</pdfrwt>
<pdfrwt beam="2">  1       -2 0.95961554E-02 0.75564692E+03</pdfrwt>
<totfact> 0.51888843E+02</totfact>
</mgrwt>
</event>
<event>
 4    1  0.5023236E-005  0.7867262E+03  0.7818608E-02  0.9579432E-01
         -2   -1    0    0    0  501 -0.00000000000E+00  0.00000000000E+00  0.10342049940E+03  0.10342049943E+03  0.25500000000E-02 0. -1.
          2   -1    0    0  501    0  0.00000000000E+00 -0.00000000000E+00 -0.14961688418E+04  0.14961688418E+04  0.25500000000E-02 0.  1.
    5000001    1    1    2    0    0  0.21464586224E+03 -0.12561279051E+03 -0.22704711353E+03  0.39115573763E+03  0.19900000000E+03 0.  0.
   -5000001    1    1    2    0    0 -0.21464586224E+03  0.12561279051E+03 -0.11657012289E+04  0.12084336036E+04  0.19900000000E+03 0.  0.
<mgrwt>
<rscale>  0 0.78672620E+03</rscale>
<asrwt>0</asrwt>
<pdfrwt beam="1">  1        2 0.21373839E+00 0.78672620E+03</pdfrwt>
<pdfrwt beam="2">  1       -2 0.14774358E-01 0.78672620E+03</pdfrwt>
<totfact> 0.53209234E+02</totfact>
</mgrwt>
</event>
<event>
 4    1  0.5023236E-005  0.5279472E+03  0.7818608E-02  0.1006731E+00
          2   -1    0    0  501    0  0.00000000000E+00  0.00000000000E+00  0.31328327317E+03  0.31328327318E+03  0.25500000000E-02 0.  1.
         -2   -1    0    0    0  501 -0.00000000000E+00 -0.00000000000E+00 -0.22242506050E+03  0.22242506052E+03  0.25500000000E-02 0. -1.
    5000001    1    1    2    0    0  0.16604951488E+03  0.32140577980E+02  0.84407255705E+02  0.27446501227E+03  0.19900000000E+03 0.  0.
   -5000001    1    1    2    0    0 -0.16604951488E+03 -0.32140577980E+02  0.64509569628E+01  0.26124332143E+03  0.19900000000E+03 0.  0.
<mgrwt>
<rscale>  0 0.52794716E+03</rscale>
<asrwt>0</asrwt>
<pdfrwt beam="1">  1        2 0.44754753E-01 0.52794716E+03</pdfrwt>
<pdfrwt beam="2">  1       -2 0.31775009E-01 0.52794716E+03</pdfrwt>
<totfact> 0.10470846E+03</totfact>
</mgrwt>
</event>
<event>
 4    1  0.5023236E-005  0.8478316E+03  0.7818608E-02  0.9493252E-01
          2   -1    0    0  501    0  0.00000000000E+00  0.00000000000E+00  0.24084272059E+04  0.24084272059E+04  0.25500000000E-02 0.  1.
         -2   -1    0    0    0  501 -0.00000000000E+00 -0.00000000000E+00 -0.74614920535E+02  0.74614920579E+02  0.25500000000E-02 0. -1.
    5000001    1    1    2    0    0 -0.85380332875E+02  0.27449379158E+03  0.46483098222E+03  0.58164033981E+03  0.19900000000E+03 0.  0.
   -5000001    1    1    2    0    0  0.85380332875E+02 -0.27449379158E+03  0.18689813031E+04  0.19014017866E+04  0.19900000000E+03 0.  0.
<mgrwt>
<rscale>  0 0.84783160E+03</rscale>
<asrwt>0</asrwt>
<pdfrwt beam="1">  1        2 0.34406110E+00 0.84783160E+03</pdfrwt>
<pdfrwt beam="2">  1       -2 0.10659272E-01 0.84783160E+03</pdfrwt>
<totfact> 0.31131238E+02</totfact>
</mgrwt>
</event>
<event>
 4    1  0.5023236E-005  0.6647137E+03  0.7818608E-02  0.9779555E-01
         -2   -1    0    0    0  501 -0.00000000000E+00  0.00000000000E+00  0.10802535590E+03  0.10802535593E+03  0.25500000000E-02 0. -1.
          2   -1    0    0  501    0  0.00000000000E+00 -0.00000000000E+00 -0.10225475834E+04  0.10225475834E+04  0.25500000000E-02 0.  1.
    5000001    1    1    2    0    0  0.16859322592E+03 -0.11865421861E+03 -0.17084433276E+03  0.33360348537E+03  0.19900000000E+03 0.  0.
   -5000001    1    1    2    0    0 -0.16859322592E+03  0.11865421861E+03 -0.74367789474E+03  0.79696945396E+03  0.19900000000E+03 0.  0.
<mgrwt>
<rscale>  0 0.66471367E+03</rscale>
<asrwt>0</asrwt>
<pdfrwt beam="1">  1        2 0.14607822E+00 0.66471367E+03</pdfrwt>
<pdfrwt beam="2">  1       -2 0.15432194E-01 0.66471367E+03</pdfrwt>
<totfact> 0.91256169E+02</totfact>
</mgrwt>
</event>
<event>
 4    1  0.5023236E-005  0.5020307E+03  0.7818608E-02  0.1013250E+00
          2   -1    0    0  501    0  0.00000000000E+00  0.00000000000E+00  0.84663419461E+03  0.84663419462E+03  0.25500000000E-02 0.  1.
         -2   -1    0    0    0  501 -0.00000000000E+00 -0.00000000000E+00 -0.74422579437E+02  0.74422579480E+02  0.25500000000E-02 0. -1.
    5000001    1    1    2    0    0  0.14915041466E+03 -0.29023915339E+02  0.41889788935E+03  0.48802118351E+03  0.19900000000E+03 0.  0.
   -5000001    1    1    2    0    0 -0.14915041466E+03  0.29023915339E+02  0.35331372583E+03  0.43303559058E+03  0.19900000000E+03 0.  0.
<mgrwt>
<rscale>  0 0.50203068E+03</rscale>
<asrwt>0</asrwt>
<pdfrwt beam="1">  1        2 0.12094774E+00 0.50203068E+03</pdfrwt>
<pdfrwt beam="2">  1       -2 0.10631798E-01 0.50203068E+03</pdfrwt>
<totfact> 0.21906906E+03</totfact>
</mgrwt>
</event>
<event>
 4    1  0.5023236E-005  0.9213033E+03  0.7818608E-02  0.9399336E-01
          2   -1    0    0  501    0  0.00000000000E+00  0.00000000000E+00  0.26941109094E+04  0.26941109094E+04  0.25500000000E-02 0.  1.
         -2   -1    0    0    0  501 -0.00000000000E+00 -0.00000000000E+00 -0.78764367606E+02  0.78764367647E+02  0.25500000000E-02 0. -1.
    5000001    1    1    2    0    0 -0.52449693119E+01  0.39930008376E+03  0.96278807621E+03  0.10611455820E+04  0.19900000000E+03 0.  0.
   -5000001    1    1    2    0    0  0.52449693119E+01 -0.39930008376E+03  0.16525584655E+04  0.17117296950E+04  0.19900000000E+03 0.  0.
<mgrwt>
<rscale>  0 0.92130330E+03</rscale>
<asrwt>0</asrwt>
<pdfrwt beam="1">  1        2 0.38487306E+00 0.92130330E+03</pdfrwt>
<pdfrwt beam="2">  1       -2 0.11252050E-01 0.92130330E+03</pdfrwt>
<totfact> 0.20085832E+02</totfact>
</mgrwt>
</event>
<event>
 4    1  0.5023236E-005  0.6821078E+03  0.7818608E-02  0.9748329E-01
          2   -1    0    0  501    0  0.00000000000E+00  0.00000000000E+00  0.13933347591E+03  0.13933347593E+03  0.25500000000E-02 0.  1.
         -2   -1    0    0    0  501 -0.00000000000E+00 -0.00000000000E+00 -0.83481562839E+03  0.83481562839E+03  0.25500000000E-02 0. -1.
    5000001    1    1    2    0    0  0.22663362731E+03 -0.15699853129E+03 -0.38567234345E+03  0.51415512869E+03  0.19900000000E+03 0.  0.
   -5000001    1    1    2    0    0 -0.22663362731E+03  0.15699853129E+03 -0.30980980903E+03  0.45999397564E+03  0.19900000000E+03 0.  0.
<mgrwt>
<rscale>  0 0.68210780E+03</rscale>
<asrwt>0</asrwt>
<pdfrwt beam="1">  1        2 0.19904783E-01 0.68210780E+03</pdfrwt>
<pdfrwt beam="2">  1       -2 0.11925937E+00 0.68210780E+03</pdfrwt>
<totfact> 0.15584408E+02</totfact>
</mgrwt>
</event>
<event>
 4    1  0.5023236E-005  0.5667432E+03  0.7818608E-02  0.9976911E-01
          2   -1    0    0  501    0  0.00000000000E+00  0.00000000000E+00  0.13936654312E+04  0.13936654312E+04  0.25500000000E-02 0.  1.
         -2   -1    0    0    0  501 -0.00000000000E+00 -0.00000000000E+00 -0.57617458711E+02  0.57617458767E+02  0.25500000000E-02 0. -1.
    5000001    1    1    2    0    0  0.16795791401E+03  0.10711606973E+03  0.58645131225E+03  0.65054581308E+03  0.19900000000E+03 0.  0.
   -5000001    1    1    2    0    0 -0.16795791401E+03 -0.10711606973E+03  0.74959666028E+03  0.80073707693E+03  0.19900000000E+03 0.  0.
<mgrwt>
<rscale>  0 0.56674319E+03</rscale>
<asrwt>0</asrwt>
<pdfrwt beam="1">  1        2 0.19909507E+00 0.56674319E+03</pdfrwt>
<pdfrwt beam="2">  1       -2 0.82310653E-02 0.56674319E+03</pdfrwt>
<totfact> 0.15867563E+03</totfact>
</mgrwt>
</event>
<event>
 4    1  0.5023236E-005  0.1033051E+04  0.7818608E-02  0.9273020E-01
          2   -1    0    0  501    0  0.00000000000E+00  0.00000000000E+00  0.14953978882E+04  0.14953978882E+04  0.25500000000E-02 0. -1.
         -2   -1    0    0    0  501 -0.00000000000E+00 -0.00000000000E+00 -0.17841299622E+03  0.17841299624E+03  0.25500000000E-02 0.  1.
    5000001    1    1    2    0    0  0.42291705822E+03  0.15327463784E+03  0.40309983258E+03  0.63595788207E+03  0.19900000000E+03 0.  0.
   -5000001    1    1    2    0    0 -0.42291705822E+03 -0.15327463784E+03  0.91388505939E+03  0.10378530024E+04  0.19900000000E+03 0.  0.
<mgrwt>
<rscale>  0 0.10330507E+04</rscale>
<asrwt>0</asrwt>
<pdfrwt beam="1">  1        2 0.21362827E+00 0.10330507E+04</pdfrwt>
<pdfrwt beam="2">  1       -2 0.25487571E-01 0.10330507E+04</pdfrwt>
<totfact> 0.20248506E+02</totfact>
</mgrwt>
</event>
<event>
 4    1  0.5023236E-005  0.8498917E+03  0.7818608E-02  0.9490482E-01
          2   -1    0    0  501    0  0.00000000000E+00  0.00000000000E+00  0.53095847101E+03  0.53095847102E+03  0.25500000000E-02 0. -1.
         -2   -1    0    0    0  501 -0.00000000000E+00 -0.00000000000E+00 -0.34009996006E+03  0.34009996007E+03  0.25500000000E-02 0.  1.
    5000001    1    1    2    0    0 -0.28993359572E+03 -0.18666021082E+03 -0.56845699637E+02  0.40216409313E+03  0.19900000000E+03 0.  0.
   -5000001    1    1    2    0    0  0.28993359572E+03  0.18666021082E+03  0.24770421059E+03  0.46889433797E+03  0.19900000000E+03 0.  0.
<mgrwt>
<rscale>  0 0.84989165E+03</rscale>
<asrwt>0</asrwt>
<pdfrwt beam="1">  1        2 0.75851210E-01 0.84989165E+03</pdfrwt>
<pdfrwt beam="2">  1       -2 0.48585708E-01 0.84989165E+03</pdfrwt>
<totfact> 0.25246196E+02</totfact>
</mgrwt>
</event>
<event>
 4    1  0.5023236E-005  0.9822035E+03  0.7818608E-02  0.9328282E-01
         -2   -1    0    0    0  501 -0.00000000000E+00  0.00000000000E+00  0.38773725692E+03  0.38773725693E+03  0.25500000000E-02 0. -1.
          2   -1    0    0  501    0  0.00000000000E+00 -0.00000000000E+00 -0.62202156350E+03  0.62202156351E+03  0.25500000000E-02 0.  1.
    5000001    1    1    2    0    0 -0.10384715075E+03 -0.42555193743E+03 -0.15883982092E+02  0.48138548281E+03  0.19900000000E+03 0.  0.
   -5000001    1    1    2    0    0  0.10384715075E+03  0.42555193743E+03 -0.21840032449E+03  0.52837333762E+03  0.19900000000E+03 0.  0.
<mgrwt>
<rscale>  0 0.98220351E+03</rscale>
<asrwt>0</asrwt>
<pdfrwt beam="1">  1        2 0.88860223E-01 0.98220351E+03</pdfrwt>
<pdfrwt beam="2">  1       -2 0.55391037E-01 0.98220351E+03</pdfrwt>
<totfact> 0.15914325E+02</totfact>
</mgrwt>
</event>
<event>
 4    1  0.5023236E-005  0.6963567E+03  0.7818608E-02  0.9723483E-01
          2   -1    0    0  501    0  0.00000000000E+00  0.00000000000E+00  0.13417965978E+04  0.13417965978E+04  0.25500000000E-02 0.  1.
         -2   -1    0    0    0  501 -0.00000000000E+00 -0.00000000000E+00 -0.90347650656E+02  0.90347650692E+02  0.25500000000E-02 0. -1.
    5000001    1    1    2    0    0  0.29520882958E+02 -0.22880449035E+03  0.27911037836E+03  0.41319073155E+03  0.19900000000E+03 0.  0.
   -5000001    1    1    2    0    0 -0.29520882958E+02  0.22880449035E+03  0.97233856876E+03  0.10189535169E+04  0.19900000000E+03 0.  0.
<mgrwt>
<rscale>  0 0.69635672E+03</rscale>
<asrwt>0</asrwt>
<pdfrwt beam="1">  1        2 0.19168523E+00 0.69635672E+03</pdfrwt>
<pdfrwt beam="2">  1       -2 0.12906807E-01 0.69635672E+03</pdfrwt>
<totfact> 0.80993889E+02</totfact>
</mgrwt>
</event>
<event>
 4    1  0.5023236E-005  0.9298011E+03  0.7818608E-02  0.9389077E-01
         -2   -1    0    0    0  501 -0.00000000000E+00  0.00000000000E+00  0.10445627393E+03  0.10445627396E+03  0.25500000000E-02 0. -1.
          2   -1    0    0  501    0  0.00000000000E+00 -0.00000000000E+00 -0.20691197865E+04  0.20691197865E+04  0.25500000000E-02 0.  1.
    5000001    1    1    2    0    0 -0.40743054858E+03 -0.10620643031E+02 -0.74371566486E+03  0.87110644592E+03  0.19900000000E+03 0.  0.
   -5000001    1    1    2    0    0  0.40743054858E+03  0.10620643031E+02 -0.12209478477E+04  0.13024696145E+04  0.19900000000E+03 0.  0.
<mgrwt>
<rscale>  0 0.92980115E+03</rscale>
<asrwt>0</asrwt>
<pdfrwt beam="1">  1        2 0.29558852E+00 0.92980115E+03</pdfrwt>
<pdfrwt beam="2">  1       -2 0.14922326E-01 0.92980115E+03</pdfrwt>
<totfact> 0.26340401E+02</totfact>
</mgrwt>
</event>
<event>
 4    1  0.5023236E-005  0.5198271E+03  0.7818608E-02  0.1008730E+00
         -2   -1    0    0    0  501 -0.00000000000E+00  0.00000000000E+00  0.22674041749E+03  0.22674041750E+03  0.25500000000E-02 0. -1.
          2   -1    0    0  501    0  0.00000000000E+00 -0.00000000000E+00 -0.29794007564E+03  0.29794007565E+03  0.25500000000E-02 0.  1.
    5000001    1    1    2    0    0 -0.16161252253E+03  0.39050332939E+02 -0.17813692702E+02  0.25992665040E+03  0.19900000000E+03 0.  0.
   -5000001    1    1    2    0    0  0.16161252253E+03 -0.39050332939E+02 -0.53385965447E+02  0.26475384275E+03  0.19900000000E+03 0.  0.
<mgrwt>
<rscale>  0 0.51982711E+03</rscale>
<asrwt>0</asrwt>
<pdfrwt beam="1">  1        2 0.42562868E-01 0.51982711E+03</pdfrwt>
<pdfrwt beam="2">  1       -2 0.32391488E-01 0.51982711E+03</pdfrwt>
<totfact> 0.10676115E+03</totfact>
</mgrwt>
</event>
<event>
 4    1  0.5023236E-005  0.5186521E+03  0.7818608E-02  0.1009022E+00
         -2   -1    0    0    0  501 -0.00000000000E+00  0.00000000000E+00  0.24511740119E+02  0.24511740251E+02  0.25500000000E-02 0. -1.
          2   -1    0    0  501    0  0.00000000000E+00 -0.00000000000E+00 -0.27435837593E+04  0.27435837593E+04  0.25500000000E-02 0.  1.
    5000001    1    1    2    0    0 -0.36623243536E+02 -0.15295301943E+03 -0.10714750602E+04  0.11010884128E+04  0.19900000000E+03 0.  0.
   -5000001    1    1    2    0    0  0.36623243536E+02  0.15295301943E+03 -0.16475969590E+04  0.16670070868E+04  0.19900000000E+03 0.  0.
<mgrwt>
<rscale>  0 0.51865215E+03</rscale>
<asrwt>0</asrwt>
<pdfrwt beam="1">  1        2 0.39194034E+00 0.51865215E+03</pdfrwt>
<pdfrwt beam="2">  1       -2 0.35016789E-02 0.51865215E+03</pdfrwt>
<totfact> 0.12355270E+03</totfact>
</mgrwt>
</event>
<event>
 4    1  0.5023236E-005  0.6316065E+03  0.7818608E-02  0.9841919E-01
          2   -1    0    0  501    0  0.00000000000E+00  0.00000000000E+00  0.14557394561E+03  0.14557394563E+03  0.25500000000E-02 0.  1.
         -2   -1    0    0    0  501 -0.00000000000E+00 -0.00000000000E+00 -0.68509311391E+03  0.68509311392E+03  0.25500000000E-02 0. -1.
    5000001    1    1    2    0    0  0.12626780770E+03 -0.20208976087E+03 -0.34584479379E+03  0.46475095707E+03  0.19900000000E+03 0.  0.
   -5000001    1    1    2    0    0 -0.12626780770E+03  0.20208976087E+03 -0.19367437451E+03  0.36591610248E+03  0.19900000000E+03 0.  0.
<mgrwt>
<rscale>  0 0.63160655E+03</rscale>
<asrwt>0</asrwt>
<pdfrwt beam="1">  1        2 0.20796278E-01 0.63160655E+03</pdfrwt>
<pdfrwt beam="2">  1       -2 0.97870444E-01 0.63160655E+03</pdfrwt>
<totfact> 0.23852079E+02</totfact>
</mgrwt>
</event>
<event>
 4    1  0.5023236E-005  0.1095698E+04  0.7818608E-02  0.9209395E-01
          2   -1    0    0  501    0  0.00000000000E+00  0.00000000000E+00  0.15759708925E+04  0.15759708925E+04  0.25500000000E-02 0.  1.
         -2   -1    0    0    0  501 -0.00000000000E+00 -0.00000000000E+00 -0.19044672010E+03  0.19044672012E+03  0.25500000000E-02 0. -1.
    5000001    1    1    2    0    0 -0.17761937540E+03 -0.38369968531E+03  0.23178216671E+03  0.52163019835E+03  0.19900000000E+03 0.  0.
   -5000001    1    1    2    0    0  0.17761937540E+03  0.38369968531E+03  0.11537420056E+04  0.12447874142E+04  0.19900000000E+03 0.  0.
<mgrwt>
<rscale>  0 0.10956979E+04</rscale>
<asrwt>0</asrwt>
<pdfrwt beam="1">  1        2 0.22513871E+00 0.10956979E+04</pdfrwt>
<pdfrwt beam="2">  1       -2 0.27206673E-01 0.10956979E+04</pdfrwt>
<totfact> 0.16237116E+02</totfact>
</mgrwt>
</event>
<event>
 4    1  0.5023236E-005  0.6890053E+03  0.7818608E-02  0.9736221E-01
          2   -1    0    0  501    0  0.00000000000E+00  0.00000000000E+00  0.36158882104E+04  0.36158882104E+04  0.25500000000E-02 0.  1.
         -2   -1    0    0    0  501 -0.00000000000E+00 -0.00000000000E+00 -0.32822388234E+02  0.32822388333E+02  0.25500000000E-02 0. -1.
    5000001    1    1    2    0    0  0.11208768088E+03  0.25602213075E+03  0.19564731803E+04  0.19863280910E+04  0.19900000000E+03 0.  0.
   -5000001    1    1    2    0    0 -0.11208768088E+03 -0.25602213075E+03  0.16265926419E+04  0.16623825078E+04  0.19900000000E+03 0.  0.
<mgrwt>
<rscale>  0 0.68900533E+03</rscale>
<asrwt>0</asrwt>
<pdfrwt beam="1">  1        2 0.51655525E+00 0.68900533E+03</pdfrwt>
<pdfrwt beam="2">  1       -2 0.46889145E-02 0.68900533E+03</pdfrwt>
<totfact> 0.25060929E+02</totfact>
</mgrwt>
</event>
<event>
 4    1  0.5023236E-005  0.1013644E+04  0.7818608E-02  0.9293706E-01
         -2   -1    0    0    0  501 -0.00000000000E+00  0.00000000000E+00  0.11016587449E+03  0.11016587452E+03  0.25500000000E-02 0. -1.
          2   -1    0    0  501    0  0.00000000000E+00 -0.00000000000E+00 -0.23316511414E+04  0.23316511414E+04  0.25500000000E-02 0.  1.
    5000001    1    1    2    0    0  0.46370539414E+03 -0.42298853943E+02 -0.10593296668E+04  0.11741346722E+04  0.19900000000E+03 0.  0.
   -5000001    1    1    2    0    0 -0.46370539414E+03  0.42298853943E+02 -0.11621556001E+04  0.12676823437E+04  0.19900000000E+03 0.  0.
<mgrwt>
<rscale>  0 0.10136437E+04</rscale>
<asrwt>0</asrwt>
<pdfrwt beam="1">  1        2 0.33309299E+00 0.10136437E+04</pdfrwt>
<pdfrwt beam="2">  1       -2 0.15737983E-01 0.10136437E+04</pdfrwt>
<totfact> 0.17552703E+02</totfact>
</mgrwt>
</event>
<event>
 4    1  0.5023236E-005  0.4281393E+03  0.7818608E-02  0.1034449E+00
         -2   -1    0    0    0  501 -0.00000000000E+00  0.00000000000E+00  0.15052163224E+03  0.15052163227E+03  0.25500000000E-02 0. -1.
          2   -1    0    0  501    0  0.00000000000E+00 -0.00000000000E+00 -0.30444676830E+03  0.30444676831E+03  0.25500000000E-02 0.  1.
    5000001    1    1    2    0    0  0.76895327251E+02  0.97666044829E+01 -0.92600228053E+02  0.23277474122E+03  0.19900000000E+03 0.  0.
   -5000001    1    1    2    0    0 -0.76895327251E+02 -0.97666044829E+01 -0.61324908006E+02  0.22219365936E+03  0.19900000000E+03 0.  0.
<mgrwt>
<rscale>  0 0.42813934E+03</rscale>
<asrwt>0</asrwt>
<pdfrwt beam="1">  1        2 0.43492395E-01 0.42813934E+03</pdfrwt>
<pdfrwt beam="2">  1       -2 0.21503090E-01 0.42813934E+03</pdfrwt>
<totfact> 0.21793997E+03</totfact>
</mgrwt>
</event>
<event>
 4    1  0.5023236E-005  0.4925449E+03  0.7818608E-02  0.1015743E+00
          2   -1    0    0  501    0  0.00000000000E+00  0.00000000000E+00  0.35376585677E+03  0.35376585678E+03  0.25500000000E-02 0.  1.
         -2   -1    0    0    0  501 -0.00000000000E+00 -0.00000000000E+00 -0.17144142623E+03  0.17144142625E+03  0.25500000000E-02 0. -1.
    5000001    1    1    2    0    0 -0.21829217236E+02 -0.13083484944E+03  0.15383796389E+03  0.28436137516E+03  0.19900000000E+03 0.  0.
   -5000001    1    1    2    0    0  0.21829217236E+02  0.13083484944E+03  0.28486466651E+02  0.24084590786E+03  0.19900000000E+03 0.  0.
<mgrwt>
<rscale>  0 0.49254491E+03</rscale>
<asrwt>0</asrwt>
<pdfrwt beam="1">  1        2 0.50537980E-01 0.49254491E+03</pdfrwt>
<pdfrwt beam="2">  1       -2 0.24491632E-01 0.49254491E+03</pdfrwt>
<totfact> 0.14715149E+03</totfact>
</mgrwt>
</event>
<event>
 4    1  0.5023236E-005  0.7007864E+03  0.7818608E-02  0.9715888E-01
          2   -1    0    0  501    0  0.00000000000E+00  0.00000000000E+00  0.41012564380E+04  0.41012564380E+04  0.25500000000E-02 0.  1.
         -2   -1    0    0    0  501 -0.00000000000E+00 -0.00000000000E+00 -0.29936043179E+02  0.29936043288E+02  0.25500000000E-02 0. -1.
    5000001    1    1    2    0    0  0.14797218189E+03 -0.22812809073E+03  0.14691126259E+04  0.15072594667E+04  0.19900000000E+03 0.  0.
   -5000001    1    1    2    0    0 -0.14797218189E+03  0.22812809073E+03  0.26022077690E+04  0.26239330146E+04  0.19900000000E+03 0.  0.
<mgrwt>
<rscale>  0 0.70078639E+03</rscale>
<asrwt>0</asrwt>
<pdfrwt beam="1">  1        2 0.58589334E+00 0.70078639E+03</pdfrwt>
<pdfrwt beam="2">  1       -2 0.42765808E-02 0.70078639E+03</pdfrwt>
<totfact> 0.13999419E+02</totfact>
</mgrwt>
</event>
<event>
 4    1  0.5023236E-005  0.8624952E+03  0.7818608E-02  0.9473718E-01
          2   -1    0    0  501    0  0.00000000000E+00  0.00000000000E+00  0.44268014712E+03  0.44268014713E+03  0.25500000000E-02 0.  1.
         -2   -1    0    0    0  501 -0.00000000000E+00 -0.00000000000E+00 -0.42011033872E+03  0.42011033873E+03  0.25500000000E-02 0. -1.
    5000001    1    1    2    0    0 -0.15814973453E+03 -0.17129199110E+03  0.31473874721E+03  0.43933331736E+03  0.19900000000E+03 0.  0.
   -5000001    1    1    2    0    0  0.15814973453E+03  0.17129199110E+03 -0.29216893881E+03  0.42345716850E+03  0.19900000000E+03 0.  0.
<mgrwt>
<rscale>  0 0.86249523E+03</rscale>
<asrwt>0</asrwt>
<pdfrwt beam="1">  1        2 0.63240021E-01 0.86249523E+03</pdfrwt>
<pdfrwt beam="2">  1       -2 0.60015763E-01 0.86249523E+03</pdfrwt>
<totfact> 0.20069178E+02</totfact>
</mgrwt>
</event>
<event>
 4    1  0.5023236E-005  0.4790850E+03  0.7818608E-02  0.1019387E+00
          2   -1    0    0  501    0  0.00000000000E+00  0.00000000000E+00  0.38444119312E+04  0.38444119312E+04  0.25500000000E-02 0.  1.
         -2   -1    0    0    0  501 -0.00000000000E+00 -0.00000000000E+00 -0.14925718142E+02  0.14925718360E+02  0.25500000000E-02 0. -1.
    5000001    1    1    2    0    0 -0.11621400488E+03 -0.61705499270E+02  0.17407811761E+04  0.17570524656E+04  0.19900000000E+03 0.  0.
   -5000001    1    1    2    0    0  0.11621400488E+03  0.61705499270E+02  0.20887050369E+04  0.21022851840E+04  0.19900000000E+03 0.  0.
<mgrwt>
<rscale>  0 0.47908500E+03</rscale>
<asrwt>0</asrwt>
<pdfrwt beam="1">  1        2 0.54920178E+00 0.47908500E+03</pdfrwt>
<pdfrwt beam="2">  1       -2 0.21322452E-02 0.47908500E+03</pdfrwt>
<totfact> 0.61579484E+02</totfact>
</mgrwt>
</event>
<event>
 4    1  0.5023236E-005  0.8419836E+03  0.7818608E-02  0.9501160E-01
         -2   -1    0    0    0  501 -0.00000000000E+00  0.00000000000E+00  0.20725566411E+03  0.20725566412E+03  0.25500000000E-02 0. -1.
          2   -1    0    0  501    0  0.00000000000E+00 -0.00000000000E+00 -0.85514725188E+03  0.85514725188E+03  0.25500000000E-02 0.  1.
    5000001    1    1    2    0    0  0.30855955075E+03 -0.16454772915E+03 -0.16762607616E+03  0.43587206029E+03  0.19900000000E+03 0.  0.
   -5000001    1    1    2    0    0 -0.30855955075E+03  0.16454772915E+03 -0.48026551161E+03  0.62653085572E+03  0.19900000000E+03 0.  0.
<mgrwt>
<rscale>  0 0.84198364E+03</rscale>
<asrwt>0</asrwt>
<pdfrwt beam="1">  1        2 0.12216389E+00 0.84198364E+03</pdfrwt>
<pdfrwt beam="2">  1       -2 0.29607953E-01 0.84198364E+03</pdfrwt>
<totfact> 0.36651871E+02</totfact>
</mgrwt>
</event>
<event>
 4    1  0.5023236E-005  0.7037166E+03  0.7818608E-02  0.9710897E-01
         -2   -1    0    0    0  501 -0.00000000000E+00  0.00000000000E+00  0.83291891480E+02  0.83291891519E+02  0.25500000000E-02 0. -1.
          2   -1    0    0  501    0  0.00000000000E+00 -0.00000000000E+00 -0.14863902446E+04  0.14863902446E+04  0.25500000000E-02 0.  1.
    5000001    1    1    2    0    0  0.22298734813E+03 -0.17597157794E+03 -0.83377269666E+03  0.90303226042E+03  0.19900000000E+03 0.  0.
   -5000001    1    1    2    0    0 -0.22298734813E+03  0.17597157794E+03 -0.56932565649E+03  0.66664987573E+03  0.19900000000E+03 0.  0.
<mgrwt>
<rscale>  0 0.70371658E+03</rscale>
<asrwt>0</asrwt>
<pdfrwt beam="1">  1        2 0.21234145E+00 0.70371658E+03</pdfrwt>
<pdfrwt beam="2">  1       -2 0.11898843E-01 0.70371658E+03</pdfrwt>
<totfact> 0.77585747E+02</totfact>
</mgrwt>
</event>
<event>
 4    1  0.5023236E-005  0.6860254E+03  0.7818608E-02  0.9741434E-01
         -2   -1    0    0    0  501 -0.00000000000E+00  0.00000000000E+00  0.43231539207E+02  0.43231539282E+02  0.25500000000E-02 0.  1.
          2   -1    0    0  501    0  0.00000000000E+00 -0.00000000000E+00 -0.27215712584E+04  0.27215712584E+04  0.25500000000E-02 0. -1.
    5000001    1    1    2    0    0 -0.22935990888E+03 -0.15952189209E+03 -0.13467234118E+04  0.13897187304E+04  0.19900000000E+03 0.  0.
   -5000001    1    1    2    0    0  0.22935990888E+03  0.15952189209E+03 -0.13316163073E+04  0.13750840672E+04  0.19900000000E+03 0.  0.
<mgrwt>
<rscale>  0 0.68602541E+03</rscale>
<asrwt>0</asrwt>
<pdfrwt beam="1">  1        2 0.38879578E+00 0.68602541E+03</pdfrwt>
<pdfrwt beam="2">  1       -2 0.61759359E-02 0.68602541E+03</pdfrwt>
<totfact> 0.52025425E+02</totfact>
</mgrwt>
</event>
<event>
 4    1  0.5023236E-005  0.1097874E+04  0.7818608E-02  0.9207267E-01
         -2   -1    0    0    0  501 -0.00000000000E+00  0.00000000000E+00  0.11946667939E+03  0.11946667942E+03  0.25500000000E-02 0. -1.
          2   -1    0    0  501    0  0.00000000000E+00 -0.00000000000E+00 -0.25223068822E+04  0.25223068822E+04  0.25500000000E-02 0.  1.
    5000001    1    1    2    0    0 -0.46725822049E+03  0.20551042956E+03 -0.12835807573E+04  0.13956164738E+04  0.19900000000E+03 0.  0.
   -5000001    1    1    2    0    0  0.46725822049E+03 -0.20551042956E+03 -0.11192594455E+04  0.12461570878E+04  0.19900000000E+03 0.  0.
<mgrwt>
<rscale>  0 0.10978736E+04</rscale>
<asrwt>0</asrwt>
<pdfrwt beam="1">  1        2 0.36032952E+00 0.10978736E+04</pdfrwt>
<pdfrwt beam="2">  1       -2 0.17066670E-01 0.10978736E+04</pdfrwt>
<totfact> 0.12083417E+02</totfact>
</mgrwt>
</event>
<event>
 4    1  0.5023236E-005  0.5666086E+03  0.7818608E-02  0.9977211E-01
         -2   -1    0    0    0  501 -0.00000000000E+00  0.00000000000E+00  0.41625799580E+02  0.41625799658E+02  0.25500000000E-02 0. -1.
          2   -1    0    0  501    0  0.00000000000E+00 -0.00000000000E+00 -0.19281633016E+04  0.19281633016E+04  0.25500000000E-02 0.  1.
    5000001    1    1    2    0    0  0.19276674051E+03  0.51634895547E+02 -0.10437353076E+04  0.10811149666E+04  0.19900000000E+03 0.  0.
   -5000001    1    1    2    0    0 -0.19276674051E+03 -0.51634895547E+02 -0.84280219446E+03  0.88867413469E+03  0.19900000000E+03 0.  0.
<mgrwt>
<rscale>  0 0.56660865E+03</rscale>
<asrwt>0</asrwt>
<pdfrwt beam="1">  1        2 0.27545184E+00 0.56660865E+03</pdfrwt>
<pdfrwt beam="2">  1       -2 0.59465440E-02 0.56660865E+03</pdfrwt>
<totfact> 0.14122804E+03</totfact>
</mgrwt>
</event>
<event>
 4    1  0.5023236E-005  0.9605330E+03  0.7818608E-02  0.9352923E-01
         -2   -1    0    0    0  501 -0.00000000000E+00  0.00000000000E+00  0.11012045014E+04  0.11012045014E+04  0.25500000000E-02 0. -1.
          2   -1    0    0  501    0  0.00000000000E+00 -0.00000000000E+00 -0.20945785371E+03  0.20945785372E+03  0.25500000000E-02 0.  1.
    5000001    1    1    2    0    0 -0.42012101245E+03  0.82724951925E+02  0.56568563383E+03  0.73684891199E+03  0.19900000000E+03 0.  0.
   -5000001    1    1    2    0    0  0.42012101245E+03 -0.82724951925E+02  0.32606101388E+03  0.57381344315E+03  0.19900000000E+03 0.  0.
<mgrwt>
<rscale>  0 0.96053304E+03</rscale>
<asrwt>0</asrwt>
<pdfrwt beam="1">  1        2 0.29922551E-01 0.96053304E+03</pdfrwt>
<pdfrwt beam="2">  1       -2 0.15731493E+00 0.96053304E+03</pdfrwt>
<totfact> 0.47109631E+01</totfact>
</mgrwt>
</event>
<event>
 4    1  0.5023236E-005  0.4516782E+03  0.7818608E-02  0.1027223E+00
         -2   -1    0    0    0  501 -0.00000000000E+00  0.00000000000E+00  0.23764725444E+02  0.23764725581E+02  0.25500000000E-02 0. -1.
          2   -1    0    0  501    0  0.00000000000E+00 -0.00000000000E+00 -0.21461767719E+04  0.21461767719E+04  0.25500000000E-02 0.  1.
    5000001    1    1    2    0    0 -0.98347233913E+02 -0.40445712406E+02 -0.11078505416E+04  0.11305935860E+04  0.19900000000E+03 0.  0.
   -5000001    1    1    2    0    0  0.98347233913E+02  0.40445712406E+02 -0.10145615049E+04  0.10393479116E+04  0.19900000000E+03 0.  0.
<mgrwt>
<rscale>  0 0.45167821E+03</rscale>
<asrwt>0</asrwt>
<pdfrwt beam="1">  1        2 0.30659656E+00 0.45167821E+03</pdfrwt>
<pdfrwt beam="2">  1       -2 0.33949621E-02 0.45167821E+03</pdfrwt>
<totfact> 0.26167491E+03</totfact>
</mgrwt>
</event>
<event>
 4    1  0.5023236E-005  0.4385382E+03  0.7818608E-02  0.1031196E+00
          2   -1    0    0  501    0  0.00000000000E+00  0.00000000000E+00  0.51836991480E+03  0.51836991480E+03  0.25500000000E-02 0.  1.
         -2   -1    0    0    0  501 -0.00000000000E+00 -0.00000000000E+00 -0.92750240222E+02  0.92750240257E+02  0.25500000000E-02 0. -1.
    5000001    1    1    2    0    0  0.34572582991E+02 -0.76043742431E+02  0.15883793780E+03  0.26797090279E+03  0.19900000000E+03 0.  0.
   -5000001    1    1    2    0    0 -0.34572582991E+02  0.76043742431E+02  0.26678173677E+03  0.34314925227E+03  0.19900000000E+03 0.  0.
<mgrwt>
<rscale>  0 0.43853818E+03</rscale>
<asrwt>0</asrwt>
<pdfrwt beam="1">  1        2 0.74052843E-01 0.43853818E+03</pdfrwt>
<pdfrwt beam="2">  1       -2 0.13250035E-01 0.43853818E+03</pdfrwt>
<totfact> 0.27522975E+03</totfact>
</mgrwt>
</event>
<event>
 4    1  0.5023236E-005  0.4904423E+03  0.7818608E-02  0.1016304E+00
         -2   -1    0    0    0  501 -0.00000000000E+00  0.00000000000E+00  0.28624921121E+02  0.28624921234E+02  0.25500000000E-02 0. -1.
          2   -1    0    0  501    0  0.00000000000E+00 -0.00000000000E+00 -0.21007359685E+04  0.21007359685E+04  0.25500000000E-02 0.  1.
    5000001    1    1    2    0    0 -0.40412456257E+02  0.74639056175E+02 -0.53481301495E+03  0.57691430585E+03  0.19900000000E+03 0.  0.
   -5000001    1    1    2    0    0  0.40412456257E+02 -0.74639056175E+02 -0.15372980324E+04  0.15524465839E+04  0.19900000000E+03 0.  0.
<mgrwt>
<rscale>  0 0.49044226E+03</rscale>
<asrwt>0</asrwt>
<pdfrwt beam="1">  1        2 0.30010504E+00 0.49044226E+03</pdfrwt>
<pdfrwt beam="2">  1       -2 0.40892758E-02 0.49044226E+03</pdfrwt>
<totfact> 0.20730253E+03</totfact>
</mgrwt>
</event>
<event>
 4    1  0.5023236E-005  0.1417752E+04  0.7818608E-02  0.8941068E-01
         -2   -1    0    0    0  501 -0.00000000000E+00  0.00000000000E+00  0.46877219042E+03  0.46877219043E+03  0.25500000000E-02 0. -1.
          2   -1    0    0  501    0  0.00000000000E+00 -0.00000000000E+00 -0.10719599589E+04  0.10719599589E+04  0.25500000000E-02 0.  1.
    5000001    1    1    2    0    0 -0.13593141717E+03  0.39150810732E+03  0.28479253735E+03  0.54079916568E+03  0.19900000000E+03 0.  0.
   -5000001    1    1    2    0    0  0.13593141717E+03 -0.39150810732E+03 -0.88798030582E+03  0.99993298365E+03  0.19900000000E+03 0.  0.
<mgrwt>
<rscale>  0 0.14177518E+04</rscale>
<asrwt>0</asrwt>
<pdfrwt beam="1">  1        2 0.15313714E+00 0.14177518E+04</pdfrwt>
<pdfrwt beam="2">  1       -2 0.66967456E-01 0.14177518E+04</pdfrwt>
<totfact> 0.50598044E+01</totfact>
</mgrwt>
</event>
<event>
 4    1  0.5023236E-005  0.6144093E+03  0.7818608E-02  0.9875954E-01
          2   -1    0    0  501    0  0.00000000000E+00  0.00000000000E+00  0.91742235500E+03  0.91742235500E+03  0.25500000000E-02 0. -1.
         -2   -1    0    0    0  501 -0.00000000000E+00 -0.00000000000E+00 -0.10286942317E+03  0.10286942320E+03  0.25500000000E-02 0.  1.
    5000001    1    1    2    0    0 -0.20881159915E+03  0.10313838433E+03  0.44564682069E+03  0.54077897431E+03  0.19900000000E+03 0.  0.
   -5000001    1    1    2    0    0  0.20881159915E+03 -0.10313838433E+03  0.36890611114E+03  0.47951280389E+03  0.19900000000E+03 0.  0.
<mgrwt>
<rscale>  0 0.61440934E+03</rscale>
<asrwt>0</asrwt>
<pdfrwt beam="1">  1        2 0.13106035E+00 0.61440934E+03</pdfrwt>
<pdfrwt beam="2">  1       -2 0.14695630E-01 0.61440934E+03</pdfrwt>
<totfact> 0.11532399E+03</totfact>
</mgrwt>
</event>
<event>
 4    1  0.5023236E-005  0.6782851E+03  0.7818608E-02  0.9755105E-01
          2   -1    0    0  501    0  0.00000000000E+00  0.00000000000E+00  0.31812567216E+04  0.31812567216E+04  0.25500000000E-02 0. -1.
         -2   -1    0    0    0  501 -0.00000000000E+00 -0.00000000000E+00 -0.36154792039E+02  0.36154792129E+02  0.25500000000E-02 0.  1.
    5000001    1    1    2    0    0 -0.22207667593E+03  0.10082292868E+03  0.97379749912E+03  0.10234089516E+04  0.19900000000E+03 0.  0.
   -5000001    1    1    2    0    0  0.22207667593E+03 -0.10082292868E+03  0.21713044304E+04  0.21940025621E+04  0.19900000000E+03 0.  0.
<mgrwt>
<rscale>  0 0.67828512E+03</rscale>
<asrwt>0</asrwt>
<pdfrwt beam="1">  1        2 0.45446535E+00 0.67828512E+03</pdfrwt>
<pdfrwt beam="2">  1       -2 0.51649691E-02 0.67828512E+03</pdfrwt>
<totfact> 0.38765704E+02</totfact>
</mgrwt>
</event>
<event>
 4    1  0.5023236E-005  0.5663300E+03  0.7818608E-02  0.9977833E-01
         -2   -1    0    0    0  501 -0.00000000000E+00  0.00000000000E+00  0.37703700306E+02  0.37703700392E+02  0.25500000000E-02 0. -1.
          2   -1    0    0  501    0  0.00000000000E+00 -0.00000000000E+00 -0.21266456092E+04  0.21266456092E+04  0.25500000000E-02 0.  1.
    5000001    1    1    2    0    0 -0.13393826095E+03 -0.23885966161E+02 -0.16122415074E+04  0.16301636959E+04  0.19900000000E+03 0.  0.
   -5000001    1    1    2    0    0  0.13393826095E+03  0.23885966161E+02 -0.47670040144E+03  0.53418561367E+03  0.19900000000E+03 0.  0.
<mgrwt>
<rscale>  0 0.56632997E+03</rscale>
<asrwt>0</asrwt>
<pdfrwt beam="1">  1        2 0.30380644E+00 0.56632997E+03</pdfrwt>
<pdfrwt beam="2">  1       -2 0.53862442E-02 0.56632997E+03</pdfrwt>
<totfact> 0.13104864E+03</totfact>
</mgrwt>
</event>
<event>
 4    1  0.5023236E-005  0.7418831E+03  0.7818608E-02  0.9648171E-01
         -2   -1    0    0    0  501 -0.00000000000E+00  0.00000000000E+00  0.30442352932E+03  0.30442352933E+03  0.25500000000E-02 0.  1.
          2   -1    0    0  501    0  0.00000000000E+00 -0.00000000000E+00 -0.45199409484E+03  0.45199409485E+03  0.25500000000E-02 0. -1.
    5000001    1    1    2    0    0  0.16028673592E+03 -0.17020445898E+03  0.13846426222E+03  0.33680075339E+03  0.19900000000E+03 0.  0.
   -5000001    1    1    2    0    0 -0.16028673592E+03  0.17020445898E+03 -0.28603482775E+03  0.41961687079E+03  0.19900000000E+03 0.  0.
<mgrwt>
<rscale>  0 0.74188311E+03</rscale>
<asrwt>0</asrwt>
<pdfrwt beam="1">  1        2 0.64570585E-01 0.74188311E+03</pdfrwt>
<pdfrwt beam="2">  1       -2 0.43489076E-01 0.74188311E+03</pdfrwt>
<totfact> 0.38028728E+02</totfact>
</mgrwt>
</event>
<event>
 4    1  0.5023236E-005  0.7913584E+03  0.7818608E-02  0.9572610E-01
         -2   -1    0    0    0  501 -0.00000000000E+00  0.00000000000E+00  0.48253515536E+03  0.48253515537E+03  0.25500000000E-02 0. -1.
          2   -1    0    0  501    0  0.00000000000E+00 -0.00000000000E+00 -0.32445722658E+03  0.32445722659E+03  0.25500000000E-02 0.  1.
    5000001    1    1    2    0    0  0.78562016432E+02 -0.22286182524E+03 -0.17307314962E+03  0.35411113891E+03  0.19900000000E+03 0.  0.
   -5000001    1    1    2    0    0 -0.78562016432E+02  0.22286182524E+03  0.33115107841E+03  0.45288124305E+03  0.19900000000E+03 0.  0.
<mgrwt>
<rscale>  0 0.79135837E+03</rscale>
<asrwt>0</asrwt>
<pdfrwt beam="1">  1        2 0.46351032E-01 0.79135837E+03</pdfrwt>
<pdfrwt beam="2">  1       -2 0.68933594E-01 0.79135837E+03</pdfrwt>
<totfact> 0.21165216E+02</totfact>
</mgrwt>
</event>
<event>
 4    1  0.5023236E-005  0.4991259E+03  0.7818608E-02  0.1014007E+00
         -2   -1    0    0    0  501 -0.00000000000E+00  0.00000000000E+00  0.26815649844E+02  0.26815649965E+02  0.25500000000E-02 0. -1.
          2   -1    0    0  501    0  0.00000000000E+00 -0.00000000000E+00 -0.23225860919E+04  0.23225860919E+04  0.25500000000E-02 0.  1.
    5000001    1    1    2    0    0  0.51213499109E+02 -0.13846513924E+03 -0.12879333466E+04  0.13115520281E+04  0.19900000000E+03 0.  0.
   -5000001    1    1    2    0    0 -0.51213499109E+02  0.13846513924E+03 -0.10078370955E+04  0.10378497138E+04  0.19900000000E+03 0.  0.
<mgrwt>
<rscale>  0 0.49912586E+03</rscale>
<asrwt>0</asrwt>
<pdfrwt beam="1">  1        2 0.33179789E+00 0.49912586E+03</pdfrwt>
<pdfrwt beam="2">  1       -2 0.38308086E-02 0.49912586E+03</pdfrwt>
<totfact> 0.17727209E+03</totfact>
</mgrwt>
</event>
<event>
 4    1  0.5023236E-005  0.4519617E+03  0.7818608E-02  0.1027139E+00
          2   -1    0    0  501    0  0.00000000000E+00  0.00000000000E+00  0.10587117138E+03  0.10587117141E+03  0.25500000000E-02 0.  1.
         -2   -1    0    0    0  501 -0.00000000000E+00 -0.00000000000E+00 -0.48235361297E+03  0.48235361298E+03  0.25500000000E-02 0. -1.
    5000001    1    1    2    0    0  0.10691254193E+02 -0.95523629694E+02 -0.24966388441E+03  0.33342483700E+03  0.19900000000E+03 0.  0.
   -5000001    1    1    2    0    0 -0.10691254193E+02  0.95523629694E+02 -0.12681855718E+03  0.25479994739E+03  0.19900000000E+03 0.  0.
<mgrwt>
<rscale>  0 0.45196169E+03</rscale>
<asrwt>0</asrwt>
<pdfrwt beam="1">  1        2 0.15124453E-01 0.45196169E+03</pdfrwt>
<pdfrwt beam="2">  1       -2 0.68907658E-01 0.45196169E+03</pdfrwt>
<totfact> 0.76719280E+02</totfact>
</mgrwt>
</event>
<event>
 4    1  0.5023236E-005  0.6207015E+03  0.7818608E-02  0.9863364E-01
         -2   -1    0    0    0  501 -0.00000000000E+00  0.00000000000E+00  0.25986294041E+03  0.25986294043E+03  0.25500000000E-02 0. -1.
          2   -1    0    0  501    0  0.00000000000E+00 -0.00000000000E+00 -0.37064761870E+03  0.37064761871E+03  0.25500000000E-02 0.  1.
    5000001    1    1    2    0    0 -0.77416217952E+02  0.22149506552E+03 -0.96819743894E+02  0.32253433563E+03  0.19900000000E+03 0.  0.
   -5000001    1    1    2    0    0  0.77416217952E+02 -0.22149506552E+03 -0.13964934396E+02  0.30797622351E+03  0.19900000000E+03 0.  0.
<mgrwt>
<rscale>  0 0.62070147E+03</rscale>
<asrwt>0</asrwt>
<pdfrwt beam="1">  1        2 0.52949660E-01 0.62070147E+03</pdfrwt>
<pdfrwt beam="2">  1       -2 0.37123277E-01 0.62070147E+03</pdfrwt>
<totfact> 0.64789529E+02</totfact>
</mgrwt>
</event>
<event>
 4    1  0.5023236E-005  0.5656361E+03  0.7818608E-02  0.9979382E-01
          2   -1    0    0  501    0  0.00000000000E+00  0.00000000000E+00  0.98019787813E+03  0.98019787813E+03  0.25500000000E-02 0.  1.
         -2   -1    0    0    0  501 -0.00000000000E+00 -0.00000000000E+00 -0.81601943055E+02  0.81601943095E+02  0.25500000000E-02 0. -1.
    5000001    1    1    2    0    0 -0.12061358343E+03  0.15748156543E+03  0.50974694141E+03  0.58205757811E+03  0.19900000000E+03 0.  0.
   -5000001    1    1    2    0    0  0.12061358343E+03 -0.15748156543E+03  0.38884899367E+03  0.47974224312E+03  0.19900000000E+03 0.  0.
<mgrwt>
<rscale>  0 0.56563611E+03</rscale>
<asrwt>0</asrwt>
<pdfrwt beam="1">  1        2 0.14002827E+00 0.56563611E+03</pdfrwt>
<pdfrwt beam="2">  1       -2 0.11657420E-01 0.56563611E+03</pdfrwt>
<totfact> 0.15485065E+03</totfact>
</mgrwt>
</event>
<event>
 4    1  0.5023236E-005  0.6532366E+03  0.7818608E-02  0.9800725E-01
          2   -1    0    0  501    0  0.00000000000E+00  0.00000000000E+00  0.21133062039E+04  0.21133062039E+04  0.25500000000E-02 0.  1.
         -2   -1    0    0    0  501 -0.00000000000E+00 -0.00000000000E+00 -0.50479907462E+02  0.50479907527E+02  0.25500000000E-02 0. -1.
    5000001    1    1    2    0    0 -0.25750354474E+03 -0.27659765312E+02  0.10390844407E+04  0.10892064143E+04  0.19900000000E+03 0.  0.
   -5000001    1    1    2    0    0  0.25750354474E+03  0.27659765312E+02  0.10237418558E+04  0.10745796971E+04  0.19900000000E+03 0.  0.
<mgrwt>
<rscale>  0 0.65323656E+03</rscale>
<asrwt>0</asrwt>
<pdfrwt beam="1">  1        2 0.30190095E+00 0.65323656E+03</pdfrwt>
<pdfrwt beam="2">  1       -2 0.72114139E-02 0.65323656E+03</pdfrwt>
<totfact> 0.83736609E+02</totfact>
</mgrwt>
</event>
<event>
 4    1  0.5023236E-005  0.6427897E+03  0.7818608E-02  0.9820404E-01
         -2   -1    0    0    0  501 -0.00000000000E+00  0.00000000000E+00  0.66482533652E+03  0.66482533653E+03  0.25500000000E-02 0. -1.
          2   -1    0    0  501    0  0.00000000000E+00 -0.00000000000E+00 -0.15537110207E+03  0.15537110209E+03  0.25500000000E-02 0.  1.
    5000001    1    1    2    0    0 -0.15138954583E+03  0.16763567504E+03  0.11108197519E+03  0.32087492788E+03  0.19900000000E+03 0.  0.
   -5000001    1    1    2    0    0  0.15138954583E+03 -0.16763567504E+03  0.39837225926E+03  0.49932151073E+03  0.19900000000E+03 0.  0.
<mgrwt>
<rscale>  0 0.64278969E+03</rscale>
<asrwt>0</asrwt>
<pdfrwt beam="1">  1        2 0.22195872E-01 0.64278969E+03</pdfrwt>
<pdfrwt beam="2">  1       -2 0.94975047E-01 0.64278969E+03</pdfrwt>
<totfact> 0.23711504E+02</totfact>
</mgrwt>
</event>
<event>
 4    1  0.5023236E-005  0.6011880E+03  0.7818608E-02  0.9902944E-01
          2   -1    0    0  501    0  0.00000000000E+00  0.00000000000E+00  0.13374676951E+04  0.13374676951E+04  0.25500000000E-02 0.  1.
         -2   -1    0    0    0  501 -0.00000000000E+00 -0.00000000000E+00 -0.67558085631E+02  0.67558085680E+02  0.25500000000E-02 0. -1.
    5000001    1    1    2    0    0  0.54823358007E+02  0.17175589291E+03  0.95067782174E+03  0.98787398391E+03  0.19900000000E+03 0.  0.
   -5000001    1    1    2    0    0 -0.54823358007E+02 -0.17175589291E+03  0.31923178768E+03  0.41715179683E+03  0.19900000000E+03 0.  0.
<mgrwt>
<rscale>  0 0.60118801E+03</rscale>
<asrwt>0</asrwt>
<pdfrwt beam="1">  1        2 0.19106681E+00 0.60118801E+03</pdfrwt>
<pdfrwt beam="2">  1       -2 0.96511553E-02 0.60118801E+03</pdfrwt>
<totfact> 0.13156417E+03</totfact>
</mgrwt>
</event>
<event>
 4    1  0.5023236E-005  0.5476853E+03  0.7818608E-02  0.1002031E+00
          2   -1    0    0  501    0  0.00000000000E+00  0.00000000000E+00  0.12488514555E+03  0.12488514558E+03  0.25500000000E-02 0.  1.
         -2   -1    0    0    0  501 -0.00000000000E+00 -0.00000000000E+00 -0.60047008036E+03  0.60047008036E+03  0.25500000000E-02 0. -1.
    5000001    1    1    2    0    0  0.69172301224E+02 -0.12894108948E+03 -0.39437561145E+03  0.46534259930E+03  0.19900000000E+03 0.  0.
   -5000001    1    1    2    0    0 -0.69172301224E+02  0.12894108948E+03 -0.81209323349E+02  0.26001262664E+03  0.19900000000E+03 0.  0.
<mgrwt>
<rscale>  0 0.54768529E+03</rscale>
<asrwt>0</asrwt>
<pdfrwt beam="1">  1        2 0.17840735E-01 0.54768529E+03</pdfrwt>
<pdfrwt beam="2">  1       -2 0.85781439E-01 0.54768529E+03</pdfrwt>
<totfact> 0.38785011E+02</totfact>
</mgrwt>
</event>
<event>
 4    1  0.5023236E-005  0.8475240E+03  0.7818608E-02  0.9493666E-01
         -2   -1    0    0    0  501 -0.00000000000E+00  0.00000000000E+00  0.14903620024E+03  0.14903620026E+03  0.25500000000E-02 0. -1.
          2   -1    0    0  501    0  0.00000000000E+00 -0.00000000000E+00 -0.12049034392E+04  0.12049034392E+04  0.25500000000E-02 0.  1.
    5000001    1    1    2    0    0 -0.12085191524E+03 -0.33486054205E+03 -0.34413880131E+03  0.53363778222E+03  0.19900000000E+03 0.  0.
   -5000001    1    1    2    0    0  0.12085191524E+03  0.33486054205E+03 -0.71172843760E+03  0.82030185720E+03  0.19900000000E+03 0.  0.
<mgrwt>
<rscale>  0 0.84752399E+03</rscale>
<asrwt>0</asrwt>
<pdfrwt beam="1">  1        2 0.17212906E+00 0.84752399E+03</pdfrwt>
<pdfrwt beam="2">  1       -2 0.21290886E-01 0.84752399E+03</pdfrwt>
<totfact> 0.40663919E+02</totfact>
</mgrwt>
</event>
<event>
 4    1  0.5023236E-005  0.5297674E+03  0.7818608E-02  0.1006289E+00
          2   -1    0    0  501    0  0.00000000000E+00  0.00000000000E+00  0.10053754232E+04  0.10053754232E+04  0.25500000000E-02 0.  1.
         -2   -1    0    0    0  501 -0.00000000000E+00 -0.00000000000E+00 -0.69788237058E+02  0.69788237105E+02  0.25500000000E-02 0. -1.
    5000001    1    1    2    0    0  0.49519359742E+02 -0.15031396138E+03  0.61852317297E+03  0.66874387435E+03  0.19900000000E+03 0.  0.
   -5000001    1    1    2    0    0 -0.49519359742E+02  0.15031396138E+03  0.31706401319E+03  0.40641978598E+03  0.19900000000E+03 0.  0.
<mgrwt>
<rscale>  0 0.52976741E+03</rscale>
<asrwt>0</asrwt>
<pdfrwt beam="1">  1        2 0.14362507E+00 0.52976741E+03</pdfrwt>
<pdfrwt beam="2">  1       -2 0.99697478E-02 0.52976741E+03</pdfrwt>
<totfact> 0.19288398E+03</totfact>
</mgrwt>
</event>
<event>
 4    1  0.5023236E-005  0.8649165E+03  0.7818608E-02  0.9470532E-01
          2   -1    0    0  501    0  0.00000000000E+00  0.00000000000E+00  0.87902240229E+03  0.87902240229E+03  0.25500000000E-02 0.  1.
         -2   -1    0    0    0  501 -0.00000000000E+00 -0.00000000000E+00 -0.21275921713E+03  0.21275921714E+03  0.25500000000E-02 0. -1.
    5000001    1    1    2    0    0  0.36134079206E+03  0.86391456379E+02  0.21082244261E+03  0.47125126424E+03  0.19900000000E+03 0.  0.
   -5000001    1    1    2    0    0 -0.36134079206E+03 -0.86391456379E+02  0.45544074255E+03  0.62053035519E+03  0.19900000000E+03 0.  0.
<mgrwt>
<rscale>  0 0.86491645E+03</rscale>
<asrwt>0</asrwt>
<pdfrwt beam="1">  1        2 0.12557463E+00 0.86491645E+03</pdfrwt>
<pdfrwt beam="2">  1       -2 0.30394174E-01 0.86491645E+03</pdfrwt>
<totfact> 0.33621170E+02</totfact>
</mgrwt>
</event>
<event>
 4    1  0.5023236E-005  0.8198258E+03  0.7818608E-02  0.9531755E-01
         -2   -1    0    0    0  501 -0.00000000000E+00  0.00000000000E+00  0.14025897989E+03  0.14025897991E+03  0.25500000000E-02 0. -1.
          2   -1    0    0  501    0  0.00000000000E+00 -0.00000000000E+00 -0.11979881221E+04  0.11979881221E+04  0.25500000000E-02 0.  1.
    5000001    1    1    2    0    0 -0.22880313831E+03  0.26085687576E+03 -0.67514407508E+03  0.78474053537E+03  0.19900000000E+03 0.  0.
   -5000001    1    1    2    0    0  0.22880313831E+03 -0.26085687576E+03 -0.38258506716E+03  0.55350656667E+03  0.19900000000E+03 0.  0.
<mgrwt>
<rscale>  0 0.81982582E+03</rscale>
<asrwt>0</asrwt>
<pdfrwt beam="1">  1        2 0.17114115E+00 0.81982582E+03</pdfrwt>
<pdfrwt beam="2">  1       -2 0.20036998E-01 0.81982582E+03</pdfrwt>
<totfact> 0.45714040E+02</totfact>
</mgrwt>
</event>
<event>
 4    1  0.5023236E-005  0.5186670E+03  0.7818608E-02  0.1009018E+00
         -2   -1    0    0    0  501 -0.00000000000E+00  0.00000000000E+00  0.72474075047E+02  0.72474075091E+02  0.25500000000E-02 0. -1.
          2   -1    0    0  501    0  0.00000000000E+00 -0.00000000000E+00 -0.92797146520E+03  0.92797146520E+03  0.25500000000E-02 0.  1.
    5000001    1    1    2    0    0 -0.83093623346E+02  0.14245396840E+03 -0.46890167568E+03  0.53541335883E+03  0.19900000000E+03 0.  0.
   -5000001    1    1    2    0    0  0.83093623346E+02 -0.14245396840E+03 -0.38659571448E+03  0.46503218147E+03  0.19900000000E+03 0.  0.
<mgrwt>
<rscale>  0 0.51866704E+03</rscale>
<asrwt>0</asrwt>
<pdfrwt beam="1">  1        2 0.13256735E+00 0.51866704E+03</pdfrwt>
<pdfrwt beam="2">  1       -2 0.10353440E-01 0.51866704E+03</pdfrwt>
<totfact> 0.20257697E+03</totfact>
</mgrwt>
</event>
<event>
 4    1  0.5023236E-005  0.6164649E+03  0.7818608E-02  0.9871823E-01
         -2   -1    0    0    0  501 -0.00000000000E+00  0.00000000000E+00  0.37626271431E+02  0.37626271518E+02  0.25500000000E-02 0. -1.
          2   -1    0    0  501    0  0.00000000000E+00 -0.00000000000E+00 -0.25250241276E+04  0.25250241276E+04  0.25500000000E-02 0.  1.
    5000001    1    1    2    0    0 -0.59831916776E+02 -0.21163368657E+03 -0.15924313319E+04  0.16198170336E+04  0.19900000000E+03 0.  0.
   -5000001    1    1    2    0    0  0.59831916776E+02  0.21163368657E+03 -0.89496652423E+03  0.94283336547E+03  0.19900000000E+03 0.  0.
<mgrwt>
<rscale>  0 0.61646490E+03</rscale>
<asrwt>0</asrwt>
<pdfrwt beam="1">  1        2 0.36071762E+00 0.61646490E+03</pdfrwt>
<pdfrwt beam="2">  1       -2 0.53751832E-02 0.61646490E+03</pdfrwt>
<totfact> 0.82291463E+02</totfact>
</mgrwt>
</event>
<event>
 4    1  0.5023236E-005  0.5223618E+03  0.7818608E-02  0.1008102E+00
         -2   -1    0    0    0  501 -0.00000000000E+00  0.00000000000E+00  0.62989164306E+02  0.62989164358E+02  0.25500000000E-02 0. -1.
          2   -1    0    0  501    0  0.00000000000E+00 -0.00000000000E+00 -0.10829714752E+04  0.10829714752E+04  0.25500000000E-02 0.  1.
    5000001    1    1    2    0    0 -0.74586338666E+02  0.11754466883E+03 -0.29917336844E+03  0.38533826110E+03  0.19900000000E+03 0.  0.
   -5000001    1    1    2    0    0  0.74586338666E+02 -0.11754466883E+03 -0.72080894244E+03  0.76062237844E+03  0.19900000000E+03 0.  0.
<mgrwt>
<rscale>  0 0.52236182E+03</rscale>
<asrwt>0</asrwt>
<pdfrwt beam="1">  1        2 0.15471020E+00 0.52236182E+03</pdfrwt>
<pdfrwt beam="2">  1       -2 0.89984527E-02 0.52236182E+03</pdfrwt>
<totfact> 0.20460086E+03</totfact>
</mgrwt>
</event>
<event>
 4    1  0.5023236E-005  0.6092064E+03  0.7818608E-02  0.9886488E-01
          2   -1    0    0  501    0  0.00000000000E+00  0.00000000000E+00  0.71718625428E+03  0.71718625429E+03  0.25500000000E-02 0.  1.
         -2   -1    0    0    0  501 -0.00000000000E+00 -0.00000000000E+00 -0.12937101072E+03  0.12937101075E+03  0.25500000000E-02 0. -1.
    5000001    1    1    2    0    0  0.68915664895E+02 -0.96621561212E+02  0.56867406080E+03  0.61406537305E+03  0.19900000000E+03 0.  0.
   -5000001    1    1    2    0    0 -0.68915664895E+02  0.96621561212E+02  0.19141182765E+02  0.23249189198E+03  0.19900000000E+03 0.  0.
<mgrwt>
<rscale>  0 0.60920640E+03</rscale>
<asrwt>0</asrwt>
<pdfrwt beam="1">  1        2 0.10245518E+00 0.60920640E+03</pdfrwt>
<pdfrwt beam="2">  1       -2 0.18481572E-01 0.60920640E+03</pdfrwt>
<totfact> 0.10720081E+03</totfact>
</mgrwt>
</event>
<event>
 4    1  0.5023236E-005  0.4871373E+03  0.7818608E-02  0.1017192E+00
          2   -1    0    0  501    0  0.00000000000E+00  0.00000000000E+00  0.35247622298E+03  0.35247622299E+03  0.25500000000E-02 0. -1.
         -2   -1    0    0    0  501 -0.00000000000E+00 -0.00000000000E+00 -0.16831120747E+03  0.16831120749E+03  0.25500000000E-02 0.  1.
    5000001    1    1    2    0    0  0.10824017991E+03  0.70082809845E+02  0.32586061954E+02  0.23935410633E+03  0.19900000000E+03 0.  0.
   -5000001    1    1    2    0    0 -0.10824017991E+03 -0.70082809845E+02  0.15157895355E+03  0.28143332415E+03  0.19900000000E+03 0.  0.
<mgrwt>
<rscale>  0 0.48713735E+03</rscale>
<asrwt>0</asrwt>
<pdfrwt beam="1">  1        2 0.50353746E-01 0.48713735E+03</pdfrwt>
<pdfrwt beam="2">  1       -2 0.24044458E-01 0.48713735E+03</pdfrwt>
<totfact> 0.15266097E+03</totfact>
</mgrwt>
</event>
<event>
 4    1  0.5023236E-005  0.5607083E+03  0.7818608E-02  0.9990453E-01
          2   -1    0    0  501    0  0.00000000000E+00  0.00000000000E+00  0.36366843512E+03  0.36366843513E+03  0.25500000000E-02 0.  1.
         -2   -1    0    0    0  501 -0.00000000000E+00 -0.00000000000E+00 -0.21612669309E+03  0.21612669310E+03  0.25500000000E-02 0. -1.
    5000001    1    1    2    0    0 -0.55083538746E+02  0.18805631156E+03  0.99059107560E+02  0.29633271731E+03  0.19900000000E+03 0.  0.
   -5000001    1    1    2    0    0  0.55083538746E+02 -0.18805631156E+03  0.48482634472E+02  0.28346241092E+03  0.19900000000E+03 0.  0.
<mgrwt>
<rscale>  0 0.56070832E+03</rscale>
<asrwt>0</asrwt>
<pdfrwt beam="1">  1        2 0.51952633E-01 0.56070832E+03</pdfrwt>
<pdfrwt beam="2">  1       -2 0.30875242E-01 0.56070832E+03</pdfrwt>
<totfact> 0.93701984E+02</totfact>
</mgrwt>
</event>
<event>
 4    1  0.5023236E-005  0.5923096E+03  0.7818608E-02  0.9921491E-01
         -2   -1    0    0    0  501 -0.00000000000E+00  0.00000000000E+00  0.27946435922E+02  0.27946436038E+02  0.25500000000E-02 0. -1.
          2   -1    0    0  501    0  0.00000000000E+00 -0.00000000000E+00 -0.31384201677E+04  0.31384201677E+04  0.25500000000E-02 0.  1.
    5000001    1    1    2    0    0  0.61608261766E+02 -0.20939332538E+03 -0.16705767719E+04  0.16964872217E+04  0.19900000000E+03 0.  0.
   -5000001    1    1    2    0    0 -0.61608261766E+02  0.20939332538E+03 -0.14398969598E+04  0.14698793820E+04  0.19900000000E+03 0.  0.
<mgrwt>
<rscale>  0 0.59230958E+03</rscale>
<asrwt>0</asrwt>
<pdfrwt beam="1">  1        2 0.44834551E+00 0.59230958E+03</pdfrwt>
<pdfrwt beam="2">  1       -2 0.39923500E-02 0.59230958E+03</pdfrwt>
<totfact> 0.61538536E+02</totfact>
</mgrwt>
</event>
<event>
 4    1  0.5023236E-005  0.6044007E+03  0.7818608E-02  0.9896318E-01
         -2   -1    0    0    0  501 -0.00000000000E+00  0.00000000000E+00  0.10682961518E+04  0.10682961518E+04  0.25500000000E-02 0. -1.
          2   -1    0    0  501    0  0.00000000000E+00 -0.00000000000E+00 -0.85486649087E+02  0.85486649125E+02  0.25500000000E-02 0.  1.
    5000001    1    1    2    0    0  0.19522648320E+03 -0.10693415934E+03  0.40236068410E+03  0.50104232783E+03  0.19900000000E+03 0.  0.
   -5000001    1    1    2    0    0 -0.19522648320E+03  0.10693415934E+03  0.58044881857E+03  0.65274047305E+03  0.19900000000E+03 0.  0.
<mgrwt>
<rscale>  0 0.60440072E+03</rscale>
<asrwt>0</asrwt>
<pdfrwt beam="1">  1        2 0.12212379E-01 0.60440072E+03</pdfrwt>
<pdfrwt beam="2">  1       -2 0.15261373E+00 0.60440072E+03</pdfrwt>
<totfact> 0.15028721E+02</totfact>
</mgrwt>
</event>
<event>
 4    1  0.5023236E-005  0.5158775E+03  0.7818608E-02  0.1009716E+00
          2   -1    0    0  501    0  0.00000000000E+00  0.00000000000E+00  0.37974693583E+03  0.37974693584E+03  0.25500000000E-02 0.  1.
         -2   -1    0    0    0  501 -0.00000000000E+00 -0.00000000000E+00 -0.17520192295E+03  0.17520192297E+03  0.25500000000E-02 0. -1.
    5000001    1    1    2    0    0 -0.25244910847E+02  0.15000855130E+03  0.36033591845E+02  0.25305985602E+03  0.19900000000E+03 0.  0.
   -5000001    1    1    2    0    0  0.25244910847E+02 -0.15000855130E+03  0.16851142104E+03  0.30188900279E+03  0.19900000000E+03 0.  0.
<mgrwt>
<rscale>  0 0.51587748E+03</rscale>
<asrwt>0</asrwt>
<pdfrwt beam="1">  1        2 0.54249562E-01 0.51587748E+03</pdfrwt>
<pdfrwt beam="2">  1       -2 0.25028846E-01 0.51587748E+03</pdfrwt>
<totfact> 0.13094116E+03</totfact>
</mgrwt>
</event>
<event>
 4    1  0.5023236E-005  0.8004726E+03  0.7818608E-02  0.9559333E-01
          2   -1    0    0  501    0  0.00000000000E+00  0.00000000000E+00  0.19978228350E+04  0.19978228350E+04  0.25500000000E-02 0.  1.
         -2   -1    0    0    0  501 -0.00000000000E+00 -0.00000000000E+00 -0.80181830513E+02  0.80181830554E+02  0.25500000000E-02 0. -1.
    5000001    1    1    2    0    0 -0.19296676316E+03  0.22001490678E+03  0.47353779128E+03  0.59116983234E+03  0.19900000000E+03 0.  0.
   -5000001    1    1    2    0    0  0.19296676316E+03 -0.22001490678E+03  0.14441032132E+04  0.14868348333E+04  0.19900000000E+03 0.  0.
<mgrwt>
<rscale>  0 0.80047259E+03</rscale>
<asrwt>0</asrwt>
<pdfrwt beam="1">  1        2 0.28540328E+00 0.80047259E+03</pdfrwt>
<pdfrwt beam="2">  1       -2 0.11454546E-01 0.80047259E+03</pdfrwt>
<totfact> 0.44931498E+02</totfact>
</mgrwt>
</event>
<event>
 4    1  0.5023236E-005  0.5721589E+03  0.7818608E-02  0.9964913E-01
         -2   -1    0    0    0  501 -0.00000000000E+00  0.00000000000E+00  0.98838106830E+02  0.98838106863E+02  0.25500000000E-02 0. -1.
          2   -1    0    0  501    0  0.00000000000E+00 -0.00000000000E+00 -0.82803537344E+03  0.82803537344E+03  0.25500000000E-02 0.  1.
    5000001    1    1    2    0    0 -0.12297261232E+03 -0.16311420729E+03 -0.40125198058E+03  0.49227295266E+03  0.19900000000E+03 0.  0.
   -5000001    1    1    2    0    0  0.12297261232E+03  0.16311420729E+03 -0.32794528603E+03  0.43460052764E+03  0.19900000000E+03 0.  0.
<mgrwt>
<rscale>  0 0.57215889E+03</rscale>
<asrwt>0</asrwt>
<pdfrwt beam="1">  1        2 0.11829076E+00 0.57215889E+03</pdfrwt>
<pdfrwt beam="2">  1       -2 0.14119730E-01 0.57215889E+03</pdfrwt>
<totfact> 0.14128309E+03</totfact>
</mgrwt>
</event>
<event>
 4    1  0.5023236E-005  0.6161903E+03  0.7818608E-02  0.9872374E-01
          2   -1    0    0  501    0  0.00000000000E+00  0.00000000000E+00  0.98642004347E+03  0.98642004347E+03  0.25500000000E-02 0.  1.
         -2   -1    0    0    0  501 -0.00000000000E+00 -0.00000000000E+00 -0.96229414419E+02  0.96229414452E+02  0.25500000000E-02 0. -1.
    5000001    1    1    2    0    0  0.20833655642E+03  0.10319408895E+03  0.50767238545E+03  0.59277769162E+03  0.19900000000E+03 0.  0.
   -5000001    1    1    2    0    0 -0.20833655642E+03 -0.10319408895E+03  0.38251824360E+03  0.48987176630E+03  0.19900000000E+03 0.  0.
<mgrwt>
<rscale>  0 0.61619031E+03</rscale>
<asrwt>0</asrwt>
<pdfrwt beam="1">  1        2 0.14091715E+00 0.61619031E+03</pdfrwt>
<pdfrwt beam="2">  1       -2 0.13747059E-01 0.61619031E+03</pdfrwt>
<totfact> 0.11674176E+03</totfact>
</mgrwt>
</event>
<event>
 4    1  0.5023236E-005  0.4683054E+03  0.7818608E-02  0.1022400E+00
          2   -1    0    0  501    0  0.00000000000E+00  0.00000000000E+00  0.10490208991E+04  0.10490208991E+04  0.25500000000E-02 0.  1.
         -2   -1    0    0    0  501 -0.00000000000E+00 -0.00000000000E+00 -0.52265398105E+02  0.52265398167E+02  0.25500000000E-02 0. -1.
    5000001    1    1    2    0    0 -0.57727586847E+02 -0.10650165561E+03  0.44315582905E+03  0.50066272654E+03  0.19900000000E+03 0.  0.
   -5000001    1    1    2    0    0  0.57727586847E+02  0.10650165561E+03  0.55359967193E+03  0.60062357071E+03  0.19900000000E+03 0.  0.
<mgrwt>
<rscale>  0 0.46830543E+03</rscale>
<asrwt>0</asrwt>
<pdfrwt beam="1">  1        2 0.14986014E+00 0.46830543E+03</pdfrwt>
<pdfrwt beam="2">  1       -2 0.74664851E-02 0.46830543E+03</pdfrwt>
<totfact> 0.28820880E+03</totfact>
</mgrwt>
</event>
<event>
 4    1  0.5023236E-005  0.5030739E+03  0.7818608E-02  0.1012980E+00
          2   -1    0    0  501    0  0.00000000000E+00  0.00000000000E+00  0.22340208817E+04  0.22340208817E+04  0.25500000000E-02 0.  1.
         -2   -1    0    0    0  501 -0.00000000000E+00 -0.00000000000E+00 -0.28321503383E+02  0.28321503498E+02  0.25500000000E-02 0. -1.
    5000001    1    1    2    0    0  0.20924708430E+02 -0.13868674811E+03  0.13871952648E+04  0.14083975150E+04  0.19900000000E+03 0.  0.
   -5000001    1    1    2    0    0 -0.20924708430E+02  0.13868674811E+03  0.81850411348E+03  0.85394487018E+03  0.19900000000E+03 0.  0.
<mgrwt>
<rscale>  0 0.50307387E+03</rscale>
<asrwt>0</asrwt>
<pdfrwt beam="1">  1        2 0.31914588E+00 0.50307387E+03</pdfrwt>
<pdfrwt beam="2">  1       -2 0.40459286E-02 0.50307387E+03</pdfrwt>
<totfact> 0.18062276E+03</totfact>
</mgrwt>
</event>
<event>
 4    1  0.5023236E-005  0.5236010E+03  0.7818608E-02  0.1007796E+00
         -2   -1    0    0    0  501 -0.00000000000E+00  0.00000000000E+00  0.32873709634E+02  0.32873709733E+02  0.25500000000E-02 0. -1.
          2   -1    0    0  501    0  0.00000000000E+00 -0.00000000000E+00 -0.20849336113E+04  0.20849336113E+04  0.25500000000E-02 0.  1.
    5000001    1    1    2    0    0  0.11315633856E+03 -0.11436521757E+03 -0.12495792261E+04  0.12755128390E+04  0.19900000000E+03 0.  0.
   -5000001    1    1    2    0    0 -0.11315633856E+03  0.11436521757E+03 -0.80248067554E+03  0.84229448209E+03  0.19900000000E+03 0.  0.
<mgrwt>
<rscale>  0 0.52360100E+03</rscale>
<asrwt>0</asrwt>
<pdfrwt beam="1">  1        2 0.29784758E+00 0.52360100E+03</pdfrwt>
<pdfrwt beam="2">  1       -2 0.46962456E-02 0.52360100E+03</pdfrwt>
<totfact> 0.17040969E+03</totfact>
</mgrwt>
</event>
<event>
 4    1  0.5023236E-005  0.5594146E+03  0.7818608E-02  0.9993380E-01
         -2   -1    0    0    0  501 -0.00000000000E+00  0.00000000000E+00  0.33256377398E+02  0.33256377495E+02  0.25500000000E-02 0. -1.
          2   -1    0    0  501    0  0.00000000000E+00 -0.00000000000E+00 -0.23525163590E+04  0.23525163590E+04  0.25500000000E-02 0.  1.
    5000001    1    1    2    0    0  0.88631080836E+01 -0.73305822383E+02 -0.38275296869E+03  0.43766783446E+03  0.19900000000E+03 0.  0.
   -5000001    1    1    2    0    0 -0.88631080836E+01  0.73305822383E+02 -0.19365070129E+04  0.19481049020E+04  0.19900000000E+03 0.  0.
<mgrwt>
<rscale>  0 0.55941459E+03</rscale>
<asrwt>0</asrwt>
<pdfrwt beam="1">  1        2 0.33607366E+00 0.55941459E+03</pdfrwt>
<pdfrwt beam="2">  1       -2 0.47509126E-02 0.55941459E+03</pdfrwt>
<totfact> 0.12255847E+03</totfact>
</mgrwt>
</event>
<event>
 4    1  0.5023236E-005  0.5386829E+03  0.7818608E-02  0.1004148E+00
         -2   -1    0    0    0  501 -0.00000000000E+00  0.00000000000E+00  0.40886893638E+02  0.40886893717E+02  0.25500000000E-02 0. -1.
          2   -1    0    0  501    0  0.00000000000E+00 -0.00000000000E+00 -0.17742803079E+04  0.17742803079E+04  0.25500000000E-02 0.  1.
    5000001    1    1    2    0    0  0.98366831566E+02  0.11828465020E+03 -0.54215092623E+03  0.59765869762E+03  0.19900000000E+03 0.  0.
   -5000001    1    1    2    0    0 -0.98366831566E+02 -0.11828465020E+03 -0.11912424880E+04  0.12175085040E+04  0.19900000000E+03 0.  0.
<mgrwt>
<rscale>  0 0.53868288E+03</rscale>
<asrwt>0</asrwt>
<pdfrwt beam="1">  1        2 0.25346857E+00 0.53868288E+03</pdfrwt>
<pdfrwt beam="2">  1       -2 0.58409859E-02 0.53868288E+03</pdfrwt>
<totfact> 0.17374473E+03</totfact>
</mgrwt>
</event>
<event>
 4    1  0.5023236E-005  0.8284413E+03  0.7818608E-02  0.9519738E-01
          2   -1    0    0  501    0  0.00000000000E+00  0.00000000000E+00  0.94214490661E+03  0.94214490661E+03  0.25500000000E-02 0.  1.
         -2   -1    0    0    0  501 -0.00000000000E+00 -0.00000000000E+00 -0.18211503546E+03  0.18211503548E+03  0.25500000000E-02 0. -1.
    5000001    1    1    2    0    0 -0.21052354655E+03 -0.28448168273E+03  0.26870337150E+03  0.48688036859E+03  0.19900000000E+03 0.  0.
   -5000001    1    1    2    0    0  0.21052354655E+03  0.28448168273E+03  0.49132649964E+03  0.63737957350E+03  0.19900000000E+03 0.  0.
<mgrwt>
<rscale>  0 0.82844131E+03</rscale>
<asrwt>0</asrwt>
<pdfrwt beam="1">  1        2 0.13459213E+00 0.82844131E+03</pdfrwt>
<pdfrwt beam="2">  1       -2 0.26016433E-01 0.82844131E+03</pdfrwt>
<totfact> 0.40787589E+02</totfact>
</mgrwt>
</event>
<event>
 4    1  0.5023236E-005  0.6183240E+03  0.7818608E-02  0.9868102E-01
          2   -1    0    0  501    0  0.00000000000E+00  0.00000000000E+00  0.61828632280E+03  0.61828632281E+03  0.25500000000E-02 0.  1.
         -2   -1    0    0    0  501 -0.00000000000E+00 -0.00000000000E+00 -0.15459042640E+03  0.15459042642E+03  0.25500000000E-02 0. -1.
    5000001    1    1    2    0    0  0.13646880362E+03  0.19178774256E+03  0.26179143038E+03  0.40440329570E+03  0.19900000000E+03 0.  0.
   -5000001    1    1    2    0    0 -0.13646880362E+03 -0.19178774256E+03  0.20190446602E+03  0.36847345353E+03  0.19900000000E+03 0.  0.
<mgrwt>
<rscale>  0 0.61832401E+03</rscale>
<asrwt>0</asrwt>
<pdfrwt beam="1">  1        2 0.88326616E-01 0.61832401E+03</pdfrwt>
<pdfrwt beam="2">  1       -2 0.22084347E-01 0.61832401E+03</pdfrwt>
<totfact> 0.93981705E+02</totfact>
</mgrwt>
</event>
<event>
 4    1  0.5023236E-005  0.6664675E+03  0.7818608E-02  0.9776360E-01
         -2   -1    0    0    0  501 -0.00000000000E+00  0.00000000000E+00  0.11095847782E+03  0.11095847785E+03  0.25500000000E-02 0. -1.
          2   -1    0    0  501    0  0.00000000000E+00 -0.00000000000E+00 -0.10007774311E+04  0.10007774311E+04  0.25500000000E-02 0.  1.
    5000001    1    1    2    0    0  0.26374603685E+03 -0.24389762231E+02 -0.38506881552E+03  0.50797226809E+03  0.19900000000E+03 0.  0.
   -5000001    1    1    2    0    0 -0.26374603685E+03  0.24389762231E+02 -0.50475013771E+03  0.60376364082E+03  0.19900000000E+03 0.  0.
<mgrwt>
<rscale>  0 0.66646752E+03</rscale>
<asrwt>0</asrwt>
<pdfrwt beam="1">  1        2 0.14296820E+00 0.66646752E+03</pdfrwt>
<pdfrwt beam="2">  1       -2 0.15851212E-01 0.66646752E+03</pdfrwt>
<totfact> 0.89900474E+02</totfact>
</mgrwt>
</event>
<event>
 4    1  0.5023236E-005  0.5801071E+03  0.7818608E-02  0.9947559E-01
         -2   -1    0    0    0  501 -0.00000000000E+00  0.00000000000E+00  0.48811006938E+02  0.48811007005E+02  0.25500000000E-02 0. -1.
          2   -1    0    0  501    0  0.00000000000E+00 -0.00000000000E+00 -0.17236083366E+04  0.17236083366E+04  0.25500000000E-02 0.  1.
    5000001    1    1    2    0    0  0.13845374737E+03 -0.12265139011E+03 -0.52705678342E+03  0.59296092334E+03  0.19900000000E+03 0.  0.
   -5000001    1    1    2    0    0 -0.13845374737E+03  0.12265139011E+03 -0.11477405463E+04  0.11794584203E+04  0.19900000000E+03 0.  0.
<mgrwt>
<rscale>  0 0.58010709E+03</rscale>
<asrwt>0</asrwt>
<pdfrwt beam="1">  1        2 0.24622972E+00 0.58010709E+03</pdfrwt>
<pdfrwt beam="2">  1       -2 0.69730021E-02 0.58010709E+03</pdfrwt>
<totfact> 0.13934055E+03</totfact>
</mgrwt>
</event>
<event>
 4    1  0.5023236E-005  0.7702523E+03  0.7818608E-02  0.9604103E-01
          2   -1    0    0  501    0  0.00000000000E+00  0.00000000000E+00  0.62627697100E+03  0.62627697100E+03  0.25500000000E-02 0.  1.
         -2   -1    0    0    0  501 -0.00000000000E+00 -0.00000000000E+00 -0.23683157895E+03  0.23683157896E+03  0.25500000000E-02 0. -1.
    5000001    1    1    2    0    0 -0.15976791598E+03 -0.13967215793E+03  0.47750876770E+03  0.55915089369E+03  0.19900000000E+03 0.  0.
   -5000001    1    1    2    0    0  0.15976791598E+03  0.13967215793E+03 -0.88063375653E+02  0.30395765628E+03  0.19900000000E+03 0.  0.
<mgrwt>
<rscale>  0 0.77025233E+03</rscale>
<asrwt>0</asrwt>
<pdfrwt beam="1">  1        2 0.89468138E-01 0.77025233E+03</pdfrwt>
<pdfrwt beam="2">  1       -2 0.33833083E-01 0.77025233E+03</pdfrwt>
<totfact> 0.42310122E+02</totfact>
</mgrwt>
</event>
<event>
 4    1  0.5023236E-005  0.1035148E+04  0.7818608E-02  0.9270814E-01
         -2   -1    0    0    0  501 -0.00000000000E+00  0.00000000000E+00  0.10672784056E+03  0.10672784059E+03  0.25500000000E-02 0. -1.
          2   -1    0    0  501    0  0.00000000000E+00 -0.00000000000E+00 -0.25099611206E+04  0.25099611206E+04  0.25500000000E-02 0.  1.
    5000001    1    1    2    0    0  0.47373011865E+03 -0.11794803568E+02 -0.13558436882E+04  0.14499904998E+04  0.19900000000E+03 0.  0.
   -5000001    1    1    2    0    0 -0.47373011865E+03  0.11794803568E+02 -0.10473895918E+04  0.11666984614E+04  0.19900000000E+03 0.  0.
<mgrwt>
<rscale>  0 0.10351478E+04</rscale>
<asrwt>0</asrwt>
<pdfrwt beam="1">  1        2 0.35856584E+00 0.10351478E+04</pdfrwt>
<pdfrwt beam="2">  1       -2 0.15246836E-01 0.10351478E+04</pdfrwt>
<totfact> 0.14950578E+02</totfact>
</mgrwt>
</event>
<event>
 4    1  0.5023236E-005  0.6329241E+03  0.7818608E-02  0.9839359E-01
         -2   -1    0    0    0  501 -0.00000000000E+00  0.00000000000E+00  0.32024927097E+02  0.32024927199E+02  0.25500000000E-02 0. -1.
          2   -1    0    0  501    0  0.00000000000E+00 -0.00000000000E+00 -0.31271956893E+04  0.31271956893E+04  0.25500000000E-02 0.  1.
    5000001    1    1    2    0    0  0.21671915829E+03 -0.87143858013E+02 -0.19337705320E+04  0.19579659639E+04  0.19900000000E+03 0.  0.
   -5000001    1    1    2    0    0 -0.21671915829E+03  0.87143858013E+02 -0.11614002302E+04  0.12012546526E+04  0.19900000000E+03 0.  0.
<mgrwt>
<rscale>  0 0.63292405E+03</rscale>
<asrwt>0</asrwt>
<pdfrwt beam="1">  1        2 0.44674205E+00 0.63292405E+03</pdfrwt>
<pdfrwt beam="2">  1       -2 0.45749916E-02 0.63292405E+03</pdfrwt>
<totfact> 0.50401190E+02</totfact>
</mgrwt>
</event>
<event>
 4    1  0.5023236E-005  0.7014987E+03  0.7818608E-02  0.9714673E-01
          2   -1    0    0  501    0  0.00000000000E+00  0.00000000000E+00  0.16022460406E+03  0.16022460408E+03  0.25500000000E-02 0.  1.
         -2   -1    0    0    0  501 -0.00000000000E+00 -0.00000000000E+00 -0.76782913790E+03  0.76782913790E+03  0.25500000000E-02 0. -1.
    5000001    1    1    2    0    0 -0.21119935881E+03 -0.15731888722E+03 -0.14687842520E+03  0.36128752155E+03  0.19900000000E+03 0.  0.
   -5000001    1    1    2    0    0  0.21119935881E+03  0.15731888722E+03 -0.46072610864E+03  0.56676622043E+03  0.19900000000E+03 0.  0.
<mgrwt>
<rscale>  0 0.70149874E+03</rscale>
<asrwt>0</asrwt>
<pdfrwt beam="1">  1        2 0.22889230E-01 0.70149874E+03</pdfrwt>
<pdfrwt beam="2">  1       -2 0.10968987E+00 0.70149874E+03</pdfrwt>
<totfact> 0.16221599E+02</totfact>
</mgrwt>
</event>
<event>
 4    1  0.5023236E-005  0.6197699E+03  0.7818608E-02  0.9865218E-01
         -2   -1    0    0    0  501 -0.00000000000E+00  0.00000000000E+00  0.76829746689E+03  0.76829746689E+03  0.25500000000E-02 0. -1.
          2   -1    0    0  501    0  0.00000000000E+00 -0.00000000000E+00 -0.12498894764E+03  0.12498894766E+03  0.25500000000E-02 0.  1.
    5000001    1    1    2    0    0 -0.93580027287E+02 -0.83538096103E+02  0.61240041533E+03  0.65602675533E+03  0.19900000000E+03 0.  0.
   -5000001    1    1    2    0    0  0.93580027287E+02  0.83538096103E+02  0.30908103913E+02  0.23725965922E+03  0.19900000000E+03 0.  0.
<mgrwt>
<rscale>  0 0.61976993E+03</rscale>
<asrwt>0</asrwt>
<pdfrwt beam="1">  1        2 0.17855564E-01 0.61976993E+03</pdfrwt>
<pdfrwt beam="2">  1       -2 0.10975678E+00 0.61976993E+03</pdfrwt>
<totfact> 0.21730381E+02</totfact>
</mgrwt>
</event>
<event>
 4    1  0.5023236E-005  0.8008016E+03  0.7818608E-02  0.9558858E-01
          2   -1    0    0  501    0  0.00000000000E+00  0.00000000000E+00  0.20056930083E+04  0.20056930083E+04  0.25500000000E-02 0.  1.
         -2   -1    0    0    0  501 -0.00000000000E+00 -0.00000000000E+00 -0.79932866360E+02  0.79932866401E+02  0.25500000000E-02 0. -1.
    5000001    1    1    2    0    0  0.25429140653E+03  0.22178497464E+03  0.11787032436E+04  0.12420930041E+04  0.19900000000E+03 0.  0.
   -5000001    1    1    2    0    0 -0.25429140653E+03 -0.22178497464E+03  0.74705689840E+03  0.84353287065E+03  0.19900000000E+03 0.  0.
<mgrwt>
<rscale>  0 0.80080158E+03</rscale>
<asrwt>0</asrwt>
<pdfrwt beam="1">  1        2 0.28652753E+00 0.80080158E+03</pdfrwt>
<pdfrwt beam="2">  1       -2 0.11418983E-01 0.80080158E+03</pdfrwt>
<totfact> 0.44748478E+02</totfact>
</mgrwt>
</event>
<event>
 4    1  0.5023236E-005  0.5495093E+03  0.7818608E-02  0.1001608E+00
         -2   -1    0    0    0  501 -0.00000000000E+00  0.00000000000E+00  0.31939370157E+02  0.31939370259E+02  0.25500000000E-02 0. -1.
          2   -1    0    0  501    0  0.00000000000E+00 -0.00000000000E+00 -0.23635443007E+04  0.23635443007E+04  0.25500000000E-02 0.  1.
    5000001    1    1    2    0    0 -0.15068442222E+03 -0.41037780256E+02 -0.69833391401E+03  0.74273895143E+03  0.19900000000E+03 0.  0.
   -5000001    1    1    2    0    0  0.15068442222E+03  0.41037780256E+02 -0.16332710166E+04  0.16527447196E+04  0.19900000000E+03 0.  0.
<mgrwt>
<rscale>  0 0.54950930E+03</rscale>
<asrwt>0</asrwt>
<pdfrwt beam="1">  1        2 0.33764908E+00 0.54950930E+03</pdfrwt>
<pdfrwt beam="2">  1       -2 0.45627686E-02 0.54950930E+03</pdfrwt>
<totfact> 0.12886245E+03</totfact>
</mgrwt>
</event>
<event>
 4    1  0.5023236E-005  0.4898817E+03  0.7818608E-02  0.1016454E+00
          2   -1    0    0  501    0  0.00000000000E+00  0.00000000000E+00  0.30152720062E+03  0.30152720063E+03  0.25500000000E-02 0.  1.
         -2   -1    0    0    0  501 -0.00000000000E+00 -0.00000000000E+00 -0.19897379052E+03  0.19897379054E+03  0.25500000000E-02 0. -1.
    5000001    1    1    2    0    0  0.11605220264E+03  0.64642432452E+02 -0.22834786166E+01  0.23927593294E+03  0.19900000000E+03 0.  0.
   -5000001    1    1    2    0    0 -0.11605220264E+03 -0.64642432452E+02  0.10483688872E+03  0.26122505823E+03  0.19900000000E+03 0.  0.
<mgrwt>
<rscale>  0 0.48988166E+03</rscale>
<asrwt>0</asrwt>
<pdfrwt beam="1">  1        2 0.43075314E-01 0.48988166E+03</pdfrwt>
<pdfrwt beam="2">  1       -2 0.28424827E-01 0.48988166E+03</pdfrwt>
<totfact> 0.13406028E+03</totfact>
</mgrwt>
</event>
<event>
 4    1  0.5023236E-005  0.6052028E+03  0.7818608E-02  0.9894670E-01
         -2   -1    0    0    0  501 -0.00000000000E+00  0.00000000000E+00  0.92951174250E+03  0.92951174251E+03  0.25500000000E-02 0. -1.
          2   -1    0    0  501    0  0.00000000000E+00 -0.00000000000E+00 -0.98511500784E+02  0.98511500817E+02  0.25500000000E-02 0.  1.
    5000001    1    1    2    0    0 -0.80289753606E+02  0.13585699484E+03  0.69494118940E+03  0.73989717144E+03  0.19900000000E+03 0.  0.
   -5000001    1    1    2    0    0  0.80289753606E+02 -0.13585699484E+03  0.13605905232E+03  0.28812607189E+03  0.19900000000E+03 0.  0.
<mgrwt>
<rscale>  0 0.60520277E+03</rscale>
<asrwt>0</asrwt>
<pdfrwt beam="1">  1        2 0.14073070E-01 0.60520277E+03</pdfrwt>
<pdfrwt beam="2">  1       -2 0.13278741E+00 0.60520277E+03</pdfrwt>
<totfact> 0.18093345E+02</totfact>
</mgrwt>
</event>
<event>
 4    1  0.5023236E-005  0.1034699E+04  0.7818608E-02  0.9271285E-01
          2   -1    0    0  501    0  0.00000000000E+00  0.00000000000E+00  0.38582662563E+04  0.38582662563E+04  0.25500000000E-02 0.  1.
         -2   -1    0    0    0  501 -0.00000000000E+00 -0.00000000000E+00 -0.69370703895E+02  0.69370703942E+02  0.25500000000E-02 0. -1.
    5000001    1    1    2    0    0 -0.73888645046E+02  0.33890266511E+03  0.31403839632E+04  0.31657427224E+04  0.19900000000E+03 0.  0.
   -5000001    1    1    2    0    0  0.73888645046E+02 -0.33890266511E+03  0.64851158922E+03  0.76189423783E+03  0.19900000000E+03 0.  0.
<mgrwt>
<rscale>  0 0.10346993E+04</rscale>
<asrwt>0</asrwt>
<pdfrwt beam="1">  1        2 0.55118092E+00 0.10346993E+04</pdfrwt>
<pdfrwt beam="2">  1       -2 0.99101001E-02 0.10346993E+04</pdfrwt>
<totfact> 0.51479178E+01</totfact>
</mgrwt>
</event>
<event>
 4    1  0.5023236E-005  0.4268524E+03  0.7818608E-02  0.1034859E+00
         -2   -1    0    0    0  501 -0.00000000000E+00  0.00000000000E+00  0.54300628721E+02  0.54300628781E+02  0.25500000000E-02 0. -1.
          2   -1    0    0  501    0  0.00000000000E+00 -0.00000000000E+00 -0.83886225656E+03  0.83886225657E+03  0.25500000000E-02 0.  1.
    5000001    1    1    2    0    0 -0.71783064272E+02  0.38967944077E+01 -0.45078516303E+03  0.49797214433E+03  0.19900000000E+03 0.  0.
   -5000001    1    1    2    0    0  0.71783064272E+02 -0.38967944077E+01 -0.33377646482E+03  0.39519074102E+03  0.19900000000E+03 0.  0.
<mgrwt>
<rscale>  0 0.42685242E+03</rscale>
<asrwt>0</asrwt>
<pdfrwt beam="1">  1        2 0.11983746E+00 0.42685242E+03</pdfrwt>
<pdfrwt beam="2">  1       -2 0.77572332E-02 0.42685242E+03</pdfrwt>
<totfact> 0.36665365E+03</totfact>
</mgrwt>
</event>
<event>
 4    1  0.5023236E-005  0.5373639E+03  0.7818608E-02  0.1004462E+00
          2   -1    0    0  501    0  0.00000000000E+00  0.00000000000E+00  0.17054333440E+04  0.17054333440E+04  0.25500000000E-02 0.  1.
         -2   -1    0    0    0  501 -0.00000000000E+00 -0.00000000000E+00 -0.42329407685E+02  0.42329407762E+02  0.25500000000E-02 0. -1.
    5000001    1    1    2    0    0  0.75564711703E+02  0.46966174511E+02  0.13424405432E+04  0.13600233304E+04  0.19900000000E+03 0.  0.
   -5000001    1    1    2    0    0 -0.75564711703E+02 -0.46966174511E+02  0.32066339317E+03  0.38773942142E+03  0.19900000000E+03 0.  0.
<mgrwt>
<rscale>  0 0.53736387E+03</rscale>
<asrwt>0</asrwt>
<pdfrwt beam="1">  1        2 0.24363330E+00 0.53736387E+03</pdfrwt>
<pdfrwt beam="2">  1       -2 0.60470592E-02 0.53736387E+03</pdfrwt>
<totfact> 0.17831806E+03</totfact>
</mgrwt>
</event>
<event>
 4    1  0.5023236E-005  0.6738061E+03  0.7818608E-02  0.9763106E-01
          2   -1    0    0  501    0  0.00000000000E+00  0.00000000000E+00  0.52479769282E+03  0.52479769283E+03  0.25500000000E-02 0.  1.
         -2   -1    0    0    0  501 -0.00000000000E+00 -0.00000000000E+00 -0.21628077017E+03  0.21628077019E+03  0.25500000000E-02 0. -1.
    5000001    1    1    2    0    0  0.23361529789E+02  0.26942497808E+03  0.18471963176E+03  0.38322046168E+03  0.19900000000E+03 0.  0.
   -5000001    1    1    2    0    0 -0.23361529789E+02 -0.26942497808E+03  0.12379729089E+03  0.35785800134E+03  0.19900000000E+03 0.  0.
<mgrwt>
<rscale>  0 0.67380605E+03</rscale>
<asrwt>0</asrwt>
<pdfrwt beam="1">  1        2 0.74971099E-01 0.67380605E+03</pdfrwt>
<pdfrwt beam="2">  1       -2 0.30897253E-01 0.67380605E+03</pdfrwt>
<totfact> 0.61885656E+02</totfact>
</mgrwt>
</event>
<event>
 4    1  0.5023236E-005  0.8536410E+03  0.7818608E-02  0.9485463E-01
         -2   -1    0    0    0  501 -0.00000000000E+00  0.00000000000E+00  0.48582933730E+02  0.48582933797E+02  0.25500000000E-02 0. -1.
          2   -1    0    0  501    0  0.00000000000E+00 -0.00000000000E+00 -0.37497887828E+04  0.37497887828E+04  0.25500000000E-02 0.  1.
    5000001    1    1    2    0    0  0.31701865388E+03 -0.18741603231E+03 -0.22215294160E+04  0.22606237065E+04  0.19900000000E+03 0.  0.
   -5000001    1    1    2    0    0 -0.31701865388E+03  0.18741603231E+03 -0.14796764330E+04  0.15377480101E+04  0.19900000000E+03 0.  0.
<mgrwt>
<rscale>  0 0.85364100E+03</rscale>
<asrwt>0</asrwt>
<pdfrwt beam="1">  1        2 0.53568393E+00 0.85364100E+03</pdfrwt>
<pdfrwt beam="2">  1       -2 0.69404215E-02 0.85364100E+03</pdfrwt>
<totfact> 0.10959293E+02</totfact>
</mgrwt>
</event>
<event>
 4    1  0.5023236E-005  0.5898982E+03  0.7818608E-02  0.9926589E-01
          2   -1    0    0  501    0  0.00000000000E+00  0.00000000000E+00  0.78892975435E+03  0.78892975436E+03  0.25500000000E-02 0.  1.
         -2   -1    0    0    0  501 -0.00000000000E+00 -0.00000000000E+00 -0.11026960451E+03  0.11026960454E+03  0.25500000000E-02 0. -1.
    5000001    1    1    2    0    0 -0.69358983255E+02  0.20336112714E+03  0.39273723326E+03  0.48990810462E+03  0.19900000000E+03 0.  0.
   -5000001    1    1    2    0    0  0.69358983255E+02 -0.20336112714E+03  0.28592291659E+03  0.40929125427E+03  0.19900000000E+03 0.  0.
<mgrwt>
<rscale>  0 0.58989820E+03</rscale>
<asrwt>0</asrwt>
<pdfrwt beam="1">  1        2 0.11270425E+00 0.58989820E+03</pdfrwt>
<pdfrwt beam="2">  1       -2 0.15752801E-01 0.58989820E+03</pdfrwt>
<totfact> 0.12502290E+03</totfact>
</mgrwt>
</event>
<event>
 4    1  0.5023236E-005  0.5711819E+03  0.7818608E-02  0.9967067E-01
         -2   -1    0    0    0  501 -0.00000000000E+00  0.00000000000E+00  0.12886650411E+03  0.12886650413E+03  0.25500000000E-02 0. -1.
          2   -1    0    0  501    0  0.00000000000E+00 -0.00000000000E+00 -0.63292011883E+03  0.63292011883E+03  0.25500000000E-02 0.  1.
    5000001    1    1    2    0    0  0.16778868734E+03  0.11127608964E+03 -0.20166667482E+03  0.34757137318E+03  0.19900000000E+03 0.  0.
   -5000001    1    1    2    0    0 -0.16778868734E+03 -0.11127608964E+03 -0.30238693991E+03  0.41421524978E+03  0.19900000000E+03 0.  0.
<mgrwt>
<rscale>  0 0.57118194E+03</rscale>
<asrwt>0</asrwt>
<pdfrwt beam="1">  1        2 0.90417158E-01 0.57118194E+03</pdfrwt>
<pdfrwt beam="2">  1       -2 0.18409501E-01 0.57118194E+03</pdfrwt>
<totfact> 0.12561114E+03</totfact>
</mgrwt>
</event>
<event>
 4    1  0.5023236E-005  0.5015665E+03  0.7818608E-02  0.1013371E+00
          2   -1    0    0  501    0  0.00000000000E+00  0.00000000000E+00  0.19458102385E+04  0.19458102385E+04  0.25500000000E-02 0.  1.
         -2   -1    0    0    0  501 -0.00000000000E+00 -0.00000000000E+00 -0.32321878056E+02  0.32321878156E+02  0.25500000000E-02 0. -1.
    5000001    1    1    2    0    0  0.91121117845E+02 -0.12024122682E+03  0.86592885181E+03  0.90121850133E+03  0.19900000000E+03 0.  0.
   -5000001    1    1    2    0    0 -0.91121117845E+02  0.12024122682E+03  0.10475595086E+04  0.10769136153E+04  0.19900000000E+03 0.  0.
<mgrwt>
<rscale>  0 0.50156651E+03</rscale>
<asrwt>0</asrwt>
<pdfrwt beam="1">  1        2 0.27797297E+00 0.50156651E+03</pdfrwt>
<pdfrwt beam="2">  1       -2 0.46174098E-02 0.50156651E+03</pdfrwt>
<totfact> 0.20545849E+03</totfact>
</mgrwt>
</event>
<event>
 4    1  0.5023236E-005  0.6308295E+03  0.7818608E-02  0.9843431E-01
          2   -1    0    0  501    0  0.00000000000E+00  0.00000000000E+00  0.12094003574E+03  0.12094003577E+03  0.25500000000E-02 0.  1.
         -2   -1    0    0    0  501 -0.00000000000E+00 -0.00000000000E+00 -0.82260977043E+03  0.82260977043E+03  0.25500000000E-02 0. -1.
    5000001    1    1    2    0    0 -0.14765525337E+03  0.16879628524E+03 -0.49731854098E+03  0.58070731953E+03  0.19900000000E+03 0.  0.
   -5000001    1    1    2    0    0  0.14765525337E+03 -0.16879628524E+03 -0.20435119371E+03  0.36284248667E+03  0.19900000000E+03 0.  0.
<mgrwt>
<rscale>  0 0.63082947E+03</rscale>
<asrwt>0</asrwt>
<pdfrwt beam="1">  1        2 0.17277148E-01 0.63082947E+03</pdfrwt>
<pdfrwt beam="2">  1       -2 0.11751568E+00 0.63082947E+03</pdfrwt>
<totfact> 0.19141504E+02</totfact>
</mgrwt>
</event>
<event>
 4    1  0.5023236E-005  0.5546832E+03  0.7818608E-02  0.1000416E+00
         -2   -1    0    0    0  501 -0.00000000000E+00  0.00000000000E+00  0.11883466293E+04  0.11883466293E+04  0.25500000000E-02 0. -1.
          2   -1    0    0  501    0  0.00000000000E+00 -0.00000000000E+00 -0.64727221067E+02  0.64727221117E+02  0.25500000000E-02 0.  1.
    5000001    1    1    2    0    0  0.18025216948E+03  0.40831299968E+02  0.43483141107E+03  0.51267669707E+03  0.19900000000E+03 0.  0.
   -5000001    1    1    2    0    0 -0.18025216948E+03 -0.40831299968E+02  0.68878799711E+03  0.74039715331E+03  0.19900000000E+03 0.  0.
<mgrwt>
<rscale>  0 0.55468324E+03</rscale>
<asrwt>0</asrwt>
<pdfrwt beam="1">  1        2 0.92467459E-02 0.55468324E+03</pdfrwt>
<pdfrwt beam="2">  1       -2 0.16976380E+00 0.55468324E+03</pdfrwt>
<totfact> 0.16039223E+02</totfact>
</mgrwt>
</event>
<event>
 4    1  0.5023236E-005  0.1181149E+04  0.7818608E-02  0.9129518E-01
         -2   -1    0    0    0  501 -0.00000000000E+00  0.00000000000E+00  0.34681168005E+03  0.34681168006E+03  0.25500000000E-02 0. -1.
          2   -1    0    0  501    0  0.00000000000E+00 -0.00000000000E+00 -0.10056708879E+04  0.10056708879E+04  0.25500000000E-02 0.  1.
    5000001    1    1    2    0    0  0.22985079021E+03 -0.48772564450E+03 -0.17381260304E+03  0.60043276980E+03  0.19900000000E+03 0.  0.
   -5000001    1    1    2    0    0 -0.22985079021E+03  0.48772564450E+03 -0.48504660477E+03  0.75204979813E+03  0.19900000000E+03 0.  0.
<mgrwt>
<rscale>  0 0.11811493E+04</rscale>
<asrwt>0</asrwt>
<pdfrwt beam="1">  1        2 0.14366727E+00 0.11811493E+04</pdfrwt>
<pdfrwt beam="2">  1       -2 0.49544526E-01 0.11811493E+04</pdfrwt>
<totfact> 0.10611483E+02</totfact>
</mgrwt>
</event>
<event>
 4    1  0.5023236E-005  0.4311678E+03  0.7818608E-02  0.1033492E+00
         -2   -1    0    0    0  501 -0.00000000000E+00  0.00000000000E+00  0.69906031799E+02  0.69906031846E+02  0.25500000000E-02 0. -1.
          2   -1    0    0  501    0  0.00000000000E+00 -0.00000000000E+00 -0.66484141309E+03  0.66484141310E+03  0.25500000000E-02 0.  1.
    5000001    1    1    2    0    0  0.71698016887E+02  0.40195097435E+02 -0.31607063041E+03  0.38243678548E+03  0.19900000000E+03 0.  0.
   -5000001    1    1    2    0    0 -0.71698016887E+02 -0.40195097435E+02 -0.27886475088E+03  0.35231065946E+03  0.19900000000E+03 0.  0.
<mgrwt>
<rscale>  0 0.43116783E+03</rscale>
<asrwt>0</asrwt>
<pdfrwt beam="1">  1        2 0.94977341E-01 0.43116783E+03</pdfrwt>
<pdfrwt beam="2">  1       -2 0.99865764E-02 0.43116783E+03</pdfrwt>
<totfact> 0.32677845E+03</totfact>
</mgrwt>
</event>
<event>
 4    1  0.5023236E-005  0.4563296E+03  0.7818608E-02  0.1025851E+00
          2   -1    0    0  501    0  0.00000000000E+00  0.00000000000E+00  0.25204629225E+04  0.25204629225E+04  0.25500000000E-02 0.  1.
         -2   -1    0    0    0  501 -0.00000000000E+00 -0.00000000000E+00 -0.20654612973E+02  0.20654613130E+02  0.25500000000E-02 0. -1.
    5000001    1    1    2    0    0  0.68313775444E+02 -0.85429279138E+02  0.13735788410E+04  0.13922229585E+04  0.19900000000E+03 0.  0.
   -5000001    1    1    2    0    0 -0.68313775444E+02  0.85429279138E+02  0.11262294685E+04  0.11488945771E+04  0.19900000000E+03 0.  0.
<mgrwt>
<rscale>  0 0.45632965E+03</rscale>
<asrwt>0</asrwt>
<pdfrwt beam="1">  1        2 0.36006636E+00 0.45632965E+03</pdfrwt>
<pdfrwt beam="2">  1       -2 0.29506572E-02 0.45632965E+03</pdfrwt>
<totfact> 0.20974015E+03</totfact>
</mgrwt>
</event>
<event>
 4    1  0.5023236E-005  0.4152654E+03  0.7818608E-02  0.1038618E+00
          2   -1    0    0  501    0  0.00000000000E+00  0.00000000000E+00  0.97120659106E+03  0.97120659106E+03  0.25500000000E-02 0.  1.
         -2   -1    0    0    0  501 -0.00000000000E+00 -0.00000000000E+00 -0.44389451781E+02  0.44389451854E+02  0.25500000000E-02 0. -1.
    5000001    1    1    2    0    0  0.38273868451E+02 -0.41137027585E+02  0.41744688934E+03  0.46585410749E+03  0.19900000000E+03 0.  0.
   -5000001    1    1    2    0    0 -0.38273868451E+02  0.41137027585E+02  0.50937024994E+03  0.54974193543E+03  0.19900000000E+03 0.  0.
<mgrwt>
<rscale>  0 0.41526535E+03</rscale>
<asrwt>0</asrwt>
<pdfrwt beam="1">  1        2 0.13874378E+00 0.41526535E+03</pdfrwt>
<pdfrwt beam="2">  1       -2 0.63413509E-02 0.41526535E+03</pdfrwt>
<totfact> 0.41415410E+03</totfact>
</mgrwt>
</event>
<event>
 4    1  0.5023236E-005  0.8065566E+03  0.7818608E-02  0.9550575E-01
          2   -1    0    0  501    0  0.00000000000E+00  0.00000000000E+00  0.12490361545E+03  0.12490361548E+03  0.25500000000E-02 0.  1.
         -2   -1    0    0    0  501 -0.00000000000E+00 -0.00000000000E+00 -0.13020711997E+04  0.13020711997E+04  0.25500000000E-02 0. -1.
    5000001    1    1    2    0    0 -0.10853832997E+03  0.29354639121E+03 -0.86878211552E+03  0.94463401225E+03  0.19900000000E+03 0.  0.
   -5000001    1    1    2    0    0  0.10853832997E+03 -0.29354639121E+03 -0.30838546877E+03  0.48234080297E+03  0.19900000000E+03 0.  0.
<mgrwt>
<rscale>  0 0.80655663E+03</rscale>
<asrwt>0</asrwt>
<pdfrwt beam="1">  1        2 0.17843374E-01 0.80655663E+03</pdfrwt>
<pdfrwt beam="2">  1       -2 0.18601016E+00 0.80655663E+03</pdfrwt>
<totfact> 0.54298389E+01</totfact>
</mgrwt>
</event>
<event>
 4    1  0.5023236E-005  0.6401339E+03  0.7818608E-02  0.9825470E-01
         -2   -1    0    0    0  501 -0.00000000000E+00  0.00000000000E+00  0.81769020077E+02  0.81769020117E+02  0.25500000000E-02 0. -1.
          2   -1    0    0  501    0  0.00000000000E+00 -0.00000000000E+00 -0.12528318960E+04  0.12528318960E+04  0.25500000000E-02 0.  1.
    5000001    1    1    2    0    0 -0.24027669727E+03 -0.10146721958E+02 -0.73304283722E+03  0.79673624771E+03  0.19900000000E+03 0.  0.
   -5000001    1    1    2    0    0  0.24027669727E+03  0.10146721958E+02 -0.43802003872E+03  0.53786466842E+03  0.19900000000E+03 0.  0.
<mgrwt>
<rscale>  0 0.64013385E+03</rscale>
<asrwt>0</asrwt>
<pdfrwt beam="1">  1        2 0.17897597E+00 0.64013385E+03</pdfrwt>
<pdfrwt beam="2">  1       -2 0.11681289E-01 0.64013385E+03</pdfrwt>
<totfact> 0.10705297E+03</totfact>
</mgrwt>
</event>
<event>
 4    1  0.5023236E-005  0.9111461E+03  0.7818608E-02  0.9411755E-01
         -2   -1    0    0    0  501 -0.00000000000E+00  0.00000000000E+00  0.27063607297E+03  0.27063607298E+03  0.25500000000E-02 0. -1.
          2   -1    0    0  501    0  0.00000000000E+00 -0.00000000000E+00 -0.76688514098E+03  0.76688514098E+03  0.25500000000E-02 0.  1.
    5000001    1    1    2    0    0 -0.40912471291E+03  0.72906679310E+01 -0.27382985469E+03  0.53105552805E+03  0.19900000000E+03 0.  0.
   -5000001    1    1    2    0    0  0.40912471291E+03 -0.72906679310E+01 -0.22241921332E+03  0.50646568591E+03  0.19900000000E+03 0.  0.
<mgrwt>
<rscale>  0 0.91114605E+03</rscale>
<asrwt>0</asrwt>
<pdfrwt beam="1">  1        2 0.10955502E+00 0.91114605E+03</pdfrwt>
<pdfrwt beam="2">  1       -2 0.38662296E-01 0.91114605E+03</pdfrwt>
<totfact> 0.25383767E+02</totfact>
</mgrwt>
</event>
<event>
 4    1  0.5023236E-005  0.5016645E+03  0.7818608E-02  0.1013345E+00
          2   -1    0    0  501    0  0.00000000000E+00  0.00000000000E+00  0.18144398061E+03  0.18144398063E+03  0.25500000000E-02 0.  1.
         -2   -1    0    0    0  501 -0.00000000000E+00 -0.00000000000E+00 -0.34675611917E+03  0.34675611918E+03  0.25500000000E-02 0. -1.
    5000001    1    1    2    0    0 -0.14484610619E+03 -0.39479185528E+01 -0.13336835865E+03  0.27997160504E+03  0.19900000000E+03 0.  0.
   -5000001    1    1    2    0    0  0.14484610619E+03  0.39479185528E+01 -0.31943779906E+02  0.24822849477E+03  0.19900000000E+03 0.  0.
<mgrwt>
<rscale>  0 0.50166447E+03</rscale>
<asrwt>0</asrwt>
<pdfrwt beam="1">  1        2 0.25920569E-01 0.50166447E+03</pdfrwt>
<pdfrwt beam="2">  1       -2 0.49536588E-01 0.50166447E+03</pdfrwt>
<totfact> 0.81415127E+02</totfact>
</mgrwt>
</event>
<event>
 4    1  0.5023236E-005  0.5996493E+03  0.7818608E-02  0.9906134E-01
          2   -1    0    0  501    0  0.00000000000E+00  0.00000000000E+00  0.10130017461E+03  0.10130017464E+03  0.25500000000E-02 0.  1.
         -2   -1    0    0    0  501 -0.00000000000E+00 -0.00000000000E+00 -0.88741033182E+03  0.88741033182E+03  0.25500000000E-02 0. -1.
    5000001    1    1    2    0    0 -0.20643594618E+03  0.32430899882E+02 -0.25883855022E+03  0.38764153315E+03  0.19900000000E+03 0.  0.
   -5000001    1    1    2    0    0  0.20643594618E+03 -0.32430899882E+02 -0.52727160699E+03  0.60106897331E+03  0.19900000000E+03 0.  0.
<mgrwt>
<rscale>  0 0.59964930E+03</rscale>
<asrwt>0</asrwt>
<pdfrwt beam="1">  1        2 0.14471454E-01 0.59964930E+03</pdfrwt>
<pdfrwt beam="2">  1       -2 0.12677290E+00 0.59964930E+03</pdfrwt>
<totfact> 0.19654511E+02</totfact>
</mgrwt>
</event>
<event>
 4    1  0.5023236E-005  0.5581776E+03  0.7818608E-02  0.9996187E-01
          2   -1    0    0  501    0  0.00000000000E+00  0.00000000000E+00  0.10129780188E+04  0.10129780188E+04  0.25500000000E-02 0. -1.
         -2   -1    0    0    0  501 -0.00000000000E+00 -0.00000000000E+00 -0.76892648057E+02  0.76892648099E+02  0.25500000000E-02 0.  1.
    5000001    1    1    2    0    0 -0.18273792113E+03  0.62496223776E+02  0.52949803769E+03  0.59771907927E+03  0.19900000000E+03 0.  0.
   -5000001    1    1    2    0    0  0.18273792113E+03 -0.62496223776E+02  0.40658733303E+03  0.49215158761E+03  0.19900000000E+03 0.  0.
<mgrwt>
<rscale>  0 0.55817761E+03</rscale>
<asrwt>0</asrwt>
<pdfrwt beam="1">  1        2 0.14471115E+00 0.55817761E+03</pdfrwt>
<pdfrwt beam="2">  1       -2 0.10984664E-01 0.55817761E+03</pdfrwt>
<totfact> 0.16300856E+03</totfact>
</mgrwt>
</event>
<event>
 4    1  0.5023236E-005  0.6790631E+03  0.7818608E-02  0.9753722E-01
          2   -1    0    0  501    0  0.00000000000E+00  0.00000000000E+00  0.39759883128E+03  0.39759883129E+03  0.25500000000E-02 0.  1.
         -2   -1    0    0    0  501 -0.00000000000E+00 -0.00000000000E+00 -0.28994473079E+03  0.28994473080E+03  0.25500000000E-02 0. -1.
    5000001    1    1    2    0    0 -0.96084015033E+02 -0.22056457840E+03 -0.81255050971E+02  0.32262091454E+03  0.19900000000E+03 0.  0.
   -5000001    1    1    2    0    0  0.96084015033E+02  0.22056457840E+03  0.18890915146E+03  0.36492264755E+03  0.19900000000E+03 0.  0.
<mgrwt>
<rscale>  0 0.67906314E+03</rscale>
<asrwt>0</asrwt>
<pdfrwt beam="1">  1        2 0.56799833E-01 0.67906314E+03</pdfrwt>
<pdfrwt beam="2">  1       -2 0.41420676E-01 0.67906314E+03</pdfrwt>
<totfact> 0.48411704E+02</totfact>
</mgrwt>
</event>
<event>
 4    1  0.5023236E-005  0.8209081E+03  0.7818608E-02  0.9530237E-01
         -2   -1    0    0    0  501 -0.00000000000E+00  0.00000000000E+00  0.58353202617E+02  0.58353202673E+02  0.25500000000E-02 0. -1.
          2   -1    0    0  501    0  0.00000000000E+00 -0.00000000000E+00 -0.28871173770E+04  0.28871173770E+04  0.25500000000E-02 0.  1.
    5000001    1    1    2    0    0  0.26974756622E+03 -0.25984044929E+02 -0.22591605797E+04  0.22840416907E+04  0.19900000000E+03 0.  0.
   -5000001    1    1    2    0    0 -0.26974756622E+03  0.25984044929E+02 -0.56960359469E+03  0.66142888896E+03  0.19900000000E+03 0.  0.
<mgrwt>
<rscale>  0 0.82090814E+03</rscale>
<asrwt>0</asrwt>
<pdfrwt beam="1">  1        2 0.41244525E+00 0.82090814E+03</pdfrwt>
<pdfrwt beam="2">  1       -2 0.83361736E-02 0.82090814E+03</pdfrwt>
<totfact> 0.26036524E+02</totfact>
</mgrwt>
</event>
<event>
 4    1  0.5023236E-005  0.4920837E+03  0.7818608E-02  0.1015866E+00
         -2   -1    0    0    0  501 -0.00000000000E+00  0.00000000000E+00  0.24259741855E+02  0.24259741989E+02  0.25500000000E-02 0. -1.
          2   -1    0    0  501    0  0.00000000000E+00 -0.00000000000E+00 -0.24953515847E+04  0.24953515847E+04  0.25500000000E-02 0.  1.
    5000001    1    1    2    0    0  0.39515315888E+02 -0.90600165683E+02 -0.69449485334E+03  0.72917347149E+03  0.19900000000E+03 0.  0.
   -5000001    1    1    2    0    0 -0.39515315888E+02  0.90600165683E+02 -0.17765969895E+04  0.17904378552E+04  0.19900000000E+03 0.  0.
<mgrwt>
<rscale>  0 0.49208367E+03</rscale>
<asrwt>0</asrwt>
<pdfrwt beam="1">  1        2 0.35647863E+00 0.49208367E+03</pdfrwt>
<pdfrwt beam="2">  1       -2 0.34656790E-02 0.49208367E+03</pdfrwt>
<totfact> 0.16889938E+03</totfact>
</mgrwt>
</event>
<event>
 4    1  0.5023236E-005  0.8117747E+03  0.7818608E-02  0.9543128E-01
          2   -1    0    0  501    0  0.00000000000E+00  0.00000000000E+00  0.72958153087E+03  0.72958153088E+03  0.25500000000E-02 0.  1.
         -2   -1    0    0    0  501 -0.00000000000E+00 -0.00000000000E+00 -0.22580692096E+03  0.22580692098E+03  0.25500000000E-02 0. -1.
    5000001    1    1    2    0    0 -0.20890368304E+03 -0.56766709566E+02 -0.77396850506E+02  0.30406328383E+03  0.19900000000E+03 0.  0.
   -5000001    1    1    2    0    0  0.20890368304E+03  0.56766709566E+02  0.58117146042E+03  0.65132516803E+03  0.19900000000E+03 0.  0.
<mgrwt>
<rscale>  0 0.81177474E+03</rscale>
<asrwt>0</asrwt>
<pdfrwt beam="1">  1        2 0.10422593E+00 0.81177474E+03</pdfrwt>
<pdfrwt beam="2">  1       -2 0.32258131E-01 0.81177474E+03</pdfrwt>
<totfact> 0.38351473E+02</totfact>
</mgrwt>
</event>
<event>
 4    1  0.5023236E-005  0.5015985E+03  0.7818608E-02  0.1013363E+00
         -2   -1    0    0    0  501 -0.00000000000E+00  0.00000000000E+00  0.56193019251E+02  0.56193019309E+02  0.25500000000E-02 0. -1.
          2   -1    0    0  501    0  0.00000000000E+00 -0.00000000000E+00 -0.11193606767E+04  0.11193606767E+04  0.25500000000E-02 0.  1.
    5000001    1    1    2    0    0  0.58445302653E+02 -0.10079249813E+03 -0.76269177860E+03  0.79679026740E+03  0.19900000000E+03 0.  0.
   -5000001    1    1    2    0    0 -0.58445302653E+02  0.10079249813E+03 -0.30047587883E+03  0.37876342860E+03  0.19900000000E+03 0.  0.
<mgrwt>
<rscale>  0 0.50159847E+03</rscale>
<asrwt>0</asrwt>
<pdfrwt beam="1">  1        2 0.15990865E+00 0.50159847E+03</pdfrwt>
<pdfrwt beam="2">  1       -2 0.80275749E-02 0.50159847E+03</pdfrwt>
<totfact> 0.23389914E+03</totfact>
</mgrwt>
</event>
<event>
 4    1  0.5023236E-005  0.5753589E+03  0.7818608E-02  0.9957890E-01
          2   -1    0    0  501    0  0.00000000000E+00  0.00000000000E+00  0.31558182392E+03  0.31558182393E+03  0.25500000000E-02 0.  1.
         -2   -1    0    0    0  501 -0.00000000000E+00 -0.00000000000E+00 -0.26224409601E+03  0.26224409602E+03  0.25500000000E-02 0. -1.
    5000001    1    1    2    0    0 -0.89771667810E+02 -0.15755919631E+03  0.12846727602E+03  0.29830972778E+03  0.19900000000E+03 0.  0.
   -5000001    1    1    2    0    0  0.89771667810E+02  0.15755919631E+03 -0.75129548119E+02  0.27951619217E+03  0.19900000000E+03 0.  0.
<mgrwt>
<rscale>  0 0.57535891E+03</rscale>
<asrwt>0</asrwt>
<pdfrwt beam="1">  1        2 0.45083118E-01 0.57535891E+03</pdfrwt>
<pdfrwt beam="2">  1       -2 0.37463442E-01 0.57535891E+03</pdfrwt>
<totfact> 0.76094514E+02</totfact>
</mgrwt>
</event>
<event>
 4    1  0.5023236E-005  0.7953967E+03  0.7818608E-02  0.9566704E-01
         -2   -1    0    0    0  501 -0.00000000000E+00  0.00000000000E+00  0.15694661635E+03  0.15694661637E+03  0.25500000000E-02 0.  1.
          2   -1    0    0  501    0  0.00000000000E+00 -0.00000000000E+00 -0.10077565556E+04  0.10077565556E+04  0.25500000000E-02 0. -1.
    5000001    1    1    2    0    0 -0.25426763817E+03  0.22016630197E+03 -0.31742553389E+03  0.50347313921E+03  0.19900000000E+03 0.  0.
   -5000001    1    1    2    0    0  0.25426763817E+03 -0.22016630197E+03 -0.53338440538E+03  0.66123003278E+03  0.19900000000E+03 0.  0.
<mgrwt>
<rscale>  0 0.79539671E+03</rscale>
<asrwt>0</asrwt>
<pdfrwt beam="1">  1        2 0.14396522E+00 0.79539671E+03</pdfrwt>
<pdfrwt beam="2">  1       -2 0.22420946E-01 0.79539671E+03</pdfrwt>
<totfact> 0.48550203E+02</totfact>
</mgrwt>
</event>
<event>
 4    1  0.5023236E-005  0.5153997E+03  0.7818608E-02  0.1009836E+00
         -2   -1    0    0    0  501 -0.00000000000E+00  0.00000000000E+00  0.36020424799E+02  0.36020424890E+02  0.25500000000E-02 0. -1.
          2   -1    0    0  501    0  0.00000000000E+00 -0.00000000000E+00 -0.18436539999E+04  0.18436539999E+04  0.25500000000E-02 0.  1.
    5000001    1    1    2    0    0  0.15347617071E+03 -0.43825108982E+02 -0.77068170233E+03  0.81180469416E+03  0.19900000000E+03 0.  0.
   -5000001    1    1    2    0    0 -0.15347617071E+03  0.43825108982E+02 -0.10369518727E+04  0.10678697306E+04  0.19900000000E+03 0.  0.
<mgrwt>
<rscale>  0 0.51539965E+03</rscale>
<asrwt>0</asrwt>
<pdfrwt beam="1">  1        2 0.26337908E+00 0.51539965E+03</pdfrwt>
<pdfrwt beam="2">  1       -2 0.51457762E-02 0.51539965E+03</pdfrwt>
<totfact> 0.19541146E+03</totfact>
</mgrwt>
</event>
<event>
 4    1  0.5023236E-005  0.5755165E+03  0.7818608E-02  0.9957545E-01
          2   -1    0    0  501    0  0.00000000000E+00  0.00000000000E+00  0.12560919839E+04  0.12560919839E+04  0.25500000000E-02 0.  1.
         -2   -1    0    0    0  501 -0.00000000000E+00 -0.00000000000E+00 -0.65922559270E+02  0.65922559319E+02  0.25500000000E-02 0. -1.
    5000001    1    1    2    0    0  0.12888047544E+03 -0.97489057363E+02  0.29479308218E+03  0.39066386390E+03  0.19900000000E+03 0.  0.
   -5000001    1    1    2    0    0 -0.12888047544E+03  0.97489057363E+02  0.89537634249E+03  0.93135067936E+03  0.19900000000E+03 0.  0.
<mgrwt>
<rscale>  0 0.57551646E+03</rscale>
<asrwt>0</asrwt>
<pdfrwt beam="1">  1        2 0.17944171E+00 0.57551646E+03</pdfrwt>
<pdfrwt beam="2">  1       -2 0.94175087E-02 0.57551646E+03</pdfrwt>
<totfact> 0.15166965E+03</totfact>
</mgrwt>
</event>
<event>
 4    1  0.5023236E-005  0.9476853E+03  0.7818608E-02  0.9367860E-01
          2   -1    0    0  501    0  0.00000000000E+00  0.00000000000E+00  0.16059154241E+04  0.16059154241E+04  0.25500000000E-02 0.  1.
         -2   -1    0    0    0  501 -0.00000000000E+00 -0.00000000000E+00 -0.13981238566E+03  0.13981238568E+03  0.25500000000E-02 0. -1.
    5000001    1    1    2    0    0 -0.42152206047E+03 -0.25255014883E+02  0.88278579104E+03  0.99861424790E+03  0.19900000000E+03 0.  0.
   -5000001    1    1    2    0    0  0.42152206047E+03  0.25255014883E+02  0.58331724744E+03  0.74711356192E+03  0.19900000000E+03 0.  0.
<mgrwt>
<rscale>  0 0.94768532E+03</rscale>
<asrwt>0</asrwt>
<pdfrwt beam="1">  1        2 0.22941647E+00 0.94768532E+03</pdfrwt>
<pdfrwt beam="2">  1       -2 0.19973200E-01 0.94768532E+03</pdfrwt>
<totfact> 0.27503121E+02</totfact>
</mgrwt>
</event>
<event>
 4    1  0.5023236E-005  0.5899941E+03  0.7818608E-02  0.9926385E-01
          2   -1    0    0  501    0  0.00000000000E+00  0.00000000000E+00  0.15767318155E+03  0.15767318157E+03  0.25500000000E-02 0.  1.
         -2   -1    0    0    0  501 -0.00000000000E+00 -0.00000000000E+00 -0.55192173315E+03  0.55192173316E+03  0.25500000000E-02 0. -1.
    5000001    1    1    2    0    0 -0.19036001547E+03  0.84356494460E+02 -0.27384678468E+03  0.39742422564E+03  0.19900000000E+03 0.  0.
   -5000001    1    1    2    0    0  0.19036001547E+03 -0.84356494460E+02 -0.12040176692E+03  0.31217068909E+03  0.19900000000E+03 0.  0.
<mgrwt>
<rscale>  0 0.58999409E+03</rscale>
<asrwt>0</asrwt>
<pdfrwt beam="1">  1        2 0.22524741E-01 0.58999409E+03</pdfrwt>
<pdfrwt beam="2">  1       -2 0.78845961E-01 0.58999409E+03</pdfrwt>
<totfact> 0.35669282E+02</totfact>
</mgrwt>
</event>
<event>
 4    1  0.5023236E-005  0.5681790E+03  0.7818608E-02  0.9973716E-01
         -2   -1    0    0    0  501 -0.00000000000E+00  0.00000000000E+00  0.70589557202E+02  0.70589557248E+02  0.25500000000E-02 0. -1.
          2   -1    0    0  501    0  0.00000000000E+00 -0.00000000000E+00 -0.11433256816E+04  0.11433256816E+04  0.25500000000E-02 0.  1.
    5000001    1    1    2    0    0  0.99393405332E+02 -0.92306256279E+02 -0.85830952704E+03  0.89145708712E+03  0.19900000000E+03 0.  0.
   -5000001    1    1    2    0    0 -0.99393405332E+02  0.92306256279E+02 -0.21442659740E+03  0.32245815178E+03  0.19900000000E+03 0.  0.
<mgrwt>
<rscale>  0 0.56817903E+03</rscale>
<asrwt>0</asrwt>
<pdfrwt beam="1">  1        2 0.16333223E+00 0.56817903E+03</pdfrwt>
<pdfrwt beam="2">  1       -2 0.10084223E-01 0.56817903E+03</pdfrwt>
<totfact> 0.15706758E+03</totfact>
</mgrwt>
</event>
<event>
 4    1  0.5023236E-005  0.6919899E+03  0.7818608E-02  0.9731029E-01
          2   -1    0    0  501    0  0.00000000000E+00  0.00000000000E+00  0.11311502035E+04  0.11311502035E+04  0.25500000000E-02 0.  1.
         -2   -1    0    0    0  501 -0.00000000000E+00 -0.00000000000E+00 -0.10583254982E+03  0.10583254985E+03  0.25500000000E-02 0. -1.
    5000001    1    1    2    0    0 -0.17223247104E+03 -0.18823150096E+03  0.29360712870E+03  0.43692249663E+03  0.19900000000E+03 0.  0.
   -5000001    1    1    2    0    0  0.17223247104E+03  0.18823150096E+03  0.73171052502E+03  0.80006025676E+03  0.19900000000E+03 0.  0.
<mgrwt>
<rscale>  0 0.69198991E+03</rscale>
<asrwt>0</asrwt>
<pdfrwt beam="1">  1        2 0.16159289E+00 0.69198991E+03</pdfrwt>
<pdfrwt beam="2">  1       -2 0.15118935E-01 0.69198991E+03</pdfrwt>
<totfact> 0.81437364E+02</totfact>
</mgrwt>
</event>
<event>
 4    1  0.5023236E-005  0.5751338E+03  0.7818608E-02  0.9958382E-01
          2   -1    0    0  501    0  0.00000000000E+00  0.00000000000E+00  0.18558038981E+03  0.18558038983E+03  0.25500000000E-02 0.  1.
         -2   -1    0    0    0  501 -0.00000000000E+00 -0.00000000000E+00 -0.44560057432E+03  0.44560057433E+03  0.25500000000E-02 0. -1.
    5000001    1    1    2    0    0  0.48440723305E+02  0.17309134787E+03 -0.16030402350E+02  0.26863561227E+03  0.19900000000E+03 0.  0.
   -5000001    1    1    2    0    0 -0.48440723305E+02 -0.17309134787E+03 -0.24398978216E+03  0.36254535189E+03  0.19900000000E+03 0.  0.
<mgrwt>
<rscale>  0 0.57513382E+03</rscale>
<asrwt>0</asrwt>
<pdfrwt beam="1">  1        2 0.26511484E-01 0.57513382E+03</pdfrwt>
<pdfrwt beam="2">  1       -2 0.63657224E-01 0.57513382E+03</pdfrwt>
<totfact> 0.47181687E+02</totfact>
</mgrwt>
</event>
<event>
 4    1  0.5023236E-005  0.1998829E+04  0.7818608E-02  0.8607169E-01
         -2   -1    0    0    0  501 -0.00000000000E+00  0.00000000000E+00  0.51433877585E+03  0.51433877586E+03  0.25500000000E-02 0. -1.
          2   -1    0    0  501    0  0.00000000000E+00 -0.00000000000E+00 -0.19419670347E+04  0.19419670347E+04  0.25500000000E-02 0.  1.
    5000001    1    1    2    0    0 -0.20277056226E+02 -0.86551154265E+03 -0.15106752172E+03  0.90107923380E+03  0.19900000000E+03 0.  0.
   -5000001    1    1    2    0    0  0.20277056226E+02  0.86551154265E+03 -0.12765607371E+04  0.15552265767E+04  0.19900000000E+03 0.  0.
<mgrwt>
<rscale>  0 0.19988286E+04</rscale>
<asrwt>0</asrwt>
<pdfrwt beam="1">  1        2 0.27742386E+00 0.19988286E+04</pdfrwt>
<pdfrwt beam="2">  1       -2 0.73476969E-01 0.19988286E+04</pdfrwt>
<totfact> 0.13395493E+01</totfact>
</mgrwt>
</event>
<event>
 4    1  0.5023236E-005  0.7448847E+03  0.7818608E-02  0.9643410E-01
          2   -1    0    0  501    0  0.00000000000E+00  0.00000000000E+00  0.64475642062E+03  0.64475642063E+03  0.25500000000E-02 0.  1.
         -2   -1    0    0    0  501 -0.00000000000E+00 -0.00000000000E+00 -0.21514061629E+03  0.21514061631E+03  0.25500000000E-02 0. -1.
    5000001    1    1    2    0    0 -0.42892144970E+02  0.31183159708E+03  0.22150071792E+03  0.43329233674E+03  0.19900000000E+03 0.  0.
   -5000001    1    1    2    0    0  0.42892144970E+02 -0.31183159708E+03  0.20811508641E+03  0.42660470019E+03  0.19900000000E+03 0.  0.
<mgrwt>
<rscale>  0 0.74488467E+03</rscale>
<asrwt>0</asrwt>
<pdfrwt beam="1">  1        2 0.92108058E-01 0.74488467E+03</pdfrwt>
<pdfrwt beam="2">  1       -2 0.30734374E-01 0.74488467E+03</pdfrwt>
<totfact> 0.48968563E+02</totfact>
</mgrwt>
</event>
<event>
 4    1  0.5023236E-005  0.7554668E+03  0.7818608E-02  0.9626813E-01
          2   -1    0    0  501    0  0.00000000000E+00  0.00000000000E+00  0.32639689493E+03  0.32639689494E+03  0.25500000000E-02 0.  1.
         -2   -1    0    0    0  501 -0.00000000000E+00 -0.00000000000E+00 -0.43714427614E+03  0.43714427615E+03  0.25500000000E-02 0. -1.
    5000001    1    1    2    0    0 -0.48065928359E+02 -0.24956860015E+03  0.14290337229E+03  0.35301160528E+03  0.19900000000E+03 0.  0.
   -5000001    1    1    2    0    0  0.48065928359E+02  0.24956860015E+03 -0.25365075350E+03  0.41052956581E+03  0.19900000000E+03 0.  0.
<mgrwt>
<rscale>  0 0.75546683E+03</rscale>
<asrwt>0</asrwt>
<pdfrwt beam="1">  1        2 0.46628128E-01 0.75546683E+03</pdfrwt>
<pdfrwt beam="2">  1       -2 0.62449182E-01 0.75546683E+03</pdfrwt>
<totfact> 0.26035204E+02</totfact>
</mgrwt>
</event>
<event>
 4    1  0.5023236E-005  0.4802258E+03  0.7818608E-02  0.1019073E+00
          2   -1    0    0  501    0  0.00000000000E+00  0.00000000000E+00  0.17571219522E+03  0.17571219524E+03  0.25500000000E-02 0.  1.
         -2   -1    0    0    0  501 -0.00000000000E+00 -0.00000000000E+00 -0.32811727849E+03  0.32811727850E+03  0.25500000000E-02 0. -1.
    5000001    1    1    2    0    0 -0.12759794968E+03 -0.41149484907E+02 -0.85509312573E+02  0.25472997352E+03  0.19900000000E+03 0.  0.
   -5000001    1    1    2    0    0  0.12759794968E+03  0.41149484907E+02 -0.66895770696E+02  0.24909950022E+03  0.19900000000E+03 0.  0.
<mgrwt>
<rscale>  0 0.48022581E+03</rscale>
<asrwt>0</asrwt>
<pdfrwt beam="1">  1        2 0.25101742E-01 0.48022581E+03</pdfrwt>
<pdfrwt beam="2">  1       -2 0.46873897E-01 0.48022581E+03</pdfrwt>
<totfact> 0.94318161E+02</totfact>
</mgrwt>
</event>
<event>
 4    1  0.5023236E-005  0.7142049E+03  0.7818608E-02  0.9693244E-01
          2   -1    0    0  501    0  0.00000000000E+00  0.00000000000E+00  0.90904346573E+02  0.90904346609E+02  0.25500000000E-02 0.  1.
         -2   -1    0    0    0  501 -0.00000000000E+00 -0.00000000000E+00 -0.14028170175E+04  0.14028170175E+04  0.25500000000E-02 0. -1.
    5000001    1    1    2    0    0 -0.11558391552E+03  0.26476164522E+03 -0.51623903608E+03  0.62414911094E+03  0.19900000000E+03 0.  0.
   -5000001    1    1    2    0    0  0.11558391552E+03 -0.26476164522E+03 -0.79567363483E+03  0.86957225316E+03  0.19900000000E+03 0.  0.
<mgrwt>
<rscale>  0 0.71420491E+03</rscale>
<asrwt>0</asrwt>
<pdfrwt beam="1">  1        2 0.12986336E-01 0.71420491E+03</pdfrwt>
<pdfrwt beam="2">  1       -2 0.20040242E+00 0.71420491E+03</pdfrwt>
<totfact> 0.64529906E+01</totfact>
</mgrwt>
</event>
<event>
 4    1  0.5023236E-005  0.1178147E+04  0.7818608E-02  0.9132203E-01
         -2   -1    0    0    0  501 -0.00000000000E+00  0.00000000000E+00  0.46209914061E+03  0.46209914061E+03  0.25500000000E-02 0. -1.
          2   -1    0    0  501    0  0.00000000000E+00 -0.00000000000E+00 -0.75093697725E+03  0.75093697725E+03  0.25500000000E-02 0.  1.
    5000001    1    1    2    0    0 -0.20200175030E+03  0.38485973576E+03  0.20999060222E+03  0.52212908016E+03  0.19900000000E+03 0.  0.
   -5000001    1    1    2    0    0  0.20200175030E+03 -0.38485973576E+03 -0.49882843886E+03  0.69090703770E+03  0.19900000000E+03 0.  0.
<mgrwt>
<rscale>  0 0.11781466E+04</rscale>
<asrwt>0</asrwt>
<pdfrwt beam="1">  1        2 0.10727671E+00 0.11781466E+04</pdfrwt>
<pdfrwt beam="2">  1       -2 0.66014163E-01 0.11781466E+04</pdfrwt>
<totfact> 0.86085687E+01</totfact>
</mgrwt>
</event>
<event>
 4    1  0.5023236E-005  0.7036176E+03  0.7818608E-02  0.9711066E-01
          2   -1    0    0  501    0  0.00000000000E+00  0.00000000000E+00  0.53861503006E+03  0.53861503007E+03  0.25500000000E-02 0.  1.
         -2   -1    0    0    0  501 -0.00000000000E+00 -0.00000000000E+00 -0.22979201711E+03  0.22979201712E+03  0.25500000000E-02 0. -1.
    5000001    1    1    2    0    0 -0.10472919083E+03  0.26588382726E+03  0.20908124679E+03  0.40617530793E+03  0.19900000000E+03 0.  0.
   -5000001    1    1    2    0    0  0.10472919083E+03 -0.26588382726E+03  0.99741766163E+02  0.36223173926E+03  0.19900000000E+03 0.  0.
<mgrwt>
<rscale>  0 0.70361761E+03</rscale>
<asrwt>0</asrwt>
<pdfrwt beam="1">  1        2 0.76945003E-01 0.70361761E+03</pdfrwt>
<pdfrwt beam="2">  1       -2 0.32827431E-01 0.70361761E+03</pdfrwt>
<totfact> 0.53585175E+02</totfact>
</mgrwt>
</event>
<event>
 4    1  0.5023236E-005  0.1105016E+04  0.7818608E-02  0.9200316E-01
         -2   -1    0    0    0  501 -0.00000000000E+00  0.00000000000E+00  0.42709302017E+03  0.42709302018E+03  0.25500000000E-02 0. -1.
          2   -1    0    0  501    0  0.00000000000E+00 -0.00000000000E+00 -0.71475120440E+03  0.71475120440E+03  0.25500000000E-02 0.  1.
    5000001    1    1    2    0    0  0.44762958536E+03  0.20371605303E+03 -0.30321561544E+03  0.61107543347E+03  0.19900000000E+03 0.  0.
   -5000001    1    1    2    0    0 -0.44762958536E+03 -0.20371605303E+03  0.15557431213E+02  0.53076879111E+03  0.19900000000E+03 0.  0.
<mgrwt>
<rscale>  0 0.11050163E+04</rscale>
<asrwt>0</asrwt>
<pdfrwt beam="1">  1        2 0.10210731E+00 0.11050163E+04</pdfrwt>
<pdfrwt beam="2">  1       -2 0.61013289E-01 0.11050163E+04</pdfrwt>
<totfact> 0.10888462E+02</totfact>
</mgrwt>
</event>
<event>
 4    1  0.5023236E-005  0.9554142E+03  0.7818608E-02  0.9358844E-01
          2   -1    0    0  501    0  0.00000000000E+00  0.00000000000E+00  0.19029897989E+03  0.19029897991E+03  0.25500000000E-02 0.  1.
         -2   -1    0    0    0  501 -0.00000000000E+00 -0.00000000000E+00 -0.11991870435E+04  0.11991870435E+04  0.25500000000E-02 0. -1.
    5000001    1    1    2    0    0 -0.57346420416E+02  0.28029304935E+03 -0.29276261891E+02  0.34972975990E+03  0.19900000000E+03 0.  0.
   -5000001    1    1    2    0    0  0.57346420416E+02 -0.28029304935E+03 -0.97961180173E+03  0.10397562635E+04  0.19900000000E+03 0.  0.
<mgrwt>
<rscale>  0 0.95541420E+03</rscale>
<asrwt>0</asrwt>
<pdfrwt beam="1">  1        2 0.27185569E-01 0.95541420E+03</pdfrwt>
<pdfrwt beam="2">  1       -2 0.17131243E+00 0.95541420E+03</pdfrwt>
<totfact> 0.41596521E+01</totfact>
</mgrwt>
</event>
<event>
 4    1  0.5023236E-005  0.7226515E+03  0.7818608E-02  0.9679260E-01
         -2   -1    0    0    0  501 -0.00000000000E+00  0.00000000000E+00  0.74923688531E+02  0.74923688574E+02  0.25500000000E-02 0. -1.
          2   -1    0    0  501    0  0.00000000000E+00 -0.00000000000E+00 -0.17425237712E+04  0.17425237712E+04  0.25500000000E-02 0.  1.
    5000001    1    1    2    0    0  0.29971975439E+03  0.33450036347E+02 -0.82848147306E+03  0.90384367415E+03  0.19900000000E+03 0.  0.
   -5000001    1    1    2    0    0 -0.29971975439E+03 -0.33450036347E+02 -0.83911860958E+03  0.91360378559E+03  0.19900000000E+03 0.  0.
<mgrwt>
<rscale>  0 0.72265153E+03</rscale>
<asrwt>0</asrwt>
<pdfrwt beam="1">  1        2 0.24893194E+00 0.72265153E+03</pdfrwt>
<pdfrwt beam="2">  1       -2 0.10703385E-01 0.72265153E+03</pdfrwt>
<totfact> 0.68010872E+02</totfact>
</mgrwt>
</event>
<event>
 4    1  0.5023236E-005  0.7904219E+03  0.7818608E-02  0.9573985E-01
          2   -1    0    0  501    0  0.00000000000E+00  0.00000000000E+00  0.13355575397E+04  0.13355575397E+04  0.25500000000E-02 0.  1.
         -2   -1    0    0    0  501 -0.00000000000E+00 -0.00000000000E+00 -0.11694867541E+03  0.11694867544E+03  0.25500000000E-02 0. -1.
    5000001    1    1    2    0    0 -0.26500517791E+03  0.18751111492E+03  0.41480561496E+03  0.56307447175E+03  0.19900000000E+03 0.  0.
   -5000001    1    1    2    0    0  0.26500517791E+03 -0.18751111492E+03  0.80380324936E+03  0.88943174343E+03  0.19900000000E+03 0.  0.
<mgrwt>
<rscale>  0 0.79042188E+03</rscale>
<asrwt>0</asrwt>
<pdfrwt beam="1">  1        2 0.19079391E+00 0.79042188E+03</pdfrwt>
<pdfrwt beam="2">  1       -2 0.16706956E-01 0.79042188E+03</pdfrwt>
<totfact> 0.52599922E+02</totfact>
</mgrwt>
</event>
<event>
 4    1  0.5023236E-005  0.5835683E+03  0.7818608E-02  0.9940095E-01
          2   -1    0    0  501    0  0.00000000000E+00  0.00000000000E+00  0.60178122206E+03  0.60178122207E+03  0.25500000000E-02 0.  1.
         -2   -1    0    0    0  501 -0.00000000000E+00 -0.00000000000E+00 -0.14147665738E+03  0.14147665740E+03  0.25500000000E-02 0. -1.
    5000001    1    1    2    0    0  0.40669116757E+02  0.19021914556E+03  0.11839274706E+03  0.30241551374E+03  0.19900000000E+03 0.  0.
   -5000001    1    1    2    0    0 -0.40669116757E+02 -0.19021914556E+03  0.34191181762E+03  0.44084236573E+03  0.19900000000E+03 0.  0.
<mgrwt>
<rscale>  0 0.58356832E+03</rscale>
<asrwt>0</asrwt>
<pdfrwt beam="1">  1        2 0.85968747E-01 0.58356832E+03</pdfrwt>
<pdfrwt beam="2">  1       -2 0.20210951E-01 0.58356832E+03</pdfrwt>
<totfact> 0.11341195E+03</totfact>
</mgrwt>
</event>
<event>
 4    1  0.5023236E-005  0.9405169E+03  0.7818608E-02  0.9376304E-01
         -2   -1    0    0    0  501 -0.00000000000E+00  0.00000000000E+00  0.16446856392E+03  0.16446856394E+03  0.25500000000E-02 0. -1.
          2   -1    0    0  501    0  0.00000000000E+00 -0.00000000000E+00 -0.13445913040E+04  0.13445913040E+04  0.25500000000E-02 0.  1.
    5000001    1    1    2    0    0 -0.33274574775E+03  0.98079039356E+02 -0.98700187222E+03  0.10649473820E+04  0.19900000000E+03 0.  0.
   -5000001    1    1    2    0    0  0.33274574775E+03 -0.98079039356E+02 -0.19312086788E+03  0.44411248600E+03  0.19900000000E+03 0.  0.
<mgrwt>
<rscale>  0 0.94051688E+03</rscale>
<asrwt>0</asrwt>
<pdfrwt beam="1">  1        2 0.19208447E+00 0.94051688E+03</pdfrwt>
<pdfrwt beam="2">  1       -2 0.23495510E-01 0.94051688E+03</pdfrwt>
<totfact> 0.28410939E+02</totfact>
</mgrwt>
</event>
<event>
 4    1  0.5023236E-005  0.4782858E+03  0.7818608E-02  0.1019607E+00
          2   -1    0    0  501    0  0.00000000000E+00  0.00000000000E+00  0.11294136108E+04  0.11294136108E+04  0.25500000000E-02 0.  1.
         -2   -1    0    0    0  501 -0.00000000000E+00 -0.00000000000E+00 -0.50636291419E+02  0.50636291483E+02  0.25500000000E-02 0. -1.
    5000001    1    1    2    0    0  0.12397269051E+03  0.31085463850E+02  0.62671611399E+03  0.66985791149E+03  0.19900000000E+03 0.  0.
   -5000001    1    1    2    0    0 -0.12397269051E+03 -0.31085463850E+02  0.45206120544E+03  0.51019199084E+03  0.19900000000E+03 0.  0.
<mgrwt>
<rscale>  0 0.47828576E+03</rscale>
<asrwt>0</asrwt>
<pdfrwt beam="1">  1        2 0.16134480E+00 0.47828576E+03</pdfrwt>
<pdfrwt beam="2">  1       -2 0.72337562E-02 0.47828576E+03</pdfrwt>
<totfact> 0.27215916E+03</totfact>
</mgrwt>
</event>
<event>
 4    1  0.5023236E-005  0.4954698E+03  0.7818608E-02  0.1014968E+00
          2   -1    0    0  501    0  0.00000000000E+00  0.00000000000E+00  0.10854955247E+04  0.10854955247E+04  0.25500000000E-02 0. -1.
         -2   -1    0    0    0  501 -0.00000000000E+00 -0.00000000000E+00 -0.56538773915E+02  0.56538773972E+02  0.25500000000E-02 0.  1.
    5000001    1    1    2    0    0 -0.11607579667E+03 -0.84356289568E+02  0.43523319292E+03  0.49961836073E+03  0.19900000000E+03 0.  0.
   -5000001    1    1    2    0    0  0.11607579667E+03  0.84356289568E+02  0.59372355791E+03  0.64241593798E+03  0.19900000000E+03 0.  0.
<mgrwt>
<rscale>  0 0.49546982E+03</rscale>
<asrwt>0</asrwt>
<pdfrwt beam="1">  1        2 0.15507080E+00 0.49546982E+03</pdfrwt>
<pdfrwt beam="2">  1       -2 0.80769673E-02 0.49546982E+03</pdfrwt>
<totfact> 0.24230364E+03</totfact>
</mgrwt>
</event>
<event>
 4    1  0.5023236E-005  0.1021486E+04  0.7818608E-02  0.9285288E-01
         -2   -1    0    0    0  501 -0.00000000000E+00  0.00000000000E+00  0.12623902093E+03  0.12623902096E+03  0.25500000000E-02 0. -1.
          2   -1    0    0  501    0  0.00000000000E+00 -0.00000000000E+00 -0.20663869079E+04  0.20663869079E+04  0.25500000000E-02 0.  1.
    5000001    1    1    2    0    0  0.44759097796E+03  0.14212742020E+03 -0.10276616395E+04  0.11472695117E+04  0.19900000000E+03 0.  0.
   -5000001    1    1    2    0    0 -0.44759097796E+03 -0.14212742020E+03 -0.91248624741E+03  0.10453564171E+04  0.19900000000E+03 0.  0.
<mgrwt>
<rscale>  0 0.10214865E+04</rscale>
<asrwt>0</asrwt>
<pdfrwt beam="1">  1        2 0.29519811E+00 0.10214865E+04</pdfrwt>
<pdfrwt beam="2">  1       -2 0.18034147E-01 0.10214865E+04</pdfrwt>
<totfact> 0.18978418E+02</totfact>
</mgrwt>
</event>
<event>
 4    1  0.5023236E-005  0.6258916E+03  0.7818608E-02  0.9853099E-01
         -2   -1    0    0    0  501 -0.00000000000E+00  0.00000000000E+00  0.77467621599E+02  0.77467621641E+02  0.25500000000E-02 0. -1.
          2   -1    0    0  501    0  0.00000000000E+00 -0.00000000000E+00 -0.12642065641E+04  0.12642065641E+04  0.25500000000E-02 0.  1.
    5000001    1    1    2    0    0 -0.21833267865E+03  0.10143874311E+03 -0.63488596319E+03  0.70755930029E+03  0.19900000000E+03 0.  0.
   -5000001    1    1    2    0    0  0.21833267865E+03 -0.10143874311E+03 -0.55185297927E+03  0.63411488541E+03  0.19900000000E+03 0.  0.
<mgrwt>
<rscale>  0 0.62589161E+03</rscale>
<asrwt>0</asrwt>
<pdfrwt beam="1">  1        2 0.18060093E+00 0.62589161E+03</pdfrwt>
<pdfrwt beam="2">  1       -2 0.11066804E-01 0.62589161E+03</pdfrwt>
<totfact> 0.11535048E+03</totfact>
</mgrwt>
</event>
<event>
 4    1  0.5023236E-005  0.8382079E+03  0.7818608E-02  0.9506302E-01
         -2   -1    0    0    0  501 -0.00000000000E+00  0.00000000000E+00  0.98002454559E+02  0.98002454593E+02  0.25500000000E-02 0. -1.
          2   -1    0    0  501    0  0.00000000000E+00 -0.00000000000E+00 -0.17922826620E+04  0.17922826620E+04  0.25500000000E-02 0.  1.
    5000001    1    1    2    0    0  0.88304513127E+02 -0.34520884644E+03 -0.10620343877E+04  0.11377543124E+04  0.19900000000E+03 0.  0.
   -5000001    1    1    2    0    0 -0.88304513127E+02  0.34520884644E+03 -0.63224581972E+03  0.75253080419E+03  0.19900000000E+03 0.  0.
<mgrwt>
<rscale>  0 0.83820785E+03</rscale>
<asrwt>0</asrwt>
<pdfrwt beam="1">  1        2 0.25604036E+00 0.83820785E+03</pdfrwt>
<pdfrwt beam="2">  1       -2 0.14000352E-01 0.83820785E+03</pdfrwt>
<totfact> 0.40827899E+02</totfact>
</mgrwt>
</event>
<event>
 4    1  0.5023236E-005  0.6609067E+03  0.7818608E-02  0.9786526E-01
          2   -1    0    0  501    0  0.00000000000E+00  0.00000000000E+00  0.14917960844E+04  0.14917960844E+04  0.25500000000E-02 0.  1.
         -2   -1    0    0    0  501 -0.00000000000E+00 -0.00000000000E+00 -0.73199971210E+02  0.73199971254E+02  0.25500000000E-02 0. -1.
    5000001    1    1    2    0    0  0.27068648056E+02 -0.17993725629E+03  0.25697378221E+03  0.37248711743E+03  0.19900000000E+03 0.  0.
   -5000001    1    1    2    0    0 -0.27068648056E+02  0.17993725629E+03  0.11616223310E+04  0.11925089382E+04  0.19900000000E+03 0.  0.
<mgrwt>
<rscale>  0 0.66090674E+03</rscale>
<asrwt>0</asrwt>
<pdfrwt beam="1">  1        2 0.21311370E+00 0.66090674E+03</pdfrwt>
<pdfrwt beam="2">  1       -2 0.10457140E-01 0.66090674E+03</pdfrwt>
<totfact> 0.95442917E+02</totfact>
</mgrwt>
</event>
<event>
 4    1  0.5023236E-005  0.6996945E+03  0.7818608E-02  0.9717755E-01
          2   -1    0    0  501    0  0.00000000000E+00  0.00000000000E+00  0.18479988316E+04  0.18479988316E+04  0.25500000000E-02 0.  1.
         -2   -1    0    0    0  501 -0.00000000000E+00 -0.00000000000E+00 -0.66230072850E+02  0.66230072899E+02  0.25500000000E-02 0. -1.
    5000001    1    1    2    0    0  0.79093513898E+02  0.18184649654E+03  0.14612732790E+04  0.14880337793E+04  0.19900000000E+03 0.  0.
   -5000001    1    1    2    0    0 -0.79093513898E+02 -0.18184649654E+03  0.32049547970E+03  0.42619512521E+03  0.19900000000E+03 0.  0.
<mgrwt>
<rscale>  0 0.69969450E+03</rscale>
<asrwt>0</asrwt>
<pdfrwt beam="1">  1        2 0.26399982E+00 0.69969450E+03</pdfrwt>
<pdfrwt beam="2">  1       -2 0.94614394E-02 0.69969450E+03</pdfrwt>
<totfact> 0.73567829E+02</totfact>
</mgrwt>
</event>
<event>
 4    1  0.5023236E-005  0.6029078E+03  0.7818608E-02  0.9899392E-01
          2   -1    0    0  501    0  0.00000000000E+00  0.00000000000E+00  0.69820343232E+03  0.69820343232E+03  0.25500000000E-02 0.  1.
         -2   -1    0    0    0  501 -0.00000000000E+00 -0.00000000000E+00 -0.13015470875E+03  0.13015470878E+03  0.25500000000E-02 0. -1.
    5000001    1    1    2    0    0  0.42209870184E+02  0.18708451766E+03  0.11863064372E+03  0.30075990344E+03  0.19900000000E+03 0.  0.
   -5000001    1    1    2    0    0 -0.42209870184E+02 -0.18708451766E+03  0.44941807984E+03  0.52759823765E+03  0.19900000000E+03 0.  0.
<mgrwt>
<rscale>  0 0.60290784E+03</rscale>
<asrwt>0</asrwt>
<pdfrwt beam="1">  1        2 0.99743349E-01 0.60290784E+03</pdfrwt>
<pdfrwt beam="2">  1       -2 0.18593530E-01 0.60290784E+03</pdfrwt>
<totfact> 0.10965478E+03</totfact>
</mgrwt>
</event>
<event>
 4    1  0.5023236E-005  0.5519611E+03  0.7818608E-02  0.1001041E+00
         -2   -1    0    0    0  501 -0.00000000000E+00  0.00000000000E+00  0.19020906176E+03  0.19020906178E+03  0.25500000000E-02 0. -1.
          2   -1    0    0  501    0  0.00000000000E+00 -0.00000000000E+00 -0.40042914222E+03  0.40042914222E+03  0.25500000000E-02 0.  1.
    5000001    1    1    2    0    0 -0.18242987959E+03 -0.19563410616E+02 -0.16274377212E+03  0.31583211263E+03  0.19900000000E+03 0.  0.
   -5000001    1    1    2    0    0  0.18242987959E+03  0.19563410616E+02 -0.47476308341E+02  0.27480609138E+03  0.19900000000E+03 0.  0.
<mgrwt>
<rscale>  0 0.55196105E+03</rscale>
<asrwt>0</asrwt>
<pdfrwt beam="1">  1        2 0.57204162E-01 0.55196105E+03</pdfrwt>
<pdfrwt beam="2">  1       -2 0.27172723E-01 0.55196105E+03</pdfrwt>
<totfact> 0.10647144E+03</totfact>
</mgrwt>
</event>
