<event>
 4    1  0.2228009E-005  0.3790969E+03  0.7818608E-02  0.1051268E+00
          1   -1    0    0  501    0  0.00000000000E+00  0.00000000000E+00  0.13187512777E+04  0.13187512778E+04  0.50400000000E-02 0. -1.
         -1   -1    0    0    0  501 -0.00000000000E+00 -0.00000000000E+00 -0.27244421165E+02  0.27244421631E+02  0.50400000000E-02 0.  1.
    5000001    1    1    2    0    0  0.68658618890E+02  0.61850569705E+02  0.60026826891E+03  0.62935402881E+03  0.16500000000E+03 0.  0.
   -5000001    1    1    2    0    0 -0.68658618890E+02 -0.61850569705E+02  0.69123858767E+03  0.71664167057E+03  0.16500000000E+03 0.  0.
<mgrwt>
<rscale>  0 0.37909690E+03</rscale>
<asrwt>0</asrwt>
<pdfrwt beam="1">  1        1 0.20288483E+00 0.37909690E+03</pdfrwt>
<pdfrwt beam="2">  1       -1 0.41914492E-02 0.37909690E+03</pdfrwt>
<totfact> 0.21728082E+03</totfact>
</mgrwt>
</event>
<event>
 4    1  0.2228009E-005  0.4337280E+03  0.7818608E-02  0.1032689E+00
         -1   -1    0    0    0  501 -0.00000000000E+00  0.00000000000E+00  0.19644030944E+02  0.19644031590E+02  0.50400000000E-02 0. -1.
          1   -1    0    0  501    0  0.00000000000E+00 -0.00000000000E+00 -0.23941110006E+04  0.23941110006E+04  0.50400000000E-02 0.  1.
    5000001    1    1    2    0    0  0.68492949809E+02 -0.11905160808E+03 -0.10165713821E+04  0.10389932360E+04  0.16500000000E+03 0.  0.
   -5000001    1    1    2    0    0 -0.68492949809E+02  0.11905160808E+03 -0.13578955876E+04  0.13747617962E+04  0.16500000000E+03 0.  0.
<mgrwt>
<rscale>  0 0.43372799E+03</rscale>
<asrwt>0</asrwt>
<pdfrwt beam="1">  1        1 0.36832454E+00 0.43372799E+03</pdfrwt>
<pdfrwt beam="2">  1       -1 0.30221606E-02 0.43372799E+03</pdfrwt>
<totfact> 0.68251709E+02</totfact>
</mgrwt>
</event>
<event>
 4    1  0.2228009E-005  0.9326716E+03  0.7818608E-02  0.9385637E-01
         -1   -1    0    0    0  501 -0.00000000000E+00  0.00000000000E+00  0.18428781410E+03  0.18428781417E+03  0.50400000000E-02 0. -1.
          1   -1    0    0  501    0  0.00000000000E+00 -0.00000000000E+00 -0.11800512112E+04  0.11800512112E+04  0.50400000000E-02 0.  1.
    5000001    1    1    2    0    0  0.36203889401E+03  0.68506315480E+02 -0.83931609082E+03  0.93136554389E+03  0.16500000000E+03 0.  0.
   -5000001    1    1    2    0    0 -0.36203889401E+03 -0.68506315480E+02 -0.15644730628E+03  0.43297348149E+03  0.16500000000E+03 0.  0.
<mgrwt>
<rscale>  0 0.93267156E+03</rscale>
<asrwt>0</asrwt>
<pdfrwt beam="1">  1        1 0.18154634E+00 0.93267156E+03</pdfrwt>
<pdfrwt beam="2">  1       -1 0.28351972E-01 0.93267156E+03</pdfrwt>
<totfact> 0.12512686E+02</totfact>
</mgrwt>
</event>
<event>
 4    1  0.2228009E-005  0.7553570E+03  0.7818608E-02  0.9626983E-01
         -1   -1    0    0    0  501 -0.00000000000E+00  0.00000000000E+00  0.73381751872E+02  0.73381752045E+02  0.50400000000E-02 0. -1.
          1   -1    0    0  501    0  0.00000000000E+00 -0.00000000000E+00 -0.19438218107E+04  0.19438218107E+04  0.50400000000E-02 0.  1.
    5000001    1    1    2    0    0  0.32495090979E+03  0.94556565846E+02 -0.10145312674E+04  0.10821426572E+04  0.16500000000E+03 0.  0.
   -5000001    1    1    2    0    0 -0.32495090979E+03 -0.94556565846E+02 -0.85590879146E+03  0.93506090562E+03  0.16500000000E+03 0.  0.
<mgrwt>
<rscale>  0 0.75535700E+03</rscale>
<asrwt>0</asrwt>
<pdfrwt beam="1">  1        1 0.29904947E+00 0.75535700E+03</pdfrwt>
<pdfrwt beam="2">  1       -1 0.11289502E-01 0.75535700E+03</pdfrwt>
<totfact> 0.17393626E+02</totfact>
</mgrwt>
</event>
<event>
 4    1  0.2228009E-005  0.6940537E+03  0.7818608E-02  0.9727455E-01
         -1   -1    0    0    0  501 -0.00000000000E+00  0.00000000000E+00  0.11396198303E+03  0.11396198314E+03  0.50400000000E-02 0. -1.
          1   -1    0    0  501    0  0.00000000000E+00 -0.00000000000E+00 -0.10567353006E+04  0.10567353006E+04  0.50400000000E-02 0.  1.
    5000001    1    1    2    0    0  0.21624567163E+03 -0.59458053699E+02 -0.82077344245E+03  0.86671304044E+03  0.16500000000E+03 0.  0.
   -5000001    1    1    2    0    0 -0.21624567163E+03  0.59458053699E+02 -0.12199987512E+03  0.30398424330E+03  0.16500000000E+03 0.  0.
<mgrwt>
<rscale>  0 0.69405375E+03</rscale>
<asrwt>0</asrwt>
<pdfrwt beam="1">  1        1 0.16257466E+00 0.69405375E+03</pdfrwt>
<pdfrwt beam="2">  1       -1 0.17532613E-01 0.69405375E+03</pdfrwt>
<totfact> 0.35291281E+02</totfact>
</mgrwt>
</event>
<event>
 4    1  0.2228009E-005  0.5210793E+03  0.7818608E-02  0.1008419E+00
          1   -1    0    0  501    0  0.00000000000E+00  0.00000000000E+00  0.39392036040E+03  0.39392036043E+03  0.50400000000E-02 0.  1.
         -1   -1    0    0    0  501 -0.00000000000E+00 -0.00000000000E+00 -0.17232137127E+03  0.17232137135E+03  0.50400000000E-02 0. -1.
    5000001    1    1    2    0    0  0.11650569589E+03 -0.16438643330E+03  0.11917603541E+03  0.28639902940E+03  0.16500000000E+03 0.  0.
   -5000001    1    1    2    0    0 -0.11650569589E+03  0.16438643330E+03  0.10242295371E+03  0.27984270238E+03  0.16500000000E+03 0.  0.
<mgrwt>
<rscale>  0 0.52107925E+03</rscale>
<asrwt>0</asrwt>
<pdfrwt beam="1">  1        1 0.60603132E-01 0.52107925E+03</pdfrwt>
<pdfrwt beam="2">  1       -1 0.26510980E-01 0.52107925E+03</pdfrwt>
<totfact> 0.77990222E+02</totfact>
</mgrwt>
</event>
<event>
 4    1  0.2228009E-005  0.4997107E+03  0.7818608E-02  0.1013854E+00
         -1   -1    0    0    0  501 -0.00000000000E+00  0.00000000000E+00  0.20291019722E+03  0.20291019728E+03  0.50400000000E-02 0. -1.
          1   -1    0    0  501    0  0.00000000000E+00 -0.00000000000E+00 -0.30766169116E+03  0.30766169121E+03  0.50400000000E-02 0.  1.
    5000001    1    1    2    0    0  0.70004720029E+02 -0.14495569828E+03 -0.15085466949E+03  0.27549037478E+03  0.16500000000E+03 0.  0.
   -5000001    1    1    2    0    0 -0.70004720029E+02  0.14495569828E+03  0.46103175548E+02  0.23508151370E+03  0.16500000000E+03 0.  0.
<mgrwt>
<rscale>  0 0.49971069E+03</rscale>
<asrwt>0</asrwt>
<pdfrwt beam="1">  1        1 0.47332568E-01 0.49971069E+03</pdfrwt>
<pdfrwt beam="2">  1       -1 0.31216953E-01 0.49971069E+03</pdfrwt>
<totfact> 0.81129291E+02</totfact>
</mgrwt>
</event>
<event>
 4    1  0.2228009E-005  0.3736990E+03  0.7818608E-02  0.1053288E+00
          1   -1    0    0  501    0  0.00000000000E+00  0.00000000000E+00  0.35983114425E+03  0.35983114429E+03  0.50400000000E-02 0.  1.
         -1   -1    0    0    0  501 -0.00000000000E+00 -0.00000000000E+00 -0.97025345349E+02  0.97025345480E+02  0.50400000000E-02 0. -1.
    5000001    1    1    2    0    0 -0.15932123603E+02 -0.79457625343E+02  0.17232362000E+03  0.25196780905E+03  0.16500000000E+03 0.  0.
   -5000001    1    1    2    0    0  0.15932123603E+02  0.79457625343E+02  0.90482178909E+02  0.20488868072E+03  0.16500000000E+03 0.  0.
<mgrwt>
<rscale>  0 0.37369903E+03</rscale>
<asrwt>0</asrwt>
<pdfrwt beam="1">  1        1 0.55358638E-01 0.37369903E+03</pdfrwt>
<pdfrwt beam="2">  1       -1 0.14926976E-01 0.37369903E+03</pdfrwt>
<totfact> 0.22589504E+03</totfact>
</mgrwt>
</event>
<event>
 4    1  0.2228009E-005  0.5671092E+03  0.7818608E-02  0.9976096E-01
         -1   -1    0    0    0  501 -0.00000000000E+00  0.00000000000E+00  0.12040468729E+03  0.12040468740E+03  0.50400000000E-02 0.  1.
          1   -1    0    0  501    0  0.00000000000E+00 -0.00000000000E+00 -0.66777481263E+03  0.66777481265E+03  0.50400000000E-02 0. -1.
    5000001    1    1    2    0    0  0.18381351623E+03 -0.12526213477E+03 -0.35822684503E+03  0.45280181498E+03  0.16500000000E+03 0.  0.
   -5000001    1    1    2    0    0 -0.18381351623E+03  0.12526213477E+03 -0.18914328031E+03  0.33537768506E+03  0.16500000000E+03 0.  0.
<mgrwt>
<rscale>  0 0.56710922E+03</rscale>
<asrwt>0</asrwt>
<pdfrwt beam="1">  1        1 0.10273458E+00 0.56710922E+03</pdfrwt>
<pdfrwt beam="2">  1       -1 0.18523798E-01 0.56710922E+03</pdfrwt>
<totfact> 0.68615868E+02</totfact>
</mgrwt>
</event>
<event>
 4    1  0.2228009E-005  0.4096290E+03  0.7818608E-02  0.1040496E+00
          1   -1    0    0  501    0  0.00000000000E+00  0.00000000000E+00  0.10678849654E+04  0.10678849654E+04  0.50400000000E-02 0.  1.
         -1   -1    0    0    0  501 -0.00000000000E+00 -0.00000000000E+00 -0.39282308115E+02  0.39282308438E+02  0.50400000000E-02 0. -1.
    5000001    1    1    2    0    0  0.67734212407E+02 -0.10036606511E+03  0.53570613206E+03  0.57346955498E+03  0.16500000000E+03 0.  0.
   -5000001    1    1    2    0    0 -0.67734212407E+02  0.10036606511E+03  0.49289652523E+03  0.53369771888E+03  0.16500000000E+03 0.  0.
<mgrwt>
<rscale>  0 0.40962903E+03</rscale>
<asrwt>0</asrwt>
<pdfrwt beam="1">  1        1 0.16428998E+00 0.40962903E+03</pdfrwt>
<pdfrwt beam="2">  1       -1 0.60434325E-02 0.40962903E+03</pdfrwt>
<totfact> 0.18821881E+03</totfact>
</mgrwt>
</event>
<event>
 4    1  0.2228009E-005  0.6093498E+03  0.7818608E-02  0.9886196E-01
          1   -1    0    0  501    0  0.00000000000E+00  0.00000000000E+00  0.15740669960E+04  0.15740669960E+04  0.50400000000E-02 0.  1.
         -1   -1    0    0    0  501 -0.00000000000E+00 -0.00000000000E+00 -0.58972582444E+02  0.58972582659E+02  0.50400000000E-02 0. -1.
    5000001    1    1    2    0    0  0.16381788250E+03 -0.29939959986E+01  0.22994998971E+03  0.32702791992E+03  0.16500000000E+03 0.  0.
   -5000001    1    1    2    0    0 -0.16381788250E+03  0.29939959986E+01  0.12851444238E+04  0.13060116587E+04  0.16500000000E+03 0.  0.
<mgrwt>
<rscale>  0 0.60934980E+03</rscale>
<asrwt>0</asrwt>
<pdfrwt beam="1">  1        1 0.24216415E+00 0.60934980E+03</pdfrwt>
<pdfrwt beam="2">  1       -1 0.90727049E-02 0.60934980E+03</pdfrwt>
<totfact> 0.43991918E+02</totfact>
</mgrwt>
</event>
<event>
 4    1  0.2228009E-005  0.4161708E+03  0.7818608E-02  0.1038320E+00
          1   -1    0    0  501    0  0.00000000000E+00  0.00000000000E+00  0.97826927521E+02  0.97826927651E+02  0.50400000000E-02 0. -1.
         -1   -1    0    0    0  501 -0.00000000000E+00 -0.00000000000E+00 -0.44261356990E+03  0.44261356992E+03  0.50400000000E-02 0.  1.
    5000001    1    1    2    0    0  0.10061226888E+03 -0.35427173200E+00 -0.27257588647E+03  0.33413405699E+03  0.16500000000E+03 0.  0.
   -5000001    1    1    2    0    0 -0.10061226888E+03  0.35427173200E+00 -0.72210755905E+02  0.20630644058E+03  0.16500000000E+03 0.  0.
<mgrwt>
<rscale>  0 0.41617076E+03</rscale>
<asrwt>0</asrwt>
<pdfrwt beam="1">  1        1 0.15050297E-01 0.41617076E+03</pdfrwt>
<pdfrwt beam="2">  1       -1 0.68094394E-01 0.41617076E+03</pdfrwt>
<totfact> 0.84328806E+02</totfact>
</mgrwt>
</event>
<event>
 4    1  0.2228009E-005  0.4238179E+03  0.7818608E-02  0.1035831E+00
         -1   -1    0    0    0  501 -0.00000000000E+00  0.00000000000E+00  0.10540181071E+03  0.10540181083E+03  0.50400000000E-02 0. -1.
          1   -1    0    0  501    0  0.00000000000E+00 -0.00000000000E+00 -0.42604015370E+03  0.42604015373E+03  0.50400000000E-02 0.  1.
    5000001    1    1    2    0    0 -0.11889130681E+03 -0.14328599126E+02 -0.23278723646E+03  0.30944361207E+03  0.16500000000E+03 0.  0.
   -5000001    1    1    2    0    0  0.11889130681E+03  0.14328599126E+02 -0.87851106530E+02  0.22199835249E+03  0.16500000000E+03 0.  0.
<mgrwt>
<rscale>  0 0.42381790E+03</rscale>
<asrwt>0</asrwt>
<pdfrwt beam="1">  1        1 0.65544638E-01 0.42381790E+03</pdfrwt>
<pdfrwt beam="2">  1       -1 0.16215663E-01 0.42381790E+03</pdfrwt>
<totfact> 0.15896736E+03</totfact>
</mgrwt>
</event>
<event>
 4    1  0.2228009E-005  0.5785764E+03  0.7818608E-02  0.9950878E-01
         -1   -1    0    0    0  501 -0.00000000000E+00  0.00000000000E+00  0.10323639101E+03  0.10323639113E+03  0.50400000000E-02 0. -1.
          1   -1    0    0  501    0  0.00000000000E+00 -0.00000000000E+00 -0.81064121749E+03  0.81064121751E+03  0.50400000000E-02 0.  1.
    5000001    1    1    2    0    0  0.14841814097E+03 -0.89960485209E+02 -0.97342362397E+02  0.25849829590E+03  0.16500000000E+03 0.  0.
   -5000001    1    1    2    0    0 -0.14841814097E+03  0.89960485209E+02 -0.61006246409E+03  0.65537931273E+03  0.16500000000E+03 0.  0.
<mgrwt>
<rscale>  0 0.57857644E+03</rscale>
<asrwt>0</asrwt>
<pdfrwt beam="1">  1        1 0.12471403E+00 0.57857644E+03</pdfrwt>
<pdfrwt beam="2">  1       -1 0.15882522E-01 0.57857644E+03</pdfrwt>
<totfact> 0.65568022E+02</totfact>
</mgrwt>
</event>
<event>
 4    1  0.2228009E-005  0.5198989E+03  0.7818608E-02  0.1008712E+00
         -1   -1    0    0    0  501 -0.00000000000E+00  0.00000000000E+00  0.54710910196E+03  0.54710910198E+03  0.50400000000E-02 0. -1.
          1   -1    0    0  501    0  0.00000000000E+00 -0.00000000000E+00 -0.12351048736E+03  0.12351048747E+03  0.50400000000E-02 0.  1.
    5000001    1    1    2    0    0  0.18438383550E+03  0.46195268234E+01  0.10917309929E+03  0.27048568249E+03  0.16500000000E+03 0.  0.
   -5000001    1    1    2    0    0 -0.18438383550E+03 -0.46195268234E+01  0.31442551531E+03  0.40013390696E+03  0.16500000000E+03 0.  0.
<mgrwt>
<rscale>  0 0.51989888E+03</rscale>
<asrwt>0</asrwt>
<pdfrwt beam="1">  1        1 0.19001613E-01 0.51989888E+03</pdfrwt>
<pdfrwt beam="2">  1       -1 0.84170632E-01 0.51989888E+03</pdfrwt>
<totfact> 0.39860808E+02</totfact>
</mgrwt>
</event>
<event>
 4    1  0.2228009E-005  0.4243082E+03  0.7818608E-02  0.1035673E+00
          1   -1    0    0  501    0  0.00000000000E+00  0.00000000000E+00  0.56880875936E+03  0.56880875939E+03  0.50400000000E-02 0.  1.
         -1   -1    0    0    0  501 -0.00000000000E+00 -0.00000000000E+00 -0.79129159486E+02  0.79129159646E+02  0.50400000000E-02 0. -1.
    5000001    1    1    2    0    0 -0.71353885875E+02  0.97862331098E+02  0.15959910864E+03  0.25954823898E+03  0.16500000000E+03 0.  0.
   -5000001    1    1    2    0    0  0.71353885875E+02 -0.97862331098E+02  0.33008049124E+03  0.38838968006E+03  0.16500000000E+03 0.  0.
<mgrwt>
<rscale>  0 0.42430819E+03</rscale>
<asrwt>0</asrwt>
<pdfrwt beam="1">  1        1 0.87509039E-01 0.42430819E+03</pdfrwt>
<pdfrwt beam="2">  1       -1 0.12173717E-01 0.42430819E+03</pdfrwt>
<totfact> 0.17025665E+03</totfact>
</mgrwt>
</event>
<event>
 4    1  0.2228009E-005  0.6028434E+03  0.7818608E-02  0.9899524E-01
          1   -1    0    0  501    0  0.00000000000E+00  0.00000000000E+00  0.24617481639E+03  0.24617481645E+03  0.50400000000E-02 0. -1.
         -1   -1    0    0    0  501 -0.00000000000E+00 -0.00000000000E+00 -0.36906713627E+03  0.36906713630E+03  0.50400000000E-02 0.  1.
    5000001    1    1    2    0    0 -0.22279330717E+03 -0.43742601408E+02  0.50722267107E+02  0.28521574514E+03  0.16500000000E+03 0.  0.
   -5000001    1    1    2    0    0  0.22279330717E+03  0.43742601408E+02 -0.17361458698E+03  0.33002620761E+03  0.16500000000E+03 0.  0.
<mgrwt>
<rscale>  0 0.60284338E+03</rscale>
<asrwt>0</asrwt>
<pdfrwt beam="1">  1        1 0.37873049E-01 0.60284338E+03</pdfrwt>
<pdfrwt beam="2">  1       -1 0.56779560E-01 0.60284338E+03</pdfrwt>
<totfact> 0.36113968E+02</totfact>
</mgrwt>
</event>
<event>
 4    1  0.2228009E-005  0.4195039E+03  0.7818608E-02  0.1037228E+00
          1   -1    0    0  501    0  0.00000000000E+00  0.00000000000E+00  0.39015413911E+03  0.39015413914E+03  0.50400000000E-02 0.  1.
         -1   -1    0    0    0  501 -0.00000000000E+00 -0.00000000000E+00 -0.11276540862E+03  0.11276540873E+03  0.50400000000E-02 0. -1.
    5000001    1    1    2    0    0 -0.30533687192E+02  0.12428077461E+03  0.11493203173E+03  0.23835349569E+03  0.16500000000E+03 0.  0.
   -5000001    1    1    2    0    0  0.30533687192E+02 -0.12428077461E+03  0.16245669876E+03  0.26456605218E+03  0.16500000000E+03 0.  0.
<mgrwt>
<rscale>  0 0.41950395E+03</rscale>
<asrwt>0</asrwt>
<pdfrwt beam="1">  1        1 0.60023715E-01 0.41950395E+03</pdfrwt>
<pdfrwt beam="2">  1       -1 0.17348524E-01 0.41950395E+03</pdfrwt>
<totfact> 0.15984706E+03</totfact>
</mgrwt>
</event>
<event>
 4    1  0.2228009E-005  0.6860538E+03  0.7818608E-02  0.9741384E-01
         -1   -1    0    0    0  501 -0.00000000000E+00  0.00000000000E+00  0.92733459461E+02  0.92733459598E+02  0.50400000000E-02 0. -1.
          1   -1    0    0  501    0  0.00000000000E+00 -0.00000000000E+00 -0.12688781967E+04  0.12688781967E+04  0.50400000000E-02 0.  1.
    5000001    1    1    2    0    0  0.29183048662E+03 -0.29920169831E+02 -0.71945620178E+03  0.79429369616E+03  0.16500000000E+03 0.  0.
   -5000001    1    1    2    0    0 -0.29183048662E+03  0.29920169831E+02 -0.45668853546E+03  0.56731796015E+03  0.16500000000E+03 0.  0.
<mgrwt>
<rscale>  0 0.68605383E+03</rscale>
<asrwt>0</asrwt>
<pdfrwt beam="1">  1        1 0.19521202E+00 0.68605383E+03</pdfrwt>
<pdfrwt beam="2">  1       -1 0.14266687E-01 0.68605383E+03</pdfrwt>
<totfact> 0.34579408E+02</totfact>
</mgrwt>
</event>
<event>
 4    1  0.2228009E-005  0.4311602E+03  0.7818608E-02  0.1033494E+00
         -1   -1    0    0    0  501 -0.00000000000E+00  0.00000000000E+00  0.87302476043E+02  0.87302476188E+02  0.50400000000E-02 0.  1.
          1   -1    0    0  501    0  0.00000000000E+00 -0.00000000000E+00 -0.53234216921E+03  0.53234216924E+03  0.50400000000E-02 0. -1.
    5000001    1    1    2    0    0 -0.28241643637E+02 -0.74882481051E+02 -0.59639800040E+02  0.19283900579E+03  0.16500000000E+03 0.  0.
   -5000001    1    1    2    0    0  0.28241643637E+02  0.74882481051E+02 -0.38539989313E+03  0.42680563964E+03  0.16500000000E+03 0.  0.
<mgrwt>
<rscale>  0 0.43116025E+03</rscale>
<asrwt>0</asrwt>
<pdfrwt beam="1">  1        1 0.81898793E-01 0.43116025E+03</pdfrwt>
<pdfrwt beam="2">  1       -1 0.13431150E-01 0.43116025E+03</pdfrwt>
<totfact> 0.15960370E+03</totfact>
</mgrwt>
</event>
<event>
 4    1  0.2228009E-005  0.1267958E+04  0.7818608E-02  0.9055368E-01
          1   -1    0    0  501    0  0.00000000000E+00  0.00000000000E+00  0.15037594180E+04  0.15037594180E+04  0.50400000000E-02 0. -1.
         -1   -1    0    0    0  501 -0.00000000000E+00 -0.00000000000E+00 -0.26728308368E+03  0.26728308373E+03  0.50400000000E-02 0.  1.
    5000001    1    1    2    0    0  0.27709086845E+03 -0.54382459348E+03  0.55302369164E+03  0.83999091743E+03  0.16500000000E+03 0.  0.
   -5000001    1    1    2    0    0 -0.27709086845E+03  0.54382459348E+03  0.68345264268E+03  0.93105158430E+03  0.16500000000E+03 0.  0.
<mgrwt>
<rscale>  0 0.12679581E+04</rscale>
<asrwt>0</asrwt>
<pdfrwt beam="1">  1        1 0.23134760E+00 0.12679581E+04</pdfrwt>
<pdfrwt beam="2">  1       -1 0.41120475E-01 0.12679581E+04</pdfrwt>
<totfact> 0.37068967E+01</totfact>
</mgrwt>
</event>
<event>
 4    1  0.2228009E-005  0.6526878E+03  0.7818608E-02  0.9801749E-01
          1   -1    0    0  501    0  0.00000000000E+00  0.00000000000E+00  0.10017743484E+04  0.10017743484E+04  0.50400000000E-02 0.  1.
         -1   -1    0    0    0  501 -0.00000000000E+00 -0.00000000000E+00 -0.10631170972E+03  0.10631170984E+03  0.50400000000E-02 0. -1.
    5000001    1    1    2    0    0 -0.18242533230E+03 -0.17082059810E+03  0.66789107225E+03  0.73195776039E+03  0.16500000000E+03 0.  0.
   -5000001    1    1    2    0    0  0.18242533230E+03  0.17082059810E+03  0.22757156641E+03  0.37612829784E+03  0.16500000000E+03 0.  0.
<mgrwt>
<rscale>  0 0.65268781E+03</rscale>
<asrwt>0</asrwt>
<pdfrwt beam="1">  1        1 0.15411913E+00 0.65268781E+03</pdfrwt>
<pdfrwt beam="2">  1       -1 0.16355648E-01 0.65268781E+03</pdfrwt>
<totfact> 0.43654667E+02</totfact>
</mgrwt>
</event>
<event>
 4    1  0.2228009E-005  0.5148428E+03  0.7818608E-02  0.1009976E+00
         -1   -1    0    0    0  501 -0.00000000000E+00  0.00000000000E+00  0.29787497891E+03  0.29787497895E+03  0.50400000000E-02 0. -1.
          1   -1    0    0  501    0  0.00000000000E+00 -0.00000000000E+00 -0.22246168349E+03  0.22246168354E+03  0.50400000000E-02 0.  1.
    5000001    1    1    2    0    0  0.81183760515E+02  0.11687930692E+03 -0.10082974782E+03  0.24009001104E+03  0.16500000000E+03 0.  0.
   -5000001    1    1    2    0    0 -0.81183760515E+02 -0.11687930692E+03  0.17624304325E+03  0.28024665145E+03  0.16500000000E+03 0.  0.
<mgrwt>
<rscale>  0 0.51484277E+03</rscale>
<asrwt>0</asrwt>
<pdfrwt beam="1">  1        1 0.34224875E-01 0.51484277E+03</pdfrwt>
<pdfrwt beam="2">  1       -1 0.45826920E-01 0.51484277E+03</pdfrwt>
<totfact> 0.61831689E+02</totfact>
</mgrwt>
</event>
<event>
 4    1  0.2228009E-005  0.7487014E+03  0.7818608E-02  0.9637390E-01
         -1   -1    0    0    0  501 -0.00000000000E+00  0.00000000000E+00  0.17639461410E+03  0.17639461417E+03  0.50400000000E-02 0. -1.
          1   -1    0    0  501    0  0.00000000000E+00 -0.00000000000E+00 -0.79445988494E+03  0.79445988496E+03  0.50400000000E-02 0.  1.
    5000001    1    1    2    0    0  0.32305067921E+03  0.88183014302E+02 -0.27292283658E+03  0.46243903390E+03  0.16500000000E+03 0.  0.
   -5000001    1    1    2    0    0 -0.32305067921E+03 -0.88183014302E+02 -0.34514243427E+03  0.50841546523E+03  0.16500000000E+03 0.  0.
<mgrwt>
<rscale>  0 0.74870140E+03</rscale>
<asrwt>0</asrwt>
<pdfrwt beam="1">  1        1 0.12222460E+00 0.74870140E+03</pdfrwt>
<pdfrwt beam="2">  1       -1 0.27137633E-01 0.74870140E+03</pdfrwt>
<totfact> 0.27469955E+02</totfact>
</mgrwt>
</event>
<event>
 4    1  0.2228009E-005  0.1231508E+04  0.7818608E-02  0.9085716E-01
         -1   -1    0    0    0  501 -0.00000000000E+00  0.00000000000E+00  0.38560465762E+03  0.38560465765E+03  0.50400000000E-02 0. -1.
          1   -1    0    0  501    0  0.00000000000E+00 -0.00000000000E+00 -0.98326807210E+03  0.98326807211E+03  0.50400000000E-02 0.  1.
    5000001    1    1    2    0    0 -0.31143321659E+02 -0.26093375310E+03  0.29234934460E+03  0.42632085250E+03  0.16500000000E+03 0.  0.
   -5000001    1    1    2    0    0  0.31143321659E+02  0.26093375310E+03 -0.89001275908E+03  0.94255187726E+03  0.16500000000E+03 0.  0.
<mgrwt>
<rscale>  0 0.12315076E+04</rscale>
<asrwt>0</asrwt>
<pdfrwt beam="1">  1        1 0.15127201E+00 0.12315076E+04</pdfrwt>
<pdfrwt beam="2">  1       -1 0.59323794E-01 0.12315076E+04</pdfrwt>
<totfact> 0.44361213E+01</totfact>
</mgrwt>
</event>
<event>
 4    1  0.2228009E-005  0.6116596E+03  0.7818608E-02  0.9881507E-01
         -1   -1    0    0    0  501 -0.00000000000E+00  0.00000000000E+00  0.43088374604E+03  0.43088374607E+03  0.50400000000E-02 0. -1.
          1   -1    0    0  501    0  0.00000000000E+00 -0.00000000000E+00 -0.21706986701E+03  0.21706986706E+03  0.50400000000E-02 0.  1.
    5000001    1    1    2    0    0  0.95001151239E+02  0.21547809373E+03  0.21725532197E+03  0.36038993124E+03  0.16500000000E+03 0.  0.
   -5000001    1    1    2    0    0 -0.95001151239E+02 -0.21547809373E+03 -0.34414429386E+01  0.28756368189E+03  0.16500000000E+03 0.  0.
<mgrwt>
<rscale>  0 0.61165964E+03</rscale>
<asrwt>0</asrwt>
<pdfrwt beam="1">  1        1 0.33395364E-01 0.61165964E+03</pdfrwt>
<pdfrwt beam="2">  1       -1 0.66289807E-01 0.61165964E+03</pdfrwt>
<totfact> 0.31277441E+02</totfact>
</mgrwt>
</event>
<event>
 4    1  0.2228009E-005  0.3516135E+03  0.7818608E-02  0.1061955E+00
          1   -1    0    0  501    0  0.00000000000E+00  0.00000000000E+00  0.14146347166E+04  0.14146347166E+04  0.50400000000E-02 0. -1.
         -1   -1    0    0    0  501 -0.00000000000E+00 -0.00000000000E+00 -0.21848754045E+02  0.21848754627E+02  0.50400000000E-02 0.  1.
    5000001    1    1    2    0    0  0.23511817535E+02  0.54844911805E+02  0.74156147289E+03  0.76203621173E+03  0.16500000000E+03 0.  0.
   -5000001    1    1    2    0    0 -0.23511817535E+02 -0.54844911805E+02  0.65122448967E+03  0.67444725951E+03  0.16500000000E+03 0.  0.
<mgrwt>
<rscale>  0 0.35161346E+03</rscale>
<asrwt>0</asrwt>
<pdfrwt beam="1">  1        1 0.21763611E+00 0.35161346E+03</pdfrwt>
<pdfrwt beam="2">  1       -1 0.33613467E-02 0.35161346E+03</pdfrwt>
<totfact> 0.26017856E+03</totfact>
</mgrwt>
</event>
<event>
 4    1  0.2228009E-005  0.4941675E+03  0.7818608E-02  0.1015313E+00
         -1   -1    0    0    0  501 -0.00000000000E+00  0.00000000000E+00  0.15384677821E+03  0.15384677829E+03  0.50400000000E-02 0. -1.
          1   -1    0    0  501    0  0.00000000000E+00 -0.00000000000E+00 -0.39682586453E+03  0.39682586457E+03  0.50400000000E-02 0.  1.
    5000001    1    1    2    0    0  0.89083808522E+02 -0.15568960717E+03 -0.76221900169E+02  0.25536240285E+03  0.16500000000E+03 0.  0.
   -5000001    1    1    2    0    0 -0.89083808522E+02  0.15568960717E+03 -0.16675718615E+03  0.29531024001E+03  0.16500000000E+03 0.  0.
<mgrwt>
<rscale>  0 0.49416751E+03</rscale>
<asrwt>0</asrwt>
<pdfrwt beam="1">  1        1 0.61050133E-01 0.49416751E+03</pdfrwt>
<pdfrwt beam="2">  1       -1 0.23668735E-01 0.49416751E+03</pdfrwt>
<totfact> 0.93614062E+02</totfact>
</mgrwt>
</event>
<event>
 4    1  0.2228009E-005  0.5805057E+03  0.7818608E-02  0.9946697E-01
         -1   -1    0    0    0  501 -0.00000000000E+00  0.00000000000E+00  0.22453805584E+03  0.22453805590E+03  0.50400000000E-02 0. -1.
          1   -1    0    0  501    0  0.00000000000E+00 -0.00000000000E+00 -0.37520021815E+03  0.37520021818E+03  0.50400000000E-02 0.  1.
    5000001    1    1    2    0    0  0.70722875927E+01 -0.21786810892E+03 -0.17605574359E+03  0.32517250035E+03  0.16500000000E+03 0.  0.
   -5000001    1    1    2    0    0 -0.70722875927E+01  0.21786810892E+03  0.25393581279E+02  0.27456577373E+03  0.16500000000E+03 0.  0.
<mgrwt>
<rscale>  0 0.58050574E+03</rscale>
<asrwt>0</asrwt>
<pdfrwt beam="1">  1        1 0.57723111E-01 0.58050574E+03</pdfrwt>
<pdfrwt beam="2">  1       -1 0.34544316E-01 0.58050574E+03</pdfrwt>
<totfact> 0.52444647E+02</totfact>
</mgrwt>
</event>
<event>
 4    1  0.2228009E-005  0.3894111E+03  0.7818608E-02  0.1047509E+00
         -1   -1    0    0    0  501 -0.00000000000E+00  0.00000000000E+00  0.13685490288E+02  0.13685491216E+02  0.50400000000E-02 0. -1.
          1   -1    0    0  501    0  0.00000000000E+00 -0.00000000000E+00 -0.27701054597E+04  0.27701054597E+04  0.50400000000E-02 0.  1.
    5000001    1    1    2    0    0  0.26084503735E+02 -0.98888236284E+02 -0.14856712141E+04  0.14983001171E+04  0.16500000000E+03 0.  0.
   -5000001    1    1    2    0    0 -0.26084503735E+02  0.98888236284E+02 -0.12707487554E+04  0.12854908338E+04  0.16500000000E+03 0.  0.
<mgrwt>
<rscale>  0 0.38941111E+03</rscale>
<asrwt>0</asrwt>
<pdfrwt beam="1">  1        1 0.42616962E+00 0.38941111E+03</pdfrwt>
<pdfrwt beam="2">  1       -1 0.21054623E-02 0.38941111E+03</pdfrwt>
<totfact> 0.65289137E+02</totfact>
</mgrwt>
</event>
<event>
 4    1  0.2228009E-005  0.5719832E+03  0.7818608E-02  0.9965300E-01
          1   -1    0    0  501    0  0.00000000000E+00  0.00000000000E+00  0.81317354828E+03  0.81317354829E+03  0.50400000000E-02 0.  1.
         -1   -1    0    0    0  501 -0.00000000000E+00 -0.00000000000E+00 -0.10058271088E+03  0.10058271101E+03  0.50400000000E-02 0. -1.
    5000001    1    1    2    0    0  0.15052588913E+02  0.21183547876E+03  0.20087237630E+03  0.33567180706E+03  0.16500000000E+03 0.  0.
   -5000001    1    1    2    0    0 -0.15052588913E+02 -0.21183547876E+03  0.51171846110E+03  0.57808445224E+03  0.16500000000E+03 0.  0.
<mgrwt>
<rscale>  0 0.57198322E+03</rscale>
<asrwt>0</asrwt>
<pdfrwt beam="1">  1        1 0.12510362E+00 0.57198322E+03</pdfrwt>
<pdfrwt beam="2">  1       -1 0.15474263E-01 0.57198322E+03</pdfrwt>
<totfact> 0.68076339E+02</totfact>
</mgrwt>
</event>
<event>
 4    1  0.2228009E-005  0.4792432E+03  0.7818608E-02  0.1019343E+00
         -1   -1    0    0    0  501 -0.00000000000E+00  0.00000000000E+00  0.81126662777E+02  0.81126662934E+02  0.50400000000E-02 0.  1.
          1   -1    0    0  501    0  0.00000000000E+00 -0.00000000000E+00 -0.70776365595E+03  0.70776365597E+03  0.50400000000E-02 0. -1.
    5000001    1    1    2    0    0 -0.66159913859E+02 -0.15707839743E+03 -0.25767228264E+03  0.35024386130E+03  0.16500000000E+03 0.  0.
   -5000001    1    1    2    0    0  0.66159913859E+02  0.15707839743E+03 -0.36896471053E+03  0.43864645760E+03  0.16500000000E+03 0.  0.
<mgrwt>
<rscale>  0 0.47924317E+03</rscale>
<asrwt>0</asrwt>
<pdfrwt beam="1">  1        1 0.10888671E+00 0.47924317E+03</pdfrwt>
<pdfrwt beam="2">  1       -1 0.12481026E-01 0.47924317E+03</pdfrwt>
<totfact> 0.11940267E+03</totfact>
</mgrwt>
</event>
<event>
 4    1  0.2228009E-005  0.9222024E+03  0.7818608E-02  0.9398245E-01
          1   -1    0    0  501    0  0.00000000000E+00  0.00000000000E+00  0.97138399214E+03  0.97138399215E+03  0.50400000000E-02 0. -1.
         -1   -1    0    0    0  501 -0.00000000000E+00 -0.00000000000E+00 -0.21887773747E+03  0.21887773753E+03  0.50400000000E-02 0.  1.
    5000001    1    1    2    0    0  0.38759989478E+03 -0.13417987197E+03  0.20722220062E+03  0.48826627664E+03  0.16500000000E+03 0.  0.
   -5000001    1    1    2    0    0 -0.38759989478E+03  0.13417987197E+03  0.54528405405E+03  0.70199545303E+03  0.16500000000E+03 0.  0.
<mgrwt>
<rscale>  0 0.92220243E+03</rscale>
<asrwt>0</asrwt>
<pdfrwt beam="1">  1        1 0.14944369E+00 0.92220243E+03</pdfrwt>
<pdfrwt beam="2">  1       -1 0.33673498E-01 0.92220243E+03</pdfrwt>
<totfact> 0.13323176E+02</totfact>
</mgrwt>
</event>
<event>
 4    1  0.2228009E-005  0.5741255E+03  0.7818608E-02  0.9960591E-01
          1   -1    0    0  501    0  0.00000000000E+00  0.00000000000E+00  0.76805993423E+03  0.76805993425E+03  0.50400000000E-02 0. -1.
         -1   -1    0    0    0  501 -0.00000000000E+00 -0.00000000000E+00 -0.10728982036E+03  0.10728982048E+03  0.50400000000E-02 0.  1.
    5000001    1    1    2    0    0 -0.12979401686E+03  0.10911662803E+03  0.57824106583E+03  0.62477248302E+03  0.16500000000E+03 0.  0.
   -5000001    1    1    2    0    0  0.12979401686E+03 -0.10911662803E+03  0.82529048038E+02  0.25057727170E+03  0.16500000000E+03 0.  0.
<mgrwt>
<rscale>  0 0.57412547E+03</rscale>
<asrwt>0</asrwt>
<pdfrwt beam="1">  1        1 0.11816306E+00 0.57412547E+03</pdfrwt>
<pdfrwt beam="2">  1       -1 0.16506126E-01 0.57412547E+03</pdfrwt>
<totfact> 0.67051961E+02</totfact>
</mgrwt>
</event>
<event>
 4    1  0.2228009E-005  0.4518524E+03  0.7818608E-02  0.1027171E+00
         -1   -1    0    0    0  501 -0.00000000000E+00  0.00000000000E+00  0.19588473029E+02  0.19588473678E+02  0.50400000000E-02 0. -1.
          1   -1    0    0  501    0  0.00000000000E+00 -0.00000000000E+00 -0.26057489618E+04  0.26057489618E+04  0.50400000000E-02 0.  1.
    5000001    1    1    2    0    0  0.23185426092E+02 -0.12455014978E+03 -0.78101568259E+03  0.80824550741E+03  0.16500000000E+03 0.  0.
   -5000001    1    1    2    0    0 -0.23185426092E+02  0.12455014978E+03 -0.18051448061E+04  0.18170919280E+04  0.16500000000E+03 0.  0.
<mgrwt>
<rscale>  0 0.45185238E+03</rscale>
<asrwt>0</asrwt>
<pdfrwt beam="1">  1        1 0.40088418E+00 0.45185238E+03</pdfrwt>
<pdfrwt beam="2">  1       -1 0.30136134E-02 0.45185238E+03</pdfrwt>
<totfact> 0.49260949E+02</totfact>
</mgrwt>
</event>
<event>
 4    1  0.2228009E-005  0.4692360E+03  0.7818608E-02  0.1022136E+00
          1   -1    0    0  501    0  0.00000000000E+00  0.00000000000E+00  0.32956371148E+03  0.32956371152E+03  0.50400000000E-02 0.  1.
         -1   -1    0    0    0  501 -0.00000000000E+00 -0.00000000000E+00 -0.16702567846E+03  0.16702567853E+03  0.50400000000E-02 0. -1.
    5000001    1    1    2    0    0 -0.80847758819E+02 -0.12364140728E+03  0.16322388798E+03  0.27511923834E+03  0.16500000000E+03 0.  0.
   -5000001    1    1    2    0    0  0.80847758819E+02  0.12364140728E+03 -0.68585495404E+00  0.22147015171E+03  0.16500000000E+03 0.  0.
<mgrwt>
<rscale>  0 0.46923599E+03</rscale>
<asrwt>0</asrwt>
<pdfrwt beam="1">  1        1 0.50702108E-01 0.46923599E+03</pdfrwt>
<pdfrwt beam="2">  1       -1 0.25696259E-01 0.46923599E+03</pdfrwt>
<totfact> 0.10371121E+03</totfact>
</mgrwt>
</event>
<event>
 4    1  0.2228009E-005  0.4374618E+03  0.7818608E-02  0.1031528E+00
         -1   -1    0    0    0  501 -0.00000000000E+00  0.00000000000E+00  0.25125086759E+03  0.25125086764E+03  0.50400000000E-02 0. -1.
          1   -1    0    0  501    0  0.00000000000E+00 -0.00000000000E+00 -0.19042009792E+03  0.19042009799E+03  0.50400000000E-02 0.  1.
    5000001    1    1    2    0    0 -0.47228388089E+02  0.11039762698E+03 -0.49082680389E+02  0.20988631732E+03  0.16500000000E+03 0.  0.
   -5000001    1    1    2    0    0  0.47228388089E+02 -0.11039762698E+03  0.10991345006E+03  0.23178464830E+03  0.16500000000E+03 0.  0.
<mgrwt>
<rscale>  0 0.43746184E+03</rscale>
<asrwt>0</asrwt>
<pdfrwt beam="1">  1        1 0.29295400E-01 0.43746184E+03</pdfrwt>
<pdfrwt beam="2">  1       -1 0.38653980E-01 0.43746184E+03</pdfrwt>
<totfact> 0.10292250E+03</totfact>
</mgrwt>
</event>
<event>
 4    1  0.2228009E-005  0.6875892E+03  0.7818608E-02  0.9738695E-01
         -1   -1    0    0    0  501 -0.00000000000E+00  0.00000000000E+00  0.15673021547E+03  0.15673021555E+03  0.50400000000E-02 0.  1.
          1   -1    0    0  501    0  0.00000000000E+00 -0.00000000000E+00 -0.75412856187E+03  0.75412856189E+03  0.50400000000E-02 0. -1.
    5000001    1    1    2    0    0  0.90232468384E+02 -0.22726060683E+03 -0.64781420398E+02  0.30201144713E+03  0.16500000000E+03 0.  0.
   -5000001    1    1    2    0    0 -0.90232468384E+02  0.22726060683E+03 -0.53261692600E+03  0.60884733032E+03  0.16500000000E+03 0.  0.
<mgrwt>
<rscale>  0 0.68758921E+03</rscale>
<asrwt>0</asrwt>
<pdfrwt beam="1">  1        1 0.11601978E+00 0.68758921E+03</pdfrwt>
<pdfrwt beam="2">  1       -1 0.24112341E-01 0.68758921E+03</pdfrwt>
<totfact> 0.36588961E+02</totfact>
</mgrwt>
</event>
<event>
 4    1  0.2228009E-005  0.4845420E+03  0.7818608E-02  0.1017894E+00
         -1   -1    0    0    0  501 -0.00000000000E+00  0.00000000000E+00  0.14832064626E+03  0.14832064635E+03  0.50400000000E-02 0. -1.
          1   -1    0    0  501    0  0.00000000000E+00 -0.00000000000E+00 -0.39573202694E+03  0.39573202697E+03  0.50400000000E-02 0.  1.
    5000001    1    1    2    0    0 -0.92675193068E+01 -0.16832100832E+03 -0.61671811451E+02  0.24381603943E+03  0.16500000000E+03 0.  0.
   -5000001    1    1    2    0    0  0.92675193068E+01  0.16832100832E+03 -0.18573956922E+03  0.30023663389E+03  0.16500000000E+03 0.  0.
<mgrwt>
<rscale>  0 0.48454197E+03</rscale>
<asrwt>0</asrwt>
<pdfrwt beam="1">  1        1 0.60881850E-01 0.48454197E+03</pdfrwt>
<pdfrwt beam="2">  1       -1 0.22818561E-01 0.48454197E+03</pdfrwt>
<totfact> 0.99902142E+02</totfact>
</mgrwt>
</event>
<event>
 4    1  0.2228009E-005  0.4398550E+03  0.7818608E-02  0.1030791E+00
         -1   -1    0    0    0  501 -0.00000000000E+00  0.00000000000E+00  0.43734164294E+02  0.43734164584E+02  0.50400000000E-02 0.  1.
          1   -1    0    0  501    0  0.00000000000E+00 -0.00000000000E+00 -0.11059567983E+04  0.11059567983E+04  0.50400000000E-02 0. -1.
    5000001    1    1    2    0    0 -0.83007462723E+02 -0.11919289723E+03 -0.51340087505E+03  0.55848244746E+03  0.16500000000E+03 0.  0.
   -5000001    1    1    2    0    0  0.83007462723E+02  0.11919289723E+03 -0.54882175892E+03  0.59120851541E+03  0.16500000000E+03 0.  0.
<mgrwt>
<rscale>  0 0.43985496E+03</rscale>
<asrwt>0</asrwt>
<pdfrwt beam="1">  1        1 0.17014718E+00 0.43985496E+03</pdfrwt>
<pdfrwt beam="2">  1       -1 0.67283338E-02 0.43985496E+03</pdfrwt>
<totfact> 0.14962078E+03</totfact>
</mgrwt>
</event>
<event>
 4    1  0.2228009E-005  0.6642633E+03  0.7818608E-02  0.9780377E-01
         -1   -1    0    0    0  501 -0.00000000000E+00  0.00000000000E+00  0.16033093446E+03  0.16033093454E+03  0.50400000000E-02 0.  1.
          1   -1    0    0  501    0  0.00000000000E+00 -0.00000000000E+00 -0.68802338378E+03  0.68802338380E+03  0.50400000000E-02 0. -1.
    5000001    1    1    2    0    0 -0.84206027782E+02  0.24490292586E+03 -0.10220739821E+03  0.32363474853E+03  0.16500000000E+03 0.  0.
   -5000001    1    1    2    0    0  0.84206027782E+02 -0.24490292586E+03 -0.42548505111E+03  0.52471956980E+03  0.16500000000E+03 0.  0.
<mgrwt>
<rscale>  0 0.66426330E+03</rscale>
<asrwt>0</asrwt>
<pdfrwt beam="1">  1        1 0.10584975E+00 0.66426330E+03</pdfrwt>
<pdfrwt beam="2">  1       -1 0.24666298E-01 0.66426330E+03</pdfrwt>
<totfact> 0.40527792E+02</totfact>
</mgrwt>
</event>
<event>
 4    1  0.2228009E-005  0.5888498E+03  0.7818608E-02  0.9928813E-01
          1   -1    0    0  501    0  0.00000000000E+00  0.00000000000E+00  0.13240452690E+03  0.13240452699E+03  0.50400000000E-02 0.  1.
         -1   -1    0    0    0  501 -0.00000000000E+00 -0.00000000000E+00 -0.65470590396E+03  0.65470590398E+03  0.50400000000E-02 0. -1.
    5000001    1    1    2    0    0  0.12753773333E+03  0.15895646571E+03 -0.44012758658E+03  0.51231857656E+03  0.16500000000E+03 0.  0.
   -5000001    1    1    2    0    0 -0.12753773333E+03 -0.15895646571E+03 -0.82173790483E+02  0.27479185442E+03  0.16500000000E+03 0.  0.
<mgrwt>
<rscale>  0 0.58884981E+03</rscale>
<asrwt>0</asrwt>
<pdfrwt beam="1">  1        1 0.20369928E-01 0.58884981E+03</pdfrwt>
<pdfrwt beam="2">  1       -1 0.10072398E+00 0.58884981E+03</pdfrwt>
<totfact> 0.24424224E+02</totfact>
</mgrwt>
</event>
<event>
 4    1  0.2228009E-005  0.4616581E+03  0.7818608E-02  0.1024301E+00
         -1   -1    0    0    0  501 -0.00000000000E+00  0.00000000000E+00  0.11135233083E+03  0.11135233095E+03  0.50400000000E-02 0. -1.
          1   -1    0    0  501    0  0.00000000000E+00 -0.00000000000E+00 -0.47849962725E+03  0.47849962727E+03  0.50400000000E-02 0.  1.
    5000001    1    1    2    0    0  0.28195965033E+02 -0.13144292829E+03 -0.69403016893E+02  0.22386164164E+03  0.16500000000E+03 0.  0.
   -5000001    1    1    2    0    0 -0.28195965033E+02  0.13144292829E+03 -0.29774427952E+03  0.36599031658E+03  0.16500000000E+03 0.  0.
<mgrwt>
<rscale>  0 0.46165809E+03</rscale>
<asrwt>0</asrwt>
<pdfrwt beam="1">  1        1 0.73615326E-01 0.46165809E+03</pdfrwt>
<pdfrwt beam="2">  1       -1 0.17131128E-01 0.46165809E+03</pdfrwt>
<totfact> 0.12465672E+03</totfact>
</mgrwt>
</event>
<event>
 4    1  0.2228009E-005  0.4636887E+03  0.7818608E-02  0.1023717E+00
         -1   -1    0    0    0  501 -0.00000000000E+00  0.00000000000E+00  0.99378892691E+02  0.99378892819E+02  0.50400000000E-02 0.  1.
          1   -1    0    0  501    0  0.00000000000E+00 -0.00000000000E+00 -0.54087748034E+03  0.54087748036E+03  0.50400000000E-02 0. -1.
    5000001    1    1    2    0    0 -0.92878448580E+02  0.12270167898E+03 -0.14710393427E+03  0.26934490103E+03  0.16500000000E+03 0.  0.
   -5000001    1    1    2    0    0  0.92878448580E+02 -0.12270167898E+03 -0.29439465337E+03  0.37091147214E+03  0.16500000000E+03 0.  0.
<mgrwt>
<rscale>  0 0.46368871E+03</rscale>
<asrwt>0</asrwt>
<pdfrwt beam="1">  1        1 0.83211919E-01 0.46368871E+03</pdfrwt>
<pdfrwt beam="2">  1       -1 0.15289061E-01 0.46368871E+03</pdfrwt>
<totfact> 0.12686317E+03</totfact>
</mgrwt>
</event>
<event>
 4    1  0.2228009E-005  0.5704218E+03  0.7818608E-02  0.9968746E-01
          1   -1    0    0  501    0  0.00000000000E+00  0.00000000000E+00  0.15656765259E+04  0.15656765259E+04  0.50400000000E-02 0. -1.
         -1   -1    0    0    0  501 -0.00000000000E+00 -0.00000000000E+00 -0.51955349734E+02  0.51955349978E+02  0.50400000000E-02 0.  1.
    5000001    1    1    2    0    0 -0.21459193332E+03  0.77056534619E+02  0.88782857633E+03  0.93137102613E+03  0.16500000000E+03 0.  0.
   -5000001    1    1    2    0    0  0.21459193332E+03 -0.77056534619E+02  0.62589259982E+03  0.68626084974E+03  0.16500000000E+03 0.  0.
<mgrwt>
<rscale>  0 0.57042185E+03</rscale>
<asrwt>0</asrwt>
<pdfrwt beam="1">  1        1 0.24087325E+00 0.57042185E+03</pdfrwt>
<pdfrwt beam="2">  1       -1 0.79931326E-02 0.57042185E+03</pdfrwt>
<totfact> 0.54475190E+02</totfact>
</mgrwt>
</event>
<event>
 4    1  0.2228009E-005  0.1460224E+04  0.7818608E-02  0.8911343E-01
          1   -1    0    0  501    0  0.00000000000E+00  0.00000000000E+00  0.76068959578E+03  0.76068959579E+03  0.50400000000E-02 0.  1.
         -1   -1    0    0    0  501 -0.00000000000E+00 -0.00000000000E+00 -0.70076341562E+03  0.70076341563E+03  0.50400000000E-02 0. -1.
    5000001    1    1    2    0    0 -0.45059414905E+03 -0.46071887365E+03  0.33111747219E+03  0.74307519679E+03  0.16500000000E+03 0.  0.
   -5000001    1    1    2    0    0  0.45059414905E+03  0.46071887365E+03 -0.27119129202E+03  0.71837781464E+03  0.16500000000E+03 0.  0.
<mgrwt>
<rscale>  0 0.14602239E+04</rscale>
<asrwt>0</asrwt>
<pdfrwt beam="1">  1        1 0.11702917E+00 0.14602239E+04</pdfrwt>
<pdfrwt beam="2">  1       -1 0.10780976E+00 0.14602239E+04</pdfrwt>
<totfact> 0.18611292E+01</totfact>
</mgrwt>
</event>
<event>
 4    1  0.2228009E-005  0.1081694E+04  0.7818608E-02  0.9223220E-01
          1   -1    0    0  501    0  0.00000000000E+00  0.00000000000E+00  0.25825632103E+04  0.25825632103E+04  0.50400000000E-02 0. -1.
         -1   -1    0    0    0  501 -0.00000000000E+00 -0.00000000000E+00 -0.11326556238E+03  0.11326556249E+03  0.50400000000E-02 0.  1.
    5000001    1    1    2    0    0 -0.23405901366E+03 -0.29209738220E+03  0.21164399388E+04  0.21556083868E+04  0.16500000000E+03 0.  0.
   -5000001    1    1    2    0    0  0.23405901366E+03  0.29209738220E+03  0.35285770906E+03  0.54022038596E+03  0.16500000000E+03 0.  0.
<mgrwt>
<rscale>  0 0.10816940E+04</rscale>
<asrwt>0</asrwt>
<pdfrwt beam="1">  1        1 0.39731740E+00 0.10816940E+04</pdfrwt>
<pdfrwt beam="2">  1       -1 0.17425472E-01 0.10816940E+04</pdfrwt>
<totfact> 0.30788640E+01</totfact>
</mgrwt>
</event>
<event>
 4    1  0.2228009E-005  0.4199988E+03  0.7818608E-02  0.1037067E+00
         -1   -1    0    0    0  501 -0.00000000000E+00  0.00000000000E+00  0.80729115020E+02  0.80729115178E+02  0.50400000000E-02 0. -1.
          1   -1    0    0  501    0  0.00000000000E+00 -0.00000000000E+00 -0.54626817137E+03  0.54626817139E+03  0.50400000000E-02 0.  1.
    5000001    1    1    2    0    0 -0.11412962416E+03 -0.49240871223E+02 -0.28911390941E+03  0.35533376863E+03  0.16500000000E+03 0.  0.
   -5000001    1    1    2    0    0  0.11412962416E+03  0.49240871223E+02 -0.17642514693E+03  0.27166351794E+03  0.16500000000E+03 0.  0.
<mgrwt>
<rscale>  0 0.41999879E+03</rscale>
<asrwt>0</asrwt>
<pdfrwt beam="1">  1        1 0.84041255E-01 0.41999879E+03</pdfrwt>
<pdfrwt beam="2">  1       -1 0.12419864E-01 0.41999879E+03</pdfrwt>
<totfact> 0.17443872E+03</totfact>
</mgrwt>
</event>
<event>
 4    1  0.2228009E-005  0.2252661E+04  0.7818608E-02  0.8496824E-01
         -1   -1    0    0    0  501 -0.00000000000E+00  0.00000000000E+00  0.14395628175E+04  0.14395628175E+04  0.50400000000E-02 0. -1.
          1   -1    0    0  501    0  0.00000000000E+00 -0.00000000000E+00 -0.88125397094E+03  0.88125397095E+03  0.50400000000E-02 0.  1.
    5000001    1    1    2    0    0  0.54071610014E+02 -0.41672654893E+03  0.13422717833E+04  0.14161579346E+04  0.16500000000E+03 0.  0.
   -5000001    1    1    2    0    0 -0.54071610014E+02  0.41672654893E+03 -0.78396293675E+03  0.90465885382E+03  0.16500000000E+03 0.  0.
<mgrwt>
<rscale>  0 0.22526610E+04</rscale>
<asrwt>0</asrwt>
<pdfrwt beam="1">  1        1 0.13557754E+00 0.22526610E+04</pdfrwt>
<pdfrwt beam="2">  1       -1 0.22147120E+00 0.22526610E+04</pdfrwt>
<totfact> 0.18409988E+00</totfact>
</mgrwt>
</event>
<event>
 4    1  0.2228009E-005  0.6026092E+03  0.7818608E-02  0.9900008E-01
         -1   -1    0    0    0  501 -0.00000000000E+00  0.00000000000E+00  0.52501353235E+03  0.52501353238E+03  0.50400000000E-02 0. -1.
          1   -1    0    0  501    0  0.00000000000E+00 -0.00000000000E+00 -0.17291830439E+03  0.17291830446E+03  0.50400000000E-02 0.  1.
    5000001    1    1    2    0    0 -0.24881492787E+03  0.16021225593E+02  0.21928837954E+03  0.37078017936E+03  0.16500000000E+03 0.  0.
   -5000001    1    1    2    0    0  0.24881492787E+03 -0.16021225593E+02  0.13280684843E+03  0.32715165748E+03  0.16500000000E+03 0.  0.
<mgrwt>
<rscale>  0 0.60260916E+03</rscale>
<asrwt>0</asrwt>
<pdfrwt beam="1">  1        1 0.26602817E-01 0.60260916E+03</pdfrwt>
<pdfrwt beam="2">  1       -1 0.80771311E-01 0.60260916E+03</pdfrwt>
<totfact> 0.27935608E+02</totfact>
</mgrwt>
</event>
<event>
 4    1  0.2228009E-005  0.4223487E+03  0.7818608E-02  0.1036305E+00
         -1   -1    0    0    0  501 -0.00000000000E+00  0.00000000000E+00  0.49004516291E+03  0.49004516294E+03  0.50400000000E-02 0. -1.
          1   -1    0    0  501    0  0.00000000000E+00 -0.00000000000E+00 -0.91001021778E+02  0.91001021917E+02  0.50400000000E-02 0.  1.
    5000001    1    1    2    0    0 -0.39407987081E+02 -0.11736517265E+03  0.13735343791E+03  0.24782764193E+03  0.16500000000E+03 0.  0.
   -5000001    1    1    2    0    0  0.39407987081E+02  0.11736517265E+03  0.26169070322E+03  0.33321854293E+03  0.16500000000E+03 0.  0.
<mgrwt>
<rscale>  0 0.42234872E+03</rscale>
<asrwt>0</asrwt>
<pdfrwt beam="1">  1        1 0.14000157E-01 0.42234872E+03</pdfrwt>
<pdfrwt beam="2">  1       -1 0.75391566E-01 0.42234872E+03</pdfrwt>
<totfact> 0.75496585E+02</totfact>
</mgrwt>
</event>
<event>
 4    1  0.2228009E-005  0.7091700E+03  0.7818608E-02  0.9701677E-01
          1   -1    0    0  501    0  0.00000000000E+00  0.00000000000E+00  0.21652933694E+03  0.21652933700E+03  0.50400000000E-02 0. -1.
         -1   -1    0    0    0  501 -0.00000000000E+00 -0.00000000000E+00 -0.58066280341E+03  0.58066280343E+03  0.50400000000E-02 0.  1.
    5000001    1    1    2    0    0  0.29469404247E+03  0.73341191986E+02 -0.27116359105E+03  0.43929284335E+03  0.16500000000E+03 0.  0.
   -5000001    1    1    2    0    0 -0.29469404247E+03 -0.73341191986E+02 -0.92969875413E+02  0.35789929707E+03  0.16500000000E+03 0.  0.
<mgrwt>
<rscale>  0 0.70917003E+03</rscale>
<asrwt>0</asrwt>
<pdfrwt beam="1">  1        1 0.33312206E-01 0.70917003E+03</pdfrwt>
<pdfrwt beam="2">  1       -1 0.89332738E-01 0.70917003E+03</pdfrwt>
<totfact> 0.16718709E+02</totfact>
</mgrwt>
</event>
<event>
 4    1  0.2228009E-005  0.4387353E+03  0.7818608E-02  0.1031136E+00
          1   -1    0    0  501    0  0.00000000000E+00  0.00000000000E+00  0.82753077846E+03  0.82753077848E+03  0.50400000000E-02 0.  1.
         -1   -1    0    0    0  501 -0.00000000000E+00 -0.00000000000E+00 -0.58151507406E+02  0.58151507625E+02  0.50400000000E-02 0. -1.
    5000001    1    1    2    0    0  0.77944845944E+02 -0.68874024506E+02  0.18203085815E+03  0.26679442194E+03  0.16500000000E+03 0.  0.
   -5000001    1    1    2    0    0 -0.77944845944E+02  0.68874024506E+02  0.58734841290E+03  0.61888786416E+03  0.16500000000E+03 0.  0.
<mgrwt>
<rscale>  0 0.43873528E+03</rscale>
<asrwt>0</asrwt>
<pdfrwt beam="1">  1        1 0.12731242E+00 0.43873528E+03</pdfrwt>
<pdfrwt beam="2">  1       -1 0.89463864E-02 0.43873528E+03</pdfrwt>
<totfact> 0.15848606E+03</totfact>
</mgrwt>
</event>
<event>
 4    1  0.2228009E-005  0.4883061E+03  0.7818608E-02  0.1016877E+00
         -1   -1    0    0    0  501 -0.00000000000E+00  0.00000000000E+00  0.57877444858E+02  0.57877445077E+02  0.50400000000E-02 0. -1.
          1   -1    0    0  501    0  0.00000000000E+00 -0.00000000000E+00 -0.10299470667E+04  0.10299470667E+04  0.50400000000E-02 0.  1.
    5000001    1    1    2    0    0  0.16125978176E+03  0.49634575469E+02 -0.34660184152E+03  0.41931628258E+03  0.16500000000E+03 0.  0.
   -5000001    1    1    2    0    0 -0.16125978176E+03 -0.49634575469E+02 -0.62546778035E+03  0.66850822923E+03  0.16500000000E+03 0.  0.
<mgrwt>
<rscale>  0 0.48830607E+03</rscale>
<asrwt>0</asrwt>
<pdfrwt beam="1">  1        1 0.15845338E+00 0.48830607E+03</pdfrwt>
<pdfrwt beam="2">  1       -1 0.89042231E-02 0.48830607E+03</pdfrwt>
<totfact> 0.11029512E+03</totfact>
</mgrwt>
</event>
<event>
 4    1  0.2228009E-005  0.4750368E+03  0.7818608E-02  0.1020508E+00
          1   -1    0    0  501    0  0.00000000000E+00  0.00000000000E+00  0.82510708376E+03  0.82510708378E+03  0.50400000000E-02 0.  1.
         -1   -1    0    0    0  501 -0.00000000000E+00 -0.00000000000E+00 -0.68372917312E+02  0.68372917497E+02  0.50400000000E-02 0. -1.
    5000001    1    1    2    0    0  0.12362302262E+03 -0.50007896584E+02  0.17748808454E+03  0.27660524506E+03  0.16500000000E+03 0.  0.
   -5000001    1    1    2    0    0 -0.12362302262E+03  0.50007896584E+02  0.57924608192E+03  0.61687475622E+03  0.16500000000E+03 0.  0.
<mgrwt>
<rscale>  0 0.47503675E+03</rscale>
<asrwt>0</asrwt>
<pdfrwt beam="1">  1        1 0.12693955E+00 0.47503675E+03</pdfrwt>
<pdfrwt beam="2">  1       -1 0.10518910E-01 0.47503675E+03</pdfrwt>
<totfact> 0.12351906E+03</totfact>
</mgrwt>
</event>
<event>
 4    1  0.2228009E-005  0.7369033E+03  0.7818608E-02  0.9656124E-01
          1   -1    0    0  501    0  0.00000000000E+00  0.00000000000E+00  0.33251514060E+03  0.33251514064E+03  0.50400000000E-02 0.  1.
         -1   -1    0    0    0  501 -0.00000000000E+00 -0.00000000000E+00 -0.40827194626E+03  0.40827194629E+03  0.50400000000E-02 0. -1.
    5000001    1    1    2    0    0  0.27159037295E+02 -0.27505540239E+03 -0.21809543559E+03  0.38882349043E+03  0.16500000000E+03 0.  0.
   -5000001    1    1    2    0    0 -0.27159037295E+02  0.27505540239E+03  0.14233862993E+03  0.35196359650E+03  0.16500000000E+03 0.  0.
<mgrwt>
<rscale>  0 0.73690326E+03</rscale>
<asrwt>0</asrwt>
<pdfrwt beam="1">  1        1 0.51156175E-01 0.73690326E+03</pdfrwt>
<pdfrwt beam="2">  1       -1 0.62811069E-01 0.73690326E+03</pdfrwt>
<totfact> 0.19969727E+02</totfact>
</mgrwt>
</event>
<event>
 4    1  0.2228009E-005  0.3900574E+03  0.7818608E-02  0.1047278E+00
         -1   -1    0    0    0  501 -0.00000000000E+00  0.00000000000E+00  0.65613333940E+02  0.65613334134E+02  0.50400000000E-02 0. -1.
          1   -1    0    0  501    0  0.00000000000E+00 -0.00000000000E+00 -0.57970231411E+03  0.57970231413E+03  0.50400000000E-02 0.  1.
    5000001    1    1    2    0    0  0.89994930006E+02  0.10308397812E+02 -0.17259083921E+03  0.25537804971E+03  0.16500000000E+03 0.  0.
   -5000001    1    1    2    0    0 -0.89994930006E+02 -0.10308397812E+02 -0.34149814095E+03  0.38993759856E+03  0.16500000000E+03 0.  0.
<mgrwt>
<rscale>  0 0.39005744E+03</rscale>
<asrwt>0</asrwt>
<pdfrwt beam="1">  1        1 0.89184968E-01 0.39005744E+03</pdfrwt>
<pdfrwt beam="2">  1       -1 0.10094359E-01 0.39005744E+03</pdfrwt>
<totfact> 0.22250061E+03</totfact>
</mgrwt>
</event>
<event>
 4    1  0.2228009E-005  0.6177121E+03  0.7818608E-02  0.9869325E-01
          1   -1    0    0  501    0  0.00000000000E+00  0.00000000000E+00  0.98761601507E+03  0.98761601509E+03  0.50400000000E-02 0.  1.
         -1   -1    0    0    0  501 -0.00000000000E+00 -0.00000000000E+00 -0.96588220001E+02  0.96588220133E+02  0.50400000000E-02 0. -1.
    5000001    1    1    2    0    0  0.24465716431E+02 -0.23636441844E+03  0.63537003290E+03  0.69813092489E+03  0.16500000000E+03 0.  0.
   -5000001    1    1    2    0    0 -0.24465716431E+02  0.23636441844E+03  0.25565776217E+03  0.38607331033E+03  0.16500000000E+03 0.  0.
<mgrwt>
<rscale>  0 0.61771214E+03</rscale>
<asrwt>0</asrwt>
<pdfrwt beam="1">  1        1 0.15194093E+00 0.61771214E+03</pdfrwt>
<pdfrwt beam="2">  1       -1 0.14859726E-01 0.61771214E+03</pdfrwt>
<totfact> 0.52414795E+02</totfact>
</mgrwt>
</event>
<event>
 4    1  0.2228009E-005  0.5940890E+03  0.7818608E-02  0.9917746E-01
         -1   -1    0    0    0  501 -0.00000000000E+00  0.00000000000E+00  0.55129399561E+02  0.55129399791E+02  0.50400000000E-02 0.  1.
          1   -1    0    0  501    0  0.00000000000E+00 -0.00000000000E+00 -0.16005151534E+04  0.16005151534E+04  0.50400000000E-02 0. -1.
    5000001    1    1    2    0    0  0.21744602647E+03 -0.10550052743E+03 -0.91472185550E+03  0.96039273667E+03  0.16500000000E+03 0.  0.
   -5000001    1    1    2    0    0 -0.21744602647E+03  0.10550052743E+03 -0.63066389830E+03  0.69525181650E+03  0.16500000000E+03 0.  0.
<mgrwt>
<rscale>  0 0.59408902E+03</rscale>
<asrwt>0</asrwt>
<pdfrwt beam="1">  1        1 0.24623307E+00 0.59408902E+03</pdfrwt>
<pdfrwt beam="2">  1       -1 0.84814473E-02 0.59408902E+03</pdfrwt>
<totfact> 0.46971517E+02</totfact>
</mgrwt>
</event>
<event>
 4    1  0.2228009E-005  0.4283518E+03  0.7818608E-02  0.1034382E+00
         -1   -1    0    0    0  501 -0.00000000000E+00  0.00000000000E+00  0.30136609142E+02  0.30136609563E+02  0.50400000000E-02 0. -1.
          1   -1    0    0  501    0  0.00000000000E+00 -0.00000000000E+00 -0.15221124971E+04  0.15221124971E+04  0.50400000000E-02 0.  1.
    5000001    1    1    2    0    0 -0.83310892957E+02  0.97091361368E+02 -0.91897788719E+03  0.94239736549E+03  0.16500000000E+03 0.  0.
   -5000001    1    1    2    0    0  0.83310892957E+02 -0.97091361368E+02 -0.57299800075E+03  0.60985174117E+03  0.16500000000E+03 0.  0.
<mgrwt>
<rscale>  0 0.42835177E+03</rscale>
<asrwt>0</asrwt>
<pdfrwt beam="1">  1        1 0.23417109E+00 0.42835177E+03</pdfrwt>
<pdfrwt beam="2">  1       -1 0.46364026E-02 0.42835177E+03</pdfrwt>
<totfact> 0.13553526E+03</totfact>
</mgrwt>
</event>
<event>
 4    1  0.2228009E-005  0.4637836E+03  0.7818608E-02  0.1023690E+00
          1   -1    0    0  501    0  0.00000000000E+00  0.00000000000E+00  0.50650942494E+03  0.50650942496E+03  0.50400000000E-02 0.  1.
         -1   -1    0    0    0  501 -0.00000000000E+00 -0.00000000000E+00 -0.10616545294E+03  0.10616545306E+03  0.50400000000E-02 0. -1.
    5000001    1    1    2    0    0  0.10124589511E+03 -0.12508497104E+03  0.16644488772E+03  0.28429893054E+03  0.16500000000E+03 0.  0.
   -5000001    1    1    2    0    0 -0.10124589511E+03  0.12508497104E+03  0.23389908428E+03  0.32837594748E+03  0.16500000000E+03 0.  0.
<mgrwt>
<rscale>  0 0.46378358E+03</rscale>
<asrwt>0</asrwt>
<pdfrwt beam="1">  1        1 0.77924528E-01 0.46378358E+03</pdfrwt>
<pdfrwt beam="2">  1       -1 0.16333146E-01 0.46378358E+03</pdfrwt>
<totfact> 0.12473176E+03</totfact>
</mgrwt>
</event>
<event>
 4    1  0.2228009E-005  0.7376563E+03  0.7818608E-02  0.9654917E-01
         -1   -1    0    0    0  501 -0.00000000000E+00  0.00000000000E+00  0.12991227525E+04  0.12991227525E+04  0.50400000000E-02 0. -1.
          1   -1    0    0  501    0  0.00000000000E+00 -0.00000000000E+00 -0.10471235628E+03  0.10471235640E+03  0.50400000000E-02 0.  1.
    5000001    1    1    2    0    0  0.12458701747E+03  0.29321949056E+03  0.75991328819E+03  0.84035278314E+03  0.16500000000E+03 0.  0.
   -5000001    1    1    2    0    0 -0.12458701747E+03 -0.29321949056E+03  0.43449710802E+03  0.56348232576E+03  0.16500000000E+03 0.  0.
<mgrwt>
<rscale>  0 0.73765630E+03</rscale>
<asrwt>0</asrwt>
<pdfrwt beam="1">  1        1 0.16109592E-01 0.73765630E+03</pdfrwt>
<pdfrwt beam="2">  1       -1 0.19986505E+00 0.73765630E+03</pdfrwt>
<totfact> 0.54085619E+01</totfact>
</mgrwt>
</event>
<event>
 4    1  0.2228009E-005  0.4373422E+03  0.7818608E-02  0.1031565E+00
         -1   -1    0    0    0  501 -0.00000000000E+00  0.00000000000E+00  0.13875751625E+03  0.13875751634E+03  0.50400000000E-02 0.  1.
          1   -1    0    0  501    0  0.00000000000E+00 -0.00000000000E+00 -0.34460871370E+03  0.34460871374E+03  0.50400000000E-02 0. -1.
    5000001    1    1    2    0    0 -0.13126425284E+03  0.23476782429E+02 -0.44331571259E+02  0.21672967401E+03  0.16500000000E+03 0.  0.
   -5000001    1    1    2    0    0  0.13126425284E+03 -0.23476782429E+02 -0.16151962619E+03  0.26663655607E+03  0.16500000000E+03 0.  0.
<mgrwt>
<rscale>  0 0.43734220E+03</rscale>
<asrwt>0</asrwt>
<pdfrwt beam="1">  1        1 0.53016725E-01 0.43734220E+03</pdfrwt>
<pdfrwt beam="2">  1       -1 0.21347310E-01 0.43734220E+03</pdfrwt>
<totfact> 0.13357273E+03</totfact>
</mgrwt>
</event>
<event>
 4    1  0.2228009E-005  0.4828573E+03  0.7818608E-02  0.1018353E+00
         -1   -1    0    0    0  501 -0.00000000000E+00  0.00000000000E+00  0.58224740976E+02  0.58224741194E+02  0.50400000000E-02 0. -1.
          1   -1    0    0  501    0  0.00000000000E+00 -0.00000000000E+00 -0.10010828698E+04  0.10010828698E+04  0.50400000000E-02 0.  1.
    5000001    1    1    2    0    0 -0.70487547815E+02  0.14114613310E+03 -0.64378195300E+03  0.68305997416E+03  0.16500000000E+03 0.  0.
   -5000001    1    1    2    0    0  0.70487547815E+02 -0.14114613310E+03 -0.29907617581E+03  0.37624763683E+03  0.16500000000E+03 0.  0.
<mgrwt>
<rscale>  0 0.48285729E+03</rscale>
<asrwt>0</asrwt>
<pdfrwt beam="1">  1        1 0.15401274E+00 0.48285729E+03</pdfrwt>
<pdfrwt beam="2">  1       -1 0.89576532E-02 0.48285729E+03</pdfrwt>
<totfact> 0.11494806E+03</totfact>
</mgrwt>
</event>
<event>
 4    1  0.2228009E-005  0.5325249E+03  0.7818608E-02  0.1005622E+00
          1   -1    0    0  501    0  0.00000000000E+00  0.00000000000E+00  0.17179343786E+04  0.17179343786E+04  0.50400000000E-02 0. -1.
         -1   -1    0    0    0  501 -0.00000000000E+00 -0.00000000000E+00 -0.41267984898E+02  0.41267985205E+02  0.50400000000E-02 0.  1.
    5000001    1    1    2    0    0  0.76044862824E+02 -0.97658148030E+02  0.13945680563E+04  0.14097393372E+04  0.16500000000E+03 0.  0.
   -5000001    1    1    2    0    0 -0.76044862824E+02  0.97658148030E+02  0.28209833736E+03  0.34946302663E+03  0.16500000000E+03 0.  0.
<mgrwt>
<rscale>  0 0.53252489E+03</rscale>
<asrwt>0</asrwt>
<pdfrwt beam="1">  1        1 0.26429757E+00 0.53252489E+03</pdfrwt>
<pdfrwt beam="2">  1       -1 0.63489215E-02 0.53252489E+03</pdfrwt>
<totfact> 0.61685299E+02</totfact>
</mgrwt>
</event>
<event>
 4    1  0.2228009E-005  0.5129813E+03  0.7818608E-02  0.1010445E+00
          1   -1    0    0  501    0  0.00000000000E+00  0.00000000000E+00  0.64663826101E+02  0.64663826297E+02  0.50400000000E-02 0.  1.
         -1   -1    0    0    0  501 -0.00000000000E+00 -0.00000000000E+00 -0.10173764945E+04  0.10173764945E+04  0.50400000000E-02 0. -1.
    5000001    1    1    2    0    0  0.11330248143E+02  0.12931453533E+03 -0.16554979514E+03  0.26736184889E+03  0.16500000000E+03 0.  0.
   -5000001    1    1    2    0    0 -0.11330248143E+02 -0.12931453533E+03 -0.78716287321E+03  0.81467847187E+03  0.16500000000E+03 0.  0.
<mgrwt>
<rscale>  0 0.51298131E+03</rscale>
<asrwt>0</asrwt>
<pdfrwt beam="1">  1        1 0.99482817E-02 0.51298131E+03</pdfrwt>
<pdfrwt beam="2">  1       -1 0.15651945E+00 0.51298131E+03</pdfrwt>
<totfact> 0.21558249E+02</totfact>
</mgrwt>
</event>
<event>
 4    1  0.2228009E-005  0.4083884E+03  0.7818608E-02  0.1040913E+00
          1   -1    0    0  501    0  0.00000000000E+00  0.00000000000E+00  0.20138884796E+04  0.20138884796E+04  0.50400000000E-02 0.  1.
         -1   -1    0    0    0  501 -0.00000000000E+00 -0.00000000000E+00 -0.20703867148E+02  0.20703867762E+02  0.50400000000E-02 0. -1.
    5000001    1    1    2    0    0 -0.12005240079E+03 -0.67375645954E+01  0.10140694462E+04  0.10344176214E+04  0.16500000000E+03 0.  0.
   -5000001    1    1    2    0    0  0.12005240079E+03  0.67375645954E+01  0.97911516621E+03  0.10001747259E+04  0.16500000000E+03 0.  0.
<mgrwt>
<rscale>  0 0.40838844E+03</rscale>
<asrwt>0</asrwt>
<pdfrwt beam="1">  1        1 0.30982920E+00 0.40838844E+03</pdfrwt>
<pdfrwt beam="2">  1       -1 0.31852083E-02 0.40838844E+03</pdfrwt>
<totfact> 0.11286659E+03</totfact>
</mgrwt>
</event>
<event>
 4    1  0.2228009E-005  0.5368786E+03  0.7818608E-02  0.1004577E+00
         -1   -1    0    0    0  501 -0.00000000000E+00  0.00000000000E+00  0.13541078979E+03  0.13541078988E+03  0.50400000000E-02 0. -1.
          1   -1    0    0  501    0  0.00000000000E+00 -0.00000000000E+00 -0.53215601053E+03  0.53215601056E+03  0.50400000000E-02 0.  1.
    5000001    1    1    2    0    0  0.44687697147E+02 -0.20054117554E+03 -0.13471580174E+03  0.29595117942E+03  0.16500000000E+03 0.  0.
   -5000001    1    1    2    0    0 -0.44687697147E+02  0.20054117554E+03 -0.26202941900E+03  0.37161562102E+03  0.16500000000E+03 0.  0.
<mgrwt>
<rscale>  0 0.53687863E+03</rscale>
<asrwt>0</asrwt>
<pdfrwt beam="1">  1        1 0.81870155E-01 0.53687863E+03</pdfrwt>
<pdfrwt beam="2">  1       -1 0.20832429E-01 0.53687863E+03</pdfrwt>
<totfact> 0.78132633E+02</totfact>
</mgrwt>
</event>
<event>
 4    1  0.2228009E-005  0.5274778E+03  0.7818608E-02  0.1006846E+00
          1   -1    0    0  501    0  0.00000000000E+00  0.00000000000E+00  0.11908319876E+03  0.11908319886E+03  0.50400000000E-02 0. -1.
         -1   -1    0    0    0  501 -0.00000000000E+00 -0.00000000000E+00 -0.58411444179E+03  0.58411444181E+03  0.50400000000E-02 0.  1.
    5000001    1    1    2    0    0 -0.15639782662E+03  0.98575175570E+02 -0.11212064677E+03  0.27198048614E+03  0.16500000000E+03 0.  0.
   -5000001    1    1    2    0    0  0.15639782662E+03 -0.98575175570E+02 -0.35291059626E+03  0.43121715453E+03  0.16500000000E+03 0.  0.
<mgrwt>
<rscale>  0 0.52747783E+03</rscale>
<asrwt>0</asrwt>
<pdfrwt beam="1">  1        1 0.18320493E-01 0.52747783E+03</pdfrwt>
<pdfrwt beam="2">  1       -1 0.89863758E-01 0.52747783E+03</pdfrwt>
<totfact> 0.36304697E+02</totfact>
</mgrwt>
</event>
<event>
 4    1  0.2228009E-005  0.5348400E+03  0.7818608E-02  0.1005065E+00
          1   -1    0    0  501    0  0.00000000000E+00  0.00000000000E+00  0.16858660491E+03  0.16858660498E+03  0.50400000000E-02 0.  1.
         -1   -1    0    0    0  501 -0.00000000000E+00 -0.00000000000E+00 -0.42419415036E+03  0.42419415039E+03  0.50400000000E-02 0. -1.
    5000001    1    1    2    0    0  0.59989538503E+02 -0.20171458633E+03 -0.12673344552E+03  0.29592885172E+03  0.16500000000E+03 0.  0.
   -5000001    1    1    2    0    0 -0.59989538503E+02  0.20171458633E+03 -0.12887409993E+03  0.29685190365E+03  0.16500000000E+03 0.  0.
<mgrwt>
<rscale>  0 0.53483998E+03</rscale>
<asrwt>0</asrwt>
<pdfrwt beam="1">  1        1 0.25936401E-01 0.53483998E+03</pdfrwt>
<pdfrwt beam="2">  1       -1 0.65260638E-01 0.53483998E+03</pdfrwt>
<totfact> 0.44855044E+02</totfact>
</mgrwt>
</event>
<event>
 4    1  0.2228009E-005  0.7480791E+03  0.7818608E-02  0.9638369E-01
         -1   -1    0    0    0  501 -0.00000000000E+00  0.00000000000E+00  0.11203671969E+03  0.11203671981E+03  0.50400000000E-02 0. -1.
          1   -1    0    0  501    0  0.00000000000E+00 -0.00000000000E+00 -0.12487474604E+04  0.12487474604E+04  0.50400000000E-02 0.  1.
    5000001    1    1    2    0    0  0.89415464367E+02 -0.26341678341E+03 -0.22660349076E+03  0.39491476178E+03  0.16500000000E+03 0.  0.
   -5000001    1    1    2    0    0 -0.89415464367E+02  0.26341678341E+03 -0.91010724994E+03  0.96586941842E+03  0.16500000000E+03 0.  0.
<mgrwt>
<rscale>  0 0.74807906E+03</rscale>
<asrwt>0</asrwt>
<pdfrwt beam="1">  1        1 0.19211498E+00 0.74807906E+03</pdfrwt>
<pdfrwt beam="2">  1       -1 0.17236419E-01 0.74807906E+03</pdfrwt>
<totfact> 0.26155089E+02</totfact>
</mgrwt>
</event>
<event>
 4    1  0.2228009E-005  0.3988956E+03  0.7818608E-02  0.1044163E+00
          1   -1    0    0  501    0  0.00000000000E+00  0.00000000000E+00  0.26030144844E+04  0.26030144844E+04  0.50400000000E-02 0.  1.
         -1   -1    0    0    0  501 -0.00000000000E+00 -0.00000000000E+00 -0.15282058043E+02  0.15282058874E+02  0.50400000000E-02 0. -1.
    5000001    1    1    2    0    0 -0.95121650340E+02  0.26436586929E+02  0.16416518260E+04  0.16528740845E+04  0.16500000000E+03 0.  0.
   -5000001    1    1    2    0    0  0.95121650340E+02 -0.26436586929E+02  0.94608060036E+03  0.96542245875E+03  0.16500000000E+03 0.  0.
<mgrwt>
<rscale>  0 0.39889557E+03</rscale>
<asrwt>0</asrwt>
<pdfrwt beam="1">  1        1 0.40046354E+00 0.39889557E+03</pdfrwt>
<pdfrwt beam="2">  1       -1 0.23510873E-02 0.39889557E+03</pdfrwt>
<totfact> 0.72021151E+02</totfact>
</mgrwt>
</event>
<event>
 4    1  0.2228009E-005  0.4533271E+03  0.7818608E-02  0.1026735E+00
         -1   -1    0    0    0  501 -0.00000000000E+00  0.00000000000E+00  0.14951658477E+03  0.14951658485E+03  0.50400000000E-02 0. -1.
          1   -1    0    0  501    0  0.00000000000E+00 -0.00000000000E+00 -0.34361642472E+03  0.34361642476E+03  0.50400000000E-02 0.  1.
    5000001    1    1    2    0    0  0.59386912599E+02  0.11622527763E+03 -0.18881501963E+03  0.28268574811E+03  0.16500000000E+03 0.  0.
   -5000001    1    1    2    0    0 -0.59386912599E+02 -0.11622527763E+03 -0.52848203251E+01  0.21044726150E+03  0.16500000000E+03 0.  0.
<mgrwt>
<rscale>  0 0.45332705E+03</rscale>
<asrwt>0</asrwt>
<pdfrwt beam="1">  1        1 0.52864065E-01 0.45332705E+03</pdfrwt>
<pdfrwt beam="2">  1       -1 0.23002552E-01 0.45332705E+03</pdfrwt>
<totfact> 0.11840616E+03</totfact>
</mgrwt>
</event>
<event>
 4    1  0.2228009E-005  0.5602695E+03  0.7818608E-02  0.9991445E-01
          1   -1    0    0  501    0  0.00000000000E+00  0.00000000000E+00  0.13785620279E+04  0.13785620279E+04  0.50400000000E-02 0.  1.
         -1   -1    0    0    0  501 -0.00000000000E+00 -0.00000000000E+00 -0.56925596042E+02  0.56925596266E+02  0.50400000000E-02 0. -1.
    5000001    1    1    2    0    0  0.22039856303E+03  0.30205597316E+02  0.76838409603E+03  0.81677844225E+03  0.16500000000E+03 0.  0.
   -5000001    1    1    2    0    0 -0.22039856303E+03 -0.30205597316E+02  0.55325233578E+03  0.61870918188E+03  0.16500000000E+03 0.  0.
<mgrwt>
<rscale>  0 0.56026945E+03</rscale>
<asrwt>0</asrwt>
<pdfrwt beam="1">  1        1 0.21208648E+00 0.56026945E+03</pdfrwt>
<pdfrwt beam="2">  1       -1 0.87577835E-02 0.56026945E+03</pdfrwt>
<totfact> 0.63407198E+02</totfact>
</mgrwt>
</event>
<event>
 4    1  0.2228009E-005  0.5221455E+03  0.7818608E-02  0.1008155E+00
         -1   -1    0    0    0  501 -0.00000000000E+00  0.00000000000E+00  0.23678360057E+02  0.23678360594E+02  0.50400000000E-02 0. -1.
          1   -1    0    0  501    0  0.00000000000E+00 -0.00000000000E+00 -0.28785342218E+04  0.28785342218E+04  0.50400000000E-02 0.  1.
    5000001    1    1    2    0    0  0.17920339614E+03  0.41613107216E+02 -0.95946253341E+03  0.99077689764E+03  0.16500000000E+03 0.  0.
   -5000001    1    1    2    0    0 -0.17920339614E+03 -0.41613107216E+02 -0.18953933283E+04  0.19114356847E+04  0.16500000000E+03 0.  0.
<mgrwt>
<rscale>  0 0.52214546E+03</rscale>
<asrwt>0</asrwt>
<pdfrwt beam="1">  1        1 0.44285114E+00 0.52214546E+03</pdfrwt>
<pdfrwt beam="2">  1       -1 0.36428269E-02 0.52214546E+03</pdfrwt>
<totfact> 0.23814557E+02</totfact>
</mgrwt>
</event>
<event>
 4    1  0.2228009E-005  0.7192221E+03  0.7818608E-02  0.9684913E-01
          1   -1    0    0  501    0  0.00000000000E+00  0.00000000000E+00  0.30061947504E+04  0.30061947504E+04  0.50400000000E-02 0.  1.
         -1   -1    0    0    0  501 -0.00000000000E+00 -0.00000000000E+00 -0.43017877132E+02  0.43017877427E+02  0.50400000000E-02 0. -1.
    5000001    1    1    2    0    0  0.15650793379E+02 -0.29467419393E+03  0.20011301695E+04  0.20294887985E+04  0.16500000000E+03 0.  0.
   -5000001    1    1    2    0    0 -0.15650793379E+02  0.29467419393E+03  0.96204670374E+03  0.10197238293E+04  0.16500000000E+03 0.  0.
<mgrwt>
<rscale>  0 0.71922213E+03</rscale>
<asrwt>0</asrwt>
<pdfrwt beam="1">  1        1 0.46249151E+00 0.71922213E+03</pdfrwt>
<pdfrwt beam="2">  1       -1 0.66181349E-02 0.71922213E+03</pdfrwt>
<totfact> 0.75685594E+01</totfact>
</mgrwt>
</event>
<event>
 4    1  0.2228009E-005  0.6846613E+03  0.7818608E-02  0.9743829E-01
          1   -1    0    0  501    0  0.00000000000E+00  0.00000000000E+00  0.76030306769E+03  0.76030306771E+03  0.50400000000E-02 0.  1.
         -1   -1    0    0    0  501 -0.00000000000E+00 -0.00000000000E+00 -0.15413627186E+03  0.15413627194E+03  0.50400000000E-02 0. -1.
    5000001    1    1    2    0    0 -0.21617817328E+03  0.18817220637E+03  0.18494811881E+03  0.37890973662E+03  0.16500000000E+03 0.  0.
   -5000001    1    1    2    0    0  0.21617817328E+03 -0.18817220637E+03  0.42121867702E+03  0.53552960303E+03  0.16500000000E+03 0.  0.
<mgrwt>
<rscale>  0 0.68466132E+03</rscale>
<asrwt>0</asrwt>
<pdfrwt beam="1">  1        1 0.11696970E+00 0.68466132E+03</pdfrwt>
<pdfrwt beam="2">  1       -1 0.23713273E-01 0.68466132E+03</pdfrwt>
<totfact> 0.37169156E+02</totfact>
</mgrwt>
</event>
<event>
 4    1  0.2228009E-005  0.5323202E+03  0.7818608E-02  0.1005671E+00
         -1   -1    0    0    0  501 -0.00000000000E+00  0.00000000000E+00  0.88399104559E+02  0.88399104702E+02  0.50400000000E-02 0. -1.
          1   -1    0    0  501    0  0.00000000000E+00 -0.00000000000E+00 -0.80137924527E+03  0.80137924528E+03  0.50400000000E-02 0.  1.
    5000001    1    1    2    0    0 -0.10383651009E+03 -0.18070890135E+03 -0.33415930896E+03  0.42699551709E+03  0.16500000000E+03 0.  0.
   -5000001    1    1    2    0    0  0.10383651009E+03  0.18070890135E+03 -0.37882083175E+03  0.46278283289E+03  0.16500000000E+03 0.  0.
<mgrwt>
<rscale>  0 0.53232023E+03</rscale>
<asrwt>0</asrwt>
<pdfrwt beam="1">  1        1 0.12328911E+00 0.53232023E+03</pdfrwt>
<pdfrwt beam="2">  1       -1 0.13599863E-01 0.53232023E+03</pdfrwt>
<totfact> 0.85911738E+02</totfact>
</mgrwt>
</event>
<event>
 4    1  0.2228009E-005  0.4036353E+03  0.7818608E-02  0.1042528E+00
          1   -1    0    0  501    0  0.00000000000E+00  0.00000000000E+00  0.73314546115E+03  0.73314546117E+03  0.50400000000E-02 0.  1.
         -1   -1    0    0    0  501 -0.00000000000E+00 -0.00000000000E+00 -0.55555648730E+02  0.55555648959E+02  0.50400000000E-02 0. -1.
    5000001    1    1    2    0    0  0.82217058154E+02  0.82082263447E+02  0.34440024119E+03  0.39916621695E+03  0.16500000000E+03 0.  0.
   -5000001    1    1    2    0    0 -0.82217058154E+02 -0.82082263447E+02  0.33318957123E+03  0.38953489318E+03  0.16500000000E+03 0.  0.
<mgrwt>
<rscale>  0 0.40363534E+03</rscale>
<asrwt>0</asrwt>
<pdfrwt beam="1">  1        1 0.11279161E+00 0.40363534E+03</pdfrwt>
<pdfrwt beam="2">  1       -1 0.85470231E-02 0.40363534E+03</pdfrwt>
<totfact> 0.20523412E+03</totfact>
</mgrwt>
</event>
<event>
 4    1  0.2228009E-005  0.4626483E+03  0.7818608E-02  0.1024016E+00
         -1   -1    0    0    0  501 -0.00000000000E+00  0.00000000000E+00  0.54655622142E+03  0.54655622144E+03  0.50400000000E-02 0. -1.
          1   -1    0    0  501    0  0.00000000000E+00 -0.00000000000E+00 -0.97905504689E+02  0.97905504818E+02  0.50400000000E-02 0.  1.
    5000001    1    1    2    0    0  0.11866284921E+03  0.99496271542E+02  0.15744060774E+03  0.27566814252E+03  0.16500000000E+03 0.  0.
   -5000001    1    1    2    0    0 -0.11866284921E+03 -0.99496271542E+02  0.29121010899E+03  0.36879358374E+03  0.16500000000E+03 0.  0.
<mgrwt>
<rscale>  0 0.46264830E+03</rscale>
<asrwt>0</asrwt>
<pdfrwt beam="1">  1        1 0.15062386E-01 0.46264830E+03</pdfrwt>
<pdfrwt beam="2">  1       -1 0.84085571E-01 0.46264830E+03</pdfrwt>
<totfact> 0.54441401E+02</totfact>
</mgrwt>
</event>
<event>
 4    1  0.2228009E-005  0.4912054E+03  0.7818608E-02  0.1016100E+00
          1   -1    0    0  501    0  0.00000000000E+00  0.00000000000E+00  0.27263212996E+04  0.27263212996E+04  0.50400000000E-02 0.  1.
         -1   -1    0    0    0  501 -0.00000000000E+00 -0.00000000000E+00 -0.22125304739E+02  0.22125305313E+02  0.50400000000E-02 0. -1.
    5000001    1    1    2    0    0  0.15227786929E+03  0.64829372525E+02  0.17746937060E+04  0.17900151248E+04  0.16500000000E+03 0.  0.
   -5000001    1    1    2    0    0 -0.15227786929E+03 -0.64829372525E+02  0.92950228884E+03  0.95843148007E+03  0.16500000000E+03 0.  0.
<mgrwt>
<rscale>  0 0.49120542E+03</rscale>
<asrwt>0</asrwt>
<pdfrwt beam="1">  1        1 0.41943411E+00 0.49120542E+03</pdfrwt>
<pdfrwt beam="2">  1       -1 0.34038926E-02 0.49120542E+03</pdfrwt>
<totfact> 0.33777571E+02</totfact>
</mgrwt>
</event>
<event>
 4    1  0.2228009E-005  0.3954238E+03  0.7818608E-02  0.1045376E+00
          1   -1    0    0  501    0  0.00000000000E+00  0.00000000000E+00  0.88768017091E+02  0.88768017234E+02  0.50400000000E-02 0.  1.
         -1   -1    0    0    0  501 -0.00000000000E+00 -0.00000000000E+00 -0.44036125319E+03  0.44036125321E+03  0.50400000000E-02 0. -1.
    5000001    1    1    2    0    0  0.89368805436E+02 -0.62207484893E+02 -0.17968428506E+03  0.26714789323E+03  0.16500000000E+03 0.  0.
   -5000001    1    1    2    0    0 -0.89368805436E+02  0.62207484893E+02 -0.17190895104E+03  0.26198137722E+03  0.16500000000E+03 0.  0.
<mgrwt>
<rscale>  0 0.39542380E+03</rscale>
<asrwt>0</asrwt>
<pdfrwt beam="1">  1        1 0.13656618E-01 0.39542380E+03</pdfrwt>
<pdfrwt beam="2">  1       -1 0.67747884E-01 0.39542380E+03</pdfrwt>
<totfact> 0.96970048E+02</totfact>
</mgrwt>
</event>
<event>
 4    1  0.2228009E-005  0.5212880E+03  0.7818608E-02  0.1008367E+00
         -1   -1    0    0    0  501 -0.00000000000E+00  0.00000000000E+00  0.32777724353E+03  0.32777724357E+03  0.50400000000E-02 0. -1.
          1   -1    0    0  501    0  0.00000000000E+00 -0.00000000000E+00 -0.20726052663E+03  0.20726052669E+03  0.50400000000E-02 0.  1.
    5000001    1    1    2    0    0 -0.17146707888E+03  0.49882697961E+02 -0.36139343108E+02  0.24580540030E+03  0.16500000000E+03 0.  0.
   -5000001    1    1    2    0    0  0.17146707888E+03 -0.49882697961E+02  0.15665606000E+03  0.28923236996E+03  0.16500000000E+03 0.  0.
<mgrwt>
<rscale>  0 0.52128796E+03</rscale>
<asrwt>0</asrwt>
<pdfrwt beam="1">  1        1 0.31886235E-01 0.52128796E+03</pdfrwt>
<pdfrwt beam="2">  1       -1 0.50427268E-01 0.52128796E+03</pdfrwt>
<totfact> 0.56641018E+02</totfact>
</mgrwt>
</event>
<event>
 4    1  0.2228009E-005  0.4968768E+03  0.7818608E-02  0.1014597E+00
          1   -1    0    0  501    0  0.00000000000E+00  0.00000000000E+00  0.71279963203E+03  0.71279963205E+03  0.50400000000E-02 0.  1.
         -1   -1    0    0    0  501 -0.00000000000E+00 -0.00000000000E+00 -0.86590443525E+02  0.86590443671E+02  0.50400000000E-02 0. -1.
    5000001    1    1    2    0    0 -0.18507778104E+03 -0.72143363369E+01  0.33532768880E+03  0.41710369282E+03  0.16500000000E+03 0.  0.
   -5000001    1    1    2    0    0  0.18507778104E+03  0.72143363369E+01  0.29088149971E+03  0.38228638291E+03  0.16500000000E+03 0.  0.
<mgrwt>
<rscale>  0 0.49687679E+03</rscale>
<asrwt>0</asrwt>
<pdfrwt beam="1">  1        1 0.10966148E+00 0.49687679E+03</pdfrwt>
<pdfrwt beam="2">  1       -1 0.13321607E-01 0.49687679E+03</pdfrwt>
<totfact> 0.10644612E+03</totfact>
</mgrwt>
</event>
<event>
 4    1  0.2228009E-005  0.4887172E+03  0.7818608E-02  0.1016767E+00
          1   -1    0    0  501    0  0.00000000000E+00  0.00000000000E+00  0.26092137672E+04  0.26092137672E+04  0.50400000000E-02 0.  1.
         -1   -1    0    0    0  501 -0.00000000000E+00 -0.00000000000E+00 -0.22884718201E+02  0.22884718756E+02  0.50400000000E-02 0. -1.
    5000001    1    1    2    0    0  0.16774379542E+03  0.39794909902E+01  0.93867447618E+03  0.96772340547E+03  0.16500000000E+03 0.  0.
   -5000001    1    1    2    0    0 -0.16774379542E+03 -0.39794909902E+01  0.16476545728E+04  0.16643750805E+04  0.16500000000E+03 0.  0.
<mgrwt>
<rscale>  0 0.48871719E+03</rscale>
<asrwt>0</asrwt>
<pdfrwt beam="1">  1        1 0.40141744E+00 0.48871719E+03</pdfrwt>
<pdfrwt beam="2">  1       -1 0.35207265E-02 0.48871719E+03</pdfrwt>
<totfact> 0.38631221E+02</totfact>
</mgrwt>
</event>
<event>
 4    1  0.2228009E-005  0.3838840E+03  0.7818608E-02  0.1049507E+00
         -1   -1    0    0    0  501 -0.00000000000E+00  0.00000000000E+00  0.68554236423E+03  0.68554236425E+03  0.50400000000E-02 0. -1.
          1   -1    0    0  501    0  0.00000000000E+00 -0.00000000000E+00 -0.53740997200E+02  0.53740997436E+02  0.50400000000E-02 0.  1.
    5000001    1    1    2    0    0 -0.33505896406E+02  0.77297380444E+02  0.41255967781E+03  0.45224773949E+03  0.16500000000E+03 0.  0.
   -5000001    1    1    2    0    0  0.33505896406E+02 -0.77297380444E+02  0.21924168922E+03  0.28703562220E+03  0.16500000000E+03 0.  0.
<mgrwt>
<rscale>  0 0.38388399E+03</rscale>
<asrwt>0</asrwt>
<pdfrwt beam="1">  1        1 0.82678454E-02 0.38388399E+03</pdfrwt>
<pdfrwt beam="2">  1       -1 0.10546806E+00 0.38388399E+03</pdfrwt>
<totfact> 0.74435624E+02</totfact>
</mgrwt>
</event>
<event>
 4    1  0.2228009E-005  0.3719179E+03  0.7818608E-02  0.1053962E+00
         -1   -1    0    0    0  501 -0.00000000000E+00  0.00000000000E+00  0.26328407093E+02  0.26328407575E+02  0.50400000000E-02 0. -1.
          1   -1    0    0  501    0  0.00000000000E+00 -0.00000000000E+00 -0.13134377159E+04  0.13134377160E+04  0.50400000000E-02 0.  1.
    5000001    1    1    2    0    0  0.51822608821E+02 -0.68337338083E+02 -0.64216580100E+03  0.66854879443E+03  0.16500000000E+03 0.  0.
   -5000001    1    1    2    0    0 -0.51822608821E+02  0.68337338083E+02 -0.64494350785E+03  0.67121732910E+03  0.16500000000E+03 0.  0.
<mgrwt>
<rscale>  0 0.37191786E+03</rscale>
<asrwt>0</asrwt>
<pdfrwt beam="1">  1        1 0.20206729E+00 0.37191786E+03</pdfrwt>
<pdfrwt beam="2">  1       -1 0.40505252E-02 0.37191786E+03</pdfrwt>
<totfact> 0.23070192E+03</totfact>
</mgrwt>
</event>
<event>
 4    1  0.2228009E-005  0.3966136E+03  0.7818608E-02  0.1044959E+00
         -1   -1    0    0    0  501 -0.00000000000E+00  0.00000000000E+00  0.68556072045E+02  0.68556072230E+02  0.50400000000E-02 0. -1.
          1   -1    0    0  501    0  0.00000000000E+00 -0.00000000000E+00 -0.57362646201E+03  0.57362646203E+03  0.50400000000E-02 0.  1.
    5000001    1    1    2    0    0  0.23152029449E+02 -0.10732730612E+03 -0.24162413933E+03  0.31250982675E+03  0.16500000000E+03 0.  0.
   -5000001    1    1    2    0    0 -0.23152029449E+02  0.10732730612E+03 -0.26344625064E+03  0.32967270752E+03  0.16500000000E+03 0.  0.
<mgrwt>
<rscale>  0 0.39661355E+03</rscale>
<asrwt>0</asrwt>
<pdfrwt beam="1">  1        1 0.88250222E-01 0.39661355E+03</pdfrwt>
<pdfrwt beam="2">  1       -1 0.10547088E-01 0.39661355E+03</pdfrwt>
<totfact> 0.21084156E+03</totfact>
</mgrwt>
</event>
<event>
 4    1  0.2228009E-005  0.5383547E+03  0.7818608E-02  0.1004226E+00
         -1   -1    0    0    0  501 -0.00000000000E+00  0.00000000000E+00  0.61894472731E+02  0.61894472936E+02  0.50400000000E-02 0. -1.
          1   -1    0    0  501    0  0.00000000000E+00 -0.00000000000E+00 -0.11706448980E+04  0.11706448980E+04  0.50400000000E-02 0.  1.
    5000001    1    1    2    0    0  0.22185683256E+02 -0.88731794554E+02 -0.99396215059E+03  0.10117071181E+04  0.16500000000E+03 0.  0.
   -5000001    1    1    2    0    0 -0.22185683256E+02  0.88731794554E+02 -0.11478827463E+03  0.22083225285E+03  0.16500000000E+03 0.  0.
<mgrwt>
<rscale>  0 0.53835471E+03</rscale>
<asrwt>0</asrwt>
<pdfrwt beam="1">  1        1 0.18009920E+00 0.53835471E+03</pdfrwt>
<pdfrwt beam="2">  1       -1 0.95222274E-02 0.53835471E+03</pdfrwt>
<totfact> 0.78034064E+02</totfact>
</mgrwt>
</event>
<event>
 4    1  0.2228009E-005  0.5363935E+03  0.7818608E-02  0.1004693E+00
          1   -1    0    0  501    0  0.00000000000E+00  0.00000000000E+00  0.64157548441E+03  0.64157548443E+03  0.50400000000E-02 0.  1.
         -1   -1    0    0    0  501 -0.00000000000E+00 -0.00000000000E+00 -0.11211384802E+03  0.11211384813E+03  0.50400000000E-02 0. -1.
    5000001    1    1    2    0    0 -0.17157032186E+03  0.80016513053E+02  0.13243078342E+03  0.28390479056E+03  0.16500000000E+03 0.  0.
   -5000001    1    1    2    0    0  0.17157032186E+03 -0.80016513053E+02  0.39703085297E+03  0.46978454201E+03  0.16500000000E+03 0.  0.
<mgrwt>
<rscale>  0 0.53639350E+03</rscale>
<asrwt>0</asrwt>
<pdfrwt beam="1">  1        1 0.98703923E-01 0.53639350E+03</pdfrwt>
<pdfrwt beam="2">  1       -1 0.17248284E-01 0.53639350E+03</pdfrwt>
<totfact> 0.81851204E+02</totfact>
</mgrwt>
</event>
<event>
 4    1  0.2228009E-005  0.3443264E+03  0.7818608E-02  0.1064968E+00
          1   -1    0    0  501    0  0.00000000000E+00  0.00000000000E+00  0.13336544181E+03  0.13336544190E+03  0.50400000000E-02 0.  1.
         -1   -1    0    0    0  501 -0.00000000000E+00 -0.00000000000E+00 -0.22224770992E+03  0.22224770998E+03  0.50400000000E-02 0. -1.
    5000001    1    1    2    0    0  0.47841236316E+02  0.35417193836E+00 -0.32836503160E+02  0.17490610415E+03  0.16500000000E+03 0.  0.
   -5000001    1    1    2    0    0 -0.47841236316E+02 -0.35417193836E+00 -0.56045764953E+02  0.18070704773E+03  0.16500000000E+03 0.  0.
<mgrwt>
<rscale>  0 0.34432638E+03</rscale>
<asrwt>0</asrwt>
<pdfrwt beam="1">  1        1 0.20517760E-01 0.34432638E+03</pdfrwt>
<pdfrwt beam="2">  1       -1 0.34191955E-01 0.34432638E+03</pdfrwt>
<totfact> 0.20188956E+03</totfact>
</mgrwt>
</event>
<event>
 4    1  0.2228009E-005  0.4713955E+03  0.7818608E-02  0.1021527E+00
          1   -1    0    0  501    0  0.00000000000E+00  0.00000000000E+00  0.19467401536E+04  0.19467401536E+04  0.50400000000E-02 0. -1.
         -1   -1    0    0    0  501 -0.00000000000E+00 -0.00000000000E+00 -0.28536646103E+02  0.28536646548E+02  0.50400000000E-02 0.  1.
    5000001    1    1    2    0    0  0.71001926174E+02 -0.14816426820E+03  0.11121765347E+04  0.11362902658E+04  0.16500000000E+03 0.  0.
   -5000001    1    1    2    0    0 -0.71001926174E+02  0.14816426820E+03  0.80602697278E+03  0.83898653430E+03  0.16500000000E+03 0.  0.
<mgrwt>
<rscale>  0 0.47139553E+03</rscale>
<asrwt>0</asrwt>
<pdfrwt beam="1">  1        1 0.29949856E+00 0.47139553E+03</pdfrwt>
<pdfrwt beam="2">  1       -1 0.43902522E-02 0.47139553E+03</pdfrwt>
<totfact> 0.76762453E+02</totfact>
</mgrwt>
</event>
<event>
 4    1  0.2228009E-005  0.4096930E+03  0.7818608E-02  0.1040474E+00
          1   -1    0    0  501    0  0.00000000000E+00  0.00000000000E+00  0.19077015382E+04  0.19077015382E+04  0.50400000000E-02 0. -1.
         -1   -1    0    0    0  501 -0.00000000000E+00 -0.00000000000E+00 -0.21996148876E+02  0.21996149454E+02  0.50400000000E-02 0.  1.
    5000001    1    1    2    0    0  0.58773241454E+02  0.23515404721E+02  0.45495704632E+03  0.48807600040E+03  0.16500000000E+03 0.  0.
   -5000001    1    1    2    0    0 -0.58773241454E+02 -0.23515404721E+02  0.14307483430E+04  0.14416216872E+04  0.16500000000E+03 0.  0.
<mgrwt>
<rscale>  0 0.40969300E+03</rscale>
<asrwt>0</asrwt>
<pdfrwt beam="1">  1        1 0.29349242E+00 0.40969300E+03</pdfrwt>
<pdfrwt beam="2">  1       -1 0.33840243E-02 0.40969300E+03</pdfrwt>
<totfact> 0.12105194E+03</totfact>
</mgrwt>
</event>
<event>
 4    1  0.2228009E-005  0.7486269E+03  0.7818608E-02  0.9637507E-01
         -1   -1    0    0    0  501 -0.00000000000E+00  0.00000000000E+00  0.36056357022E+03  0.36056357026E+03  0.50400000000E-02 0. -1.
          1   -1    0    0  501    0  0.00000000000E+00 -0.00000000000E+00 -0.38858762404E+03  0.38858762407E+03  0.50400000000E-02 0.  1.
    5000001    1    1    2    0    0  0.12823565827E+03 -0.21048596431E+03  0.21448277651E+03  0.36602812275E+03  0.16500000000E+03 0.  0.
   -5000001    1    1    2    0    0 -0.12823565827E+03  0.21048596431E+03 -0.24250683033E+03  0.38312307158E+03  0.16500000000E+03 0.  0.
<mgrwt>
<rscale>  0 0.74862685E+03</rscale>
<asrwt>0</asrwt>
<pdfrwt beam="1">  1        1 0.59782711E-01 0.74862685E+03</pdfrwt>
<pdfrwt beam="2">  1       -1 0.55471319E-01 0.74862685E+03</pdfrwt>
<totfact> 0.20762475E+02</totfact>
</mgrwt>
</event>
<event>
 4    1  0.2228009E-005  0.3650013E+03  0.7818608E-02  0.1056621E+00
          1   -1    0    0  501    0  0.00000000000E+00  0.00000000000E+00  0.25137477782E+03  0.25137477787E+03  0.50400000000E-02 0. -1.
         -1   -1    0    0    0  501 -0.00000000000E+00 -0.00000000000E+00 -0.13249731591E+03  0.13249731601E+03  0.50400000000E-02 0.  1.
    5000001    1    1    2    0    0 -0.60379281016E+02 -0.49345667702E+02  0.60397383690E+02  0.19223292240E+03  0.16500000000E+03 0.  0.
   -5000001    1    1    2    0    0  0.60379281016E+02  0.49345667702E+02  0.58480078215E+02  0.19163917148E+03  0.16500000000E+03 0.  0.
<mgrwt>
<rscale>  0 0.36500128E+03</rscale>
<asrwt>0</asrwt>
<pdfrwt beam="1">  1        1 0.38673042E-01 0.36500128E+03</pdfrwt>
<pdfrwt beam="2">  1       -1 0.20384203E-01 0.36500128E+03</pdfrwt>
<totfact> 0.21519300E+03</totfact>
</mgrwt>
</event>
<event>
 4    1  0.2228009E-005  0.6090988E+03  0.7818608E-02  0.9886707E-01
          1   -1    0    0  501    0  0.00000000000E+00  0.00000000000E+00  0.29347498319E+03  0.29347498323E+03  0.50400000000E-02 0. -1.
         -1   -1    0    0    0  501 -0.00000000000E+00 -0.00000000000E+00 -0.31604175983E+03  0.31604175987E+03  0.50400000000E-02 0.  1.
    5000001    1    1    2    0    0  0.14563477611E+03  0.20780141763E+03  0.22421065230E+02  0.30351049627E+03  0.16500000000E+03 0.  0.
   -5000001    1    1    2    0    0 -0.14563477611E+03 -0.20780141763E+03 -0.44987841864E+02  0.30600624683E+03  0.16500000000E+03 0.  0.
<mgrwt>
<rscale>  0 0.60909884E+03</rscale>
<asrwt>0</asrwt>
<pdfrwt beam="1">  1        1 0.45149997E-01 0.60909884E+03</pdfrwt>
<pdfrwt beam="2">  1       -1 0.48621809E-01 0.60909884E+03</pdfrwt>
<totfact> 0.38694634E+02</totfact>
</mgrwt>
</event>
<event>
 4    1  0.2228009E-005  0.4243359E+03  0.7818608E-02  0.1035664E+00
         -1   -1    0    0    0  501 -0.00000000000E+00  0.00000000000E+00  0.36292646286E+02  0.36292646636E+02  0.50400000000E-02 0. -1.
          1   -1    0    0  501    0  0.00000000000E+00 -0.00000000000E+00 -0.12403406277E+04  0.12403406278E+04  0.50400000000E-02 0.  1.
    5000001    1    1    2    0    0  0.11973598925E+03  0.41019414471E+02 -0.72863131376E+03  0.75772547197E+03  0.16500000000E+03 0.  0.
   -5000001    1    1    2    0    0 -0.11973598925E+03 -0.41019414471E+02 -0.47541666770E+03  0.51890780242E+03  0.16500000000E+03 0.  0.
<mgrwt>
<rscale>  0 0.42433592E+03</rscale>
<asrwt>0</asrwt>
<pdfrwt beam="1">  1        1 0.19082160E+00 0.42433592E+03</pdfrwt>
<pdfrwt beam="2">  1       -1 0.55834850E-02 0.42433592E+03</pdfrwt>
<totfact> 0.15947595E+03</totfact>
</mgrwt>
</event>
<event>
 4    1  0.2228009E-005  0.1373961E+04  0.7818608E-02  0.8972885E-01
          1   -1    0    0  501    0  0.00000000000E+00  0.00000000000E+00  0.42855136116E+03  0.42855136119E+03  0.50400000000E-02 0.  1.
         -1   -1    0    0    0  501 -0.00000000000E+00 -0.00000000000E+00 -0.11012508092E+04  0.11012508092E+04  0.50400000000E-02 0. -1.
    5000001    1    1    2    0    0 -0.40490182731E+03 -0.27077272359E+03  0.17078320131E+03  0.54189967655E+03  0.16500000000E+03 0.  0.
   -5000001    1    1    2    0    0  0.40490182731E+03  0.27077272359E+03 -0.84348264939E+03  0.98790249388E+03  0.16500000000E+03 0.  0.
<mgrwt>
<rscale>  0 0.13739615E+04</rscale>
<asrwt>0</asrwt>
<pdfrwt beam="1">  1        1 0.65930979E-01 0.13739615E+04</pdfrwt>
<pdfrwt beam="2">  1       -1 0.16942320E+00 0.13739615E+04</pdfrwt>
<totfact> 0.13278480E+01</totfact>
</mgrwt>
</event>
<event>
 4    1  0.2228009E-005  0.3708882E+03  0.7818608E-02  0.1054354E+00
          1   -1    0    0  501    0  0.00000000000E+00  0.00000000000E+00  0.10715567461E+04  0.10715567461E+04  0.50400000000E-02 0.  1.
         -1   -1    0    0    0  501 -0.00000000000E+00 -0.00000000000E+00 -0.32093034668E+02  0.32093035064E+02  0.50400000000E-02 0. -1.
    5000001    1    1    2    0    0  0.35656797635E+02  0.64488959320E+02  0.39581017986E+03  0.43511025221E+03  0.16500000000E+03 0.  0.
   -5000001    1    1    2    0    0 -0.35656797635E+02 -0.64488959320E+02  0.64365353154E+03  0.66853952894E+03  0.16500000000E+03 0.  0.
<mgrwt>
<rscale>  0 0.37088817E+03</rscale>
<asrwt>0</asrwt>
<pdfrwt beam="1">  1        1 0.16485490E+00 0.37088817E+03</pdfrwt>
<pdfrwt beam="2">  1       -1 0.49373896E-02 0.37088817E+03</pdfrwt>
<totfact> 0.25431215E+03</totfact>
</mgrwt>
</event>
<event>
 4    1  0.2228009E-005  0.5675129E+03  0.7818608E-02  0.9975197E-01
         -1   -1    0    0    0  501 -0.00000000000E+00  0.00000000000E+00  0.22779792289E+03  0.22779792294E+03  0.50400000000E-02 0.  1.
          1   -1    0    0  501    0  0.00000000000E+00 -0.00000000000E+00 -0.35346119419E+03  0.35346119422E+03  0.50400000000E-02 0. -1.
    5000001    1    1    2    0    0 -0.20797709942E+03  0.98113221706E+02 -0.83622272530E+02  0.29512431723E+03  0.16500000000E+03 0.  0.
   -5000001    1    1    2    0    0  0.20797709942E+03 -0.98113221706E+02 -0.42040998771E+02  0.28613479994E+03  0.16500000000E+03 0.  0.
<mgrwt>
<rscale>  0 0.56751291E+03</rscale>
<asrwt>0</asrwt>
<pdfrwt beam="1">  1        1 0.54378646E-01 0.56751291E+03</pdfrwt>
<pdfrwt beam="2">  1       -1 0.35045834E-01 0.56751291E+03</pdfrwt>
<totfact> 0.55281315E+02</totfact>
</mgrwt>
</event>
<event>
 4    1  0.2228009E-005  0.6347648E+03  0.7818608E-02  0.9835794E-01
          1   -1    0    0  501    0  0.00000000000E+00  0.00000000000E+00  0.14810752177E+03  0.14810752186E+03  0.50400000000E-02 0.  1.
         -1   -1    0    0    0  501 -0.00000000000E+00 -0.00000000000E+00 -0.68012480019E+03  0.68012480021E+03  0.50400000000E-02 0. -1.
    5000001    1    1    2    0    0 -0.81774034434E+02  0.17414058555E+03 -0.51526944323E+03  0.57422951454E+03  0.16500000000E+03 0.  0.
   -5000001    1    1    2    0    0  0.81774034434E+02 -0.17414058555E+03 -0.16747835186E+02  0.25400280752E+03  0.16500000000E+03 0.  0.
<mgrwt>
<rscale>  0 0.63476483E+03</rscale>
<asrwt>0</asrwt>
<pdfrwt beam="1">  1        1 0.22785773E-01 0.63476483E+03</pdfrwt>
<pdfrwt beam="2">  1       -1 0.10463458E+00 0.63476483E+03</pdfrwt>
<totfact> 0.19274185E+02</totfact>
</mgrwt>
</event>
<event>
 4    1  0.2228009E-005  0.4275132E+03  0.7818608E-02  0.1034648E+00
          1   -1    0    0  501    0  0.00000000000E+00  0.00000000000E+00  0.13010427255E+04  0.13010427255E+04  0.50400000000E-02 0.  1.
         -1   -1    0    0    0  501 -0.00000000000E+00 -0.00000000000E+00 -0.35119435052E+02  0.35119435413E+02  0.50400000000E-02 0. -1.
    5000001    1    1    2    0    0  0.11228254790E+03  0.62777487694E+02  0.76985765356E+03  0.79778079086E+03  0.16500000000E+03 0.  0.
   -5000001    1    1    2    0    0 -0.11228254790E+03 -0.62777487694E+02  0.49606563684E+03  0.53838137002E+03  0.16500000000E+03 0.  0.
<mgrwt>
<rscale>  0 0.42751321E+03</rscale>
<asrwt>0</asrwt>
<pdfrwt beam="1">  1        1 0.20016038E+00 0.42751321E+03</pdfrwt>
<pdfrwt beam="2">  1       -1 0.54029912E-02 0.42751321E+03</pdfrwt>
<totfact> 0.15203523E+03</totfact>
</mgrwt>
</event>
<event>
 4    1  0.2228009E-005  0.7369001E+03  0.7818608E-02  0.9656129E-01
          1   -1    0    0  501    0  0.00000000000E+00  0.00000000000E+00  0.83074049641E+03  0.83074049642E+03  0.50400000000E-02 0.  1.
         -1   -1    0    0    0  501 -0.00000000000E+00 -0.00000000000E+00 -0.16341495861E+03  0.16341495868E+03  0.50400000000E-02 0. -1.
    5000001    1    1    2    0    0  0.29330462302E+03  0.12916756032E+03  0.23075371326E+03  0.42800015971E+03  0.16500000000E+03 0.  0.
   -5000001    1    1    2    0    0 -0.29330462302E+03 -0.12916756032E+03  0.43657182454E+03  0.56615529540E+03  0.16500000000E+03 0.  0.
<mgrwt>
<rscale>  0 0.73690006E+03</rscale>
<asrwt>0</asrwt>
<pdfrwt beam="1">  1        1 0.12780623E+00 0.73690006E+03</pdfrwt>
<pdfrwt beam="2">  1       -1 0.25140763E-01 0.73690006E+03</pdfrwt>
<totfact> 0.29163230E+02</totfact>
</mgrwt>
</event>
<event>
 4    1  0.2228009E-005  0.6375043E+03  0.7818608E-02  0.9830513E-01
         -1   -1    0    0    0  501 -0.00000000000E+00  0.00000000000E+00  0.74691942800E+03  0.74691942802E+03  0.50400000000E-02 0. -1.
          1   -1    0    0  501    0  0.00000000000E+00 -0.00000000000E+00 -0.13602930746E+03  0.13602930756E+03  0.50400000000E-02 0.  1.
    5000001    1    1    2    0    0  0.13402289833E+03 -0.20064805524E+02  0.63323646357E+03  0.66826503162E+03  0.16500000000E+03 0.  0.
   -5000001    1    1    2    0    0 -0.13402289833E+03  0.20064805524E+02 -0.22346343029E+02  0.21468370395E+03  0.16500000000E+03 0.  0.
<mgrwt>
<rscale>  0 0.63750430E+03</rscale>
<asrwt>0</asrwt>
<pdfrwt beam="1">  1        1 0.20927586E-01 0.63750430E+03</pdfrwt>
<pdfrwt beam="2">  1       -1 0.11491068E+00 0.63750430E+03</pdfrwt>
<totfact> 0.17298359E+02</totfact>
</mgrwt>
</event>
<event>
 4    1  0.2228009E-005  0.5110807E+03  0.7818608E-02  0.1010926E+00
          1   -1    0    0  501    0  0.00000000000E+00  0.00000000000E+00  0.17144281838E+04  0.17144281838E+04  0.50400000000E-02 0.  1.
         -1   -1    0    0    0  501 -0.00000000000E+00 -0.00000000000E+00 -0.38089004175E+02  0.38089004509E+02  0.50400000000E-02 0. -1.
    5000001    1    1    2    0    0 -0.19825951652E+02 -0.18905890347E+03  0.98918474945E+03  0.10207094620E+04  0.16500000000E+03 0.  0.
   -5000001    1    1    2    0    0  0.19825951652E+02  0.18905890347E+03  0.68715443019E+03  0.73180772630E+03  0.16500000000E+03 0.  0.
<mgrwt>
<rscale>  0 0.51108067E+03</rscale>
<asrwt>0</asrwt>
<pdfrwt beam="1">  1        1 0.26375817E+00 0.51108067E+03</pdfrwt>
<pdfrwt beam="2">  1       -1 0.58598471E-02 0.51108067E+03</pdfrwt>
<totfact> 0.70247802E+02</totfact>
</mgrwt>
</event>
<event>
 4    1  0.2228009E-005  0.6338085E+03  0.7818608E-02  0.9837645E-01
          1   -1    0    0  501    0  0.00000000000E+00  0.00000000000E+00  0.12057958680E+04  0.12057958680E+04  0.50400000000E-02 0.  1.
         -1   -1    0    0    0  501 -0.00000000000E+00 -0.00000000000E+00 -0.83287981566E+02  0.83287981719E+02  0.50400000000E-02 0. -1.
    5000001    1    1    2    0    0 -0.26127273073E+03 -0.49235469423E+02  0.45924097871E+03  0.55571111902E+03  0.16500000000E+03 0.  0.
   -5000001    1    1    2    0    0  0.26127273073E+03  0.49235469423E+02  0.66326690773E+03  0.73337273072E+03  0.16500000000E+03 0.  0.
<mgrwt>
<rscale>  0 0.63380850E+03</rscale>
<asrwt>0</asrwt>
<pdfrwt beam="1">  1        1 0.18550705E+00 0.63380850E+03</pdfrwt>
<pdfrwt beam="2">  1       -1 0.12813536E-01 0.63380850E+03</pdfrwt>
<totfact> 0.45747181E+02</totfact>
</mgrwt>
</event>
<event>
 4    1  0.2228009E-005  0.5969659E+03  0.7818608E-02  0.9911721E-01
          1   -1    0    0  501    0  0.00000000000E+00  0.00000000000E+00  0.24592131336E+04  0.24592131336E+04  0.50400000000E-02 0.  1.
         -1   -1    0    0    0  501 -0.00000000000E+00 -0.00000000000E+00 -0.36227879152E+02  0.36227879502E+02  0.50400000000E-02 0. -1.
    5000001    1    1    2    0    0  0.48443973132E+02  0.20590908221E+03  0.17584724608E+04  0.17788186428E+04  0.16500000000E+03 0.  0.
   -5000001    1    1    2    0    0 -0.48443973132E+02 -0.20590908221E+03  0.66451279367E+03  0.71662237030E+03  0.16500000000E+03 0.  0.
<mgrwt>
<rscale>  0 0.59696592E+03</rscale>
<asrwt>0</asrwt>
<pdfrwt beam="1">  1        1 0.37834058E+00 0.59696592E+03</pdfrwt>
<pdfrwt beam="2">  1       -1 0.55735185E-02 0.59696592E+03</pdfrwt>
<totfact> 0.24014334E+02</totfact>
</mgrwt>
</event>
<event>
 4    1  0.2228009E-005  0.5545921E+03  0.7818608E-02  0.1000437E+00
         -1   -1    0    0    0  501 -0.00000000000E+00  0.00000000000E+00  0.69460204416E+02  0.69460204599E+02  0.50400000000E-02 0.  1.
          1   -1    0    0  501    0  0.00000000000E+00 -0.00000000000E+00 -0.11070095604E+04  0.11070095604E+04  0.50400000000E-02 0. -1.
    5000001    1    1    2    0    0  0.19381645288E+03 -0.11001198330E+03 -0.52049359901E+03  0.58975082915E+03  0.16500000000E+03 0.  0.
   -5000001    1    1    2    0    0 -0.19381645288E+03  0.11001198330E+03 -0.51705575698E+03  0.58671893587E+03  0.16500000000E+03 0.  0.
<mgrwt>
<rscale>  0 0.55459214E+03</rscale>
<asrwt>0</asrwt>
<pdfrwt beam="1">  1        1 0.17030915E+00 0.55459214E+03</pdfrwt>
<pdfrwt beam="2">  1       -1 0.10686186E-01 0.55459214E+03</pdfrwt>
<totfact> 0.72364133E+02</totfact>
</mgrwt>
</event>
<event>
 4    1  0.2228009E-005  0.9968559E+03  0.7818608E-02  0.9312000E-01
         -1   -1    0    0    0  501 -0.00000000000E+00  0.00000000000E+00  0.14204179755E+03  0.14204179764E+03  0.50400000000E-02 0.  1.
          1   -1    0    0  501    0  0.00000000000E+00 -0.00000000000E+00 -0.17489951747E+04  0.17489951747E+04  0.50400000000E-02 0. -1.
    5000001    1    1    2    0    0 -0.18118255136E+03  0.43242255036E+03 -0.87417759145E+03  0.10055982500E+04  0.16500000000E+03 0.  0.
   -5000001    1    1    2    0    0  0.18118255136E+03 -0.43242255036E+03 -0.73277578573E+03  0.88543872240E+03  0.16500000000E+03 0.  0.
<mgrwt>
<rscale>  0 0.99685589E+03</rscale>
<asrwt>0</asrwt>
<pdfrwt beam="1">  1        1 0.26907617E+00 0.99685589E+03</pdfrwt>
<pdfrwt beam="2">  1       -1 0.21852585E-01 0.99685589E+03</pdfrwt>
<totfact> 0.78127508E+01</totfact>
</mgrwt>
</event>
<event>
 4    1  0.2228009E-005  0.6112019E+03  0.7818608E-02  0.9882434E-01
         -1   -1    0    0    0  501 -0.00000000000E+00  0.00000000000E+00  0.22752362051E+03  0.22752362057E+03  0.50400000000E-02 0. -1.
          1   -1    0    0  501    0  0.00000000000E+00 -0.00000000000E+00 -0.41047143255E+03  0.41047143259E+03  0.50400000000E-02 0.  1.
    5000001    1    1    2    0    0 -0.21742895836E+03  0.99059749235E+02 -0.19093331744E+03  0.34751793848E+03  0.16500000000E+03 0.  0.
   -5000001    1    1    2    0    0  0.21742895836E+03 -0.99059749235E+02  0.79855053948E+01  0.29047711468E+03  0.16500000000E+03 0.  0.
<mgrwt>
<rscale>  0 0.61120192E+03</rscale>
<asrwt>0</asrwt>
<pdfrwt beam="1">  1        1 0.63149451E-01 0.61120192E+03</pdfrwt>
<pdfrwt beam="2">  1       -1 0.35003634E-01 0.61120192E+03</pdfrwt>
<totfact> 0.45482277E+02</totfact>
</mgrwt>
</event>
<event>
 4    1  0.2228009E-005  0.3807050E+03  0.7818608E-02  0.1050673E+00
         -1   -1    0    0    0  501 -0.00000000000E+00  0.00000000000E+00  0.21647458632E+03  0.21647458638E+03  0.50400000000E-02 0. -1.
          1   -1    0    0  501    0  0.00000000000E+00 -0.00000000000E+00 -0.16738257103E+03  0.16738257110E+03  0.50400000000E-02 0.  1.
    5000001    1    1    2    0    0  0.44797269712E+02  0.75849705573E+02  0.60181241377E+02  0.19648601737E+03  0.16500000000E+03 0.  0.
   -5000001    1    1    2    0    0 -0.44797269712E+02 -0.75849705573E+02 -0.11089226087E+02  0.18737114011E+03  0.16500000000E+03 0.  0.
<mgrwt>
<rscale>  0 0.38070499E+03</rscale>
<asrwt>0</asrwt>
<pdfrwt beam="1">  1        1 0.25751165E-01 0.38070499E+03</pdfrwt>
<pdfrwt beam="2">  1       -1 0.33303782E-01 0.38070499E+03</pdfrwt>
<totfact> 0.15783423E+03</totfact>
</mgrwt>
</event>
<event>
 4    1  0.2228009E-005  0.4105915E+03  0.7818608E-02  0.1040173E+00
          1   -1    0    0  501    0  0.00000000000E+00  0.00000000000E+00  0.20275558909E+04  0.20275558909E+04  0.50400000000E-02 0.  1.
         -1   -1    0    0    0  501 -0.00000000000E+00 -0.00000000000E+00 -0.20786771618E+02  0.20786772229E+02  0.50400000000E-02 0. -1.
    5000001    1    1    2    0    0  0.53858232245E+02 -0.47371892861E+02  0.51011401299E+03  0.54091229573E+03  0.16500000000E+03 0.  0.
   -5000001    1    1    2    0    0 -0.53858232245E+02  0.47371892861E+02  0.14966551063E+04  0.15074303674E+04  0.16500000000E+03 0.  0.
<mgrwt>
<rscale>  0 0.41059148E+03</rscale>
<asrwt>0</asrwt>
<pdfrwt beam="1">  1        1 0.31193157E+00 0.41059148E+03</pdfrwt>
<pdfrwt beam="2">  1       -1 0.31979660E-02 0.41059148E+03</pdfrwt>
<totfact> 0.10987948E+03</totfact>
</mgrwt>
</event>
<event>
 4    1  0.2228009E-005  0.1228360E+04  0.7818608E-02  0.9088389E-01
          1   -1    0    0  501    0  0.00000000000E+00  0.00000000000E+00  0.49119494344E+03  0.49119494347E+03  0.50400000000E-02 0.  1.
         -1   -1    0    0    0  501 -0.00000000000E+00 -0.00000000000E+00 -0.76795785801E+03  0.76795785802E+03  0.50400000000E-02 0. -1.
    5000001    1    1    2    0    0 -0.21289612320E+03  0.15005074729E+03 -0.68287707971E+03  0.74925702668E+03  0.16500000000E+03 0.  0.
   -5000001    1    1    2    0    0  0.21289612320E+03 -0.15005074729E+03  0.40611416515E+03  0.50989577481E+03  0.16500000000E+03 0.  0.
<mgrwt>
<rscale>  0 0.12283599E+04</rscale>
<asrwt>0</asrwt>
<pdfrwt beam="1">  1        1 0.75568453E-01 0.12283599E+04</pdfrwt>
<pdfrwt beam="2">  1       -1 0.11814736E+00 0.12283599E+04</pdfrwt>
<totfact> 0.28864179E+01</totfact>
</mgrwt>
</event>
<event>
 4    1  0.2228009E-005  0.4870144E+03  0.7818608E-02  0.1017225E+00
          1   -1    0    0  501    0  0.00000000000E+00  0.00000000000E+00  0.77593365478E+03  0.77593365480E+03  0.50400000000E-02 0.  1.
         -1   -1    0    0    0  501 -0.00000000000E+00 -0.00000000000E+00 -0.76418598643E+02  0.76418598809E+02  0.50400000000E-02 0. -1.
    5000001    1    1    2    0    0  0.43769714120E+02  0.17333081143E+03  0.33128489709E+03  0.41101586479E+03  0.16500000000E+03 0.  0.
   -5000001    1    1    2    0    0 -0.43769714120E+02 -0.17333081143E+03  0.36823015904E+03  0.44133638882E+03  0.16500000000E+03 0.  0.
<mgrwt>
<rscale>  0 0.48701443E+03</rscale>
<asrwt>0</asrwt>
<pdfrwt beam="1">  1        1 0.11937441E+00 0.48701443E+03</pdfrwt>
<pdfrwt beam="2">  1       -1 0.11756708E-01 0.48701443E+03</pdfrwt>
<totfact> 0.11411172E+03</totfact>
</mgrwt>
</event>
<event>
 4    1  0.2228009E-005  0.4365177E+03  0.7818608E-02  0.1031821E+00
         -1   -1    0    0    0  501 -0.00000000000E+00  0.00000000000E+00  0.16134747517E+02  0.16134748304E+02  0.50400000000E-02 0.  1.
          1   -1    0    0  501    0  0.00000000000E+00 -0.00000000000E+00 -0.29524437167E+04  0.29524437167E+04  0.50400000000E-02 0. -1.
    5000001    1    1    2    0    0  0.60508639238E+02 -0.11147551722E+03 -0.10209749934E+04  0.10419707403E+04  0.16500000000E+03 0.  0.
   -5000001    1    1    2    0    0 -0.60508639238E+02  0.11147551722E+03 -0.19153339757E+04  0.19266077247E+04  0.16500000000E+03 0.  0.
<mgrwt>
<rscale>  0 0.43651774E+03</rscale>
<asrwt>0</asrwt>
<pdfrwt beam="1">  1        1 0.45422168E+00 0.43651774E+03</pdfrwt>
<pdfrwt beam="2">  1       -1 0.24822713E-02 0.43651774E+03</pdfrwt>
<totfact> 0.37961130E+02</totfact>
</mgrwt>
</event>
<event>
 4    1  0.2228009E-005  0.5916552E+03  0.7818608E-02  0.9922872E-01
         -1   -1    0    0    0  501 -0.00000000000E+00  0.00000000000E+00  0.76245908454E+03  0.76245908456E+03  0.50400000000E-02 0.  1.
          1   -1    0    0  501    0  0.00000000000E+00 -0.00000000000E+00 -0.11477858344E+03  0.11477858355E+03  0.50400000000E-02 0. -1.
    5000001    1    1    2    0    0 -0.28411835960E+02 -0.23578379305E+03  0.41628822849E+03  0.50687485504E+03  0.16500000000E+03 0.  0.
   -5000001    1    1    2    0    0  0.28411835960E+02  0.23578379305E+03  0.23139227260E+03  0.37036281307E+03  0.16500000000E+03 0.  0.
<mgrwt>
<rscale>  0 0.59165522E+03</rscale>
<asrwt>0</asrwt>
<pdfrwt beam="1">  1        1 0.17658244E-01 0.59165522E+03</pdfrwt>
<pdfrwt beam="2">  1       -1 0.11730140E+00 0.59165522E+03</pdfrwt>
<totfact> 0.20664734E+02</totfact>
</mgrwt>
</event>
<event>
 4    1  0.2228009E-005  0.8099694E+03  0.7818608E-02  0.9545698E-01
          1   -1    0    0  501    0  0.00000000000E+00  0.00000000000E+00  0.14174270954E+03  0.14174270963E+03  0.50400000000E-02 0.  1.
         -1   -1    0    0    0  501 -0.00000000000E+00 -0.00000000000E+00 -0.11571148117E+04  0.11571148117E+04  0.50400000000E-02 0. -1.
    5000001    1    1    2    0    0 -0.24400841511E+02  0.15336311611E+03 -0.10459568458E+04  0.10702179076E+04  0.16500000000E+03 0.  0.
   -5000001    1    1    2    0    0  0.24400841511E+02 -0.15336311611E+03  0.30584743615E+02  0.22863961378E+03  0.16500000000E+03 0.  0.
<mgrwt>
<rscale>  0 0.80996935E+03</rscale>
<asrwt>0</asrwt>
<pdfrwt beam="1">  1        1 0.21806571E-01 0.80996935E+03</pdfrwt>
<pdfrwt beam="2">  1       -1 0.17801766E+00 0.80996935E+03</pdfrwt>
<totfact> 0.51115553E+01</totfact>
</mgrwt>
</event>
<event>
 4    1  0.2228009E-005  0.4440152E+03  0.7818608E-02  0.1029522E+00
          1   -1    0    0  501    0  0.00000000000E+00  0.00000000000E+00  0.27592134877E+03  0.27592134881E+03  0.50400000000E-02 0. -1.
         -1   -1    0    0    0  501 -0.00000000000E+00 -0.00000000000E+00 -0.17862838214E+03  0.17862838221E+03  0.50400000000E-02 0.  1.
    5000001    1    1    2    0    0  0.11400461074E+03 -0.37627453654E+02  0.13818301460E+03  0.24643948966E+03  0.16500000000E+03 0.  0.
   -5000001    1    1    2    0    0 -0.11400461074E+03  0.37627453654E+02 -0.40890047968E+02  0.20811024136E+03  0.16500000000E+03 0.  0.
<mgrwt>
<rscale>  0 0.44401524E+03</rscale>
<asrwt>0</asrwt>
<pdfrwt beam="1">  1        1 0.42449438E-01 0.44401524E+03</pdfrwt>
<pdfrwt beam="2">  1       -1 0.27481290E-01 0.44401524E+03</pdfrwt>
<totfact> 0.11616880E+03</totfact>
</mgrwt>
</event>
<event>
 4    1  0.2228009E-005  0.4826734E+03  0.7818608E-02  0.1018403E+00
          1   -1    0    0  501    0  0.00000000000E+00  0.00000000000E+00  0.30107058045E+03  0.30107058049E+03  0.50400000000E-02 0. -1.
         -1   -1    0    0    0  501 -0.00000000000E+00 -0.00000000000E+00 -0.19345428125E+03  0.19345428132E+03  0.50400000000E-02 0.  1.
    5000001    1    1    2    0    0  0.45172129878E+02 -0.16187294497E+03  0.10778007981E+03  0.25900756212E+03  0.16500000000E+03 0.  0.
   -5000001    1    1    2    0    0 -0.45172129878E+02  0.16187294497E+03 -0.16378061297E+00  0.23551729969E+03  0.16500000000E+03 0.  0.
<mgrwt>
<rscale>  0 0.48267336E+03</rscale>
<asrwt>0</asrwt>
<pdfrwt beam="1">  1        1 0.46318551E-01 0.48267336E+03</pdfrwt>
<pdfrwt beam="2">  1       -1 0.29762197E-01 0.48267336E+03</pdfrwt>
<totfact> 0.90617159E+02</totfact>
</mgrwt>
</event>
<event>
 4    1  0.2228009E-005  0.4003137E+03  0.7818608E-02  0.1043671E+00
         -1   -1    0    0    0  501 -0.00000000000E+00  0.00000000000E+00  0.13130576127E+03  0.13130576137E+03  0.50400000000E-02 0.  1.
          1   -1    0    0  501    0  0.00000000000E+00 -0.00000000000E+00 -0.30511054139E+03  0.30511054143E+03  0.50400000000E-02 0. -1.
    5000001    1    1    2    0    0 -0.92050002823E+02  0.62147410091E+02 -0.62469863828E+02  0.20847778656E+03  0.16500000000E+03 0.  0.
   -5000001    1    1    2    0    0  0.92050002823E+02 -0.62147410091E+02 -0.11133491629E+03  0.22793851624E+03  0.16500000000E+03 0.  0.
<mgrwt>
<rscale>  0 0.40031374E+03</rscale>
<asrwt>0</asrwt>
<pdfrwt beam="1">  1        1 0.46940083E-01 0.40031374E+03</pdfrwt>
<pdfrwt beam="2">  1       -1 0.20200886E-01 0.40031374E+03</pdfrwt>
<totfact> 0.17093792E+03</totfact>
</mgrwt>
</event>
<event>
 4    1  0.2228009E-005  0.4676344E+03  0.7818608E-02  0.1022590E+00
          1   -1    0    0  501    0  0.00000000000E+00  0.00000000000E+00  0.42262751799E+03  0.42262751802E+03  0.50400000000E-02 0.  1.
         -1   -1    0    0    0  501 -0.00000000000E+00 -0.00000000000E+00 -0.12935852910E+03  0.12935852920E+03  0.50400000000E-02 0. -1.
    5000001    1    1    2    0    0  0.15276807820E+03 -0.61110773933E+02  0.12384180467E+03  0.26388331700E+03  0.16500000000E+03 0.  0.
   -5000001    1    1    2    0    0 -0.15276807820E+03  0.61110773933E+02  0.16942718422E+03  0.28810273022E+03  0.16500000000E+03 0.  0.
<mgrwt>
<rscale>  0 0.46763436E+03</rscale>
<asrwt>0</asrwt>
<pdfrwt beam="1">  1        1 0.65019618E-01 0.46763436E+03</pdfrwt>
<pdfrwt beam="2">  1       -1 0.19901312E-01 0.46763436E+03</pdfrwt>
<totfact> 0.11502629E+03</totfact>
</mgrwt>
</event>
<event>
 4    1  0.2228009E-005  0.3620427E+03  0.7818608E-02  0.1057778E+00
         -1   -1    0    0    0  501 -0.00000000000E+00  0.00000000000E+00  0.82387227744E+02  0.82387227898E+02  0.50400000000E-02 0.  1.
          1   -1    0    0  501    0  0.00000000000E+00 -0.00000000000E+00 -0.39774030824E+03  0.39774030828E+03  0.50400000000E-02 0. -1.
    5000001    1    1    2    0    0  0.46393144966E+02  0.39468857476E+02 -0.21446367744E+03  0.27736218839E+03  0.16500000000E+03 0.  0.
   -5000001    1    1    2    0    0 -0.46393144966E+02 -0.39468857476E+02 -0.10088940306E+03  0.20276534778E+03  0.16500000000E+03 0.  0.
<mgrwt>
<rscale>  0 0.36204266E+03</rscale>
<asrwt>0</asrwt>
<pdfrwt beam="1">  1        1 0.61190816E-01 0.36204266E+03</pdfrwt>
<pdfrwt beam="2">  1       -1 0.12674958E-01 0.36204266E+03</pdfrwt>
<totfact> 0.25737250E+03</totfact>
</mgrwt>
</event>
<event>
 4    1  0.2228009E-005  0.4207468E+03  0.7818608E-02  0.1036824E+00
         -1   -1    0    0    0  501 -0.00000000000E+00  0.00000000000E+00  0.15902705931E+04  0.15902705931E+04  0.50400000000E-02 0. -1.
          1   -1    0    0  501    0  0.00000000000E+00 -0.00000000000E+00 -0.27829840258E+02  0.27829840714E+02  0.50400000000E-02 0.  1.
    5000001    1    1    2    0    0 -0.87100684970E+02 -0.93830349312E+02  0.87861156972E+03  0.90309133216E+03  0.16500000000E+03 0.  0.
   -5000001    1    1    2    0    0  0.87100684970E+02  0.93830349312E+02  0.68382918316E+03  0.71500910170E+03  0.16500000000E+03 0.  0.
<mgrwt>
<rscale>  0 0.42074685E+03</rscale>
<asrwt>0</asrwt>
<pdfrwt beam="1">  1        1 0.42815150E-02 0.42074685E+03</pdfrwt>
<pdfrwt beam="2">  1       -1 0.24465695E+00 0.42074685E+03</pdfrwt>
<totfact> 0.17544653E+02</totfact>
</mgrwt>
</event>
<event>
 4    1  0.2228009E-005  0.6331561E+03  0.7818608E-02  0.9838909E-01
         -1   -1    0    0    0  501 -0.00000000000E+00  0.00000000000E+00  0.15574037938E+03  0.15574037946E+03  0.50400000000E-02 0. -1.
          1   -1    0    0  501    0  0.00000000000E+00 -0.00000000000E+00 -0.64351756332E+03  0.64351756334E+03  0.50400000000E-02 0.  1.
    5000001    1    1    2    0    0 -0.18158892265E+03  0.19281621209E+03 -0.31120858719E+03  0.44071352738E+03  0.16500000000E+03 0.  0.
   -5000001    1    1    2    0    0  0.18158892265E+03 -0.19281621209E+03 -0.17656859675E+03  0.35854441542E+03  0.16500000000E+03 0.  0.
<mgrwt>
<rscale>  0 0.63315612E+03</rscale>
<asrwt>0</asrwt>
<pdfrwt beam="1">  1        1 0.99002700E-01 0.63315612E+03</pdfrwt>
<pdfrwt beam="2">  1       -1 0.23960059E-01 0.63315612E+03</pdfrwt>
<totfact> 0.47059696E+02</totfact>
</mgrwt>
</event>
<event>
 4    1  0.2228009E-005  0.5244280E+03  0.7818608E-02  0.1007592E+00
         -1   -1    0    0    0  501 -0.00000000000E+00  0.00000000000E+00  0.47425003751E+02  0.47425004018E+02  0.50400000000E-02 0. -1.
          1   -1    0    0  501    0  0.00000000000E+00 -0.00000000000E+00 -0.14497876104E+04  0.14497876105E+04  0.50400000000E-02 0.  1.
    5000001    1    1    2    0    0  0.96168746143E+02 -0.17171802684E+03 -0.85213401262E+03  0.88999600220E+03  0.16500000000E+03 0.  0.
   -5000001    1    1    2    0    0 -0.96168746143E+02  0.17171802684E+03 -0.55022859408E+03  0.60721661227E+03  0.16500000000E+03 0.  0.
<mgrwt>
<rscale>  0 0.52442800E+03</rscale>
<asrwt>0</asrwt>
<pdfrwt beam="1">  1        1 0.22304421E+00 0.52442800E+03</pdfrwt>
<pdfrwt beam="2">  1       -1 0.72961556E-02 0.52442800E+03</pdfrwt>
<totfact> 0.75426537E+02</totfact>
</mgrwt>
</event>
<event>
 4    1  0.2228009E-005  0.4070275E+03  0.7818608E-02  0.1041373E+00
          1   -1    0    0  501    0  0.00000000000E+00  0.00000000000E+00  0.29735882420E+03  0.29735882424E+03  0.50400000000E-02 0. -1.
         -1   -1    0    0    0  501 -0.00000000000E+00 -0.00000000000E+00 -0.13928574727E+03  0.13928574736E+03  0.50400000000E-02 0.  1.
    5000001    1    1    2    0    0 -0.10216701521E+02 -0.85527681177E+02 -0.92532076065E+01  0.18635983228E+03  0.16500000000E+03 0.  0.
   -5000001    1    1    2    0    0  0.10216701521E+02  0.85527681177E+02  0.16732628454E+03  0.25028473932E+03  0.16500000000E+03 0.  0.
<mgrwt>
<rscale>  0 0.40702750E+03</rscale>
<asrwt>0</asrwt>
<pdfrwt beam="1">  1        1 0.45747511E-01 0.40702750E+03</pdfrwt>
<pdfrwt beam="2">  1       -1 0.21428577E-01 0.40702750E+03</pdfrwt>
<totfact> 0.16027910E+03</totfact>
</mgrwt>
</event>
<event>
 4    1  0.2228009E-005  0.3945648E+03  0.7818608E-02  0.1045678E+00
         -1   -1    0    0    0  501 -0.00000000000E+00  0.00000000000E+00  0.27832393386E+02  0.27832393843E+02  0.50400000000E-02 0. -1.
          1   -1    0    0  501    0  0.00000000000E+00 -0.00000000000E+00 -0.13983832165E+04  0.13983832165E+04  0.50400000000E-02 0.  1.
    5000001    1    1    2    0    0  0.59506498910E+02  0.88096301733E+02 -0.61358392141E+03  0.64421441338E+03  0.16500000000E+03 0.  0.
   -5000001    1    1    2    0    0 -0.59506498910E+02 -0.88096301733E+02 -0.75696690166E+03  0.78200119693E+03  0.16500000000E+03 0.  0.
<mgrwt>
<rscale>  0 0.39456483E+03</rscale>
<asrwt>0</asrwt>
<pdfrwt beam="1">  1        1 0.21513582E+00 0.39456483E+03</pdfrwt>
<pdfrwt beam="2">  1       -1 0.42819078E-02 0.39456483E+03</pdfrwt>
<totfact> 0.18551338E+03</totfact>
</mgrwt>
</event>
<event>
 4    1  0.2228009E-005  0.5165488E+03  0.7818608E-02  0.1009547E+00
         -1   -1    0    0    0  501 -0.00000000000E+00  0.00000000000E+00  0.50294147439E+02  0.50294147692E+02  0.50400000000E-02 0.  1.
          1   -1    0    0  501    0  0.00000000000E+00 -0.00000000000E+00 -0.13263106261E+04  0.13263106261E+04  0.50400000000E-02 0. -1.
    5000001    1    1    2    0    0 -0.44290265791E+02 -0.17713883961E+03 -0.42916869200E+03  0.49472271257E+03  0.16500000000E+03 0.  0.
   -5000001    1    1    2    0    0  0.44290265791E+02  0.17713883961E+03 -0.84684778669E+03  0.88188206126E+03  0.16500000000E+03 0.  0.
<mgrwt>
<rscale>  0 0.51654879E+03</rscale>
<asrwt>0</asrwt>
<pdfrwt beam="1">  1        1 0.20404776E+00 0.51654879E+03</pdfrwt>
<pdfrwt beam="2">  1       -1 0.77375622E-02 0.51654879E+03</pdfrwt>
<totfact> 0.83782588E+02</totfact>
</mgrwt>
</event>
<event>
 4    1  0.2228009E-005  0.4535118E+03  0.7818608E-02  0.1026680E+00
         -1   -1    0    0    0  501 -0.00000000000E+00  0.00000000000E+00  0.33671724741E+03  0.33671724744E+03  0.50400000000E-02 0. -1.
          1   -1    0    0  501    0  0.00000000000E+00 -0.00000000000E+00 -0.15270446722E+03  0.15270446730E+03  0.50400000000E-02 0.  1.
    5000001    1    1    2    0    0 -0.13132176124E+03  0.80900838025E+02  0.70345260509E+02  0.23656670570E+03  0.16500000000E+03 0.  0.
   -5000001    1    1    2    0    0  0.13132176124E+03 -0.80900838025E+02  0.11366751968E+03  0.25285500904E+03  0.16500000000E+03 0.  0.
<mgrwt>
<rscale>  0 0.45351175E+03</rscale>
<asrwt>0</asrwt>
<pdfrwt beam="1">  1        1 0.23492995E-01 0.45351175E+03</pdfrwt>
<pdfrwt beam="2">  1       -1 0.51802653E-01 0.45351175E+03</pdfrwt>
<totfact> 0.79943160E+02</totfact>
</mgrwt>
</event>
<event>
 4    1  0.2228009E-005  0.5412533E+03  0.7818608E-02  0.1003539E+00
          1   -1    0    0  501    0  0.00000000000E+00  0.00000000000E+00  0.79740491044E+02  0.79740491203E+02  0.50400000000E-02 0.  1.
         -1   -1    0    0    0  501 -0.00000000000E+00 -0.00000000000E+00 -0.91846432437E+03  0.91846432438E+03  0.50400000000E-02 0. -1.
    5000001    1    1    2    0    0 -0.51322167229E+01 -0.19457573422E+03 -0.25309571488E+03  0.35940019044E+03  0.16500000000E+03 0.  0.
   -5000001    1    1    2    0    0  0.51322167229E+01  0.19457573422E+03 -0.58562811845E+03  0.63880462515E+03  0.16500000000E+03 0.  0.
<mgrwt>
<rscale>  0 0.54125335E+03</rscale>
<asrwt>0</asrwt>
<pdfrwt beam="1">  1        1 0.12267769E-01 0.54125335E+03</pdfrwt>
<pdfrwt beam="2">  1       -1 0.14130220E+00 0.54125335E+03</pdfrwt>
<totfact> 0.21226627E+02</totfact>
</mgrwt>
</event>
<event>
 4    1  0.2228009E-005  0.7199439E+03  0.7818608E-02  0.9683720E-01
          1   -1    0    0  501    0  0.00000000000E+00  0.00000000000E+00  0.41110721167E+03  0.41110721170E+03  0.50400000000E-02 0. -1.
         -1   -1    0    0    0  501 -0.00000000000E+00 -0.00000000000E+00 -0.31519714177E+03  0.31519714181E+03  0.50400000000E-02 0.  1.
    5000001    1    1    2    0    0 -0.30163230601E+03  0.79615347558E+02  0.11953372677E+03  0.37260429873E+03  0.16500000000E+03 0.  0.
   -5000001    1    1    2    0    0  0.30163230601E+03 -0.79615347558E+02 -0.23623656870E+02  0.35370005479E+03  0.16500000000E+03 0.  0.
<mgrwt>
<rscale>  0 0.71994394E+03</rscale>
<asrwt>0</asrwt>
<pdfrwt beam="1">  1        1 0.63247264E-01 0.71994394E+03</pdfrwt>
<pdfrwt beam="2">  1       -1 0.48491868E-01 0.71994394E+03</pdfrwt>
<totfact> 0.24935375E+02</totfact>
</mgrwt>
</event>
<event>
 4    1  0.2228009E-005  0.4158905E+03  0.7818608E-02  0.1038412E+00
         -1   -1    0    0    0  501 -0.00000000000E+00  0.00000000000E+00  0.40191512440E+03  0.40191512443E+03  0.50400000000E-02 0. -1.
          1   -1    0    0  501    0  0.00000000000E+00 -0.00000000000E+00 -0.10758793762E+03  0.10758793773E+03  0.50400000000E-02 0.  1.
    5000001    1    1    2    0    0 -0.71016455874E+02 -0.79121973130E+02  0.23126396785E+03  0.30333421578E+03  0.16500000000E+03 0.  0.
   -5000001    1    1    2    0    0  0.71016455874E+02  0.79121973130E+02  0.63063218930E+02  0.20616884638E+03  0.16500000000E+03 0.  0.
<mgrwt>
<rscale>  0 0.41589046E+03</rscale>
<asrwt>0</asrwt>
<pdfrwt beam="1">  1        1 0.16551990E-01 0.41589046E+03</pdfrwt>
<pdfrwt beam="2">  1       -1 0.61833096E-01 0.41589046E+03</pdfrwt>
<totfact> 0.90004053E+02</totfact>
</mgrwt>
</event>
<event>
 4    1  0.2228009E-005  0.4313059E+03  0.7818608E-02  0.1033448E+00
         -1   -1    0    0    0  501 -0.00000000000E+00  0.00000000000E+00  0.20837707689E+03  0.20837707695E+03  0.50400000000E-02 0. -1.
          1   -1    0    0  501    0  0.00000000000E+00 -0.00000000000E+00 -0.22318286420E+03  0.22318286425E+03  0.50400000000E-02 0.  1.
    5000001    1    1    2    0    0  0.69422212174E+02 -0.65015962460E+02  0.93823261496E+02  0.21230714382E+03  0.16500000000E+03 0.  0.
   -5000001    1    1    2    0    0 -0.69422212174E+02  0.65015962460E+02 -0.10862904880E+03  0.21925279739E+03  0.16500000000E+03 0.  0.
<mgrwt>
<rscale>  0 0.43130589E+03</rscale>
<asrwt>0</asrwt>
<pdfrwt beam="1">  1        1 0.34335826E-01 0.43130589E+03</pdfrwt>
<pdfrwt beam="2">  1       -1 0.32058012E-01 0.43130589E+03</pdfrwt>
<totfact> 0.11680235E+03</totfact>
</mgrwt>
</event>
<event>
 4    1  0.2228009E-005  0.7421203E+03  0.7818608E-02  0.9647794E-01
         -1   -1    0    0    0  501 -0.00000000000E+00  0.00000000000E+00  0.93707369400E+02  0.93707369536E+02  0.50400000000E-02 0.  1.
          1   -1    0    0  501    0  0.00000000000E+00 -0.00000000000E+00 -0.14693148866E+04  0.14693148866E+04  0.50400000000E-02 0. -1.
    5000001    1    1    2    0    0  0.23885459633E+03  0.10983766361E+03 -0.11160576462E+04  0.11584150811E+04  0.16500000000E+03 0.  0.
   -5000001    1    1    2    0    0 -0.23885459633E+03 -0.10983766361E+03 -0.25954987097E+03  0.40460717500E+03  0.16500000000E+03 0.  0.
<mgrwt>
<rscale>  0 0.74212029E+03</rscale>
<asrwt>0</asrwt>
<pdfrwt beam="1">  1        1 0.22604843E+00 0.74212029E+03</pdfrwt>
<pdfrwt beam="2">  1       -1 0.14416519E-01 0.74212029E+03</pdfrwt>
<totfact> 0.24551399E+02</totfact>
</mgrwt>
</event>
<event>
 4    1  0.2228009E-005  0.5302038E+03  0.7818608E-02  0.1006183E+00
         -1   -1    0    0    0  501 -0.00000000000E+00  0.00000000000E+00  0.72993186995E+02  0.72993187169E+02  0.50400000000E-02 0. -1.
          1   -1    0    0  501    0  0.00000000000E+00 -0.00000000000E+00 -0.96281601188E+03  0.96281601189E+03  0.50400000000E-02 0.  1.
    5000001    1    1    2    0    0  0.20062522670E+03  0.20274489672E+02 -0.54046796099E+03  0.59999346111E+03  0.16500000000E+03 0.  0.
   -5000001    1    1    2    0    0 -0.20062522670E+03 -0.20274489672E+02 -0.34935486390E+03  0.43581573795E+03  0.16500000000E+03 0.  0.
<mgrwt>
<rscale>  0 0.53020377E+03</rscale>
<asrwt>0</asrwt>
<pdfrwt beam="1">  1        1 0.14812553E+00 0.53020377E+03</pdfrwt>
<pdfrwt beam="2">  1       -1 0.11229722E-01 0.53020377E+03</pdfrwt>
<totfact> 0.86110004E+02</totfact>
</mgrwt>
</event>
<event>
 4    1  0.2228009E-005  0.4919226E+03  0.7818608E-02  0.1015909E+00
          1   -1    0    0  501    0  0.00000000000E+00  0.00000000000E+00  0.59227009081E+03  0.59227009083E+03  0.50400000000E-02 0.  1.
         -1   -1    0    0    0  501 -0.00000000000E+00 -0.00000000000E+00 -0.10214422631E+03  0.10214422643E+03  0.50400000000E-02 0. -1.
    5000001    1    1    2    0    0 -0.18165345094E+03  0.35268302732E+01  0.22223304521E+03  0.33109355348E+03  0.16500000000E+03 0.  0.
   -5000001    1    1    2    0    0  0.18165345094E+03 -0.35268302732E+01  0.26789281929E+03  0.36332076379E+03  0.16500000000E+03 0.  0.
<mgrwt>
<rscale>  0 0.49192264E+03</rscale>
<asrwt>0</asrwt>
<pdfrwt beam="1">  1        1 0.91118476E-01 0.49192264E+03</pdfrwt>
<pdfrwt beam="2">  1       -1 0.15714496E-01 0.49192264E+03</pdfrwt>
<totfact> 0.10688762E+03</totfact>
</mgrwt>
</event>
<event>
 4    1  0.2228009E-005  0.8475616E+03  0.7818608E-02  0.9493616E-01
          1   -1    0    0  501    0  0.00000000000E+00  0.00000000000E+00  0.41803191598E+03  0.41803191601E+03  0.50400000000E-02 0.  1.
         -1   -1    0    0    0  501 -0.00000000000E+00 -0.00000000000E+00 -0.42960874292E+03  0.42960874295E+03  0.50400000000E-02 0. -1.
    5000001    1    1    2    0    0 -0.13700247968E+03 -0.16578599991E+03 -0.33156484837E+03  0.42826968826E+03  0.16500000000E+03 0.  0.
   -5000001    1    1    2    0    0  0.13700247968E+03  0.16578599991E+03  0.31998802143E+03  0.41937097070E+03  0.16500000000E+03 0.  0.
<mgrwt>
<rscale>  0 0.84756160E+03</rscale>
<asrwt>0</asrwt>
<pdfrwt beam="1">  1        1 0.64312602E-01 0.84756160E+03</pdfrwt>
<pdfrwt beam="2">  1       -1 0.66093653E-01 0.84756160E+03</pdfrwt>
<totfact> 0.13260371E+02</totfact>
</mgrwt>
</event>
<event>
 4    1  0.2228009E-005  0.6048053E+03  0.7818608E-02  0.9895486E-01
         -1   -1    0    0    0  501 -0.00000000000E+00  0.00000000000E+00  0.13182371466E+04  0.13182371466E+04  0.50400000000E-02 0. -1.
          1   -1    0    0  501    0  0.00000000000E+00 -0.00000000000E+00 -0.69370955805E+02  0.69370955988E+02  0.50400000000E-02 0.  1.
    5000001    1    1    2    0    0 -0.12648436670E+03  0.17099295167E+03  0.30830573603E+03  0.40928512239E+03  0.16500000000E+03 0.  0.
   -5000001    1    1    2    0    0  0.12648436670E+03 -0.17099295167E+03  0.94056045480E+03  0.97832298024E+03  0.16500000000E+03 0.  0.
<mgrwt>
<rscale>  0 0.60480533E+03</rscale>
<asrwt>0</asrwt>
<pdfrwt beam="1">  1        1 0.10672456E-01 0.60480533E+03</pdfrwt>
<pdfrwt beam="2">  1       -1 0.20280570E+00 0.60480533E+03</pdfrwt>
<totfact> 0.91189341E+01</totfact>
</mgrwt>
</event>
<event>
 4    1  0.2228009E-005  0.4110773E+03  0.7818608E-02  0.1040010E+00
         -1   -1    0    0    0  501 -0.00000000000E+00  0.00000000000E+00  0.14128934220E+03  0.14128934229E+03  0.50400000000E-02 0.  1.
          1   -1    0    0  501    0  0.00000000000E+00 -0.00000000000E+00 -0.29900446229E+03  0.29900446234E+03  0.50400000000E-02 0. -1.
    5000001    1    1    2    0    0 -0.34705514087E+02  0.10557902531E+03 -0.13419939686E+03  0.23997058447E+03  0.16500000000E+03 0.  0.
   -5000001    1    1    2    0    0  0.34705514087E+02 -0.10557902531E+03 -0.23515723230E+02  0.20032322015E+03  0.16500000000E+03 0.  0.
<mgrwt>
<rscale>  0 0.41107733E+03</rscale>
<asrwt>0</asrwt>
<pdfrwt beam="1">  1        1 0.46000686E-01 0.41107733E+03</pdfrwt>
<pdfrwt beam="2">  1       -1 0.21736822E-01 0.41107733E+03</pdfrwt>
<totfact> 0.15544497E+03</totfact>
</mgrwt>
</event>
<event>
 4    1  0.2228009E-005  0.3892377E+03  0.7818608E-02  0.1047571E+00
         -1   -1    0    0    0  501 -0.00000000000E+00  0.00000000000E+00  0.48296779263E+02  0.48296779526E+02  0.50400000000E-02 0. -1.
          1   -1    0    0  501    0  0.00000000000E+00 -0.00000000000E+00 -0.78424495573E+03  0.78424495575E+03  0.50400000000E-02 0.  1.
    5000001    1    1    2    0    0  0.85241794786E+02 -0.25938720415E+02 -0.25657595141E+03  0.31779741918E+03  0.16500000000E+03 0.  0.
   -5000001    1    1    2    0    0 -0.85241794786E+02  0.25938720415E+02 -0.47937222506E+03  0.51474431610E+03  0.16500000000E+03 0.  0.
<mgrwt>
<rscale>  0 0.38923775E+03</rscale>
<asrwt>0</asrwt>
<pdfrwt beam="1">  1        1 0.12065306E+00 0.38923775E+03</pdfrwt>
<pdfrwt beam="2">  1       -1 0.74302743E-02 0.38923775E+03</pdfrwt>
<totfact> 0.22981612E+03</totfact>
</mgrwt>
</event>
<event>
 4    1  0.2228009E-005  0.6058670E+03  0.7818608E-02  0.9893308E-01
          1   -1    0    0  501    0  0.00000000000E+00  0.00000000000E+00  0.71908616715E+02  0.71908616891E+02  0.50400000000E-02 0.  1.
         -1   -1    0    0    0  501 -0.00000000000E+00 -0.00000000000E+00 -0.12761850768E+04  0.12761850768E+04  0.50400000000E-02 0. -1.
    5000001    1    1    2    0    0  0.13981828247E+03  0.20694255726E+03 -0.49850344539E+03  0.58146802077E+03  0.16500000000E+03 0.  0.
   -5000001    1    1    2    0    0 -0.13981828247E+03 -0.20694255726E+03 -0.70577301467E+03  0.76662567290E+03  0.16500000000E+03 0.  0.
<mgrwt>
<rscale>  0 0.60586699E+03</rscale>
<asrwt>0</asrwt>
<pdfrwt beam="1">  1        1 0.11062865E-01 0.60586699E+03</pdfrwt>
<pdfrwt beam="2">  1       -1 0.19633615E+00 0.60586699E+03</pdfrwt>
<totfact> 0.96082701E+01</totfact>
</mgrwt>
</event>
<event>
 4    1  0.2228009E-005  0.4675340E+03  0.7818608E-02  0.1022619E+00
          1   -1    0    0  501    0  0.00000000000E+00  0.00000000000E+00  0.92252358726E+03  0.92252358728E+03  0.50400000000E-02 0. -1.
         -1   -1    0    0    0  501 -0.00000000000E+00 -0.00000000000E+00 -0.59236448821E+02  0.59236449035E+02  0.50400000000E-02 0.  1.
    5000001    1    1    2    0    0  0.63061549575E+02 -0.11413311162E+02  0.11100939869E+03  0.20893805136E+03  0.16500000000E+03 0.  0.
   -5000001    1    1    2    0    0 -0.63061549575E+02  0.11413311162E+02  0.75227773975E+03  0.77282198495E+03  0.16500000000E+03 0.  0.
<mgrwt>
<rscale>  0 0.46753405E+03</rscale>
<asrwt>0</asrwt>
<pdfrwt beam="1">  1        1 0.14192670E+00 0.46753405E+03</pdfrwt>
<pdfrwt beam="2">  1       -1 0.91132999E-02 0.46753405E+03</pdfrwt>
<totfact> 0.12884887E+03</totfact>
</mgrwt>
</event>
<event>
 4    1  0.2228009E-005  0.4100757E+03  0.7818608E-02  0.1040346E+00
         -1   -1    0    0    0  501 -0.00000000000E+00  0.00000000000E+00  0.11639453627E+03  0.11639453638E+03  0.50400000000E-02 0.  1.
          1   -1    0    0  501    0  0.00000000000E+00 -0.00000000000E+00 -0.36118982323E+03  0.36118982327E+03  0.50400000000E-02 0. -1.
    5000001    1    1    2    0    0 -0.69967353789E+02 -0.99255112819E+02 -0.13203761403E+03  0.24373333694E+03  0.16500000000E+03 0.  0.
   -5000001    1    1    2    0    0  0.69967353789E+02  0.99255112819E+02 -0.11275767293E+03  0.23385102271E+03  0.16500000000E+03 0.  0.
<mgrwt>
<rscale>  0 0.41007571E+03</rscale>
<asrwt>0</asrwt>
<pdfrwt beam="1">  1        1 0.55567665E-01 0.41007571E+03</pdfrwt>
<pdfrwt beam="2">  1       -1 0.17906852E-01 0.41007571E+03</pdfrwt>
<totfact> 0.16774425E+03</totfact>
</mgrwt>
</event>
<event>
 4    1  0.2228009E-005  0.8079325E+03  0.7818608E-02  0.9548606E-01
          1   -1    0    0  501    0  0.00000000000E+00  0.00000000000E+00  0.56504422579E+03  0.56504422582E+03  0.50400000000E-02 0.  1.
         -1   -1    0    0    0  501 -0.00000000000E+00 -0.00000000000E+00 -0.28880702497E+03  0.28880702502E+03  0.50400000000E-02 0. -1.
    5000001    1    1    2    0    0 -0.20318183052E+03  0.13239137264E+03 -0.15543316003E+03  0.33195601974E+03  0.16500000000E+03 0.  0.
   -5000001    1    1    2    0    0  0.20318183052E+03 -0.13239137264E+03  0.43167036085E+03  0.52189523110E+03  0.16500000000E+03 0.  0.
<mgrwt>
<rscale>  0 0.80793253E+03</rscale>
<asrwt>0</asrwt>
<pdfrwt beam="1">  1        1 0.86929881E-01 0.80793253E+03</pdfrwt>
<pdfrwt beam="2">  1       -1 0.44431850E-01 0.80793253E+03</pdfrwt>
<totfact> 0.18924675E+02</totfact>
</mgrwt>
</event>
<event>
 4    1  0.2228009E-005  0.4388283E+03  0.7818608E-02  0.1031107E+00
         -1   -1    0    0    0  501 -0.00000000000E+00  0.00000000000E+00  0.20449898458E+02  0.20449899079E+02  0.50400000000E-02 0. -1.
          1   -1    0    0  501    0  0.00000000000E+00 -0.00000000000E+00 -0.23541713933E+04  0.23541713933E+04  0.50400000000E-02 0.  1.
    5000001    1    1    2    0    0 -0.11846223571E+03  0.28631974734E+02 -0.74545897121E+03  0.77316697357E+03  0.16500000000E+03 0.  0.
   -5000001    1    1    2    0    0  0.11846223571E+03 -0.28631974734E+02 -0.15882625236E+04  0.16014543188E+04  0.16500000000E+03 0.  0.
<mgrwt>
<rscale>  0 0.43882829E+03</rscale>
<asrwt>0</asrwt>
<pdfrwt beam="1">  1        1 0.36218000E+00 0.43882829E+03</pdfrwt>
<pdfrwt beam="2">  1       -1 0.31461401E-02 0.43882829E+03</pdfrwt>
<totfact> 0.68304468E+02</totfact>
</mgrwt>
</event>
<event>
 4    1  0.2228009E-005  0.5685706E+03  0.7818608E-02  0.9972847E-01
          1   -1    0    0  501    0  0.00000000000E+00  0.00000000000E+00  0.89108191402E+03  0.89108191403E+03  0.50400000000E-02 0. -1.
         -1   -1    0    0    0  501 -0.00000000000E+00 -0.00000000000E+00 -0.90696637439E+02  0.90696637579E+02  0.50400000000E-02 0.  1.
    5000001    1    1    2    0    0  0.19598735918E+03  0.55711719528E+02  0.58996454093E+03  0.64559894687E+03  0.16500000000E+03 0.  0.
   -5000001    1    1    2    0    0 -0.19598735918E+03 -0.55711719528E+02  0.21042073565E+03  0.33617960474E+03  0.16500000000E+03 0.  0.
<mgrwt>
<rscale>  0 0.56857061E+03</rscale>
<asrwt>0</asrwt>
<pdfrwt beam="1">  1        1 0.13708952E+00 0.56857061E+03</pdfrwt>
<pdfrwt beam="2">  1       -1 0.13953329E-01 0.56857061E+03</pdfrwt>
<totfact> 0.69334805E+02</totfact>
</mgrwt>
</event>
<event>
 4    1  0.2228009E-005  0.1495325E+04  0.7818608E-02  0.8887568E-01
         -1   -1    0    0    0  501 -0.00000000000E+00  0.00000000000E+00  0.14010190718E+04  0.14010190718E+04  0.50400000000E-02 0. -1.
          1   -1    0    0  501    0  0.00000000000E+00 -0.00000000000E+00 -0.39899447857E+03  0.39899447860E+03  0.50400000000E-02 0.  1.
    5000001    1    1    2    0    0  0.48993319541E+03  0.53052142713E+03  0.62309974960E+03  0.96796994713E+03  0.16500000000E+03 0.  0.
   -5000001    1    1    2    0    0 -0.48993319541E+03 -0.53052142713E+03  0.37892484361E+03  0.83204360325E+03  0.16500000000E+03 0.  0.
<mgrwt>
<rscale>  0 0.14953245E+04</rscale>
<asrwt>0</asrwt>
<pdfrwt beam="1">  1        1 0.61383768E-01 0.14953245E+04</pdfrwt>
<pdfrwt beam="2">  1       -1 0.21554139E+00 0.14953245E+04</pdfrwt>
<totfact> 0.68690260E+00</totfact>
</mgrwt>
</event>
<event>
 4    1  0.2228009E-005  0.4616219E+03  0.7818608E-02  0.1024312E+00
          1   -1    0    0  501    0  0.00000000000E+00  0.00000000000E+00  0.48815127930E+03  0.48815127933E+03  0.50400000000E-02 0. -1.
         -1   -1    0    0    0  501 -0.00000000000E+00 -0.00000000000E+00 -0.10913358090E+03  0.10913358102E+03  0.50400000000E-02 0.  1.
    5000001    1    1    2    0    0 -0.15434038593E+03 -0.42341004450E+02  0.21649435915E+03  0.31576656398E+03  0.16500000000E+03 0.  0.
   -5000001    1    1    2    0    0  0.15434038593E+03  0.42341004450E+02  0.16252333925E+03  0.28151829636E+03  0.16500000000E+03 0.  0.
<mgrwt>
<rscale>  0 0.46162191E+03</rscale>
<asrwt>0</asrwt>
<pdfrwt beam="1">  1        1 0.75100197E-01 0.46162191E+03</pdfrwt>
<pdfrwt beam="2">  1       -1 0.16789782E-01 0.46162191E+03</pdfrwt>
<totfact> 0.12538663E+03</totfact>
</mgrwt>
</event>
<event>
 4    1  0.2228009E-005  0.6777121E+03  0.7818608E-02  0.9756125E-01
         -1   -1    0    0    0  501 -0.00000000000E+00  0.00000000000E+00  0.21686349918E+03  0.21686349924E+03  0.50400000000E-02 0.  1.
          1   -1    0    0  501    0  0.00000000000E+00 -0.00000000000E+00 -0.52947329665E+03  0.52947329668E+03  0.50400000000E-02 0. -1.
    5000001    1    1    2    0    0 -0.24619213915E+03 -0.14015159309E+03 -0.61921170580E+02  0.33363493491E+03  0.16500000000E+03 0.  0.
   -5000001    1    1    2    0    0  0.24619213915E+03  0.14015159309E+03 -0.25068862689E+03  0.41270186101E+03  0.16500000000E+03 0.  0.
<mgrwt>
<rscale>  0 0.67771213E+03</rscale>
<asrwt>0</asrwt>
<pdfrwt beam="1">  1        1 0.81457430E-01 0.67771213E+03</pdfrwt>
<pdfrwt beam="2">  1       -1 0.33363615E-01 0.67771213E+03</pdfrwt>
<totfact> 0.35008545E+02</totfact>
</mgrwt>
</event>
<event>
 4    1  0.2228009E-005  0.4294077E+03  0.7818608E-02  0.1034047E+00
          1   -1    0    0  501    0  0.00000000000E+00  0.00000000000E+00  0.93462755184E+03  0.93462755185E+03  0.50400000000E-02 0. -1.
         -1   -1    0    0    0  501 -0.00000000000E+00 -0.00000000000E+00 -0.49322049312E+02  0.49322049570E+02  0.50400000000E-02 0.  1.
    5000001    1    1    2    0    0  0.38693651088E+02 -0.10059960797E+03  0.63783022777E+03  0.66758511009E+03  0.16500000000E+03 0.  0.
   -5000001    1    1    2    0    0 -0.38693651088E+02  0.10059960797E+03  0.24747527476E+03  0.31636449133E+03  0.16500000000E+03 0.  0.
<mgrwt>
<rscale>  0 0.42940771E+03</rscale>
<asrwt>0</asrwt>
<pdfrwt beam="1">  1        1 0.14378883E+00 0.42940771E+03</pdfrwt>
<pdfrwt beam="2">  1       -1 0.75880090E-02 0.42940771E+03</pdfrwt>
<totfact> 0.16759423E+03</totfact>
</mgrwt>
</event>
<event>
 4    1  0.2228009E-005  0.8604857E+03  0.7818608E-02  0.9476370E-01
          1   -1    0    0  501    0  0.00000000000E+00  0.00000000000E+00  0.12654158391E+04  0.12654158391E+04  0.50400000000E-02 0. -1.
         -1   -1    0    0    0  501 -0.00000000000E+00 -0.00000000000E+00 -0.14628307426E+03  0.14628307435E+03  0.50400000000E-02 0.  1.
    5000001    1    1    2    0    0 -0.29795194871E+03  0.27980315519E+02  0.98840147925E+03  0.10458110470E+04  0.16500000000E+03 0.  0.
   -5000001    1    1    2    0    0  0.29795194871E+03 -0.27980315519E+02  0.13073128557E+03  0.36588786646E+03  0.16500000000E+03 0.  0.
<mgrwt>
<rscale>  0 0.86048572E+03</rscale>
<asrwt>0</asrwt>
<pdfrwt beam="1">  1        1 0.19467936E+00 0.86048572E+03</pdfrwt>
<pdfrwt beam="2">  1       -1 0.22505088E-01 0.86048572E+03</pdfrwt>
<totfact> 0.16197074E+02</totfact>
</mgrwt>
</event>
<event>
 4    1  0.2228009E-005  0.4293407E+03  0.7818608E-02  0.1034068E+00
          1   -1    0    0  501    0  0.00000000000E+00  0.00000000000E+00  0.28069876463E+03  0.28069876467E+03  0.50400000000E-02 0.  1.
         -1   -1    0    0    0  501 -0.00000000000E+00 -0.00000000000E+00 -0.16417372503E+03  0.16417372511E+03  0.50400000000E-02 0. -1.
    5000001    1    1    2    0    0  0.13715581154E+03  0.24532018551E+01  0.51658006872E+02  0.22070633093E+03  0.16500000000E+03 0.  0.
   -5000001    1    1    2    0    0 -0.13715581154E+03 -0.24532018551E+01  0.64867032723E+02  0.22416615885E+03  0.16500000000E+03 0.  0.
<mgrwt>
<rscale>  0 0.42934071E+03</rscale>
<asrwt>0</asrwt>
<pdfrwt beam="1">  1        1 0.43184425E-01 0.42934071E+03</pdfrwt>
<pdfrwt beam="2">  1       -1 0.25257496E-01 0.42934071E+03</pdfrwt>
<totfact> 0.13111983E+03</totfact>
</mgrwt>
</event>
<event>
 4    1  0.2228009E-005  0.6841495E+03  0.7818608E-02  0.9744729E-01
          1   -1    0    0  501    0  0.00000000000E+00  0.00000000000E+00  0.69650499288E+03  0.69650499290E+03  0.50400000000E-02 0.  1.
         -1   -1    0    0    0  501 -0.00000000000E+00 -0.00000000000E+00 -0.16800330936E+03  0.16800330943E+03  0.50400000000E-02 0. -1.
    5000001    1    1    2    0    0  0.65288252050E+01 -0.28780771222E+03  0.36932364835E+03  0.49648853159E+03  0.16500000000E+03 0.  0.
   -5000001    1    1    2    0    0 -0.65288252050E+01  0.28780771222E+03  0.15917803517E+03  0.36801977074E+03  0.16500000000E+03 0.  0.
<mgrwt>
<rscale>  0 0.68414953E+03</rscale>
<asrwt>0</asrwt>
<pdfrwt beam="1">  1        1 0.10715461E+00 0.68414953E+03</pdfrwt>
<pdfrwt beam="2">  1       -1 0.25846663E-01 0.68414953E+03</pdfrwt>
<totfact> 0.36712659E+02</totfact>
</mgrwt>
</event>
<event>
 4    1  0.2228009E-005  0.4684786E+03  0.7818608E-02  0.1022350E+00
          1   -1    0    0  501    0  0.00000000000E+00  0.00000000000E+00  0.80250772638E+03  0.80250772640E+03  0.50400000000E-02 0.  1.
         -1   -1    0    0    0  501 -0.00000000000E+00 -0.00000000000E+00 -0.68370741678E+02  0.68370741864E+02  0.50400000000E-02 0. -1.
    5000001    1    1    2    0    0 -0.78168781215E+02 -0.14452793941E+03  0.41425672844E+03  0.47521818219E+03  0.16500000000E+03 0.  0.
   -5000001    1    1    2    0    0  0.78168781215E+02  0.14452793941E+03  0.31988025626E+03  0.39566028607E+03  0.16500000000E+03 0.  0.
<mgrwt>
<rscale>  0 0.46847860E+03</rscale>
<asrwt>0</asrwt>
<pdfrwt beam="1">  1        1 0.12346272E+00 0.46847860E+03</pdfrwt>
<pdfrwt beam="2">  1       -1 0.10518576E-01 0.46847860E+03</pdfrwt>
<totfact> 0.12909516E+03</totfact>
</mgrwt>
</event>
<event>
 4    1  0.2228009E-005  0.4133554E+03  0.7818608E-02  0.1039251E+00
         -1   -1    0    0    0  501 -0.00000000000E+00  0.00000000000E+00  0.12038794805E+03  0.12038794816E+03  0.50400000000E-02 0. -1.
          1   -1    0    0  501    0  0.00000000000E+00 -0.00000000000E+00 -0.35481678708E+03  0.35481678711E+03  0.50400000000E-02 0.  1.
    5000001    1    1    2    0    0 -0.64061327955E+02  0.10238510382E+03 -0.15178174916E+03  0.25465518373E+03  0.16500000000E+03 0.  0.
   -5000001    1    1    2    0    0  0.64061327955E+02 -0.10238510382E+03 -0.82647089865E+02  0.22054955154E+03  0.16500000000E+03 0.  0.
<mgrwt>
<rscale>  0 0.41335537E+03</rscale>
<asrwt>0</asrwt>
<pdfrwt beam="1">  1        1 0.54587198E-01 0.41335537E+03</pdfrwt>
<pdfrwt beam="2">  1       -1 0.18521223E-01 0.41335537E+03</pdfrwt>
<totfact> 0.16246147E+03</totfact>
</mgrwt>
</event>
<event>
 4    1  0.2228009E-005  0.4930876E+03  0.7818608E-02  0.1015599E+00
          1   -1    0    0  501    0  0.00000000000E+00  0.00000000000E+00  0.11953177406E+03  0.11953177417E+03  0.50400000000E-02 0.  1.
         -1   -1    0    0    0  501 -0.00000000000E+00 -0.00000000000E+00 -0.50851621447E+03  0.50851621450E+03  0.50400000000E-02 0. -1.
    5000001    1    1    2    0    0  0.17634305337E+03 -0.42568939138E+02 -0.22696190442E+03  0.33413424414E+03  0.16500000000E+03 0.  0.
   -5000001    1    1    2    0    0 -0.17634305337E+03  0.42568939138E+02 -0.16202253600E+03  0.29391374453E+03  0.16500000000E+03 0.  0.
<mgrwt>
<rscale>  0 0.49308760E+03</rscale>
<asrwt>0</asrwt>
<pdfrwt beam="1">  1        1 0.18389504E-01 0.49308760E+03</pdfrwt>
<pdfrwt beam="2">  1       -1 0.78233263E-01 0.49308760E+03</pdfrwt>
<totfact> 0.48618249E+02</totfact>
</mgrwt>
</event>
<event>
 4    1  0.2228009E-005  0.4358499E+03  0.7818608E-02  0.1032028E+00
         -1   -1    0    0    0  501 -0.00000000000E+00  0.00000000000E+00  0.32773787889E+02  0.32773788277E+02  0.50400000000E-02 0. -1.
          1   -1    0    0  501    0  0.00000000000E+00 -0.00000000000E+00 -0.14490627704E+04  0.14490627704E+04  0.50400000000E-02 0.  1.
    5000001    1    1    2    0    0  0.81229750092E+02 -0.11686539164E+03 -0.71915301552E+03  0.75143985241E+03  0.16500000000E+03 0.  0.
   -5000001    1    1    2    0    0 -0.81229750092E+02  0.11686539164E+03 -0.69713596700E+03  0.73039670628E+03  0.16500000000E+03 0.  0.
<mgrwt>
<rscale>  0 0.43584986E+03</rscale>
<asrwt>0</asrwt>
<pdfrwt beam="1">  1        1 0.22293268E+00 0.43584986E+03</pdfrwt>
<pdfrwt beam="2">  1       -1 0.50421224E-02 0.43584986E+03</pdfrwt>
<totfact> 0.13364570E+03</totfact>
</mgrwt>
</event>
<event>
 4    1  0.2228009E-005  0.5265828E+03  0.7818608E-02  0.1007064E+00
          1   -1    0    0  501    0  0.00000000000E+00  0.00000000000E+00  0.39115213923E+04  0.39115213923E+04  0.50400000000E-02 0.  1.
         -1   -1    0    0    0  501 -0.00000000000E+00 -0.00000000000E+00 -0.17722609157E+02  0.17722609873E+02  0.50400000000E-02 0. -1.
    5000001    1    1    2    0    0 -0.13952805719E+03  0.12661570276E+03  0.25529938110E+04  0.25652489186E+04  0.16500000000E+03 0.  0.
   -5000001    1    1    2    0    0  0.13952805719E+03 -0.12661570276E+03  0.13408049721E+04  0.13639950836E+04  0.16500000000E+03 0.  0.
<mgrwt>
<rscale>  0 0.52658282E+03</rscale>
<asrwt>0</asrwt>
<pdfrwt beam="1">  1        1 0.60177290E+00 0.52658282E+03</pdfrwt>
<pdfrwt beam="2">  1       -1 0.27265536E-02 0.52658282E+03</pdfrwt>
<totfact> 0.60532695E+01</totfact>
</mgrwt>
</event>
<event>
 4    1  0.2228009E-005  0.5164506E+03  0.7818608E-02  0.1009572E+00
          1   -1    0    0  501    0  0.00000000000E+00  0.00000000000E+00  0.44606003126E+03  0.44606003128E+03  0.50400000000E-02 0.  1.
         -1   -1    0    0    0  501 -0.00000000000E+00 -0.00000000000E+00 -0.14948731611E+03  0.14948731619E+03  0.50400000000E-02 0. -1.
    5000001    1    1    2    0    0 -0.58372165635E+02 -0.14509712050E+03  0.70786880459E+01  0.22745459310E+03  0.16500000000E+03 0.  0.
   -5000001    1    1    2    0    0  0.58372165635E+02  0.14509712050E+03  0.28949402710E+03  0.36809275438E+03  0.16500000000E+03 0.  0.
<mgrwt>
<rscale>  0 0.51645064E+03</rscale>
<asrwt>0</asrwt>
<pdfrwt beam="1">  1        1 0.68624619E-01 0.51645064E+03</pdfrwt>
<pdfrwt beam="2">  1       -1 0.22998049E-01 0.51645064E+03</pdfrwt>
<totfact> 0.84161890E+02</totfact>
</mgrwt>
</event>
<event>
 4    1  0.2228009E-005  0.7310353E+03  0.7818608E-02  0.9665582E-01
         -1   -1    0    0    0  501 -0.00000000000E+00  0.00000000000E+00  0.14175616271E+03  0.14175616280E+03  0.50400000000E-02 0. -1.
          1   -1    0    0  501    0  0.00000000000E+00 -0.00000000000E+00 -0.94248579817E+03  0.94248579818E+03  0.50400000000E-02 0.  1.
    5000001    1    1    2    0    0  0.42829845711E+02 -0.23007942354E+03 -0.63432148715E+02  0.29329093799E+03  0.16500000000E+03 0.  0.
   -5000001    1    1    2    0    0 -0.42829845711E+02  0.23007942354E+03 -0.73729748674E+03  0.79095102299E+03  0.16500000000E+03 0.  0.
<mgrwt>
<rscale>  0 0.73103535E+03</rscale>
<asrwt>0</asrwt>
<pdfrwt beam="1">  1        1 0.14499781E+00 0.73103535E+03</pdfrwt>
<pdfrwt beam="2">  1       -1 0.21808641E-01 0.73103535E+03</pdfrwt>
<totfact> 0.30048214E+02</totfact>
</mgrwt>
</event>
<event>
 4    1  0.2228009E-005  0.8747576E+03  0.7818608E-02  0.9457698E-01
          1   -1    0    0  501    0  0.00000000000E+00  0.00000000000E+00  0.64936729065E+03  0.64936729067E+03  0.50400000000E-02 0.  1.
         -1   -1    0    0    0  501 -0.00000000000E+00 -0.00000000000E+00 -0.29459475393E+03  0.29459475397E+03  0.50400000000E-02 0. -1.
    5000001    1    1    2    0    0  0.31587294691E+03  0.88815710352E+02 -0.78914366872E+02  0.37565466361E+03  0.16500000000E+03 0.  0.
   -5000001    1    1    2    0    0 -0.31587294691E+03 -0.88815710352E+02  0.43368690359E+03  0.56830738103E+03  0.16500000000E+03 0.  0.
<mgrwt>
<rscale>  0 0.87475756E+03</rscale>
<asrwt>0</asrwt>
<pdfrwt beam="1">  1        1 0.99902659E-01 0.87475756E+03</pdfrwt>
<pdfrwt beam="2">  1       -1 0.45322270E-01 0.87475756E+03</pdfrwt>
<totfact> 0.14861983E+02</totfact>
</mgrwt>
</event>
<event>
 4    1  0.2228009E-005  0.6809565E+03  0.7818608E-02  0.9750365E-01
          1   -1    0    0  501    0  0.00000000000E+00  0.00000000000E+00  0.14380441038E+04  0.14380441038E+04  0.50400000000E-02 0. -1.
         -1   -1    0    0    0  501 -0.00000000000E+00 -0.00000000000E+00 -0.80613265093E+02  0.80613265250E+02  0.50400000000E-02 0.  1.
    5000001    1    1    2    0    0 -0.24498194123E+03  0.80120561825E+02  0.34593976171E+03  0.46188177566E+03  0.16500000000E+03 0.  0.
   -5000001    1    1    2    0    0  0.24498194123E+03 -0.80120561825E+02  0.10114910770E+04  0.10567755934E+04  0.16500000000E+03 0.  0.
<mgrwt>
<rscale>  0 0.68095648E+03</rscale>
<asrwt>0</asrwt>
<pdfrwt beam="1">  1        1 0.22123754E+00 0.68095648E+03</pdfrwt>
<pdfrwt beam="2">  1       -1 0.12402041E-01 0.68095648E+03</pdfrwt>
<totfact> 0.33018163E+02</totfact>
</mgrwt>
</event>
<event>
 4    1  0.2228009E-005  0.4341268E+03  0.7818608E-02  0.1032564E+00
          1   -1    0    0  501    0  0.00000000000E+00  0.00000000000E+00  0.22583603565E+03  0.22583603571E+03  0.50400000000E-02 0.  1.
         -1   -1    0    0    0  501 -0.00000000000E+00 -0.00000000000E+00 -0.20863151070E+03  0.20863151076E+03  0.50400000000E-02 0. -1.
    5000001    1    1    2    0    0 -0.47271946711E+02 -0.94745991007E+02  0.10184230784E+03  0.22092599536E+03  0.16500000000E+03 0.  0.
   -5000001    1    1    2    0    0  0.47271946711E+02  0.94745991007E+02 -0.84637782889E+02  0.21354155111E+03  0.16500000000E+03 0.  0.
<mgrwt>
<rscale>  0 0.43412677E+03</rscale>
<asrwt>0</asrwt>
<pdfrwt beam="1">  1        1 0.34744005E-01 0.43412677E+03</pdfrwt>
<pdfrwt beam="2">  1       -1 0.32097156E-01 0.43412677E+03</pdfrwt>
<totfact> 0.11481133E+03</totfact>
</mgrwt>
</event>
<event>
 4    1  0.2228009E-005  0.4434735E+03  0.7818608E-02  0.1029686E+00
         -1   -1    0    0    0  501 -0.00000000000E+00  0.00000000000E+00  0.13783750749E+03  0.13783750758E+03  0.50400000000E-02 0. -1.
          1   -1    0    0  501    0  0.00000000000E+00 -0.00000000000E+00 -0.35670389755E+03  0.35670389758E+03  0.50400000000E-02 0.  1.
    5000001    1    1    2    0    0  0.14121765014E+03  0.38684764811E+02 -0.84416911104E+02  0.23619938742E+03  0.16500000000E+03 0.  0.
   -5000001    1    1    2    0    0 -0.14121765014E+03 -0.38684764811E+02 -0.13444947896E+03  0.25834201774E+03  0.16500000000E+03 0.  0.
<mgrwt>
<rscale>  0 0.44347345E+03</rscale>
<asrwt>0</asrwt>
<pdfrwt beam="1">  1        1 0.54877522E-01 0.44347345E+03</pdfrwt>
<pdfrwt beam="2">  1       -1 0.21205771E-01 0.44347345E+03</pdfrwt>
<totfact> 0.12917948E+03</totfact>
</mgrwt>
</event>
<event>
 4    1  0.2228009E-005  0.5002210E+03  0.7818608E-02  0.1013721E+00
         -1   -1    0    0    0  501 -0.00000000000E+00  0.00000000000E+00  0.48694301425E+03  0.48694301428E+03  0.50400000000E-02 0.  1.
          1   -1    0    0  501    0  0.00000000000E+00 -0.00000000000E+00 -0.12846524644E+03  0.12846524653E+03  0.50400000000E-02 0. -1.
    5000001    1    1    2    0    0  0.74774243086E+02 -0.16443008957E+03  0.11529057877E+03  0.27045398747E+03  0.16500000000E+03 0.  0.
   -5000001    1    1    2    0    0 -0.74774243086E+02  0.16443008957E+03  0.24318718904E+03  0.34495427334E+03  0.16500000000E+03 0.  0.
<mgrwt>
<rscale>  0 0.50022097E+03</rscale>
<asrwt>0</asrwt>
<pdfrwt beam="1">  1        1 0.19763884E-01 0.50022097E+03</pdfrwt>
<pdfrwt beam="2">  1       -1 0.74914311E-01 0.50022097E+03</pdfrwt>
<totfact> 0.48376056E+02</totfact>
</mgrwt>
</event>
<event>
 4    1  0.2228009E-005  0.8122104E+03  0.7818608E-02  0.9542509E-01
          1   -1    0    0  501    0  0.00000000000E+00  0.00000000000E+00  0.10508872476E+04  0.10508872476E+04  0.50400000000E-02 0.  1.
         -1   -1    0    0    0  501 -0.00000000000E+00 -0.00000000000E+00 -0.15693542675E+03  0.15693542684E+03  0.50400000000E-02 0. -1.
    5000001    1    1    2    0    0 -0.19483298114E+03 -0.18998945812E+03  0.71828803970E+02  0.32625183803E+03  0.16500000000E+03 0.  0.
   -5000001    1    1    2    0    0  0.19483298114E+03  0.18998945812E+03  0.82212301683E+03  0.88157083638E+03  0.16500000000E+03 0.  0.
<mgrwt>
<rscale>  0 0.81221041E+03</rscale>
<asrwt>0</asrwt>
<pdfrwt beam="1">  1        1 0.16167496E+00 0.81221041E+03</pdfrwt>
<pdfrwt beam="2">  1       -1 0.24143912E-01 0.81221041E+03</pdfrwt>
<totfact> 0.20743272E+02</totfact>
</mgrwt>
</event>
<event>
 4    1  0.2228009E-005  0.4397481E+03  0.7818608E-02  0.1030824E+00
         -1   -1    0    0    0  501 -0.00000000000E+00  0.00000000000E+00  0.27288257227E+03  0.27288257232E+03  0.50400000000E-02 0. -1.
          1   -1    0    0  501    0  0.00000000000E+00 -0.00000000000E+00 -0.17716261418E+03  0.17716261425E+03  0.50400000000E-02 0.  1.
    5000001    1    1    2    0    0  0.78063246801E+02  0.69156334915E+02 -0.55718214168E+02  0.20299258250E+03  0.16500000000E+03 0.  0.
   -5000001    1    1    2    0    0 -0.78063246801E+02 -0.69156334915E+02  0.15143817226E+03  0.24705260407E+03  0.16500000000E+03 0.  0.
<mgrwt>
<rscale>  0 0.43974806E+03</rscale>
<asrwt>0</asrwt>
<pdfrwt beam="1">  1        1 0.27255787E-01 0.43974806E+03</pdfrwt>
<pdfrwt beam="2">  1       -1 0.41981934E-01 0.43974806E+03</pdfrwt>
<totfact> 0.97318576E+02</totfact>
</mgrwt>
</event>
<event>
 4    1  0.2228009E-005  0.4086840E+03  0.7818608E-02  0.1040814E+00
         -1   -1    0    0    0  501 -0.00000000000E+00  0.00000000000E+00  0.16027220464E+03  0.16027220472E+03  0.50400000000E-02 0. -1.
          1   -1    0    0  501    0  0.00000000000E+00 -0.00000000000E+00 -0.26052954092E+03  0.26052954097E+03  0.50400000000E-02 0.  1.
    5000001    1    1    2    0    0  0.97908295410E+02  0.62587050755E+02 -0.83133282753E+02  0.21826432584E+03  0.16500000000E+03 0.  0.
   -5000001    1    1    2    0    0 -0.97908295410E+02 -0.62587050755E+02 -0.17124053529E+02  0.20253741986E+03  0.16500000000E+03 0.  0.
<mgrwt>
<rscale>  0 0.40868396E+03</rscale>
<asrwt>0</asrwt>
<pdfrwt beam="1">  1        1 0.40081468E-01 0.40868396E+03</pdfrwt>
<pdfrwt beam="2">  1       -1 0.24657262E-01 0.40868396E+03</pdfrwt>
<totfact> 0.15010115E+03</totfact>
</mgrwt>
</event>
<event>
 4    1  0.2228009E-005  0.4372142E+03  0.7818608E-02  0.1031605E+00
          1   -1    0    0  501    0  0.00000000000E+00  0.00000000000E+00  0.12641659491E+04  0.12641659492E+04  0.50400000000E-02 0.  1.
         -1   -1    0    0    0  501 -0.00000000000E+00 -0.00000000000E+00 -0.37802843373E+02  0.37802843709E+02  0.50400000000E-02 0. -1.
    5000001    1    1    2    0    0 -0.60511011264E+02  0.12984804396E+03  0.59388948145E+03  0.63281262091E+03  0.16500000000E+03 0.  0.
   -5000001    1    1    2    0    0  0.60511011264E+02 -0.12984804396E+03  0.63247362432E+03  0.66915617196E+03  0.16500000000E+03 0.  0.
<mgrwt>
<rscale>  0 0.43721422E+03</rscale>
<asrwt>0</asrwt>
<pdfrwt beam="1">  1        1 0.19448710E+00 0.43721422E+03</pdfrwt>
<pdfrwt beam="2">  1       -1 0.58158213E-02 0.43721422E+03</pdfrwt>
<totfact> 0.14414401E+03</totfact>
</mgrwt>
</event>
<event>
 4    1  0.2228009E-005  0.6952886E+03  0.7818608E-02  0.9725323E-01
          1   -1    0    0  501    0  0.00000000000E+00  0.00000000000E+00  0.21456889001E+03  0.21456889007E+03  0.50400000000E-02 0.  1.
         -1   -1    0    0    0  501 -0.00000000000E+00 -0.00000000000E+00 -0.56325298967E+03  0.56325298970E+03  0.50400000000E-02 0. -1.
    5000001    1    1    2    0    0  0.30496403311E+03 -0.23024385282E+02 -0.16324571654E+03  0.38393664553E+03  0.16500000000E+03 0.  0.
   -5000001    1    1    2    0    0 -0.30496403311E+03  0.23024385282E+02 -0.18543838313E+03  0.39388523423E+03  0.16500000000E+03 0.  0.
<mgrwt>
<rscale>  0 0.69528863E+03</rscale>
<asrwt>0</asrwt>
<pdfrwt beam="1">  1        1 0.33010599E-01 0.69528863E+03</pdfrwt>
<pdfrwt beam="2">  1       -1 0.86654306E-01 0.69528863E+03</pdfrwt>
<totfact> 0.18090105E+02</totfact>
</mgrwt>
</event>
<event>
 4    1  0.2228009E-005  0.4962850E+03  0.7818608E-02  0.1014753E+00
         -1   -1    0    0    0  501 -0.00000000000E+00  0.00000000000E+00  0.23408817900E+03  0.23408817905E+03  0.50400000000E-02 0. -1.
          1   -1    0    0  501    0  0.00000000000E+00 -0.00000000000E+00 -0.26304061646E+03  0.26304061651E+03  0.50400000000E-02 0.  1.
    5000001    1    1    2    0    0 -0.55514429292E+02 -0.16263936956E+03  0.55041218591E+02  0.24451575028E+03  0.16500000000E+03 0.  0.
   -5000001    1    1    2    0    0  0.55514429292E+02  0.16263936956E+03 -0.83993656055E+02  0.25261304529E+03  0.16500000000E+03 0.  0.
<mgrwt>
<rscale>  0 0.49628499E+03</rscale>
<asrwt>0</asrwt>
<pdfrwt beam="1">  1        1 0.40467787E-01 0.49628499E+03</pdfrwt>
<pdfrwt beam="2">  1       -1 0.36013566E-01 0.49628499E+03</pdfrwt>
<totfact> 0.77174014E+02</totfact>
</mgrwt>
</event>
<event>
 4    1  0.2228009E-005  0.3944966E+03  0.7818608E-02  0.1045702E+00
          1   -1    0    0  501    0  0.00000000000E+00  0.00000000000E+00  0.20021358480E+04  0.20021358480E+04  0.50400000000E-02 0. -1.
         -1   -1    0    0    0  501 -0.00000000000E+00 -0.00000000000E+00 -0.19432689835E+02  0.19432690489E+02  0.50400000000E-02 0.  1.
    5000001    1    1    2    0    0  0.18231483637E+02 -0.68840177748E+02  0.14079938529E+04  0.14194164458E+04  0.16500000000E+03 0.  0.
   -5000001    1    1    2    0    0 -0.18231483637E+02  0.68840177748E+02  0.57470930528E+03  0.60215209262E+03  0.16500000000E+03 0.  0.
<mgrwt>
<rscale>  0 0.39449657E+03</rscale>
<asrwt>0</asrwt>
<pdfrwt beam="1">  1        1 0.30802095E+00 0.39449657E+03</pdfrwt>
<pdfrwt beam="2">  1       -1 0.29896441E-02 0.39449657E+03</pdfrwt>
<totfact> 0.12641565E+03</totfact>
</mgrwt>
</event>
<event>
 4    1  0.2228009E-005  0.4202370E+03  0.7818608E-02  0.1036989E+00
         -1   -1    0    0    0  501 -0.00000000000E+00  0.00000000000E+00  0.17061046448E+03  0.17061046455E+03  0.50400000000E-02 0. -1.
          1   -1    0    0  501    0  0.00000000000E+00 -0.00000000000E+00 -0.25877530619E+03  0.25877530623E+03  0.50400000000E-02 0.  1.
    5000001    1    1    2    0    0  0.40325234209E+02 -0.12367225948E+03 -0.46080219359E+02  0.21510308899E+03  0.16500000000E+03 0.  0.
   -5000001    1    1    2    0    0 -0.40325234209E+02  0.12367225948E+03 -0.42084622350E+02  0.21428268179E+03  0.16500000000E+03 0.  0.
<mgrwt>
<rscale>  0 0.42023696E+03</rscale>
<asrwt>0</asrwt>
<pdfrwt beam="1">  1        1 0.39811585E-01 0.42023696E+03</pdfrwt>
<pdfrwt beam="2">  1       -1 0.26247764E-01 0.42023696E+03</pdfrwt>
<totfact> 0.13627237E+03</totfact>
</mgrwt>
</event>
<event>
 4    1  0.2228009E-005  0.6270102E+03  0.7818608E-02  0.9850901E-01
         -1   -1    0    0    0  501 -0.00000000000E+00  0.00000000000E+00  0.11163006944E+03  0.11163006955E+03  0.50400000000E-02 0. -1.
          1   -1    0    0  501    0  0.00000000000E+00 -0.00000000000E+00 -0.88045668655E+03  0.88045668656E+03  0.50400000000E-02 0.  1.
    5000001    1    1    2    0    0 -0.24783951843E+03  0.96740732699E+02 -0.35806778626E+03  0.47562667694E+03  0.16500000000E+03 0.  0.
   -5000001    1    1    2    0    0  0.24783951843E+03 -0.96740732699E+02 -0.41075883085E+03  0.51646007917E+03  0.16500000000E+03 0.  0.
<mgrwt>
<rscale>  0 0.62701018E+03</rscale>
<asrwt>0</asrwt>
<pdfrwt beam="1">  1        1 0.13545487E+00 0.62701018E+03</pdfrwt>
<pdfrwt beam="2">  1       -1 0.17173857E-01 0.62701018E+03</pdfrwt>
<totfact> 0.50368118E+02</totfact>
</mgrwt>
</event>
<event>
 4    1  0.2228009E-005  0.5059631E+03  0.7818608E-02  0.1012234E+00
         -1   -1    0    0    0  501 -0.00000000000E+00  0.00000000000E+00  0.63072441871E+03  0.63072441873E+03  0.50400000000E-02 0. -1.
          1   -1    0    0  501    0  0.00000000000E+00 -0.00000000000E+00 -0.10147011141E+03  0.10147011154E+03  0.50400000000E-02 0.  1.
    5000001    1    1    2    0    0  0.96954915940E+02 -0.14354123267E+03  0.38369999059E+03  0.45216703106E+03  0.16500000000E+03 0.  0.
   -5000001    1    1    2    0    0 -0.96954915940E+02  0.14354123267E+03  0.14555431671E+03  0.28002749921E+03  0.16500000000E+03 0.  0.
<mgrwt>
<rscale>  0 0.50596315E+03</rscale>
<asrwt>0</asrwt>
<pdfrwt beam="1">  1        1 0.15610787E-01 0.50596315E+03</pdfrwt>
<pdfrwt beam="2">  1       -1 0.97034525E-01 0.50596315E+03</pdfrwt>
<totfact> 0.37925650E+02</totfact>
</mgrwt>
</event>
<event>
 4    1  0.2228009E-005  0.6037502E+03  0.7818608E-02  0.9897656E-01
         -1   -1    0    0    0  501 -0.00000000000E+00  0.00000000000E+00  0.33260827376E+02  0.33260827758E+02  0.50400000000E-02 0. -1.
          1   -1    0    0  501    0  0.00000000000E+00 -0.00000000000E+00 -0.27398171865E+04  0.27398171865E+04  0.50400000000E-02 0.  1.
    5000001    1    1    2    0    0  0.16694048752E+03 -0.18607287149E+03 -0.11807255040E+04  0.12181255911E+04  0.16500000000E+03 0.  0.
   -5000001    1    1    2    0    0 -0.16694048752E+03  0.18607287149E+03 -0.15258308551E+04  0.15549524231E+04  0.16500000000E+03 0.  0.
<mgrwt>
<rscale>  0 0.60375024E+03</rscale>
<asrwt>0</asrwt>
<pdfrwt beam="1">  1        1 0.42151016E+00 0.60375024E+03</pdfrwt>
<pdfrwt beam="2">  1       -1 0.51170525E-02 0.60375024E+03</pdfrwt>
<totfact> 0.17576077E+02</totfact>
</mgrwt>
</event>
<event>
 4    1  0.2228009E-005  0.6000738E+03  0.7818608E-02  0.9905253E-01
          1   -1    0    0  501    0  0.00000000000E+00  0.00000000000E+00  0.12218692950E+04  0.12218692950E+04  0.50400000000E-02 0.  1.
         -1   -1    0    0    0  501 -0.00000000000E+00 -0.00000000000E+00 -0.73675745278E+02  0.73675745450E+02  0.50400000000E-02 0. -1.
    5000001    1    1    2    0    0 -0.68697439281E+02 -0.19633074859E+03  0.27236463860E+03  0.38035851162E+03  0.16500000000E+03 0.  0.
   -5000001    1    1    2    0    0  0.68697439281E+02  0.19633074859E+03  0.87582891108E+03  0.91518652880E+03  0.16500000000E+03 0.  0.
<mgrwt>
<rscale>  0 0.60007377E+03</rscale>
<asrwt>0</asrwt>
<pdfrwt beam="1">  1        1 0.18797990E+00 0.60007377E+03</pdfrwt>
<pdfrwt beam="2">  1       -1 0.11334730E-01 0.60007377E+03</pdfrwt>
<totfact> 0.54279142E+02</totfact>
</mgrwt>
</event>
<event>
 4    1  0.2228009E-005  0.6394731E+03  0.7818608E-02  0.9826735E-01
         -1   -1    0    0    0  501 -0.00000000000E+00  0.00000000000E+00  0.22639308376E+03  0.22639308381E+03  0.50400000000E-02 0. -1.
          1   -1    0    0  501    0  0.00000000000E+00 -0.00000000000E+00 -0.45156625037E+03  0.45156625040E+03  0.50400000000E-02 0.  1.
    5000001    1    1    2    0    0  0.32793297552E+02 -0.15519641727E+03  0.12411042941E+03  0.26036460394E+03  0.16500000000E+03 0.  0.
   -5000001    1    1    2    0    0 -0.32793297552E+02  0.15519641727E+03 -0.34928359602E+03  0.41759473027E+03  0.16500000000E+03 0.  0.
<mgrwt>
<rscale>  0 0.63947315E+03</rscale>
<asrwt>0</asrwt>
<pdfrwt beam="1">  1        1 0.69471731E-01 0.63947315E+03</pdfrwt>
<pdfrwt beam="2">  1       -1 0.34829705E-01 0.63947315E+03</pdfrwt>
<totfact> 0.40368743E+02</totfact>
</mgrwt>
</event>
<event>
 4    1  0.2228009E-005  0.6682053E+03  0.7818608E-02  0.9773205E-01
         -1   -1    0    0    0  501 -0.00000000000E+00  0.00000000000E+00  0.38145355093E+02  0.38145355426E+02  0.50400000000E-02 0. -1.
          1   -1    0    0  501    0  0.00000000000E+00 -0.00000000000E+00 -0.29262958770E+04  0.29262958770E+04  0.50400000000E-02 0.  1.
    5000001    1    1    2    0    0 -0.22619572754E+03  0.17302470149E+03 -0.11893171470E+04  0.12340187724E+04  0.16500000000E+03 0.  0.
   -5000001    1    1    2    0    0  0.22619572754E+03 -0.17302470149E+03 -0.16988333749E+04  0.17304224600E+04  0.16500000000E+03 0.  0.
<mgrwt>
<rscale>  0 0.66820535E+03</rscale>
<asrwt>0</asrwt>
<pdfrwt beam="1">  1        1 0.45019919E+00 0.66820535E+03</pdfrwt>
<pdfrwt beam="2">  1       -1 0.58685185E-02 0.66820535E+03</pdfrwt>
<totfact> 0.10458617E+02</totfact>
</mgrwt>
</event>
<event>
 4    1  0.2228009E-005  0.6145757E+03  0.7818608E-02  0.9875619E-01
          1   -1    0    0  501    0  0.00000000000E+00  0.00000000000E+00  0.29253082983E+03  0.29253082987E+03  0.50400000000E-02 0. -1.
         -1   -1    0    0    0  501 -0.00000000000E+00 -0.00000000000E+00 -0.32278928773E+03  0.32278928777E+03  0.50400000000E-02 0.  1.
    5000001    1    1    2    0    0  0.63774301975E+02 -0.25124894227E+03 -0.12364427594E+02  0.30752409930E+03  0.16500000000E+03 0.  0.
   -5000001    1    1    2    0    0 -0.63774301975E+02  0.25124894227E+03 -0.17894030304E+02  0.30779601834E+03  0.16500000000E+03 0.  0.
<mgrwt>
<rscale>  0 0.61457569E+03</rscale>
<asrwt>0</asrwt>
<pdfrwt beam="1">  1        1 0.45004743E-01 0.61457569E+03</pdfrwt>
<pdfrwt beam="2">  1       -1 0.49659890E-01 0.61457569E+03</pdfrwt>
<totfact> 0.37335867E+02</totfact>
</mgrwt>
</event>
<event>
 4    1  0.2228009E-005  0.4838474E+03  0.7818608E-02  0.1018083E+00
          1   -1    0    0  501    0  0.00000000000E+00  0.00000000000E+00  0.22068646894E+03  0.22068646900E+03  0.50400000000E-02 0.  1.
         -1   -1    0    0    0  501 -0.00000000000E+00 -0.00000000000E+00 -0.26520460572E+03  0.26520460577E+03  0.50400000000E-02 0. -1.
    5000001    1    1    2    0    0 -0.25121677840E+02 -0.87818428530E+02 -0.17442100016E+03  0.25688686301E+03  0.16500000000E+03 0.  0.
   -5000001    1    1    2    0    0  0.25121677840E+02  0.87818428530E+02  0.12990286339E+03  0.22900421176E+03  0.16500000000E+03 0.  0.
<mgrwt>
<rscale>  0 0.48384736E+03</rscale>
<asrwt>0</asrwt>
<pdfrwt beam="1">  1        1 0.33951764E-01 0.48384736E+03</pdfrwt>
<pdfrwt beam="2">  1       -1 0.40800709E-01 0.48384736E+03</pdfrwt>
<totfact> 0.77288726E+02</totfact>
</mgrwt>
</event>
<event>
 4    1  0.2228009E-005  0.5531382E+03  0.7818608E-02  0.1000770E+00
          1   -1    0    0  501    0  0.00000000000E+00  0.00000000000E+00  0.12691310042E+03  0.12691310052E+03  0.50400000000E-02 0.  1.
         -1   -1    0    0    0  501 -0.00000000000E+00 -0.00000000000E+00 -0.60269948885E+03  0.60269948887E+03  0.50400000000E-02 0. -1.
    5000001    1    1    2    0    0 -0.44291453431E+01 -0.22161590103E+03 -0.25306136951E+03  0.37469758694E+03  0.16500000000E+03 0.  0.
   -5000001    1    1    2    0    0  0.44291453431E+01  0.22161590103E+03 -0.22272501892E+03  0.35491500245E+03  0.16500000000E+03 0.  0.
<mgrwt>
<rscale>  0 0.55313818E+03</rscale>
<asrwt>0</asrwt>
<pdfrwt beam="1">  1        1 0.19525093E-01 0.55313818E+03</pdfrwt>
<pdfrwt beam="2">  1       -1 0.92722997E-01 0.55313818E+03</pdfrwt>
<totfact> 0.31131168E+02</totfact>
</mgrwt>
</event>
<event>
 4    1  0.2228009E-005  0.3834955E+03  0.7818608E-02  0.1049649E+00
         -1   -1    0    0    0  501 -0.00000000000E+00  0.00000000000E+00  0.54380829269E+02  0.54380829503E+02  0.50400000000E-02 0.  1.
          1   -1    0    0  501    0  0.00000000000E+00 -0.00000000000E+00 -0.67610595287E+03  0.67610595289E+03  0.50400000000E-02 0. -1.
    5000001    1    1    2    0    0  0.66989343435E+02  0.26983228343E+02 -0.18557088523E+03  0.25860630347E+03  0.16500000000E+03 0.  0.
   -5000001    1    1    2    0    0 -0.66989343435E+02 -0.26983228343E+02 -0.43615423837E+03  0.47188047893E+03  0.16500000000E+03 0.  0.
<mgrwt>
<rscale>  0 0.38349551E+03</rscale>
<asrwt>0</asrwt>
<pdfrwt beam="1">  1        1 0.10401629E+00 0.38349551E+03</pdfrwt>
<pdfrwt beam="2">  1       -1 0.83662819E-02 0.38349551E+03</pdfrwt>
<totfact> 0.23915970E+03</totfact>
</mgrwt>
</event>
<event>
 4    1  0.2228009E-005  0.7367038E+03  0.7818608E-02  0.9656444E-01
         -1   -1    0    0    0  501 -0.00000000000E+00  0.00000000000E+00  0.17165524687E+04  0.17165524687E+04  0.50400000000E-02 0. -1.
          1   -1    0    0  501    0  0.00000000000E+00 -0.00000000000E+00 -0.79043977347E+02  0.79043977508E+02  0.50400000000E-02 0.  1.
    5000001    1    1    2    0    0 -0.11570472570E+03 -0.30188723365E+03  0.97164063255E+03  0.10372241822E+04  0.16500000000E+03 0.  0.
   -5000001    1    1    2    0    0  0.11570472570E+03  0.30188723365E+03  0.66586785882E+03  0.75837226400E+03  0.16500000000E+03 0.  0.
<mgrwt>
<rscale>  0 0.73670383E+03</rscale>
<asrwt>0</asrwt>
<pdfrwt beam="1">  1        1 0.12160612E-01 0.73670383E+03</pdfrwt>
<pdfrwt beam="2">  1       -1 0.26408500E+00 0.73670383E+03</pdfrwt>
<totfact> 0.29973284E+01</totfact>
</mgrwt>
</event>
<event>
 4    1  0.2228009E-005  0.5686956E+03  0.7818608E-02  0.9972569E-01
          1   -1    0    0  501    0  0.00000000000E+00  0.00000000000E+00  0.57060591426E+02  0.57060591649E+02  0.50400000000E-02 0. -1.
         -1   -1    0    0    0  501 -0.00000000000E+00 -0.00000000000E+00 -0.14169794247E+04  0.14169794247E+04  0.50400000000E-02 0.  1.
    5000001    1    1    2    0    0  0.77559008684E+02 -0.18693990948E+03 -0.97167662543E+03  0.10061522718E+04  0.16500000000E+03 0.  0.
   -5000001    1    1    2    0    0 -0.77559008684E+02  0.18693990948E+03 -0.38824220784E+03  0.46788774459E+03  0.16500000000E+03 0.  0.
<mgrwt>
<rscale>  0 0.56869565E+03</rscale>
<asrwt>0</asrwt>
<pdfrwt beam="1">  1        1 0.87785536E-02 0.56869565E+03</pdfrwt>
<pdfrwt beam="2">  1       -1 0.21799681E+00 0.56869565E+03</pdfrwt>
<totfact> 0.94683904E+01</totfact>
</mgrwt>
</event>
<event>
 4    1  0.2228009E-005  0.5929506E+03  0.7818608E-02  0.9920140E-01
          1   -1    0    0  501    0  0.00000000000E+00  0.00000000000E+00  0.17722562137E+03  0.17722562144E+03  0.50400000000E-02 0.  1.
         -1   -1    0    0    0  501 -0.00000000000E+00 -0.00000000000E+00 -0.49596446323E+03  0.49596446326E+03  0.50400000000E-02 0. -1.
    5000001    1    1    2    0    0  0.24882030941E+02  0.21478728921E+03 -0.25421037994E+02  0.27317379860E+03  0.16500000000E+03 0.  0.
   -5000001    1    1    2    0    0 -0.24882030941E+02 -0.21478728921E+03 -0.29331780387E+03  0.40001628609E+03  0.16500000000E+03 0.  0.
<mgrwt>
<rscale>  0 0.59295062E+03</rscale>
<asrwt>0</asrwt>
<pdfrwt beam="1">  1        1 0.27265480E-01 0.59295062E+03</pdfrwt>
<pdfrwt beam="2">  1       -1 0.76302225E-01 0.59295062E+03</pdfrwt>
<totfact> 0.30506372E+02</totfact>
</mgrwt>
</event>
<event>
 4    1  0.2228009E-005  0.6670455E+03  0.7818608E-02  0.9775310E-01
          1   -1    0    0  501    0  0.00000000000E+00  0.00000000000E+00  0.30825282834E+04  0.30825282834E+04  0.50400000000E-02 0.  1.
         -1   -1    0    0    0  501 -0.00000000000E+00 -0.00000000000E+00 -0.36086421389E+02  0.36086421740E+02  0.50400000000E-02 0. -1.
    5000001    1    1    2    0    0 -0.16474795173E+03  0.98944355866E+02  0.50877942686E+03  0.56834265928E+03  0.16500000000E+03 0.  0.
   -5000001    1    1    2    0    0  0.16474795173E+03 -0.98944355866E+02  0.25376624352E+04  0.25502720459E+04  0.16500000000E+03 0.  0.
<mgrwt>
<rscale>  0 0.66704547E+03</rscale>
<asrwt>0</asrwt>
<pdfrwt beam="1">  1        1 0.47423525E+00 0.66704547E+03</pdfrwt>
<pdfrwt beam="2">  1       -1 0.55517556E-02 0.66704547E+03</pdfrwt>
<totfact> 0.88068625E+01</totfact>
</mgrwt>
</event>
<event>
 4    1  0.2228009E-005  0.7936404E+03  0.7818608E-02  0.9569268E-01
         -1   -1    0    0    0  501 -0.00000000000E+00  0.00000000000E+00  0.32531471378E+03  0.32531471382E+03  0.50400000000E-02 0. -1.
          1   -1    0    0  501    0  0.00000000000E+00 -0.00000000000E+00 -0.48404291734E+03  0.48404291737E+03  0.50400000000E-02 0.  1.
    5000001    1    1    2    0    0  0.34976583458E+03 -0.44576369925E+02 -0.15781673304E+03  0.42006465338E+03  0.16500000000E+03 0.  0.
   -5000001    1    1    2    0    0 -0.34976583458E+03  0.44576369925E+02 -0.91147052028E+00  0.38929297781E+03  0.16500000000E+03 0.  0.
<mgrwt>
<rscale>  0 0.79364043E+03</rscale>
<asrwt>0</asrwt>
<pdfrwt beam="1">  1        1 0.74468141E-01 0.79364043E+03</pdfrwt>
<pdfrwt beam="2">  1       -1 0.50048418E-01 0.79364043E+03</pdfrwt>
<totfact> 0.18787794E+02</totfact>
</mgrwt>
</event>
<event>
 4    1  0.2228009E-005  0.4364717E+03  0.7818608E-02  0.1031835E+00
         -1   -1    0    0    0  501 -0.00000000000E+00  0.00000000000E+00  0.53816290636E+02  0.53816290872E+02  0.50400000000E-02 0.  1.
          1   -1    0    0  501    0  0.00000000000E+00 -0.00000000000E+00 -0.88499023767E+03  0.88499023769E+03  0.50400000000E-02 0. -1.
    5000001    1    1    2    0    0 -0.11240647180E+03  0.87117382319E+02 -0.38695183229E+03  0.44405109359E+03  0.16500000000E+03 0.  0.
   -5000001    1    1    2    0    0  0.11240647180E+03 -0.87117382319E+02 -0.44422211474E+03  0.49475543497E+03  0.16500000000E+03 0.  0.
<mgrwt>
<rscale>  0 0.43647173E+03</rscale>
<asrwt>0</asrwt>
<pdfrwt beam="1">  1        1 0.13615233E+00 0.43647173E+03</pdfrwt>
<pdfrwt beam="2">  1       -1 0.82794300E-02 0.43647173E+03</pdfrwt>
<totfact> 0.16037166E+03</totfact>
</mgrwt>
</event>
<event>
 4    1  0.2228009E-005  0.4098136E+03  0.7818608E-02  0.1040434E+00
          1   -1    0    0  501    0  0.00000000000E+00  0.00000000000E+00  0.22749164422E+04  0.22749164422E+04  0.50400000000E-02 0.  1.
         -1   -1    0    0    0  501 -0.00000000000E+00 -0.00000000000E+00 -0.18456414885E+02  0.18456415573E+02  0.50400000000E-02 0. -1.
    5000001    1    1    2    0    0  0.38694002124E+02  0.11480184144E+03  0.11798583904E+04  0.11974838245E+04  0.16500000000E+03 0.  0.
   -5000001    1    1    2    0    0 -0.38694002124E+02 -0.11480184144E+03  0.10766016369E+04  0.10958890332E+04  0.16500000000E+03 0.  0.
<mgrwt>
<rscale>  0 0.40981363E+03</rscale>
<asrwt>0</asrwt>
<pdfrwt beam="1">  1        1 0.34998707E+00 0.40981363E+03</pdfrwt>
<pdfrwt beam="2">  1       -1 0.28394491E-02 0.40981363E+03</pdfrwt>
<totfact> 0.90120760E+02</totfact>
</mgrwt>
</event>
<event>
 4    1  0.2228009E-005  0.5722277E+03  0.7818608E-02  0.9964761E-01
         -1   -1    0    0    0  501 -0.00000000000E+00  0.00000000000E+00  0.96476773824E+03  0.96476773825E+03  0.50400000000E-02 0. -1.
          1   -1    0    0  501    0  0.00000000000E+00 -0.00000000000E+00 -0.84850606506E+02  0.84850606656E+02  0.50400000000E-02 0.  1.
    5000001    1    1    2    0    0  0.37292210734E+02 -0.14196377859E+03  0.77363237808E+03  0.80453494630E+03  0.16500000000E+03 0.  0.
   -5000001    1    1    2    0    0 -0.37292210734E+02  0.14196377859E+03  0.10628475365E+03  0.24508339860E+03  0.16500000000E+03 0.  0.
<mgrwt>
<rscale>  0 0.57222767E+03</rscale>
<asrwt>0</asrwt>
<pdfrwt beam="1">  1        1 0.13053939E-01 0.57222767E+03</pdfrwt>
<pdfrwt beam="2">  1       -1 0.14842581E+00 0.57222767E+03</pdfrwt>
<totfact> 0.17121803E+02</totfact>
</mgrwt>
</event>
<event>
 4    1  0.2228009E-005  0.6253992E+03  0.7818608E-02  0.9854068E-01
          1   -1    0    0  501    0  0.00000000000E+00  0.00000000000E+00  0.57829236606E+03  0.57829236608E+03  0.50400000000E-02 0.  1.
         -1   -1    0    0    0  501 -0.00000000000E+00 -0.00000000000E+00 -0.16908581919E+03  0.16908581927E+03  0.50400000000E-02 0. -1.
    5000001    1    1    2    0    0  0.18267030893E+02 -0.18776290752E+03  0.42807112154E+03  0.49604281968E+03  0.16500000000E+03 0.  0.
   -5000001    1    1    2    0    0 -0.18267030893E+02  0.18776290752E+03 -0.18864574682E+02  0.25133536567E+03  0.16500000000E+03 0.  0.
<mgrwt>
<rscale>  0 0.62539920E+03</rscale>
<asrwt>0</asrwt>
<pdfrwt beam="1">  1        1 0.88968057E-01 0.62539920E+03</pdfrwt>
<pdfrwt beam="2">  1       -1 0.26013203E-01 0.62539920E+03</pdfrwt>
<totfact> 0.47737966E+02</totfact>
</mgrwt>
</event>
<event>
 4    1  0.2228009E-005  0.5316021E+03  0.7818608E-02  0.1005844E+00
         -1   -1    0    0    0  501 -0.00000000000E+00  0.00000000000E+00  0.80110741302E+03  0.80110741303E+03  0.50400000000E-02 0.  1.
          1   -1    0    0  501    0  0.00000000000E+00 -0.00000000000E+00 -0.88190654855E+02  0.88190654999E+02  0.50400000000E-02 0. -1.
    5000001    1    1    2    0    0  0.35051060778E+01 -0.18129901534E+03  0.18468553355E+03  0.30694521504E+03  0.16500000000E+03 0.  0.
   -5000001    1    1    2    0    0 -0.35051060778E+01  0.18129901534E+03  0.52823122461E+03  0.58235285299E+03  0.16500000000E+03 0.  0.
<mgrwt>
<rscale>  0 0.53160206E+03</rscale>
<asrwt>0</asrwt>
<pdfrwt beam="1">  1        1 0.13567794E-01 0.53160206E+03</pdfrwt>
<pdfrwt beam="2">  1       -1 0.12324729E+00 0.53160206E+03</pdfrwt>
<totfact> 0.26147482E+02</totfact>
</mgrwt>
</event>
<event>
 4    1  0.2228009E-005  0.5576998E+03  0.7818608E-02  0.9997273E-01
         -1   -1    0    0    0  501 -0.00000000000E+00  0.00000000000E+00  0.49343274242E+03  0.49343274245E+03  0.50400000000E-02 0.  1.
          1   -1    0    0  501    0  0.00000000000E+00 -0.00000000000E+00 -0.15758434123E+03  0.15758434132E+03  0.50400000000E-02 0. -1.
    5000001    1    1    2    0    0 -0.15619363150E+03  0.14693182190E+03  0.89210957561E+02  0.28490174755E+03  0.16500000000E+03 0.  0.
   -5000001    1    1    2    0    0  0.15619363150E+03 -0.14693182190E+03  0.24663744363E+03  0.36611533621E+03  0.16500000000E+03 0.  0.
<mgrwt>
<rscale>  0 0.55769982E+03</rscale>
<asrwt>0</asrwt>
<pdfrwt beam="1">  1        1 0.24243745E-01 0.55769982E+03</pdfrwt>
<pdfrwt beam="2">  1       -1 0.75912728E-01 0.55769982E+03</pdfrwt>
<totfact> 0.35965657E+02</totfact>
</mgrwt>
</event>
<event>
 4    1  0.2228009E-005  0.3836762E+03  0.7818608E-02  0.1049583E+00
         -1   -1    0    0    0  501 -0.00000000000E+00  0.00000000000E+00  0.33197727982E+02  0.33197728365E+02  0.50400000000E-02 0. -1.
          1   -1    0    0  501    0  0.00000000000E+00 -0.00000000000E+00 -0.11085657305E+04  0.11085657305E+04  0.50400000000E-02 0.  1.
    5000001    1    1    2    0    0  0.64255877027E+02  0.72138863930E+02 -0.58417117906E+03  0.61466560003E+03  0.16500000000E+03 0.  0.
   -5000001    1    1    2    0    0 -0.64255877027E+02 -0.72138863930E+02 -0.49119682348E+03  0.52709785887E+03  0.16500000000E+03 0.  0.
<mgrwt>
<rscale>  0 0.38367624E+03</rscale>
<asrwt>0</asrwt>
<pdfrwt beam="1">  1        1 0.17054855E+00 0.38367624E+03</pdfrwt>
<pdfrwt beam="2">  1       -1 0.51073436E-02 0.38367624E+03</pdfrwt>
<totfact> 0.22700136E+03</totfact>
</mgrwt>
</event>
<event>
 4    1  0.2228009E-005  0.6258332E+03  0.7818608E-02  0.9853214E-01
          1   -1    0    0  501    0  0.00000000000E+00  0.00000000000E+00  0.45034844081E+03  0.45034844084E+03  0.50400000000E-02 0.  1.
         -1   -1    0    0    0  501 -0.00000000000E+00 -0.00000000000E+00 -0.21742455999E+03  0.21742456005E+03  0.50400000000E-02 0. -1.
    5000001    1    1    2    0    0 -0.36270681640E+02  0.25787584725E+03  0.59236773532E+02  0.31392596306E+03  0.16500000000E+03 0.  0.
   -5000001    1    1    2    0    0  0.36270681640E+02 -0.25787584725E+03  0.17368710729E+03  0.35384703783E+03  0.16500000000E+03 0.  0.
<mgrwt>
<rscale>  0 0.62583324E+03</rscale>
<asrwt>0</asrwt>
<pdfrwt beam="1">  1        1 0.69284374E-01 0.62583324E+03</pdfrwt>
<pdfrwt beam="2">  1       -1 0.33449933E-01 0.62583324E+03</pdfrwt>
<totfact> 0.43538406E+02</totfact>
</mgrwt>
</event>
<event>
 4    1  0.2228009E-005  0.4597126E+03  0.7818608E-02  0.1024865E+00
          1   -1    0    0  501    0  0.00000000000E+00  0.00000000000E+00  0.47512743809E+03  0.47512743812E+03  0.50400000000E-02 0.  1.
         -1   -1    0    0    0  501 -0.00000000000E+00 -0.00000000000E+00 -0.11119946101E+03  0.11119946113E+03  0.50400000000E-02 0. -1.
    5000001    1    1    2    0    0 -0.14078840627E+03 -0.75495462351E+02  0.17000118971E+03  0.28573824504E+03  0.16500000000E+03 0.  0.
   -5000001    1    1    2    0    0  0.14078840627E+03  0.75495462351E+02  0.19392678737E+03  0.30058865420E+03  0.16500000000E+03 0.  0.
<mgrwt>
<rscale>  0 0.45971258E+03</rscale>
<asrwt>0</asrwt>
<pdfrwt beam="1">  1        1 0.73096529E-01 0.45971258E+03</pdfrwt>
<pdfrwt beam="2">  1       -1 0.17107609E-01 0.45971258E+03</pdfrwt>
<totfact> 0.12612767E+03</totfact>
</mgrwt>
</event>
<event>
 4    1  0.2228009E-005  0.4093572E+03  0.7818608E-02  0.1040587E+00
          1   -1    0    0  501    0  0.00000000000E+00  0.00000000000E+00  0.93622746525E+02  0.93622746661E+02  0.50400000000E-02 0.  1.
         -1   -1    0    0    0  501 -0.00000000000E+00 -0.00000000000E+00 -0.44746954680E+03  0.44746954682E+03  0.50400000000E-02 0. -1.
    5000001    1    1    2    0    0 -0.89415487741E+02  0.70678374459E+02 -0.12278136101E+03  0.23514001079E+03  0.16500000000E+03 0.  0.
   -5000001    1    1    2    0    0  0.89415487741E+02 -0.70678374459E+02 -0.23106543926E+03  0.30595228269E+03  0.16500000000E+03 0.  0.
<mgrwt>
<rscale>  0 0.40935719E+03</rscale>
<asrwt>0</asrwt>
<pdfrwt beam="1">  1        1 0.14403500E-01 0.40935719E+03</pdfrwt>
<pdfrwt beam="2">  1       -1 0.68841468E-01 0.40935719E+03</pdfrwt>
<totfact> 0.87470330E+02</totfact>
</mgrwt>
</event>
<event>
 4    1  0.2228009E-005  0.5449350E+03  0.7818608E-02  0.1002673E+00
         -1   -1    0    0    0  501 -0.00000000000E+00  0.00000000000E+00  0.56007983101E+02  0.56007983328E+02  0.50400000000E-02 0. -1.
          1   -1    0    0  501    0  0.00000000000E+00 -0.00000000000E+00 -0.13254994539E+04  0.13254994539E+04  0.50400000000E-02 0.  1.
    5000001    1    1    2    0    0 -0.10755878033E+03  0.80779476735E+02 -0.20362129170E+03  0.29458588819E+03  0.16500000000E+03 0.  0.
   -5000001    1    1    2    0    0  0.10755878033E+03 -0.80779476735E+02 -0.10658701791E+04  0.10869215491E+04  0.16500000000E+03 0.  0.
<mgrwt>
<rscale>  0 0.54493505E+03</rscale>
<asrwt>0</asrwt>
<pdfrwt beam="1">  1        1 0.20392297E+00 0.54493505E+03</pdfrwt>
<pdfrwt beam="2">  1       -1 0.86166138E-02 0.54493505E+03</pdfrwt>
<totfact> 0.70850452E+02</totfact>
</mgrwt>
</event>
<event>
 4    1  0.2228009E-005  0.1061159E+04  0.7818608E-02  0.9243898E-01
          1   -1    0    0  501    0  0.00000000000E+00  0.00000000000E+00  0.13190684217E+04  0.13190684217E+04  0.50400000000E-02 0.  1.
         -1   -1    0    0    0  501 -0.00000000000E+00 -0.00000000000E+00 -0.21341944747E+03  0.21341944753E+03  0.50400000000E-02 0. -1.
    5000001    1    1    2    0    0  0.22481395775E+02  0.24014868875E+03 -0.86718346881E+02  0.30483089993E+03  0.16500000000E+03 0.  0.
   -5000001    1    1    2    0    0 -0.22481395775E+02 -0.24014868875E+03  0.11923673211E+04  0.12276569693E+04  0.16500000000E+03 0.  0.
<mgrwt>
<rscale>  0 0.10611595E+04</rscale>
<asrwt>0</asrwt>
<pdfrwt beam="1">  1        1 0.20293360E+00 0.10611595E+04</pdfrwt>
<pdfrwt beam="2">  1       -1 0.32833761E-01 0.10611595E+04</pdfrwt>
<totfact> 0.76115742E+01</totfact>
</mgrwt>
</event>
<event>
 4    1  0.2228009E-005  0.5566434E+03  0.7818608E-02  0.9999678E-01
         -1   -1    0    0    0  501 -0.00000000000E+00  0.00000000000E+00  0.93946178718E+02  0.93946178853E+02  0.50400000000E-02 0. -1.
          1   -1    0    0  501    0  0.00000000000E+00 -0.00000000000E+00 -0.82454623493E+03  0.82454623495E+03  0.50400000000E-02 0.  1.
    5000001    1    1    2    0    0  0.75108171750E+01  0.21933931220E+03 -0.29019401530E+03  0.39950433385E+03  0.16500000000E+03 0.  0.
   -5000001    1    1    2    0    0 -0.75108171750E+01 -0.21933931220E+03 -0.44040604091E+03  0.51898807995E+03  0.16500000000E+03 0.  0.
<mgrwt>
<rscale>  0 0.55664340E+03</rscale>
<asrwt>0</asrwt>
<pdfrwt beam="1">  1        1 0.12685326E+00 0.55664340E+03</pdfrwt>
<pdfrwt beam="2">  1       -1 0.14453259E-01 0.55664340E+03</pdfrwt>
<totfact> 0.74391149E+02</totfact>
</mgrwt>
</event>
<event>
 4    1  0.2228009E-005  0.4796531E+03  0.7818608E-02  0.1019231E+00
          1   -1    0    0  501    0  0.00000000000E+00  0.00000000000E+00  0.44280362400E+03  0.44280362403E+03  0.50400000000E-02 0.  1.
         -1   -1    0    0    0  501 -0.00000000000E+00 -0.00000000000E+00 -0.12989228027E+03  0.12989228037E+03  0.50400000000E-02 0. -1.
    5000001    1    1    2    0    0  0.24716224023E+01  0.16229140963E+03  0.23146914926E+03  0.32733404592E+03  0.16500000000E+03 0.  0.
   -5000001    1    1    2    0    0 -0.24716224023E+01 -0.16229140963E+03  0.81442194470E+02  0.24536185848E+03  0.16500000000E+03 0.  0.
<mgrwt>
<rscale>  0 0.47965309E+03</rscale>
<asrwt>0</asrwt>
<pdfrwt beam="1">  1        1 0.68123634E-01 0.47965309E+03</pdfrwt>
<pdfrwt beam="2">  1       -1 0.19983428E-01 0.47965309E+03</pdfrwt>
<totfact> 0.10741040E+03</totfact>
</mgrwt>
</event>
<event>
 4    1  0.2228009E-005  0.4925573E+03  0.7818608E-02  0.1015740E+00
          1   -1    0    0  501    0  0.00000000000E+00  0.00000000000E+00  0.20464420101E+03  0.20464420107E+03  0.50400000000E-02 0.  1.
         -1   -1    0    0    0  501 -0.00000000000E+00 -0.00000000000E+00 -0.29638351001E+03  0.29638351005E+03  0.50400000000E-02 0. -1.
    5000001    1    1    2    0    0 -0.16094845559E+03  0.20225039334E+02 -0.13166892268E+03  0.26622389594E+03  0.16500000000E+03 0.  0.
   -5000001    1    1    2    0    0  0.16094845559E+03 -0.20225039334E+02  0.39929613679E+02  0.23480381517E+03  0.16500000000E+03 0.  0.
<mgrwt>
<rscale>  0 0.49255727E+03</rscale>
<asrwt>0</asrwt>
<pdfrwt beam="1">  1        1 0.31483723E-01 0.49255727E+03</pdfrwt>
<pdfrwt beam="2">  1       -1 0.45597463E-01 0.49255727E+03</pdfrwt>
<totfact> 0.69492865E+02</totfact>
</mgrwt>
</event>
<event>
 4    1  0.2228009E-005  0.1261180E+04  0.7818608E-02  0.9060929E-01
          1   -1    0    0  501    0  0.00000000000E+00  0.00000000000E+00  0.14864453318E+03  0.14864453327E+03  0.50400000000E-02 0.  1.
         -1   -1    0    0    0  501 -0.00000000000E+00 -0.00000000000E+00 -0.26751316152E+04  0.26751316152E+04  0.50400000000E-02 0. -1.
    5000001    1    1    2    0    0  0.43124414251E+03  0.39593394203E+03 -0.89071146853E+03  0.10785764308E+04  0.16500000000E+03 0.  0.
   -5000001    1    1    2    0    0 -0.43124414251E+03 -0.39593394203E+03 -0.16357756135E+04  0.17451997177E+04  0.16500000000E+03 0.  0.
<mgrwt>
<rscale>  0 0.12611799E+04</rscale>
<asrwt>0</asrwt>
<pdfrwt beam="1">  1        1 0.22868392E-01 0.12611799E+04</pdfrwt>
<pdfrwt beam="2">  1       -1 0.41155868E+00 0.12611799E+04</pdfrwt>
<totfact> 0.13076916E+00</totfact>
</mgrwt>
</event>
<event>
 4    1  0.2228009E-005  0.4564505E+03  0.7818608E-02  0.1025816E+00
         -1   -1    0    0    0  501 -0.00000000000E+00  0.00000000000E+00  0.71565714877E+03  0.71565714878E+03  0.50400000000E-02 0. -1.
          1   -1    0    0  501    0  0.00000000000E+00 -0.00000000000E+00 -0.72781713344E+02  0.72781713519E+02  0.50400000000E-02 0.  1.
    5000001    1    1    2    0    0  0.15229428498E+03  0.38928559025E+02  0.30008782614E+03  0.37681120650E+03  0.16500000000E+03 0.  0.
   -5000001    1    1    2    0    0 -0.15229428498E+03 -0.38928559025E+02  0.34278760928E+03  0.41162765580E+03  0.16500000000E+03 0.  0.
<mgrwt>
<rscale>  0 0.45645045E+03</rscale>
<asrwt>0</asrwt>
<pdfrwt beam="1">  1        1 0.11197186E-01 0.45645045E+03</pdfrwt>
<pdfrwt beam="2">  1       -1 0.11010110E+00 0.45645045E+03</pdfrwt>
<totfact> 0.44494519E+02</totfact>
</mgrwt>
</event>
<event>
 4    1  0.2228009E-005  0.5905042E+03  0.7818608E-02  0.9925305E-01
         -1   -1    0    0    0  501 -0.00000000000E+00  0.00000000000E+00  0.42493859012E+02  0.42493859311E+02  0.50400000000E-02 0. -1.
          1   -1    0    0  501    0  0.00000000000E+00 -0.00000000000E+00 -0.20514446039E+04  0.20514446039E+04  0.50400000000E-02 0.  1.
    5000001    1    1    2    0    0 -0.60310656499E+02 -0.23729954152E+03 -0.10065744028E+04  0.10489830676E+04  0.16500000000E+03 0.  0.
   -5000001    1    1    2    0    0  0.60310656499E+02  0.23729954152E+03 -0.10023763420E+04  0.10449553956E+04  0.16500000000E+03 0.  0.
<mgrwt>
<rscale>  0 0.59050418E+03</rscale>
<asrwt>0</asrwt>
<pdfrwt beam="1">  1        1 0.31560679E+00 0.59050418E+03</pdfrwt>
<pdfrwt beam="2">  1       -1 0.65375184E-02 0.59050418E+03</pdfrwt>
<totfact> 0.35244510E+02</totfact>
</mgrwt>
</event>
<event>
 4    1  0.2228009E-005  0.4364106E+03  0.7818608E-02  0.1031854E+00
          1   -1    0    0  501    0  0.00000000000E+00  0.00000000000E+00  0.12393026969E+03  0.12393026979E+03  0.50400000000E-02 0.  1.
         -1   -1    0    0    0  501 -0.00000000000E+00 -0.00000000000E+00 -0.38419630480E+03  0.38419630483E+03  0.50400000000E-02 0. -1.
    5000001    1    1    2    0    0  0.13331320441E+03  0.31395844244E+02 -0.83118787629E+02  0.22998226532E+03  0.16500000000E+03 0.  0.
   -5000001    1    1    2    0    0 -0.13331320441E+03 -0.31395844244E+02 -0.17714724748E+03  0.27814430930E+03  0.16500000000E+03 0.  0.
<mgrwt>
<rscale>  0 0.43641059E+03</rscale>
<asrwt>0</asrwt>
<pdfrwt beam="1">  1        1 0.19066196E-01 0.43641059E+03</pdfrwt>
<pdfrwt beam="2">  1       -1 0.59107123E-01 0.43641059E+03</pdfrwt>
<totfact> 0.81570760E+02</totfact>
</mgrwt>
</event>
<event>
 4    1  0.2228009E-005  0.8448524E+03  0.7818608E-02  0.9497272E-01
         -1   -1    0    0    0  501 -0.00000000000E+00  0.00000000000E+00  0.34803734303E+03  0.34803734306E+03  0.50400000000E-02 0.  1.
          1   -1    0    0  501    0  0.00000000000E+00 -0.00000000000E+00 -0.51271474994E+03  0.51271474996E+03  0.50400000000E-02 0. -1.
    5000001    1    1    2    0    0 -0.36212189784E+03  0.30029651232E+02  0.58777292987E+02  0.40337801008E+03  0.16500000000E+03 0.  0.
   -5000001    1    1    2    0    0  0.36212189784E+03 -0.30029651232E+02 -0.22345469990E+03  0.45737408295E+03  0.16500000000E+03 0.  0.
<mgrwt>
<rscale>  0 0.84485236E+03</rscale>
<asrwt>0</asrwt>
<pdfrwt beam="1">  1        1 0.78879192E-01 0.84485236E+03</pdfrwt>
<pdfrwt beam="2">  1       -1 0.53544207E-01 0.84485236E+03</pdfrwt>
<totfact> 0.15217625E+02</totfact>
</mgrwt>
</event>
<event>
 4    1  0.2228009E-005  0.3963465E+03  0.7818608E-02  0.1045052E+00
         -1   -1    0    0    0  501 -0.00000000000E+00  0.00000000000E+00  0.77748249332E+02  0.77748249495E+02  0.50400000000E-02 0. -1.
          1   -1    0    0  501    0  0.00000000000E+00 -0.00000000000E+00 -0.50512566652E+03  0.50512566654E+03  0.50400000000E-02 0.  1.
    5000001    1    1    2    0    0  0.10567821493E+03 -0.13590660080E+02 -0.17491778817E+03  0.26300917050E+03  0.16500000000E+03 0.  0.
   -5000001    1    1    2    0    0 -0.10567821493E+03  0.13590660080E+02 -0.25245962902E+03  0.31986474553E+03  0.16500000000E+03 0.  0.
<mgrwt>
<rscale>  0 0.39634650E+03</rscale>
<asrwt>0</asrwt>
<pdfrwt beam="1">  1        1 0.77711639E-01 0.39634650E+03</pdfrwt>
<pdfrwt beam="2">  1       -1 0.11961269E-01 0.39634650E+03</pdfrwt>
<totfact> 0.20592389E+03</totfact>
</mgrwt>
</event>
<event>
 4    1  0.2228009E-005  0.4511411E+03  0.7818608E-02  0.1027382E+00
          1   -1    0    0  501    0  0.00000000000E+00  0.00000000000E+00  0.27222101500E+04  0.27222101500E+04  0.50400000000E-02 0.  1.
         -1   -1    0    0    0  501 -0.00000000000E+00 -0.00000000000E+00 -0.18691456496E+02  0.18691457175E+02  0.50400000000E-02 0. -1.
    5000001    1    1    2    0    0 -0.29790745828E+02 -0.13739002529E+03  0.97265844584E+03  0.99652042621E+03  0.16500000000E+03 0.  0.
   -5000001    1    1    2    0    0  0.29790745828E+02  0.13739002529E+03  0.17308602477E+04  0.17443811810E+04  0.16500000000E+03 0.  0.
<mgrwt>
<rscale>  0 0.45114110E+03</rscale>
<asrwt>0</asrwt>
<pdfrwt beam="1">  1        1 0.41880135E+00 0.45114110E+03</pdfrwt>
<pdfrwt beam="2">  1       -1 0.28756102E-02 0.45114110E+03</pdfrwt>
<totfact> 0.43992901E+02</totfact>
</mgrwt>
</event>
<event>
 4    1  0.2228009E-005  0.5265849E+03  0.7818608E-02  0.1007064E+00
         -1   -1    0    0    0  501 -0.00000000000E+00  0.00000000000E+00  0.16112821590E+03  0.16112821598E+03  0.50400000000E-02 0.  1.
          1   -1    0    0  501    0  0.00000000000E+00 -0.00000000000E+00 -0.43023453350E+03  0.43023453353E+03  0.50400000000E-02 0. -1.
    5000001    1    1    2    0    0  0.27128601774E+02  0.19445496267E+03 -0.20145723287E+03  0.32612683149E+03  0.16500000000E+03 0.  0.
   -5000001    1    1    2    0    0 -0.27128601774E+02 -0.19445496267E+03 -0.67649084732E+02  0.26523591802E+03  0.16500000000E+03 0.  0.
<mgrwt>
<rscale>  0 0.52658493E+03</rscale>
<asrwt>0</asrwt>
<pdfrwt beam="1">  1        1 0.66189928E-01 0.52658493E+03</pdfrwt>
<pdfrwt beam="2">  1       -1 0.24788956E-01 0.52658493E+03</pdfrwt>
<totfact> 0.77812033E+02</totfact>
</mgrwt>
</event>
<event>
 4    1  0.2228009E-005  0.3848643E+03  0.7818608E-02  0.1049150E+00
         -1   -1    0    0    0  501 -0.00000000000E+00  0.00000000000E+00  0.46902390196E+02  0.46902390467E+02  0.50400000000E-02 0. -1.
          1   -1    0    0  501    0  0.00000000000E+00 -0.00000000000E+00 -0.78951489679E+03  0.78951489681E+03  0.50400000000E-02 0.  1.
    5000001    1    1    2    0    0  0.48859612180E+02 -0.74218890959E+02 -0.46627206133E+03  0.50252397023E+03  0.16500000000E+03 0.  0.
   -5000001    1    1    2    0    0 -0.48859612180E+02  0.74218890959E+02 -0.27634044526E+03  0.33389331704E+03  0.16500000000E+03 0.  0.
<mgrwt>
<rscale>  0 0.38486432E+03</rscale>
<asrwt>0</asrwt>
<pdfrwt beam="1">  1        1 0.12146382E+00 0.38486432E+03</pdfrwt>
<pdfrwt beam="2">  1       -1 0.72157529E-02 0.38486432E+03</pdfrwt>
<totfact> 0.23790381E+03</totfact>
</mgrwt>
</event>
<event>
 4    1  0.2228009E-005  0.5679353E+03  0.7818608E-02  0.9974258E-01
         -1   -1    0    0    0  501 -0.00000000000E+00  0.00000000000E+00  0.33658851368E+03  0.33658851372E+03  0.50400000000E-02 0. -1.
          1   -1    0    0  501    0  0.00000000000E+00 -0.00000000000E+00 -0.23957335081E+03  0.23957335086E+03  0.50400000000E-02 0.  1.
    5000001    1    1    2    0    0  0.13519303940E+03  0.16266243917E+03 -0.45988907960E+02  0.27216944478E+03  0.16500000000E+03 0.  0.
   -5000001    1    1    2    0    0 -0.13519303940E+03 -0.16266243917E+03  0.14300407083E+03  0.30399241980E+03  0.16500000000E+03 0.  0.
<mgrwt>
<rscale>  0 0.56793534E+03</rscale>
<asrwt>0</asrwt>
<pdfrwt beam="1">  1        1 0.36857439E-01 0.56793534E+03</pdfrwt>
<pdfrwt beam="2">  1       -1 0.51782848E-01 0.56793534E+03</pdfrwt>
<totfact> 0.44666875E+02</totfact>
</mgrwt>
</event>
<event>
 4    1  0.2228009E-005  0.4989544E+03  0.7818608E-02  0.1014052E+00
         -1   -1    0    0    0  501 -0.00000000000E+00  0.00000000000E+00  0.13744730736E+03  0.13744730745E+03  0.50400000000E-02 0. -1.
          1   -1    0    0  501    0  0.00000000000E+00 -0.00000000000E+00 -0.45281995383E+03  0.45281995385E+03  0.50400000000E-02 0.  1.
    5000001    1    1    2    0    0  0.44159304837E+01  0.16284504706E+03 -0.26659940334E+03  0.35332456984E+03  0.16500000000E+03 0.  0.
   -5000001    1    1    2    0    0 -0.44159304837E+01 -0.16284504706E+03 -0.48773243131E+02  0.23694269146E+03  0.16500000000E+03 0.  0.
<mgrwt>
<rscale>  0 0.49895444E+03</rscale>
<asrwt>0</asrwt>
<pdfrwt beam="1">  1        1 0.69664608E-01 0.49895444E+03</pdfrwt>
<pdfrwt beam="2">  1       -1 0.21145740E-01 0.49895444E+03</pdfrwt>
<totfact> 0.94926117E+02</totfact>
</mgrwt>
</event>
<event>
 4    1  0.2228009E-005  0.7110514E+03  0.7818608E-02  0.9698517E-01
          1   -1    0    0  501    0  0.00000000000E+00  0.00000000000E+00  0.28861732290E+03  0.28861732294E+03  0.50400000000E-02 0.  1.
         -1   -1    0    0    0  501 -0.00000000000E+00 -0.00000000000E+00 -0.43794504795E+03  0.43794504798E+03  0.50400000000E-02 0. -1.
    5000001    1    1    2    0    0  0.19700297566E+03 -0.24462917765E+03 -0.97963025245E+02  0.36806977775E+03  0.16500000000E+03 0.  0.
   -5000001    1    1    2    0    0 -0.19700297566E+03  0.24462917765E+03 -0.51364699806E+02  0.35849259317E+03  0.16500000000E+03 0.  0.
<mgrwt>
<rscale>  0 0.71105141E+03</rscale>
<asrwt>0</asrwt>
<pdfrwt beam="1">  1        1 0.44402665E-01 0.71105141E+03</pdfrwt>
<pdfrwt beam="2">  1       -1 0.67376161E-01 0.71105141E+03</pdfrwt>
<totfact> 0.20871345E+02</totfact>
</mgrwt>
</event>
<event>
 4    1  0.2228009E-005  0.4367249E+03  0.7818608E-02  0.1031756E+00
         -1   -1    0    0    0  501 -0.00000000000E+00  0.00000000000E+00  0.10563636839E+03  0.10563636851E+03  0.50400000000E-02 0.  1.
          1   -1    0    0  501    0  0.00000000000E+00 -0.00000000000E+00 -0.45138006444E+03  0.45138006447E+03  0.50400000000E-02 0. -1.
    5000001    1    1    2    0    0  0.12279960648E+03  0.86737403510E+01 -0.79999362467E+02  0.22086166512E+03  0.16500000000E+03 0.  0.
   -5000001    1    1    2    0    0 -0.12279960648E+03 -0.86737403510E+01 -0.26574433358E+03  0.33615476786E+03  0.16500000000E+03 0.  0.
<mgrwt>
<rscale>  0 0.43672486E+03</rscale>
<asrwt>0</asrwt>
<pdfrwt beam="1">  1        1 0.69443086E-01 0.43672486E+03</pdfrwt>
<pdfrwt beam="2">  1       -1 0.16251749E-01 0.43672486E+03</pdfrwt>
<totfact> 0.14677484E+03</totfact>
</mgrwt>
</event>
<event>
 4    1  0.2228009E-005  0.5089889E+03  0.7818608E-02  0.1011459E+00
          1   -1    0    0  501    0  0.00000000000E+00  0.00000000000E+00  0.47097810627E+03  0.47097810630E+03  0.50400000000E-02 0. -1.
         -1   -1    0    0    0  501 -0.00000000000E+00 -0.00000000000E+00 -0.13751686383E+03  0.13751686392E+03  0.50400000000E-02 0.  1.
    5000001    1    1    2    0    0  0.12649114891E+03  0.14493991019E+03  0.19437852117E+03  0.31939880684E+03  0.16500000000E+03 0.  0.
   -5000001    1    1    2    0    0 -0.12649114891E+03 -0.14493991019E+03  0.13908272128E+03  0.28909616338E+03  0.16500000000E+03 0.  0.
<mgrwt>
<rscale>  0 0.50898893E+03</rscale>
<asrwt>0</asrwt>
<pdfrwt beam="1">  1        1 0.72458170E-01 0.50898893E+03</pdfrwt>
<pdfrwt beam="2">  1       -1 0.21156441E-01 0.50898893E+03</pdfrwt>
<totfact> 0.89970816E+02</totfact>
</mgrwt>
</event>
<event>
 4    1  0.2228009E-005  0.7588286E+03  0.7818608E-02  0.9621601E-01
          1   -1    0    0  501    0  0.00000000000E+00  0.00000000000E+00  0.18522395309E+04  0.18522395309E+04  0.50400000000E-02 0.  1.
         -1   -1    0    0    0  501 -0.00000000000E+00 -0.00000000000E+00 -0.77719539975E+02  0.77719540138E+02  0.50400000000E-02 0. -1.
    5000001    1    1    2    0    0  0.32110540919E+03 -0.96916452645E+02  0.72187009846E+03  0.81291015596E+03  0.16500000000E+03 0.  0.
   -5000001    1    1    2    0    0 -0.32110540919E+03  0.96916452645E+02  0.10526498925E+04  0.11170489151E+04  0.16500000000E+03 0.  0.
<mgrwt>
<rscale>  0 0.75882858E+03</rscale>
<asrwt>0</asrwt>
<pdfrwt beam="1">  1        1 0.28495990E+00 0.75882858E+03</pdfrwt>
<pdfrwt beam="2">  1       -1 0.11956853E-01 0.75882858E+03</pdfrwt>
<totfact> 0.18265837E+02</totfact>
</mgrwt>
</event>
<event>
 4    1  0.2228009E-005  0.4624794E+03  0.7818608E-02  0.1024065E+00
         -1   -1    0    0    0  501 -0.00000000000E+00  0.00000000000E+00  0.91721060883E+02  0.91721061022E+02  0.50400000000E-02 0. -1.
          1   -1    0    0  501    0  0.00000000000E+00 -0.00000000000E+00 -0.58298279064E+03  0.58298279066E+03  0.50400000000E-02 0.  1.
    5000001    1    1    2    0    0 -0.13399593395E+03  0.66612812640E+02 -0.15505515557E+03  0.27140242886E+03  0.16500000000E+03 0.  0.
   -5000001    1    1    2    0    0  0.13399593395E+03 -0.66612812640E+02 -0.33620657419E+03  0.40330142282E+03  0.16500000000E+03 0.  0.
<mgrwt>
<rscale>  0 0.46247941E+03</rscale>
<asrwt>0</asrwt>
<pdfrwt beam="1">  1        1 0.89689658E-01 0.46247941E+03</pdfrwt>
<pdfrwt beam="2">  1       -1 0.14110933E-01 0.46247941E+03</pdfrwt>
<totfact> 0.13001575E+03</totfact>
</mgrwt>
</event>
<event>
 4    1  0.2228009E-005  0.4555078E+03  0.7818608E-02  0.1026092E+00
         -1   -1    0    0    0  501 -0.00000000000E+00  0.00000000000E+00  0.79818948295E+02  0.79818948454E+02  0.50400000000E-02 0.  1.
          1   -1    0    0  501    0  0.00000000000E+00 -0.00000000000E+00 -0.64986864028E+03  0.64986864030E+03  0.50400000000E-02 0. -1.
    5000001    1    1    2    0    0 -0.15178686385E+03 -0.28977461531E+02 -0.24063439173E+03  0.33016489183E+03  0.16500000000E+03 0.  0.
   -5000001    1    1    2    0    0  0.15178686385E+03  0.28977461531E+02 -0.32941530026E+03  0.39952269692E+03  0.16500000000E+03 0.  0.
<mgrwt>
<rscale>  0 0.45550777E+03</rscale>
<asrwt>0</asrwt>
<pdfrwt beam="1">  1        1 0.99979787E-01 0.45550777E+03</pdfrwt>
<pdfrwt beam="2">  1       -1 0.12279839E-01 0.45550777E+03</pdfrwt>
<totfact> 0.13897866E+03</totfact>
</mgrwt>
</event>
<event>
 4    1  0.2228009E-005  0.4473823E+03  0.7818608E-02  0.1028506E+00
         -1   -1    0    0    0  501 -0.00000000000E+00  0.00000000000E+00  0.47198782952E+02  0.47198783221E+02  0.50400000000E-02 0. -1.
          1   -1    0    0  501    0  0.00000000000E+00 -0.00000000000E+00 -0.10601487228E+04  0.10601487228E+04  0.50400000000E-02 0.  1.
    5000001    1    1    2    0    0  0.11676203513E+03  0.94766162183E+02 -0.47158197474E+03  0.52175526566E+03  0.16500000000E+03 0.  0.
   -5000001    1    1    2    0    0 -0.11676203513E+03 -0.94766162183E+02 -0.54136796514E+03  0.58559224041E+03  0.16500000000E+03 0.  0.
<mgrwt>
<rscale>  0 0.44738230E+03</rscale>
<asrwt>0</asrwt>
<pdfrwt beam="1">  1        1 0.16309979E+00 0.44738230E+03</pdfrwt>
<pdfrwt beam="2">  1       -1 0.72613520E-02 0.44738230E+03</pdfrwt>
<totfact> 0.14380313E+03</totfact>
</mgrwt>
</event>
<event>
 4    1  0.2228009E-005  0.5305576E+03  0.7818608E-02  0.1006097E+00
         -1   -1    0    0    0  501 -0.00000000000E+00  0.00000000000E+00  0.40872501117E+02  0.40872501428E+02  0.50400000000E-02 0. -1.
          1   -1    0    0  501    0  0.00000000000E+00 -0.00000000000E+00 -0.17217647642E+04  0.17217647642E+04  0.50400000000E-02 0.  1.
    5000001    1    1    2    0    0 -0.12407246147E+03  0.16659472829E+03 -0.83967885044E+03  0.88058693555E+03  0.16500000000E+03 0.  0.
   -5000001    1    1    2    0    0  0.12407246147E+03 -0.16659472829E+03 -0.84121341268E+03  0.88205033012E+03  0.16500000000E+03 0.  0.
<mgrwt>
<rscale>  0 0.53055757E+03</rscale>
<asrwt>0</asrwt>
<pdfrwt beam="1">  1        1 0.26488683E+00 0.53055757E+03</pdfrwt>
<pdfrwt beam="2">  1       -1 0.62880785E-02 0.53055757E+03</pdfrwt>
<totfact> 0.62248340E+02</totfact>
</mgrwt>
</event>
<event>
 4    1  0.2228009E-005  0.5348775E+03  0.7818608E-02  0.1005056E+00
          1   -1    0    0  501    0  0.00000000000E+00  0.00000000000E+00  0.18050843598E+04  0.18050843598E+04  0.50400000000E-02 0. -1.
         -1   -1    0    0    0  501 -0.00000000000E+00 -0.00000000000E+00 -0.39623343116E+02  0.39623343436E+02  0.50400000000E-02 0.  1.
    5000001    1    1    2    0    0  0.10745587341E+03 -0.12398486700E+02  0.15054158852E+04  0.15182893250E+04  0.16500000000E+03 0.  0.
   -5000001    1    1    2    0    0 -0.10745587341E+03  0.12398486700E+02  0.26004513149E+03  0.32641837818E+03  0.16500000000E+03 0.  0.
<mgrwt>
<rscale>  0 0.53487747E+03</rscale>
<asrwt>0</asrwt>
<pdfrwt beam="1">  1        1 0.27770527E+00 0.53487747E+03</pdfrwt>
<pdfrwt beam="2">  1       -1 0.60958994E-02 0.53487747E+03</pdfrwt>
<totfact> 0.57457941E+02</totfact>
</mgrwt>
</event>
<event>
 4    1  0.2228009E-005  0.8198002E+03  0.7818608E-02  0.9531791E-01
         -1   -1    0    0    0  501 -0.00000000000E+00  0.00000000000E+00  0.49412539800E+03  0.49412539803E+03  0.50400000000E-02 0. -1.
          1   -1    0    0  501    0  0.00000000000E+00 -0.00000000000E+00 -0.34003129865E+03  0.34003129868E+03  0.50400000000E-02 0.  1.
    5000001    1    1    2    0    0  0.25213689054E+03 -0.26701695022E+03 -0.12553707552E+01  0.40261351099E+03  0.16500000000E+03 0.  0.
   -5000001    1    1    2    0    0 -0.25213689054E+03  0.26701695022E+03  0.15534947011E+03  0.43154318572E+03  0.16500000000E+03 0.  0.
<mgrwt>
<rscale>  0 0.81980022E+03</rscale>
<asrwt>0</asrwt>
<pdfrwt beam="1">  1        1 0.52312507E-01 0.81980022E+03</pdfrwt>
<pdfrwt beam="2">  1       -1 0.76019292E-01 0.81980022E+03</pdfrwt>
<totfact> 0.13082872E+02</totfact>
</mgrwt>
</event>
<event>
 4    1  0.2228009E-005  0.5376427E+03  0.7818608E-02  0.1004395E+00
          1   -1    0    0  501    0  0.00000000000E+00  0.00000000000E+00  0.82770324823E+03  0.82770324825E+03  0.50400000000E-02 0.  1.
         -1   -1    0    0    0  501 -0.00000000000E+00 -0.00000000000E+00 -0.87307749883E+02  0.87307750029E+02  0.50400000000E-02 0. -1.
    5000001    1    1    2    0    0 -0.19590761026E+03  0.81452380815E+02  0.37881312595E+03  0.46447676636E+03  0.16500000000E+03 0.  0.
   -5000001    1    1    2    0    0  0.19590761026E+03 -0.81452380815E+02  0.36158237240E+03  0.45053423191E+03  0.16500000000E+03 0.  0.
<mgrwt>
<rscale>  0 0.53764266E+03</rscale>
<asrwt>0</asrwt>
<pdfrwt beam="1">  1        1 0.12733896E+00 0.53764266E+03</pdfrwt>
<pdfrwt beam="2">  1       -1 0.13431962E-01 0.53764266E+03</pdfrwt>
<totfact> 0.83232788E+02</totfact>
</mgrwt>
</event>
<event>
 4    1  0.2228009E-005  0.4375750E+03  0.7818608E-02  0.1031493E+00
          1   -1    0    0  501    0  0.00000000000E+00  0.00000000000E+00  0.18768083893E+04  0.18768083893E+04  0.50400000000E-02 0.  1.
         -1   -1    0    0    0  501 -0.00000000000E+00 -0.00000000000E+00 -0.25504981242E+02  0.25504981740E+02  0.50400000000E-02 0. -1.
    5000001    1    1    2    0    0  0.10504133197E+02 -0.13869278519E+03  0.76908869530E+03  0.79879186696E+03  0.16500000000E+03 0.  0.
   -5000001    1    1    2    0    0 -0.10504133197E+02  0.13869278519E+03  0.10822147127E+04  0.11035215040E+04  0.16500000000E+03 0.  0.
<mgrwt>
<rscale>  0 0.43757497E+03</rscale>
<asrwt>0</asrwt>
<pdfrwt beam="1">  1        1 0.28873976E+00 0.43757497E+03</pdfrwt>
<pdfrwt beam="2">  1       -1 0.39238432E-02 0.43757497E+03</pdfrwt>
<totfact> 0.10138669E+03</totfact>
</mgrwt>
</event>
<event>
 4    1  0.2228009E-005  0.4703673E+03  0.7818608E-02  0.1021817E+00
          1   -1    0    0  501    0  0.00000000000E+00  0.00000000000E+00  0.81771234107E+03  0.81771234109E+03  0.50400000000E-02 0.  1.
         -1   -1    0    0    0  501 -0.00000000000E+00 -0.00000000000E+00 -0.67641580090E+02  0.67641580278E+02  0.50400000000E-02 0. -1.
    5000001    1    1    2    0    0  0.10646733408E+03 -0.12829196744E+03  0.40721228215E+03  0.46993719247E+03  0.16500000000E+03 0.  0.
   -5000001    1    1    2    0    0 -0.10646733408E+03  0.12829196744E+03  0.34285847883E+03  0.41541672889E+03  0.16500000000E+03 0.  0.
<mgrwt>
<rscale>  0 0.47036732E+03</rscale>
<asrwt>0</asrwt>
<pdfrwt beam="1">  1        1 0.12580190E+00 0.47036732E+03</pdfrwt>
<pdfrwt beam="2">  1       -1 0.10406397E-01 0.47036732E+03</pdfrwt>
<totfact> 0.12744876E+03</totfact>
</mgrwt>
</event>
<event>
 4    1  0.2228009E-005  0.5630256E+03  0.7818608E-02  0.9985232E-01
          1   -1    0    0  501    0  0.00000000000E+00  0.00000000000E+00  0.11219438481E+03  0.11219438492E+03  0.50400000000E-02 0.  1.
         -1   -1    0    0    0  501 -0.00000000000E+00 -0.00000000000E+00 -0.70635860766E+03  0.70635860768E+03  0.50400000000E-02 0. -1.
    5000001    1    1    2    0    0  0.54672922643E+02  0.21734874334E+03 -0.23548866687E+03  0.36456757526E+03  0.16500000000E+03 0.  0.
   -5000001    1    1    2    0    0 -0.54672922643E+02 -0.21734874334E+03 -0.35867555598E+03  0.45398541734E+03  0.16500000000E+03 0.  0.
<mgrwt>
<rscale>  0 0.56302565E+03</rscale>
<asrwt>0</asrwt>
<pdfrwt beam="1">  1        1 0.17260675E-01 0.56302565E+03</pdfrwt>
<pdfrwt beam="2">  1       -1 0.10867055E+00 0.56302565E+03</pdfrwt>
<totfact> 0.25551806E+02</totfact>
</mgrwt>
</event>
<event>
 4    1  0.2228009E-005  0.3870487E+03  0.7818608E-02  0.1048359E+00
         -1   -1    0    0    0  501 -0.00000000000E+00  0.00000000000E+00  0.21492377384E+03  0.21492377390E+03  0.50400000000E-02 0.  1.
          1   -1    0    0  501    0  0.00000000000E+00 -0.00000000000E+00 -0.17425560110E+03  0.17425560118E+03  0.50400000000E-02 0. -1.
    5000001    1    1    2    0    0 -0.55800398625E+02 -0.52994585461E+01  0.10496931328E+03  0.20343383563E+03  0.16500000000E+03 0.  0.
   -5000001    1    1    2    0    0  0.55800398625E+02  0.52994585461E+01 -0.64301140550E+02  0.18574553944E+03  0.16500000000E+03 0.  0.
<mgrwt>
<rscale>  0 0.38704869E+03</rscale>
<asrwt>0</asrwt>
<pdfrwt beam="1">  1        1 0.26808554E-01 0.38704869E+03</pdfrwt>
<pdfrwt beam="2">  1       -1 0.33065196E-01 0.38704869E+03</pdfrwt>
<totfact> 0.15179603E+03</totfact>
</mgrwt>
</event>
<event>
 4    1  0.2228009E-005  0.3479214E+03  0.7818608E-02  0.1063471E+00
         -1   -1    0    0    0  501 -0.00000000000E+00  0.00000000000E+00  0.11398836422E+02  0.11398837536E+02  0.50400000000E-02 0. -1.
          1   -1    0    0  501    0  0.00000000000E+00 -0.00000000000E+00 -0.26548609323E+04  0.26548609323E+04  0.50400000000E-02 0.  1.
    5000001    1    1    2    0    0  0.10746406874E+02  0.39990673049E+02 -0.10430332360E+04  0.10568150598E+04  0.16500000000E+03 0.  0.
   -5000001    1    1    2    0    0 -0.10746406874E+02 -0.39990673049E+02 -0.16004288599E+04  0.16094447101E+04  0.16500000000E+03 0.  0.
<mgrwt>
<rscale>  0 0.34792141E+03</rscale>
<asrwt>0</asrwt>
<pdfrwt beam="1">  1        1 0.40843965E+00 0.34792141E+03</pdfrwt>
<pdfrwt beam="2">  1       -1 0.17536693E-02 0.34792141E+03</pdfrwt>
<totfact> 0.10293368E+03</totfact>
</mgrwt>
</event>
<event>
 4    1  0.2228009E-005  0.4040913E+03  0.7818608E-02  0.1042372E+00
          1   -1    0    0  501    0  0.00000000000E+00  0.00000000000E+00  0.60006177583E+03  0.60006177585E+03  0.50400000000E-02 0.  1.
         -1   -1    0    0    0  501 -0.00000000000E+00 -0.00000000000E+00 -0.68030396013E+02  0.68030396200E+02  0.50400000000E-02 0. -1.
    5000001    1    1    2    0    0  0.11145533054E+03 -0.31971691733E+01  0.32244521499E+03  0.37898341556E+03  0.16500000000E+03 0.  0.
   -5000001    1    1    2    0    0 -0.11145533054E+03  0.31971691733E+01  0.20958616482E+03  0.28910875649E+03  0.16500000000E+03 0.  0.
<mgrwt>
<rscale>  0 0.40409128E+03</rscale>
<asrwt>0</asrwt>
<pdfrwt beam="1">  1        1 0.92317200E-01 0.40409128E+03</pdfrwt>
<pdfrwt beam="2">  1       -1 0.10466214E-01 0.40409128E+03</pdfrwt>
<totfact> 0.20037192E+03</totfact>
</mgrwt>
</event>
<event>
 4    1  0.2228009E-005  0.8216243E+03  0.7818608E-02  0.9529234E-01
         -1   -1    0    0    0  501 -0.00000000000E+00  0.00000000000E+00  0.48102631129E+03  0.48102631131E+03  0.50400000000E-02 0. -1.
          1   -1    0    0  501    0  0.00000000000E+00 -0.00000000000E+00 -0.35084698817E+03  0.35084698821E+03  0.50400000000E-02 0.  1.
    5000001    1    1    2    0    0 -0.21903971142E+03  0.84804584654E+02  0.36264580845E+03  0.46250102178E+03  0.16500000000E+03 0.  0.
   -5000001    1    1    2    0    0  0.21903971142E+03 -0.84804584654E+02 -0.23246648534E+03  0.36937227774E+03  0.16500000000E+03 0.  0.
<mgrwt>
<rscale>  0 0.82162432E+03</rscale>
<asrwt>0</asrwt>
<pdfrwt beam="1">  1        1 0.53976460E-01 0.82162432E+03</pdfrwt>
<pdfrwt beam="2">  1       -1 0.74004047E-01 0.82162432E+03</pdfrwt>
<totfact> 0.13279967E+02</totfact>
</mgrwt>
</event>
<event>
 4    1  0.2228009E-005  0.5575294E+03  0.7818608E-02  0.9997660E-01
          1   -1    0    0  501    0  0.00000000000E+00  0.00000000000E+00  0.12639470054E+04  0.12639470054E+04  0.50400000000E-02 0. -1.
         -1   -1    0    0    0  501 -0.00000000000E+00 -0.00000000000E+00 -0.61481818145E+02  0.61481818352E+02  0.50400000000E-02 0.  1.
    5000001    1    1    2    0    0 -0.37064723552E+02  0.20605840097E+03  0.40735443036E+03  0.48682285308E+03  0.16500000000E+03 0.  0.
   -5000001    1    1    2    0    0  0.37064723552E+02 -0.20605840097E+03  0.79511075689E+03  0.83860597068E+03  0.16500000000E+03 0.  0.
<mgrwt>
<rscale>  0 0.55752941E+03</rscale>
<asrwt>0</asrwt>
<pdfrwt beam="1">  1        1 0.19445336E+00 0.55752941E+03</pdfrwt>
<pdfrwt beam="2">  1       -1 0.94587424E-02 0.55752941E+03</pdfrwt>
<totfact> 0.67579523E+02</totfact>
</mgrwt>
</event>
<event>
 4    1  0.2228009E-005  0.3668593E+03  0.7818608E-02  0.1055900E+00
          1   -1    0    0  501    0  0.00000000000E+00  0.00000000000E+00  0.10403223514E+04  0.10403223514E+04  0.50400000000E-02 0. -1.
         -1   -1    0    0    0  501 -0.00000000000E+00 -0.00000000000E+00 -0.32342326660E+02  0.32342327053E+02  0.50400000000E-02 0.  1.
    5000001    1    1    2    0    0  0.13551000899E+02  0.56194512905E+02  0.34171964199E+03  0.38384732202E+03  0.16500000000E+03 0.  0.
   -5000001    1    1    2    0    0 -0.13551000899E+02 -0.56194512905E+02  0.66626038271E+03  0.68881735640E+03  0.16500000000E+03 0.  0.
<mgrwt>
<rscale>  0 0.36685935E+03</rscale>
<asrwt>0</asrwt>
<pdfrwt beam="1">  1        1 0.16004955E+00 0.36685935E+03</pdfrwt>
<pdfrwt beam="2">  1       -1 0.49757441E-02 0.36685935E+03</pdfrwt>
<totfact> 0.26510153E+03</totfact>
</mgrwt>
</event>
<event>
 4    1  0.2228009E-005  0.7539622E+03  0.7818608E-02  0.9629155E-01
         -1   -1    0    0    0  501 -0.00000000000E+00  0.00000000000E+00  0.37653273699E+03  0.37653273702E+03  0.50400000000E-02 0. -1.
          1   -1    0    0  501    0  0.00000000000E+00 -0.00000000000E+00 -0.37742999741E+03  0.37742999745E+03  0.50400000000E-02 0.  1.
    5000001    1    1    2    0    0 -0.19671662765E+03  0.14419078750E+03 -0.23582367911E+03  0.37726147752E+03  0.16500000000E+03 0.  0.
   -5000001    1    1    2    0    0  0.19671662765E+03 -0.14419078750E+03  0.23492641868E+03  0.37670125695E+03  0.16500000000E+03 0.  0.
<mgrwt>
<rscale>  0 0.75396220E+03</rscale>
<asrwt>0</asrwt>
<pdfrwt beam="1">  1        1 0.58066154E-01 0.75396220E+03</pdfrwt>
<pdfrwt beam="2">  1       -1 0.57928113E-01 0.75396220E+03</pdfrwt>
<totfact> 0.19827447E+02</totfact>
</mgrwt>
</event>
<event>
 4    1  0.2228009E-005  0.1067935E+04  0.7818608E-02  0.9237020E-01
          1   -1    0    0  501    0  0.00000000000E+00  0.00000000000E+00  0.18214900140E+04  0.18214900141E+04  0.50400000000E-02 0.  1.
         -1   -1    0    0    0  501 -0.00000000000E+00 -0.00000000000E+00 -0.15653203183E+03  0.15653203192E+03  0.50400000000E-02 0. -1.
    5000001    1    1    2    0    0  0.42392957225E+03 -0.10811039670E+03  0.35487042832E+03  0.58699417459E+03  0.16500000000E+03 0.  0.
   -5000001    1    1    2    0    0 -0.42392957225E+03  0.10811039670E+03  0.13100875539E+04  0.13910278714E+04  0.16500000000E+03 0.  0.
<mgrwt>
<rscale>  0 0.10679355E+04</rscale>
<asrwt>0</asrwt>
<pdfrwt beam="1">  1        1 0.28022923E+00 0.10679355E+04</pdfrwt>
<pdfrwt beam="2">  1       -1 0.24081851E-01 0.10679355E+04</pdfrwt>
<totfact> 0.58849177E+01</totfact>
</mgrwt>
</event>
<event>
 4    1  0.2228009E-005  0.4589483E+03  0.7818608E-02  0.1025087E+00
         -1   -1    0    0    0  501 -0.00000000000E+00  0.00000000000E+00  0.27879651720E+02  0.27879652176E+02  0.50400000000E-02 0. -1.
          1   -1    0    0  501    0  0.00000000000E+00 -0.00000000000E+00 -0.18887744981E+04  0.18887744981E+04  0.50400000000E-02 0.  1.
    5000001    1    1    2    0    0  0.76008552773E+02  0.14016985719E+03 -0.94261344744E+03  0.97013916541E+03  0.16500000000E+03 0.  0.
   -5000001    1    1    2    0    0 -0.76008552773E+02 -0.14016985719E+03 -0.91828139896E+03  0.94651498489E+03  0.16500000000E+03 0.  0.
<mgrwt>
<rscale>  0 0.45894826E+03</rscale>
<asrwt>0</asrwt>
<pdfrwt beam="1">  1        1 0.29058059E+00 0.45894826E+03</pdfrwt>
<pdfrwt beam="2">  1       -1 0.42891787E-02 0.45894826E+03</pdfrwt>
<totfact> 0.86916163E+02</totfact>
</mgrwt>
</event>
<event>
 4    1  0.2228009E-005  0.6156706E+03  0.7818608E-02  0.9873418E-01
          1   -1    0    0  501    0  0.00000000000E+00  0.00000000000E+00  0.12634554641E+04  0.12634554641E+04  0.50400000000E-02 0.  1.
         -1   -1    0    0    0  501 -0.00000000000E+00 -0.00000000000E+00 -0.75002691091E+02  0.75002691260E+02  0.50400000000E-02 0. -1.
    5000001    1    1    2    0    0  0.70470435402E+02  0.23954748200E+03  0.75082090320E+03  0.80827353482E+03  0.16500000000E+03 0.  0.
   -5000001    1    1    2    0    0 -0.70470435402E+02 -0.23954748200E+03  0.43763186979E+03  0.53018462054E+03  0.16500000000E+03 0.  0.
<mgrwt>
<rscale>  0 0.61567056E+03</rscale>
<asrwt>0</asrwt>
<pdfrwt beam="1">  1        1 0.19437777E+00 0.61567056E+03</pdfrwt>
<pdfrwt beam="2">  1       -1 0.11538875E-01 0.61567056E+03</pdfrwt>
<totfact> 0.49241357E+02</totfact>
</mgrwt>
</event>
<event>
 4    1  0.2228009E-005  0.4512734E+03  0.7818608E-02  0.1027343E+00
          1   -1    0    0  501    0  0.00000000000E+00  0.00000000000E+00  0.68656805867E+03  0.68656805869E+03  0.50400000000E-02 0.  1.
         -1   -1    0    0    0  501 -0.00000000000E+00 -0.00000000000E+00 -0.74154214943E+02  0.74154215114E+02  0.50400000000E-02 0. -1.
    5000001    1    1    2    0    0 -0.10920996352E+03 -0.10823144789E+03  0.31764664435E+03  0.38957060093E+03  0.16500000000E+03 0.  0.
   -5000001    1    1    2    0    0  0.10920996352E+03  0.10823144789E+03  0.29476719938E+03  0.37115167287E+03  0.16500000000E+03 0.  0.
<mgrwt>
<rscale>  0 0.45127338E+03</rscale>
<asrwt>0</asrwt>
<pdfrwt beam="1">  1        1 0.10562585E+00 0.45127338E+03</pdfrwt>
<pdfrwt beam="2">  1       -1 0.11408341E-01 0.45127338E+03</pdfrwt>
<totfact> 0.14408811E+03</totfact>
</mgrwt>
</event>
<event>
 4    1  0.2228009E-005  0.5494834E+03  0.7818608E-02  0.1001614E+00
         -1   -1    0    0    0  501 -0.00000000000E+00  0.00000000000E+00  0.60348733232E+02  0.60348733442E+02  0.50400000000E-02 0. -1.
          1   -1    0    0  501    0  0.00000000000E+00 -0.00000000000E+00 -0.12507803912E+04  0.12507803912E+04  0.50400000000E-02 0.  1.
    5000001    1    1    2    0    0 -0.13882723715E+03  0.14804977728E+03 -0.79579512067E+03  0.83767930165E+03  0.16500000000E+03 0.  0.
   -5000001    1    1    2    0    0  0.13882723715E+03 -0.14804977728E+03 -0.39463653727E+03  0.47344982298E+03  0.16500000000E+03 0.  0.
<mgrwt>
<rscale>  0 0.54948344E+03</rscale>
<asrwt>0</asrwt>
<pdfrwt beam="1">  1        1 0.19242773E+00 0.54948344E+03</pdfrwt>
<pdfrwt beam="2">  1       -1 0.92844214E-02 0.54948344E+03</pdfrwt>
<totfact> 0.71118440E+02</totfact>
</mgrwt>
</event>
<event>
 4    1  0.2228009E-005  0.5272862E+03  0.7818608E-02  0.1006892E+00
          1   -1    0    0  501    0  0.00000000000E+00  0.00000000000E+00  0.66396882182E+02  0.66396882374E+02  0.50400000000E-02 0. -1.
         -1   -1    0    0    0  501 -0.00000000000E+00 -0.00000000000E+00 -0.10468517169E+04  0.10468517169E+04  0.50400000000E-02 0.  1.
    5000001    1    1    2    0    0 -0.42037059748E+02 -0.10502540512E+03 -0.12769398100E+03  0.23733563343E+03  0.16500000000E+03 0.  0.
   -5000001    1    1    2    0    0  0.42037059748E+02  0.10502540512E+03 -0.85276085371E+03  0.87591296585E+03  0.16500000000E+03 0.  0.
<mgrwt>
<rscale>  0 0.52728622E+03</rscale>
<asrwt>0</asrwt>
<pdfrwt beam="1">  1        1 0.10214906E-01 0.52728622E+03</pdfrwt>
<pdfrwt beam="2">  1       -1 0.16105410E+00 0.52728622E+03</pdfrwt>
<totfact> 0.19209827E+02</totfact>
</mgrwt>
</event>
<event>
 4    1  0.2228009E-005  0.3608273E+03  0.7818608E-02  0.1058257E+00
         -1   -1    0    0    0  501 -0.00000000000E+00  0.00000000000E+00  0.30097616353E+03  0.30097616357E+03  0.50400000000E-02 0. -1.
          1   -1    0    0  501    0  0.00000000000E+00 -0.00000000000E+00 -0.10814508675E+03  0.10814508686E+03  0.50400000000E-02 0.  1.
    5000001    1    1    2    0    0  0.39544525517E+02  0.46743616445E+02  0.51412457209E+02  0.18334932760E+03  0.16500000000E+03 0.  0.
   -5000001    1    1    2    0    0 -0.39544525517E+02 -0.46743616445E+02  0.14141861957E+03  0.22577192283E+03  0.16500000000E+03 0.  0.
<mgrwt>
<rscale>  0 0.36082735E+03</rscale>
<asrwt>0</asrwt>
<pdfrwt beam="1">  1        1 0.16637706E-01 0.36082735E+03</pdfrwt>
<pdfrwt beam="2">  1       -1 0.46304025E-01 0.36082735E+03</pdfrwt>
<totfact> 0.15448633E+03</totfact>
</mgrwt>
</event>
<event>
 4    1  0.2228009E-005  0.4633574E+03  0.7818608E-02  0.1023812E+00
         -1   -1    0    0    0  501 -0.00000000000E+00  0.00000000000E+00  0.13293842288E+03  0.13293842297E+03  0.50400000000E-02 0.  1.
          1   -1    0    0  501    0  0.00000000000E+00 -0.00000000000E+00 -0.40375851780E+03  0.40375851783E+03  0.50400000000E-02 0. -1.
    5000001    1    1    2    0    0  0.94666526360E+02  0.12782613121E+03 -0.96152271077E+02  0.24853879027E+03  0.16500000000E+03 0.  0.
   -5000001    1    1    2    0    0 -0.94666526360E+02 -0.12782613121E+03 -0.17466782385E+03  0.28815815054E+03  0.16500000000E+03 0.  0.
<mgrwt>
<rscale>  0 0.46335740E+03</rscale>
<asrwt>0</asrwt>
<pdfrwt beam="1">  1        1 0.62116694E-01 0.46335740E+03</pdfrwt>
<pdfrwt beam="2">  1       -1 0.20452065E-01 0.46335740E+03</pdfrwt>
<totfact> 0.11675375E+03</totfact>
</mgrwt>
</event>
<event>
 4    1  0.2228009E-005  0.6613137E+03  0.7818608E-02  0.9785778E-01
          1   -1    0    0  501    0  0.00000000000E+00  0.00000000000E+00  0.11734540085E+04  0.11734540085E+04  0.50400000000E-02 0.  1.
         -1   -1    0    0    0  501 -0.00000000000E+00 -0.00000000000E+00 -0.93172756686E+02  0.93172756822E+02  0.50400000000E-02 0. -1.
    5000001    1    1    2    0    0 -0.16581953193E+03  0.12990141097E+03  0.16806331117E+03  0.31597590146E+03  0.16500000000E+03 0.  0.
   -5000001    1    1    2    0    0  0.16581953193E+03 -0.12990141097E+03  0.91221794060E+03  0.95065086382E+03  0.16500000000E+03 0.  0.
<mgrwt>
<rscale>  0 0.66131368E+03</rscale>
<asrwt>0</asrwt>
<pdfrwt beam="1">  1        1 0.18053138E+00 0.66131368E+03</pdfrwt>
<pdfrwt beam="2">  1       -1 0.14334271E-01 0.66131368E+03</pdfrwt>
<totfact> 0.40238370E+02</totfact>
</mgrwt>
</event>
<event>
 4    1  0.2228009E-005  0.4475343E+03  0.7818608E-02  0.1028460E+00
          1   -1    0    0  501    0  0.00000000000E+00  0.00000000000E+00  0.60559628941E+03  0.60559628944E+03  0.50400000000E-02 0.  1.
         -1   -1    0    0    0  501 -0.00000000000E+00 -0.00000000000E+00 -0.82681709185E+02  0.82681709338E+02  0.50400000000E-02 0. -1.
    5000001    1    1    2    0    0  0.41681704613E+02  0.14008156185E+03  0.20216146802E+03  0.29908939737E+03  0.16500000000E+03 0.  0.
   -5000001    1    1    2    0    0 -0.41681704613E+02 -0.14008156185E+03  0.32075311221E+03  0.38918860140E+03  0.16500000000E+03 0.  0.
<mgrwt>
<rscale>  0 0.44753430E+03</rscale>
<asrwt>0</asrwt>
<pdfrwt beam="1">  1        1 0.93168661E-01 0.44753430E+03</pdfrwt>
<pdfrwt beam="2">  1       -1 0.12720263E-01 0.44753430E+03</pdfrwt>
<totfact> 0.14541590E+03</totfact>
</mgrwt>
</event>
<event>
 4    1  0.2228009E-005  0.3772243E+03  0.7818608E-02  0.1051964E+00
          1   -1    0    0  501    0  0.00000000000E+00  0.00000000000E+00  0.60743569939E+03  0.60743569941E+03  0.50400000000E-02 0.  1.
         -1   -1    0    0    0  501 -0.00000000000E+00 -0.00000000000E+00 -0.58565118721E+02  0.58565118938E+02  0.50400000000E-02 0. -1.
    5000001    1    1    2    0    0 -0.69476395556E+02 -0.53100498387E+02  0.32124386414E+03  0.37157671175E+03  0.16500000000E+03 0.  0.
   -5000001    1    1    2    0    0  0.69476395556E+02  0.53100498387E+02  0.22762671654E+03  0.29442410660E+03  0.16500000000E+03 0.  0.
<mgrwt>
<rscale>  0 0.37722430E+03</rscale>
<asrwt>0</asrwt>
<pdfrwt beam="1">  1        1 0.93451651E-01 0.37722430E+03</pdfrwt>
<pdfrwt beam="2">  1       -1 0.90100178E-02 0.37722430E+03</pdfrwt>
<totfact> 0.24862888E+03</totfact>
</mgrwt>
</event>
<event>
 4    1  0.2228009E-005  0.3647085E+03  0.7818608E-02  0.1056735E+00
         -1   -1    0    0    0  501 -0.00000000000E+00  0.00000000000E+00  0.28347639578E+02  0.28347640026E+02  0.50400000000E-02 0. -1.
          1   -1    0    0  501    0  0.00000000000E+00 -0.00000000000E+00 -0.11730454463E+04  0.11730454463E+04  0.50400000000E-02 0.  1.
    5000001    1    1    2    0    0 -0.60449946934E+02  0.58615713958E+01 -0.73168062253E+03  0.75250919429E+03  0.16500000000E+03 0.  0.
   -5000001    1    1    2    0    0  0.60449946934E+02 -0.58615713958E+01 -0.41301718422E+03  0.44888389207E+03  0.16500000000E+03 0.  0.
<mgrwt>
<rscale>  0 0.36470849E+03</rscale>
<asrwt>0</asrwt>
<pdfrwt beam="1">  1        1 0.18046849E+00 0.36470849E+03</pdfrwt>
<pdfrwt beam="2">  1       -1 0.43611763E-02 0.36470849E+03</pdfrwt>
<totfact> 0.25891667E+03</totfact>
</mgrwt>
</event>
<event>
 4    1  0.2228009E-005  0.4160160E+03  0.7818608E-02  0.1038371E+00
          1   -1    0    0  501    0  0.00000000000E+00  0.00000000000E+00  0.15694443994E+04  0.15694443995E+04  0.50400000000E-02 0.  1.
         -1   -1    0    0    0  501 -0.00000000000E+00 -0.00000000000E+00 -0.27568568267E+02  0.27568568727E+02  0.50400000000E-02 0. -1.
    5000001    1    1    2    0    0 -0.60784236433E+02 -0.10868776390E+03  0.85969551474E+03  0.88419971244E+03  0.16500000000E+03 0.  0.
   -5000001    1    1    2    0    0  0.60784236433E+02  0.10868776390E+03  0.68218031644E+03  0.71281325574E+03  0.16500000000E+03 0.  0.
<mgrwt>
<rscale>  0 0.41601604E+03</rscale>
<asrwt>0</asrwt>
<pdfrwt beam="1">  1        1 0.24145295E+00 0.41601604E+03</pdfrwt>
<pdfrwt beam="2">  1       -1 0.42413189E-02 0.41601604E+03</pdfrwt>
<totfact> 0.14422438E+03</totfact>
</mgrwt>
</event>
<event>
 4    1  0.2228009E-005  0.4905126E+03  0.7818608E-02  0.1016285E+00
          1   -1    0    0  501    0  0.00000000000E+00  0.00000000000E+00  0.14083474791E+04  0.14083474791E+04  0.50400000000E-02 0.  1.
         -1   -1    0    0    0  501 -0.00000000000E+00 -0.00000000000E+00 -0.42710100498E+02  0.42710100796E+02  0.50400000000E-02 0. -1.
    5000001    1    1    2    0    0 -0.61193143145E+02  0.11763372227E+03  0.31638549331E+03  0.38066661761E+03  0.16500000000E+03 0.  0.
   -5000001    1    1    2    0    0  0.61193143145E+02 -0.11763372227E+03  0.10492518853E+04  0.10703909623E+04  0.16500000000E+03 0.  0.
<mgrwt>
<rscale>  0 0.49051264E+03</rscale>
<asrwt>0</asrwt>
<pdfrwt beam="1">  1        1 0.21666887E+00 0.49051264E+03</pdfrwt>
<pdfrwt beam="2">  1       -1 0.65707838E-02 0.49051264E+03</pdfrwt>
<totfact> 0.94800242E+02</totfact>
</mgrwt>
</event>
<event>
 4    1  0.2228009E-005  0.3831200E+03  0.7818608E-02  0.1049787E+00
          1   -1    0    0  501    0  0.00000000000E+00  0.00000000000E+00  0.16175507406E+04  0.16175507406E+04  0.50400000000E-02 0. -1.
         -1   -1    0    0    0  501 -0.00000000000E+00 -0.00000000000E+00 -0.22685678276E+02  0.22685678836E+02  0.50400000000E-02 0.  1.
    5000001    1    1    2    0    0 -0.71016711908E+02 -0.26405050687E+01  0.10820603651E+04  0.10968728182E+04  0.16500000000E+03 0.  0.
   -5000001    1    1    2    0    0  0.71016711908E+02  0.26405050687E+01  0.51280469724E+03  0.54336360124E+03  0.16500000000E+03 0.  0.
<mgrwt>
<rscale>  0 0.38312001E+03</rscale>
<asrwt>0</asrwt>
<pdfrwt beam="1">  1        1 0.24885380E+00 0.38312001E+03</pdfrwt>
<pdfrwt beam="2">  1       -1 0.34901066E-02 0.38312001E+03</pdfrwt>
<totfact> 0.17979711E+03</totfact>
</mgrwt>
</event>
<event>
 4    1  0.2228009E-005  0.7791552E+03  0.7818608E-02  0.9590689E-01
          1   -1    0    0  501    0  0.00000000000E+00  0.00000000000E+00  0.24780711440E+03  0.24780711445E+03  0.50400000000E-02 0.  1.
         -1   -1    0    0    0  501 -0.00000000000E+00 -0.00000000000E+00 -0.61245501776E+03  0.61245501778E+03  0.50400000000E-02 0. -1.
    5000001    1    1    2    0    0  0.32702589192E+03  0.15343453763E+02 -0.32781496083E+03  0.49180179351E+03  0.16500000000E+03 0.  0.
   -5000001    1    1    2    0    0 -0.32702589192E+03 -0.15343453763E+02 -0.36832942541E+02  0.36846033872E+03  0.16500000000E+03 0.  0.
<mgrwt>
<rscale>  0 0.77915521E+03</rscale>
<asrwt>0</asrwt>
<pdfrwt beam="1">  1        1 0.38124172E-01 0.77915521E+03</pdfrwt>
<pdfrwt beam="2">  1       -1 0.94223848E-01 0.77915521E+03</pdfrwt>
<totfact> 0.12433054E+02</totfact>
</mgrwt>
</event>
<event>
 4    1  0.2228009E-005  0.4436932E+03  0.7818608E-02  0.1029620E+00
          1   -1    0    0  501    0  0.00000000000E+00  0.00000000000E+00  0.43888388546E+03  0.43888388549E+03  0.50400000000E-02 0.  1.
         -1   -1    0    0    0  501 -0.00000000000E+00 -0.00000000000E+00 -0.11213878964E+03  0.11213878975E+03  0.50400000000E-02 0. -1.
    5000001    1    1    2    0    0 -0.13657500078E+03  0.57183130822E+02  0.17363356480E+03  0.28159590927E+03  0.16500000000E+03 0.  0.
   -5000001    1    1    2    0    0  0.13657500078E+03 -0.57183130822E+02  0.15311153102E+03  0.26942676597E+03  0.16500000000E+03 0.  0.
<mgrwt>
<rscale>  0 0.44369317E+03</rscale>
<asrwt>0</asrwt>
<pdfrwt beam="1">  1        1 0.67520597E-01 0.44369317E+03</pdfrwt>
<pdfrwt beam="2">  1       -1 0.17252122E-01 0.44369317E+03</pdfrwt>
<totfact> 0.13827488E+03</totfact>
</mgrwt>
</event>
<event>
 4    1  0.2228009E-005  0.7720564E+03  0.7818608E-02  0.9601369E-01
          1   -1    0    0  501    0  0.00000000000E+00  0.00000000000E+00  0.15422059950E+04  0.15422059950E+04  0.50400000000E-02 0.  1.
         -1   -1    0    0    0  501 -0.00000000000E+00 -0.00000000000E+00 -0.96626379496E+02  0.96626379628E+02  0.50400000000E-02 0. -1.
    5000001    1    1    2    0    0 -0.24003238105E+02 -0.33754233004E+03  0.90392586909E+03  0.97919250243E+03  0.16500000000E+03 0.  0.
   -5000001    1    1    2    0    0  0.24003238105E+02  0.33754233004E+03  0.54165374644E+03  0.65963987223E+03  0.16500000000E+03 0.  0.
<mgrwt>
<rscale>  0 0.77205643E+03</rscale>
<asrwt>0</asrwt>
<pdfrwt beam="1">  1        1 0.23726245E+00 0.77205643E+03</pdfrwt>
<pdfrwt beam="2">  1       -1 0.14865597E-01 0.77205643E+03</pdfrwt>
<totfact> 0.20779183E+02</totfact>
</mgrwt>
</event>
<event>
 4    1  0.2228009E-005  0.4383108E+03  0.7818608E-02  0.1031266E+00
          1   -1    0    0  501    0  0.00000000000E+00  0.00000000000E+00  0.10957431824E+04  0.10957431824E+04  0.50400000000E-02 0.  1.
         -1   -1    0    0    0  501 -0.00000000000E+00 -0.00000000000E+00 -0.43832428637E+02  0.43832428927E+02  0.50400000000E-02 0. -1.
    5000001    1    1    2    0    0  0.16921266779E+02 -0.14214161516E+03  0.47992001795E+03  0.52729383806E+03  0.16500000000E+03 0.  0.
   -5000001    1    1    2    0    0 -0.16921266779E+02  0.14214161516E+03  0.57199073584E+03  0.61228177330E+03  0.16500000000E+03 0.  0.
<mgrwt>
<rscale>  0 0.43831078E+03</rscale>
<asrwt>0</asrwt>
<pdfrwt beam="1">  1        1 0.16857584E+00 0.43831078E+03</pdfrwt>
<pdfrwt beam="2">  1       -1 0.67434519E-02 0.43831078E+03</pdfrwt>
<totfact> 0.15170506E+03</totfact>
</mgrwt>
</event>
<event>
 4    1  0.2228009E-005  0.5993483E+03  0.7818608E-02  0.9906759E-01
         -1   -1    0    0    0  501 -0.00000000000E+00  0.00000000000E+00  0.65001300002E+02  0.65001300198E+02  0.50400000000E-02 0. -1.
          1   -1    0    0  501    0  0.00000000000E+00 -0.00000000000E+00 -0.13815814074E+04  0.13815814074E+04  0.50400000000E-02 0.  1.
    5000001    1    1    2    0    0 -0.12031864384E+03 -0.19449159910E+03 -0.90295777851E+03  0.94597109256E+03  0.16500000000E+03 0.  0.
   -5000001    1    1    2    0    0  0.12031864384E+03  0.19449159910E+03 -0.41362232890E+03  0.50061161506E+03  0.16500000000E+03 0.  0.
<mgrwt>
<rscale>  0 0.59934827E+03</rscale>
<asrwt>0</asrwt>
<pdfrwt beam="1">  1        1 0.21255096E+00 0.59934827E+03</pdfrwt>
<pdfrwt beam="2">  1       -1 0.10000201E-01 0.59934827E+03</pdfrwt>
<totfact> 0.51116060E+02</totfact>
</mgrwt>
</event>
<event>
 4    1  0.2228009E-005  0.4956176E+03  0.7818608E-02  0.1014929E+00
         -1   -1    0    0    0  501 -0.00000000000E+00  0.00000000000E+00  0.14828521316E+03  0.14828521325E+03  0.50400000000E-02 0. -1.
          1   -1    0    0  501    0  0.00000000000E+00 -0.00000000000E+00 -0.41412903332E+03  0.41412903335E+03  0.50400000000E-02 0.  1.
    5000001    1    1    2    0    0 -0.68972258077E+02 -0.12439628283E+03 -0.26696276727E+03  0.34456599756E+03  0.16500000000E+03 0.  0.
   -5000001    1    1    2    0    0  0.68972258077E+02  0.12439628283E+03  0.11189471167E+01  0.21784824904E+03  0.16500000000E+03 0.  0.
<mgrwt>
<rscale>  0 0.49561764E+03</rscale>
<asrwt>0</asrwt>
<pdfrwt beam="1">  1        1 0.63712158E-01 0.49561764E+03</pdfrwt>
<pdfrwt beam="2">  1       -1 0.22813110E-01 0.49561764E+03</pdfrwt>
<totfact> 0.94149991E+02</totfact>
</mgrwt>
</event>
<event>
 4    1  0.2228009E-005  0.4412717E+03  0.7818608E-02  0.1030357E+00
         -1   -1    0    0    0  501 -0.00000000000E+00  0.00000000000E+00  0.43668352920E+03  0.43668352923E+03  0.50400000000E-02 0. -1.
          1   -1    0    0  501    0  0.00000000000E+00 -0.00000000000E+00 -0.11147702402E+03  0.11147702414E+03  0.50400000000E-02 0.  1.
    5000001    1    1    2    0    0 -0.60701788740E+02  0.73885788259E+02  0.24769756743E+02  0.19230797620E+03  0.16500000000E+03 0.  0.
   -5000001    1    1    2    0    0  0.60701788740E+02 -0.73885788259E+02  0.30043674843E+03  0.35585257716E+03  0.16500000000E+03 0.  0.
<mgrwt>
<rscale>  0 0.44127171E+03</rscale>
<asrwt>0</asrwt>
<pdfrwt beam="1">  1        1 0.17150311E-01 0.44127171E+03</pdfrwt>
<pdfrwt beam="2">  1       -1 0.67182081E-01 0.44127171E+03</pdfrwt>
<totfact> 0.72853867E+02</totfact>
</mgrwt>
</event>
<event>
 4    1  0.2228009E-005  0.6830517E+03  0.7818608E-02  0.9746663E-01
          1   -1    0    0  501    0  0.00000000000E+00  0.00000000000E+00  0.31096231126E+03  0.31096231130E+03  0.50400000000E-02 0.  1.
         -1   -1    0    0    0  501 -0.00000000000E+00 -0.00000000000E+00 -0.37509333543E+03  0.37509333546E+03  0.50400000000E-02 0. -1.
    5000001    1    1    2    0    0  0.15321003590E+03  0.25488263501E+03 -0.63450621321E+02  0.34596163671E+03  0.16500000000E+03 0.  0.
   -5000001    1    1    2    0    0 -0.15321003590E+03 -0.25488263501E+03 -0.68040284982E+00  0.34009401006E+03  0.16500000000E+03 0.  0.
<mgrwt>
<rscale>  0 0.68305165E+03</rscale>
<asrwt>0</asrwt>
<pdfrwt beam="1">  1        1 0.47840356E-01 0.68305165E+03</pdfrwt>
<pdfrwt beam="2">  1       -1 0.57706667E-01 0.68305165E+03</pdfrwt>
<totfact> 0.25808417E+02</totfact>
</mgrwt>
</event>
<event>
 4    1  0.2228009E-005  0.4497750E+03  0.7818608E-02  0.1027789E+00
         -1   -1    0    0    0  501 -0.00000000000E+00  0.00000000000E+00  0.11117587863E+03  0.11117587875E+03  0.50400000000E-02 0. -1.
          1   -1    0    0  501    0  0.00000000000E+00 -0.00000000000E+00 -0.45490423662E+03  0.45490423665E+03  0.50400000000E-02 0.  1.
    5000001    1    1    2    0    0 -0.31022522720E+02 -0.14798796396E+03 -0.14410263474E+03  0.26618302675E+03  0.16500000000E+03 0.  0.
   -5000001    1    1    2    0    0  0.31022522720E+02  0.14798796396E+03 -0.19962572325E+03  0.29989708864E+03  0.16500000000E+03 0.  0.
<mgrwt>
<rscale>  0 0.44977496E+03</rscale>
<asrwt>0</asrwt>
<pdfrwt beam="1">  1        1 0.69985266E-01 0.44977496E+03</pdfrwt>
<pdfrwt beam="2">  1       -1 0.17103982E-01 0.44977496E+03</pdfrwt>
<totfact> 0.13371834E+03</totfact>
</mgrwt>
</event>
<event>
 4    1  0.2228009E-005  0.3844070E+03  0.7818608E-02  0.1049317E+00
         -1   -1    0    0    0  501 -0.00000000000E+00  0.00000000000E+00  0.76736518073E+02  0.76736518238E+02  0.50400000000E-02 0. -1.
          1   -1    0    0  501    0  0.00000000000E+00 -0.00000000000E+00 -0.48141599590E+03  0.48141599593E+03  0.50400000000E-02 0.  1.
    5000001    1    1    2    0    0  0.19140534362E+02 -0.39096324867E+02 -0.33075864013E+03  0.37218431011E+03  0.16500000000E+03 0.  0.
   -5000001    1    1    2    0    0 -0.19140534362E+02  0.39096324867E+02 -0.73920837704E+02  0.18596820406E+03  0.16500000000E+03 0.  0.
<mgrwt>
<rscale>  0 0.38440701E+03</rscale>
<asrwt>0</asrwt>
<pdfrwt beam="1">  1        1 0.74063998E-01 0.38440701E+03</pdfrwt>
<pdfrwt beam="2">  1       -1 0.11805618E-01 0.38440701E+03</pdfrwt>
<totfact> 0.22418050E+03</totfact>
</mgrwt>
</event>
<event>
 4    1  0.2228009E-005  0.3518172E+03  0.7818608E-02  0.1061872E+00
         -1   -1    0    0    0  501 -0.00000000000E+00  0.00000000000E+00  0.99446275863E+03  0.99446275864E+03  0.50400000000E-02 0. -1.
          1   -1    0    0  501    0  0.00000000000E+00 -0.00000000000E+00 -0.31116131686E+02  0.31116132094E+02  0.50400000000E-02 0.  1.
    5000001    1    1    2    0    0  0.60931305918E+02 -0.20350888531E+01  0.47748050305E+03  0.50885105525E+03  0.16500000000E+03 0.  0.
   -5000001    1    1    2    0    0 -0.60931305918E+02  0.20350888531E+01  0.48586612389E+03  0.51672783549E+03  0.16500000000E+03 0.  0.
<mgrwt>
<rscale>  0 0.35181719E+03</rscale>
<asrwt>0</asrwt>
<pdfrwt beam="1">  1        1 0.47870966E-02 0.35181719E+03</pdfrwt>
<pdfrwt beam="2">  1       -1 0.15299429E+00 0.35181719E+03</pdfrwt>
<totfact> 0.63553588E+02</totfact>
</mgrwt>
</event>
<event>
 4    1  0.2228009E-005  0.3710266E+03  0.7818608E-02  0.1054301E+00
          1   -1    0    0  501    0  0.00000000000E+00  0.00000000000E+00  0.14634070496E+04  0.14634070496E+04  0.50400000000E-02 0. -1.
         -1   -1    0    0    0  501 -0.00000000000E+00 -0.00000000000E+00 -0.23517161767E+02  0.23517162307E+02  0.50400000000E-02 0.  1.
    5000001    1    1    2    0    0  0.31985014041E+02 -0.75872967562E+02  0.63875455427E+03  0.66483992729E+03  0.16500000000E+03 0.  0.
   -5000001    1    1    2    0    0 -0.31985014041E+02  0.75872967562E+02  0.80113533353E+03  0.82208428458E+03  0.16500000000E+03 0.  0.
<mgrwt>
<rscale>  0 0.37102658E+03</rscale>
<asrwt>0</asrwt>
<pdfrwt beam="1">  1        1 0.22513958E+00 0.37102658E+03</pdfrwt>
<pdfrwt beam="2">  1       -1 0.36180244E-02 0.37102658E+03</pdfrwt>
<totfact> 0.21601251E+03</totfact>
</mgrwt>
</event>
<event>
 4    1  0.2228009E-005  0.5812179E+03  0.7818608E-02  0.9945158E-01
          1   -1    0    0  501    0  0.00000000000E+00  0.00000000000E+00  0.34566530189E+03  0.34566530193E+03  0.50400000000E-02 0. -1.
         -1   -1    0    0    0  501 -0.00000000000E+00 -0.00000000000E+00 -0.24432178934E+03  0.24432178939E+03  0.50400000000E-02 0.  1.
    5000001    1    1    2    0    0  0.96146556041E+02 -0.91894207350E+02  0.25251819025E+03  0.32966519681E+03  0.16500000000E+03 0.  0.
   -5000001    1    1    2    0    0 -0.96146556041E+02  0.91894207350E+02 -0.15117467769E+03  0.26032189450E+03  0.16500000000E+03 0.  0.
<mgrwt>
<rscale>  0 0.58121791E+03</rscale>
<asrwt>0</asrwt>
<pdfrwt beam="1">  1        1 0.53179277E-01 0.58121791E+03</pdfrwt>
<pdfrwt beam="2">  1       -1 0.37587968E-01 0.58121791E+03</pdfrwt>
<totfact> 0.50217123E+02</totfact>
</mgrwt>
</event>
<event>
 4    1  0.2228009E-005  0.4300880E+03  0.7818608E-02  0.1033832E+00
          1   -1    0    0  501    0  0.00000000000E+00  0.00000000000E+00  0.12197513421E+04  0.12197513421E+04  0.50400000000E-02 0.  1.
         -1   -1    0    0    0  501 -0.00000000000E+00 -0.00000000000E+00 -0.37912583945E+02  0.37912584280E+02  0.50400000000E-02 0. -1.
    5000001    1    1    2    0    0 -0.11259538053E+03 -0.73637074044E+02  0.67955630333E+03  0.71212492428E+03  0.16500000000E+03 0.  0.
   -5000001    1    1    2    0    0  0.11259538053E+03  0.73637074044E+02  0.50228245480E+03  0.54553900208E+03  0.16500000000E+03 0.  0.
<mgrwt>
<rscale>  0 0.43008802E+03</rscale>
<asrwt>0</asrwt>
<pdfrwt beam="1">  1        1 0.18765403E+00 0.43008802E+03</pdfrwt>
<pdfrwt beam="2">  1       -1 0.58327060E-02 0.43008802E+03</pdfrwt>
<totfact> 0.15425589E+03</totfact>
</mgrwt>
</event>
<event>
 4    1  0.2228009E-005  0.5377063E+03  0.7818608E-02  0.1004380E+00
          1   -1    0    0  501    0  0.00000000000E+00  0.00000000000E+00  0.12120647511E+04  0.12120647511E+04  0.50400000000E-02 0.  1.
         -1   -1    0    0    0  501 -0.00000000000E+00 -0.00000000000E+00 -0.59635442564E+02  0.59635442776E+02  0.50400000000E-02 0. -1.
    5000001    1    1    2    0    0 -0.82313968924E+02 -0.18220123480E+03  0.74484987904E+03  0.78866927273E+03  0.16500000000E+03 0.  0.
   -5000001    1    1    2    0    0  0.82313968924E+02  0.18220123480E+03  0.40757942950E+03  0.48303092116E+03  0.16500000000E+03 0.  0.
<mgrwt>
<rscale>  0 0.53770631E+03</rscale>
<asrwt>0</asrwt>
<pdfrwt beam="1">  1        1 0.18647150E+00 0.53770631E+03</pdfrwt>
<pdfrwt beam="2">  1       -1 0.91746836E-02 0.53770631E+03</pdfrwt>
<totfact> 0.77243240E+02</totfact>
</mgrwt>
</event>
<event>
 4    1  0.2228009E-005  0.4032945E+03  0.7818608E-02  0.1042645E+00
         -1   -1    0    0    0  501 -0.00000000000E+00  0.00000000000E+00  0.59047705631E+02  0.59047705846E+02  0.50400000000E-02 0. -1.
          1   -1    0    0  501    0  0.00000000000E+00 -0.00000000000E+00 -0.68862310578E+03  0.68862310580E+03  0.50400000000E-02 0.  1.
    5000001    1    1    2    0    0  0.86445027668E+02  0.76397362868E+02 -0.29386935417E+03  0.35622113523E+03  0.16500000000E+03 0.  0.
   -5000001    1    1    2    0    0 -0.86445027668E+02 -0.76397362868E+02 -0.33570604598E+03  0.39144967642E+03  0.16500000000E+03 0.  0.
<mgrwt>
<rscale>  0 0.40329451E+03</rscale>
<asrwt>0</asrwt>
<pdfrwt beam="1">  1        1 0.10594201E+00 0.40329451E+03</pdfrwt>
<pdfrwt beam="2">  1       -1 0.90842629E-02 0.40329451E+03</pdfrwt>
<totfact> 0.20497318E+03</totfact>
</mgrwt>
</event>
<event>
 4    1  0.2228009E-005  0.9105828E+03  0.7818608E-02  0.9412448E-01
         -1   -1    0    0    0  501 -0.00000000000E+00  0.00000000000E+00  0.18168083292E+03  0.18168083299E+03  0.50400000000E-02 0. -1.
          1   -1    0    0  501    0  0.00000000000E+00 -0.00000000000E+00 -0.11409582183E+04  0.11409582183E+04  0.50400000000E-02 0.  1.
    5000001    1    1    2    0    0  0.23993648947E+03 -0.34994840215E+03 -0.47144304150E+03  0.65537542258E+03  0.16500000000E+03 0.  0.
   -5000001    1    1    2    0    0 -0.23993648947E+03  0.34994840215E+03 -0.48783434387E+03  0.66726362871E+03  0.16500000000E+03 0.  0.
<mgrwt>
<rscale>  0 0.91058276E+03</rscale>
<asrwt>0</asrwt>
<pdfrwt beam="1">  1        1 0.17553203E+00 0.91058276E+03</pdfrwt>
<pdfrwt beam="2">  1       -1 0.27950898E-01 0.91058276E+03</pdfrwt>
<totfact> 0.13724276E+02</totfact>
</mgrwt>
</event>
<event>
 4    1  0.2228009E-005  0.6016214E+03  0.7818608E-02  0.9902048E-01
         -1   -1    0    0    0  501 -0.00000000000E+00  0.00000000000E+00  0.84334320586E+02  0.84334320736E+02  0.50400000000E-02 0. -1.
          1   -1    0    0  501    0  0.00000000000E+00 -0.00000000000E+00 -0.10729568289E+04  0.10729568289E+04  0.50400000000E-02 0.  1.
    5000001    1    1    2    0    0  0.24048847712E+03  0.30306413361E+02 -0.62347915099E+03  0.68898798105E+03  0.16500000000E+03 0.  0.
   -5000001    1    1    2    0    0 -0.24048847712E+03 -0.30306413361E+02 -0.36514335733E+03  0.46830316860E+03  0.16500000000E+03 0.  0.
<mgrwt>
<rscale>  0 0.60162143E+03</rscale>
<asrwt>0</asrwt>
<pdfrwt beam="1">  1        1 0.16507027E+00 0.60162143E+03</pdfrwt>
<pdfrwt beam="2">  1       -1 0.12974512E-01 0.60162143E+03</pdfrwt>
<totfact> 0.56203060E+02</totfact>
</mgrwt>
</event>
<event>
 4    1  0.2228009E-005  0.6507617E+03  0.7818608E-02  0.9805351E-01
         -1   -1    0    0    0  501 -0.00000000000E+00  0.00000000000E+00  0.12092686113E+03  0.12092686124E+03  0.50400000000E-02 0. -1.
          1   -1    0    0  501    0  0.00000000000E+00 -0.00000000000E+00 -0.87551023867E+03  0.87551023868E+03  0.50400000000E-02 0.  1.
    5000001    1    1    2    0    0  0.24394809201E+03 -0.99762285045E+02 -0.52403425866E+03  0.60934398279E+03  0.16500000000E+03 0.  0.
   -5000001    1    1    2    0    0 -0.24394809201E+03  0.99762285045E+02 -0.23054911888E+03  0.38709311713E+03  0.16500000000E+03 0.  0.
<mgrwt>
<rscale>  0 0.65076172E+03</rscale>
<asrwt>0</asrwt>
<pdfrwt beam="1">  1        1 0.13469388E+00 0.65076172E+03</pdfrwt>
<pdfrwt beam="2">  1       -1 0.18604133E-01 0.65076172E+03</pdfrwt>
<totfact> 0.44526567E+02</totfact>
</mgrwt>
</event>
<event>
 4    1  0.2228009E-005  0.7129622E+03  0.7818608E-02  0.9695318E-01
          1   -1    0    0  501    0  0.00000000000E+00  0.00000000000E+00  0.18249818831E+03  0.18249818838E+03  0.50400000000E-02 0.  1.
         -1   -1    0    0    0  501 -0.00000000000E+00 -0.00000000000E+00 -0.69632898623E+03  0.69632898624E+03  0.50400000000E-02 0. -1.
    5000001    1    1    2    0    0 -0.29099961856E+03  0.95590421039E+02 -0.16115353694E+03  0.38342374609E+03  0.16500000000E+03 0.  0.
   -5000001    1    1    2    0    0  0.29099961856E+03 -0.95590421039E+02 -0.35267726097E+03  0.49540342854E+03  0.16500000000E+03 0.  0.
<mgrwt>
<rscale>  0 0.71296221E+03</rscale>
<asrwt>0</asrwt>
<pdfrwt beam="1">  1        1 0.28076645E-01 0.71296221E+03</pdfrwt>
<pdfrwt beam="2">  1       -1 0.10712753E+00 0.71296221E+03</pdfrwt>
<totfact> 0.13837755E+02</totfact>
</mgrwt>
</event>
<event>
 4    1  0.2228009E-005  0.4116354E+03  0.7818608E-02  0.1039824E+00
         -1   -1    0    0    0  501 -0.00000000000E+00  0.00000000000E+00  0.17920983231E+03  0.17920983238E+03  0.50400000000E-02 0. -1.
          1   -1    0    0  501    0  0.00000000000E+00 -0.00000000000E+00 -0.23637614830E+03  0.23637614835E+03  0.50400000000E-02 0.  1.
    5000001    1    1    2    0    0 -0.11314722115E+03 -0.39426019212E+02 -0.56765667822E+02  0.21166966171E+03  0.16500000000E+03 0.  0.
   -5000001    1    1    2    0    0  0.11314722115E+03  0.39426019212E+02 -0.40064816965E+00  0.20391631902E+03  0.16500000000E+03 0.  0.
<mgrwt>
<rscale>  0 0.41163542E+03</rscale>
<asrwt>0</asrwt>
<pdfrwt beam="1">  1        1 0.36365561E-01 0.41163542E+03</pdfrwt>
<pdfrwt beam="2">  1       -1 0.27570744E-01 0.41163542E+03</pdfrwt>
<totfact> 0.14066871E+03</totfact>
</mgrwt>
</event>
<event>
 4    1  0.2228009E-005  0.4935839E+03  0.7818608E-02  0.1015467E+00
          1   -1    0    0  501    0  0.00000000000E+00  0.00000000000E+00  0.42542684287E+03  0.42542684290E+03  0.50400000000E-02 0.  1.
         -1   -1    0    0    0  501 -0.00000000000E+00 -0.00000000000E+00 -0.14316509970E+03  0.14316509978E+03  0.50400000000E-02 0. -1.
    5000001    1    1    2    0    0 -0.11750122335E+03 -0.46674995020E+02 -0.12111720932E+02  0.20822292485E+03  0.16500000000E+03 0.  0.
   -5000001    1    1    2    0    0  0.11750122335E+03  0.46674995020E+02  0.29437346411E+03  0.36036901784E+03  0.16500000000E+03 0.  0.
<mgrwt>
<rscale>  0 0.49358394E+03</rscale>
<asrwt>0</asrwt>
<pdfrwt beam="1">  1        1 0.65450284E-01 0.49358394E+03</pdfrwt>
<pdfrwt beam="2">  1       -1 0.22025400E-01 0.49358394E+03</pdfrwt>
<totfact> 0.96364063E+02</totfact>
</mgrwt>
</event>
<event>
 4    1  0.2228009E-005  0.5168598E+03  0.7818608E-02  0.1009470E+00
         -1   -1    0    0    0  501 -0.00000000000E+00  0.00000000000E+00  0.30731679826E+02  0.30731680239E+02  0.50400000000E-02 0.  1.
          1   -1    0    0  501    0  0.00000000000E+00 -0.00000000000E+00 -0.21731972536E+04  0.21731972536E+04  0.50400000000E-02 0. -1.
    5000001    1    1    2    0    0  0.14581371926E+03 -0.73107002784E+02 -0.58590068717E+03  0.63016735063E+03  0.16500000000E+03 0.  0.
   -5000001    1    1    2    0    0 -0.14581371926E+03  0.73107002784E+02 -0.15565648866E+04  0.15737615832E+04  0.16500000000E+03 0.  0.
<mgrwt>
<rscale>  0 0.51685976E+03</rscale>
<asrwt>0</asrwt>
<pdfrwt beam="1">  1        1 0.33433792E+00 0.51685976E+03</pdfrwt>
<pdfrwt beam="2">  1       -1 0.47279525E-02 0.51685976E+03</pdfrwt>
<totfact> 0.48394802E+02</totfact>
</mgrwt>
</event>
<event>
 4    1  0.2228009E-005  0.5807615E+03  0.7818608E-02  0.9946144E-01
          1   -1    0    0  501    0  0.00000000000E+00  0.00000000000E+00  0.54050120317E+03  0.54050120319E+03  0.50400000000E-02 0.  1.
         -1   -1    0    0    0  501 -0.00000000000E+00 -0.00000000000E+00 -0.15600515560E+03  0.15600515568E+03  0.50400000000E-02 0. -1.
    5000001    1    1    2    0    0 -0.15396510400E+03 -0.15092023164E+03  0.68692311280E+02  0.28004607334E+03  0.16500000000E+03 0.  0.
   -5000001    1    1    2    0    0  0.15396510400E+03  0.15092023164E+03  0.31580373629E+03  0.41646028553E+03  0.16500000000E+03 0.  0.
<mgrwt>
<rscale>  0 0.58076148E+03</rscale>
<asrwt>0</asrwt>
<pdfrwt beam="1">  1        1 0.83154032E-01 0.58076148E+03</pdfrwt>
<pdfrwt beam="2">  1       -1 0.24000793E-01 0.58076148E+03</pdfrwt>
<totfact> 0.60258056E+02</totfact>
</mgrwt>
</event>
<event>
 4    1  0.2228009E-005  0.4246201E+03  0.7818608E-02  0.1035573E+00
         -1   -1    0    0    0  501 -0.00000000000E+00  0.00000000000E+00  0.25356375983E+03  0.25356375988E+03  0.50400000000E-02 0.  1.
          1   -1    0    0  501    0  0.00000000000E+00 -0.00000000000E+00 -0.17776816152E+03  0.17776816159E+03  0.50400000000E-02 0. -1.
    5000001    1    1    2    0    0 -0.67966391068E+02 -0.81903832867E+02  0.11993885211E+03  0.23008258604E+03  0.16500000000E+03 0.  0.
   -5000001    1    1    2    0    0  0.67966391068E+02  0.81903832867E+02 -0.44143253810E+02  0.20124933543E+03  0.16500000000E+03 0.  0.
<mgrwt>
<rscale>  0 0.42462013E+03</rscale>
<asrwt>0</asrwt>
<pdfrwt beam="1">  1        1 0.27348948E-01 0.42462013E+03</pdfrwt>
<pdfrwt beam="2">  1       -1 0.39009809E-01 0.42462013E+03</pdfrwt>
<totfact> 0.11058903E+03</totfact>
</mgrwt>
</event>
<event>
 4    1  0.2228009E-005  0.5727969E+03  0.7818608E-02  0.9963508E-01
         -1   -1    0    0    0  501 -0.00000000000E+00  0.00000000000E+00  0.29653091596E+03  0.29653091600E+03  0.50400000000E-02 0.  1.
          1   -1    0    0  501    0  0.00000000000E+00 -0.00000000000E+00 -0.27661225538E+03  0.27661225543E+03  0.50400000000E-02 0. -1.
    5000001    1    1    2    0    0  0.12505640614E+02 -0.18522321854E+03  0.15264655490E+03  0.29153044859E+03  0.16500000000E+03 0.  0.
   -5000001    1    1    2    0    0 -0.12505640614E+02  0.18522321854E+03 -0.13272789432E+03  0.28161272284E+03  0.16500000000E+03 0.  0.
<mgrwt>
<rscale>  0 0.57279695E+03</rscale>
<asrwt>0</asrwt>
<pdfrwt beam="1">  1        1 0.42555731E-01 0.57279695E+03</pdfrwt>
<pdfrwt beam="2">  1       -1 0.45620141E-01 0.57279695E+03</pdfrwt>
<totfact> 0.47075238E+02</totfact>
</mgrwt>
</event>
<event>
 4    1  0.2228009E-005  0.9757940E+03  0.7818608E-02  0.9335499E-01
          1   -1    0    0  501    0  0.00000000000E+00  0.00000000000E+00  0.14295267502E+04  0.14295267502E+04  0.50400000000E-02 0.  1.
         -1   -1    0    0    0  501 -0.00000000000E+00 -0.00000000000E+00 -0.16651907840E+03  0.16651907848E+03  0.50400000000E-02 0. -1.
    5000001    1    1    2    0    0 -0.23444918298E+03  0.37344220080E+03  0.84092288241E+03  0.96374363339E+03  0.16500000000E+03 0.  0.
   -5000001    1    1    2    0    0  0.23444918298E+03 -0.37344220080E+03  0.42208478938E+03  0.63230219529E+03  0.16500000000E+03 0.  0.
<mgrwt>
<rscale>  0 0.97579399E+03</rscale>
<asrwt>0</asrwt>
<pdfrwt beam="1">  1        1 0.21992720E+00 0.97579399E+03</pdfrwt>
<pdfrwt beam="2">  1       -1 0.25618319E-01 0.97579399E+03</pdfrwt>
<totfact> 0.98740225E+01</totfact>
</mgrwt>
</event>
<event>
 4    1  0.2228009E-005  0.5696477E+03  0.7818608E-02  0.9970459E-01
          1   -1    0    0  501    0  0.00000000000E+00  0.00000000000E+00  0.27444379672E+03  0.27444379676E+03  0.50400000000E-02 0. -1.
         -1   -1    0    0    0  501 -0.00000000000E+00 -0.00000000000E+00 -0.29559645266E+03  0.29559645270E+03  0.50400000000E-02 0.  1.
    5000001    1    1    2    0    0 -0.21005100180E+03 -0.51345072048E+02  0.73991518067E+02  0.28188204009E+03  0.16500000000E+03 0.  0.
   -5000001    1    1    2    0    0  0.21005100180E+03  0.51345072048E+02 -0.95144174010E+02  0.28815820937E+03  0.16500000000E+03 0.  0.
<mgrwt>
<rscale>  0 0.56964766E+03</rscale>
<asrwt>0</asrwt>
<pdfrwt beam="1">  1        1 0.42222122E-01 0.56964766E+03</pdfrwt>
<pdfrwt beam="2">  1       -1 0.45476378E-01 0.56964766E+03</pdfrwt>
<totfact> 0.47836559E+02</totfact>
</mgrwt>
</event>
<event>
 4    1  0.2228009E-005  0.7791480E+03  0.7818608E-02  0.9590700E-01
          1   -1    0    0  501    0  0.00000000000E+00  0.00000000000E+00  0.47379848872E+03  0.47379848875E+03  0.50400000000E-02 0.  1.
         -1   -1    0    0    0  501 -0.00000000000E+00 -0.00000000000E+00 -0.32032160308E+03  0.32032160312E+03  0.50400000000E-02 0. -1.
    5000001    1    1    2    0    0 -0.11439347698E+03  0.23919370484E+03 -0.16063912287E+03  0.35118289225E+03  0.16500000000E+03 0.  0.
   -5000001    1    1    2    0    0  0.11439347698E+03 -0.23919370484E+03  0.31411600851E+03  0.44293719963E+03  0.16500000000E+03 0.  0.
<mgrwt>
<rscale>  0 0.77914797E+03</rscale>
<asrwt>0</asrwt>
<pdfrwt beam="1">  1        1 0.72892075E-01 0.77914797E+03</pdfrwt>
<pdfrwt beam="2">  1       -1 0.49280246E-01 0.77914797E+03</pdfrwt>
<totfact> 0.19932987E+02</totfact>
</mgrwt>
</event>
<event>
 4    1  0.2228009E-005  0.6417167E+03  0.7818608E-02  0.9822447E-01
          1   -1    0    0  501    0  0.00000000000E+00  0.00000000000E+00  0.81384735081E+03  0.81384735083E+03  0.50400000000E-02 0.  1.
         -1   -1    0    0    0  501 -0.00000000000E+00 -0.00000000000E+00 -0.12649804077E+03  0.12649804087E+03  0.50400000000E-02 0. -1.
    5000001    1    1    2    0    0 -0.91714024840E+01  0.25307184088E+03  0.18588043424E+03  0.35483236479E+03  0.16500000000E+03 0.  0.
   -5000001    1    1    2    0    0  0.91714024840E+01 -0.25307184088E+03  0.50146887580E+03  0.58551302690E+03  0.16500000000E+03 0.  0.
<mgrwt>
<rscale>  0 0.64171675E+03</rscale>
<asrwt>0</asrwt>
<pdfrwt beam="1">  1        1 0.12520728E+00 0.64171675E+03</pdfrwt>
<pdfrwt beam="2">  1       -1 0.19461237E-01 0.64171675E+03</pdfrwt>
<totfact> 0.46565084E+02</totfact>
</mgrwt>
</event>
<event>
 4    1  0.2228009E-005  0.5707883E+03  0.7818608E-02  0.9967936E-01
          1   -1    0    0  501    0  0.00000000000E+00  0.00000000000E+00  0.18013492594E+03  0.18013492601E+03  0.50400000000E-02 0.  1.
         -1   -1    0    0    0  501 -0.00000000000E+00 -0.00000000000E+00 -0.45216003529E+03  0.45216003532E+03  0.50400000000E-02 0. -1.
    5000001    1    1    2    0    0  0.21779916892E+03 -0.76651902673E+02 -0.10254393472E+03  0.30174865486E+03  0.16500000000E+03 0.  0.
   -5000001    1    1    2    0    0 -0.21779916892E+03  0.76651902673E+02 -0.16948117463E+03  0.33054630647E+03  0.16500000000E+03 0.  0.
<mgrwt>
<rscale>  0 0.57078828E+03</rscale>
<asrwt>0</asrwt>
<pdfrwt beam="1">  1        1 0.27713066E-01 0.57078828E+03</pdfrwt>
<pdfrwt beam="2">  1       -1 0.69563082E-01 0.57078828E+03</pdfrwt>
<totfact> 0.36157041E+02</totfact>
</mgrwt>
</event>
<event>
 4    1  0.2228009E-005  0.6196111E+03  0.7818608E-02  0.9865534E-01
         -1   -1    0    0    0  501 -0.00000000000E+00  0.00000000000E+00  0.22159778662E+03  0.22159778667E+03  0.50400000000E-02 0.  1.
          1   -1    0    0  501    0  0.00000000000E+00 -0.00000000000E+00 -0.43312477909E+03  0.43312477912E+03  0.50400000000E-02 0. -1.
    5000001    1    1    2    0    0 -0.24471983003E+03  0.61967971069E+02 -0.30846875391E+02  0.30315730961E+03  0.16500000000E+03 0.  0.
   -5000001    1    1    2    0    0  0.24471983003E+03 -0.61967971069E+02 -0.18068011709E+03  0.35156525619E+03  0.16500000000E+03 0.  0.
<mgrwt>
<rscale>  0 0.61961114E+03</rscale>
<asrwt>0</asrwt>
<pdfrwt beam="1">  1        1 0.66634581E-01 0.61961114E+03</pdfrwt>
<pdfrwt beam="2">  1       -1 0.34091967E-01 0.61961114E+03</pdfrwt>
<totfact> 0.44364586E+02</totfact>
</mgrwt>
</event>
<event>
 4    1  0.2228009E-005  0.6675353E+03  0.7818608E-02  0.9774421E-01
         -1   -1    0    0    0  501 -0.00000000000E+00  0.00000000000E+00  0.99682086453E+02  0.99682086580E+02  0.50400000000E-02 0.  1.
          1   -1    0    0  501    0  0.00000000000E+00 -0.00000000000E+00 -0.11175612653E+04  0.11175612653E+04  0.50400000000E-02 0. -1.
    5000001    1    1    2    0    0  0.95053500933E+02  0.17972200926E+03 -0.13151402525E+03  0.29301212857E+03  0.16500000000E+03 0.  0.
   -5000001    1    1    2    0    0 -0.95053500933E+02 -0.17972200926E+03 -0.88636515357E+03  0.92423122330E+03  0.16500000000E+03 0.  0.
<mgrwt>
<rscale>  0 0.66753528E+03</rscale>
<asrwt>0</asrwt>
<pdfrwt beam="1">  1        1 0.17193249E+00 0.66753528E+03</pdfrwt>
<pdfrwt beam="2">  1       -1 0.15335706E-01 0.66753528E+03</pdfrwt>
<totfact> 0.39617890E+02</totfact>
</mgrwt>
</event>
<event>
 4    1  0.2228009E-005  0.5158528E+03  0.7818608E-02  0.1009722E+00
          1   -1    0    0  501    0  0.00000000000E+00  0.00000000000E+00  0.73663605201E+03  0.73663605203E+03  0.50400000000E-02 0. -1.
         -1   -1    0    0    0  501 -0.00000000000E+00 -0.00000000000E+00 -0.90310583342E+02  0.90310583483E+02  0.50400000000E-02 0.  1.
    5000001    1    1    2    0    0 -0.15581635723E+03  0.67275287792E+02  0.15892595489E+03  0.28510903294E+03  0.16500000000E+03 0.  0.
   -5000001    1    1    2    0    0  0.15581635723E+03 -0.67275287792E+02  0.48739951378E+03  0.54183760257E+03  0.16500000000E+03 0.  0.
<mgrwt>
<rscale>  0 0.51585281E+03</rscale>
<asrwt>0</asrwt>
<pdfrwt beam="1">  1        1 0.11332863E+00 0.51585281E+03</pdfrwt>
<pdfrwt beam="2">  1       -1 0.13893935E-01 0.51585281E+03</pdfrwt>
<totfact> 0.94638624E+02</totfact>
</mgrwt>
</event>
<event>
 4    1  0.2228009E-005  0.5014589E+03  0.7818608E-02  0.1013399E+00
          1   -1    0    0  501    0  0.00000000000E+00  0.00000000000E+00  0.10821929548E+04  0.10821929548E+04  0.50400000000E-02 0.  1.
         -1   -1    0    0    0  501 -0.00000000000E+00 -0.00000000000E+00 -0.58090610612E+02  0.58090610831E+02  0.50400000000E-02 0. -1.
    5000001    1    1    2    0    0  0.18770570506E+03 -0.17472296505E+02  0.53496456047E+03  0.59072057168E+03  0.16500000000E+03 0.  0.
   -5000001    1    1    2    0    0 -0.18770570506E+03  0.17472296505E+02  0.48913778367E+03  0.54956299391E+03  0.16500000000E+03 0.  0.
<mgrwt>
<rscale>  0 0.50145887E+03</rscale>
<asrwt>0</asrwt>
<pdfrwt beam="1">  1        1 0.16649121E+00 0.50145887E+03</pdfrwt>
<pdfrwt beam="2">  1       -1 0.89370176E-02 0.50145887E+03</pdfrwt>
<totfact> 0.10017926E+03</totfact>
</mgrwt>
</event>
<event>
 4    1  0.2228009E-005  0.5843017E+03  0.7818608E-02  0.9938521E-01
          1   -1    0    0  501    0  0.00000000000E+00  0.00000000000E+00  0.49642035304E+03  0.49642035307E+03  0.50400000000E-02 0.  1.
         -1   -1    0    0    0  501 -0.00000000000E+00 -0.00000000000E+00 -0.17193519464E+03  0.17193519472E+03  0.50400000000E-02 0. -1.
    5000001    1    1    2    0    0  0.77913385467E+02  0.22329998222E+03  0.10866733239E+03  0.30816710860E+03  0.16500000000E+03 0.  0.
   -5000001    1    1    2    0    0 -0.77913385467E+02 -0.22329998222E+03  0.21581782601E+03  0.36018843918E+03  0.16500000000E+03 0.  0.
<mgrwt>
<rscale>  0 0.58430174E+03</rscale>
<asrwt>0</asrwt>
<pdfrwt beam="1">  1        1 0.76372361E-01 0.58430174E+03</pdfrwt>
<pdfrwt beam="2">  1       -1 0.26451569E-01 0.58430174E+03</pdfrwt>
<totfact> 0.57423534E+02</totfact>
</mgrwt>
</event>
<event>
 4    1  0.2228009E-005  0.4000762E+03  0.7818608E-02  0.1043753E+00
          1   -1    0    0  501    0  0.00000000000E+00  0.00000000000E+00  0.34423806333E+04  0.34423806333E+04  0.50400000000E-02 0.  1.
         -1   -1    0    0    0  501 -0.00000000000E+00 -0.00000000000E+00 -0.11624295355E+02  0.11624296448E+02  0.50400000000E-02 0. -1.
    5000001    1    1    2    0    0  0.54547598600E+02  0.39750420159E+02  0.24988158615E+04  0.25051669098E+04  0.16500000000E+03 0.  0.
   -5000001    1    1    2    0    0 -0.54547598600E+02 -0.39750420159E+02  0.93194047644E+03  0.94883801992E+03  0.16500000000E+03 0.  0.
<mgrwt>
<rscale>  0 0.40007625E+03</rscale>
<asrwt>0</asrwt>
<pdfrwt beam="1">  1        1 0.52959764E+00 0.40007625E+03</pdfrwt>
<pdfrwt beam="2">  1       -1 0.17883511E-02 0.40007625E+03</pdfrwt>
<totfact> 0.27293410E+02</totfact>
</mgrwt>
</event>
<event>
 4    1  0.2228009E-005  0.4934787E+03  0.7818608E-02  0.1015495E+00
          1   -1    0    0  501    0  0.00000000000E+00  0.00000000000E+00  0.12070199785E+04  0.12070199785E+04  0.50400000000E-02 0.  1.
         -1   -1    0    0    0  501 -0.00000000000E+00 -0.00000000000E+00 -0.50438524070E+02  0.50438524321E+02  0.50400000000E-02 0. -1.
    5000001    1    1    2    0    0  0.14348663709E+02  0.16570347047E+03  0.77553448051E+03  0.81014952616E+03  0.16500000000E+03 0.  0.
   -5000001    1    1    2    0    0 -0.14348663709E+02 -0.16570347047E+03  0.38104697392E+03  0.44730897667E+03  0.16500000000E+03 0.  0.
<mgrwt>
<rscale>  0 0.49347870E+03</rscale>
<asrwt>0</asrwt>
<pdfrwt beam="1">  1        1 0.18569540E+00 0.49347870E+03</pdfrwt>
<pdfrwt beam="2">  1       -1 0.77597720E-02 0.49347870E+03</pdfrwt>
<totfact> 0.10130872E+03</totfact>
</mgrwt>
</event>
<event>
 4    1  0.2228009E-005  0.5233071E+03  0.7818608E-02  0.1007868E+00
          1   -1    0    0  501    0  0.00000000000E+00  0.00000000000E+00  0.12506828301E+04  0.12506828302E+04  0.50400000000E-02 0.  1.
         -1   -1    0    0    0  501 -0.00000000000E+00 -0.00000000000E+00 -0.54740153873E+02  0.54740154105E+02  0.50400000000E-02 0. -1.
    5000001    1    1    2    0    0  0.59009921522E+02 -0.17064476759E+03  0.36615447751E+03  0.44033613177E+03  0.16500000000E+03 0.  0.
   -5000001    1    1    2    0    0 -0.59009921522E+02  0.17064476759E+03  0.82978819876E+03  0.86508685249E+03  0.16500000000E+03 0.  0.
<mgrwt>
<rscale>  0 0.52330706E+03</rscale>
<asrwt>0</asrwt>
<pdfrwt beam="1">  1        1 0.19241275E+00 0.52330706E+03</pdfrwt>
<pdfrwt beam="2">  1       -1 0.84215620E-02 0.52330706E+03</pdfrwt>
<totfact> 0.82951842E+02</totfact>
</mgrwt>
</event>
<event>
 4    1  0.2228009E-005  0.7651911E+03  0.7818608E-02  0.9611815E-01
          1   -1    0    0  501    0  0.00000000000E+00  0.00000000000E+00  0.13718109428E+04  0.13718109428E+04  0.50400000000E-02 0. -1.
         -1   -1    0    0    0  501 -0.00000000000E+00 -0.00000000000E+00 -0.10670520444E+03  0.10670520456E+03  0.50400000000E-02 0.  1.
    5000001    1    1    2    0    0  0.87136769742E+01  0.24949404034E+03  0.10931798947E+04  0.11333977618E+04  0.16500000000E+03 0.  0.
   -5000001    1    1    2    0    0 -0.87136769742E+01 -0.24949404034E+03  0.17192584367E+03  0.34511838556E+03  0.16500000000E+03 0.  0.
<mgrwt>
<rscale>  0 0.76519113E+03</rscale>
<asrwt>0</asrwt>
<pdfrwt beam="1">  1        1 0.21104782E+00 0.76519113E+03</pdfrwt>
<pdfrwt beam="2">  1       -1 0.16416187E-01 0.76519113E+03</pdfrwt>
<totfact> 0.23171067E+02</totfact>
</mgrwt>
</event>
<event>
 4    1  0.2228009E-005  0.6278278E+03  0.7818608E-02  0.9849297E-01
         -1   -1    0    0    0  501 -0.00000000000E+00  0.00000000000E+00  0.53126861219E+02  0.53126861458E+02  0.50400000000E-02 0. -1.
          1   -1    0    0  501    0  0.00000000000E+00 -0.00000000000E+00 -0.18548418792E+04  0.18548418792E+04  0.50400000000E-02 0.  1.
    5000001    1    1    2    0    0 -0.10665993506E+03 -0.11837739629E+03 -0.15521357335E+04  0.15689932711E+04  0.16500000000E+03 0.  0.
   -5000001    1    1    2    0    0  0.10665993506E+03  0.11837739629E+03 -0.24957928451E+03  0.33897546955E+03  0.16500000000E+03 0.  0.
<mgrwt>
<rscale>  0 0.62782777E+03</rscale>
<asrwt>0</asrwt>
<pdfrwt beam="1">  1        1 0.28536024E+00 0.62782777E+03</pdfrwt>
<pdfrwt beam="2">  1       -1 0.81733647E-02 0.62782777E+03</pdfrwt>
<totfact> 0.33557407E+02</totfact>
</mgrwt>
</event>
<event>
 4    1  0.2228009E-005  0.8575286E+03  0.7818608E-02  0.9480288E-01
          1   -1    0    0  501    0  0.00000000000E+00  0.00000000000E+00  0.24735044749E+03  0.24735044754E+03  0.50400000000E-02 0.  1.
         -1   -1    0    0    0  501 -0.00000000000E+00 -0.00000000000E+00 -0.74323225134E+03  0.74323225136E+03  0.50400000000E-02 0. -1.
    5000001    1    1    2    0    0 -0.17713678797E+02 -0.22199517008E+03 -0.62583572315E+03  0.68446401098E+03  0.16500000000E+03 0.  0.
   -5000001    1    1    2    0    0  0.17713678797E+02  0.22199517008E+03  0.12995391929E+03  0.30611868792E+03  0.16500000000E+03 0.  0.
<mgrwt>
<rscale>  0 0.85752861E+03</rscale>
<asrwt>0</asrwt>
<pdfrwt beam="1">  1        1 0.38053915E-01 0.85752861E+03</pdfrwt>
<pdfrwt beam="2">  1       -1 0.11434342E+00 0.85752861E+03</pdfrwt>
<totfact> 0.79293806E+01</totfact>
</mgrwt>
</event>
<event>
 4    1  0.2228009E-005  0.4840231E+03  0.7818608E-02  0.1018035E+00
          1   -1    0    0  501    0  0.00000000000E+00  0.00000000000E+00  0.70702786456E+02  0.70702786635E+02  0.50400000000E-02 0.  1.
         -1   -1    0    0    0  501 -0.00000000000E+00 -0.00000000000E+00 -0.82839137140E+03  0.82839137142E+03  0.50400000000E-02 0. -1.
    5000001    1    1    2    0    0  0.92062384720E+02  0.35693132008E+02 -0.65181541186E+03  0.67958650185E+03  0.16500000000E+03 0.  0.
   -5000001    1    1    2    0    0 -0.92062384720E+02 -0.35693132008E+02 -0.10587317308E+03  0.21950765620E+03  0.16500000000E+03 0.  0.
<mgrwt>
<rscale>  0 0.48402305E+03</rscale>
<asrwt>0</asrwt>
<pdfrwt beam="1">  1        1 0.10877352E-01 0.48402305E+03</pdfrwt>
<pdfrwt beam="2">  1       -1 0.12744482E+00 0.48402305E+03</pdfrwt>
<totfact> 0.32543414E+02</totfact>
</mgrwt>
</event>
<event>
 4    1  0.2228009E-005  0.4856962E+03  0.7818608E-02  0.1017581E+00
          1   -1    0    0  501    0  0.00000000000E+00  0.00000000000E+00  0.51047043494E+03  0.51047043496E+03  0.50400000000E-02 0.  1.
         -1   -1    0    0    0  501 -0.00000000000E+00 -0.00000000000E+00 -0.11553108894E+03  0.11553108905E+03  0.50400000000E-02 0. -1.
    5000001    1    1    2    0    0  0.17490317365E+03 -0.18743323536E+02  0.23410122441E+03  0.33611131430E+03  0.16500000000E+03 0.  0.
   -5000001    1    1    2    0    0 -0.17490317365E+03  0.18743323536E+02  0.16083812159E+03  0.28989020971E+03  0.16500000000E+03 0.  0.
<mgrwt>
<rscale>  0 0.48569622E+03</rscale>
<asrwt>0</asrwt>
<pdfrwt beam="1">  1        1 0.78533915E-01 0.48569622E+03</pdfrwt>
<pdfrwt beam="2">  1       -1 0.17774013E-01 0.48569622E+03</pdfrwt>
<totfact> 0.10754168E+03</totfact>
</mgrwt>
</event>
<event>
 4    1  0.2228009E-005  0.4984380E+03  0.7818608E-02  0.1014187E+00
          1   -1    0    0  501    0  0.00000000000E+00  0.00000000000E+00  0.61003565892E+03  0.61003565894E+03  0.50400000000E-02 0.  1.
         -1   -1    0    0    0  501 -0.00000000000E+00 -0.00000000000E+00 -0.10181390834E+03  0.10181390847E+03  0.50400000000E-02 0. -1.
    5000001    1    1    2    0    0 -0.13563153302E+03 -0.12836807305E+03  0.24940882364E+03  0.35256777538E+03  0.16500000000E+03 0.  0.
   -5000001    1    1    2    0    0  0.13563153302E+03  0.12836807305E+03  0.25881292693E+03  0.35928179202E+03  0.16500000000E+03 0.  0.
<mgrwt>
<rscale>  0 0.49843802E+03</rscale>
<asrwt>0</asrwt>
<pdfrwt beam="1">  1        1 0.93851640E-01 0.49843802E+03</pdfrwt>
<pdfrwt beam="2">  1       -1 0.15663678E-01 0.49843802E+03</pdfrwt>
<totfact> 0.10302038E+03</totfact>
</mgrwt>
</event>
<event>
 4    1  0.2228009E-005  0.4385323E+03  0.7818608E-02  0.1031198E+00
          1   -1    0    0  501    0  0.00000000000E+00  0.00000000000E+00  0.42347662501E+03  0.42347662504E+03  0.50400000000E-02 0.  1.
         -1   -1    0    0    0  501 -0.00000000000E+00 -0.00000000000E+00 -0.11353079633E+03  0.11353079644E+03  0.50400000000E-02 0. -1.
    5000001    1    1    2    0    0  0.11970336577E+03  0.67210700032E+02  0.10012066125E+03  0.23684450761E+03  0.16500000000E+03 0.  0.
   -5000001    1    1    2    0    0 -0.11970336577E+03 -0.67210700032E+02  0.20982516744E+03  0.30016291387E+03  0.16500000000E+03 0.  0.
<mgrwt>
<rscale>  0 0.43853227E+03</rscale>
<asrwt>0</asrwt>
<pdfrwt beam="1">  1        1 0.65150250E-01 0.43853227E+03</pdfrwt>
<pdfrwt beam="2">  1       -1 0.17466276E-01 0.43853227E+03</pdfrwt>
<totfact> 0.14206259E+03</totfact>
</mgrwt>
</event>
<event>
 4    1  0.2228009E-005  0.5199616E+03  0.7818608E-02  0.1008696E+00
          1   -1    0    0  501    0  0.00000000000E+00  0.00000000000E+00  0.33433569165E+04  0.33433569166E+04  0.50400000000E-02 0. -1.
         -1   -1    0    0    0  501 -0.00000000000E+00 -0.00000000000E+00 -0.20216210489E+02  0.20216211117E+02  0.50400000000E-02 0.  1.
    5000001    1    1    2    0    0 -0.73457044332E+02 -0.18577814985E+03  0.17996398075E+04  0.18181963302E+04  0.16500000000E+03 0.  0.
   -5000001    1    1    2    0    0  0.73457044332E+02  0.18577814985E+03  0.15235008985E+04  0.15453767975E+04  0.16500000000E+03 0.  0.
<mgrwt>
<rscale>  0 0.51996157E+03</rscale>
<asrwt>0</asrwt>
<pdfrwt beam="1">  1        1 0.51436206E+00 0.51996157E+03</pdfrwt>
<pdfrwt beam="2">  1       -1 0.31101895E-02 0.51996157E+03</pdfrwt>
<totfact> 0.13948871E+02</totfact>
</mgrwt>
</event>
<event>
 4    1  0.2228009E-005  0.1260716E+04  0.7818608E-02  0.9061312E-01
          1   -1    0    0  501    0  0.00000000000E+00  0.00000000000E+00  0.16257510937E+04  0.16257510937E+04  0.50400000000E-02 0.  1.
         -1   -1    0    0    0  501 -0.00000000000E+00 -0.00000000000E+00 -0.24441072159E+03  0.24441072164E+03  0.50400000000E-02 0. -1.
    5000001    1    1    2    0    0  0.42062701744E+02 -0.43280700991E+03  0.59504918436E+02  0.46888912765E+03  0.16500000000E+03 0.  0.
   -5000001    1    1    2    0    0 -0.42062701744E+02  0.43280700991E+03  0.13218354537E+04  0.14012726877E+04  0.16500000000E+03 0.  0.
<mgrwt>
<rscale>  0 0.12607157E+04</rscale>
<asrwt>0</asrwt>
<pdfrwt beam="1">  1        1 0.25011554E+00 0.12607157E+04</pdfrwt>
<pdfrwt beam="2">  1       -1 0.37601651E-01 0.12607157E+04</pdfrwt>
<totfact> 0.35994228E+01</totfact>
</mgrwt>
</event>
<event>
 4    1  0.2228009E-005  0.4058752E+03  0.7818608E-02  0.1041764E+00
          1   -1    0    0  501    0  0.00000000000E+00  0.00000000000E+00  0.37801030480E+04  0.37801030480E+04  0.50400000000E-02 0.  1.
         -1   -1    0    0    0  501 -0.00000000000E+00 -0.00000000000E+00 -0.10894851493E+02  0.10894852659E+02  0.50400000000E-02 0. -1.
    5000001    1    1    2    0    0 -0.10971996304E+03  0.43527227570E+02  0.19318384587E+04  0.19424618196E+04  0.16500000000E+03 0.  0.
   -5000001    1    1    2    0    0  0.10971996304E+03 -0.43527227570E+02  0.18373697378E+04  0.18485360811E+04  0.16500000000E+03 0.  0.
<mgrwt>
<rscale>  0 0.40587517E+03</rscale>
<asrwt>0</asrwt>
<pdfrwt beam="1">  1        1 0.58155512E+00 0.40587517E+03</pdfrwt>
<pdfrwt beam="2">  1       -1 0.16761288E-02 0.40587517E+03</pdfrwt>
<totfact> 0.16356848E+02</totfact>
</mgrwt>
</event>
<event>
 4    1  0.2228009E-005  0.6701355E+03  0.7818608E-02  0.9769713E-01
          1   -1    0    0  501    0  0.00000000000E+00  0.00000000000E+00  0.16778715507E+03  0.16778715515E+03  0.50400000000E-02 0.  1.
         -1   -1    0    0    0  501 -0.00000000000E+00 -0.00000000000E+00 -0.66912389789E+03  0.66912389791E+03  0.50400000000E-02 0. -1.
    5000001    1    1    2    0    0  0.18970887841E+03 -0.15649202474E+03 -0.54925694798E+02  0.30119934313E+03  0.16500000000E+03 0.  0.
   -5000001    1    1    2    0    0 -0.18970887841E+03  0.15649202474E+03 -0.44641104802E+03  0.53571170993E+03  0.16500000000E+03 0.  0.
<mgrwt>
<rscale>  0 0.67013549E+03</rscale>
<asrwt>0</asrwt>
<pdfrwt beam="1">  1        1 0.25813409E-01 0.67013549E+03</pdfrwt>
<pdfrwt beam="2">  1       -1 0.10294214E+00 0.67013549E+03</pdfrwt>
<totfact> 0.16970258E+02</totfact>
</mgrwt>
</event>
<event>
 4    1  0.2228009E-005  0.3781651E+03  0.7818608E-02  0.1051614E+00
         -1   -1    0    0    0  501 -0.00000000000E+00  0.00000000000E+00  0.78907785436E+02  0.78907785596E+02  0.50400000000E-02 0. -1.
          1   -1    0    0  501    0  0.00000000000E+00 -0.00000000000E+00 -0.45308848709E+03  0.45308848712E+03  0.50400000000E-02 0.  1.
    5000001    1    1    2    0    0 -0.48893263231E+02 -0.78299043217E+02 -0.19051257012E+03  0.26840516152E+03  0.16500000000E+03 0.  0.
   -5000001    1    1    2    0    0  0.48893263231E+02  0.78299043217E+02 -0.18366813153E+03  0.26359111119E+03  0.16500000000E+03 0.  0.
<mgrwt>
<rscale>  0 0.37816509E+03</rscale>
<asrwt>0</asrwt>
<pdfrwt beam="1">  1        1 0.69705920E-01 0.37816509E+03</pdfrwt>
<pdfrwt beam="2">  1       -1 0.12139660E-01 0.37816509E+03</pdfrwt>
<totfact> 0.23248894E+03</totfact>
</mgrwt>
</event>
<event>
 4    1  0.2228009E-005  0.7656704E+03  0.7818608E-02  0.9611082E-01
         -1   -1    0    0    0  501 -0.00000000000E+00  0.00000000000E+00  0.30787870887E+03  0.30787870891E+03  0.50400000000E-02 0. -1.
          1   -1    0    0  501    0  0.00000000000E+00 -0.00000000000E+00 -0.47604064784E+03  0.47604064787E+03  0.50400000000E-02 0.  1.
    5000001    1    1    2    0    0 -0.14478050093E+03 -0.12926004160E+02 -0.40493379223E+03  0.46078720807E+03  0.16500000000E+03 0.  0.
   -5000001    1    1    2    0    0  0.14478050093E+03  0.12926004160E+02  0.23677185326E+03  0.32313214871E+03  0.16500000000E+03 0.  0.
<mgrwt>
<rscale>  0 0.76567037E+03</rscale>
<asrwt>0</asrwt>
<pdfrwt beam="1">  1        1 0.73237023E-01 0.76567037E+03</pdfrwt>
<pdfrwt beam="2">  1       -1 0.47365955E-01 0.76567037E+03</pdfrwt>
<totfact> 0.21352494E+02</totfact>
</mgrwt>
</event>
<event>
 4    1  0.2228009E-005  0.5421559E+03  0.7818608E-02  0.1003326E+00
         -1   -1    0    0    0  501 -0.00000000000E+00  0.00000000000E+00  0.71592951463E+02  0.71592951640E+02  0.50400000000E-02 0. -1.
          1   -1    0    0  501    0  0.00000000000E+00 -0.00000000000E+00 -0.10264036386E+04  0.10264036386E+04  0.50400000000E-02 0.  1.
    5000001    1    1    2    0    0  0.14396942272E+03 -0.58907897124E+02 -0.77821286304E+03  0.81057855586E+03  0.16500000000E+03 0.  0.
   -5000001    1    1    2    0    0 -0.14396942272E+03  0.58907897124E+02 -0.17659782412E+03  0.28741803441E+03  0.16500000000E+03 0.  0.
<mgrwt>
<rscale>  0 0.54215594E+03</rscale>
<asrwt>0</asrwt>
<pdfrwt beam="1">  1        1 0.15790824E+00 0.54215594E+03</pdfrwt>
<pdfrwt beam="2">  1       -1 0.11014301E-01 0.54215594E+03</pdfrwt>
<totfact> 0.79298866E+02</totfact>
</mgrwt>
</event>
<event>
 4    1  0.2228009E-005  0.6353012E+03  0.7818608E-02  0.9834758E-01
         -1   -1    0    0    0  501 -0.00000000000E+00  0.00000000000E+00  0.17257449470E+03  0.17257449477E+03  0.50400000000E-02 0. -1.
          1   -1    0    0  501    0  0.00000000000E+00 -0.00000000000E+00 -0.58468601701E+03  0.58468601703E+03  0.50400000000E-02 0.  1.
    5000001    1    1    2    0    0 -0.20665636978E+03  0.15499299108E+03 -0.10670506447E+03  0.32456224864E+03  0.16500000000E+03 0.  0.
   -5000001    1    1    2    0    0  0.20665636978E+03 -0.15499299108E+03 -0.30540645784E+03  0.43269826317E+03  0.16500000000E+03 0.  0.
<mgrwt>
<rscale>  0 0.63530117E+03</rscale>
<asrwt>0</asrwt>
<pdfrwt beam="1">  1        1 0.89951694E-01 0.63530117E+03</pdfrwt>
<pdfrwt beam="2">  1       -1 0.26549923E-01 0.63530117E+03</pdfrwt>
<totfact> 0.45370840E+02</totfact>
</mgrwt>
</event>
<event>
 4    1  0.2228009E-005  0.3675095E+03  0.7818608E-02  0.1055649E+00
          1   -1    0    0  501    0  0.00000000000E+00  0.00000000000E+00  0.70754058179E+02  0.70754058359E+02  0.50400000000E-02 0.  1.
         -1   -1    0    0    0  501 -0.00000000000E+00 -0.00000000000E+00 -0.47722797719E+03  0.47722797722E+03  0.50400000000E-02 0. -1.
    5000001    1    1    2    0    0  0.72431907883E+02  0.14491362832E+02 -0.25233899679E+03  0.31041319266E+03  0.16500000000E+03 0.  0.
   -5000001    1    1    2    0    0 -0.72431907883E+02 -0.14491362832E+02 -0.15413492222E+03  0.23756884292E+03  0.16500000000E+03 0.  0.
<mgrwt>
<rscale>  0 0.36750954E+03</rscale>
<asrwt>0</asrwt>
<pdfrwt beam="1">  1        1 0.10885240E-01 0.36750954E+03</pdfrwt>
<pdfrwt beam="2">  1       -1 0.73419687E-01 0.36750954E+03</pdfrwt>
<totfact> 0.11176148E+03</totfact>
</mgrwt>
</event>
<event>
 4    1  0.2228009E-005  0.4525236E+03  0.7818608E-02  0.1026972E+00
         -1   -1    0    0    0  501 -0.00000000000E+00  0.00000000000E+00  0.84694931420E+02  0.84694931570E+02  0.50400000000E-02 0. -1.
          1   -1    0    0  501    0  0.00000000000E+00 -0.00000000000E+00 -0.60445643360E+03  0.60445643362E+03  0.50400000000E-02 0.  1.
    5000001    1    1    2    0    0 -0.14183465088E+03  0.43292661678E+02 -0.32761286422E+03  0.39565959049E+03  0.16500000000E+03 0.  0.
   -5000001    1    1    2    0    0  0.14183465088E+03 -0.43292661678E+02 -0.19214863796E+03  0.29349177470E+03  0.16500000000E+03 0.  0.
<mgrwt>
<rscale>  0 0.45252357E+03</rscale>
<asrwt>0</asrwt>
<pdfrwt beam="1">  1        1 0.92993295E-01 0.45252357E+03</pdfrwt>
<pdfrwt beam="2">  1       -1 0.13029990E-01 0.45252357E+03</pdfrwt>
<totfact> 0.14032646E+03</totfact>
</mgrwt>
</event>
<event>
 4    1  0.2228009E-005  0.6226711E+03  0.7818608E-02  0.9859456E-01
          1   -1    0    0  501    0  0.00000000000E+00  0.00000000000E+00  0.49450887568E+03  0.49450887570E+03  0.50400000000E-02 0. -1.
         -1   -1    0    0    0  501 -0.00000000000E+00 -0.00000000000E+00 -0.19601230285E+03  0.19601230292E+03  0.50400000000E-02 0.  1.
    5000001    1    1    2    0    0 -0.17376552541E+03  0.19872014374E+03  0.14420643027E+03  0.34308110977E+03  0.16500000000E+03 0.  0.
   -5000001    1    1    2    0    0  0.17376552541E+03 -0.19872014374E+03  0.15429014256E+03  0.34744006885E+03  0.16500000000E+03 0.  0.
<mgrwt>
<rscale>  0 0.62267110E+03</rscale>
<asrwt>0</asrwt>
<pdfrwt beam="1">  1        1 0.76078287E-01 0.62267110E+03</pdfrwt>
<pdfrwt beam="2">  1       -1 0.30155739E-01 0.62267110E+03</pdfrwt>
<totfact> 0.46003270E+02</totfact>
</mgrwt>
</event>
<event>
 4    1  0.2228009E-005  0.1036034E+04  0.7818608E-02  0.9269883E-01
          1   -1    0    0  501    0  0.00000000000E+00  0.00000000000E+00  0.74132141383E+03  0.74132141384E+03  0.50400000000E-02 0. -1.
         -1   -1    0    0    0  501 -0.00000000000E+00 -0.00000000000E+00 -0.36197713553E+03  0.36197713556E+03  0.50400000000E-02 0.  1.
    5000001    1    1    2    0    0 -0.33321003694E+03  0.10609878946E+03  0.55677114489E+03  0.67786797360E+03  0.16500000000E+03 0.  0.
   -5000001    1    1    2    0    0  0.33321003694E+03 -0.10609878946E+03 -0.17742686659E+03  0.42543057581E+03  0.16500000000E+03 0.  0.
<mgrwt>
<rscale>  0 0.10360336E+04</rscale>
<asrwt>0</asrwt>
<pdfrwt beam="1">  1        1 0.11404945E+00 0.10360336E+04</pdfrwt>
<pdfrwt beam="2">  1       -1 0.55688790E-01 0.10360336E+04</pdfrwt>
<totfact> 0.81372083E+01</totfact>
</mgrwt>
</event>
<event>
 4    1  0.2228009E-005  0.6310097E+03  0.7818608E-02  0.9843080E-01
          1   -1    0    0  501    0  0.00000000000E+00  0.00000000000E+00  0.25564748919E+04  0.25564748919E+04  0.50400000000E-02 0.  1.
         -1   -1    0    0    0  501 -0.00000000000E+00 -0.00000000000E+00 -0.38937718242E+02  0.38937718568E+02  0.50400000000E-02 0. -1.
    5000001    1    1    2    0    0 -0.43731452483E+02 -0.26487320317E+03  0.13235478956E+04  0.13605419089E+04  0.16500000000E+03 0.  0.
   -5000001    1    1    2    0    0  0.43731452483E+02  0.26487320317E+03  0.11939892780E+04  0.12348707016E+04  0.16500000000E+03 0.  0.
<mgrwt>
<rscale>  0 0.63100967E+03</rscale>
<asrwt>0</asrwt>
<pdfrwt beam="1">  1        1 0.39330375E+00 0.63100967E+03</pdfrwt>
<pdfrwt beam="2">  1       -1 0.59904195E-02 0.63100967E+03</pdfrwt>
<totfact> 0.18390996E+02</totfact>
</mgrwt>
</event>
<event>
 4    1  0.2228009E-005  0.4658649E+03  0.7818608E-02  0.1023094E+00
          1   -1    0    0  501    0  0.00000000000E+00  0.00000000000E+00  0.31212107729E+03  0.31212107733E+03  0.50400000000E-02 0.  1.
         -1   -1    0    0    0  501 -0.00000000000E+00 -0.00000000000E+00 -0.17383483515E+03  0.17383483522E+03  0.50400000000E-02 0. -1.
    5000001    1    1    2    0    0  0.81330596334E+02  0.13234783855E+03  0.12950650670E+02  0.22698752306E+03  0.16500000000E+03 0.  0.
   -5000001    1    1    2    0    0 -0.81330596334E+02 -0.13234783855E+03  0.12533559147E+03  0.25896838950E+03  0.16500000000E+03 0.  0.
<mgrwt>
<rscale>  0 0.46586486E+03</rscale>
<asrwt>0</asrwt>
<pdfrwt beam="1">  1        1 0.48018627E-01 0.46586486E+03</pdfrwt>
<pdfrwt beam="2">  1       -1 0.26743821E-01 0.46586486E+03</pdfrwt>
<totfact> 0.10392677E+03</totfact>
</mgrwt>
</event>
<event>
 4    1  0.2228009E-005  0.4664388E+03  0.7818608E-02  0.1022930E+00
          1   -1    0    0  501    0  0.00000000000E+00  0.00000000000E+00  0.86411398162E+02  0.86411398309E+02  0.50400000000E-02 0.  1.
         -1   -1    0    0    0  501 -0.00000000000E+00 -0.00000000000E+00 -0.62944572934E+03  0.62944572936E+03  0.50400000000E-02 0. -1.
    5000001    1    1    2    0    0 -0.15896398111E+02 -0.95400974724E+02 -0.66688368029E+02  0.20254969731E+03  0.16500000000E+03 0.  0.
   -5000001    1    1    2    0    0  0.15896398111E+02  0.95400974724E+02 -0.47634596315E+03  0.51330743036E+03  0.16500000000E+03 0.  0.
<mgrwt>
<rscale>  0 0.46643879E+03</rscale>
<asrwt>0</asrwt>
<pdfrwt beam="1">  1        1 0.13294062E-01 0.46643879E+03</pdfrwt>
<pdfrwt beam="2">  1       -1 0.96837802E-01 0.46643879E+03</pdfrwt>
<totfact> 0.47294072E+02</totfact>
</mgrwt>
</event>
<event>
 4    1  0.2228009E-005  0.3577211E+03  0.7818608E-02  0.1059490E+00
         -1   -1    0    0    0  501 -0.00000000000E+00  0.00000000000E+00  0.59819461653E+02  0.59819461865E+02  0.50400000000E-02 0. -1.
          1   -1    0    0  501    0  0.00000000000E+00 -0.00000000000E+00 -0.53479403327E+03  0.53479403330E+03  0.50400000000E-02 0.  1.
    5000001    1    1    2    0    0  0.19703231556E+02 -0.64329678449E+02 -0.26321511639E+03  0.31785802233E+03  0.16500000000E+03 0.  0.
   -5000001    1    1    2    0    0 -0.19703231556E+02  0.64329678449E+02 -0.21175945522E+03  0.27675547283E+03  0.16500000000E+03 0.  0.
<mgrwt>
<rscale>  0 0.35772107E+03</rscale>
<asrwt>0</asrwt>
<pdfrwt beam="1">  1        1 0.82276002E-01 0.35772107E+03</pdfrwt>
<pdfrwt beam="2">  1       -1 0.92029945E-02 0.35772107E+03</pdfrwt>
<totfact> 0.28687060E+03</totfact>
</mgrwt>
</event>
<event>
 4    1  0.2228009E-005  0.5844586E+03  0.7818608E-02  0.9938185E-01
          1   -1    0    0  501    0  0.00000000000E+00  0.00000000000E+00  0.19421855105E+04  0.19421855105E+04  0.50400000000E-02 0. -1.
         -1   -1    0    0    0  501 -0.00000000000E+00 -0.00000000000E+00 -0.43970031181E+02  0.43970031470E+02  0.50400000000E-02 0.  1.
    5000001    1    1    2    0    0 -0.15717440927E+03  0.18289760682E+03  0.93483971140E+03  0.97944148141E+03  0.16500000000E+03 0.  0.
   -5000001    1    1    2    0    0  0.15717440927E+03 -0.18289760682E+03  0.96337576788E+03  0.10067140605E+04  0.16500000000E+03 0.  0.
<mgrwt>
<rscale>  0 0.58445858E+03</rscale>
<asrwt>0</asrwt>
<pdfrwt beam="1">  1        1 0.29879772E+00 0.58445858E+03</pdfrwt>
<pdfrwt beam="2">  1       -1 0.67646214E-02 0.58445858E+03</pdfrwt>
<totfact> 0.39532880E+02</totfact>
</mgrwt>
</event>
<event>
 4    1  0.2228009E-005  0.6609429E+03  0.7818608E-02  0.9786460E-01
          1   -1    0    0  501    0  0.00000000000E+00  0.00000000000E+00  0.33404921067E+04  0.33404921067E+04  0.50400000000E-02 0.  1.
         -1   -1    0    0    0  501 -0.00000000000E+00 -0.00000000000E+00 -0.32693201551E+02  0.32693201939E+02  0.50400000000E-02 0. -1.
    5000001    1    1    2    0    0 -0.24241992655E+03 -0.70699614128E+02  0.96499862044E+03  0.10110455943E+04  0.16500000000E+03 0.  0.
   -5000001    1    1    2    0    0  0.24241992655E+03  0.70699614128E+02  0.23428002847E+04  0.23621397144E+04  0.16500000000E+03 0.  0.
<mgrwt>
<rscale>  0 0.66094291E+03</rscale>
<asrwt>0</asrwt>
<pdfrwt beam="1">  1        1 0.51392168E+00 0.66094291E+03</pdfrwt>
<pdfrwt beam="2">  1       -1 0.50297251E-02 0.66094291E+03</pdfrwt>
<totfact> 0.66237882E+01</totfact>
</mgrwt>
</event>
<event>
 4    1  0.2228009E-005  0.1232705E+04  0.7818608E-02  0.9084702E-01
         -1   -1    0    0    0  501 -0.00000000000E+00  0.00000000000E+00  0.49896134885E+03  0.49896134887E+03  0.50400000000E-02 0. -1.
          1   -1    0    0  501    0  0.00000000000E+00 -0.00000000000E+00 -0.76136238016E+03  0.76136238018E+03  0.50400000000E-02 0.  1.
    5000001    1    1    2    0    0 -0.20340596087E+03 -0.53992365802E+03 -0.27497064785E+03  0.66009499209E+03  0.16500000000E+03 0.  0.
   -5000001    1    1    2    0    0  0.20340596087E+03  0.53992365802E+03  0.12569616537E+02  0.60022873696E+03  0.16500000000E+03 0.  0.
<mgrwt>
<rscale>  0 0.12327050E+04</rscale>
<asrwt>0</asrwt>
<pdfrwt beam="1">  1        1 0.11713267E+00 0.12327050E+04</pdfrwt>
<pdfrwt beam="2">  1       -1 0.76763285E-01 0.12327050E+04</pdfrwt>
<totfact> 0.40234508E+01</totfact>
</mgrwt>
</event>
<event>
 4    1  0.2228009E-005  0.6884725E+03  0.7818608E-02  0.9737151E-01
         -1   -1    0    0    0  501 -0.00000000000E+00  0.00000000000E+00  0.31434049181E+03  0.31434049185E+03  0.50400000000E-02 0. -1.
          1   -1    0    0  501    0  0.00000000000E+00 -0.00000000000E+00 -0.37697527982E+03  0.37697527986E+03  0.50400000000E-02 0.  1.
    5000001    1    1    2    0    0  0.15992543247E+03 -0.25451752974E+03 -0.61745642675E+02  0.34841475469E+03  0.16500000000E+03 0.  0.
   -5000001    1    1    2    0    0 -0.15992543247E+03  0.25451752974E+03 -0.88914533981E+00  0.34290101702E+03  0.16500000000E+03 0.  0.
<mgrwt>
<rscale>  0 0.68847250E+03</rscale>
<asrwt>0</asrwt>
<pdfrwt beam="1">  1        1 0.57996197E-01 0.68847250E+03</pdfrwt>
<pdfrwt beam="2">  1       -1 0.48360076E-01 0.68847250E+03</pdfrwt>
<totfact> 0.28141391E+02</totfact>
</mgrwt>
</event>
<event>
 4    1  0.2228009E-005  0.4700881E+03  0.7818608E-02  0.1021895E+00
          1   -1    0    0  501    0  0.00000000000E+00  0.00000000000E+00  0.24261024473E+03  0.24261024478E+03  0.50400000000E-02 0. -1.
         -1   -1    0    0    0  501 -0.00000000000E+00 -0.00000000000E+00 -0.22771379489E+03  0.22771379495E+03  0.50400000000E-02 0.  1.
    5000001    1    1    2    0    0 -0.70843377667E+02 -0.14841724154E+03 -0.23780225033E+02  0.23417292937E+03  0.16500000000E+03 0.  0.
   -5000001    1    1    2    0    0  0.70843377667E+02  0.14841724154E+03  0.38676674869E+02  0.23615111036E+03  0.16500000000E+03 0.  0.
<mgrwt>
<rscale>  0 0.47008807E+03</rscale>
<asrwt>0</asrwt>
<pdfrwt beam="1">  1        1 0.37324653E-01 0.47008807E+03</pdfrwt>
<pdfrwt beam="2">  1       -1 0.35032892E-01 0.47008807E+03</pdfrwt>
<totfact> 0.89883803E+02</totfact>
</mgrwt>
</event>
<event>
 4    1  0.2228009E-005  0.8236218E+03  0.7818608E-02  0.9526441E-01
          1   -1    0    0  501    0  0.00000000000E+00  0.00000000000E+00  0.48890246878E+03  0.48890246881E+03  0.50400000000E-02 0.  1.
         -1   -1    0    0    0  501 -0.00000000000E+00 -0.00000000000E+00 -0.34687536045E+03  0.34687536049E+03  0.50400000000E-02 0. -1.
    5000001    1    1    2    0    0  0.17208202130E+03 -0.12814989149E+03  0.38596284988E+03  0.47140952285E+03  0.16500000000E+03 0.  0.
   -5000001    1    1    2    0    0 -0.17208202130E+03  0.12814989149E+03 -0.24393574154E+03  0.36436830645E+03  0.16500000000E+03 0.  0.
<mgrwt>
<rscale>  0 0.82362181E+03</rscale>
<asrwt>0</asrwt>
<pdfrwt beam="1">  1        1 0.75215764E-01 0.82362181E+03</pdfrwt>
<pdfrwt beam="2">  1       -1 0.53365440E-01 0.82362181E+03</pdfrwt>
<totfact> 0.16371284E+02</totfact>
</mgrwt>
</event>
<event>
 4    1  0.2228009E-005  0.5030442E+03  0.7818608E-02  0.1012987E+00
          1   -1    0    0  501    0  0.00000000000E+00  0.00000000000E+00  0.46552476196E+03  0.46552476198E+03  0.50400000000E-02 0. -1.
         -1   -1    0    0    0  501 -0.00000000000E+00 -0.00000000000E+00 -0.13589690628E+03  0.13589690638E+03  0.50400000000E-02 0.  1.
    5000001    1    1    2    0    0  0.25450575299E+02 -0.18797805903E+03  0.17367180198E+03  0.30556566767E+03  0.16500000000E+03 0.  0.
   -5000001    1    1    2    0    0 -0.25450575299E+02  0.18797805903E+03  0.15595605369E+03  0.29585600069E+03  0.16500000000E+03 0.  0.
<mgrwt>
<rscale>  0 0.50304423E+03</rscale>
<asrwt>0</asrwt>
<pdfrwt beam="1">  1        1 0.71619194E-01 0.50304423E+03</pdfrwt>
<pdfrwt beam="2">  1       -1 0.20907216E-01 0.50304423E+03</pdfrwt>
<totfact> 0.93212817E+02</totfact>
</mgrwt>
</event>
<event>
 4    1  0.2228009E-005  0.1133155E+04  0.7818608E-02  0.9173466E-01
          1   -1    0    0  501    0  0.00000000000E+00  0.00000000000E+00  0.76612821461E+03  0.76612821462E+03  0.50400000000E-02 0.  1.
         -1   -1    0    0    0  501 -0.00000000000E+00 -0.00000000000E+00 -0.41900296495E+03  0.41900296498E+03  0.50400000000E-02 0. -1.
    5000001    1    1    2    0    0  0.30766845815E+03 -0.23567490067E+03 -0.22274081206E+03  0.47648820374E+03  0.16500000000E+03 0.  0.
   -5000001    1    1    2    0    0 -0.30766845815E+03  0.23567490067E+03  0.56986606172E+03  0.70864297587E+03  0.16500000000E+03 0.  0.
<mgrwt>
<rscale>  0 0.11331549E+04</rscale>
<asrwt>0</asrwt>
<pdfrwt beam="1">  1        1 0.11786588E+00 0.11331549E+04</pdfrwt>
<pdfrwt beam="2">  1       -1 0.64461996E-01 0.11331549E+04</pdfrwt>
<totfact> 0.57487316E+01</totfact>
</mgrwt>
</event>
<event>
 4    1  0.2228009E-005  0.4442577E+03  0.7818608E-02  0.1029448E+00
         -1   -1    0    0    0  501 -0.00000000000E+00  0.00000000000E+00  0.47808306331E+02  0.47808306596E+02  0.50400000000E-02 0.  1.
          1   -1    0    0  501    0  0.00000000000E+00 -0.00000000000E+00 -0.10320639505E+04  0.10320639505E+04  0.50400000000E-02 0. -1.
    5000001    1    1    2    0    0 -0.11227839168E+03 -0.91433066353E+02 -0.40970526942E+03  0.46481162921E+03  0.16500000000E+03 0.  0.
   -5000001    1    1    2    0    0  0.11227839168E+03  0.91433066353E+02 -0.57455037473E+03  0.61506062788E+03  0.16500000000E+03 0.  0.
<mgrwt>
<rscale>  0 0.44425772E+03</rscale>
<asrwt>0</asrwt>
<pdfrwt beam="1">  1        1 0.15877905E+00 0.44425772E+03</pdfrwt>
<pdfrwt beam="2">  1       -1 0.73551248E-02 0.44425772E+03</pdfrwt>
<totfact> 0.14798645E+03</totfact>
</mgrwt>
</event>
<event>
 4    1  0.2228009E-005  0.5291239E+03  0.7818608E-02  0.1006445E+00
          1   -1    0    0  501    0  0.00000000000E+00  0.00000000000E+00  0.10355264557E+04  0.10355264557E+04  0.50400000000E-02 0.  1.
         -1   -1    0    0    0  501 -0.00000000000E+00 -0.00000000000E+00 -0.67591720488E+02  0.67591720676E+02  0.50400000000E-02 0. -1.
    5000001    1    1    2    0    0 -0.10979516544E+03 -0.17013842298E+03  0.39635723639E+03  0.47468528539E+03  0.16500000000E+03 0.  0.
   -5000001    1    1    2    0    0  0.10979516544E+03  0.17013842298E+03  0.57157749883E+03  0.62843289100E+03  0.16500000000E+03 0.  0.
<mgrwt>
<rscale>  0 0.52912386E+03</rscale>
<asrwt>0</asrwt>
<pdfrwt beam="1">  1        1 0.15931176E+00 0.52912386E+03</pdfrwt>
<pdfrwt beam="2">  1       -1 0.10398727E-01 0.52912386E+03</pdfrwt>
<totfact> 0.85512794E+02</totfact>
</mgrwt>
</event>
<event>
 4    1  0.2228009E-005  0.6244486E+03  0.7818608E-02  0.9855942E-01
          1   -1    0    0  501    0  0.00000000000E+00  0.00000000000E+00  0.21244174429E+03  0.21244174434E+03  0.50400000000E-02 0.  1.
         -1   -1    0    0    0  501 -0.00000000000E+00 -0.00000000000E+00 -0.45887405233E+03  0.45887405235E+03  0.50400000000E-02 0. -1.
    5000001    1    1    2    0    0 -0.15752305295E+03  0.18499368313E+03 -0.23710504559E+03  0.37746520059E+03  0.16500000000E+03 0.  0.
   -5000001    1    1    2    0    0  0.15752305295E+03 -0.18499368313E+03 -0.93272624550E+01  0.29385059611E+03  0.16500000000E+03 0.  0.
<mgrwt>
<rscale>  0 0.62444857E+03</rscale>
<asrwt>0</asrwt>
<pdfrwt beam="1">  1        1 0.32683345E-01 0.62444857E+03</pdfrwt>
<pdfrwt beam="2">  1       -1 0.70596008E-01 0.62444857E+03</pdfrwt>
<totfact> 0.28294350E+02</totfact>
</mgrwt>
</event>
<event>
 4    1  0.2228009E-005  0.7390490E+03  0.7818608E-02  0.9652689E-01
         -1   -1    0    0    0  501 -0.00000000000E+00  0.00000000000E+00  0.27024466398E+03  0.27024466403E+03  0.50400000000E-02 0. -1.
          1   -1    0    0  501    0  0.00000000000E+00 -0.00000000000E+00 -0.50527674318E+03  0.50527674321E+03  0.50400000000E-02 0.  1.
    5000001    1    1    2    0    0 -0.30882508147E+03 -0.23704561722E+02  0.39029581251E+01  0.35096306112E+03  0.16500000000E+03 0.  0.
   -5000001    1    1    2    0    0  0.30882508147E+03  0.23704561722E+02 -0.23893503733E+03  0.42455834611E+03  0.16500000000E+03 0.  0.
<mgrwt>
<rscale>  0 0.73904897E+03</rscale>
<asrwt>0</asrwt>
<pdfrwt beam="1">  1        1 0.77734884E-01 0.73904897E+03</pdfrwt>
<pdfrwt beam="2">  1       -1 0.41576102E-01 0.73904897E+03</pdfrwt>
<totfact> 0.25085881E+02</totfact>
</mgrwt>
</event>
<event>
 4    1  0.2228009E-005  0.5362364E+03  0.7818608E-02  0.1004731E+00
          1   -1    0    0  501    0  0.00000000000E+00  0.00000000000E+00  0.20324146823E+03  0.20324146829E+03  0.50400000000E-02 0. -1.
         -1   -1    0    0    0  501 -0.00000000000E+00 -0.00000000000E+00 -0.35370421573E+03  0.35370421577E+03  0.50400000000E-02 0.  1.
    5000001    1    1    2    0    0 -0.65071988976E+02  0.37400343440E+02  0.12995639730E+03  0.22303993956E+03  0.16500000000E+03 0.  0.
   -5000001    1    1    2    0    0  0.65071988976E+02 -0.37400343440E+02 -0.28041914481E+03  0.33390574450E+03  0.16500000000E+03 0.  0.
<mgrwt>
<rscale>  0 0.53623638E+03</rscale>
<asrwt>0</asrwt>
<pdfrwt beam="1">  1        1 0.31267918E-01 0.53623638E+03</pdfrwt>
<pdfrwt beam="2">  1       -1 0.54416033E-01 0.53623638E+03</pdfrwt>
<totfact> 0.50253247E+02</totfact>
</mgrwt>
</event>
<event>
 4    1  0.2228009E-005  0.4093607E+03  0.7818608E-02  0.1040586E+00
         -1   -1    0    0    0  501 -0.00000000000E+00  0.00000000000E+00  0.21435427115E+02  0.21435427707E+02  0.50400000000E-02 0. -1.
          1   -1    0    0  501    0  0.00000000000E+00 -0.00000000000E+00 -0.19544304529E+04  0.19544304529E+04  0.50400000000E-02 0.  1.
    5000001    1    1    2    0    0  0.10452498561E+03  0.50461621326E+02 -0.11335047960E+04  0.11513166247E+04  0.16500000000E+03 0.  0.
   -5000001    1    1    2    0    0 -0.10452498561E+03 -0.50461621326E+02 -0.79949022981E+03  0.82454925590E+03  0.16500000000E+03 0.  0.
<mgrwt>
<rscale>  0 0.40936073E+03</rscale>
<asrwt>0</asrwt>
<pdfrwt beam="1">  1        1 0.30068147E+00 0.40936073E+03</pdfrwt>
<pdfrwt beam="2">  1       -1 0.32977596E-02 0.40936073E+03</pdfrwt>
<totfact> 0.11723527E+03</totfact>
</mgrwt>
</event>
<event>
 4    1  0.2228009E-005  0.5196596E+03  0.7818608E-02  0.1008771E+00
          1   -1    0    0  501    0  0.00000000000E+00  0.00000000000E+00  0.14789043061E+03  0.14789043069E+03  0.50400000000E-02 0.  1.
         -1   -1    0    0    0  501 -0.00000000000E+00 -0.00000000000E+00 -0.45649686169E+03  0.45649686171E+03  0.50400000000E-02 0. -1.
    5000001    1    1    2    0    0 -0.15445340421E+03 -0.92769654442E+02 -0.51424997789E+02  0.24966295932E+03  0.16500000000E+03 0.  0.
   -5000001    1    1    2    0    0  0.15445340421E+03  0.92769654442E+02 -0.25718143329E+03  0.35472433309E+03  0.16500000000E+03 0.  0.
<mgrwt>
<rscale>  0 0.51965957E+03</rscale>
<asrwt>0</asrwt>
<pdfrwt beam="1">  1        1 0.22752374E-01 0.51965957E+03</pdfrwt>
<pdfrwt beam="2">  1       -1 0.70230286E-01 0.51965957E+03</pdfrwt>
<totfact> 0.45897838E+02</totfact>
</mgrwt>
</event>
<event>
 4    1  0.2228009E-005  0.5381114E+03  0.7818608E-02  0.1004284E+00
          1   -1    0    0  501    0  0.00000000000E+00  0.00000000000E+00  0.49058474431E+03  0.49058474434E+03  0.50400000000E-02 0. -1.
         -1   -1    0    0    0  501 -0.00000000000E+00 -0.00000000000E+00 -0.14756056100E+03  0.14756056109E+03  0.50400000000E-02 0.  1.
    5000001    1    1    2    0    0  0.16950592109E+03 -0.11861968720E+03  0.22916031819E+03  0.35006047893E+03  0.16500000000E+03 0.  0.
   -5000001    1    1    2    0    0 -0.16950592109E+03  0.11861968720E+03  0.11386386512E+03  0.28808482650E+03  0.16500000000E+03 0.  0.
<mgrwt>
<rscale>  0 0.53811136E+03</rscale>
<asrwt>0</asrwt>
<pdfrwt beam="1">  1        1 0.75474576E-01 0.53811136E+03</pdfrwt>
<pdfrwt beam="2">  1       -1 0.22701625E-01 0.53811136E+03</pdfrwt>
<totfact> 0.75659473E+02</totfact>
</mgrwt>
</event>
<event>
 4    1  0.2228009E-005  0.5446715E+03  0.7818608E-02  0.1002735E+00
         -1   -1    0    0    0  501 -0.00000000000E+00  0.00000000000E+00  0.26094336531E+03  0.26094336536E+03  0.50400000000E-02 0. -1.
          1   -1    0    0  501    0  0.00000000000E+00 -0.00000000000E+00 -0.28422554194E+03  0.28422554198E+03  0.50400000000E-02 0.  1.
    5000001    1    1    2    0    0 -0.13088729923E+03  0.15105284648E+03  0.72061360111E+02  0.26900982724E+03  0.16500000000E+03 0.  0.
   -5000001    1    1    2    0    0  0.13088729923E+03 -0.15105284648E+03 -0.95343536732E+02  0.27615908011E+03  0.16500000000E+03 0.  0.
<mgrwt>
<rscale>  0 0.54467153E+03</rscale>
<asrwt>0</asrwt>
<pdfrwt beam="1">  1        1 0.43727007E-01 0.54467153E+03</pdfrwt>
<pdfrwt beam="2">  1       -1 0.40145133E-01 0.54467153E+03</pdfrwt>
<totfact> 0.57481675E+02</totfact>
</mgrwt>
</event>
<event>
 4    1  0.2228009E-005  0.3846419E+03  0.7818608E-02  0.1049231E+00
         -1   -1    0    0    0  501 -0.00000000000E+00  0.00000000000E+00  0.26806865152E+02  0.26806865626E+02  0.50400000000E-02 0. -1.
          1   -1    0    0  501    0  0.00000000000E+00 -0.00000000000E+00 -0.13797711224E+04  0.13797711224E+04  0.50400000000E-02 0.  1.
    5000001    1    1    2    0    0  0.91373204818E+02 -0.36582557937E+02 -0.64481441997E+03  0.67282834535E+03  0.16500000000E+03 0.  0.
   -5000001    1    1    2    0    0 -0.91373204818E+02  0.36582557937E+02 -0.70814983723E+03  0.73374964264E+03  0.16500000000E+03 0.  0.
<mgrwt>
<rscale>  0 0.38464185E+03</rscale>
<asrwt>0</asrwt>
<pdfrwt beam="1">  1        1 0.21227243E+00 0.38464185E+03</pdfrwt>
<pdfrwt beam="2">  1       -1 0.41241342E-02 0.38464185E+03</pdfrwt>
<totfact> 0.20216592E+03</totfact>
</mgrwt>
</event>
<event>
 4    1  0.2228009E-005  0.4042642E+03  0.7818608E-02  0.1042313E+00
          1   -1    0    0  501    0  0.00000000000E+00  0.00000000000E+00  0.88500104627E+02  0.88500104771E+02  0.50400000000E-02 0.  1.
         -1   -1    0    0    0  501 -0.00000000000E+00 -0.00000000000E+00 -0.46166473294E+03  0.46166473297E+03  0.50400000000E-02 0. -1.
    5000001    1    1    2    0    0  0.10603430278E+03 -0.18722770194E+02 -0.24802773535E+03  0.31675948761E+03  0.16500000000E+03 0.  0.
   -5000001    1    1    2    0    0 -0.10603430278E+03  0.18722770194E+02 -0.12513689297E+03  0.23340535013E+03  0.16500000000E+03 0.  0.
<mgrwt>
<rscale>  0 0.40426416E+03</rscale>
<asrwt>0</asrwt>
<pdfrwt beam="1">  1        1 0.13615401E-01 0.40426416E+03</pdfrwt>
<pdfrwt beam="2">  1       -1 0.71025343E-01 0.40426416E+03</pdfrwt>
<totfact> 0.88529847E+02</totfact>
</mgrwt>
</event>
<event>
 4    1  0.2228009E-005  0.4983905E+03  0.7818608E-02  0.1014200E+00
         -1   -1    0    0    0  501 -0.00000000000E+00  0.00000000000E+00  0.58553573019E+02  0.58553573236E+02  0.50400000000E-02 0. -1.
          1   -1    0    0  501    0  0.00000000000E+00 -0.00000000000E+00 -0.10605377178E+04  0.10605377179E+04  0.50400000000E-02 0.  1.
    5000001    1    1    2    0    0  0.10987851988E+03  0.90820429997E+02 -0.77185628545E+03  0.80206531220E+03  0.16500000000E+03 0.  0.
   -5000001    1    1    2    0    0 -0.10987851988E+03 -0.90820429997E+02 -0.23012785938E+03  0.31702597890E+03  0.16500000000E+03 0.  0.
<mgrwt>
<rscale>  0 0.49839050E+03</rscale>
<asrwt>0</asrwt>
<pdfrwt beam="1">  1        1 0.16315963E+00 0.49839050E+03</pdfrwt>
<pdfrwt beam="2">  1       -1 0.90082428E-02 0.49839050E+03</pdfrwt>
<totfact> 0.10269671E+03</totfact>
</mgrwt>
</event>
<event>
 4    1  0.2228009E-005  0.5438716E+03  0.7818608E-02  0.1002922E+00
          1   -1    0    0  501    0  0.00000000000E+00  0.00000000000E+00  0.11995294844E+03  0.11995294855E+03  0.50400000000E-02 0.  1.
         -1   -1    0    0    0  501 -0.00000000000E+00 -0.00000000000E+00 -0.61648410001E+03  0.61648410003E+03  0.50400000000E-02 0. -1.
    5000001    1    1    2    0    0  0.42916158726E+02 -0.20911051883E+03 -0.29428542731E+03  0.39924668877E+03  0.16500000000E+03 0.  0.
   -5000001    1    1    2    0    0 -0.42916158726E+02  0.20911051883E+03 -0.20224572426E+03  0.33719035981E+03  0.16500000000E+03 0.  0.
<mgrwt>
<rscale>  0 0.54387162E+03</rscale>
<asrwt>0</asrwt>
<pdfrwt beam="1">  1        1 0.18454300E-01 0.54387162E+03</pdfrwt>
<pdfrwt beam="2">  1       -1 0.94843706E-01 0.54387162E+03</pdfrwt>
<totfact> 0.31910822E+02</totfact>
</mgrwt>
</event>
<event>
 4    1  0.2228009E-005  0.4436524E+03  0.7818608E-02  0.1029632E+00
         -1   -1    0    0    0  501 -0.00000000000E+00  0.00000000000E+00  0.15544027559E+04  0.15544027560E+04  0.50400000000E-02 0. -1.
          1   -1    0    0  501    0  0.00000000000E+00 -0.00000000000E+00 -0.31656445888E+02  0.31656446290E+02  0.50400000000E-02 0.  1.
    5000001    1    1    2    0    0  0.11895455946E+03 -0.88290463458E+02  0.73978240816E+03  0.77230072160E+03  0.16500000000E+03 0.  0.
   -5000001    1    1    2    0    0 -0.11895455946E+03  0.88290463458E+02  0.78296390190E+03  0.81375848065E+03  0.16500000000E+03 0.  0.
<mgrwt>
<rscale>  0 0.44365242E+03</rscale>
<asrwt>0</asrwt>
<pdfrwt beam="1">  1        1 0.48702226E-02 0.44365242E+03</pdfrwt>
<pdfrwt beam="2">  1       -1 0.23913888E+00 0.44365242E+03</pdfrwt>
<totfact> 0.15846040E+02</totfact>
</mgrwt>
</event>
<event>
 4    1  0.2228009E-005  0.7388797E+03  0.7818608E-02  0.9652960E-01
         -1   -1    0    0    0  501 -0.00000000000E+00  0.00000000000E+00  0.13426107544E+03  0.13426107553E+03  0.50400000000E-02 0. -1.
          1   -1    0    0  501    0  0.00000000000E+00 -0.00000000000E+00 -0.10165702637E+04  0.10165702637E+04  0.50400000000E-02 0.  1.
    5000001    1    1    2    0    0 -0.13647685354E+03 -0.27608664801E+03 -0.25417866184E+03  0.43206661627E+03  0.16500000000E+03 0.  0.
   -5000001    1    1    2    0    0  0.13647685354E+03  0.27608664801E+03 -0.62813052644E+03  0.71876472298E+03  0.16500000000E+03 0.  0.
<mgrwt>
<rscale>  0 0.73887974E+03</rscale>
<asrwt>0</asrwt>
<pdfrwt beam="1">  1        1 0.15639542E+00 0.73887974E+03</pdfrwt>
<pdfrwt beam="2">  1       -1 0.20655551E-01 0.73887974E+03</pdfrwt>
<totfact> 0.28788874E+02</totfact>
</mgrwt>
</event>
<event>
 4    1  0.2228009E-005  0.9523385E+03  0.7818608E-02  0.9362421E-01
          1   -1    0    0  501    0  0.00000000000E+00  0.00000000000E+00  0.83437339322E+02  0.83437339474E+02  0.50400000000E-02 0.  1.
         -1   -1    0    0    0  501 -0.00000000000E+00 -0.00000000000E+00 -0.27174544891E+04  0.27174544891E+04  0.50400000000E-02 0. -1.
    5000001    1    1    2    0    0 -0.39990726129E+03  0.12555700425E+03 -0.17709420451E+04  0.18273344265E+04  0.16500000000E+03 0.  0.
   -5000001    1    1    2    0    0  0.39990726129E+03 -0.12555700425E+03 -0.86307510468E+03  0.97355740214E+03  0.16500000000E+03 0.  0.
<mgrwt>
<rscale>  0 0.95233854E+03</rscale>
<asrwt>0</asrwt>
<pdfrwt beam="1">  1        1 0.12836516E-01 0.95233854E+03</pdfrwt>
<pdfrwt beam="2">  1       -1 0.41806985E+00 0.95233854E+03</pdfrwt>
<totfact> 0.26552035E+00</totfact>
</mgrwt>
</event>
<event>
 4    1  0.2228009E-005  0.4347340E+03  0.7818608E-02  0.1032375E+00
          1   -1    0    0  501    0  0.00000000000E+00  0.00000000000E+00  0.62247025194E+03  0.62247025196E+03  0.50400000000E-02 0. -1.
         -1   -1    0    0    0  501 -0.00000000000E+00 -0.00000000000E+00 -0.75904685629E+02  0.75904685797E+02  0.50400000000E-02 0.  1.
    5000001    1    1    2    0    0  0.78533606770E+02  0.93442639108E+02  0.38827928937E+03  0.43918658990E+03  0.16500000000E+03 0.  0.
   -5000001    1    1    2    0    0 -0.78533606770E+02 -0.93442639108E+02  0.15828627694E+03  0.25918834785E+03  0.16500000000E+03 0.  0.
<mgrwt>
<rscale>  0 0.43473398E+03</rscale>
<asrwt>0</asrwt>
<pdfrwt beam="1">  1        1 0.95764655E-01 0.43473398E+03</pdfrwt>
<pdfrwt beam="2">  1       -1 0.11677644E-01 0.43473398E+03</pdfrwt>
<totfact> 0.16013377E+03</totfact>
</mgrwt>
</event>
<event>
 4    1  0.2228009E-005  0.7266680E+03  0.7818608E-02  0.9672683E-01
         -1   -1    0    0    0  501 -0.00000000000E+00  0.00000000000E+00  0.10988195457E+03  0.10988195469E+03  0.50400000000E-02 0. -1.
          1   -1    0    0  501    0  0.00000000000E+00 -0.00000000000E+00 -0.12013945522E+04  0.12013945522E+04  0.50400000000E-02 0.  1.
    5000001    1    1    2    0    0  0.16407440562E+03  0.25260004432E+03 -0.33179191529E+03  0.47753331614E+03  0.16500000000E+03 0.  0.
   -5000001    1    1    2    0    0 -0.16407440562E+03 -0.25260004432E+03 -0.75972068235E+03  0.83374319077E+03  0.16500000000E+03 0.  0.
<mgrwt>
<rscale>  0 0.72666796E+03</rscale>
<asrwt>0</asrwt>
<pdfrwt beam="1">  1        1 0.18482992E+00 0.72666796E+03</pdfrwt>
<pdfrwt beam="2">  1       -1 0.16904917E-01 0.72666796E+03</pdfrwt>
<totfact> 0.29243541E+02</totfact>
</mgrwt>
</event>
<event>
 4    1  0.2228009E-005  0.5002469E+03  0.7818608E-02  0.1013714E+00
         -1   -1    0    0    0  501 -0.00000000000E+00  0.00000000000E+00  0.60630280485E+03  0.60630280487E+03  0.50400000000E-02 0. -1.
          1   -1    0    0  501    0  0.00000000000E+00 -0.00000000000E+00 -0.10318565579E+03  0.10318565591E+03  0.50400000000E-02 0.  1.
    5000001    1    1    2    0    0  0.79358090414E+02 -0.15254217410E+03  0.14382620694E+03  0.27834834147E+03  0.16500000000E+03 0.  0.
   -5000001    1    1    2    0    0 -0.79358090414E+02  0.15254217410E+03  0.35929094212E+03  0.43114011931E+03  0.16500000000E+03 0.  0.
<mgrwt>
<rscale>  0 0.50024695E+03</rscale>
<asrwt>0</asrwt>
<pdfrwt beam="1">  1        1 0.15874717E-01 0.50024695E+03</pdfrwt>
<pdfrwt beam="2">  1       -1 0.93277352E-01 0.50024695E+03</pdfrwt>
<totfact> 0.40495127E+02</totfact>
</mgrwt>
</event>
<event>
 4    1  0.2228009E-005  0.3448831E+03  0.7818608E-02  0.1064735E+00
         -1   -1    0    0    0  501 -0.00000000000E+00  0.00000000000E+00  0.68943427961E+02  0.68943428145E+02  0.50400000000E-02 0. -1.
          1   -1    0    0  501    0  0.00000000000E+00 -0.00000000000E+00 -0.43131143997E+03  0.43131144000E+03  0.50400000000E-02 0.  1.
    5000001    1    1    2    0    0 -0.48433664426E+02 -0.10096229233E+02 -0.16964035544E+03  0.24176559699E+03  0.16500000000E+03 0.  0.
   -5000001    1    1    2    0    0  0.48433664426E+02  0.10096229233E+02 -0.19272765657E+03  0.25848927115E+03  0.16500000000E+03 0.  0.
<mgrwt>
<rscale>  0 0.34488311E+03</rscale>
<asrwt>0</asrwt>
<pdfrwt beam="1">  1        1 0.66355605E-01 0.34488311E+03</pdfrwt>
<pdfrwt beam="2">  1       -1 0.10606681E-01 0.34488311E+03</pdfrwt>
<totfact> 0.30617412E+03</totfact>
</mgrwt>
</event>
<event>
 4    1  0.2228009E-005  0.5969079E+03  0.7818608E-02  0.9911842E-01
         -1   -1    0    0    0  501 -0.00000000000E+00  0.00000000000E+00  0.46373841011E+02  0.46373841284E+02  0.50400000000E-02 0. -1.
          1   -1    0    0  501    0  0.00000000000E+00 -0.00000000000E+00 -0.19207975032E+04  0.19207975032E+04  0.50400000000E-02 0.  1.
    5000001    1    1    2    0    0  0.21693346923E+03  0.57443864063E+02 -0.58395409408E+03  0.64698323903E+03  0.16500000000E+03 0.  0.
   -5000001    1    1    2    0    0 -0.21693346923E+03 -0.57443864063E+02 -0.12904695681E+04  0.13201881055E+04  0.16500000000E+03 0.  0.
<mgrwt>
<rscale>  0 0.59690789E+03</rscale>
<asrwt>0</asrwt>
<pdfrwt beam="1">  1        1 0.29550725E+00 0.59690789E+03</pdfrwt>
<pdfrwt beam="2">  1       -1 0.71344386E-02 0.59690789E+03</pdfrwt>
<totfact> 0.37575599E+02</totfact>
</mgrwt>
</event>
<event>
 4    1  0.2228009E-005  0.7674404E+03  0.7818608E-02  0.9608380E-01
          1   -1    0    0  501    0  0.00000000000E+00  0.00000000000E+00  0.15331426700E+04  0.15331426700E+04  0.50400000000E-02 0.  1.
         -1   -1    0    0    0  501 -0.00000000000E+00 -0.00000000000E+00 -0.96038806123E+02  0.96038806255E+02  0.50400000000E-02 0. -1.
    5000001    1    1    2    0    0  0.98357209315E+01 -0.18711673696E+03  0.13371320882E+04  0.13602413889E+04  0.16500000000E+03 0.  0.
   -5000001    1    1    2    0    0 -0.98357209315E+01  0.18711673696E+03  0.99971775593E+02  0.26894008733E+03  0.16500000000E+03 0.  0.
<mgrwt>
<rscale>  0 0.76744040E+03</rscale>
<asrwt>0</asrwt>
<pdfrwt beam="1">  1        1 0.23586810E+00 0.76744040E+03</pdfrwt>
<pdfrwt beam="2">  1       -1 0.14775201E-01 0.76744040E+03</pdfrwt>
<totfact> 0.21294334E+02</totfact>
</mgrwt>
</event>
<event>
 4    1  0.2228009E-005  0.5190629E+03  0.7818608E-02  0.1008920E+00
          1   -1    0    0  501    0  0.00000000000E+00  0.00000000000E+00  0.61505757313E+02  0.61505757519E+02  0.50400000000E-02 0. -1.
         -1   -1    0    0    0  501 -0.00000000000E+00 -0.00000000000E+00 -0.10951264139E+04  0.10951264139E+04  0.50400000000E-02 0.  1.
    5000001    1    1    2    0    0  0.47578166589E+00 -0.11949969111E+03 -0.15853622269E+03  0.25814557220E+03  0.16500000000E+03 0.  0.
   -5000001    1    1    2    0    0 -0.47578166589E+00  0.11949969111E+03 -0.87508443385E+03  0.89848659919E+03  0.16500000000E+03 0.  0.
<mgrwt>
<rscale>  0 0.51906292E+03</rscale>
<asrwt>0</asrwt>
<pdfrwt beam="1">  1        1 0.94624250E-02 0.51906292E+03</pdfrwt>
<pdfrwt beam="2">  1       -1 0.16848097E+00 0.51906292E+03</pdfrwt>
<totfact> 0.18818839E+02</totfact>
</mgrwt>
</event>
<event>
 4    1  0.2228009E-005  0.8117863E+03  0.7818608E-02  0.9543112E-01
          1   -1    0    0  501    0  0.00000000000E+00  0.00000000000E+00  0.29315018115E+04  0.29315018115E+04  0.50400000000E-02 0.  1.
         -1   -1    0    0    0  501 -0.00000000000E+00 -0.00000000000E+00 -0.56199605721E+02  0.56199605947E+02  0.50400000000E-02 0. -1.
    5000001    1    1    2    0    0 -0.35054419584E+03 -0.24917536653E+02  0.18734663953E+04  0.19132703550E+04  0.16500000000E+03 0.  0.
   -5000001    1    1    2    0    0  0.35054419584E+03  0.24917536653E+02  0.10018358104E+04  0.10744310624E+04  0.16500000000E+03 0.  0.
<mgrwt>
<rscale>  0 0.81178629E+03</rscale>
<asrwt>0</asrwt>
<pdfrwt beam="1">  1        1 0.45100048E+00 0.81178629E+03</pdfrwt>
<pdfrwt beam="2">  1       -1 0.86460894E-02 0.81178629E+03</pdfrwt>
<totfact> 0.55754949E+01</totfact>
</mgrwt>
</event>
<event>
 4    1  0.2228009E-005  0.8945975E+03  0.7818608E-02  0.9432360E-01
         -1   -1    0    0    0  501 -0.00000000000E+00  0.00000000000E+00  0.11082335744E+04  0.11082335744E+04  0.50400000000E-02 0.  1.
          1   -1    0    0  501    0  0.00000000000E+00 -0.00000000000E+00 -0.18053612326E+03  0.18053612333E+03  0.50400000000E-02 0. -1.
    5000001    1    1    2    0    0 -0.16296373025E+03 -0.37134840056E+03  0.33185844326E+03  0.54937404229E+03  0.16500000000E+03 0.  0.
   -5000001    1    1    2    0    0  0.16296373025E+03  0.37134840056E+03  0.59583900785E+03  0.73939565542E+03  0.16500000000E+03 0.  0.
<mgrwt>
<rscale>  0 0.89459755E+03</rscale>
<asrwt>0</asrwt>
<pdfrwt beam="1">  1        1 0.27774789E-01 0.89459755E+03</pdfrwt>
<pdfrwt beam="2">  1       -1 0.17049747E+00 0.89459755E+03</pdfrwt>
<totfact> 0.41922092E+01</totfact>
</mgrwt>
</event>
<event>
 4    1  0.2228009E-005  0.6194217E+03  0.7818608E-02  0.9865912E-01
         -1   -1    0    0    0  501 -0.00000000000E+00  0.00000000000E+00  0.12288714996E+03  0.12288715006E+03  0.50400000000E-02 0. -1.
          1   -1    0    0  501    0  0.00000000000E+00 -0.00000000000E+00 -0.78056006773E+03  0.78056006775E+03  0.50400000000E-02 0.  1.
    5000001    1    1    2    0    0 -0.10186873436E+03 -0.18702407994E+03 -0.10600731452E+03  0.28951303295E+03  0.16500000000E+03 0.  0.
   -5000001    1    1    2    0    0  0.10186873436E+03  0.18702407994E+03 -0.55166560326E+03  0.61393418485E+03  0.16500000000E+03 0.  0.
<mgrwt>
<rscale>  0 0.61942167E+03</rscale>
<asrwt>0</asrwt>
<pdfrwt beam="1">  1        1 0.12008616E+00 0.61942167E+03</pdfrwt>
<pdfrwt beam="2">  1       -1 0.18905716E-01 0.61942167E+03</pdfrwt>
<totfact> 0.52242130E+02</totfact>
</mgrwt>
</event>
<event>
 4    1  0.2228009E-005  0.4027910E+03  0.7818608E-02  0.1042818E+00
          1   -1    0    0  501    0  0.00000000000E+00  0.00000000000E+00  0.19792988370E+04  0.19792988370E+04  0.50400000000E-02 0.  1.
         -1   -1    0    0    0  501 -0.00000000000E+00 -0.00000000000E+00 -0.20492174832E+02  0.20492175452E+02  0.50400000000E-02 0. -1.
    5000001    1    1    2    0    0  0.70506621328E+02 -0.91452824791E+02  0.97652704278E+03  0.99707816549E+03  0.16500000000E+03 0.  0.
   -5000001    1    1    2    0    0 -0.70506621328E+02  0.91452824791E+02  0.98227961936E+03  0.10027128469E+04  0.16500000000E+03 0.  0.
<mgrwt>
<rscale>  0 0.40279096E+03</rscale>
<asrwt>0</asrwt>
<pdfrwt beam="1">  1        1 0.30450767E+00 0.40279096E+03</pdfrwt>
<pdfrwt beam="2">  1       -1 0.31526407E-02 0.40279096E+03</pdfrwt>
<totfact> 0.12081992E+03</totfact>
</mgrwt>
</event>
<event>
 4    1  0.2228009E-005  0.5320162E+03  0.7818608E-02  0.1005744E+00
          1   -1    0    0  501    0  0.00000000000E+00  0.00000000000E+00  0.58567769379E+03  0.58567769381E+03  0.50400000000E-02 0.  1.
         -1   -1    0    0    0  501 -0.00000000000E+00 -0.00000000000E+00 -0.12081782688E+03  0.12081782699E+03  0.50400000000E-02 0. -1.
    5000001    1    1    2    0    0  0.45197794653E+02  0.50283959077E+02  0.49455965828E+03  0.52572385602E+03  0.16500000000E+03 0.  0.
   -5000001    1    1    2    0    0 -0.45197794653E+02 -0.50283959077E+02 -0.29699791377E+02  0.18077166479E+03  0.16500000000E+03 0.  0.
<mgrwt>
<rscale>  0 0.53201619E+03</rscale>
<asrwt>0</asrwt>
<pdfrwt beam="1">  1        1 0.90104261E-01 0.53201619E+03</pdfrwt>
<pdfrwt beam="2">  1       -1 0.18587358E-01 0.53201619E+03</pdfrwt>
<totfact> 0.82526203E+02</totfact>
</mgrwt>
</event>
<event>
 4    1  0.2228009E-005  0.5749927E+03  0.7818608E-02  0.9958691E-01
         -1   -1    0    0    0  501 -0.00000000000E+00  0.00000000000E+00  0.26509140579E+03  0.26509140584E+03  0.50400000000E-02 0.  1.
          1   -1    0    0  501    0  0.00000000000E+00 -0.00000000000E+00 -0.31179495680E+03  0.31179495684E+03  0.50400000000E-02 0. -1.
    5000001    1    1    2    0    0 -0.97240641725E+02 -0.21021879155E+03  0.18994817257E+02  0.28501488699E+03  0.16500000000E+03 0.  0.
   -5000001    1    1    2    0    0  0.97240641725E+02  0.21021879155E+03 -0.65698368268E+02  0.29187147569E+03  0.16500000000E+03 0.  0.
<mgrwt>
<rscale>  0 0.57499274E+03</rscale>
<asrwt>0</asrwt>
<pdfrwt beam="1">  1        1 0.47968455E-01 0.57499274E+03</pdfrwt>
<pdfrwt beam="2">  1       -1 0.40783293E-01 0.57499274E+03</pdfrwt>
<totfact> 0.49548250E+02</totfact>
</mgrwt>
</event>
<event>
 4    1  0.2228009E-005  0.5636209E+03  0.7818608E-02  0.9983895E-01
         -1   -1    0    0    0  501 -0.00000000000E+00  0.00000000000E+00  0.20676518763E+03  0.20676518769E+03  0.50400000000E-02 0. -1.
          1   -1    0    0  501    0  0.00000000000E+00 -0.00000000000E+00 -0.38409335829E+03  0.38409335833E+03  0.50400000000E-02 0.  1.
    5000001    1    1    2    0    0 -0.74180943971E+02  0.14987041180E+03  0.74512122333E+02  0.24645691136E+03  0.16500000000E+03 0.  0.
   -5000001    1    1    2    0    0  0.74180943971E+02 -0.14987041180E+03 -0.25184029300E+03  0.34440163466E+03  0.16500000000E+03 0.  0.
<mgrwt>
<rscale>  0 0.56362092E+03</rscale>
<asrwt>0</asrwt>
<pdfrwt beam="1">  1        1 0.59091286E-01 0.56362092E+03</pdfrwt>
<pdfrwt beam="2">  1       -1 0.31810029E-01 0.56362092E+03</pdfrwt>
<totfact> 0.58818955E+02</totfact>
</mgrwt>
</event>
<event>
 4    1  0.2228009E-005  0.6060406E+03  0.7818608E-02  0.9892952E-01
          1   -1    0    0  501    0  0.00000000000E+00  0.00000000000E+00  0.16206913107E+04  0.16206913107E+04  0.50400000000E-02 0.  1.
         -1   -1    0    0    0  501 -0.00000000000E+00 -0.00000000000E+00 -0.56655632632E+02  0.56655632856E+02  0.50400000000E-02 0. -1.
    5000001    1    1    2    0    0 -0.47148798154E+02  0.23229831869E+03  0.52819004215E+03  0.60199272309E+03  0.16500000000E+03 0.  0.
   -5000001    1    1    2    0    0  0.47148798154E+02 -0.23229831869E+03  0.10358456360E+04  0.10753542205E+04  0.16500000000E+03 0.  0.
<mgrwt>
<rscale>  0 0.60604057E+03</rscale>
<asrwt>0</asrwt>
<pdfrwt beam="1">  1        1 0.24933712E+00 0.60604057E+03</pdfrwt>
<pdfrwt beam="2">  1       -1 0.87162514E-02 0.60604057E+03</pdfrwt>
<totfact> 0.43585360E+02</totfact>
</mgrwt>
</event>
<event>
 4    1  0.2228009E-005  0.7345976E+03  0.7818608E-02  0.9659829E-01
          1   -1    0    0  501    0  0.00000000000E+00  0.00000000000E+00  0.23373259607E+04  0.23373259607E+04  0.50400000000E-02 0.  1.
         -1   -1    0    0    0  501 -0.00000000000E+00 -0.00000000000E+00 -0.57719128284E+02  0.57719128504E+02  0.50400000000E-02 0. -1.
    5000001    1    1    2    0    0  0.29967483532E+03  0.12388938711E+03  0.13037905783E+04  0.13536057252E+04  0.16500000000E+03 0.  0.
   -5000001    1    1    2    0    0 -0.29967483532E+03 -0.12388938711E+03  0.97581625409E+03  0.10414393640E+04  0.16500000000E+03 0.  0.
<mgrwt>
<rscale>  0 0.73459762E+03</rscale>
<asrwt>0</asrwt>
<pdfrwt beam="1">  1        1 0.35958862E+00 0.73459762E+03</pdfrwt>
<pdfrwt beam="2">  1       -1 0.88798657E-02 0.73459762E+03</pdfrwt>
<totfact> 0.13884967E+02</totfact>
</mgrwt>
</event>
<event>
 4    1  0.2228009E-005  0.3746937E+03  0.7818608E-02  0.1052913E+00
         -1   -1    0    0    0  501 -0.00000000000E+00  0.00000000000E+00  0.71774799966E+03  0.71774799967E+03  0.50400000000E-02 0. -1.
          1   -1    0    0  501    0  0.00000000000E+00 -0.00000000000E+00 -0.48901357040E+02  0.48901357300E+02  0.50400000000E-02 0.  1.
    5000001    1    1    2    0    0 -0.43580927507E+02  0.76534017482E+02  0.35656423252E+03  0.40264103738E+03  0.16500000000E+03 0.  0.
   -5000001    1    1    2    0    0  0.43580927507E+02 -0.76534017482E+02  0.31228241010E+03  0.36400831959E+03  0.16500000000E+03 0.  0.
<mgrwt>
<rscale>  0 0.37469375E+03</rscale>
<asrwt>0</asrwt>
<pdfrwt beam="1">  1        1 0.75232860E-02 0.37469375E+03</pdfrwt>
<pdfrwt beam="2">  1       -1 0.11042277E+00 0.37469375E+03</pdfrwt>
<totfact> 0.76229905E+02</totfact>
</mgrwt>
</event>
<event>
 4    1  0.2228009E-005  0.4235400E+03  0.7818608E-02  0.1035920E+00
          1   -1    0    0  501    0  0.00000000000E+00  0.00000000000E+00  0.30654512669E+03  0.30654512673E+03  0.50400000000E-02 0.  1.
         -1   -1    0    0    0  501 -0.00000000000E+00 -0.00000000000E+00 -0.14629665103E+03  0.14629665112E+03  0.50400000000E-02 0. -1.
    5000001    1    1    2    0    0  0.69233506125E+02 -0.10637109266E+03  0.12171859042E+03  0.24114000700E+03  0.16500000000E+03 0.  0.
   -5000001    1    1    2    0    0 -0.69233506125E+02  0.10637109266E+03  0.38529885242E+02  0.21170177085E+03  0.16500000000E+03 0.  0.
<mgrwt>
<rscale>  0 0.42353996E+03</rscale>
<asrwt>0</asrwt>
<pdfrwt beam="1">  1        1 0.47160788E-01 0.42353996E+03</pdfrwt>
<pdfrwt beam="2">  1       -1 0.22507177E-01 0.42353996E+03</pdfrwt>
<totfact> 0.14213506E+03</totfact>
</mgrwt>
</event>
<event>
 4    1  0.2228009E-005  0.6723186E+03  0.7818608E-02  0.9765778E-01
         -1   -1    0    0    0  501 -0.00000000000E+00  0.00000000000E+00  0.46846786889E+03  0.46846786892E+03  0.50400000000E-02 0. -1.
          1   -1    0    0  501    0  0.00000000000E+00 -0.00000000000E+00 -0.24121841387E+03  0.24121841393E+03  0.50400000000E-02 0.  1.
    5000001    1    1    2    0    0 -0.21690709333E+03 -0.19099425658E+03  0.63547668911E+02  0.33880790931E+03  0.16500000000E+03 0.  0.
   -5000001    1    1    2    0    0  0.21690709333E+03  0.19099425658E+03  0.16370178611E+03  0.37087837354E+03  0.16500000000E+03 0.  0.
<mgrwt>
<rscale>  0 0.67231860E+03</rscale>
<asrwt>0</asrwt>
<pdfrwt beam="1">  1        1 0.37110525E-01 0.67231860E+03</pdfrwt>
<pdfrwt beam="2">  1       -1 0.72071980E-01 0.67231860E+03</pdfrwt>
<totfact> 0.22972529E+02</totfact>
</mgrwt>
</event>
<event>
 4    1  0.2228009E-005  0.5849737E+03  0.7818608E-02  0.9937081E-01
         -1   -1    0    0    0  501 -0.00000000000E+00  0.00000000000E+00  0.34166159562E+02  0.34166159934E+02  0.50400000000E-02 0.  1.
          1   -1    0    0  501    0  0.00000000000E+00 -0.00000000000E+00 -0.25038974336E+04  0.25038974336E+04  0.50400000000E-02 0. -1.
    5000001    1    1    2    0    0  0.16755141724E+03 -0.16083126063E+03 -0.15221229577E+04  0.15485552848E+04  0.16500000000E+03 0.  0.
   -5000001    1    1    2    0    0 -0.16755141724E+03  0.16083126063E+03 -0.94760831637E+03  0.98950830874E+03  0.16500000000E+03 0.  0.
<mgrwt>
<rscale>  0 0.58497371E+03</rscale>
<asrwt>0</asrwt>
<pdfrwt beam="1">  1        1 0.38521485E+00 0.58497371E+03</pdfrwt>
<pdfrwt beam="2">  1       -1 0.52563342E-02 0.58497371E+03</pdfrwt>
<totfact> 0.24533549E+02</totfact>
</mgrwt>
</event>
<event>
 4    1  0.2228009E-005  0.5603471E+03  0.7818608E-02  0.9991270E-01
          1   -1    0    0  501    0  0.00000000000E+00  0.00000000000E+00  0.64361178451E+03  0.64361178453E+03  0.50400000000E-02 0.  1.
         -1   -1    0    0    0  501 -0.00000000000E+00 -0.00000000000E+00 -0.12196359300E+03  0.12196359310E+03  0.50400000000E-02 0. -1.
    5000001    1    1    2    0    0  0.81980481585E+02  0.20349557306E+03  0.33739467609E+03  0.43496139492E+03  0.16500000000E+03 0.  0.
   -5000001    1    1    2    0    0 -0.81980481585E+02 -0.20349557306E+03  0.18425351542E+03  0.33061398271E+03  0.16500000000E+03 0.  0.
<mgrwt>
<rscale>  0 0.56034706E+03</rscale>
<asrwt>0</asrwt>
<pdfrwt beam="1">  1        1 0.99017198E-01 0.56034706E+03</pdfrwt>
<pdfrwt beam="2">  1       -1 0.18763630E-01 0.56034706E+03</pdfrwt>
<totfact> 0.70921157E+02</totfact>
</mgrwt>
</event>
<event>
 4    1  0.2228009E-005  0.4439666E+03  0.7818608E-02  0.1029537E+00
         -1   -1    0    0    0  501 -0.00000000000E+00  0.00000000000E+00  0.11397115290E+03  0.11397115301E+03  0.50400000000E-02 0. -1.
          1   -1    0    0  501    0  0.00000000000E+00 -0.00000000000E+00 -0.43236013715E+03  0.43236013718E+03  0.50400000000E-02 0.  1.
    5000001    1    1    2    0    0 -0.26598180975E+02 -0.13976099242E+03 -0.21156215884E+03  0.30368428555E+03  0.16500000000E+03 0.  0.
   -5000001    1    1    2    0    0  0.26598180975E+02  0.13976099242E+03 -0.10682682541E+03  0.24264700464E+03  0.16500000000E+03 0.  0.
<mgrwt>
<rscale>  0 0.44396659E+03</rscale>
<asrwt>0</asrwt>
<pdfrwt beam="1">  1        1 0.66516944E-01 0.44396659E+03</pdfrwt>
<pdfrwt beam="2">  1       -1 0.17534024E-01 0.44396659E+03</pdfrwt>
<totfact> 0.13736608E+03</totfact>
</mgrwt>
</event>
<event>
 4    1  0.2228009E-005  0.6712571E+03  0.7818608E-02  0.9767689E-01
         -1   -1    0    0    0  501 -0.00000000000E+00  0.00000000000E+00  0.68056803526E+02  0.68056803713E+02  0.50400000000E-02 0. -1.
          1   -1    0    0  501    0  0.00000000000E+00 -0.00000000000E+00 -0.16551840641E+04  0.16551840641E+04  0.50400000000E-02 0.  1.
    5000001    1    1    2    0    0  0.15162079557E+03 -0.24658247137E+03 -0.89720147191E+03  0.95707223449E+03  0.16500000000E+03 0.  0.
   -5000001    1    1    2    0    0 -0.15162079557E+03  0.24658247137E+03 -0.68992578868E+03  0.76616863334E+03  0.16500000000E+03 0.  0.
<mgrwt>
<rscale>  0 0.67125714E+03</rscale>
<asrwt>0</asrwt>
<pdfrwt beam="1">  1        1 0.25464367E+00 0.67125714E+03</pdfrwt>
<pdfrwt beam="2">  1       -1 0.10470279E-01 0.67125714E+03</pdfrwt>
<totfact> 0.30805572E+02</totfact>
</mgrwt>
</event>
<event>
 4    1  0.2228009E-005  0.4851176E+03  0.7818608E-02  0.1017738E+00
          1   -1    0    0  501    0  0.00000000000E+00  0.00000000000E+00  0.26826186941E+03  0.26826186946E+03  0.50400000000E-02 0. -1.
         -1   -1    0    0    0  501 -0.00000000000E+00 -0.00000000000E+00 -0.21931841374E+03  0.21931841380E+03  0.50400000000E-02 0.  1.
    5000001    1    1    2    0    0 -0.17305738794E+02 -0.80672260045E+02  0.18275856263E+03  0.25967902177E+03  0.16500000000E+03 0.  0.
   -5000001    1    1    2    0    0  0.17305738794E+02  0.80672260045E+02 -0.13381510696E+03  0.22790126149E+03  0.16500000000E+03 0.  0.
<mgrwt>
<rscale>  0 0.48511758E+03</rscale>
<asrwt>0</asrwt>
<pdfrwt beam="1">  1        1 0.41271057E-01 0.48511758E+03</pdfrwt>
<pdfrwt beam="2">  1       -1 0.33741294E-01 0.48511758E+03</pdfrwt>
<totfact> 0.84436364E+02</totfact>
</mgrwt>
</event>
<event>
 4    1  0.2228009E-005  0.4762151E+03  0.7818608E-02  0.1020181E+00
          1   -1    0    0  501    0  0.00000000000E+00  0.00000000000E+00  0.14905604530E+04  0.14905604530E+04  0.50400000000E-02 0.  1.
         -1   -1    0    0    0  501 -0.00000000000E+00 -0.00000000000E+00 -0.38036168552E+02  0.38036168886E+02  0.50400000000E-02 0. -1.
    5000001    1    1    2    0    0  0.15647403311E+03 -0.90573919348E+01  0.95104704673E+03  0.97789654079E+03  0.16500000000E+03 0.  0.
   -5000001    1    1    2    0    0 -0.15647403311E+03  0.90573919348E+01  0.50147723774E+03  0.55070008113E+03  0.16500000000E+03 0.  0.
<mgrwt>
<rscale>  0 0.47621511E+03</rscale>
<asrwt>0</asrwt>
<pdfrwt beam="1">  1        1 0.22931698E+00 0.47621511E+03</pdfrwt>
<pdfrwt beam="2">  1       -1 0.58517185E-02 0.47621511E+03</pdfrwt>
<totfact> 0.99641434E+02</totfact>
</mgrwt>
</event>
<event>
 4    1  0.2228009E-005  0.3709821E+03  0.7818608E-02  0.1054318E+00
         -1   -1    0    0    0  501 -0.00000000000E+00  0.00000000000E+00  0.79512903484E+02  0.79512903644E+02  0.50400000000E-02 0. -1.
          1   -1    0    0  501    0  0.00000000000E+00 -0.00000000000E+00 -0.43272137594E+03  0.43272137597E+03  0.50400000000E-02 0.  1.
    5000001    1    1    2    0    0 -0.15949330730E+02 -0.82620081134E+02 -0.16269532136E+03  0.24652632019E+03  0.16500000000E+03 0.  0.
   -5000001    1    1    2    0    0  0.15949330730E+02  0.82620081134E+02 -0.19051315110E+03  0.26570795942E+03  0.16500000000E+03 0.  0.
<mgrwt>
<rscale>  0 0.37098212E+03</rscale>
<asrwt>0</asrwt>
<pdfrwt beam="1">  1        1 0.66572518E-01 0.37098212E+03</pdfrwt>
<pdfrwt beam="2">  1       -1 0.12232755E-01 0.37098212E+03</pdfrwt>
<totfact> 0.24398045E+03</totfact>
</mgrwt>
</event>
<event>
 4    1  0.2228009E-005  0.6399782E+03  0.7818608E-02  0.9825768E-01
          1   -1    0    0  501    0  0.00000000000E+00  0.00000000000E+00  0.78862540716E+03  0.78862540718E+03  0.50400000000E-02 0.  1.
         -1   -1    0    0    0  501 -0.00000000000E+00 -0.00000000000E+00 -0.12983734042E+03  0.12983734051E+03  0.50400000000E-02 0. -1.
    5000001    1    1    2    0    0  0.14139960488E+03  0.21438539545E+03  0.19164176118E+03  0.36042545786E+03  0.16500000000E+03 0.  0.
   -5000001    1    1    2    0    0 -0.14139960488E+03 -0.21438539545E+03  0.46714630557E+03  0.55803728984E+03  0.16500000000E+03 0.  0.
<mgrwt>
<rscale>  0 0.63997820E+03</rscale>
<asrwt>0</asrwt>
<pdfrwt beam="1">  1        1 0.12132698E+00 0.63997820E+03</pdfrwt>
<pdfrwt beam="2">  1       -1 0.19974976E-01 0.63997820E+03</pdfrwt>
<totfact> 0.46885926E+02</totfact>
</mgrwt>
</event>
<event>
 4    1  0.2228009E-005  0.6043967E+03  0.7818608E-02  0.9896326E-01
          1   -1    0    0  501    0  0.00000000000E+00  0.00000000000E+00  0.97431172162E+02  0.97431172293E+02  0.50400000000E-02 0.  1.
         -1   -1    0    0    0  501 -0.00000000000E+00 -0.00000000000E+00 -0.93731658026E+03  0.93731658027E+03  0.50400000000E-02 0. -1.
    5000001    1    1    2    0    0  0.22693494983E+03  0.25745925472E+02 -0.23289541760E+03  0.36555109037E+03  0.16500000000E+03 0.  0.
   -5000001    1    1    2    0    0 -0.22693494983E+03 -0.25745925472E+02 -0.60698999050E+03  0.66919666220E+03  0.16500000000E+03 0.  0.
<mgrwt>
<rscale>  0 0.60439673E+03</rscale>
<asrwt>0</asrwt>
<pdfrwt beam="1">  1        1 0.14989412E-01 0.60439673E+03</pdfrwt>
<pdfrwt beam="2">  1       -1 0.14420255E+00 0.60439673E+03</pdfrwt>
<totfact> 0.15309508E+02</totfact>
</mgrwt>
</event>
<event>
 4    1  0.2228009E-005  0.5786495E+03  0.7818608E-02  0.9950719E-01
          1   -1    0    0  501    0  0.00000000000E+00  0.00000000000E+00  0.35857173703E+03  0.35857173706E+03  0.50400000000E-02 0.  1.
         -1   -1    0    0    0  501 -0.00000000000E+00 -0.00000000000E+00 -0.23345064858E+03  0.23345064864E+03  0.50400000000E-02 0. -1.
    5000001    1    1    2    0    0 -0.21409244599E+03  0.95778171788E+02  0.10185079985E+03  0.30431499971E+03  0.16500000000E+03 0.  0.
   -5000001    1    1    2    0    0  0.21409244599E+03 -0.95778171788E+02  0.23270288597E+02  0.28770738599E+03  0.16500000000E+03 0.  0.
<mgrwt>
<rscale>  0 0.57864948E+03</rscale>
<asrwt>0</asrwt>
<pdfrwt beam="1">  1        1 0.55164882E-01 0.57864948E+03</pdfrwt>
<pdfrwt beam="2">  1       -1 0.35915485E-01 0.57864948E+03</pdfrwt>
<totfact> 0.51933147E+02</totfact>
</mgrwt>
</event>
<event>
 4    1  0.2228009E-005  0.5229747E+03  0.7818608E-02  0.1007950E+00
         -1   -1    0    0    0  501 -0.00000000000E+00  0.00000000000E+00  0.54937081806E+03  0.54937081809E+03  0.50400000000E-02 0.  1.
          1   -1    0    0  501    0  0.00000000000E+00 -0.00000000000E+00 -0.12446170121E+03  0.12446170132E+03  0.50400000000E-02 0. -1.
    5000001    1    1    2    0    0 -0.43991885133E+02 -0.17220099724E+03  0.33844838076E+03  0.41636615598E+03  0.16500000000E+03 0.  0.
   -5000001    1    1    2    0    0  0.43991885133E+02  0.17220099724E+03  0.86460736090E+02  0.25746636342E+03  0.16500000000E+03 0.  0.
<mgrwt>
<rscale>  0 0.52297467E+03</rscale>
<asrwt>0</asrwt>
<pdfrwt beam="1">  1        1 0.19147954E-01 0.52297467E+03</pdfrwt>
<pdfrwt beam="2">  1       -1 0.84518587E-01 0.52297467E+03</pdfrwt>
<totfact> 0.39109076E+02</totfact>
</mgrwt>
</event>
<event>
 4    1  0.2228009E-005  0.4493762E+03  0.7818608E-02  0.1027908E+00
          1   -1    0    0  501    0  0.00000000000E+00  0.00000000000E+00  0.16833038114E+04  0.16833038114E+04  0.50400000000E-02 0.  1.
         -1   -1    0    0    0  501 -0.00000000000E+00 -0.00000000000E+00 -0.29991456890E+02  0.29991457313E+02  0.50400000000E-02 0. -1.
    5000001    1    1    2    0    0  0.87178355978E+02  0.17565183086E+02  0.35427520492E+03  0.40080484307E+03  0.16500000000E+03 0.  0.
   -5000001    1    1    2    0    0 -0.87178355978E+02 -0.17565183086E+02  0.12990371496E+04  0.13124904257E+04  0.16500000000E+03 0.  0.
<mgrwt>
<rscale>  0 0.44937616E+03</rscale>
<asrwt>0</asrwt>
<pdfrwt beam="1">  1        1 0.25896972E+00 0.44937616E+03</pdfrwt>
<pdfrwt beam="2">  1       -1 0.46140721E-02 0.44937616E+03</pdfrwt>
<totfact> 0.10646544E+03</totfact>
</mgrwt>
</event>
<event>
 4    1  0.2228009E-005  0.4751249E+03  0.7818608E-02  0.1020484E+00
         -1   -1    0    0    0  501 -0.00000000000E+00  0.00000000000E+00  0.15467948226E+03  0.15467948234E+03  0.50400000000E-02 0. -1.
          1   -1    0    0  501    0  0.00000000000E+00 -0.00000000000E+00 -0.36485713163E+03  0.36485713166E+03  0.50400000000E-02 0.  1.
    5000001    1    1    2    0    0  0.12862996238E+03 -0.11223186460E+03 -0.11418857656E+03  0.26344959607E+03  0.16500000000E+03 0.  0.
   -5000001    1    1    2    0    0 -0.12862996238E+03  0.11223186460E+03 -0.95989072803E+02  0.25608701793E+03  0.16500000000E+03 0.  0.
<mgrwt>
<rscale>  0 0.47512488E+03</rscale>
<asrwt>0</asrwt>
<pdfrwt beam="1">  1        1 0.56131866E-01 0.47512488E+03</pdfrwt>
<pdfrwt beam="2">  1       -1 0.23796844E-01 0.47512488E+03</pdfrwt>
<totfact> 0.10350789E+03</totfact>
</mgrwt>
</event>
<event>
 4    1  0.2228009E-005  0.7023390E+03  0.7818608E-02  0.9713241E-01
         -1   -1    0    0    0  501 -0.00000000000E+00  0.00000000000E+00  0.33265846822E+03  0.33265846826E+03  0.50400000000E-02 0. -1.
          1   -1    0    0  501    0  0.00000000000E+00 -0.00000000000E+00 -0.37071060037E+03  0.37071060040E+03  0.50400000000E-02 0.  1.
    5000001    1    1    2    0    0 -0.12581273314E+03 -0.24385034363E+03 -0.16347069858E+03  0.35949896133E+03  0.16500000000E+03 0.  0.
   -5000001    1    1    2    0    0  0.12581273314E+03  0.24385034363E+03  0.12541856643E+03  0.34387010733E+03  0.16500000000E+03 0.  0.
<mgrwt>
<rscale>  0 0.70233901E+03</rscale>
<asrwt>0</asrwt>
<pdfrwt beam="1">  1        1 0.57032400E-01 0.70233901E+03</pdfrwt>
<pdfrwt beam="2">  1       -1 0.51178226E-01 0.70233901E+03</pdfrwt>
<totfact> 0.25833328E+02</totfact>
</mgrwt>
</event>
<event>
 4    1  0.2228009E-005  0.8513445E+03  0.7818608E-02  0.9488534E-01
          1   -1    0    0  501    0  0.00000000000E+00  0.00000000000E+00  0.34213814358E+04  0.34213814358E+04  0.50400000000E-02 0. -1.
         -1   -1    0    0    0  501 -0.00000000000E+00 -0.00000000000E+00 -0.52960141178E+02  0.52960141418E+02  0.50400000000E-02 0.  1.
    5000001    1    1    2    0    0 -0.19531863216E+03 -0.31572091260E+03  0.11657015410E+04  0.12344691755E+04  0.16500000000E+03 0.  0.
   -5000001    1    1    2    0    0  0.19531863216E+03  0.31572091260E+03  0.22027197537E+04  0.22398724017E+04  0.16500000000E+03 0.  0.
<mgrwt>
<rscale>  0 0.85134445E+03</rscale>
<asrwt>0</asrwt>
<pdfrwt beam="1">  1        1 0.52636644E+00 0.85134445E+03</pdfrwt>
<pdfrwt beam="2">  1       -1 0.81477131E-02 0.85134445E+03</pdfrwt>
<totfact> 0.26534565E+01</totfact>
</mgrwt>
</event>
<event>
 4    1  0.2228009E-005  0.3592199E+03  0.7818608E-02  0.1058893E+00
          1   -1    0    0  501    0  0.00000000000E+00  0.00000000000E+00  0.18543904124E+03  0.18543904130E+03  0.50400000000E-02 0.  1.
         -1   -1    0    0    0  501 -0.00000000000E+00 -0.00000000000E+00 -0.17396405832E+03  0.17396405839E+03  0.50400000000E-02 0. -1.
    5000001    1    1    2    0    0  0.25597704977E+02 -0.46780811107E+02 -0.41094946304E+02  0.17820628889E+03  0.16500000000E+03 0.  0.
   -5000001    1    1    2    0    0 -0.25597704977E+02  0.46780811107E+02  0.52569929221E+02  0.18119681081E+03  0.16500000000E+03 0.  0.
<mgrwt>
<rscale>  0 0.35921987E+03</rscale>
<asrwt>0</asrwt>
<pdfrwt beam="1">  1        1 0.28529083E-01 0.35921987E+03</pdfrwt>
<pdfrwt beam="2">  1       -1 0.26763701E-01 0.35921987E+03</pdfrwt>
<totfact> 0.20126483E+03</totfact>
</mgrwt>
</event>
<event>
 4    1  0.2228009E-005  0.4603150E+03  0.7818608E-02  0.1024690E+00
         -1   -1    0    0    0  501 -0.00000000000E+00  0.00000000000E+00  0.99904742038E+03  0.99904742040E+03  0.50400000000E-02 0.  1.
          1   -1    0    0  501    0  0.00000000000E+00 -0.00000000000E+00 -0.53022974989E+02  0.53022975228E+02  0.50400000000E-02 0. -1.
    5000001    1    1    2    0    0  0.15821757533E+02 -0.15929723471E+03  0.49820816442E+03  0.54869145437E+03  0.16500000000E+03 0.  0.
   -5000001    1    1    2    0    0 -0.15821757533E+02  0.15929723471E+03  0.44781628097E+03  0.50337894126E+03  0.16500000000E+03 0.  0.
<mgrwt>
<rscale>  0 0.46031496E+03</rscale>
<asrwt>0</asrwt>
<pdfrwt beam="1">  1        1 0.81573811E-02 0.46031496E+03</pdfrwt>
<pdfrwt beam="2">  1       -1 0.15369960E+00 0.46031496E+03</pdfrwt>
<totfact> 0.29824787E+02</totfact>
</mgrwt>
</event>
<event>
 4    1  0.2228009E-005  0.5772953E+03  0.7818608E-02  0.9953664E-01
          1   -1    0    0  501    0  0.00000000000E+00  0.00000000000E+00  0.72616883145E+03  0.72616883147E+03  0.50400000000E-02 0. -1.
         -1   -1    0    0    0  501 -0.00000000000E+00 -0.00000000000E+00 -0.11473567052E+03  0.11473567063E+03  0.50400000000E-02 0.  1.
    5000001    1    1    2    0    0  0.18117011908E+03  0.61391381001E+02  0.10230457522E+03  0.27254860084E+03  0.16500000000E+03 0.  0.
   -5000001    1    1    2    0    0 -0.18117011908E+03 -0.61391381001E+02  0.50912858571E+03  0.56835590126E+03  0.16500000000E+03 0.  0.
<mgrwt>
<rscale>  0 0.57729531E+03</rscale>
<asrwt>0</asrwt>
<pdfrwt beam="1">  1        1 0.11171828E+00 0.57729531E+03</pdfrwt>
<pdfrwt beam="2">  1       -1 0.17651642E-01 0.57729531E+03</pdfrwt>
<totfact> 0.65489299E+02</totfact>
</mgrwt>
</event>
<event>
 4    1  0.2228009E-005  0.3617315E+03  0.7818608E-02  0.1057900E+00
         -1   -1    0    0    0  501 -0.00000000000E+00  0.00000000000E+00  0.20795105639E+03  0.20795105645E+03  0.50400000000E-02 0.  1.
          1   -1    0    0  501    0  0.00000000000E+00 -0.00000000000E+00 -0.15730822066E+03  0.15730822074E+03  0.50400000000E-02 0. -1.
    5000001    1    1    2    0    0  0.43059027608E+02 -0.60242854339E+02  0.27373312127E+02  0.18291413170E+03  0.16500000000E+03 0.  0.
   -5000001    1    1    2    0    0 -0.43059027608E+02  0.60242854339E+02  0.23269523607E+02  0.18234514550E+03  0.16500000000E+03 0.  0.
<mgrwt>
<rscale>  0 0.36173145E+03</rscale>
<asrwt>0</asrwt>
<pdfrwt beam="1">  1        1 0.24201265E-01 0.36173145E+03</pdfrwt>
<pdfrwt beam="2">  1       -1 0.31992470E-01 0.36173145E+03</pdfrwt>
<totfact> 0.18319021E+03</totfact>
</mgrwt>
</event>
<event>
 4    1  0.2228009E-005  0.4304178E+03  0.7818608E-02  0.1033728E+00
         -1   -1    0    0    0  501 -0.00000000000E+00  0.00000000000E+00  0.58147655827E+02  0.58147656045E+02  0.50400000000E-02 0.  1.
          1   -1    0    0  501    0  0.00000000000E+00 -0.00000000000E+00 -0.79650465707E+03  0.79650465708E+03  0.50400000000E-02 0. -1.
    5000001    1    1    2    0    0  0.23204651552E+02 -0.13601594781E+03 -0.38337055526E+03  0.43958705230E+03  0.16500000000E+03 0.  0.
   -5000001    1    1    2    0    0 -0.23204651552E+02  0.13601594781E+03 -0.35498644598E+03  0.41506526083E+03  0.16500000000E+03 0.  0.
<mgrwt>
<rscale>  0 0.43041784E+03</rscale>
<asrwt>0</asrwt>
<pdfrwt beam="1">  1        1 0.12253917E+00 0.43041784E+03</pdfrwt>
<pdfrwt beam="2">  1       -1 0.89457938E-02 0.43041784E+03</pdfrwt>
<totfact> 0.16836464E+03</totfact>
</mgrwt>
</event>
<event>
 4    1  0.2228009E-005  0.6657796E+03  0.7818608E-02  0.9777612E-01
         -1   -1    0    0    0  501 -0.00000000000E+00  0.00000000000E+00  0.10788370952E+03  0.10788370964E+03  0.50400000000E-02 0. -1.
          1   -1    0    0  501    0  0.00000000000E+00 -0.00000000000E+00 -0.10271766969E+04  0.10271766969E+04  0.50400000000E-02 0.  1.
    5000001    1    1    2    0    0  0.19814498714E+03  0.21037874835E+03 -0.44538478211E+03  0.55597954803E+03  0.16500000000E+03 0.  0.
   -5000001    1    1    2    0    0 -0.19814498714E+03 -0.21037874835E+03 -0.47390820524E+03  0.57908085850E+03  0.16500000000E+03 0.  0.
<mgrwt>
<rscale>  0 0.66577964E+03</rscale>
<asrwt>0</asrwt>
<pdfrwt beam="1">  1        1 0.15802718E+00 0.66577964E+03</pdfrwt>
<pdfrwt beam="2">  1       -1 0.16597495E-01 0.66577964E+03</pdfrwt>
<totfact> 0.40721363E+02</totfact>
</mgrwt>
</event>
<event>
 4    1  0.2228009E-005  0.7059489E+03  0.7818608E-02  0.9707113E-01
         -1   -1    0    0    0  501 -0.00000000000E+00  0.00000000000E+00  0.81325978622E+03  0.81325978624E+03  0.50400000000E-02 0. -1.
          1   -1    0    0  501    0  0.00000000000E+00 -0.00000000000E+00 -0.15319945435E+03  0.15319945444E+03  0.50400000000E-02 0.  1.
    5000001    1    1    2    0    0  0.27657126672E+03  0.22035578699E+02  0.13454882734E+03  0.34972220296E+03  0.16500000000E+03 0.  0.
   -5000001    1    1    2    0    0 -0.27657126672E+03 -0.22035578699E+02  0.52551150453E+03  0.61673703772E+03  0.16500000000E+03 0.  0.
<mgrwt>
<rscale>  0 0.70594888E+03</rscale>
<asrwt>0</asrwt>
<pdfrwt beam="1">  1        1 0.23569148E-01 0.70594888E+03</pdfrwt>
<pdfrwt beam="2">  1       -1 0.12511689E+00 0.70594888E+03</pdfrwt>
<totfact> 0.11986529E+02</totfact>
</mgrwt>
</event>
<event>
 4    1  0.2228009E-005  0.4189063E+03  0.7818608E-02  0.1037423E+00
         -1   -1    0    0    0  501 -0.00000000000E+00  0.00000000000E+00  0.12478230259E+03  0.12478230270E+03  0.50400000000E-02 0. -1.
          1   -1    0    0  501    0  0.00000000000E+00 -0.00000000000E+00 -0.35157728406E+03  0.35157728409E+03  0.50400000000E-02 0.  1.
    5000001    1    1    2    0    0 -0.14243661258E+02  0.10797264161E+03 -0.19205552586E+03  0.27562891400E+03  0.16500000000E+03 0.  0.
   -5000001    1    1    2    0    0  0.14243661258E+02 -0.10797264161E+03 -0.34739455602E+02  0.20073067279E+03  0.16500000000E+03 0.  0.
<mgrwt>
<rscale>  0 0.41890630E+03</rscale>
<asrwt>0</asrwt>
<pdfrwt beam="1">  1        1 0.54088813E-01 0.41890630E+03</pdfrwt>
<pdfrwt beam="2">  1       -1 0.19197277E-01 0.41890630E+03</pdfrwt>
<totfact> 0.15503796E+03</totfact>
</mgrwt>
</event>
<event>
 4    1  0.2228009E-005  0.4313128E+03  0.7818608E-02  0.1033446E+00
          1   -1    0    0  501    0  0.00000000000E+00  0.00000000000E+00  0.97716796922E+03  0.97716796924E+03  0.50400000000E-02 0.  1.
         -1   -1    0    0    0  501 -0.00000000000E+00 -0.00000000000E+00 -0.47594354899E+02  0.47594355166E+02  0.50400000000E-02 0. -1.
    5000001    1    1    2    0    0 -0.11548507137E+03 -0.75320060470E+01  0.28245728366E+03  0.34698796797E+03  0.16500000000E+03 0.  0.
   -5000001    1    1    2    0    0  0.11548507137E+03  0.75320060470E+01  0.64711633066E+03  0.67777435643E+03  0.16500000000E+03 0.  0.
<mgrwt>
<rscale>  0 0.43131278E+03</rscale>
<asrwt>0</asrwt>
<pdfrwt beam="1">  1        1 0.15033351E+00 0.43131278E+03</pdfrwt>
<pdfrwt beam="2">  1       -1 0.73222096E-02 0.43131278E+03</pdfrwt>
<totfact> 0.16408883E+03</totfact>
</mgrwt>
</event>
<event>
 4    1  0.2228009E-005  0.7968250E+03  0.7818608E-02  0.9564624E-01
         -1   -1    0    0    0  501 -0.00000000000E+00  0.00000000000E+00  0.16412272520E+03  0.16412272528E+03  0.50400000000E-02 0. -1.
          1   -1    0    0  501    0  0.00000000000E+00 -0.00000000000E+00 -0.96715752794E+03  0.96715752795E+03  0.50400000000E-02 0.  1.
    5000001    1    1    2    0    0 -0.15253135283E+03  0.32821815359E+03 -0.36931227904E+03  0.54277944821E+03  0.16500000000E+03 0.  0.
   -5000001    1    1    2    0    0  0.15253135283E+03 -0.32821815359E+03 -0.43372252370E+03  0.58850080502E+03  0.16500000000E+03 0.  0.
<mgrwt>
<rscale>  0 0.79682502E+03</rscale>
<asrwt>0</asrwt>
<pdfrwt beam="1">  1        1 0.14879346E+00 0.79682502E+03</pdfrwt>
<pdfrwt beam="2">  1       -1 0.25249651E-01 0.79682502E+03</pdfrwt>
<totfact> 0.22332007E+02</totfact>
</mgrwt>
</event>
<event>
 4    1  0.2228009E-005  0.5564816E+03  0.7818608E-02  0.1000005E+00
         -1   -1    0    0    0  501 -0.00000000000E+00  0.00000000000E+00  0.11705365790E+03  0.11705365801E+03  0.50400000000E-02 0. -1.
          1   -1    0    0  501    0  0.00000000000E+00 -0.00000000000E+00 -0.66138838943E+03  0.66138838945E+03  0.50400000000E-02 0.  1.
    5000001    1    1    2    0    0 -0.10983469910E+03 -0.16591076238E+03 -0.41620885465E+03  0.48994372420E+03  0.16500000000E+03 0.  0.
   -5000001    1    1    2    0    0  0.10983469910E+03  0.16591076238E+03 -0.12812587688E+03  0.28849832326E+03  0.16500000000E+03 0.  0.
<mgrwt>
<rscale>  0 0.55648156E+03</rscale>
<asrwt>0</asrwt>
<pdfrwt beam="1">  1        1 0.10175206E+00 0.55648156E+03</pdfrwt>
<pdfrwt beam="2">  1       -1 0.18008255E-01 0.55648156E+03</pdfrwt>
<totfact> 0.72919337E+02</totfact>
</mgrwt>
</event>
<event>
 4    1  0.2228009E-005  0.3942069E+03  0.7818608E-02  0.1045804E+00
          1   -1    0    0  501    0  0.00000000000E+00  0.00000000000E+00  0.20125686551E+03  0.20125686557E+03  0.50400000000E-02 0.  1.
         -1   -1    0    0    0  501 -0.00000000000E+00 -0.00000000000E+00 -0.19303573039E+03  0.19303573045E+03  0.50400000000E-02 0. -1.
    5000001    1    1    2    0    0  0.10720165033E+03  0.63819604106E+00  0.15609367895E+02  0.19738605192E+03  0.16500000000E+03 0.  0.
   -5000001    1    1    2    0    0 -0.10720165033E+03 -0.63819604106E+00 -0.73882327720E+01  0.19690654410E+03  0.16500000000E+03 0.  0.
<mgrwt>
<rscale>  0 0.39420688E+03</rscale>
<asrwt>0</asrwt>
<pdfrwt beam="1">  1        1 0.30962595E-01 0.39420688E+03</pdfrwt>
<pdfrwt beam="2">  1       -1 0.29697805E-01 0.39420688E+03</pdfrwt>
<totfact> 0.15202493E+03</totfact>
</mgrwt>
</event>
<event>
 4    1  0.2228009E-005  0.5366241E+03  0.7818608E-02  0.1004638E+00
         -1   -1    0    0    0  501 -0.00000000000E+00  0.00000000000E+00  0.10562414049E+03  0.10562414061E+03  0.50400000000E-02 0. -1.
          1   -1    0    0  501    0  0.00000000000E+00 -0.00000000000E+00 -0.68158044390E+03  0.68158044392E+03  0.50400000000E-02 0.  1.
    5000001    1    1    2    0    0  0.13370500682E+03  0.12871663406E+03 -0.13894404373E+03  0.28456185271E+03  0.16500000000E+03 0.  0.
   -5000001    1    1    2    0    0 -0.13370500682E+03 -0.12871663406E+03 -0.43701225969E+03  0.50264273182E+03  0.16500000000E+03 0.  0.
<mgrwt>
<rscale>  0 0.53662407E+03</rscale>
<asrwt>0</asrwt>
<pdfrwt beam="1">  1        1 0.10485853E+00 0.53662407E+03</pdfrwt>
<pdfrwt beam="2">  1       -1 0.16249868E-01 0.53662407E+03</pdfrwt>
<totfact> 0.82538963E+02</totfact>
</mgrwt>
</event>
<event>
 4    1  0.2228009E-005  0.5472966E+03  0.7818608E-02  0.1002122E+00
         -1   -1    0    0    0  501 -0.00000000000E+00  0.00000000000E+00  0.16091955929E+03  0.16091955936E+03  0.50400000000E-02 0. -1.
          1   -1    0    0  501    0  0.00000000000E+00 -0.00000000000E+00 -0.46534676265E+03  0.46534676268E+03  0.50400000000E-02 0.  1.
    5000001    1    1    2    0    0 -0.21376302091E+03 -0.43662283147E+02 -0.16088094455E+03  0.31734634454E+03  0.16500000000E+03 0.  0.
   -5000001    1    1    2    0    0  0.21376302091E+03  0.43662283147E+02 -0.14354625882E+03  0.30891997750E+03  0.16500000000E+03 0.  0.
<mgrwt>
<rscale>  0 0.54729661E+03</rscale>
<asrwt>0</asrwt>
<pdfrwt beam="1">  1        1 0.71591809E-01 0.54729661E+03</pdfrwt>
<pdfrwt beam="2">  1       -1 0.24756855E-01 0.54729661E+03</pdfrwt>
<totfact> 0.70203027E+02</totfact>
</mgrwt>
</event>
<event>
 4    1  0.2228009E-005  0.5398275E+03  0.7818608E-02  0.1003876E+00
         -1   -1    0    0    0  501 -0.00000000000E+00  0.00000000000E+00  0.53161686284E+02  0.53161686523E+02  0.50400000000E-02 0. -1.
          1   -1    0    0  501    0  0.00000000000E+00 -0.00000000000E+00 -0.13704125990E+04  0.13704125990E+04  0.50400000000E-02 0.  1.
    5000001    1    1    2    0    0 -0.12376186944E+03  0.48876770694E+02 -0.10992840945E+04  0.11195340367E+04  0.16500000000E+03 0.  0.
   -5000001    1    1    2    0    0  0.12376186944E+03 -0.48876770694E+02 -0.21796681828E+03  0.30404024883E+03  0.16500000000E+03 0.  0.
<mgrwt>
<rscale>  0 0.53982755E+03</rscale>
<asrwt>0</asrwt>
<pdfrwt beam="1">  1        1 0.21083268E+00 0.53982755E+03</pdfrwt>
<pdfrwt beam="2">  1       -1 0.81787220E-02 0.53982755E+03</pdfrwt>
<totfact> 0.71552500E+02</totfact>
</mgrwt>
</event>
<event>
 4    1  0.2228009E-005  0.6040955E+03  0.7818608E-02  0.9896945E-01
          1   -1    0    0  501    0  0.00000000000E+00  0.00000000000E+00  0.22082907705E+04  0.22082907705E+04  0.50400000000E-02 0.  1.
         -1   -1    0    0    0  501 -0.00000000000E+00 -0.00000000000E+00 -0.41313781877E+02  0.41313782184E+02  0.50400000000E-02 0. -1.
    5000001    1    1    2    0    0 -0.42150480150E+02 -0.24921144458E+03  0.10418810220E+04  0.10847230389E+04  0.16500000000E+03 0.  0.
   -5000001    1    1    2    0    0  0.42150480150E+02  0.24921144458E+03  0.11250959666E+04  0.11648815138E+04  0.16500000000E+03 0.  0.
<mgrwt>
<rscale>  0 0.60409550E+03</rscale>
<asrwt>0</asrwt>
<pdfrwt beam="1">  1        1 0.33973704E+00 0.60409550E+03</pdfrwt>
<pdfrwt beam="2">  1       -1 0.63559665E-02 0.60409550E+03</pdfrwt>
<totfact> 0.28904877E+02</totfact>
</mgrwt>
</event>
<event>
 4    1  0.2228009E-005  0.5553993E+03  0.7818608E-02  0.1000252E+00
         -1   -1    0    0    0  501 -0.00000000000E+00  0.00000000000E+00  0.36783087185E+03  0.36783087189E+03  0.50400000000E-02 0.  1.
          1   -1    0    0  501    0  0.00000000000E+00 -0.00000000000E+00 -0.20965370012E+03  0.20965370018E+03  0.50400000000E-02 0. -1.
    5000001    1    1    2    0    0  0.33212143970E+02 -0.19777643027E+03  0.18135376007E+03  0.31675345171E+03  0.16500000000E+03 0.  0.
   -5000001    1    1    2    0    0 -0.33212143970E+02  0.19777643027E+03 -0.23176588341E+02  0.26073112036E+03  0.16500000000E+03 0.  0.
<mgrwt>
<rscale>  0 0.55539933E+03</rscale>
<asrwt>0</asrwt>
<pdfrwt beam="1">  1        1 0.32254416E-01 0.55539933E+03</pdfrwt>
<pdfrwt beam="2">  1       -1 0.56589364E-01 0.55539933E+03</pdfrwt>
<totfact> 0.44759045E+02</totfact>
</mgrwt>
</event>
<event>
 4    1  0.2228009E-005  0.5742866E+03  0.7818608E-02  0.9960238E-01
         -1   -1    0    0    0  501 -0.00000000000E+00  0.00000000000E+00  0.14434298982E+03  0.14434298991E+03  0.50400000000E-02 0. -1.
          1   -1    0    0  501    0  0.00000000000E+00 -0.00000000000E+00 -0.57121765441E+03  0.57121765443E+03  0.50400000000E-02 0.  1.
    5000001    1    1    2    0    0  0.20078564968E+03 -0.12026171940E+03 -0.23982505089E+03  0.37352217244E+03  0.16500000000E+03 0.  0.
   -5000001    1    1    2    0    0 -0.20078564968E+03  0.12026171940E+03 -0.18704961371E+03  0.34203847190E+03  0.16500000000E+03 0.  0.
<mgrwt>
<rscale>  0 0.57428656E+03</rscale>
<asrwt>0</asrwt>
<pdfrwt beam="1">  1        1 0.87879638E-01 0.57428656E+03</pdfrwt>
<pdfrwt beam="2">  1       -1 0.22206614E-01 0.57428656E+03</pdfrwt>
<totfact> 0.63572321E+02</totfact>
</mgrwt>
</event>
<event>
 4    1  0.2228009E-005  0.3792435E+03  0.7818608E-02  0.1051214E+00
          1   -1    0    0  501    0  0.00000000000E+00  0.00000000000E+00  0.78354746799E+02  0.78354746961E+02  0.50400000000E-02 0.  1.
         -1   -1    0    0    0  501 -0.00000000000E+00 -0.00000000000E+00 -0.45889259899E+03  0.45889259902E+03  0.50400000000E-02 0. -1.
    5000001    1    1    2    0    0  0.50815003490E+02 -0.77932065293E+02 -0.20260597243E+03  0.27736213051E+03  0.16500000000E+03 0.  0.
   -5000001    1    1    2    0    0 -0.50815003490E+02  0.77932065293E+02 -0.17793187976E+03  0.25988521546E+03  0.16500000000E+03 0.  0.
<mgrwt>
<rscale>  0 0.37924353E+03</rscale>
<asrwt>0</asrwt>
<pdfrwt beam="1">  1        1 0.12054577E-01 0.37924353E+03</pdfrwt>
<pdfrwt beam="2">  1       -1 0.70598860E-01 0.37924353E+03</pdfrwt>
<totfact> 0.10548457E+03</totfact>
</mgrwt>
</event>
<event>
 4    1  0.2228009E-005  0.5337800E+03  0.7818608E-02  0.1005320E+00
          1   -1    0    0  501    0  0.00000000000E+00  0.00000000000E+00  0.41820876480E+03  0.41820876483E+03  0.50400000000E-02 0.  1.
         -1   -1    0    0    0  501 -0.00000000000E+00 -0.00000000000E+00 -0.17032225483E+03  0.17032225490E+03  0.50400000000E-02 0. -1.
    5000001    1    1    2    0    0 -0.10446756659E+03 -0.55068377431E+00 -0.76626396943E+02  0.20978651156E+03  0.16500000000E+03 0.  0.
   -5000001    1    1    2    0    0  0.10446756659E+03  0.55068377431E+00  0.32451290692E+03  0.37874450818E+03  0.16500000000E+03 0.  0.
<mgrwt>
<rscale>  0 0.53377995E+03</rscale>
<asrwt>0</asrwt>
<pdfrwt beam="1">  1        1 0.64339810E-01 0.53377995E+03</pdfrwt>
<pdfrwt beam="2">  1       -1 0.26203424E-01 0.53377995E+03</pdfrwt>
<totfact> 0.73517814E+02</totfact>
</mgrwt>
</event>
<event>
 4    1  0.2228009E-005  0.4500214E+03  0.7818608E-02  0.1027716E+00
          1   -1    0    0  501    0  0.00000000000E+00  0.00000000000E+00  0.13958621655E+04  0.13958621655E+04  0.50400000000E-02 0.  1.
         -1   -1    0    0    0  501 -0.00000000000E+00 -0.00000000000E+00 -0.36271361845E+02  0.36271362195E+02  0.50400000000E-02 0. -1.
    5000001    1    1    2    0    0  0.13874139416E+03  0.64155397909E+02  0.65973577779E+03  0.69702323206E+03  0.16500000000E+03 0.  0.
   -5000001    1    1    2    0    0 -0.13874139416E+03 -0.64155397909E+02  0.69985502587E+03  0.73511029565E+03  0.16500000000E+03 0.  0.
<mgrwt>
<rscale>  0 0.45002143E+03</rscale>
<asrwt>0</asrwt>
<pdfrwt beam="1">  1        1 0.21474803E+00 0.45002143E+03</pdfrwt>
<pdfrwt beam="2">  1       -1 0.55802093E-02 0.45002143E+03</pdfrwt>
<totfact> 0.12442060E+03</totfact>
</mgrwt>
</event>
<event>
 4    1  0.2228009E-005  0.4084424E+03  0.7818608E-02  0.1040895E+00
         -1   -1    0    0    0  501 -0.00000000000E+00  0.00000000000E+00  0.16417217043E+03  0.16417217051E+03  0.50400000000E-02 0.  1.
          1   -1    0    0  501    0  0.00000000000E+00 -0.00000000000E+00 -0.25404006180E+03  0.25404006185E+03  0.50400000000E-02 0. -1.
    5000001    1    1    2    0    0  0.18498029883E+02  0.11602965013E+03 -0.71560807916E+02  0.21482785212E+03  0.16500000000E+03 0.  0.
   -5000001    1    1    2    0    0 -0.18498029883E+02 -0.11602965013E+03 -0.18307083449E+02  0.20338438023E+03  0.16500000000E+03 0.  0.
<mgrwt>
<rscale>  0 0.40844245E+03</rscale>
<asrwt>0</asrwt>
<pdfrwt beam="1">  1        1 0.39083087E-01 0.40844245E+03</pdfrwt>
<pdfrwt beam="2">  1       -1 0.25257257E-01 0.40844245E+03</pdfrwt>
<totfact> 0.14885354E+03</totfact>
</mgrwt>
</event>
<event>
 4    1  0.2228009E-005  0.4053981E+03  0.7818608E-02  0.1041926E+00
         -1   -1    0    0    0  501 -0.00000000000E+00  0.00000000000E+00  0.14872392477E+03  0.14872392486E+03  0.50400000000E-02 0. -1.
          1   -1    0    0  501    0  0.00000000000E+00 -0.00000000000E+00 -0.27626291145E+03  0.27626291150E+03  0.50400000000E-02 0.  1.
    5000001    1    1    2    0    0  0.78944582728E+02  0.62844149941E+02 -0.12736605290E+03  0.23157881111E+03  0.16500000000E+03 0.  0.
   -5000001    1    1    2    0    0 -0.78944582728E+02 -0.62844149941E+02 -0.17293378219E+00  0.19340802525E+03  0.16500000000E+03 0.  0.
<mgrwt>
<rscale>  0 0.40539810E+03</rscale>
<asrwt>0</asrwt>
<pdfrwt beam="1">  1        1 0.42501986E-01 0.40539810E+03</pdfrwt>
<pdfrwt beam="2">  1       -1 0.22880604E-01 0.40539810E+03</pdfrwt>
<totfact> 0.15786462E+03</totfact>
</mgrwt>
</event>
<event>
 4    1  0.2228009E-005  0.5155392E+03  0.7818608E-02  0.1009801E+00
          1   -1    0    0  501    0  0.00000000000E+00  0.00000000000E+00  0.96569664313E+03  0.96569664314E+03  0.50400000000E-02 0.  1.
         -1   -1    0    0    0  501 -0.00000000000E+00 -0.00000000000E+00 -0.68805411777E+02  0.68805411962E+02  0.50400000000E-02 0. -1.
    5000001    1    1    2    0    0 -0.64780092548E+02  0.16273597965E+03  0.63389112839E+03  0.67802833430E+03  0.16500000000E+03 0.  0.
   -5000001    1    1    2    0    0  0.64780092548E+02 -0.16273597965E+03  0.26300010296E+03  0.35647372080E+03  0.16500000000E+03 0.  0.
<mgrwt>
<rscale>  0 0.51553916E+03</rscale>
<asrwt>0</asrwt>
<pdfrwt beam="1">  1        1 0.14856871E+00 0.51553916E+03</pdfrwt>
<pdfrwt beam="2">  1       -1 0.10585448E-01 0.51553916E+03</pdfrwt>
<totfact> 0.94098511E+02</totfact>
</mgrwt>
</event>
<event>
 4    1  0.2228009E-005  0.6099695E+03  0.7818608E-02  0.9884936E-01
          1   -1    0    0  501    0  0.00000000000E+00  0.00000000000E+00  0.17954256040E+04  0.17954256040E+04  0.50400000000E-02 0. -1.
         -1   -1    0    0    0  501 -0.00000000000E+00 -0.00000000000E+00 -0.51807048972E+02  0.51807049217E+02  0.50400000000E-02 0.  1.
    5000001    1    1    2    0    0 -0.87265208587E+02 -0.19745658263E+03  0.45233046514E+03  0.52766672091E+03  0.16500000000E+03 0.  0.
   -5000001    1    1    2    0    0  0.87265208587E+02  0.19745658263E+03  0.12912880899E+04  0.13195659323E+04  0.16500000000E+03 0.  0.
<mgrwt>
<rscale>  0 0.60996952E+03</rscale>
<asrwt>0</asrwt>
<pdfrwt beam="1">  1        1 0.27621930E+00 0.60996952E+03</pdfrwt>
<pdfrwt beam="2">  1       -1 0.79703159E-02 0.60996952E+03</pdfrwt>
<totfact> 0.38284816E+02</totfact>
</mgrwt>
</event>
<event>
 4    1  0.2228009E-005  0.4311872E+03  0.7818608E-02  0.1033486E+00
          1   -1    0    0  501    0  0.00000000000E+00  0.00000000000E+00  0.14639481021E+03  0.14639481030E+03  0.50400000000E-02 0.  1.
         -1   -1    0    0    0  501 -0.00000000000E+00 -0.00000000000E+00 -0.31750163619E+03  0.31750163623E+03  0.50400000000E-02 0. -1.
    5000001    1    1    2    0    0 -0.69601147862E+02 -0.11443210513E+03 -0.46516413091E+02  0.21754954184E+03  0.16500000000E+03 0.  0.
   -5000001    1    1    2    0    0  0.69601147862E+02  0.11443210513E+03 -0.12459041289E+03  0.24634690469E+03  0.16500000000E+03 0.  0.
<mgrwt>
<rscale>  0 0.43118716E+03</rscale>
<asrwt>0</asrwt>
<pdfrwt beam="1">  1        1 0.22522279E-01 0.43118716E+03</pdfrwt>
<pdfrwt beam="2">  1       -1 0.48846405E-01 0.43118716E+03</pdfrwt>
<totfact> 0.94288890E+02</totfact>
</mgrwt>
</event>
<event>
 4    1  0.2228009E-005  0.3680190E+03  0.7818608E-02  0.1055453E+00
         -1   -1    0    0    0  501 -0.00000000000E+00  0.00000000000E+00  0.12213507869E+03  0.12213507879E+03  0.50400000000E-02 0. -1.
          1   -1    0    0  501    0  0.00000000000E+00 -0.00000000000E+00 -0.27722995019E+03  0.27722995024E+03  0.50400000000E-02 0.  1.
    5000001    1    1    2    0    0 -0.16137366878E+02  0.71822924570E+02 -0.11538184959E+03  0.21437564768E+03  0.16500000000E+03 0.  0.
   -5000001    1    1    2    0    0  0.16137366878E+02 -0.71822924570E+02 -0.39713021910E+02  0.18498938135E+03  0.16500000000E+03 0.  0.
<mgrwt>
<rscale>  0 0.36801903E+03</rscale>
<asrwt>0</asrwt>
<pdfrwt beam="1">  1        1 0.42650761E-01 0.36801903E+03</pdfrwt>
<pdfrwt beam="2">  1       -1 0.18790012E-01 0.36801903E+03</pdfrwt>
<totfact> 0.21719189E+03</totfact>
</mgrwt>
</event>
<event>
 4    1  0.2228009E-005  0.5886020E+03  0.7818608E-02  0.9929340E-01
         -1   -1    0    0    0  501 -0.00000000000E+00  0.00000000000E+00  0.87804466476E+02  0.87804466620E+02  0.50400000000E-02 0. -1.
          1   -1    0    0  501    0  0.00000000000E+00 -0.00000000000E+00 -0.98643120042E+03  0.98643120044E+03  0.50400000000E-02 0.  1.
    5000001    1    1    2    0    0  0.48955142477E+02 -0.15711185724E+03 -0.12127219176E+03  0.26270265730E+03  0.16500000000E+03 0.  0.
   -5000001    1    1    2    0    0 -0.48955142477E+02  0.15711185724E+03 -0.77735454219E+03  0.81153300976E+03  0.16500000000E+03 0.  0.
<mgrwt>
<rscale>  0 0.58860195E+03</rscale>
<asrwt>0</asrwt>
<pdfrwt beam="1">  1        1 0.15175864E+00 0.58860195E+03</pdfrwt>
<pdfrwt beam="2">  1       -1 0.13508380E-01 0.58860195E+03</pdfrwt>
<totfact> 0.61338767E+02</totfact>
</mgrwt>
</event>
<event>
 4    1  0.2228009E-005  0.3825597E+03  0.7818608E-02  0.1049992E+00
         -1   -1    0    0    0  501 -0.00000000000E+00  0.00000000000E+00  0.50166232608E+02  0.50166232861E+02  0.50400000000E-02 0. -1.
          1   -1    0    0  501    0  0.00000000000E+00 -0.00000000000E+00 -0.72933496787E+03  0.72933496789E+03  0.50400000000E-02 0.  1.
    5000001    1    1    2    0    0 -0.96536614324E+02 -0.34692331739E+00 -0.35303086208E+03  0.40146634709E+03  0.16500000000E+03 0.  0.
   -5000001    1    1    2    0    0  0.96536614324E+02  0.34692331739E+00 -0.32613787318E+03  0.37803485366E+03  0.16500000000E+03 0.  0.
<mgrwt>
<rscale>  0 0.38255974E+03</rscale>
<asrwt>0</asrwt>
<pdfrwt beam="1">  1        1 0.11220537E+00 0.38255974E+03</pdfrwt>
<pdfrwt beam="2">  1       -1 0.77178825E-02 0.38255974E+03</pdfrwt>
<totfact> 0.24209988E+03</totfact>
</mgrwt>
</event>
<event>
 4    1  0.2228009E-005  0.8512133E+03  0.7818608E-02  0.9488710E-01
         -1   -1    0    0    0  501 -0.00000000000E+00  0.00000000000E+00  0.71951431225E+03  0.71951431227E+03  0.50400000000E-02 0. -1.
          1   -1    0    0  501    0  0.00000000000E+00 -0.00000000000E+00 -0.25175458623E+03  0.25175458629E+03  0.50400000000E-02 0.  1.
    5000001    1    1    2    0    0 -0.61844944425E+02  0.37640948165E+03  0.12925737809E+03  0.43524862414E+03  0.16500000000E+03 0.  0.
   -5000001    1    1    2    0    0  0.61844944425E+02 -0.37640948165E+03  0.33850234792E+03  0.53602027441E+03  0.16500000000E+03 0.  0.
<mgrwt>
<rscale>  0 0.85121332E+03</rscale>
<asrwt>0</asrwt>
<pdfrwt beam="1">  1        1 0.38731475E-01 0.85121332E+03</pdfrwt>
<pdfrwt beam="2">  1       -1 0.11069451E+00 0.85121332E+03</pdfrwt>
<totfact> 0.83746234E+01</totfact>
</mgrwt>
</event>
<event>
 4    1  0.2228009E-005  0.4872055E+03  0.7818608E-02  0.1017173E+00
         -1   -1    0    0    0  501 -0.00000000000E+00  0.00000000000E+00  0.12965020859E+03  0.12965020869E+03  0.50400000000E-02 0.  1.
          1   -1    0    0  501    0  0.00000000000E+00 -0.00000000000E+00 -0.45771088000E+03  0.45771088003E+03  0.50400000000E-02 0. -1.
    5000001    1    1    2    0    0  0.71797427704E+02 -0.14831901134E+03 -0.79091763344E+02  0.24623953131E+03  0.16500000000E+03 0.  0.
   -5000001    1    1    2    0    0 -0.71797427704E+02  0.14831901134E+03 -0.24896890806E+03  0.34112155741E+03  0.16500000000E+03 0.  0.
<mgrwt>
<rscale>  0 0.48720555E+03</rscale>
<asrwt>0</asrwt>
<pdfrwt beam="1">  1        1 0.70417058E-01 0.48720555E+03</pdfrwt>
<pdfrwt beam="2">  1       -1 0.19946186E-01 0.48720555E+03</pdfrwt>
<totfact> 0.10309072E+03</totfact>
</mgrwt>
</event>
<event>
 4    1  0.2228009E-005  0.6529631E+03  0.7818608E-02  0.9801235E-01
         -1   -1    0    0    0  501 -0.00000000000E+00  0.00000000000E+00  0.18450868005E+03  0.18450868012E+03  0.50400000000E-02 0.  1.
          1   -1    0    0  501    0  0.00000000000E+00 -0.00000000000E+00 -0.57769749086E+03  0.57769749088E+03  0.50400000000E-02 0. -1.
    5000001    1    1    2    0    0 -0.18464862123E+03 -0.14841487510E+03 -0.37455791864E+03  0.47290667461E+03  0.16500000000E+03 0.  0.
   -5000001    1    1    2    0    0  0.18464862123E+03  0.14841487510E+03 -0.18630892170E+02  0.28929949640E+03  0.16500000000E+03 0.  0.
<mgrwt>
<rscale>  0 0.65296310E+03</rscale>
<asrwt>0</asrwt>
<pdfrwt beam="1">  1        1 0.88876536E-01 0.65296310E+03</pdfrwt>
<pdfrwt beam="2">  1       -1 0.28385951E-01 0.65296310E+03</pdfrwt>
<totfact> 0.41113125E+02</totfact>
</mgrwt>
</event>
<event>
 4    1  0.2228009E-005  0.5882474E+03  0.7818608E-02  0.9930093E-01
          1   -1    0    0  501    0  0.00000000000E+00  0.00000000000E+00  0.48755134666E+03  0.48755134668E+03  0.50400000000E-02 0.  1.
         -1   -1    0    0    0  501 -0.00000000000E+00 -0.00000000000E+00 -0.17743516328E+03  0.17743516335E+03  0.50400000000E-02 0. -1.
    5000001    1    1    2    0    0  0.99449290683E+02 -0.17938940262E+03  0.30337187825E+03  0.40165932792E+03  0.16500000000E+03 0.  0.
   -5000001    1    1    2    0    0 -0.99449290683E+02  0.17938940262E+03  0.67443051281E+01  0.26332718212E+03  0.16500000000E+03 0.  0.
<mgrwt>
<rscale>  0 0.58824741E+03</rscale>
<asrwt>0</asrwt>
<pdfrwt beam="1">  1        1 0.75007900E-01 0.58824741E+03</pdfrwt>
<pdfrwt beam="2">  1       -1 0.27297717E-01 0.58824741E+03</pdfrwt>
<totfact> 0.55756977E+02</totfact>
</mgrwt>
</event>
<event>
 4    1  0.2228009E-005  0.4432563E+03  0.7818608E-02  0.1029752E+00
         -1   -1    0    0    0  501 -0.00000000000E+00  0.00000000000E+00  0.39828926772E+03  0.39828926775E+03  0.50400000000E-02 0.  1.
          1   -1    0    0  501    0  0.00000000000E+00 -0.00000000000E+00 -0.12332500838E+03  0.12332500848E+03  0.50400000000E-02 0. -1.
    5000001    1    1    2    0    0 -0.80473884269E+02 -0.12183191652E+03  0.10926483049E+03  0.24593264345E+03  0.16500000000E+03 0.  0.
   -5000001    1    1    2    0    0  0.80473884269E+02  0.12183191652E+03  0.16569942885E+03  0.27568163278E+03  0.16500000000E+03 0.  0.
<mgrwt>
<rscale>  0 0.44325626E+03</rscale>
<asrwt>0</asrwt>
<pdfrwt beam="1">  1        1 0.18973078E-01 0.44325626E+03</pdfrwt>
<pdfrwt beam="2">  1       -1 0.61275273E-01 0.44325626E+03</pdfrwt>
<totfact> 0.76524260E+02</totfact>
</mgrwt>
</event>
<event>
 4    1  0.2228009E-005  0.5469778E+03  0.7818608E-02  0.1002196E+00
         -1   -1    0    0    0  501 -0.00000000000E+00  0.00000000000E+00  0.18776264714E+03  0.18776264721E+03  0.50400000000E-02 0. -1.
          1   -1    0    0  501    0  0.00000000000E+00 -0.00000000000E+00 -0.39835500538E+03  0.39835500541E+03  0.50400000000E-02 0.  1.
    5000001    1    1    2    0    0 -0.10904970629E+03  0.16397135372E+03 -0.48167041886E+01  0.25695650200E+03  0.16500000000E+03 0.  0.
   -5000001    1    1    2    0    0  0.10904970629E+03 -0.16397135372E+03 -0.20577565405E+03  0.32916115062E+03  0.16500000000E+03 0.  0.
<mgrwt>
<rscale>  0 0.54697784E+03</rscale>
<asrwt>0</asrwt>
<pdfrwt beam="1">  1        1 0.61285385E-01 0.54697784E+03</pdfrwt>
<pdfrwt beam="2">  1       -1 0.28886561E-01 0.54697784E+03</pdfrwt>
<totfact> 0.66308886E+02</totfact>
</mgrwt>
</event>
<event>
 4    1  0.2228009E-005  0.6081080E+03  0.7818608E-02  0.9888726E-01
         -1   -1    0    0    0  501 -0.00000000000E+00  0.00000000000E+00  0.33617820703E+03  0.33617820706E+03  0.50400000000E-02 0.  1.
          1   -1    0    0  501    0  0.00000000000E+00 -0.00000000000E+00 -0.27499953342E+03  0.27499953347E+03  0.50400000000E-02 0. -1.
    5000001    1    1    2    0    0  0.74692705402E+02 -0.20239426934E+03 -0.10678056805E+03  0.29183819184E+03  0.16500000000E+03 0.  0.
   -5000001    1    1    2    0    0 -0.74692705402E+02  0.20239426934E+03  0.16795924165E+03  0.31933954869E+03  0.16500000000E+03 0.  0.
<mgrwt>
<rscale>  0 0.60810805E+03</rscale>
<asrwt>0</asrwt>
<pdfrwt beam="1">  1        1 0.42307621E-01 0.60810805E+03</pdfrwt>
<pdfrwt beam="2">  1       -1 0.51719724E-01 0.60810805E+03</pdfrwt>
<totfact> 0.37447580E+02</totfact>
</mgrwt>
</event>
<event>
 4    1  0.2228009E-005  0.5026169E+03  0.7818608E-02  0.1013098E+00
          1   -1    0    0  501    0  0.00000000000E+00  0.00000000000E+00  0.33754643495E+03  0.33754643499E+03  0.50400000000E-02 0.  1.
         -1   -1    0    0    0  501 -0.00000000000E+00 -0.00000000000E+00 -0.18710295223E+03  0.18710295230E+03  0.50400000000E-02 0. -1.
    5000001    1    1    2    0    0  0.96584810140E+02 -0.16115214705E+03  0.10146947347E+03  0.26985124438E+03  0.16500000000E+03 0.  0.
   -5000001    1    1    2    0    0 -0.96584810140E+02  0.16115214705E+03  0.48974009239E+02  0.25479814291E+03  0.16500000000E+03 0.  0.
<mgrwt>
<rscale>  0 0.50261689E+03</rscale>
<asrwt>0</asrwt>
<pdfrwt beam="1">  1        1 0.51930220E-01 0.50261689E+03</pdfrwt>
<pdfrwt beam="2">  1       -1 0.28785070E-01 0.50261689E+03</pdfrwt>
<totfact> 0.82831393E+02</totfact>
</mgrwt>
</event>
<event>
 4    1  0.2228009E-005  0.5217154E+03  0.7818608E-02  0.1008261E+00
          1   -1    0    0  501    0  0.00000000000E+00  0.00000000000E+00  0.12460170538E+04  0.12460170538E+04  0.50400000000E-02 0.  1.
         -1   -1    0    0    0  501 -0.00000000000E+00 -0.00000000000E+00 -0.54611395600E+02  0.54611395833E+02  0.50400000000E-02 0. -1.
    5000001    1    1    2    0    0 -0.10245173154E+03  0.17414068687E+03  0.59413741953E+03  0.64888027356E+03  0.16500000000E+03 0.  0.
   -5000001    1    1    2    0    0  0.10245173154E+03 -0.17414068687E+03  0.59726823869E+03  0.65174817611E+03  0.16500000000E+03 0.  0.
<mgrwt>
<rscale>  0 0.52171536E+03</rscale>
<asrwt>0</asrwt>
<pdfrwt beam="1">  1        1 0.19169493E+00 0.52171536E+03</pdfrwt>
<pdfrwt beam="2">  1       -1 0.84017534E-02 0.52171536E+03</pdfrwt>
<totfact> 0.83898206E+02</totfact>
</mgrwt>
</event>
<event>
 4    1  0.2228009E-005  0.7720166E+03  0.7818608E-02  0.9601429E-01
         -1   -1    0    0    0  501 -0.00000000000E+00  0.00000000000E+00  0.53544114629E+03  0.53544114631E+03  0.50400000000E-02 0. -1.
          1   -1    0    0  501    0  0.00000000000E+00 -0.00000000000E+00 -0.27827972073E+03  0.27827972077E+03  0.50400000000E-02 0.  1.
    5000001    1    1    2    0    0  0.18177456832E+03 -0.27132008512E+03 -0.10287254888E+01  0.36589976845E+03  0.16500000000E+03 0.  0.
   -5000001    1    1    2    0    0 -0.18177456832E+03  0.27132008512E+03  0.25819015105E+03  0.44782109863E+03  0.16500000000E+03 0.  0.
<mgrwt>
<rscale>  0 0.77201661E+03</rscale>
<asrwt>0</asrwt>
<pdfrwt beam="1">  1        1 0.42812266E-01 0.77201661E+03</pdfrwt>
<pdfrwt beam="2">  1       -1 0.82375559E-01 0.77201661E+03</pdfrwt>
<totfact> 0.14359750E+02</totfact>
</mgrwt>
</event>
<event>
 4    1  0.2228009E-005  0.6586439E+03  0.7818608E-02  0.9790693E-01
         -1   -1    0    0    0  501 -0.00000000000E+00  0.00000000000E+00  0.11098707016E+03  0.11098707028E+03  0.50400000000E-02 0.  1.
          1   -1    0    0  501    0  0.00000000000E+00 -0.00000000000E+00 -0.97716737818E+03  0.97716737820E+03  0.50400000000E-02 0. -1.
    5000001    1    1    2    0    0 -0.19530237678E+03  0.11154603554E+03 -0.72229217132E+03  0.77428451952E+03  0.16500000000E+03 0.  0.
   -5000001    1    1    2    0    0  0.19530237678E+03 -0.11154603554E+03 -0.14388813671E+03  0.31386992896E+03  0.16500000000E+03 0.  0.
<mgrwt>
<rscale>  0 0.65864389E+03</rscale>
<asrwt>0</asrwt>
<pdfrwt beam="1">  1        1 0.15033344E+00 0.65864389E+03</pdfrwt>
<pdfrwt beam="2">  1       -1 0.17074935E-01 0.65864389E+03</pdfrwt>
<totfact> 0.42501893E+02</totfact>
</mgrwt>
</event>
<event>
 4    1  0.2228009E-005  0.3577116E+03  0.7818608E-02  0.1059494E+00
          1   -1    0    0  501    0  0.00000000000E+00  0.00000000000E+00  0.10614534166E+03  0.10614534178E+03  0.50400000000E-02 0. -1.
         -1   -1    0    0    0  501 -0.00000000000E+00 -0.00000000000E+00 -0.30137360732E+03  0.30137360736E+03  0.50400000000E-02 0.  1.
    5000001    1    1    2    0    0  0.87964760842E+01  0.66619240019E+02 -0.11558752969E+03  0.21236990877E+03  0.16500000000E+03 0.  0.
   -5000001    1    1    2    0    0 -0.87964760842E+01 -0.66619240019E+02 -0.79640735966E+02  0.19514904037E+03  0.16500000000E+03 0.  0.
<mgrwt>
<rscale>  0 0.35771164E+03</rscale>
<asrwt>0</asrwt>
<pdfrwt beam="1">  1        1 0.16330053E-01 0.35771164E+03</pdfrwt>
<pdfrwt beam="2">  1       -1 0.46365170E-01 0.35771164E+03</pdfrwt>
<totfact> 0.15793181E+03</totfact>
</mgrwt>
</event>
<event>
 4    1  0.2228009E-005  0.5511591E+03  0.7818608E-02  0.1001226E+00
         -1   -1    0    0    0  501 -0.00000000000E+00  0.00000000000E+00  0.85474627766E+02  0.85474627914E+02  0.50400000000E-02 0. -1.
          1   -1    0    0  501    0  0.00000000000E+00 -0.00000000000E+00 -0.88849859117E+03  0.88849859119E+03  0.50400000000E-02 0.  1.
    5000001    1    1    2    0    0 -0.10052378176E+03  0.87848011078E+02 -0.71213001657E+03  0.74308577180E+03  0.16500000000E+03 0.  0.
   -5000001    1    1    2    0    0  0.10052378176E+03 -0.87848011078E+02 -0.90893946840E+02  0.23088744730E+03  0.16500000000E+03 0.  0.
<mgrwt>
<rscale>  0 0.55115909E+03</rscale>
<asrwt>0</asrwt>
<pdfrwt beam="1">  1        1 0.13669208E+00 0.55115909E+03</pdfrwt>
<pdfrwt beam="2">  1       -1 0.13149943E-01 0.55115909E+03</pdfrwt>
<totfact> 0.76677216E+02</totfact>
</mgrwt>
</event>
<event>
 4    1  0.2228009E-005  0.9138245E+03  0.7818608E-02  0.9408463E-01
         -1   -1    0    0    0  501 -0.00000000000E+00  0.00000000000E+00  0.63475299291E+02  0.63475299491E+02  0.50400000000E-02 0. -1.
          1   -1    0    0  501    0  0.00000000000E+00 -0.00000000000E+00 -0.32889769169E+04  0.32889769169E+04  0.50400000000E-02 0.  1.
    5000001    1    1    2    0    0 -0.12336891554E+02 -0.42423317768E+03 -0.17508872616E+04  0.18091316123E+04  0.16500000000E+03 0.  0.
   -5000001    1    1    2    0    0  0.12336891554E+02  0.42423317768E+03 -0.14746143560E+04  0.15433206040E+04  0.16500000000E+03 0.  0.
<mgrwt>
<rscale>  0 0.91382448E+03</rscale>
<asrwt>0</asrwt>
<pdfrwt beam="1">  1        1 0.50599631E+00 0.91382448E+03</pdfrwt>
<pdfrwt beam="2">  1       -1 0.97654333E-02 0.91382448E+03</pdfrwt>
<totfact> 0.24917882E+01</totfact>
</mgrwt>
</event>
<event>
 4    1  0.2228009E-005  0.4301817E+03  0.7818608E-02  0.1033803E+00
         -1   -1    0    0    0  501 -0.00000000000E+00  0.00000000000E+00  0.46977522134E+03  0.46977522136E+03  0.50400000000E-02 0. -1.
          1   -1    0    0  501    0  0.00000000000E+00 -0.00000000000E+00 -0.98481296665E+02  0.98481296794E+02  0.50400000000E-02 0.  1.
    5000001    1    1    2    0    0 -0.11235695255E+03 -0.66747120912E+02  0.24412590180E+03  0.32233789548E+03  0.16500000000E+03 0.  0.
   -5000001    1    1    2    0    0  0.11235695255E+03  0.66747120912E+02  0.12716802287E+03  0.24591862267E+03  0.16500000000E+03 0.  0.
<mgrwt>
<rscale>  0 0.43018170E+03</rscale>
<asrwt>0</asrwt>
<pdfrwt beam="1">  1        1 0.15150969E-01 0.43018170E+03</pdfrwt>
<pdfrwt beam="2">  1       -1 0.72273111E-01 0.43018170E+03</pdfrwt>
<totfact> 0.74092215E+02</totfact>
</mgrwt>
</event>
<event>
 4    1  0.2228009E-005  0.3883829E+03  0.7818608E-02  0.1047878E+00
          1   -1    0    0  501    0  0.00000000000E+00  0.00000000000E+00  0.13445170076E+04  0.13445170077E+04  0.50400000000E-02 0.  1.
         -1   -1    0    0    0  501 -0.00000000000E+00 -0.00000000000E+00 -0.28047489448E+02  0.28047489901E+02  0.50400000000E-02 0. -1.
    5000001    1    1    2    0    0  0.66114189038E+02 -0.40998636487E+02  0.89354387903E+03  0.91197458185E+03  0.16500000000E+03 0.  0.
   -5000001    1    1    2    0    0 -0.66114189038E+02  0.40998636487E+02  0.42292563916E+03  0.46058991570E+03  0.16500000000E+03 0.  0.
<mgrwt>
<rscale>  0 0.38838294E+03</rscale>
<asrwt>0</asrwt>
<pdfrwt beam="1">  1        1 0.20684878E+00 0.38838294E+03</pdfrwt>
<pdfrwt beam="2">  1       -1 0.43149983E-02 0.38838294E+03</pdfrwt>
<totfact> 0.19963044E+03</totfact>
</mgrwt>
</event>
<event>
 4    1  0.2228009E-005  0.6471477E+03  0.7818608E-02  0.9812146E-01
         -1   -1    0    0    0  501 -0.00000000000E+00  0.00000000000E+00  0.34188617318E+02  0.34188617689E+02  0.50400000000E-02 0. -1.
          1   -1    0    0  501    0  0.00000000000E+00 -0.00000000000E+00 -0.30624235632E+04  0.30624235632E+04  0.50400000000E-02 0.  1.
    5000001    1    1    2    0    0  0.18448412141E+03 -0.10841118354E+03 -0.66233548117E+03  0.71533255580E+03  0.16500000000E+03 0.  0.
   -5000001    1    1    2    0    0 -0.18448412141E+03  0.10841118354E+03 -0.23658994647E+04  0.23812796251E+04  0.16500000000E+03 0.  0.
<mgrwt>
<rscale>  0 0.64714767E+03</rscale>
<asrwt>0</asrwt>
<pdfrwt beam="1">  1        1 0.47114187E+00 0.64714767E+03</pdfrwt>
<pdfrwt beam="2">  1       -1 0.52597897E-02 0.64714767E+03</pdfrwt>
<totfact> 0.99195126E+01</totfact>
</mgrwt>
</event>
<event>
 4    1  0.2228009E-005  0.3891676E+03  0.7818608E-02  0.1047596E+00
          1   -1    0    0  501    0  0.00000000000E+00  0.00000000000E+00  0.36688118638E+03  0.36688118641E+03  0.50400000000E-02 0. -1.
         -1   -1    0    0    0  501 -0.00000000000E+00 -0.00000000000E+00 -0.10320195858E+03  0.10320195870E+03  0.50400000000E-02 0.  1.
    5000001    1    1    2    0    0 -0.98139293015E+02 -0.31448287853E+02  0.12678055141E+03  0.23220384118E+03  0.16500000000E+03 0.  0.
   -5000001    1    1    2    0    0  0.98139293015E+02  0.31448287853E+02  0.13689867639E+03  0.23787930393E+03  0.16500000000E+03 0.  0.
<mgrwt>
<rscale>  0 0.38916761E+03</rscale>
<asrwt>0</asrwt>
<pdfrwt beam="1">  1        1 0.56443259E-01 0.38916761E+03</pdfrwt>
<pdfrwt beam="2">  1       -1 0.15877224E-01 0.38916761E+03</pdfrwt>
<totfact> 0.19963835E+03</totfact>
</mgrwt>
</event>
<event>
 4    1  0.2228009E-005  0.6048112E+03  0.7818608E-02  0.9895474E-01
         -1   -1    0    0    0  501 -0.00000000000E+00  0.00000000000E+00  0.21804352040E+03  0.21804352046E+03  0.50400000000E-02 0. -1.
          1   -1    0    0  501    0  0.00000000000E+00 -0.00000000000E+00 -0.41940783316E+03  0.41940783319E+03  0.50400000000E-02 0.  1.
    5000001    1    1    2    0    0  0.20689607991E+03  0.14471431467E+03 -0.12367555441E+03  0.32598905428E+03  0.16500000000E+03 0.  0.
   -5000001    1    1    2    0    0 -0.20689607991E+03 -0.14471431467E+03 -0.77688758349E+02  0.31146229937E+03  0.16500000000E+03 0.  0.
<mgrwt>
<rscale>  0 0.60481124E+03</rscale>
<asrwt>0</asrwt>
<pdfrwt beam="1">  1        1 0.64524282E-01 0.60481124E+03</pdfrwt>
<pdfrwt beam="2">  1       -1 0.33545157E-01 0.60481124E+03</pdfrwt>
<totfact> 0.47667570E+02</totfact>
</mgrwt>
</event>
<event>
 4    1  0.2228009E-005  0.6216961E+03  0.7818608E-02  0.9861389E-01
         -1   -1    0    0    0  501 -0.00000000000E+00  0.00000000000E+00  0.56584959886E+02  0.56584960110E+02  0.50400000000E-02 0.  1.
          1   -1    0    0  501    0  0.00000000000E+00 -0.00000000000E+00 -0.17076359815E+04  0.17076359815E+04  0.50400000000E-02 0. -1.
    5000001    1    1    2    0    0  0.85358652565E+02 -0.22628099948E+03 -0.52908780964E+03  0.60468843267E+03  0.16500000000E+03 0.  0.
   -5000001    1    1    2    0    0 -0.85358652565E+02  0.22628099948E+03 -0.11219632120E+04  0.11595325090E+04  0.16500000000E+03 0.  0.
<mgrwt>
<rscale>  0 0.62169611E+03</rscale>
<asrwt>0</asrwt>
<pdfrwt beam="1">  1        1 0.26271319E+00 0.62169611E+03</pdfrwt>
<pdfrwt beam="2">  1       -1 0.87053798E-02 0.62169611E+03</pdfrwt>
<totfact> 0.38139560E+02</totfact>
</mgrwt>
</event>
<event>
 4    1  0.2228009E-005  0.3940760E+03  0.7818608E-02  0.1045850E+00
          1   -1    0    0  501    0  0.00000000000E+00  0.00000000000E+00  0.26996108163E+03  0.26996108168E+03  0.50400000000E-02 0.  1.
         -1   -1    0    0    0  501 -0.00000000000E+00 -0.00000000000E+00 -0.14381319627E+03  0.14381319636E+03  0.50400000000E-02 0. -1.
    5000001    1    1    2    0    0 -0.22043863813E+02  0.80660055964E+02 -0.81936608329E+01  0.18515969496E+03  0.16500000000E+03 0.  0.
   -5000001    1    1    2    0    0  0.22043863813E+02 -0.80660055964E+02  0.13434154620E+03  0.22861458308E+03  0.16500000000E+03 0.  0.
<mgrwt>
<rscale>  0 0.39407596E+03</rscale>
<asrwt>0</asrwt>
<pdfrwt beam="1">  1        1 0.41532474E-01 0.39407596E+03</pdfrwt>
<pdfrwt beam="2">  1       -1 0.22125107E-01 0.39407596E+03</pdfrwt>
<totfact> 0.17185286E+03</totfact>
</mgrwt>
</event>
<event>
 4    1  0.2228009E-005  0.4955488E+03  0.7818608E-02  0.1014947E+00
          1   -1    0    0  501    0  0.00000000000E+00  0.00000000000E+00  0.17638904100E+04  0.17638904100E+04  0.50400000000E-02 0. -1.
         -1   -1    0    0    0  501 -0.00000000000E+00 -0.00000000000E+00 -0.34804972039E+02  0.34804972404E+02  0.50400000000E-02 0.  1.
    5000001    1    1    2    0    0 -0.11256614379E+02 -0.16834955670E+03  0.59053320977E+03  0.63594241599E+03  0.16500000000E+03 0.  0.
   -5000001    1    1    2    0    0  0.11256614379E+02  0.16834955670E+03  0.11385522281E+04  0.11627529664E+04  0.16500000000E+03 0.  0.
<mgrwt>
<rscale>  0 0.49554881E+03</rscale>
<asrwt>0</asrwt>
<pdfrwt beam="1">  1        1 0.27136783E+00 0.49554881E+03</pdfrwt>
<pdfrwt beam="2">  1       -1 0.53546097E-02 0.49554881E+03</pdfrwt>
<totfact> 0.74841000E+02</totfact>
</mgrwt>
</event>
<event>
 4    1  0.2228009E-005  0.4785068E+03  0.7818608E-02  0.1019546E+00
          1   -1    0    0  501    0  0.00000000000E+00  0.00000000000E+00  0.20345074019E+03  0.20345074025E+03  0.50400000000E-02 0.  1.
         -1   -1    0    0    0  501 -0.00000000000E+00 -0.00000000000E+00 -0.28135649194E+03  0.28135649199E+03  0.50400000000E-02 0. -1.
    5000001    1    1    2    0    0  0.10933827306E+03 -0.13422100260E+03 -0.45902571094E+02  0.24352039243E+03  0.16500000000E+03 0.  0.
   -5000001    1    1    2    0    0 -0.10933827306E+03  0.13422100260E+03 -0.32003180656E+02  0.24128683981E+03  0.16500000000E+03 0.  0.
<mgrwt>
<rscale>  0 0.47850679E+03</rscale>
<asrwt>0</asrwt>
<pdfrwt beam="1">  1        1 0.31300114E-01 0.47850679E+03</pdfrwt>
<pdfrwt beam="2">  1       -1 0.43285614E-01 0.47850679E+03</pdfrwt>
<totfact> 0.77045858E+02</totfact>
</mgrwt>
</event>
<event>
 4    1  0.2228009E-005  0.4284351E+03  0.7818608E-02  0.1034355E+00
          1   -1    0    0  501    0  0.00000000000E+00  0.00000000000E+00  0.16071446444E+04  0.16071446444E+04  0.50400000000E-02 0.  1.
         -1   -1    0    0    0  501 -0.00000000000E+00 -0.00000000000E+00 -0.28553227340E+02  0.28553227784E+02  0.50400000000E-02 0. -1.
    5000001    1    1    2    0    0 -0.20249841002E+02  0.13304818963E+03  0.87901825183E+03  0.90443903270E+03  0.16500000000E+03 0.  0.
   -5000001    1    1    2    0    0  0.20249841002E+02 -0.13304818963E+03  0.69957316524E+03  0.73125883950E+03  0.16500000000E+03 0.  0.
<mgrwt>
<rscale>  0 0.42843514E+03</rscale>
<asrwt>0</asrwt>
<pdfrwt beam="1">  1        1 0.24725294E+00 0.42843514E+03</pdfrwt>
<pdfrwt beam="2">  1       -1 0.43928056E-02 0.42843514E+03</pdfrwt>
<totfact> 0.12901245E+03</totfact>
</mgrwt>
</event>
<event>
 4    1  0.2228009E-005  0.4312241E+03  0.7818608E-02  0.1033474E+00
          1   -1    0    0  501    0  0.00000000000E+00  0.00000000000E+00  0.61865012266E+03  0.61865012268E+03  0.50400000000E-02 0. -1.
         -1   -1    0    0    0  501 -0.00000000000E+00 -0.00000000000E+00 -0.75145148718E+02  0.75145148887E+02  0.50400000000E-02 0.  1.
    5000001    1    1    2    0    0  0.94154835307E+02 -0.24410572747E+02  0.11245909190E+03  0.22211045996E+03  0.16500000000E+03 0.  0.
   -5000001    1    1    2    0    0 -0.94154835307E+02  0.24410572747E+02  0.43104588204E+03  0.47168481160E+03  0.16500000000E+03 0.  0.
<mgrwt>
<rscale>  0 0.43122410E+03</rscale>
<asrwt>0</asrwt>
<pdfrwt beam="1">  1        1 0.95176945E-01 0.43122410E+03</pdfrwt>
<pdfrwt beam="2">  1       -1 0.11560792E-01 0.43122410E+03</pdfrwt>
<totfact> 0.16413284E+03</totfact>
</mgrwt>
</event>
<event>
 4    1  0.2228009E-005  0.8240677E+03  0.7818608E-02  0.9525819E-01
          1   -1    0    0  501    0  0.00000000000E+00  0.00000000000E+00  0.83913157546E+03  0.83913157548E+03  0.50400000000E-02 0. -1.
         -1   -1    0    0    0  501 -0.00000000000E+00 -0.00000000000E+00 -0.20231857196E+03  0.20231857202E+03  0.50400000000E-02 0.  1.
    5000001    1    1    2    0    0  0.83228556725E+01  0.34698755413E+03  0.50618603784E+03  0.63554617264E+03  0.16500000000E+03 0.  0.
   -5000001    1    1    2    0    0 -0.83228556725E+01 -0.34698755413E+03  0.13062696566E+03  0.40590397486E+03  0.16500000000E+03 0.  0.
<mgrwt>
<rscale>  0 0.82406772E+03</rscale>
<asrwt>0</asrwt>
<pdfrwt beam="1">  1        1 0.12909716E+00 0.82406772E+03</pdfrwt>
<pdfrwt beam="2">  1       -1 0.31125934E-01 0.82406772E+03</pdfrwt>
<totfact> 0.19738795E+02</totfact>
</mgrwt>
</event>
<event>
 4    1  0.2228009E-005  0.3964454E+03  0.7818608E-02  0.1045018E+00
         -1   -1    0    0    0  501 -0.00000000000E+00  0.00000000000E+00  0.68682013890E+02  0.68682014075E+02  0.50400000000E-02 0. -1.
          1   -1    0    0  501    0  0.00000000000E+00 -0.00000000000E+00 -0.57208918798E+03  0.57208918800E+03  0.50400000000E-02 0.  1.
    5000001    1    1    2    0    0 -0.28945661034E+02 -0.55193803169E+02 -0.39791345722E+03  0.43525202657E+03  0.16500000000E+03 0.  0.
   -5000001    1    1    2    0    0  0.28945661034E+02  0.55193803169E+02 -0.10549371688E+03  0.20551917551E+03  0.16500000000E+03 0.  0.
<mgrwt>
<rscale>  0 0.39644539E+03</rscale>
<asrwt>0</asrwt>
<pdfrwt beam="1">  1        1 0.88013718E-01 0.39644539E+03</pdfrwt>
<pdfrwt beam="2">  1       -1 0.10566464E-01 0.39644539E+03</pdfrwt>
<totfact> 0.21102197E+03</totfact>
</mgrwt>
</event>
<event>
 4    1  0.2228009E-005  0.5418420E+03  0.7818608E-02  0.1003400E+00
         -1   -1    0    0    0  501 -0.00000000000E+00  0.00000000000E+00  0.60509971959E+02  0.60509972169E+02  0.50400000000E-02 0. -1.
          1   -1    0    0  501    0  0.00000000000E+00 -0.00000000000E+00 -0.12129931489E+04  0.12129931489E+04  0.50400000000E-02 0.  1.
    5000001    1    1    2    0    0 -0.17407176093E+03 -0.91071300318E+02 -0.37163904611E+03  0.45159222788E+03  0.16500000000E+03 0.  0.
   -5000001    1    1    2    0    0  0.17407176093E+03  0.91071300318E+02 -0.78084413081E+03  0.82191089318E+03  0.16500000000E+03 0.  0.
<mgrwt>
<rscale>  0 0.54184198E+03</rscale>
<asrwt>0</asrwt>
<pdfrwt beam="1">  1        1 0.18661431E+00 0.54184198E+03</pdfrwt>
<pdfrwt beam="2">  1       -1 0.93092274E-02 0.54184198E+03</pdfrwt>
<totfact> 0.75370848E+02</totfact>
</mgrwt>
</event>
<event>
 4    1  0.2228009E-005  0.4450741E+03  0.7818608E-02  0.1029201E+00
         -1   -1    0    0    0  501 -0.00000000000E+00  0.00000000000E+00  0.18604091632E+03  0.18604091639E+03  0.50400000000E-02 0. -1.
          1   -1    0    0  501    0  0.00000000000E+00 -0.00000000000E+00 -0.26619276184E+03  0.26619276188E+03  0.50400000000E-02 0.  1.
    5000001    1    1    2    0    0  0.89019934761E+02  0.10311933321E+03  0.22060050804E+02  0.21510414107E+03  0.16500000000E+03 0.  0.
   -5000001    1    1    2    0    0 -0.89019934761E+02 -0.10311933321E+03 -0.10221189632E+03  0.23712953720E+03  0.16500000000E+03 0.  0.
<mgrwt>
<rscale>  0 0.44507413E+03</rscale>
<asrwt>0</asrwt>
<pdfrwt beam="1">  1        1 0.40952733E-01 0.44507413E+03</pdfrwt>
<pdfrwt beam="2">  1       -1 0.28621679E-01 0.44507413E+03</pdfrwt>
<totfact> 0.11344759E+03</totfact>
</mgrwt>
</event>
<event>
 4    1  0.2228009E-005  0.5555619E+03  0.7818608E-02  0.1000215E+00
         -1   -1    0    0    0  501 -0.00000000000E+00  0.00000000000E+00  0.16828951781E+03  0.16828951788E+03  0.50400000000E-02 0. -1.
          1   -1    0    0  501    0  0.00000000000E+00 -0.00000000000E+00 -0.45850894199E+03  0.45850894202E+03  0.50400000000E-02 0.  1.
    5000001    1    1    2    0    0 -0.22185417715E+03 -0.29620325431E+01 -0.11506419961E+03  0.29948759505E+03  0.16500000000E+03 0.  0.
   -5000001    1    1    2    0    0  0.22185417715E+03  0.29620325431E+01 -0.17515522458E+03  0.32731086485E+03  0.16500000000E+03 0.  0.
<mgrwt>
<rscale>  0 0.55556187E+03</rscale>
<asrwt>0</asrwt>
<pdfrwt beam="1">  1        1 0.70539837E-01 0.55556187E+03</pdfrwt>
<pdfrwt beam="2">  1       -1 0.25890695E-01 0.55556187E+03</pdfrwt>
<totfact> 0.66359928E+02</totfact>
</mgrwt>
</event>
<event>
 4    1  0.2228009E-005  0.6786827E+03  0.7818608E-02  0.9754398E-01
          1   -1    0    0  501    0  0.00000000000E+00  0.00000000000E+00  0.21988616205E+03  0.21988616211E+03  0.50400000000E-02 0. -1.
         -1   -1    0    0    0  501 -0.00000000000E+00 -0.00000000000E+00 -0.52369168573E+03  0.52369168575E+03  0.50400000000E-02 0.  1.
    5000001    1    1    2    0    0  0.19765596507E+03 -0.22103925121E+03 -0.15316334314E+03  0.37230396289E+03  0.16500000000E+03 0.  0.
   -5000001    1    1    2    0    0 -0.19765596507E+03  0.22103925121E+03 -0.15064218054E+03  0.37127388497E+03  0.16500000000E+03 0.  0.
<mgrwt>
<rscale>  0 0.67868271E+03</rscale>
<asrwt>0</asrwt>
<pdfrwt beam="1">  1        1 0.33828640E-01 0.67868271E+03</pdfrwt>
<pdfrwt beam="2">  1       -1 0.80567951E-01 0.67868271E+03</pdfrwt>
<totfact> 0.20507288E+02</totfact>
</mgrwt>
</event>
<event>
 4    1  0.2228009E-005  0.5698734E+03  0.7818608E-02  0.9969959E-01
         -1   -1    0    0    0  501 -0.00000000000E+00  0.00000000000E+00  0.85312896213E+02  0.85312896362E+02  0.50400000000E-02 0. -1.
          1   -1    0    0  501    0  0.00000000000E+00 -0.00000000000E+00 -0.95166065729E+03  0.95166065730E+03  0.50400000000E-02 0.  1.
    5000001    1    1    2    0    0  0.14830600577E+03  0.17912693588E+02 -0.10945718239E+03  0.24803509977E+03  0.16500000000E+03 0.  0.
   -5000001    1    1    2    0    0 -0.14830600577E+03 -0.17912693588E+02 -0.75689057868E+03  0.78893845389E+03  0.16500000000E+03 0.  0.
<mgrwt>
<rscale>  0 0.56987341E+03</rscale>
<asrwt>0</asrwt>
<pdfrwt beam="1">  1        1 0.14640932E+00 0.56987341E+03</pdfrwt>
<pdfrwt beam="2">  1       -1 0.13125062E-01 0.56987341E+03</pdfrwt>
<totfact> 0.68431180E+02</totfact>
</mgrwt>
</event>
<event>
 4    1  0.2228009E-005  0.4926348E+03  0.7818608E-02  0.1015719E+00
          1   -1    0    0  501    0  0.00000000000E+00  0.00000000000E+00  0.63980170248E+02  0.63980170447E+02  0.50400000000E-02 0.  1.
         -1   -1    0    0    0  501 -0.00000000000E+00 -0.00000000000E+00 -0.94829788175E+03  0.94829788177E+03  0.50400000000E-02 0. -1.
    5000001    1    1    2    0    0  0.15830560319E+03 -0.86229536726E+02 -0.50552822536E+03  0.56149798187E+03  0.16500000000E+03 0.  0.
   -5000001    1    1    2    0    0 -0.15830560319E+03  0.86229536726E+02 -0.37878948614E+03  0.45078007034E+03  0.16500000000E+03 0.  0.
<mgrwt>
<rscale>  0 0.49263479E+03</rscale>
<asrwt>0</asrwt>
<pdfrwt beam="1">  1        1 0.98431039E-02 0.49263479E+03</pdfrwt>
<pdfrwt beam="2">  1       -1 0.14589197E+00 0.49263479E+03</pdfrwt>
<totfact> 0.26420873E+02</totfact>
</mgrwt>
</event>
<event>
 4    1  0.2228009E-005  0.6010330E+03  0.7818608E-02  0.9903265E-01
          1   -1    0    0  501    0  0.00000000000E+00  0.00000000000E+00  0.51862992058E+02  0.51862992303E+02  0.50400000000E-02 0.  1.
         -1   -1    0    0    0  501 -0.00000000000E+00 -0.00000000000E+00 -0.17413222357E+04  0.17413222357E+04  0.50400000000E-02 0. -1.
    5000001    1    1    2    0    0  0.90880168931E+02  0.22187425257E+03 -0.10679506967E+04  0.11069015673E+04  0.16500000000E+03 0.  0.
   -5000001    1    1    2    0    0 -0.90880168931E+02 -0.22187425257E+03 -0.62150854689E+03  0.68628366068E+03  0.16500000000E+03 0.  0.
<mgrwt>
<rscale>  0 0.60103305E+03</rscale>
<asrwt>0</asrwt>
<pdfrwt beam="1">  1        1 0.79789232E-02 0.60103305E+03</pdfrwt>
<pdfrwt beam="2">  1       -1 0.26789568E+00 0.60103305E+03</pdfrwt>
<totfact> 0.51307774E+01</totfact>
</mgrwt>
</event>
<event>
 4    1  0.2228009E-005  0.5429817E+03  0.7818608E-02  0.1003132E+00
          1   -1    0    0  501    0  0.00000000000E+00  0.00000000000E+00  0.96346979055E+02  0.96346979187E+02  0.50400000000E-02 0.  1.
         -1   -1    0    0    0  501 -0.00000000000E+00 -0.00000000000E+00 -0.76501910350E+03  0.76501910352E+03  0.50400000000E-02 0. -1.
    5000001    1    1    2    0    0  0.61017237762E+02  0.14625573014E+03 -0.56622977047E+03  0.61070041335E+03  0.16500000000E+03 0.  0.
   -5000001    1    1    2    0    0 -0.61017237762E+02 -0.14625573014E+03 -0.10244235398E+03  0.25066566935E+03  0.16500000000E+03 0.  0.
<mgrwt>
<rscale>  0 0.54298169E+03</rscale>
<asrwt>0</asrwt>
<pdfrwt beam="1">  1        1 0.14822613E-01 0.54298169E+03</pdfrwt>
<pdfrwt beam="2">  1       -1 0.11769524E+00 0.54298169E+03</pdfrwt>
<totfact> 0.25952103E+02</totfact>
</mgrwt>
</event>
<event>
 4    1  0.2228009E-005  0.4382880E+03  0.7818608E-02  0.1031273E+00
         -1   -1    0    0    0  501 -0.00000000000E+00  0.00000000000E+00  0.16336153008E+03  0.16336153016E+03  0.50400000000E-02 0. -1.
          1   -1    0    0  501    0  0.00000000000E+00 -0.00000000000E+00 -0.29397436097E+03  0.29397436101E+03  0.50400000000E-02 0.  1.
    5000001    1    1    2    0    0 -0.91854081351E+02 -0.60284974966E+02 -0.16278839756E+03  0.25650830951E+03  0.16500000000E+03 0.  0.
   -5000001    1    1    2    0    0  0.91854081351E+02  0.60284974966E+02  0.32175566667E+02  0.20082758167E+03  0.16500000000E+03 0.  0.
<mgrwt>
<rscale>  0 0.43828804E+03</rscale>
<asrwt>0</asrwt>
<pdfrwt beam="1">  1        1 0.45226825E-01 0.43828804E+03</pdfrwt>
<pdfrwt beam="2">  1       -1 0.25132543E-01 0.43828804E+03</pdfrwt>
<totfact> 0.12465547E+03</totfact>
</mgrwt>
</event>
<event>
 4    1  0.2228009E-005  0.4193646E+03  0.7818608E-02  0.1037273E+00
          1   -1    0    0  501    0  0.00000000000E+00  0.00000000000E+00  0.13103176088E+04  0.13103176088E+04  0.50400000000E-02 0. -1.
         -1   -1    0    0    0  501 -0.00000000000E+00 -0.00000000000E+00 -0.33554199344E+02  0.33554199723E+02  0.50400000000E-02 0.  1.
    5000001    1    1    2    0    0 -0.72104655592E+02  0.10584449705E+03  0.69742880038E+03  0.72803438828E+03  0.16500000000E+03 0.  0.
   -5000001    1    1    2    0    0  0.72104655592E+02 -0.10584449705E+03  0.57933460907E+03  0.61583742025E+03  0.16500000000E+03 0.  0.
<mgrwt>
<rscale>  0 0.41936456E+03</rscale>
<asrwt>0</asrwt>
<pdfrwt beam="1">  1        1 0.20158735E+00 0.41936456E+03</pdfrwt>
<pdfrwt beam="2">  1       -1 0.51621839E-02 0.41936456E+03</pdfrwt>
<totfact> 0.16058948E+03</totfact>
</mgrwt>
</event>
<event>
 4    1  0.2228009E-005  0.4671060E+03  0.7818608E-02  0.1022740E+00
          1   -1    0    0  501    0  0.00000000000E+00  0.00000000000E+00  0.16160933084E+03  0.16160933091E+03  0.50400000000E-02 0. -1.
         -1   -1    0    0    0  501 -0.00000000000E+00 -0.00000000000E+00 -0.33752391769E+03  0.33752391773E+03  0.50400000000E-02 0.  1.
    5000001    1    1    2    0    0  0.16376890566E+03 -0.28955097904E+00 -0.11189115442E+03  0.25800187739E+03  0.16500000000E+03 0.  0.
   -5000001    1    1    2    0    0 -0.16376890566E+03  0.28955097904E+00 -0.64023432436E+02  0.24113137125E+03  0.16500000000E+03 0.  0.
<mgrwt>
<rscale>  0 0.46710605E+03</rscale>
<asrwt>0</asrwt>
<pdfrwt beam="1">  1        1 0.24862974E-01 0.46710605E+03</pdfrwt>
<pdfrwt beam="2">  1       -1 0.51926756E-01 0.46710605E+03</pdfrwt>
<totfact> 0.73935958E+02</totfact>
</mgrwt>
</event>
<event>
 4    1  0.2228009E-005  0.4899034E+03  0.7818608E-02  0.1016448E+00
          1   -1    0    0  501    0  0.00000000000E+00  0.00000000000E+00  0.32708590549E+04  0.32708590549E+04  0.50400000000E-02 0.  1.
         -1   -1    0    0    0  501 -0.00000000000E+00 -0.00000000000E+00 -0.18344213244E+02  0.18344213936E+02  0.50400000000E-02 0. -1.
    5000001    1    1    2    0    0  0.86004143913E+02 -0.14314926592E+03  0.11568586544E+04  0.11804386352E+04  0.16500000000E+03 0.  0.
   -5000001    1    1    2    0    0 -0.86004143913E+02  0.14314926592E+03  0.20956561872E+04  0.21087646336E+04  0.16500000000E+03 0.  0.
<mgrwt>
<rscale>  0 0.48990341E+03</rscale>
<asrwt>0</asrwt>
<pdfrwt beam="1">  1        1 0.50320954E+00 0.48990341E+03</pdfrwt>
<pdfrwt beam="2">  1       -1 0.28221841E-02 0.48990341E+03</pdfrwt>
<totfact> 0.18346925E+02</totfact>
</mgrwt>
</event>
<event>
 4    1  0.2228009E-005  0.7369211E+03  0.7818608E-02  0.9656095E-01
          1   -1    0    0  501    0  0.00000000000E+00  0.00000000000E+00  0.51976316288E+03  0.51976316291E+03  0.50400000000E-02 0.  1.
         -1   -1    0    0    0  501 -0.00000000000E+00 -0.00000000000E+00 -0.26120198196E+03  0.26120198201E+03  0.50400000000E-02 0. -1.
    5000001    1    1    2    0    0 -0.21653295778E+03  0.54160056356E+01  0.39235564714E+03  0.47758120646E+03  0.16500000000E+03 0.  0.
   -5000001    1    1    2    0    0  0.21653295778E+03 -0.54160056356E+01 -0.13379446622E+03  0.30338393846E+03  0.16500000000E+03 0.  0.
<mgrwt>
<rscale>  0 0.73692108E+03</rscale>
<asrwt>0</asrwt>
<pdfrwt beam="1">  1        1 0.79963562E-01 0.73692108E+03</pdfrwt>
<pdfrwt beam="2">  1       -1 0.40184921E-01 0.73692108E+03</pdfrwt>
<totfact> 0.25674271E+02</totfact>
</mgrwt>
</event>
<event>
 4    1  0.2228009E-005  0.5545603E+03  0.7818608E-02  0.1000444E+00
          1   -1    0    0  501    0  0.00000000000E+00  0.00000000000E+00  0.10312610832E+04  0.10312610832E+04  0.50400000000E-02 0.  1.
         -1   -1    0    0    0  501 -0.00000000000E+00 -0.00000000000E+00 -0.74553657124E+02  0.74553657294E+02  0.50400000000E-02 0. -1.
    5000001    1    1    2    0    0  0.14932803887E+03  0.15820252484E+03  0.38205210367E+03  0.46959100500E+03  0.16500000000E+03 0.  0.
   -5000001    1    1    2    0    0 -0.14932803887E+03 -0.15820252484E+03  0.57465532244E+03  0.63622373554E+03  0.16500000000E+03 0.  0.
<mgrwt>
<rscale>  0 0.55456031E+03</rscale>
<asrwt>0</asrwt>
<pdfrwt beam="1">  1        1 0.15865555E+00 0.55456031E+03</pdfrwt>
<pdfrwt beam="2">  1       -1 0.11469793E-01 0.55456031E+03</pdfrwt>
<totfact> 0.73700215E+02</totfact>
</mgrwt>
</event>
<event>
 4    1  0.2228009E-005  0.1362471E+04  0.7818608E-02  0.8981441E-01
          1   -1    0    0  501    0  0.00000000000E+00  0.00000000000E+00  0.10781505088E+04  0.10781505088E+04  0.50400000000E-02 0. -1.
         -1   -1    0    0    0  501 -0.00000000000E+00 -0.00000000000E+00 -0.43044233109E+03  0.43044233112E+03  0.50400000000E-02 0.  1.
    5000001    1    1    2    0    0  0.18792944829E+03 -0.42791252153E+03 -0.19363478945E+03  0.53211468247E+03  0.16500000000E+03 0.  0.
   -5000001    1    1    2    0    0 -0.18792944829E+03  0.42791252153E+03  0.84134296720E+03  0.97647815749E+03  0.16500000000E+03 0.  0.
<mgrwt>
<rscale>  0 0.13624707E+04</rscale>
<asrwt>0</asrwt>
<pdfrwt beam="1">  1        1 0.16586931E+00 0.13624707E+04</pdfrwt>
<pdfrwt beam="2">  1       -1 0.66221898E-01 0.13624707E+04</pdfrwt>
<totfact> 0.29766045E+01</totfact>
</mgrwt>
</event>
<event>
 4    1  0.2228009E-005  0.4050533E+03  0.7818608E-02  0.1042044E+00
          1   -1    0    0  501    0  0.00000000000E+00  0.00000000000E+00  0.69586006173E+02  0.69586006355E+02  0.50400000000E-02 0. -1.
         -1   -1    0    0    0  501 -0.00000000000E+00 -0.00000000000E+00 -0.58944395022E+03  0.58944395024E+03  0.50400000000E-02 0.  1.
    5000001    1    1    2    0    0  0.99220335597E+02 -0.58115335692E+02 -0.29877297422E+03  0.36015601808E+03  0.16500000000E+03 0.  0.
   -5000001    1    1    2    0    0 -0.99220335597E+02  0.58115335692E+02 -0.22108496983E+03  0.29887393852E+03  0.16500000000E+03 0.  0.
<mgrwt>
<rscale>  0 0.40505333E+03</rscale>
<asrwt>0</asrwt>
<pdfrwt beam="1">  1        1 0.10705540E-01 0.40505333E+03</pdfrwt>
<pdfrwt beam="2">  1       -1 0.90683681E-01 0.40505333E+03</pdfrwt>
<totfact> 0.73291420E+02</totfact>
</mgrwt>
</event>
<event>
 4    1  0.2228009E-005  0.4516391E+03  0.7818608E-02  0.1027234E+00
          1   -1    0    0  501    0  0.00000000000E+00  0.00000000000E+00  0.43820229840E+03  0.43820229842E+03  0.50400000000E-02 0.  1.
         -1   -1    0    0    0  501 -0.00000000000E+00 -0.00000000000E+00 -0.11637199091E+03  0.11637199102E+03  0.50400000000E-02 0. -1.
    5000001    1    1    2    0    0 -0.12175941585E+03  0.85653662220E+02  0.11168253334E+03  0.24871649212E+03  0.16500000000E+03 0.  0.
   -5000001    1    1    2    0    0  0.12175941585E+03 -0.85653662220E+02  0.21014777415E+03  0.30585779732E+03  0.16500000000E+03 0.  0.
<mgrwt>
<rscale>  0 0.45163912E+03</rscale>
<asrwt>0</asrwt>
<pdfrwt beam="1">  1        1 0.67415737E-01 0.45163912E+03</pdfrwt>
<pdfrwt beam="2">  1       -1 0.17903384E-01 0.45163912E+03</pdfrwt>
<totfact> 0.13044600E+03</totfact>
</mgrwt>
</event>
<event>
 4    1  0.2228009E-005  0.6419441E+03  0.7818608E-02  0.9822014E-01
         -1   -1    0    0    0  501 -0.00000000000E+00  0.00000000000E+00  0.14320010059E+04  0.14320010059E+04  0.50400000000E-02 0. -1.
          1   -1    0    0  501    0  0.00000000000E+00 -0.00000000000E+00 -0.71943428827E+02  0.71943429003E+02  0.50400000000E-02 0.  1.
    5000001    1    1    2    0    0 -0.79768598549E+02  0.24605552922E+03  0.45911276994E+03  0.55219189445E+03  0.16500000000E+03 0.  0.
   -5000001    1    1    2    0    0  0.79768598549E+02 -0.24605552922E+03  0.90094480711E+03  0.95175254044E+03  0.16500000000E+03 0.  0.
<mgrwt>
<rscale>  0 0.64194412E+03</rscale>
<asrwt>0</asrwt>
<pdfrwt beam="1">  1        1 0.11068219E-01 0.64194412E+03</pdfrwt>
<pdfrwt beam="2">  1       -1 0.22030786E+00 0.64194412E+03</pdfrwt>
<totfact> 0.66075160E+01</totfact>
</mgrwt>
</event>
<event>
 4    1  0.2228009E-005  0.6977277E+03  0.7818608E-02  0.9721126E-01
         -1   -1    0    0    0  501 -0.00000000000E+00  0.00000000000E+00  0.72977371937E+02  0.72977372111E+02  0.50400000000E-02 0.  1.
          1   -1    0    0  501    0  0.00000000000E+00 -0.00000000000E+00 -0.16677221850E+04  0.16677221851E+04  0.50400000000E-02 0. -1.
    5000001    1    1    2    0    0  0.29838084658E+03  0.17291404540E+02 -0.61832100050E+03  0.70631153320E+03  0.16500000000E+03 0.  0.
   -5000001    1    1    2    0    0 -0.29838084658E+03 -0.17291404540E+02 -0.97642381261E+03  0.10343880240E+04  0.16500000000E+03 0.  0.
<mgrwt>
<rscale>  0 0.69772769E+03</rscale>
<asrwt>0</asrwt>
<pdfrwt beam="1">  1        1 0.25657262E+00 0.69772769E+03</pdfrwt>
<pdfrwt beam="2">  1       -1 0.11227289E-01 0.69772769E+03</pdfrwt>
<totfact> 0.26987053E+02</totfact>
</mgrwt>
</event>
<event>
 4    1  0.2228009E-005  0.1254625E+04  0.7818608E-02  0.9066343E-01
         -1   -1    0    0    0  501 -0.00000000000E+00  0.00000000000E+00  0.37646664025E+03  0.37646664029E+03  0.50400000000E-02 0. -1.
          1   -1    0    0  501    0  0.00000000000E+00 -0.00000000000E+00 -0.10453010229E+04  0.10453010229E+04  0.50400000000E-02 0.  1.
    5000001    1    1    2    0    0  0.59937223378E+03  0.19397135689E+02 -0.24184861832E+03  0.66733730428E+03  0.16500000000E+03 0.  0.
   -5000001    1    1    2    0    0 -0.59937223378E+03 -0.19397135689E+02 -0.42698576429E+03  0.75443035889E+03  0.16500000000E+03 0.  0.
<mgrwt>
<rscale>  0 0.12546250E+04</rscale>
<asrwt>0</asrwt>
<pdfrwt beam="1">  1        1 0.16081554E+00 0.12546250E+04</pdfrwt>
<pdfrwt beam="2">  1       -1 0.57917945E-01 0.12546250E+04</pdfrwt>
<totfact> 0.41543160E+01</totfact>
</mgrwt>
</event>
<event>
 4    1  0.2228009E-005  0.4957892E+03  0.7818608E-02  0.1014884E+00
          1   -1    0    0  501    0  0.00000000000E+00  0.00000000000E+00  0.10948542172E+04  0.10948542172E+04  0.50400000000E-02 0.  1.
         -1   -1    0    0    0  501 -0.00000000000E+00 -0.00000000000E+00 -0.56127767097E+02  0.56127767323E+02  0.50400000000E-02 0. -1.
    5000001    1    1    2    0    0 -0.15738803187E+03  0.82923270237E+02  0.63726925304E+03  0.68189761856E+03  0.16500000000E+03 0.  0.
   -5000001    1    1    2    0    0  0.15738803187E+03 -0.82923270237E+02  0.40145719702E+03  0.46908436593E+03  0.16500000000E+03 0.  0.
<mgrwt>
<rscale>  0 0.49578916E+03</rscale>
<asrwt>0</asrwt>
<pdfrwt beam="1">  1        1 0.16843912E+00 0.49578916E+03</pdfrwt>
<pdfrwt beam="2">  1       -1 0.86350407E-02 0.49578916E+03</pdfrwt>
<totfact> 0.10346394E+03</totfact>
</mgrwt>
</event>
<event>
 4    1  0.2228009E-005  0.4055838E+03  0.7818608E-02  0.1041863E+00
          1   -1    0    0  501    0  0.00000000000E+00  0.00000000000E+00  0.23577075480E+03  0.23577075485E+03  0.50400000000E-02 0.  1.
         -1   -1    0    0    0  501 -0.00000000000E+00 -0.00000000000E+00 -0.17442604251E+03  0.17442604258E+03  0.50400000000E-02 0. -1.
    5000001    1    1    2    0    0 -0.11205017980E+03  0.29359984382E+02  0.52883656469E+02  0.20842008684E+03  0.16500000000E+03 0.  0.
   -5000001    1    1    2    0    0  0.11205017980E+03 -0.29359984382E+02  0.84610558221E+01  0.20177671060E+03  0.16500000000E+03 0.  0.
<mgrwt>
<rscale>  0 0.40558382E+03</rscale>
<asrwt>0</asrwt>
<pdfrwt beam="1">  1        1 0.36272424E-01 0.40558382E+03</pdfrwt>
<pdfrwt beam="2">  1       -1 0.26834776E-01 0.40558382E+03</pdfrwt>
<totfact> 0.14775290E+03</totfact>
</mgrwt>
</event>
<event>
 4    1  0.2228009E-005  0.5493580E+03  0.7818608E-02  0.1001643E+00
          1   -1    0    0  501    0  0.00000000000E+00  0.00000000000E+00  0.65396300440E+02  0.65396300634E+02  0.50400000000E-02 0.  1.
         -1   -1    0    0    0  501 -0.00000000000E+00 -0.00000000000E+00 -0.11537129219E+04  0.11537129219E+04  0.50400000000E-02 0. -1.
    5000001    1    1    2    0    0  0.19950151755E+03 -0.80736134279E+01 -0.34128457853E+03  0.42844626533E+03  0.16500000000E+03 0.  0.
   -5000001    1    1    2    0    0 -0.19950151755E+03  0.80736134279E+01 -0.74703204296E+03  0.79066295724E+03  0.16500000000E+03 0.  0.
<mgrwt>
<rscale>  0 0.54935801E+03</rscale>
<asrwt>0</asrwt>
<pdfrwt beam="1">  1        1 0.10060970E-01 0.54935801E+03</pdfrwt>
<pdfrwt beam="2">  1       -1 0.17749428E+00 0.54935801E+03</pdfrwt>
<totfact> 0.14870440E+02</totfact>
</mgrwt>
</event>
<event>
 4    1  0.2228009E-005  0.6653831E+03  0.7818608E-02  0.9778334E-01
          1   -1    0    0  501    0  0.00000000000E+00  0.00000000000E+00  0.10880165429E+04  0.10880165429E+04  0.50400000000E-02 0.  1.
         -1   -1    0    0    0  501 -0.00000000000E+00 -0.00000000000E+00 -0.10172977619E+03  0.10172977631E+03  0.50400000000E-02 0. -1.
    5000001    1    1    2    0    0  0.30188672091E+02  0.18888329504E+03  0.88025127344E+03  0.91578139283E+03  0.16500000000E+03 0.  0.
   -5000001    1    1    2    0    0 -0.30188672091E+02 -0.18888329504E+03  0.10603549329E+03  0.27396492641E+03  0.16500000000E+03 0.  0.
<mgrwt>
<rscale>  0 0.66538314E+03</rscale>
<asrwt>0</asrwt>
<pdfrwt beam="1">  1        1 0.16738716E+00 0.66538314E+03</pdfrwt>
<pdfrwt beam="2">  1       -1 0.15650735E-01 0.66538314E+03</pdfrwt>
<totfact> 0.40320196E+02</totfact>
</mgrwt>
</event>
<event>
 4    1  0.2228009E-005  0.3998554E+03  0.7818608E-02  0.1043830E+00
          1   -1    0    0  501    0  0.00000000000E+00  0.00000000000E+00  0.10170161162E+04  0.10170161162E+04  0.50400000000E-02 0.  1.
         -1   -1    0    0    0  501 -0.00000000000E+00 -0.00000000000E+00 -0.39302311860E+02  0.39302312184E+02  0.50400000000E-02 0. -1.
    5000001    1    1    2    0    0  0.17038620211E+02  0.11140266406E+03  0.50662090613E+03  0.54460133186E+03  0.16500000000E+03 0.  0.
   -5000001    1    1    2    0    0 -0.17038620211E+02 -0.11140266406E+03  0.47109289816E+03  0.51171709649E+03  0.16500000000E+03 0.  0.
<mgrwt>
<rscale>  0 0.39985540E+03</rscale>
<asrwt>0</asrwt>
<pdfrwt beam="1">  1        1 0.15646401E+00 0.39985540E+03</pdfrwt>
<pdfrwt beam="2">  1       -1 0.60465098E-02 0.39985540E+03</pdfrwt>
<totfact> 0.20528648E+03</totfact>
</mgrwt>
</event>
<event>
 4    1  0.2228009E-005  0.4206389E+03  0.7818608E-02  0.1036859E+00
         -1   -1    0    0    0  501 -0.00000000000E+00  0.00000000000E+00  0.70174116237E+02  0.70174116418E+02  0.50400000000E-02 0. -1.
          1   -1    0    0  501    0  0.00000000000E+00 -0.00000000000E+00 -0.63035015217E+03  0.63035015219E+03  0.50400000000E-02 0.  1.
    5000001    1    1    2    0    0 -0.15852273035E+02  0.12626017590E+03 -0.32767069580E+03  0.38831174521E+03  0.16500000000E+03 0.  0.
   -5000001    1    1    2    0    0  0.15852273035E+02 -0.12626017590E+03 -0.23250534014E+03  0.31221252341E+03  0.16500000000E+03 0.  0.
<mgrwt>
<rscale>  0 0.42063887E+03</rscale>
<asrwt>0</asrwt>
<pdfrwt beam="1">  1        1 0.96976943E-01 0.42063887E+03</pdfrwt>
<pdfrwt beam="2">  1       -1 0.10796018E-01 0.42063887E+03</pdfrwt>
<totfact> 0.17797718E+03</totfact>
</mgrwt>
</event>
<event>
 4    1  0.2228009E-005  0.3940524E+03  0.7818608E-02  0.1045859E+00
         -1   -1    0    0    0  501 -0.00000000000E+00  0.00000000000E+00  0.42234190964E+02  0.42234191265E+02  0.50400000000E-02 0. -1.
          1   -1    0    0  501    0  0.00000000000E+00 -0.00000000000E+00 -0.91914459542E+03  0.91914459543E+03  0.50400000000E-02 0.  1.
    5000001    1    1    2    0    0 -0.70382312037E+02  0.39838372009E+02 -0.26501915669E+03  0.32249173500E+03  0.16500000000E+03 0.  0.
   -5000001    1    1    2    0    0  0.70382312037E+02 -0.39838372009E+02 -0.61189124777E+03  0.63888705170E+03  0.16500000000E+03 0.  0.
<mgrwt>
<rscale>  0 0.39405243E+03</rscale>
<asrwt>0</asrwt>
<pdfrwt beam="1">  1        1 0.14140685E+00 0.39405243E+03</pdfrwt>
<pdfrwt beam="2">  1       -1 0.64975686E-02 0.39405243E+03</pdfrwt>
<totfact> 0.21880158E+03</totfact>
</mgrwt>
</event>
<event>
 4    1  0.2228009E-005  0.5202692E+03  0.7818608E-02  0.1008620E+00
         -1   -1    0    0    0  501 -0.00000000000E+00  0.00000000000E+00  0.10350756730E+03  0.10350756743E+03  0.50400000000E-02 0.  1.
          1   -1    0    0  501    0  0.00000000000E+00 -0.00000000000E+00 -0.65376879928E+03  0.65376879930E+03  0.50400000000E-02 0. -1.
    5000001    1    1    2    0    0  0.12528374937E+03  0.15291653321E+03 -0.32891764180E+03  0.41772155687E+03  0.16500000000E+03 0.  0.
   -5000001    1    1    2    0    0 -0.12528374937E+03 -0.15291653321E+03 -0.22134359018E+03  0.33955480986E+03  0.16500000000E+03 0.  0.
<mgrwt>
<rscale>  0 0.52026923E+03</rscale>
<asrwt>0</asrwt>
<pdfrwt beam="1">  1        1 0.10057981E+00 0.52026923E+03</pdfrwt>
<pdfrwt beam="2">  1       -1 0.15924242E-01 0.52026923E+03</pdfrwt>
<totfact> 0.90725781E+02</totfact>
</mgrwt>
</event>
<event>
 4    1  0.2228009E-005  0.4795675E+03  0.7818608E-02  0.1019254E+00
          1   -1    0    0  501    0  0.00000000000E+00  0.00000000000E+00  0.13913800065E+03  0.13913800074E+03  0.50400000000E-02 0.  1.
         -1   -1    0    0    0  501 -0.00000000000E+00 -0.00000000000E+00 -0.41323182850E+03  0.41323182853E+03  0.50400000000E-02 0. -1.
    5000001    1    1    2    0    0 -0.93984361186E+02 -0.61228774305E+02 -0.29023839869E+03  0.35220072547E+03  0.16500000000E+03 0.  0.
   -5000001    1    1    2    0    0  0.93984361186E+02  0.61228774305E+02  0.16144570836E+02  0.20016910380E+03  0.16500000000E+03 0.  0.
<mgrwt>
<rscale>  0 0.47956752E+03</rscale>
<asrwt>0</asrwt>
<pdfrwt beam="1">  1        1 0.21405846E-01 0.47956752E+03</pdfrwt>
<pdfrwt beam="2">  1       -1 0.63574127E-01 0.47956752E+03</pdfrwt>
<totfact> 0.60743314E+02</totfact>
</mgrwt>
</event>
<event>
 4    1  0.2228009E-005  0.4287969E+03  0.7818608E-02  0.1034241E+00
         -1   -1    0    0    0  501 -0.00000000000E+00  0.00000000000E+00  0.34324645435E+02  0.34324645805E+02  0.50400000000E-02 0. -1.
          1   -1    0    0  501    0  0.00000000000E+00 -0.00000000000E+00 -0.13391748698E+04  0.13391748698E+04  0.50400000000E-02 0.  1.
    5000001    1    1    2    0    0  0.94116159665E+02 -0.99327452372E+02 -0.63886988266E+03  0.67387203628E+03  0.16500000000E+03 0.  0.
   -5000001    1    1    2    0    0 -0.94116159665E+02  0.99327452372E+02 -0.66598034167E+03  0.69962747930E+03  0.16500000000E+03 0.  0.
<mgrwt>
<rscale>  0 0.42879693E+03</rscale>
<asrwt>0</asrwt>
<pdfrwt beam="1">  1        1 0.20602686E+00 0.42879693E+03</pdfrwt>
<pdfrwt beam="2">  1       -1 0.52807157E-02 0.42879693E+03</pdfrwt>
<totfact> 0.14813529E+03</totfact>
</mgrwt>
</event>
<event>
 4    1  0.2228009E-005  0.1050360E+04  0.7818608E-02  0.9254972E-01
          1   -1    0    0  501    0  0.00000000000E+00  0.00000000000E+00  0.99950079989E+03  0.99950079990E+03  0.50400000000E-02 0.  1.
         -1   -1    0    0    0  501 -0.00000000000E+00 -0.00000000000E+00 -0.27595195565E+03  0.27595195569E+03  0.50400000000E-02 0. -1.
    5000001    1    1    2    0    0  0.36653157153E+03  0.45770617922E+02 -0.44878125542E+02  0.40703733065E+03  0.16500000000E+03 0.  0.
   -5000001    1    1    2    0    0 -0.36653157153E+03 -0.45770617922E+02  0.76842696978E+03  0.86841542494E+03  0.16500000000E+03 0.  0.
<mgrwt>
<rscale>  0 0.10503603E+04</rscale>
<asrwt>0</asrwt>
<pdfrwt beam="1">  1        1 0.15376936E+00 0.10503603E+04</pdfrwt>
<pdfrwt beam="2">  1       -1 0.42454146E-01 0.10503603E+04</pdfrwt>
<totfact> 0.82565939E+01</totfact>
</mgrwt>
</event>
<event>
 4    1  0.2228009E-005  0.4044880E+03  0.7818608E-02  0.1042237E+00
         -1   -1    0    0    0  501 -0.00000000000E+00  0.00000000000E+00  0.36801111207E+02  0.36801111552E+02  0.50400000000E-02 0. -1.
          1   -1    0    0  501    0  0.00000000000E+00 -0.00000000000E+00 -0.11114509065E+04  0.11114509065E+04  0.50400000000E-02 0.  1.
    5000001    1    1    2    0    0  0.80557903471E+01  0.87253557150E+02 -0.31744226046E+03  0.36833770879E+03  0.16500000000E+03 0.  0.
   -5000001    1    1    2    0    0 -0.80557903471E+01 -0.87253557150E+02 -0.75720753482E+03  0.77991430926E+03  0.16500000000E+03 0.  0.
<mgrwt>
<rscale>  0 0.40448797E+03</rscale>
<asrwt>0</asrwt>
<pdfrwt beam="1">  1        1 0.17099242E+00 0.40448797E+03</pdfrwt>
<pdfrwt beam="2">  1       -1 0.56617103E-02 0.40448797E+03</pdfrwt>
<totfact> 0.19315077E+03</totfact>
</mgrwt>
</event>
<event>
 4    1  0.2228009E-005  0.5502534E+03  0.7818608E-02  0.1001435E+00
          1   -1    0    0  501    0  0.00000000000E+00  0.00000000000E+00  0.41192612230E+03  0.41192612233E+03  0.50400000000E-02 0.  1.
         -1   -1    0    0    0  501 -0.00000000000E+00 -0.00000000000E+00 -0.18375792346E+03  0.18375792353E+03  0.50400000000E-02 0. -1.
    5000001    1    1    2    0    0  0.17274619832E+03 -0.27507124682E+01  0.26180885934E+03  0.35442586571E+03  0.16500000000E+03 0.  0.
   -5000001    1    1    2    0    0 -0.17274619832E+03  0.27507124682E+01 -0.33640660496E+02  0.24125818016E+03  0.16500000000E+03 0.  0.
<mgrwt>
<rscale>  0 0.55025336E+03</rscale>
<asrwt>0</asrwt>
<pdfrwt beam="1">  1        1 0.63373250E-01 0.55025336E+03</pdfrwt>
<pdfrwt beam="2">  1       -1 0.28270450E-01 0.55025336E+03</pdfrwt>
<totfact> 0.65842947E+02</totfact>
</mgrwt>
</event>
<event>
 4    1  0.2228009E-005  0.4842975E+03  0.7818608E-02  0.1017961E+00
          1   -1    0    0  501    0  0.00000000000E+00  0.00000000000E+00  0.15537579997E+03  0.15537580005E+03  0.50400000000E-02 0. -1.
         -1   -1    0    0    0  501 -0.00000000000E+00 -0.00000000000E+00 -0.37738192463E+03  0.37738192466E+03  0.50400000000E-02 0.  1.
    5000001    1    1    2    0    0 -0.32536892526E+02 -0.17250705782E+03 -0.84199332631E+02  0.25520944729E+03  0.16500000000E+03 0.  0.
   -5000001    1    1    2    0    0  0.32536892526E+02  0.17250705782E+03 -0.13780679203E+03  0.27754827742E+03  0.16500000000E+03 0.  0.
<mgrwt>
<rscale>  0 0.48429751E+03</rscale>
<asrwt>0</asrwt>
<pdfrwt beam="1">  1        1 0.23903969E-01 0.48429751E+03</pdfrwt>
<pdfrwt beam="2">  1       -1 0.58058758E-01 0.48429751E+03</pdfrwt>
<totfact> 0.62835187E+02</totfact>
</mgrwt>
</event>
<event>
 4    1  0.2228009E-005  0.5274649E+03  0.7818608E-02  0.1006849E+00
         -1   -1    0    0    0  501 -0.00000000000E+00  0.00000000000E+00  0.24175894312E+03  0.24175894317E+03  0.50400000000E-02 0.  1.
          1   -1    0    0  501    0  0.00000000000E+00 -0.00000000000E+00 -0.28770309973E+03  0.28770309978E+03  0.50400000000E-02 0. -1.
    5000001    1    1    2    0    0  0.18544671651E+03  0.88694423262E+02 -0.14418548288E+02  0.26398878749E+03  0.16500000000E+03 0.  0.
   -5000001    1    1    2    0    0 -0.18544671651E+03 -0.88694423262E+02 -0.31525608326E+02  0.26547325546E+03  0.16500000000E+03 0.  0.
<mgrwt>
<rscale>  0 0.52746487E+03</rscale>
<asrwt>0</asrwt>
<pdfrwt beam="1">  1        1 0.44262015E-01 0.52746487E+03</pdfrwt>
<pdfrwt beam="2">  1       -1 0.37193684E-01 0.52746487E+03</pdfrwt>
<totfact> 0.64932565E+02</totfact>
</mgrwt>
</event>
<event>
 4    1  0.2228009E-005  0.7263224E+03  0.7818608E-02  0.9673247E-01
          1   -1    0    0  501    0  0.00000000000E+00  0.00000000000E+00  0.64437170419E+03  0.64437170421E+03  0.50400000000E-02 0.  1.
         -1   -1    0    0    0  501 -0.00000000000E+00 -0.00000000000E+00 -0.20467389057E+03  0.20467389064E+03  0.50400000000E-02 0. -1.
    5000001    1    1    2    0    0 -0.14120124339E+02  0.31371112644E+03  0.12894719010E+03  0.37744725009E+03  0.16500000000E+03 0.  0.
   -5000001    1    1    2    0    0  0.14120124339E+02 -0.31371112644E+03  0.31075062352E+03  0.47159834476E+03  0.16500000000E+03 0.  0.
<mgrwt>
<rscale>  0 0.72632242E+03</rscale>
<asrwt>0</asrwt>
<pdfrwt beam="1">  1        1 0.99134106E-01 0.72632242E+03</pdfrwt>
<pdfrwt beam="2">  1       -1 0.31488292E-01 0.72632242E+03</pdfrwt>
<totfact> 0.29231143E+02</totfact>
</mgrwt>
</event>
<event>
 4    1  0.2228009E-005  0.5168480E+03  0.7818608E-02  0.1009473E+00
         -1   -1    0    0    0  501 -0.00000000000E+00  0.00000000000E+00  0.78907774249E+02  0.78907774410E+02  0.50400000000E-02 0. -1.
          1   -1    0    0  501    0  0.00000000000E+00 -0.00000000000E+00 -0.84634198482E+03  0.84634198484E+03  0.50400000000E-02 0.  1.
    5000001    1    1    2    0    0 -0.65322991157E+02  0.18643912726E+03 -0.42498142025E+03  0.49685093228E+03  0.16500000000E+03 0.  0.
   -5000001    1    1    2    0    0  0.65322991157E+02 -0.18643912726E+03 -0.34245279032E+03  0.42839882697E+03  0.16500000000E+03 0.  0.
<mgrwt>
<rscale>  0 0.51684799E+03</rscale>
<asrwt>0</asrwt>
<pdfrwt beam="1">  1        1 0.13020645E+00 0.51684799E+03</pdfrwt>
<pdfrwt beam="2">  1       -1 0.12139658E-01 0.51684799E+03</pdfrwt>
<totfact> 0.94434437E+02</totfact>
</mgrwt>
</event>
<event>
 4    1  0.2228009E-005  0.4890226E+03  0.7818608E-02  0.1016685E+00
         -1   -1    0    0    0  501 -0.00000000000E+00  0.00000000000E+00  0.28346693311E+03  0.28346693315E+03  0.50400000000E-02 0. -1.
          1   -1    0    0  501    0  0.00000000000E+00 -0.00000000000E+00 -0.21090918812E+03  0.21090918818E+03  0.50400000000E-02 0.  1.
    5000001    1    1    2    0    0 -0.17375386044E+03 -0.21408464126E+02  0.80484611895E+02  0.25367597266E+03  0.16500000000E+03 0.  0.
   -5000001    1    1    2    0    0  0.17375386044E+03  0.21408464126E+02 -0.79268669112E+01  0.24070014868E+03  0.16500000000E+03 0.  0.
<mgrwt>
<rscale>  0 0.48902262E+03</rscale>
<asrwt>0</asrwt>
<pdfrwt beam="1">  1        1 0.32447568E-01 0.48902262E+03</pdfrwt>
<pdfrwt beam="2">  1       -1 0.43610297E-01 0.48902262E+03</pdfrwt>
<totfact> 0.72561742E+02</totfact>
</mgrwt>
</event>
<event>
 4    1  0.2228009E-005  0.6486055E+03  0.7818608E-02  0.9809399E-01
         -1   -1    0    0    0  501 -0.00000000000E+00  0.00000000000E+00  0.18451576654E+03  0.18451576661E+03  0.50400000000E-02 0.  1.
          1   -1    0    0  501    0  0.00000000000E+00 -0.00000000000E+00 -0.56999067171E+03  0.56999067173E+03  0.50400000000E-02 0. -1.
    5000001    1    1    2    0    0  0.15449223284E+03 -0.19653665725E+03 -0.33734312936E+03  0.45113179291E+03  0.16500000000E+03 0.  0.
   -5000001    1    1    2    0    0 -0.15449223284E+03  0.19653665725E+03 -0.48131775804E+02  0.30337464543E+03  0.16500000000E+03 0.  0.
<mgrwt>
<rscale>  0 0.64860548E+03</rscale>
<asrwt>0</asrwt>
<pdfrwt beam="1">  1        1 0.87690872E-01 0.64860548E+03</pdfrwt>
<pdfrwt beam="2">  1       -1 0.28387041E-01 0.64860548E+03</pdfrwt>
<totfact> 0.41906116E+02</totfact>
</mgrwt>
</event>
<event>
 4    1  0.2228009E-005  0.5699964E+03  0.7818608E-02  0.9969687E-01
          1   -1    0    0  501    0  0.00000000000E+00  0.00000000000E+00  0.15057308825E+04  0.15057308825E+04  0.50400000000E-02 0.  1.
         -1   -1    0    0    0  501 -0.00000000000E+00 -0.00000000000E+00 -0.53943219053E+02  0.53943219289E+02  0.50400000000E-02 0. -1.
    5000001    1    1    2    0    0 -0.19197172829E+03 -0.94042376152E+02  0.97520940524E+03  0.10119068618E+04  0.16500000000E+03 0.  0.
   -5000001    1    1    2    0    0  0.19197172829E+03  0.94042376152E+02  0.47657825822E+03  0.54776723997E+03  0.16500000000E+03 0.  0.
<mgrwt>
<rscale>  0 0.56999639E+03</rscale>
<asrwt>0</asrwt>
<pdfrwt beam="1">  1        1 0.23165087E+00 0.56999639E+03</pdfrwt>
<pdfrwt beam="2">  1       -1 0.82989581E-02 0.56999639E+03</pdfrwt>
<totfact> 0.56409749E+02</totfact>
</mgrwt>
</event>
<event>
 4    1  0.2228009E-005  0.4548961E+03  0.7818608E-02  0.1026272E+00
         -1   -1    0    0    0  501 -0.00000000000E+00  0.00000000000E+00  0.83727952991E+02  0.83727953143E+02  0.50400000000E-02 0. -1.
          1   -1    0    0  501    0  0.00000000000E+00 -0.00000000000E+00 -0.61786551803E+03  0.61786551805E+03  0.50400000000E-02 0.  1.
    5000001    1    1    2    0    0 -0.94831229745E+02  0.79157796033E+01 -0.45878797188E+03  0.49675650458E+03  0.16500000000E+03 0.  0.
   -5000001    1    1    2    0    0  0.94831229745E+02 -0.79157796033E+01 -0.75349593159E+02  0.20483696661E+03  0.16500000000E+03 0.  0.
<mgrwt>
<rscale>  0 0.45489610E+03</rscale>
<asrwt>0</asrwt>
<pdfrwt beam="1">  1        1 0.95056231E-01 0.45489610E+03</pdfrwt>
<pdfrwt beam="2">  1       -1 0.12881224E-01 0.45489610E+03</pdfrwt>
<totfact> 0.13852041E+03</totfact>
</mgrwt>
</event>
<event>
 4    1  0.2228009E-005  0.5682060E+03  0.7818608E-02  0.9973656E-01
          1   -1    0    0  501    0  0.00000000000E+00  0.00000000000E+00  0.25552332986E+03  0.25552332991E+03  0.50400000000E-02 0.  1.
         -1   -1    0    0    0  501 -0.00000000000E+00 -0.00000000000E+00 -0.31587922218E+03  0.31587922222E+03  0.50400000000E-02 0. -1.
    5000001    1    1    2    0    0  0.86225880356E+02 -0.21163379293E+03 -0.65955417753E+02  0.28948036528E+03  0.16500000000E+03 0.  0.
   -5000001    1    1    2    0    0 -0.86225880356E+02  0.21163379293E+03  0.55995254271E+01  0.28192218685E+03  0.16500000000E+03 0.  0.
<mgrwt>
<rscale>  0 0.56820599E+03</rscale>
<asrwt>0</asrwt>
<pdfrwt beam="1">  1        1 0.39311282E-01 0.56820599E+03</pdfrwt>
<pdfrwt beam="2">  1       -1 0.48596803E-01 0.56820599E+03</pdfrwt>
<totfact> 0.46342582E+02</totfact>
</mgrwt>
</event>
<event>
 4    1  0.2228009E-005  0.3919783E+03  0.7818608E-02  0.1046593E+00
          1   -1    0    0  501    0  0.00000000000E+00  0.00000000000E+00  0.15206151921E+04  0.15206151921E+04  0.50400000000E-02 0. -1.
         -1   -1    0    0    0  501 -0.00000000000E+00 -0.00000000000E+00 -0.25260660022E+02  0.25260660524E+02  0.50400000000E-02 0.  1.
    5000001    1    1    2    0    0  0.99117278992E+02 -0.22407492788E+02  0.63199518235E+03  0.66103649010E+03  0.16500000000E+03 0.  0.
   -5000001    1    1    2    0    0 -0.99117278992E+02  0.22407492788E+02  0.86335934975E+03  0.88483936256E+03  0.16500000000E+03 0.  0.
<mgrwt>
<rscale>  0 0.39197828E+03</rscale>
<asrwt>0</asrwt>
<pdfrwt beam="1">  1        1 0.23394085E+00 0.39197828E+03</pdfrwt>
<pdfrwt beam="2">  1       -1 0.38862546E-02 0.39197828E+03</pdfrwt>
<totfact> 0.17751976E+03</totfact>
</mgrwt>
</event>
<event>
 4    1  0.2228009E-005  0.6196322E+03  0.7818608E-02  0.9865492E-01
          1   -1    0    0  501    0  0.00000000000E+00  0.00000000000E+00  0.97579015965E+02  0.97579016095E+02  0.50400000000E-02 0.  1.
         -1   -1    0    0    0  501 -0.00000000000E+00 -0.00000000000E+00 -0.98367486335E+03  0.98367486337E+03  0.50400000000E-02 0. -1.
    5000001    1    1    2    0    0  0.22437899322E+03  0.91785390735E+02 -0.26863123157E+03  0.39769112277E+03  0.16500000000E+03 0.  0.
   -5000001    1    1    2    0    0 -0.22437899322E+03 -0.91785390735E+02 -0.61746461582E+03  0.68356275670E+03  0.16500000000E+03 0.  0.
<mgrwt>
<rscale>  0 0.61963223E+03</rscale>
<asrwt>0</asrwt>
<pdfrwt beam="1">  1        1 0.15012157E-01 0.61963223E+03</pdfrwt>
<pdfrwt beam="2">  1       -1 0.15133459E+00 0.61963223E+03</pdfrwt>
<totfact> 0.13429061E+02</totfact>
</mgrwt>
</event>
<event>
 4    1  0.2228009E-005  0.7046504E+03  0.7818608E-02  0.9709312E-01
          1   -1    0    0  501    0  0.00000000000E+00  0.00000000000E+00  0.34292336413E+03  0.34292336417E+03  0.50400000000E-02 0.  1.
         -1   -1    0    0    0  501 -0.00000000000E+00 -0.00000000000E+00 -0.36198484819E+03  0.36198484823E+03  0.50400000000E-02 0. -1.
    5000001    1    1    2    0    0 -0.75307359353E+02 -0.15727206905E+03  0.24844410814E+03  0.34547818592E+03  0.16500000000E+03 0.  0.
   -5000001    1    1    2    0    0  0.75307359353E+02  0.15727206905E+03 -0.26750559220E+03  0.35943002648E+03  0.16500000000E+03 0.  0.
<mgrwt>
<rscale>  0 0.70465044E+03</rscale>
<asrwt>0</asrwt>
<pdfrwt beam="1">  1        1 0.52757441E-01 0.70465044E+03</pdfrwt>
<pdfrwt beam="2">  1       -1 0.55689977E-01 0.70465044E+03</pdfrwt>
<totfact> 0.24327676E+02</totfact>
</mgrwt>
</event>
<event>
 4    1  0.2228009E-005  0.6709984E+03  0.7818608E-02  0.9768156E-01
          1   -1    0    0  501    0  0.00000000000E+00  0.00000000000E+00  0.18904743190E+04  0.18904743190E+04  0.50400000000E-02 0.  1.
         -1   -1    0    0    0  501 -0.00000000000E+00 -0.00000000000E+00 -0.59540457955E+02  0.59540458169E+02  0.50400000000E-02 0. -1.
    5000001    1    1    2    0    0 -0.29077031052E+03  0.18144233202E+02  0.97766919127E+03  0.10334111642E+04  0.16500000000E+03 0.  0.
   -5000001    1    1    2    0    0  0.29077031052E+03 -0.18144233202E+02  0.85326466974E+03  0.91660361297E+03  0.16500000000E+03 0.  0.
<mgrwt>
<rscale>  0 0.67099838E+03</rscale>
<asrwt>0</asrwt>
<pdfrwt beam="1">  1        1 0.29084219E+00 0.67099838E+03</pdfrwt>
<pdfrwt beam="2">  1       -1 0.91600708E-02 0.67099838E+03</pdfrwt>
<totfact> 0.26479813E+02</totfact>
</mgrwt>
</event>
<event>
 4    1  0.2228009E-005  0.5165625E+03  0.7818608E-02  0.1009544E+00
         -1   -1    0    0    0  501 -0.00000000000E+00  0.00000000000E+00  0.80884706373E+02  0.80884706530E+02  0.50400000000E-02 0. -1.
          1   -1    0    0  501    0  0.00000000000E+00 -0.00000000000E+00 -0.82474420955E+03  0.82474420957E+03  0.50400000000E-02 0.  1.
    5000001    1    1    2    0    0 -0.13376935613E+03  0.13802420226E+03 -0.28358473146E+03  0.38025020837E+03  0.16500000000E+03 0.  0.
   -5000001    1    1    2    0    0  0.13376935613E+03 -0.13802420226E+03 -0.46027477172E+03  0.52537870773E+03  0.16500000000E+03 0.  0.
<mgrwt>
<rscale>  0 0.51656246E+03</rscale>
<asrwt>0</asrwt>
<pdfrwt beam="1">  1        1 0.12688372E+00 0.51656246E+03</pdfrwt>
<pdfrwt beam="2">  1       -1 0.12443802E-01 0.51656246E+03</pdfrwt>
<totfact> 0.94641512E+02</totfact>
</mgrwt>
</event>
<event>
 4    1  0.2228009E-005  0.5016129E+03  0.7818608E-02  0.1013359E+00
         -1   -1    0    0    0  501 -0.00000000000E+00  0.00000000000E+00  0.15363472101E+03  0.15363472109E+03  0.50400000000E-02 0. -1.
          1   -1    0    0  501    0  0.00000000000E+00 -0.00000000000E+00 -0.40943788928E+03  0.40943788931E+03  0.50400000000E-02 0.  1.
    5000001    1    1    2    0    0 -0.53020255596E+02  0.16281897383E+03 -0.21740633067E+03  0.32219819732E+03  0.16500000000E+03 0.  0.
   -5000001    1    1    2    0    0  0.53020255596E+02 -0.16281897383E+03 -0.38396837602E+02  0.24087441308E+03  0.16500000000E+03 0.  0.
<mgrwt>
<rscale>  0 0.50161290E+03</rscale>
<asrwt>0</asrwt>
<pdfrwt beam="1">  1        1 0.62990444E-01 0.50161290E+03</pdfrwt>
<pdfrwt beam="2">  1       -1 0.23636111E-01 0.50161290E+03</pdfrwt>
<totfact> 0.90049741E+02</totfact>
</mgrwt>
</event>
<event>
 4    1  0.2228009E-005  0.6244584E+03  0.7818608E-02  0.9855923E-01
          1   -1    0    0  501    0  0.00000000000E+00  0.00000000000E+00  0.14917602639E+04  0.14917602639E+04  0.50400000000E-02 0.  1.
         -1   -1    0    0    0  501 -0.00000000000E+00 -0.00000000000E+00 -0.65350359988E+02  0.65350360183E+02  0.50400000000E-02 0. -1.
    5000001    1    1    2    0    0  0.16466031373E+03  0.13627739987E+02  0.19635442736E+03  0.30508817637E+03  0.16500000000E+03 0.  0.
   -5000001    1    1    2    0    0 -0.16466031373E+03 -0.13627739987E+02  0.12300554765E+04  0.12520224477E+04  0.16500000000E+03 0.  0.
<mgrwt>
<rscale>  0 0.62445839E+03</rscale>
<asrwt>0</asrwt>
<pdfrwt beam="1">  1        1 0.22950155E+00 0.62445839E+03</pdfrwt>
<pdfrwt beam="2">  1       -1 0.10053903E-01 0.62445839E+03</pdfrwt>
<totfact> 0.42516528E+02</totfact>
</mgrwt>
</event>
<event>
 4    1  0.2228009E-005  0.5386497E+03  0.7818608E-02  0.1004156E+00
          1   -1    0    0  501    0  0.00000000000E+00  0.00000000000E+00  0.33678258120E+03  0.33678258124E+03  0.50400000000E-02 0.  1.
         -1   -1    0    0    0  501 -0.00000000000E+00 -0.00000000000E+00 -0.21537897230E+03  0.21537897236E+03  0.50400000000E-02 0. -1.
    5000001    1    1    2    0    0  0.31372801805E+02 -0.15222582627E+03  0.20979411766E+03  0.30886166269E+03  0.16500000000E+03 0.  0.
   -5000001    1    1    2    0    0 -0.31372801805E+02  0.15222582627E+03 -0.88390508765E+02  0.24329989091E+03  0.16500000000E+03 0.  0.
<mgrwt>
<rscale>  0 0.53864974E+03</rscale>
<asrwt>0</asrwt>
<pdfrwt beam="1">  1        1 0.51812704E-01 0.53864974E+03</pdfrwt>
<pdfrwt beam="2">  1       -1 0.33135227E-01 0.53864974E+03</pdfrwt>
<totfact> 0.65016172E+02</totfact>
</mgrwt>
</event>
<event>
 4    1  0.2228009E-005  0.6771800E+03  0.7818608E-02  0.9757073E-01
          1   -1    0    0  501    0  0.00000000000E+00  0.00000000000E+00  0.58351690759E+03  0.58351690761E+03  0.50400000000E-02 0.  1.
         -1   -1    0    0    0  501 -0.00000000000E+00 -0.00000000000E+00 -0.19646932240E+03  0.19646932247E+03  0.50400000000E-02 0. -1.
    5000001    1    1    2    0    0 -0.50615340393E+02 -0.28569329850E+03  0.25904171573E+03  0.42250465557E+03  0.16500000000E+03 0.  0.
   -5000001    1    1    2    0    0  0.50615340393E+02  0.28569329850E+03  0.12800586946E+03  0.35748157450E+03  0.16500000000E+03 0.  0.
<mgrwt>
<rscale>  0 0.67717995E+03</rscale>
<asrwt>0</asrwt>
<pdfrwt beam="1">  1        1 0.89771832E-01 0.67717995E+03</pdfrwt>
<pdfrwt beam="2">  1       -1 0.30226050E-01 0.67717995E+03</pdfrwt>
<totfact> 0.36314049E+02</totfact>
</mgrwt>
</event>
<event>
 4    1  0.2228009E-005  0.4755184E+03  0.7818608E-02  0.1020374E+00
          1   -1    0    0  501    0  0.00000000000E+00  0.00000000000E+00  0.65280228318E+03  0.65280228320E+03  0.50400000000E-02 0.  1.
         -1   -1    0    0    0  501 -0.00000000000E+00 -0.00000000000E+00 -0.86595030407E+02  0.86595030554E+02  0.50400000000E-02 0. -1.
    5000001    1    1    2    0    0 -0.14496965134E+03 -0.88880710107E+02  0.25245719581E+03  0.34623058235E+03  0.16500000000E+03 0.  0.
   -5000001    1    1    2    0    0  0.14496965134E+03  0.88880710107E+02  0.31375005696E+03  0.39316673140E+03  0.16500000000E+03 0.  0.
<mgrwt>
<rscale>  0 0.47551839E+03</rscale>
<asrwt>0</asrwt>
<pdfrwt beam="1">  1        1 0.10043112E+00 0.47551839E+03</pdfrwt>
<pdfrwt beam="2">  1       -1 0.13322312E-01 0.47551839E+03</pdfrwt>
<totfact> 0.12125296E+03</totfact>
</mgrwt>
</event>
<event>
 4    1  0.2228009E-005  0.5594894E+03  0.7818608E-02  0.9993211E-01
         -1   -1    0    0    0  501 -0.00000000000E+00  0.00000000000E+00  0.15633515208E+03  0.15633515216E+03  0.50400000000E-02 0. -1.
          1   -1    0    0  501    0  0.00000000000E+00 -0.00000000000E+00 -0.50057267826E+03  0.50057267828E+03  0.50400000000E-02 0.  1.
    5000001    1    1    2    0    0  0.18760803252E+03 -0.58289296681E+01 -0.24527814387E+02  0.25111225371E+03  0.16500000000E+03 0.  0.
   -5000001    1    1    2    0    0 -0.18760803252E+03  0.58289296681E+01 -0.31970971179E+03  0.40579557673E+03  0.16500000000E+03 0.  0.
<mgrwt>
<rscale>  0 0.55948943E+03</rscale>
<asrwt>0</asrwt>
<pdfrwt beam="1">  1        1 0.77011181E-01 0.55948943E+03</pdfrwt>
<pdfrwt beam="2">  1       -1 0.24051562E-01 0.55948943E+03</pdfrwt>
<totfact> 0.66766462E+02</totfact>
</mgrwt>
</event>
<event>
 4    1  0.2228009E-005  0.5197716E+03  0.7818608E-02  0.1008743E+00
         -1   -1    0    0    0  501 -0.00000000000E+00  0.00000000000E+00  0.31510269368E+03  0.31510269373E+03  0.50400000000E-02 0. -1.
          1   -1    0    0  501    0  0.00000000000E+00 -0.00000000000E+00 -0.21434477609E+03  0.21434477614E+03  0.50400000000E-02 0.  1.
    5000001    1    1    2    0    0 -0.12485342210E+03  0.44804157211E+02 -0.10315798100E+03  0.23550447673E+03  0.16500000000E+03 0.  0.
   -5000001    1    1    2    0    0  0.12485342210E+03 -0.44804157211E+02  0.20391589860E+03  0.29394299314E+03  0.16500000000E+03 0.  0.
<mgrwt>
<rscale>  0 0.51977155E+03</rscale>
<asrwt>0</asrwt>
<pdfrwt beam="1">  1        1 0.32976119E-01 0.51977155E+03</pdfrwt>
<pdfrwt beam="2">  1       -1 0.48477337E-01 0.51977155E+03</pdfrwt>
<totfact> 0.58413463E+02</totfact>
</mgrwt>
</event>
<event>
 4    1  0.2228009E-005  0.6303602E+03  0.7818608E-02  0.9844346E-01
         -1   -1    0    0    0  501 -0.00000000000E+00  0.00000000000E+00  0.18162954337E+03  0.18162954344E+03  0.50400000000E-02 0. -1.
          1   -1    0    0  501    0  0.00000000000E+00 -0.00000000000E+00 -0.54692916499E+03  0.54692916501E+03  0.50400000000E-02 0.  1.
    5000001    1    1    2    0    0 -0.17661014407E+03  0.19730157414E+03 -0.13103357856E+03  0.33839895517E+03  0.16500000000E+03 0.  0.
   -5000001    1    1    2    0    0  0.17661014407E+03 -0.19730157414E+03 -0.23426604306E+03  0.39015975328E+03  0.16500000000E+03 0.  0.
<mgrwt>
<rscale>  0 0.63036020E+03</rscale>
<asrwt>0</asrwt>
<pdfrwt beam="1">  1        1 0.84142948E-01 0.63036020E+03</pdfrwt>
<pdfrwt beam="2">  1       -1 0.27943007E-01 0.63036020E+03</pdfrwt>
<totfact> 0.45663189E+02</totfact>
</mgrwt>
</event>
<event>
 4    1  0.2228009E-005  0.3618562E+03  0.7818608E-02  0.1057851E+00
          1   -1    0    0  501    0  0.00000000000E+00  0.00000000000E+00  0.15649477270E+04  0.15649477270E+04  0.50400000000E-02 0. -1.
         -1   -1    0    0    0  501 -0.00000000000E+00 -0.00000000000E+00 -0.20917618315E+02  0.20917618922E+02  0.50400000000E-02 0.  1.
    5000001    1    1    2    0    0  0.16711460448E+02  0.34811396241E+02  0.10498471685E+04  0.10634355568E+04  0.16500000000E+03 0.  0.
   -5000001    1    1    2    0    0 -0.16711460448E+02 -0.34811396241E+02  0.49418294015E+03  0.52242978911E+03  0.16500000000E+03 0.  0.
<mgrwt>
<rscale>  0 0.36185621E+03</rscale>
<asrwt>0</asrwt>
<pdfrwt beam="1">  1        1 0.24076117E+00 0.36185621E+03</pdfrwt>
<pdfrwt beam="2">  1       -1 0.32180955E-02 0.36185621E+03</pdfrwt>
<totfact> 0.22011381E+03</totfact>
</mgrwt>
</event>
<event>
 4    1  0.2228009E-005  0.8776633E+03  0.7818608E-02  0.9453942E-01
         -1   -1    0    0    0  501 -0.00000000000E+00  0.00000000000E+00  0.60722194750E+02  0.60722194959E+02  0.50400000000E-02 0. -1.
          1   -1    0    0  501    0  0.00000000000E+00 -0.00000000000E+00 -0.31713811707E+04  0.31713811707E+04  0.50400000000E-02 0.  1.
    5000001    1    1    2    0    0 -0.24586903847E+03  0.44124911547E+01 -0.36272132915E+03  0.46825507662E+03  0.16500000000E+03 0.  0.
   -5000001    1    1    2    0    0  0.24586903847E+03 -0.44124911547E+01 -0.27479376468E+04  0.27638482890E+04  0.16500000000E+03 0.  0.
<mgrwt>
<rscale>  0 0.87766332E+03</rscale>
<asrwt>0</asrwt>
<pdfrwt beam="1">  1        1 0.48790467E+00 0.87766332E+03</pdfrwt>
<pdfrwt beam="2">  1       -1 0.93418786E-02 0.87766332E+03</pdfrwt>
<totfact> 0.32826348E+01</totfact>
</mgrwt>
</event>
<event>
 4    1  0.2228009E-005  0.5044681E+03  0.7818608E-02  0.1012619E+00
         -1   -1    0    0    0  501 -0.00000000000E+00  0.00000000000E+00  0.54788956052E+02  0.54788956284E+02  0.50400000000E-02 0. -1.
          1   -1    0    0  501    0  0.00000000000E+00 -0.00000000000E+00 -0.11612197051E+04  0.11612197051E+04  0.50400000000E-02 0.  1.
    5000001    1    1    2    0    0 -0.15592451503E+03  0.10574450774E+03 -0.48079427469E+03  0.54210929699E+03  0.16500000000E+03 0.  0.
   -5000001    1    1    2    0    0  0.15592451503E+03 -0.10574450774E+03 -0.62563647437E+03  0.67389936442E+03  0.16500000000E+03 0.  0.
<mgrwt>
<rscale>  0 0.50446810E+03</rscale>
<asrwt>0</asrwt>
<pdfrwt beam="1">  1        1 0.17864917E+00 0.50446810E+03</pdfrwt>
<pdfrwt beam="2">  1       -1 0.84290710E-02 0.50446810E+03</pdfrwt>
<totfact> 0.96054691E+02</totfact>
</mgrwt>
</event>
<event>
 4    1  0.2228009E-005  0.5193860E+03  0.7818608E-02  0.1008839E+00
          1   -1    0    0  501    0  0.00000000000E+00  0.00000000000E+00  0.13123670859E+03  0.13123670869E+03  0.50400000000E-02 0.  1.
         -1   -1    0    0    0  501 -0.00000000000E+00 -0.00000000000E+00 -0.51388404111E+03  0.51388404113E+03  0.50400000000E-02 0. -1.
    5000001    1    1    2    0    0  0.16843097407E+01 -0.18966444330E+03 -0.27220239941E+03  0.37053283822E+03  0.16500000000E+03 0.  0.
   -5000001    1    1    2    0    0 -0.16843097407E+01  0.18966444330E+03 -0.11044493311E+03  0.27458791161E+03  0.16500000000E+03 0.  0.
<mgrwt>
<rscale>  0 0.51938598E+03</rscale>
<asrwt>0</asrwt>
<pdfrwt beam="1">  1        1 0.20190263E-01 0.51938598E+03</pdfrwt>
<pdfrwt beam="2">  1       -1 0.79059082E-01 0.51938598E+03</pdfrwt>
<totfact> 0.42025829E+02</totfact>
</mgrwt>
</event>
<event>
 4    1  0.2228009E-005  0.4548065E+03  0.7818608E-02  0.1026298E+00
          1   -1    0    0  501    0  0.00000000000E+00  0.00000000000E+00  0.16486961986E+03  0.16486961994E+03  0.50400000000E-02 0.  1.
         -1   -1    0    0    0  501 -0.00000000000E+00 -0.00000000000E+00 -0.31365534793E+03  0.31365534797E+03  0.50400000000E-02 0. -1.
    5000001    1    1    2    0    0 -0.12811226539E+03  0.79791026354E+02 -0.11787454334E+03  0.25278205711E+03  0.16500000000E+03 0.  0.
   -5000001    1    1    2    0    0  0.12811226539E+03 -0.79791026354E+02 -0.30911184724E+02  0.22574291079E+03  0.16500000000E+03 0.  0.
<mgrwt>
<rscale>  0 0.45480650E+03</rscale>
<asrwt>0</asrwt>
<pdfrwt beam="1">  1        1 0.25364557E-01 0.45480650E+03</pdfrwt>
<pdfrwt beam="2">  1       -1 0.48254669E-01 0.45480650E+03</pdfrwt>
<totfact> 0.82678979E+02</totfact>
</mgrwt>
</event>
<event>
 4    1  0.2228009E-005  0.6491033E+03  0.7818608E-02  0.9808463E-01
         -1   -1    0    0    0  501 -0.00000000000E+00  0.00000000000E+00  0.24768516460E+03  0.24768516465E+03  0.50400000000E-02 0. -1.
          1   -1    0    0  501    0  0.00000000000E+00 -0.00000000000E+00 -0.42527286599E+03  0.42527286602E+03  0.50400000000E-02 0.  1.
    5000001    1    1    2    0    0  0.16611426542E+03  0.19813592817E+03 -0.19879195144E+03  0.36550654600E+03  0.16500000000E+03 0.  0.
   -5000001    1    1    2    0    0 -0.16611426542E+03 -0.19813592817E+03  0.21204250052E+02  0.30745148468E+03  0.16500000000E+03 0.  0.
<mgrwt>
<rscale>  0 0.64910332E+03</rscale>
<asrwt>0</asrwt>
<pdfrwt beam="1">  1        1 0.65426595E-01 0.64910332E+03</pdfrwt>
<pdfrwt beam="2">  1       -1 0.38105410E-01 0.64910332E+03</pdfrwt>
<totfact> 0.37238804E+02</totfact>
</mgrwt>
</event>
<event>
 4    1  0.2228009E-005  0.4645799E+03  0.7818608E-02  0.1023461E+00
          1   -1    0    0  501    0  0.00000000000E+00  0.00000000000E+00  0.31200601701E+03  0.31200601705E+03  0.50400000000E-02 0. -1.
         -1   -1    0    0    0  501 -0.00000000000E+00 -0.00000000000E+00 -0.17294096906E+03  0.17294096913E+03  0.50400000000E-02 0.  1.
    5000001    1    1    2    0    0  0.15175117057E+03  0.98340108117E+01  0.13223678295E+03  0.26045477976E+03  0.16500000000E+03 0.  0.
   -5000001    1    1    2    0    0 -0.15175117057E+03 -0.98340108117E+01  0.68282649991E+01  0.22449220641E+03  0.16500000000E+03 0.  0.
<mgrwt>
<rscale>  0 0.46457991E+03</rscale>
<asrwt>0</asrwt>
<pdfrwt beam="1">  1        1 0.48000925E-01 0.46457991E+03</pdfrwt>
<pdfrwt beam="2">  1       -1 0.26606303E-01 0.46457991E+03</pdfrwt>
<totfact> 0.10489155E+03</totfact>
</mgrwt>
</event>
<event>
 4    1  0.2228009E-005  0.4618652E+03  0.7818608E-02  0.1024242E+00
         -1   -1    0    0    0  501 -0.00000000000E+00  0.00000000000E+00  0.10017973265E+04  0.10017973265E+04  0.50400000000E-02 0.  1.
          1   -1    0    0  501    0  0.00000000000E+00 -0.00000000000E+00 -0.53234196488E+02  0.53234196727E+02  0.50400000000E-02 0. -1.
    5000001    1    1    2    0    0 -0.71447050504E+02 -0.14486013732E+03  0.48334284701E+03  0.53566262532E+03  0.16500000000E+03 0.  0.
   -5000001    1    1    2    0    0  0.71447050504E+02  0.14486013732E+03  0.46522028299E+03  0.51936889791E+03  0.16500000000E+03 0.  0.
<mgrwt>
<rscale>  0 0.46186524E+03</rscale>
<asrwt>0</asrwt>
<pdfrwt beam="1">  1        1 0.81898763E-02 0.46186524E+03</pdfrwt>
<pdfrwt beam="2">  1       -1 0.15412267E+00 0.46186524E+03</pdfrwt>
<totfact> 0.29441365E+02</totfact>
</mgrwt>
</event>
<event>
 4    1  0.2228009E-005  0.3569277E+03  0.7818608E-02  0.1059807E+00
          1   -1    0    0  501    0  0.00000000000E+00  0.00000000000E+00  0.14629539122E+03  0.14629539130E+03  0.50400000000E-02 0.  1.
         -1   -1    0    0    0  501 -0.00000000000E+00 -0.00000000000E+00 -0.21770577527E+03  0.21770577533E+03  0.50400000000E-02 0. -1.
    5000001    1    1    2    0    0  0.40440123467E+02 -0.54559401215E+02 -0.39270142663E+02  0.18269996155E+03  0.16500000000E+03 0.  0.
   -5000001    1    1    2    0    0 -0.40440123467E+02  0.54559401215E+02 -0.32140241391E+02  0.18130120508E+03  0.16500000000E+03 0.  0.
<mgrwt>
<rscale>  0 0.35692773E+03</rscale>
<asrwt>0</asrwt>
<pdfrwt beam="1">  1        1 0.22506983E-01 0.35692773E+03</pdfrwt>
<pdfrwt beam="2">  1       -1 0.33493196E-01 0.35692773E+03</pdfrwt>
<totfact> 0.18575198E+03</totfact>
</mgrwt>
</event>
<event>
 4    1  0.2228009E-005  0.3948084E+03  0.7818608E-02  0.1045592E+00
          1   -1    0    0  501    0  0.00000000000E+00  0.00000000000E+00  0.17883395677E+04  0.17883395677E+04  0.50400000000E-02 0.  1.
         -1   -1    0    0    0  501 -0.00000000000E+00 -0.00000000000E+00 -0.21790283817E+02  0.21790284400E+02  0.50400000000E-02 0. -1.
    5000001    1    1    2    0    0  0.72330467475E+02  0.78414725820E+02  0.79593854959E+03  0.81983153176E+03  0.16500000000E+03 0.  0.
   -5000001    1    1    2    0    0 -0.72330467475E+02 -0.78414725820E+02  0.97061073431E+03  0.99029832036E+03  0.16500000000E+03 0.  0.
<mgrwt>
<rscale>  0 0.39480845E+03</rscale>
<asrwt>0</asrwt>
<pdfrwt beam="1">  1        1 0.27512913E+00 0.39480845E+03</pdfrwt>
<pdfrwt beam="2">  1       -1 0.33523519E-02 0.39480845E+03</pdfrwt>
<totfact> 0.14721380E+03</totfact>
</mgrwt>
</event>
<event>
 4    1  0.2228009E-005  0.4649706E+03  0.7818608E-02  0.1023349E+00
         -1   -1    0    0    0  501 -0.00000000000E+00  0.00000000000E+00  0.62331932965E+02  0.62331933169E+02  0.50400000000E-02 0.  1.
          1   -1    0    0  501    0  0.00000000000E+00 -0.00000000000E+00 -0.86712257257E+03  0.86712257258E+03  0.50400000000E-02 0. -1.
    5000001    1    1    2    0    0 -0.38968761813E+01 -0.16347433229E+03 -0.42086625261E+03  0.48072075631E+03  0.16500000000E+03 0.  0.
   -5000001    1    1    2    0    0  0.38968761813E+01  0.16347433229E+03 -0.38392438700E+03  0.44873374944E+03  0.16500000000E+03 0.  0.
<mgrwt>
<rscale>  0 0.46497065E+03</rscale>
<asrwt>0</asrwt>
<pdfrwt beam="1">  1        1 0.13340346E+00 0.46497065E+03</pdfrwt>
<pdfrwt beam="2">  1       -1 0.95895288E-02 0.46497065E+03</pdfrwt>
<totfact> 0.13184974E+03</totfact>
</mgrwt>
</event>
<event>
 4    1  0.2228009E-005  0.3994272E+03  0.7818608E-02  0.1043978E+00
          1   -1    0    0  501    0  0.00000000000E+00  0.00000000000E+00  0.24809802205E+04  0.24809802205E+04  0.50400000000E-02 0.  1.
         -1   -1    0    0    0  501 -0.00000000000E+00 -0.00000000000E+00 -0.16076515029E+02  0.16076515819E+02  0.50400000000E-02 0. -1.
    5000001    1    1    2    0    0  0.35036844581E+01  0.11174902310E+03  0.11532767403E+04  0.11703727439E+04  0.16500000000E+03 0.  0.
   -5000001    1    1    2    0    0 -0.35036844581E+01 -0.11174902310E+03  0.13116269652E+04  0.13266839924E+04  0.16500000000E+03 0.  0.
<mgrwt>
<rscale>  0 0.39942717E+03</rscale>
<asrwt>0</asrwt>
<pdfrwt beam="1">  1        1 0.38168938E+00 0.39942717E+03</pdfrwt>
<pdfrwt beam="2">  1       -1 0.24733093E-02 0.39942717E+03</pdfrwt>
<totfact> 0.80733514E+02</totfact>
</mgrwt>
</event>
<event>
 4    1  0.2228009E-005  0.5329482E+03  0.7818608E-02  0.1005520E+00
         -1   -1    0    0    0  501 -0.00000000000E+00  0.00000000000E+00  0.69334321443E+02  0.69334321626E+02  0.50400000000E-02 0. -1.
          1   -1    0    0  501    0  0.00000000000E+00 -0.00000000000E+00 -0.10241456183E+04  0.10241456183E+04  0.50400000000E-02 0.  1.
    5000001    1    1    2    0    0 -0.12686207898E+03  0.15365465844E+03 -0.60845653789E+03  0.66117176259E+03  0.16500000000E+03 0.  0.
   -5000001    1    1    2    0    0  0.12686207898E+03 -0.15365465844E+03 -0.34635475897E+03  0.43230817735E+03  0.16500000000E+03 0.  0.
<mgrwt>
<rscale>  0 0.53294818E+03</rscale>
<asrwt>0</asrwt>
<pdfrwt beam="1">  1        1 0.15756085E+00 0.53294818E+03</pdfrwt>
<pdfrwt beam="2">  1       -1 0.10666819E-01 0.53294818E+03</pdfrwt>
<totfact> 0.83781292E+02</totfact>
</mgrwt>
</event>
<event>
 4    1  0.2228009E-005  0.4356554E+03  0.7818608E-02  0.1032088E+00
          1   -1    0    0  501    0  0.00000000000E+00  0.00000000000E+00  0.38336389367E+03  0.38336389370E+03  0.50400000000E-02 0.  1.
         -1   -1    0    0    0  501 -0.00000000000E+00 -0.00000000000E+00 -0.12376987140E+03  0.12376987150E+03  0.50400000000E-02 0. -1.
    5000001    1    1    2    0    0 -0.39129499309E+01 -0.11423594535E+03  0.31305755189E+02  0.20315071424E+03  0.16500000000E+03 0.  0.
   -5000001    1    1    2    0    0  0.39129499309E+01  0.11423594535E+03  0.22828826708E+03  0.30398305096E+03  0.16500000000E+03 0.  0.
<mgrwt>
<rscale>  0 0.43565537E+03</rscale>
<asrwt>0</asrwt>
<pdfrwt beam="1">  1        1 0.58979059E-01 0.43565537E+03</pdfrwt>
<pdfrwt beam="2">  1       -1 0.19041519E-01 0.43565537E+03</pdfrwt>
<totfact> 0.14050298E+03</totfact>
</mgrwt>
</event>
<event>
 4    1  0.2228009E-005  0.5517653E+03  0.7818608E-02  0.1001086E+00
          1   -1    0    0  501    0  0.00000000000E+00  0.00000000000E+00  0.80126075984E+03  0.80126075986E+03  0.50400000000E-02 0.  1.
         -1   -1    0    0    0  501 -0.00000000000E+00 -0.00000000000E+00 -0.94989351769E+02  0.94989351903E+02  0.50400000000E-02 0. -1.
    5000001    1    1    2    0    0  0.14713262595E+03 -0.12545810575E+03  0.52731451255E+03  0.58538307206E+03  0.16500000000E+03 0.  0.
   -5000001    1    1    2    0    0 -0.14713262595E+03  0.12545810575E+03  0.17895689553E+03  0.31086703970E+03  0.16500000000E+03 0.  0.
<mgrwt>
<rscale>  0 0.55176531E+03</rscale>
<asrwt>0</asrwt>
<pdfrwt beam="1">  1        1 0.12327089E+00 0.55176531E+03</pdfrwt>
<pdfrwt beam="2">  1       -1 0.14613746E-01 0.55176531E+03</pdfrwt>
<totfact> 0.76499877E+02</totfact>
</mgrwt>
</event>
<event>
 4    1  0.2228009E-005  0.5767548E+03  0.7818608E-02  0.9954842E-01
         -1   -1    0    0    0  501 -0.00000000000E+00  0.00000000000E+00  0.70208108456E+02  0.70208108637E+02  0.50400000000E-02 0. -1.
          1   -1    0    0  501    0  0.00000000000E+00 -0.00000000000E+00 -0.11845002622E+04  0.11845002622E+04  0.50400000000E-02 0.  1.
    5000001    1    1    2    0    0  0.14229071487E+03 -0.18208924830E+03 -0.66664298257E+03  0.72459713504E+03  0.16500000000E+03 0.  0.
   -5000001    1    1    2    0    0 -0.14229071487E+03  0.18208924830E+03 -0.44764917120E+03  0.53011123584E+03  0.16500000000E+03 0.  0.
<mgrwt>
<rscale>  0 0.57675479E+03</rscale>
<asrwt>0</asrwt>
<pdfrwt beam="1">  1        1 0.18223080E+00 0.57675479E+03</pdfrwt>
<pdfrwt beam="2">  1       -1 0.10801248E-01 0.57675479E+03</pdfrwt>
<totfact> 0.62403013E+02</totfact>
</mgrwt>
</event>
<event>
 4    1  0.2228009E-005  0.4098692E+03  0.7818608E-02  0.1040415E+00
          1   -1    0    0  501    0  0.00000000000E+00  0.00000000000E+00  0.32098536892E+03  0.32098536896E+03  0.50400000000E-02 0.  1.
         -1   -1    0    0    0  501 -0.00000000000E+00 -0.00000000000E+00 -0.13084145315E+03  0.13084145325E+03  0.50400000000E-02 0. -1.
    5000001    1    1    2    0    0  0.10785890906E+03  0.14759379008E+02  0.35484810177E+02  0.20083713622E+03  0.16500000000E+03 0.  0.
   -5000001    1    1    2    0    0 -0.10785890906E+03 -0.14759379008E+02  0.15465910559E+03  0.25098968599E+03  0.16500000000E+03 0.  0.
<mgrwt>
<rscale>  0 0.40986921E+03</rscale>
<asrwt>0</asrwt>
<pdfrwt beam="1">  1        1 0.49382364E-01 0.40986921E+03</pdfrwt>
<pdfrwt beam="2">  1       -1 0.20129454E-01 0.40986921E+03</pdfrwt>
<totfact> 0.16118174E+03</totfact>
</mgrwt>
</event>
<event>
 4    1  0.2228009E-005  0.5272712E+03  0.7818608E-02  0.1006896E+00
          1   -1    0    0  501    0  0.00000000000E+00  0.00000000000E+00  0.17404834687E+04  0.17404834687E+04  0.50400000000E-02 0.  1.
         -1   -1    0    0    0  501 -0.00000000000E+00 -0.00000000000E+00 -0.39933582890E+02  0.39933583208E+02  0.50400000000E-02 0. -1.
    5000001    1    1    2    0    0 -0.10203490163E+03 -0.14241874234E+03  0.48683997156E+03  0.54307676918E+03  0.16500000000E+03 0.  0.
   -5000001    1    1    2    0    0  0.10203490163E+03  0.14241874234E+03  0.12137099142E+04  0.12373402827E+04  0.16500000000E+03 0.  0.
<mgrwt>
<rscale>  0 0.52727124E+03</rscale>
<asrwt>0</asrwt>
<pdfrwt beam="1">  1        1 0.26776669E+00 0.52727124E+03</pdfrwt>
<pdfrwt beam="2">  1       -1 0.61436282E-02 0.52727124E+03</pdfrwt>
<totfact> 0.62704109E+02</totfact>
</mgrwt>
</event>
<event>
 4    1  0.2228009E-005  0.8451161E+03  0.7818608E-02  0.9496915E-01
         -1   -1    0    0    0  501 -0.00000000000E+00  0.00000000000E+00  0.37744037072E+03  0.37744037076E+03  0.50400000000E-02 0. -1.
          1   -1    0    0  501    0  0.00000000000E+00 -0.00000000000E+00 -0.47306892663E+03  0.47306892665E+03  0.50400000000E-02 0.  1.
    5000001    1    1    2    0    0  0.26263760419E+03 -0.28532017529E+03 -0.16890388764E+02  0.42177766512E+03  0.16500000000E+03 0.  0.
   -5000001    1    1    2    0    0 -0.26263760419E+03  0.28532017529E+03 -0.78738167140E+02  0.42873163229E+03  0.16500000000E+03 0.  0.
<mgrwt>
<rscale>  0 0.84511611E+03</rscale>
<asrwt>0</asrwt>
<pdfrwt beam="1">  1        1 0.72779834E-01 0.84511611E+03</pdfrwt>
<pdfrwt beam="2">  1       -1 0.58067750E-01 0.84511611E+03</pdfrwt>
<totfact> 0.14521043E+02</totfact>
</mgrwt>
</event>
<event>
 4    1  0.2228009E-005  0.4449094E+03  0.7818608E-02  0.1029251E+00
         -1   -1    0    0    0  501 -0.00000000000E+00  0.00000000000E+00  0.20647282710E+02  0.20647283325E+02  0.50400000000E-02 0. -1.
          1   -1    0    0  501    0  0.00000000000E+00 -0.00000000000E+00 -0.23967365611E+04  0.23967365611E+04  0.50400000000E-02 0.  1.
    5000001    1    1    2    0    0  0.12420143010E+03 -0.45970340473E+02 -0.15614058687E+04  0.15756752693E+04  0.16500000000E+03 0.  0.
   -5000001    1    1    2    0    0 -0.12420143010E+03  0.45970340473E+02 -0.81468340970E+03  0.84170857515E+03  0.16500000000E+03 0.  0.
<mgrwt>
<rscale>  0 0.44490942E+03</rscale>
<asrwt>0</asrwt>
<pdfrwt beam="1">  1        1 0.36872848E+00 0.44490942E+03</pdfrwt>
<pdfrwt beam="2">  1       -1 0.31765070E-02 0.44490942E+03</pdfrwt>
<totfact> 0.63024644E+02</totfact>
</mgrwt>
</event>
<event>
 4    1  0.2228009E-005  0.7267423E+03  0.7818608E-02  0.9672562E-01
         -1   -1    0    0    0  501 -0.00000000000E+00  0.00000000000E+00  0.11414972103E+03  0.11414972114E+03  0.50400000000E-02 0. -1.
          1   -1    0    0  501    0  0.00000000000E+00 -0.00000000000E+00 -0.11567140078E+04  0.11567140079E+04  0.50400000000E-02 0.  1.
    5000001    1    1    2    0    0 -0.31520613380E+03 -0.40180990309E+02 -0.41285963776E+03  0.54648650418E+03  0.16500000000E+03 0.  0.
   -5000001    1    1    2    0    0  0.31520613380E+03  0.40180990309E+02 -0.62970464906E+03  0.72437722481E+03  0.16500000000E+03 0.  0.
<mgrwt>
<rscale>  0 0.72674227E+03</rscale>
<asrwt>0</asrwt>
<pdfrwt beam="1">  1        1 0.17795599E+00 0.72674227E+03</pdfrwt>
<pdfrwt beam="2">  1       -1 0.17561496E-01 0.72674227E+03</pdfrwt>
<totfact> 0.29603243E+02</totfact>
</mgrwt>
</event>
<event>
 4    1  0.2228009E-005  0.4411204E+03  0.7818608E-02  0.1030404E+00
          1   -1    0    0  501    0  0.00000000000E+00  0.00000000000E+00  0.11218953827E+03  0.11218953838E+03  0.50400000000E-02 0.  1.
         -1   -1    0    0    0  501 -0.00000000000E+00 -0.00000000000E+00 -0.43361269301E+03  0.43361269304E+03  0.50400000000E-02 0. -1.
    5000001    1    1    2    0    0 -0.21931103346E+02  0.13498233000E+03 -0.22524889269E+03  0.31090716679E+03  0.16500000000E+03 0.  0.
   -5000001    1    1    2    0    0  0.21931103346E+02 -0.13498233000E+03 -0.96174262054E+02  0.23489506463E+03  0.16500000000E+03 0.  0.
<mgrwt>
<rscale>  0 0.44112043E+03</rscale>
<asrwt>0</asrwt>
<pdfrwt beam="1">  1        1 0.17259929E-01 0.44112043E+03</pdfrwt>
<pdfrwt beam="2">  1       -1 0.66709644E-01 0.44112043E+03</pdfrwt>
<totfact> 0.73270503E+02</totfact>
</mgrwt>
</event>
<event>
 4    1  0.2228009E-005  0.7456383E+03  0.7818608E-02  0.9642218E-01
         -1   -1    0    0    0  501 -0.00000000000E+00  0.00000000000E+00  0.12316922572E+03  0.12316922582E+03  0.50400000000E-02 0. -1.
          1   -1    0    0  501    0  0.00000000000E+00 -0.00000000000E+00 -0.11284808880E+04  0.11284808880E+04  0.50400000000E-02 0.  1.
    5000001    1    1    2    0    0 -0.19289237762E+03  0.26646462305E+03 -0.60278788536E+03  0.70625002613E+03  0.16500000000E+03 0.  0.
   -5000001    1    1    2    0    0  0.19289237762E+03 -0.26646462305E+03 -0.40252377696E+03  0.54540008773E+03  0.16500000000E+03 0.  0.
<mgrwt>
<rscale>  0 0.74563830E+03</rscale>
<asrwt>0</asrwt>
<pdfrwt beam="1">  1        1 0.17361244E+00 0.74563830E+03</pdfrwt>
<pdfrwt beam="2">  1       -1 0.18949112E-01 0.74563830E+03</pdfrwt>
<totfact> 0.27356830E+02</totfact>
</mgrwt>
</event>
<event>
 4    1  0.2228009E-005  0.4671344E+03  0.7818608E-02  0.1022732E+00
          1   -1    0    0  501    0  0.00000000000E+00  0.00000000000E+00  0.22876077446E+03  0.22876077452E+03  0.50400000000E-02 0.  1.
         -1   -1    0    0    0  501 -0.00000000000E+00 -0.00000000000E+00 -0.23847459522E+03  0.23847459527E+03  0.50400000000E-02 0. -1.
    5000001    1    1    2    0    0  0.89706043977E+02  0.13567615209E+03 -0.34417327000E+02  0.23423224579E+03  0.16500000000E+03 0.  0.
   -5000001    1    1    2    0    0 -0.89706043977E+02 -0.13567615209E+03  0.24703506244E+02  0.23300312400E+03  0.16500000000E+03 0.  0.
<mgrwt>
<rscale>  0 0.46713438E+03</rscale>
<asrwt>0</asrwt>
<pdfrwt beam="1">  1        1 0.35193965E-01 0.46713438E+03</pdfrwt>
<pdfrwt beam="2">  1       -1 0.36688399E-01 0.46713438E+03</pdfrwt>
<totfact> 0.89299763E+02</totfact>
</mgrwt>
</event>
<event>
 4    1  0.2228009E-005  0.6184863E+03  0.7818608E-02  0.9867778E-01
          1   -1    0    0  501    0  0.00000000000E+00  0.00000000000E+00  0.79338496814E+03  0.79338496816E+03  0.50400000000E-02 0.  1.
         -1   -1    0    0    0  501 -0.00000000000E+00 -0.00000000000E+00 -0.12053586166E+03  0.12053586177E+03  0.50400000000E-02 0. -1.
    5000001    1    1    2    0    0  0.19861890495E+03  0.33402252852E+02  0.89864833372E+02  0.27543759398E+03  0.16500000000E+03 0.  0.
   -5000001    1    1    2    0    0 -0.19861890495E+03 -0.33402252852E+02  0.58298427310E+03  0.63848323595E+03  0.16500000000E+03 0.  0.
<mgrwt>
<rscale>  0 0.61848635E+03</rscale>
<asrwt>0</asrwt>
<pdfrwt beam="1">  1        1 0.12205922E+00 0.61848635E+03</pdfrwt>
<pdfrwt beam="2">  1       -1 0.18543979E-01 0.61848635E+03</pdfrwt>
<totfact> 0.52569456E+02</totfact>
</mgrwt>
</event>
<event>
 4    1  0.2228009E-005  0.5058062E+03  0.7818608E-02  0.1012274E+00
         -1   -1    0    0    0  501 -0.00000000000E+00  0.00000000000E+00  0.11910462729E+03  0.11910462740E+03  0.50400000000E-02 0. -1.
          1   -1    0    0  501    0  0.00000000000E+00 -0.00000000000E+00 -0.53700662180E+03  0.53700662182E+03  0.50400000000E-02 0.  1.
    5000001    1    1    2    0    0 -0.14661603853E+03  0.11572390146E+03 -0.15320800397E+03  0.29255081030E+03  0.16500000000E+03 0.  0.
   -5000001    1    1    2    0    0  0.14661603853E+03 -0.11572390146E+03 -0.26469399053E+03  0.36356043892E+03  0.16500000000E+03 0.  0.
<mgrwt>
<rscale>  0 0.50580618E+03</rscale>
<asrwt>0</asrwt>
<pdfrwt beam="1">  1        1 0.82616402E-01 0.50580618E+03</pdfrwt>
<pdfrwt beam="2">  1       -1 0.18323789E-01 0.50580618E+03</pdfrwt>
<totfact> 0.95417756E+02</totfact>
</mgrwt>
</event>
<event>
 4    1  0.2228009E-005  0.7790621E+03  0.7818608E-02  0.9590828E-01
         -1   -1    0    0    0  501 -0.00000000000E+00  0.00000000000E+00  0.14761110676E+03  0.14761110685E+03  0.50400000000E-02 0. -1.
          1   -1    0    0  501    0  0.00000000000E+00 -0.00000000000E+00 -0.10279338116E+04  0.10279338116E+04  0.50400000000E-02 0.  1.
    5000001    1    1    2    0    0 -0.11681549404E+03 -0.26857583602E+03 -0.14320385270E+03  0.36539182089E+03  0.16500000000E+03 0.  0.
   -5000001    1    1    2    0    0  0.11681549404E+03  0.26857583602E+03 -0.73711885213E+03  0.81015309758E+03  0.16500000000E+03 0.  0.
<mgrwt>
<rscale>  0 0.77906212E+03</rscale>
<asrwt>0</asrwt>
<pdfrwt beam="1">  1        1 0.15814366E+00 0.77906212E+03</pdfrwt>
<pdfrwt beam="2">  1       -1 0.22709402E-01 0.77906212E+03</pdfrwt>
<totfact> 0.24007354E+02</totfact>
</mgrwt>
</event>
<event>
 4    1  0.2228009E-005  0.5438193E+03  0.7818608E-02  0.1002935E+00
         -1   -1    0    0    0  501 -0.00000000000E+00  0.00000000000E+00  0.30523851212E+02  0.30523851628E+02  0.50400000000E-02 0. -1.
          1   -1    0    0  501    0  0.00000000000E+00 -0.00000000000E+00 -0.24221996984E+04  0.24221996984E+04  0.50400000000E-02 0.  1.
    5000001    1    1    2    0    0  0.54547388337E+02  0.17131398846E+03 -0.65488005280E+03  0.69886821631E+03  0.16500000000E+03 0.  0.
   -5000001    1    1    2    0    0 -0.54547388337E+02 -0.17131398846E+03 -0.17367957944E+04  0.17538553337E+04  0.16500000000E+03 0.  0.
<mgrwt>
<rscale>  0 0.54381932E+03</rscale>
<asrwt>0</asrwt>
<pdfrwt beam="1">  1        1 0.37264596E+00 0.54381932E+03</pdfrwt>
<pdfrwt beam="2">  1       -1 0.46959791E-02 0.54381932E+03</pdfrwt>
<totfact> 0.33240893E+02</totfact>
</mgrwt>
</event>
<event>
 4    1  0.2228009E-005  0.7889279E+03  0.7818608E-02  0.9576183E-01
         -1   -1    0    0    0  501 -0.00000000000E+00  0.00000000000E+00  0.16376111157E+03  0.16376111165E+03  0.50400000000E-02 0. -1.
          1   -1    0    0  501    0  0.00000000000E+00 -0.00000000000E+00 -0.95017564457E+03  0.95017564458E+03  0.50400000000E-02 0.  1.
    5000001    1    1    2    0    0 -0.38868242615E+02 -0.32227703291E+03 -0.17905580345E+03  0.40578221619E+03  0.16500000000E+03 0.  0.
   -5000001    1    1    2    0    0  0.38868242615E+02  0.32227703291E+03 -0.60735872954E+03  0.70815454004E+03  0.16500000000E+03 0.  0.
<mgrwt>
<rscale>  0 0.78892793E+03</rscale>
<asrwt>0</asrwt>
<pdfrwt beam="1">  1        1 0.14618087E+00 0.78892793E+03</pdfrwt>
<pdfrwt beam="2">  1       -1 0.25194018E-01 0.78892793E+03</pdfrwt>
<totfact> 0.23130930E+02</totfact>
</mgrwt>
</event>
<event>
 4    1  0.2228009E-005  0.6137636E+03  0.7818608E-02  0.9877255E-01
         -1   -1    0    0    0  501 -0.00000000000E+00  0.00000000000E+00  0.56378070847E+03  0.56378070850E+03  0.50400000000E-02 0. -1.
          1   -1    0    0  501    0  0.00000000000E+00 -0.00000000000E+00 -0.16704447572E+03  0.16704447580E+03  0.50400000000E-02 0.  1.
    5000001    1    1    2    0    0 -0.19652850939E+03 -0.95335402717E+02  0.33207922013E+02  0.27575362210E+03  0.16500000000E+03 0.  0.
   -5000001    1    1    2    0    0  0.19652850939E+03  0.95335402717E+02  0.36352831074E+03  0.45507156220E+03  0.16500000000E+03 0.  0.
<mgrwt>
<rscale>  0 0.61376364E+03</rscale>
<asrwt>0</asrwt>
<pdfrwt beam="1">  1        1 0.25699150E-01 0.61376364E+03</pdfrwt>
<pdfrwt beam="2">  1       -1 0.86735494E-01 0.61376364E+03</pdfrwt>
<totfact> 0.25073115E+02</totfact>
</mgrwt>
</event>
<event>
 4    1  0.2228009E-005  0.4906960E+03  0.7818608E-02  0.1016236E+00
          1   -1    0    0  501    0  0.00000000000E+00  0.00000000000E+00  0.69512641457E+02  0.69512641640E+02  0.50400000000E-02 0.  1.
         -1   -1    0    0    0  501 -0.00000000000E+00 -0.00000000000E+00 -0.86596682024E+03  0.86596682026E+03  0.50400000000E-02 0. -1.
    5000001    1    1    2    0    0 -0.11551937771E+03  0.11225739878E+03 -0.23844801739E+03  0.33170605543E+03  0.16500000000E+03 0.  0.
   -5000001    1    1    2    0    0  0.11551937771E+03 -0.11225739878E+03 -0.55800616140E+03  0.60377340647E+03  0.16500000000E+03 0.  0.
<mgrwt>
<rscale>  0 0.49069600E+03</rscale>
<asrwt>0</asrwt>
<pdfrwt beam="1">  1        1 0.10694253E-01 0.49069600E+03</pdfrwt>
<pdfrwt beam="2">  1       -1 0.13322566E+00 0.49069600E+03</pdfrwt>
<totfact> 0.29805840E+02</totfact>
</mgrwt>
</event>
<event>
 4    1  0.2228009E-005  0.4086352E+03  0.7818608E-02  0.1040830E+00
          1   -1    0    0  501    0  0.00000000000E+00  0.00000000000E+00  0.74594337764E+03  0.74594337765E+03  0.50400000000E-02 0.  1.
         -1   -1    0    0    0  501 -0.00000000000E+00 -0.00000000000E+00 -0.55963594088E+02  0.55963594315E+02  0.50400000000E-02 0. -1.
    5000001    1    1    2    0    0 -0.11612933953E+02 -0.10107703118E+03  0.21827810213E+03  0.29192765600E+03  0.16500000000E+03 0.  0.
   -5000001    1    1    2    0    0  0.11612933953E+02  0.10107703118E+03  0.47170168141E+03  0.50997931597E+03  0.16500000000E+03 0.  0.
<mgrwt>
<rscale>  0 0.40863516E+03</rscale>
<asrwt>0</asrwt>
<pdfrwt beam="1">  1        1 0.11476052E+00 0.40863516E+03</pdfrwt>
<pdfrwt beam="2">  1       -1 0.86097838E-02 0.40863516E+03</pdfrwt>
<totfact> 0.19768414E+03</totfact>
</mgrwt>
</event>
<event>
 4    1  0.2228009E-005  0.5936979E+03  0.7818608E-02  0.9918568E-01
         -1   -1    0    0    0  501 -0.00000000000E+00  0.00000000000E+00  0.90197571777E+03  0.90197571778E+03  0.50400000000E-02 0. -1.
          1   -1    0    0  501    0  0.00000000000E+00 -0.00000000000E+00 -0.97695871046E+02  0.97695871176E+02  0.50400000000E-02 0.  1.
    5000001    1    1    2    0    0  0.19864991913E+03  0.13296141214E+03  0.29897643896E+03  0.41683622508E+03  0.16500000000E+03 0.  0.
   -5000001    1    1    2    0    0 -0.19864991913E+03 -0.13296141214E+03  0.50530340776E+03  0.58283536387E+03  0.16500000000E+03 0.  0.
<mgrwt>
<rscale>  0 0.59369791E+03</rscale>
<asrwt>0</asrwt>
<pdfrwt beam="1">  1        1 0.15030134E-01 0.59369791E+03</pdfrwt>
<pdfrwt beam="2">  1       -1 0.13876549E+00 0.59369791E+03</pdfrwt>
<totfact> 0.16869200E+02</totfact>
</mgrwt>
</event>
<event>
 4    1  0.2228009E-005  0.5251562E+03  0.7818608E-02  0.1007414E+00
          1   -1    0    0  501    0  0.00000000000E+00  0.00000000000E+00  0.84234003211E+03  0.84234003212E+03  0.50400000000E-02 0. -1.
         -1   -1    0    0    0  501 -0.00000000000E+00 -0.00000000000E+00 -0.81852055685E+02  0.81852055841E+02  0.50400000000E-02 0.  1.
    5000001    1    1    2    0    0 -0.14368382621E+03 -0.74316543825E+02  0.59972582627E+03  0.64270059693E+03  0.16500000000E+03 0.  0.
   -5000001    1    1    2    0    0  0.14368382621E+03  0.74316543825E+02  0.16076215015E+03  0.28149149103E+03  0.16500000000E+03 0.  0.
<mgrwt>
<rscale>  0 0.52515622E+03</rscale>
<asrwt>0</asrwt>
<pdfrwt beam="1">  1        1 0.12959077E+00 0.52515622E+03</pdfrwt>
<pdfrwt beam="2">  1       -1 0.12592624E-01 0.52515622E+03</pdfrwt>
<totfact> 0.89745934E+02</totfact>
</mgrwt>
</event>
<event>
 4    1  0.2228009E-005  0.5072719E+03  0.7818608E-02  0.1011898E+00
         -1   -1    0    0    0  501 -0.00000000000E+00  0.00000000000E+00  0.49974256689E+02  0.49974256943E+02  0.50400000000E-02 0. -1.
          1   -1    0    0  501    0  0.00000000000E+00 -0.00000000000E+00 -0.12872867082E+04  0.12872867082E+04  0.50400000000E-02 0.  1.
    5000001    1    1    2    0    0 -0.49511523266E+02 -0.18475319853E+03 -0.55848071977E+03  0.61295256722E+03  0.16500000000E+03 0.  0.
   -5000001    1    1    2    0    0  0.49511523266E+02  0.18475319853E+03 -0.67883173176E+03  0.72430839796E+03  0.16500000000E+03 0.  0.
<mgrwt>
<rscale>  0 0.50727191E+03</rscale>
<asrwt>0</asrwt>
<pdfrwt beam="1">  1        1 0.19804408E+00 0.50727191E+03</pdfrwt>
<pdfrwt beam="2">  1       -1 0.76883482E-02 0.50727191E+03</pdfrwt>
<totfact> 0.90133052E+02</totfact>
</mgrwt>
</event>
<event>
 4    1  0.2228009E-005  0.4628608E+03  0.7818608E-02  0.1023955E+00
          1   -1    0    0  501    0  0.00000000000E+00  0.00000000000E+00  0.90798802761E+03  0.90798802763E+03  0.50400000000E-02 0. -1.
         -1   -1    0    0    0  501 -0.00000000000E+00 -0.00000000000E+00 -0.58987601679E+02  0.58987601894E+02  0.50400000000E-02 0.  1.
    5000001    1    1    2    0    0  0.69222049576E+02  0.87630531347E+02  0.17851271074E+03  0.26751185033E+03  0.16500000000E+03 0.  0.
   -5000001    1    1    2    0    0 -0.69222049576E+02 -0.87630531347E+02  0.67048771520E+03  0.69946377919E+03  0.16500000000E+03 0.  0.
<mgrwt>
<rscale>  0 0.46286083E+03</rscale>
<asrwt>0</asrwt>
<pdfrwt beam="1">  1        1 0.13969047E+00 0.46286083E+03</pdfrwt>
<pdfrwt beam="2">  1       -1 0.90750155E-02 0.46286083E+03</pdfrwt>
<totfact> 0.13320872E+03</totfact>
</mgrwt>
</event>
<event>
 4    1  0.2228009E-005  0.4792898E+03  0.7818608E-02  0.1019331E+00
          1   -1    0    0  501    0  0.00000000000E+00  0.00000000000E+00  0.43071624617E+04  0.43071624617E+04  0.50400000000E-02 0.  1.
         -1   -1    0    0    0  501 -0.00000000000E+00 -0.00000000000E+00 -0.13333528448E+02  0.13333529400E+02  0.50400000000E-02 0. -1.
    5000001    1    1    2    0    0  0.99223706063E+02 -0.13485989328E+03  0.17267886218E+04  0.17427152605E+04  0.16500000000E+03 0.  0.
   -5000001    1    1    2    0    0 -0.99223706063E+02  0.13485989328E+03  0.25670403114E+04  0.25777807306E+04  0.16500000000E+03 0.  0.
<mgrwt>
<rscale>  0 0.47928979E+03</rscale>
<asrwt>0</asrwt>
<pdfrwt beam="1">  1        1 0.66264257E+00 0.47928979E+03</pdfrwt>
<pdfrwt beam="2">  1       -1 0.20513054E-02 0.47928979E+03</pdfrwt>
<totfact> 0.41850284E+01</totfact>
</mgrwt>
</event>
<event>
 4    1  0.2228009E-005  0.4170335E+03  0.7818608E-02  0.1038036E+00
         -1   -1    0    0    0  501 -0.00000000000E+00  0.00000000000E+00  0.23440372283E+03  0.23440372289E+03  0.50400000000E-02 0. -1.
          1   -1    0    0  501    0  0.00000000000E+00 -0.00000000000E+00 -0.18548866645E+03  0.18548866652E+03  0.50400000000E-02 0.  1.
    5000001    1    1    2    0    0 -0.33997380534E+02  0.49124552758E+02  0.13785818260E+03  0.22315672088E+03  0.16500000000E+03 0.  0.
   -5000001    1    1    2    0    0  0.33997380534E+02 -0.49124552758E+02 -0.88943126215E+02  0.19673566852E+03  0.16500000000E+03 0.  0.
<mgrwt>
<rscale>  0 0.41703349E+03</rscale>
<asrwt>0</asrwt>
<pdfrwt beam="1">  1        1 0.28536718E-01 0.41703349E+03</pdfrwt>
<pdfrwt beam="2">  1       -1 0.36062111E-01 0.41703349E+03</pdfrwt>
<totfact> 0.12040065E+03</totfact>
</mgrwt>
</event>
<event>
 4    1  0.2228009E-005  0.6579059E+03  0.7818608E-02  0.9792056E-01
          1   -1    0    0  501    0  0.00000000000E+00  0.00000000000E+00  0.19648920169E+04  0.19648920169E+04  0.50400000000E-02 0.  1.
         -1   -1    0    0    0  501 -0.00000000000E+00 -0.00000000000E+00 -0.55071758126E+02  0.55071758356E+02  0.50400000000E-02 0. -1.
    5000001    1    1    2    0    0 -0.98511555033E+01 -0.28139500805E+03  0.82813781296E+03  0.89012214503E+03  0.16500000000E+03 0.  0.
   -5000001    1    1    2    0    0  0.98511555033E+01  0.28139500805E+03  0.10816824459E+04  0.11298416303E+04  0.16500000000E+03 0.  0.
<mgrwt>
<rscale>  0 0.65790595E+03</rscale>
<asrwt>0</asrwt>
<pdfrwt beam="1">  1        1 0.30229109E+00 0.65790595E+03</pdfrwt>
<pdfrwt beam="2">  1       -1 0.84725778E-02 0.65790595E+03</pdfrwt>
<totfact> 0.26730453E+02</totfact>
</mgrwt>
</event>
<event>
 4    1  0.2228009E-005  0.7206185E+03  0.7818608E-02  0.9682607E-01
          1   -1    0    0  501    0  0.00000000000E+00  0.00000000000E+00  0.20519483079E+04  0.20519483079E+04  0.50400000000E-02 0.  1.
         -1   -1    0    0    0  501 -0.00000000000E+00 -0.00000000000E+00 -0.63268042224E+02  0.63268042425E+02  0.50400000000E-02 0. -1.
    5000001    1    1    2    0    0  0.12351992748E+03  0.28331466999E+03  0.12412070065E+04  0.12897070240E+04  0.16500000000E+03 0.  0.
   -5000001    1    1    2    0    0 -0.12351992748E+03 -0.28331466999E+03  0.74747325919E+03  0.82550932637E+03  0.16500000000E+03 0.  0.
<mgrwt>
<rscale>  0 0.72061849E+03</rscale>
<asrwt>0</asrwt>
<pdfrwt beam="1">  1        1 0.31568430E+00 0.72061849E+03</pdfrwt>
<pdfrwt beam="2">  1       -1 0.97335466E-02 0.72061849E+03</pdfrwt>
<totfact> 0.18695043E+02</totfact>
</mgrwt>
</event>
<event>
 4    1  0.2228009E-005  0.4356811E+03  0.7818608E-02  0.1032080E+00
         -1   -1    0    0    0  501 -0.00000000000E+00  0.00000000000E+00  0.51047763144E+03  0.51047763146E+03  0.50400000000E-02 0. -1.
          1   -1    0    0  501    0  0.00000000000E+00 -0.00000000000E+00 -0.92960986529E+02  0.92960986666E+02  0.50400000000E-02 0.  1.
    5000001    1    1    2    0    0  0.46789142691E+02  0.84157352763E+02  0.35374445738E+03  0.40203460675E+03  0.16500000000E+03 0.  0.
   -5000001    1    1    2    0    0 -0.46789142691E+02 -0.84157352763E+02  0.63772187532E+02  0.20140401138E+03  0.16500000000E+03 0.  0.
<mgrwt>
<rscale>  0 0.43568110E+03</rscale>
<asrwt>0</asrwt>
<pdfrwt beam="1">  1        1 0.14301690E-01 0.43568110E+03</pdfrwt>
<pdfrwt beam="2">  1       -1 0.78535022E-01 0.43568110E+03</pdfrwt>
<totfact> 0.67407647E+02</totfact>
</mgrwt>
</event>
<event>
 4    1  0.2228009E-005  0.5349187E+03  0.7818608E-02  0.1005046E+00
         -1   -1    0    0    0  501 -0.00000000000E+00  0.00000000000E+00  0.15243562584E+03  0.15243562592E+03  0.50400000000E-02 0.  1.
          1   -1    0    0  501    0  0.00000000000E+00 -0.00000000000E+00 -0.46927678127E+03  0.46927678130E+03  0.50400000000E-02 0. -1.
    5000001    1    1    2    0    0 -0.19966763169E+03  0.49954886085E+02 -0.20970288728E+03  0.33699103062E+03  0.16500000000E+03 0.  0.
   -5000001    1    1    2    0    0  0.19966763169E+03 -0.49954886085E+02 -0.10713826815E+03  0.28472137660E+03  0.16500000000E+03 0.  0.
<mgrwt>
<rscale>  0 0.53491868E+03</rscale>
<asrwt>0</asrwt>
<pdfrwt beam="1">  1        1 0.72196427E-01 0.53491868E+03</pdfrwt>
<pdfrwt beam="2">  1       -1 0.23451635E-01 0.53491868E+03</pdfrwt>
<totfact> 0.76074159E+02</totfact>
</mgrwt>
</event>
<event>
 4    1  0.2228009E-005  0.8180327E+03  0.7818608E-02  0.9534276E-01
          1   -1    0    0  501    0  0.00000000000E+00  0.00000000000E+00  0.55397693084E+03  0.55397693087E+03  0.50400000000E-02 0. -1.
         -1   -1    0    0    0  501 -0.00000000000E+00 -0.00000000000E+00 -0.30198796732E+03  0.30198796737E+03  0.50400000000E-02 0.  1.
    5000001    1    1    2    0    0  0.36725114167E+03  0.35729236320E+02  0.60486468850E+02  0.40869743368E+03  0.16500000000E+03 0.  0.
   -5000001    1    1    2    0    0 -0.36725114167E+03 -0.35729236320E+02  0.19150249467E+03  0.44726746455E+03  0.16500000000E+03 0.  0.
<mgrwt>
<rscale>  0 0.81803268E+03</rscale>
<asrwt>0</asrwt>
<pdfrwt beam="1">  1        1 0.85227220E-01 0.81803268E+03</pdfrwt>
<pdfrwt beam="2">  1       -1 0.46459687E-01 0.81803268E+03</pdfrwt>
<totfact> 0.17900127E+02</totfact>
</mgrwt>
</event>
<event>
 4    1  0.2228009E-005  0.6212430E+03  0.7818608E-02  0.9862288E-01
          1   -1    0    0  501    0  0.00000000000E+00  0.00000000000E+00  0.69942476893E+03  0.69942476895E+03  0.50400000000E-02 0.  1.
         -1   -1    0    0    0  501 -0.00000000000E+00 -0.00000000000E+00 -0.13795010382E+03  0.13795010391E+03  0.50400000000E-02 0. -1.
    5000001    1    1    2    0    0 -0.19054961848E+03  0.14799487459E+03  0.13905312061E+03  0.32368566598E+03  0.16500000000E+03 0.  0.
   -5000001    1    1    2    0    0  0.19054961848E+03 -0.14799487459E+03  0.42242154450E+03  0.51368920688E+03  0.16500000000E+03 0.  0.
<mgrwt>
<rscale>  0 0.62124301E+03</rscale>
<asrwt>0</asrwt>
<pdfrwt beam="1">  1        1 0.10760381E+00 0.62124301E+03</pdfrwt>
<pdfrwt beam="2">  1       -1 0.21223093E-01 0.62124301E+03</pdfrwt>
<totfact> 0.51020341E+02</totfact>
</mgrwt>
</event>
<event>
 4    1  0.2228009E-005  0.5160147E+03  0.7818608E-02  0.1009681E+00
          1   -1    0    0  501    0  0.00000000000E+00  0.00000000000E+00  0.97911010203E+03  0.97911010205E+03  0.50400000000E-02 0.  1.
         -1   -1    0    0    0  501 -0.00000000000E+00 -0.00000000000E+00 -0.67988061884E+02  0.67988062071E+02  0.50400000000E-02 0. -1.
    5000001    1    1    2    0    0 -0.15889786963E+03 -0.10145001864E+03  0.58068497018E+03  0.63242444121E+03  0.16500000000E+03 0.  0.
   -5000001    1    1    2    0    0  0.15889786963E+03  0.10145001864E+03  0.33043706997E+03  0.41467372291E+03  0.16500000000E+03 0.  0.
<mgrwt>
<rscale>  0 0.51601472E+03</rscale>
<asrwt>0</asrwt>
<pdfrwt beam="1">  1        1 0.15063233E+00 0.51601472E+03</pdfrwt>
<pdfrwt beam="2">  1       -1 0.10459702E-01 0.51601472E+03</pdfrwt>
<totfact> 0.93616904E+02</totfact>
</mgrwt>
</event>
<event>
 4    1  0.2228009E-005  0.5625687E+03  0.7818608E-02  0.9986259E-01
          1   -1    0    0  501    0  0.00000000000E+00  0.00000000000E+00  0.85995628488E+03  0.85995628489E+03  0.50400000000E-02 0.  1.
         -1   -1    0    0    0  501 -0.00000000000E+00 -0.00000000000E+00 -0.92005713190E+02  0.92005713328E+02  0.50400000000E-02 0. -1.
    5000001    1    1    2    0    0 -0.12619702998E+03  0.16643207931E+03  0.53786570881E+03  0.60012486043E+03  0.16500000000E+03 0.  0.
   -5000001    1    1    2    0    0  0.12619702998E+03 -0.16643207931E+03  0.23008486288E+03  0.35183713779E+03  0.16500000000E+03 0.  0.
<mgrwt>
<rscale>  0 0.56256872E+03</rscale>
<asrwt>0</asrwt>
<pdfrwt beam="1">  1        1 0.13230097E+00 0.56256872E+03</pdfrwt>
<pdfrwt beam="2">  1       -1 0.14154725E-01 0.56256872E+03</pdfrwt>
<totfact> 0.71860260E+02</totfact>
</mgrwt>
</event>
<event>
 4    1  0.2228009E-005  0.6202795E+03  0.7818608E-02  0.9864203E-01
          1   -1    0    0  501    0  0.00000000000E+00  0.00000000000E+00  0.12815951039E+04  0.12815951039E+04  0.50400000000E-02 0.  1.
         -1   -1    0    0    0  501 -0.00000000000E+00 -0.00000000000E+00 -0.75052314110E+02  0.75052314279E+02  0.50400000000E-02 0. -1.
    5000001    1    1    2    0    0  0.35802187511E+02 -0.24354606325E+03  0.40323104004E+03  0.50041657966E+03  0.16500000000E+03 0.  0.
   -5000001    1    1    2    0    0 -0.35802187511E+02  0.24354606325E+03  0.80331174978E+03  0.85623083855E+03  0.16500000000E+03 0.  0.
<mgrwt>
<rscale>  0 0.62027954E+03</rscale>
<asrwt>0</asrwt>
<pdfrwt beam="1">  1        1 0.19716847E+00 0.62027954E+03</pdfrwt>
<pdfrwt beam="2">  1       -1 0.11546510E-01 0.62027954E+03</pdfrwt>
<totfact> 0.47745172E+02</totfact>
</mgrwt>
</event>
<event>
 4    1  0.2228009E-005  0.6073822E+03  0.7818608E-02  0.9890208E-01
         -1   -1    0    0    0  501 -0.00000000000E+00  0.00000000000E+00  0.47736233908E+02  0.47736234174E+02  0.50400000000E-02 0. -1.
          1   -1    0    0  501    0  0.00000000000E+00 -0.00000000000E+00 -0.19320391318E+04  0.19320391318E+04  0.50400000000E-02 0.  1.
    5000001    1    1    2    0    0 -0.14968304334E+02  0.22178773341E+03 -0.13491275528E+04  0.13772378163E+04  0.16500000000E+03 0.  0.
   -5000001    1    1    2    0    0  0.14968304334E+02 -0.22178773341E+03 -0.53517534509E+03  0.60253754971E+03  0.16500000000E+03 0.  0.
<mgrwt>
<rscale>  0 0.60738216E+03</rscale>
<asrwt>0</asrwt>
<pdfrwt beam="1">  1        1 0.29723673E+00 0.60738216E+03</pdfrwt>
<pdfrwt beam="2">  1       -1 0.73440375E-02 0.60738216E+03</pdfrwt>
<totfact> 0.35281327E+02</totfact>
</mgrwt>
</event>
<event>
 4    1  0.2228009E-005  0.4315103E+03  0.7818608E-02  0.1033384E+00
          1   -1    0    0  501    0  0.00000000000E+00  0.00000000000E+00  0.95497773057E+03  0.95497773059E+03  0.50400000000E-02 0.  1.
         -1   -1    0    0    0  501 -0.00000000000E+00 -0.00000000000E+00 -0.48744896168E+02  0.48744896428E+02  0.50400000000E-02 0. -1.
    5000001    1    1    2    0    0  0.91068871172E+02 -0.93093578986E+02  0.33998870419E+03  0.39972149394E+03  0.16500000000E+03 0.  0.
   -5000001    1    1    2    0    0 -0.91068871172E+02  0.93093578986E+02  0.56624413022E+03  0.60400113307E+03  0.16500000000E+03 0.  0.
<mgrwt>
<rscale>  0 0.43151033E+03</rscale>
<asrwt>0</asrwt>
<pdfrwt beam="1">  1        1 0.14691964E+00 0.43151033E+03</pdfrwt>
<pdfrwt beam="2">  1       -1 0.74992155E-02 0.43151033E+03</pdfrwt>
<totfact> 0.16452801E+03</totfact>
</mgrwt>
</event>
<event>
 4    1  0.2228009E-005  0.1082955E+04  0.7818608E-02  0.9221966E-01
         -1   -1    0    0    0  501 -0.00000000000E+00  0.00000000000E+00  0.49028271958E+03  0.49028271960E+03  0.50400000000E-02 0. -1.
          1   -1    0    0  501    0  0.00000000000E+00 -0.00000000000E+00 -0.59801849343E+03  0.59801849345E+03  0.50400000000E-02 0.  1.
    5000001    1    1    2    0    0 -0.48056056472E+03 -0.82404457749E+02  0.11502175705E+03  0.52743147007E+03  0.16500000000E+03 0.  0.
   -5000001    1    1    2    0    0  0.48056056472E+03  0.82404457749E+02 -0.22275753090E+03  0.56086974298E+03  0.16500000000E+03 0.  0.
<mgrwt>
<rscale>  0 0.10829555E+04</rscale>
<asrwt>0</asrwt>
<pdfrwt beam="1">  1        1 0.92002845E-01 0.10829555E+04</pdfrwt>
<pdfrwt beam="2">  1       -1 0.75428111E-01 0.10829555E+04</pdfrwt>
<totfact> 0.60680356E+01</totfact>
</mgrwt>
</event>
<event>
 4    1  0.2228009E-005  0.4820596E+03  0.7818608E-02  0.1018571E+00
          1   -1    0    0  501    0  0.00000000000E+00  0.00000000000E+00  0.24903352317E+03  0.24903352322E+03  0.50400000000E-02 0.  1.
         -1   -1    0    0    0  501 -0.00000000000E+00 -0.00000000000E+00 -0.23328326959E+03  0.23328326965E+03  0.50400000000E-02 0. -1.
    5000001    1    1    2    0    0 -0.38566295103E+02  0.17140636181E+03  0.95655732694E+01  0.24121359866E+03  0.16500000000E+03 0.  0.
   -5000001    1    1    2    0    0  0.38566295103E+02 -0.17140636181E+03  0.61846803090E+01  0.24110319421E+03  0.16500000000E+03 0.  0.
<mgrwt>
<rscale>  0 0.48205956E+03</rscale>
<asrwt>0</asrwt>
<pdfrwt beam="1">  1        1 0.38312850E-01 0.48205956E+03</pdfrwt>
<pdfrwt beam="2">  1       -1 0.35889734E-01 0.48205956E+03</pdfrwt>
<totfact> 0.83289095E+02</totfact>
</mgrwt>
</event>
<event>
 4    1  0.2228009E-005  0.3692439E+03  0.7818608E-02  0.1054982E+00
          1   -1    0    0  501    0  0.00000000000E+00  0.00000000000E+00  0.97361266593E+02  0.97361266723E+02  0.50400000000E-02 0.  1.
         -1   -1    0    0    0  501 -0.00000000000E+00 -0.00000000000E+00 -0.35009060787E+03  0.35009060791E+03  0.50400000000E-02 0. -1.
    5000001    1    1    2    0    0 -0.93516785218E+01  0.59428224621E+02 -0.19535354057E+03  0.26269216506E+03  0.16500000000E+03 0.  0.
   -5000001    1    1    2    0    0  0.93516785218E+01 -0.59428224621E+02 -0.57375800712E+02  0.18475970957E+03  0.16500000000E+03 0.  0.
<mgrwt>
<rscale>  0 0.36924390E+03</rscale>
<asrwt>0</asrwt>
<pdfrwt beam="1">  1        1 0.14978657E-01 0.36924390E+03</pdfrwt>
<pdfrwt beam="2">  1       -1 0.53860093E-01 0.36924390E+03</pdfrwt>
<totfact> 0.13393337E+03</totfact>
</mgrwt>
</event>
<event>
 4    1  0.2228009E-005  0.7632107E+03  0.7818608E-02  0.9614850E-01
         -1   -1    0    0    0  501 -0.00000000000E+00  0.00000000000E+00  0.64021243348E+03  0.64021243349E+03  0.50400000000E-02 0. -1.
          1   -1    0    0  501    0  0.00000000000E+00 -0.00000000000E+00 -0.22745987430E+03  0.22745987436E+03  0.50400000000E-02 0.  1.
    5000001    1    1    2    0    0  0.27988517603E+03  0.20013284251E+03  0.20974365783E+03  0.43543801903E+03  0.16500000000E+03 0.  0.
   -5000001    1    1    2    0    0 -0.27988517603E+03 -0.20013284251E+03  0.20300890134E+03  0.43223428882E+03  0.16500000000E+03 0.  0.
<mgrwt>
<rscale>  0 0.76321069E+03</rscale>
<asrwt>0</asrwt>
<pdfrwt beam="1">  1        1 0.34993827E-01 0.76321069E+03</pdfrwt>
<pdfrwt beam="2">  1       -1 0.98494219E-01 0.76321069E+03</pdfrwt>
<totfact> 0.12584108E+02</totfact>
</mgrwt>
</event>
<event>
 4    1  0.2228009E-005  0.3540493E+03  0.7818608E-02  0.1060965E+00
          1   -1    0    0  501    0  0.00000000000E+00  0.00000000000E+00  0.62622042144E+03  0.62622042146E+03  0.50400000000E-02 0.  1.
         -1   -1    0    0    0  501 -0.00000000000E+00 -0.00000000000E+00 -0.50042644099E+02  0.50042644352E+02  0.50400000000E-02 0. -1.
    5000001    1    1    2    0    0  0.17185904506E+02 -0.31495856180E+02  0.18655980092E+03  0.25162850313E+03  0.16500000000E+03 0.  0.
   -5000001    1    1    2    0    0 -0.17185904506E+02  0.31495856180E+02  0.38961797642E+03  0.42463456268E+03  0.16500000000E+03 0.  0.
<mgrwt>
<rscale>  0 0.35404929E+03</rscale>
<asrwt>0</asrwt>
<pdfrwt beam="1">  1        1 0.96341605E-01 0.35404929E+03</pdfrwt>
<pdfrwt beam="2">  1       -1 0.76988682E-02 0.35404929E+03</pdfrwt>
<totfact> 0.30335036E+03</totfact>
</mgrwt>
</event>
<event>
 4    1  0.2228009E-005  0.7061686E+03  0.7818608E-02  0.9706741E-01
          1   -1    0    0  501    0  0.00000000000E+00  0.00000000000E+00  0.68883277511E+03  0.68883277513E+03  0.50400000000E-02 0.  1.
         -1   -1    0    0    0  501 -0.00000000000E+00 -0.00000000000E+00 -0.18098516072E+03  0.18098516079E+03  0.50400000000E-02 0. -1.
    5000001    1    1    2    0    0  0.23286584520E+03  0.23056058724E+02 -0.55978818592E+00  0.28632742982E+03  0.16500000000E+03 0.  0.
   -5000001    1    1    2    0    0 -0.23286584520E+03 -0.23056058724E+02  0.50840740258E+03  0.58349050610E+03  0.16500000000E+03 0.  0.
<mgrwt>
<rscale>  0 0.70616857E+03</rscale>
<asrwt>0</asrwt>
<pdfrwt beam="1">  1        1 0.10597427E+00 0.70616857E+03</pdfrwt>
<pdfrwt beam="2">  1       -1 0.27843871E-01 0.70616857E+03</pdfrwt>
<totfact> 0.32819603E+02</totfact>
</mgrwt>
</event>
<event>
 4    1  0.2228009E-005  0.5301576E+03  0.7818608E-02  0.1006194E+00
         -1   -1    0    0    0  501 -0.00000000000E+00  0.00000000000E+00  0.13281622999E+03  0.13281623009E+03  0.50400000000E-02 0. -1.
          1   -1    0    0  501    0  0.00000000000E+00 -0.00000000000E+00 -0.52905262220E+03  0.52905262222E+03  0.50400000000E-02 0.  1.
    5000001    1    1    2    0    0 -0.15377354058E+03  0.58961267271E+02 -0.35563445979E+03  0.42523358500E+03  0.16500000000E+03 0.  0.
   -5000001    1    1    2    0    0  0.15377354058E+03 -0.58961267271E+02 -0.40601932417E+02  0.23663526731E+03  0.16500000000E+03 0.  0.
<mgrwt>
<rscale>  0 0.53015762E+03</rscale>
<asrwt>0</asrwt>
<pdfrwt beam="1">  1        1 0.81392710E-01 0.53015762E+03</pdfrwt>
<pdfrwt beam="2">  1       -1 0.20433266E-01 0.53015762E+03</pdfrwt>
<totfact> 0.81347278E+02</totfact>
</mgrwt>
</event>
<event>
 4    1  0.2228009E-005  0.5811153E+03  0.7818608E-02  0.9945379E-01
          1   -1    0    0  501    0  0.00000000000E+00  0.00000000000E+00  0.79569569717E+03  0.79569569718E+03  0.50400000000E-02 0. -1.
         -1   -1    0    0    0  501 -0.00000000000E+00 -0.00000000000E+00 -0.10610052806E+03  0.10610052818E+03  0.50400000000E-02 0.  1.
    5000001    1    1    2    0    0 -0.16488458602E+03  0.75620582532E+02  0.58667187308E+03  0.63585712693E+03  0.16500000000E+03 0.  0.
   -5000001    1    1    2    0    0  0.16488458602E+03 -0.75620582532E+02  0.10292329603E+03  0.26593909844E+03  0.16500000000E+03 0.  0.
<mgrwt>
<rscale>  0 0.58111525E+03</rscale>
<asrwt>0</asrwt>
<pdfrwt beam="1">  1        1 0.12241472E+00 0.58111525E+03</pdfrwt>
<pdfrwt beam="2">  1       -1 0.16323158E-01 0.58111525E+03</pdfrwt>
<totfact> 0.64585013E+02</totfact>
</mgrwt>
</event>
<event>
 4    1  0.2228009E-005  0.4171379E+03  0.7818608E-02  0.1038002E+00
         -1   -1    0    0    0  501 -0.00000000000E+00  0.00000000000E+00  0.64050271868E+02  0.64050272066E+02  0.50400000000E-02 0. -1.
          1   -1    0    0  501    0  0.00000000000E+00 -0.00000000000E+00 -0.67916979741E+03  0.67916979743E+03  0.50400000000E-02 0.  1.
    5000001    1    1    2    0    0 -0.38298282167E+02  0.11166675957E+03 -0.22137591301E+03  0.30028073277E+03  0.16500000000E+03 0.  0.
   -5000001    1    1    2    0    0  0.38298282167E+02 -0.11166675957E+03 -0.39374361253E+03  0.44293933672E+03  0.16500000000E+03 0.  0.
<mgrwt>
<rscale>  0 0.41713792E+03</rscale>
<asrwt>0</asrwt>
<pdfrwt beam="1">  1        1 0.10448766E+00 0.41713792E+03</pdfrwt>
<pdfrwt beam="2">  1       -1 0.98538885E-02 0.41713792E+03</pdfrwt>
<totfact> 0.18429639E+03</totfact>
</mgrwt>
</event>
<event>
 4    1  0.2228009E-005  0.4498933E+03  0.7818608E-02  0.1027754E+00
          1   -1    0    0  501    0  0.00000000000E+00  0.00000000000E+00  0.12626559928E+04  0.12626559928E+04  0.50400000000E-02 0.  1.
         -1   -1    0    0    0  501 -0.00000000000E+00 -0.00000000000E+00 -0.40075037182E+02  0.40075037499E+02  0.50400000000E-02 0. -1.
    5000001    1    1    2    0    0  0.14483614583E+03  0.21708507802E+02  0.73840953159E+03  0.77066361326E+03  0.16500000000E+03 0.  0.
   -5000001    1    1    2    0    0 -0.14483614583E+03 -0.21708507802E+02  0.48417142406E+03  0.53206741709E+03  0.16500000000E+03 0.  0.
<mgrwt>
<rscale>  0 0.44989326E+03</rscale>
<asrwt>0</asrwt>
<pdfrwt beam="1">  1        1 0.19425476E+00 0.44989326E+03</pdfrwt>
<pdfrwt beam="2">  1       -1 0.61653907E-02 0.44989326E+03</pdfrwt>
<totfact> 0.13210254E+03</totfact>
</mgrwt>
</event>
<event>
 4    1  0.2228009E-005  0.4549037E+03  0.7818608E-02  0.1026270E+00
          1   -1    0    0  501    0  0.00000000000E+00  0.00000000000E+00  0.36291876997E+02  0.36291877347E+02  0.50400000000E-02 0.  1.
         -1   -1    0    0    0  501 -0.00000000000E+00 -0.00000000000E+00 -0.14255074961E+04  0.14255074961E+04  0.50400000000E-02 0. -1.
    5000001    1    1    2    0    0  0.32203110958E+02  0.10654148416E+03 -0.34082120927E+03  0.39467990181E+03  0.16500000000E+03 0.  0.
   -5000001    1    1    2    0    0 -0.32203110958E+02 -0.10654148416E+03 -0.10483944098E+04  0.10671194716E+04  0.16500000000E+03 0.  0.
<mgrwt>
<rscale>  0 0.45490370E+03</rscale>
<asrwt>0</asrwt>
<pdfrwt beam="1">  1        1 0.55833668E-02 0.45490370E+03</pdfrwt>
<pdfrwt beam="2">  1       -1 0.21930880E+00 0.45490370E+03</pdfrwt>
<totfact> 0.17575783E+02</totfact>
</mgrwt>
</event>
<event>
 4    1  0.2228009E-005  0.9021555E+03  0.7818608E-02  0.9422891E-01
         -1   -1    0    0    0  501 -0.00000000000E+00  0.00000000000E+00  0.60263949392E+02  0.60263949602E+02  0.50400000000E-02 0. -1.
          1   -1    0    0  501    0  0.00000000000E+00 -0.00000000000E+00 -0.33763328421E+04  0.33763328421E+04  0.50400000000E-02 0.  1.
    5000001    1    1    2    0    0 -0.31770063155E+03  0.16911783496E+03 -0.83473159315E+03  0.92387031881E+03  0.16500000000E+03 0.  0.
   -5000001    1    1    2    0    0  0.31770063155E+03 -0.16911783496E+03 -0.24813372995E+04  0.25127264729E+04  0.16500000000E+03 0.  0.
<mgrwt>
<rscale>  0 0.90215553E+03</rscale>
<asrwt>0</asrwt>
<pdfrwt beam="1">  1        1 0.51943568E+00 0.90215553E+03</pdfrwt>
<pdfrwt beam="2">  1       -1 0.92713794E-02 0.90215553E+03</pdfrwt>
<totfact> 0.23277348E+01</totfact>
</mgrwt>
</event>
<event>
 4    1  0.2228009E-005  0.3593973E+03  0.7818608E-02  0.1058823E+00
          1   -1    0    0  501    0  0.00000000000E+00  0.00000000000E+00  0.51548332578E+03  0.51548332580E+03  0.50400000000E-02 0. -1.
         -1   -1    0    0    0  501 -0.00000000000E+00 -0.00000000000E+00 -0.62643345004E+02  0.62643345207E+02  0.50400000000E-02 0.  1.
    5000001    1    1    2    0    0 -0.14948468827E+02  0.59761652539E+02  0.28378387107E+03  0.33399580434E+03  0.16500000000E+03 0.  0.
   -5000001    1    1    2    0    0  0.14948468827E+02 -0.59761652539E+02  0.16905610970E+03  0.24413086667E+03  0.16500000000E+03 0.  0.
<mgrwt>
<rscale>  0 0.35939727E+03</rscale>
<asrwt>0</asrwt>
<pdfrwt beam="1">  1        1 0.79305130E-01 0.35939727E+03</pdfrwt>
<pdfrwt beam="2">  1       -1 0.96374374E-02 0.35939727E+03</pdfrwt>
<totfact> 0.28072431E+03</totfact>
</mgrwt>
</event>
<event>
 4    1  0.2228009E-005  0.4082338E+03  0.7818608E-02  0.1040965E+00
         -1   -1    0    0    0  501 -0.00000000000E+00  0.00000000000E+00  0.40732125123E+02  0.40732125434E+02  0.50400000000E-02 0. -1.
          1   -1    0    0  501    0  0.00000000000E+00 -0.00000000000E+00 -0.10228710193E+04  0.10228710193E+04  0.50400000000E-02 0.  1.
    5000001    1    1    2    0    0 -0.53261407526E+01 -0.99934625645E+02 -0.31778906135E+03  0.37179320151E+03  0.16500000000E+03 0.  0.
   -5000001    1    1    2    0    0  0.53261407526E+01  0.99934625645E+02 -0.66434983283E+03  0.69180994323E+03  0.16500000000E+03 0.  0.
<mgrwt>
<rscale>  0 0.40823381E+03</rscale>
<asrwt>0</asrwt>
<pdfrwt beam="1">  1        1 0.15736475E+00 0.40823381E+03</pdfrwt>
<pdfrwt beam="2">  1       -1 0.62664816E-02 0.40823381E+03</pdfrwt>
<totfact> 0.19240679E+03</totfact>
</mgrwt>
</event>
<event>
 4    1  0.2228009E-005  0.4555573E+03  0.7818608E-02  0.1026078E+00
         -1   -1    0    0    0  501 -0.00000000000E+00  0.00000000000E+00  0.89456586777E+03  0.89456586779E+03  0.50400000000E-02 0. -1.
          1   -1    0    0  501    0  0.00000000000E+00 -0.00000000000E+00 -0.57998088362E+02  0.57998088581E+02  0.50400000000E-02 0.  1.
    5000001    1    1    2    0    0  0.11068105975E+03  0.10621149207E+03  0.48847790146E+03  0.53792828356E+03  0.16500000000E+03 0.  0.
   -5000001    1    1    2    0    0 -0.11068105975E+03 -0.10621149207E+03  0.34808987795E+03  0.41463567281E+03  0.16500000000E+03 0.  0.
<mgrwt>
<rscale>  0 0.45555729E+03</rscale>
<asrwt>0</asrwt>
<pdfrwt beam="1">  1        1 0.89227835E-02 0.45555729E+03</pdfrwt>
<pdfrwt beam="2">  1       -1 0.13762551E+00 0.45555729E+03</pdfrwt>
<totfact> 0.35216202E+02</totfact>
</mgrwt>
</event>
<event>
 4    1  0.2228009E-005  0.4415114E+03  0.7818608E-02  0.1030284E+00
          1   -1    0    0  501    0  0.00000000000E+00  0.00000000000E+00  0.11891799016E+04  0.11891799016E+04  0.50400000000E-02 0.  1.
         -1   -1    0    0    0  501 -0.00000000000E+00 -0.00000000000E+00 -0.40980413191E+02  0.40980413501E+02  0.50400000000E-02 0. -1.
    5000001    1    1    2    0    0 -0.94876086264E+02 -0.77414509407E+02  0.34923026766E+03  0.40519286502E+03  0.16500000000E+03 0.  0.
   -5000001    1    1    2    0    0  0.94876086264E+02  0.77414509407E+02  0.79896922076E+03  0.82496745010E+03  0.16500000000E+03 0.  0.
<mgrwt>
<rscale>  0 0.44151142E+03</rscale>
<asrwt>0</asrwt>
<pdfrwt beam="1">  1        1 0.18295071E+00 0.44151142E+03</pdfrwt>
<pdfrwt beam="2">  1       -1 0.63046804E-02 0.44151142E+03</pdfrwt>
<totfact> 0.14393205E+03</totfact>
</mgrwt>
</event>
<event>
 4    1  0.2228009E-005  0.5773822E+03  0.7818608E-02  0.9953475E-01
         -1   -1    0    0    0  501 -0.00000000000E+00  0.00000000000E+00  0.10005667268E+04  0.10005667268E+04  0.50400000000E-02 0. -1.
          1   -1    0    0  501    0  0.00000000000E+00 -0.00000000000E+00 -0.83295334069E+02  0.83295334221E+02  0.50400000000E-02 0.  1.
    5000001    1    1    2    0    0  0.21322315558E+03 -0.10317664992E+03  0.45332461473E+03  0.53743626737E+03  0.16500000000E+03 0.  0.
   -5000001    1    1    2    0    0 -0.21322315558E+03  0.10317664992E+03  0.46394677797E+03  0.54642579364E+03  0.16500000000E+03 0.  0.
<mgrwt>
<rscale>  0 0.57738216E+03</rscale>
<asrwt>0</asrwt>
<pdfrwt beam="1">  1        1 0.12814667E-01 0.57738216E+03</pdfrwt>
<pdfrwt beam="2">  1       -1 0.15393335E+00 0.57738216E+03</pdfrwt>
<totfact> 0.15919194E+02</totfact>
</mgrwt>
</event>
<event>
 4    1  0.2228009E-005  0.4666254E+03  0.7818608E-02  0.1022877E+00
         -1   -1    0    0    0  501 -0.00000000000E+00  0.00000000000E+00  0.39179133208E+02  0.39179133532E+02  0.50400000000E-02 0. -1.
          1   -1    0    0  501    0  0.00000000000E+00 -0.00000000000E+00 -0.13893828373E+04  0.13893828374E+04  0.50400000000E-02 0.  1.
    5000001    1    1    2    0    0  0.59635663510E+02 -0.14010015151E+03 -0.86933912512E+03  0.89786412072E+03  0.16500000000E+03 0.  0.
   -5000001    1    1    2    0    0 -0.59635663510E+02  0.14010015151E+03 -0.48086457902E+03  0.53069785016E+03  0.16500000000E+03 0.  0.
<mgrwt>
<rscale>  0 0.46662540E+03</rscale>
<asrwt>0</asrwt>
<pdfrwt beam="1">  1        1 0.21375117E+00 0.46662540E+03</pdfrwt>
<pdfrwt beam="2">  1       -1 0.60275600E-02 0.46662540E+03</pdfrwt>
<totfact> 0.11164198E+03</totfact>
</mgrwt>
</event>
<event>
 4    1  0.2228009E-005  0.4403298E+03  0.7818608E-02  0.1030646E+00
          1   -1    0    0  501    0  0.00000000000E+00  0.00000000000E+00  0.13240680275E+04  0.13240680275E+04  0.50400000000E-02 0.  1.
         -1   -1    0    0    0  501 -0.00000000000E+00 -0.00000000000E+00 -0.36608838406E+02  0.36608838753E+02  0.50400000000E-02 0. -1.
    5000001    1    1    2    0    0 -0.13879539999E+03 -0.49107784212E+01  0.78051157572E+03  0.80976021058E+03  0.16500000000E+03 0.  0.
   -5000001    1    1    2    0    0  0.13879539999E+03  0.49107784212E+01  0.50694761336E+03  0.55091665567E+03  0.16500000000E+03 0.  0.
<mgrwt>
<rscale>  0 0.44032984E+03</rscale>
<asrwt>0</asrwt>
<pdfrwt beam="1">  1        1 0.20370281E+00 0.44032984E+03</pdfrwt>
<pdfrwt beam="2">  1       -1 0.56321280E-02 0.44032984E+03</pdfrwt>
<totfact> 0.13750245E+03</totfact>
</mgrwt>
</event>
<event>
 4    1  0.2228009E-005  0.4307550E+03  0.7818608E-02  0.1033622E+00
          1   -1    0    0  501    0  0.00000000000E+00  0.00000000000E+00  0.10208792961E+04  0.10208792961E+04  0.50400000000E-02 0.  1.
         -1   -1    0    0    0  501 -0.00000000000E+00 -0.00000000000E+00 -0.45438748456E+02  0.45438748736E+02  0.50400000000E-02 0. -1.
    5000001    1    1    2    0    0  0.85230082245E+02 -0.10181751655E+03  0.39084443735E+03  0.44453947834E+03  0.16500000000E+03 0.  0.
   -5000001    1    1    2    0    0 -0.85230082245E+02  0.10181751655E+03  0.58459611025E+03  0.62177856646E+03  0.16500000000E+03 0.  0.
<mgrwt>
<rscale>  0 0.43075505E+03</rscale>
<asrwt>0</asrwt>
<pdfrwt beam="1">  1        1 0.15705836E+00 0.43075505E+03</pdfrwt>
<pdfrwt beam="2">  1       -1 0.69905762E-02 0.43075505E+03</pdfrwt>
<totfact> 0.16321800E+03</totfact>
</mgrwt>
</event>
<event>
 4    1  0.2228009E-005  0.6524141E+03  0.7818608E-02  0.9802260E-01
         -1   -1    0    0    0  501 -0.00000000000E+00  0.00000000000E+00  0.41685644027E+03  0.41685644030E+03  0.50400000000E-02 0. -1.
          1   -1    0    0  501    0  0.00000000000E+00 -0.00000000000E+00 -0.25527022139E+03  0.25527022144E+03  0.50400000000E-02 0.  1.
    5000001    1    1    2    0    0  0.18998412471E+03  0.99005298869E+02  0.26876149597E+03  0.38125288007E+03  0.16500000000E+03 0.  0.
   -5000001    1    1    2    0    0 -0.18998412471E+03 -0.99005298869E+02 -0.10717527709E+03  0.29087378167E+03  0.16500000000E+03 0.  0.
<mgrwt>
<rscale>  0 0.65241409E+03</rscale>
<asrwt>0</asrwt>
<pdfrwt beam="1">  1        1 0.39272342E-01 0.65241409E+03</pdfrwt>
<pdfrwt beam="2">  1       -1 0.64131759E-01 0.65241409E+03</pdfrwt>
<totfact> 0.27074929E+02</totfact>
</mgrwt>
</event>
<event>
 4    1  0.2228009E-005  0.4908005E+03  0.7818608E-02  0.1016208E+00
          1   -1    0    0  501    0  0.00000000000E+00  0.00000000000E+00  0.11615362742E+04  0.11615362742E+04  0.50400000000E-02 0.  1.
         -1   -1    0    0    0  501 -0.00000000000E+00 -0.00000000000E+00 -0.51846234341E+02  0.51846234586E+02  0.50400000000E-02 0. -1.
    5000001    1    1    2    0    0 -0.96432905409E+02 -0.12971117006E+03  0.75978843478E+03  0.79412074555E+03  0.16500000000E+03 0.  0.
   -5000001    1    1    2    0    0  0.96432905409E+02  0.12971117006E+03  0.34990160508E+03  0.41926176324E+03  0.16500000000E+03 0.  0.
<mgrwt>
<rscale>  0 0.49080050E+03</rscale>
<asrwt>0</asrwt>
<pdfrwt beam="1">  1        1 0.17869787E+00 0.49080050E+03</pdfrwt>
<pdfrwt beam="2">  1       -1 0.79763446E-02 0.49080050E+03</pdfrwt>
<totfact> 0.10466314E+03</totfact>
</mgrwt>
</event>
<event>
 4    1  0.2228009E-005  0.4329770E+03  0.7818608E-02  0.1032924E+00
          1   -1    0    0  501    0  0.00000000000E+00  0.00000000000E+00  0.16467264922E+03  0.16467264929E+03  0.50400000000E-02 0.  1.
         -1   -1    0    0    0  501 -0.00000000000E+00 -0.00000000000E+00 -0.28460868540E+03  0.28460868545E+03  0.50400000000E-02 0. -1.
    5000001    1    1    2    0    0 -0.79381574506E+02 -0.47163948092E+02  0.49436569346E+02  0.19543501928E+03  0.16500000000E+03 0.  0.
   -5000001    1    1    2    0    0  0.79381574506E+02  0.47163948092E+02 -0.16937260553E+03  0.25384631547E+03  0.16500000000E+03 0.  0.
<mgrwt>
<rscale>  0 0.43297698E+03</rscale>
<asrwt>0</asrwt>
<pdfrwt beam="1">  1        1 0.25334254E-01 0.43297698E+03</pdfrwt>
<pdfrwt beam="2">  1       -1 0.43785952E-01 0.43297698E+03</pdfrwt>
<totfact> 0.99056563E+02</totfact>
</mgrwt>
</event>
<event>
 4    1  0.2228009E-005  0.5206896E+03  0.7818608E-02  0.1008515E+00
         -1   -1    0    0    0  501 -0.00000000000E+00  0.00000000000E+00  0.34455651921E+03  0.34455651924E+03  0.50400000000E-02 0. -1.
          1   -1    0    0  501    0  0.00000000000E+00 -0.00000000000E+00 -0.19671491882E+03  0.19671491889E+03  0.50400000000E-02 0.  1.
    5000001    1    1    2    0    0 -0.15420236675E+03 -0.89762661876E+02 -0.23144087454E+02  0.24412364523E+03  0.16500000000E+03 0.  0.
   -5000001    1    1    2    0    0  0.15420236675E+03  0.89762661876E+02  0.17098568784E+03  0.29714779290E+03  0.16500000000E+03 0.  0.
<mgrwt>
<rscale>  0 0.52068957E+03</rscale>
<asrwt>0</asrwt>
<pdfrwt beam="1">  1        1 0.30263834E-01 0.52068957E+03</pdfrwt>
<pdfrwt beam="2">  1       -1 0.53008695E-01 0.52068957E+03</pdfrwt>
<totfact> 0.55116705E+02</totfact>
</mgrwt>
</event>
<event>
 4    1  0.2228009E-005  0.7669382E+03  0.7818608E-02  0.9609145E-01
          1   -1    0    0  501    0  0.00000000000E+00  0.00000000000E+00  0.69832470337E+02  0.69832470519E+02  0.50400000000E-02 0.  1.
         -1   -1    0    0    0  501 -0.00000000000E+00 -0.00000000000E+00 -0.21057329929E+04  0.21057329929E+04  0.50400000000E-02 0. -1.
    5000001    1    1    2    0    0  0.25691937828E+03 -0.67531422528E+02 -0.16475130796E+04  0.16769294581E+04  0.16500000000E+03 0.  0.
   -5000001    1    1    2    0    0 -0.25691937828E+03  0.67531422528E+02 -0.38838744295E+03  0.49863600533E+03  0.16500000000E+03 0.  0.
<mgrwt>
<rscale>  0 0.76693816E+03</rscale>
<asrwt>0</asrwt>
<pdfrwt beam="1">  1        1 0.10743459E-01 0.76693816E+03</pdfrwt>
<pdfrwt beam="2">  1       -1 0.32395887E+00 0.76693816E+03</pdfrwt>
<totfact> 0.14653796E+01</totfact>
</mgrwt>
</event>
<event>
 4    1  0.2228009E-005  0.6147371E+03  0.7818608E-02  0.9875294E-01
         -1   -1    0    0    0  501 -0.00000000000E+00  0.00000000000E+00  0.41477354699E+03  0.41477354702E+03  0.50400000000E-02 0. -1.
          1   -1    0    0  501    0  0.00000000000E+00 -0.00000000000E+00 -0.22777595436E+03  0.22777595442E+03  0.50400000000E-02 0.  1.
    5000001    1    1    2    0    0 -0.17774291806E+03  0.12090564209E+03  0.24511203467E+03  0.36539790468E+03  0.16500000000E+03 0.  0.
   -5000001    1    1    2    0    0  0.17774291806E+03 -0.12090564209E+03 -0.58114442039E+02  0.27715159675E+03  0.16500000000E+03 0.  0.
<mgrwt>
<rscale>  0 0.61473715E+03</rscale>
<asrwt>0</asrwt>
<pdfrwt beam="1">  1        1 0.35042455E-01 0.61473715E+03</pdfrwt>
<pdfrwt beam="2">  1       -1 0.63811314E-01 0.61473715E+03</pdfrwt>
<totfact> 0.31720509E+02</totfact>
</mgrwt>
</event>
<event>
 4    1  0.2228009E-005  0.5105622E+03  0.7818608E-02  0.1011058E+00
          1   -1    0    0  501    0  0.00000000000E+00  0.00000000000E+00  0.16809351861E+03  0.16809351868E+03  0.50400000000E-02 0.  1.
         -1   -1    0    0    0  501 -0.00000000000E+00 -0.00000000000E+00 -0.38769151045E+03  0.38769151048E+03  0.50400000000E-02 0. -1.
    5000001    1    1    2    0    0  0.18243884139E+03 -0.52792491947E+02 -0.62694368009E+02  0.25928085512E+03  0.16500000000E+03 0.  0.
   -5000001    1    1    2    0    0 -0.18243884139E+03  0.52792491947E+02 -0.15690362384E+03  0.29650417404E+03  0.16500000000E+03 0.  0.
<mgrwt>
<rscale>  0 0.51056216E+03</rscale>
<asrwt>0</asrwt>
<pdfrwt beam="1">  1        1 0.25860541E-01 0.51056216E+03</pdfrwt>
<pdfrwt beam="2">  1       -1 0.59644848E-01 0.51056216E+03</pdfrwt>
<totfact> 0.53811910E+02</totfact>
</mgrwt>
</event>
<event>
 4    1  0.2228009E-005  0.5322947E+03  0.7818608E-02  0.1005677E+00
          1   -1    0    0  501    0  0.00000000000E+00  0.00000000000E+00  0.33142499653E+04  0.33142499653E+04  0.50400000000E-02 0. -1.
         -1   -1    0    0    0  501 -0.00000000000E+00 -0.00000000000E+00 -0.21372685104E+02  0.21372685698E+02  0.50400000000E-02 0.  1.
    5000001    1    1    2    0    0  0.43130826570E+01  0.19858076299E+03  0.12424318901E+04  0.12689818453E+04  0.16500000000E+03 0.  0.
   -5000001    1    1    2    0    0 -0.43130826570E+01 -0.19858076299E+03  0.20504453901E+04  0.20666408058E+04  0.16500000000E+03 0.  0.
<mgrwt>
<rscale>  0 0.53229474E+03</rscale>
<asrwt>0</asrwt>
<pdfrwt beam="1">  1        1 0.50988445E+00 0.53229474E+03</pdfrwt>
<pdfrwt beam="2">  1       -1 0.32881065E-02 0.53229474E+03</pdfrwt>
<totfact> 0.13461897E+02</totfact>
</mgrwt>
</event>
<event>
 4    1  0.2228009E-005  0.7145990E+03  0.7818608E-02  0.9692587E-01
         -1   -1    0    0    0  501 -0.00000000000E+00  0.00000000000E+00  0.11782051115E+03  0.11782051126E+03  0.50400000000E-02 0. -1.
          1   -1    0    0  501    0  0.00000000000E+00 -0.00000000000E+00 -0.10835374867E+04  0.10835374868E+04  0.50400000000E-02 0.  1.
    5000001    1    1    2    0    0 -0.22885517748E+03 -0.11377141551E+03 -0.79791106351E+03  0.85393541472E+03  0.16500000000E+03 0.  0.
   -5000001    1    1    2    0    0  0.22885517748E+03  0.11377141551E+03 -0.16780591208E+03  0.34742258328E+03  0.16500000000E+03 0.  0.
<mgrwt>
<rscale>  0 0.71459902E+03</rscale>
<asrwt>0</asrwt>
<pdfrwt beam="1">  1        1 0.16669807E+00 0.71459902E+03</pdfrwt>
<pdfrwt beam="2">  1       -1 0.18126233E-01 0.71459902E+03</pdfrwt>
<totfact> 0.31855059E+02</totfact>
</mgrwt>
</event>
<event>
 4    1  0.2228009E-005  0.5329501E+03  0.7818608E-02  0.1005519E+00
         -1   -1    0    0    0  501 -0.00000000000E+00  0.00000000000E+00  0.18320284644E+03  0.18320284651E+03  0.50400000000E-02 0.  1.
          1   -1    0    0  501    0  0.00000000000E+00 -0.00000000000E+00 -0.38759737943E+03  0.38759737947E+03  0.50400000000E-02 0. -1.
    5000001    1    1    2    0    0  0.87197306582E+02  0.28865890136E+02  0.99164004445E+02  0.21329582665E+03  0.16500000000E+03 0.  0.
   -5000001    1    1    2    0    0 -0.87197306582E+02 -0.28865890136E+02 -0.30355853744E+03  0.35750439933E+03  0.16500000000E+03 0.  0.
<mgrwt>
<rscale>  0 0.53295007E+03</rscale>
<asrwt>0</asrwt>
<pdfrwt beam="1">  1        1 0.59630366E-01 0.53295007E+03</pdfrwt>
<pdfrwt beam="2">  1       -1 0.28185053E-01 0.53295007E+03</pdfrwt>
<totfact> 0.71722862E+02</totfact>
</mgrwt>
</event>
<event>
 4    1  0.2228009E-005  0.4625475E+03  0.7818608E-02  0.1024045E+00
          1   -1    0    0  501    0  0.00000000000E+00  0.00000000000E+00  0.34558676439E+04  0.34558676439E+04  0.50400000000E-02 0.  1.
         -1   -1    0    0    0  501 -0.00000000000E+00 -0.00000000000E+00 -0.15477311273E+02  0.15477312094E+02  0.50400000000E-02 0. -1.
    5000001    1    1    2    0    0  0.12121464415E+03  0.10577932896E+03  0.18665461510E+04  0.18807184239E+04  0.16500000000E+03 0.  0.
   -5000001    1    1    2    0    0 -0.12121464415E+03 -0.10577932896E+03  0.15738441816E+04  0.15906265320E+04  0.16500000000E+03 0.  0.
<mgrwt>
<rscale>  0 0.46254747E+03</rscale>
<asrwt>0</asrwt>
<pdfrwt beam="1">  1        1 0.53167270E+00 0.46254747E+03</pdfrwt>
<pdfrwt beam="2">  1       -1 0.23811215E-02 0.46254747E+03</pdfrwt>
<totfact> 0.17266086E+02</totfact>
</mgrwt>
</event>
<event>
 4    1  0.2228009E-005  0.8372000E+03  0.7818608E-02  0.9507680E-01
         -1   -1    0    0    0  501 -0.00000000000E+00  0.00000000000E+00  0.16192475834E+03  0.16192475842E+03  0.50400000000E-02 0. -1.
          1   -1    0    0  501    0  0.00000000000E+00 -0.00000000000E+00 -0.10821442684E+04  0.10821442685E+04  0.50400000000E-02 0.  1.
    5000001    1    1    2    0    0  0.52532733213E+02  0.37127640270E+03 -0.58789688599E+03  0.71655676943E+03  0.16500000000E+03 0.  0.
   -5000001    1    1    2    0    0 -0.52532733213E+02 -0.37127640270E+03 -0.33232262411E+03  0.52751225745E+03  0.16500000000E+03 0.  0.
<mgrwt>
<rscale>  0 0.83719997E+03</rscale>
<asrwt>0</asrwt>
<pdfrwt beam="1">  1        1 0.16648373E+00 0.83719997E+03</pdfrwt>
<pdfrwt beam="2">  1       -1 0.24911502E-01 0.83719997E+03</pdfrwt>
<totfact> 0.18594906E+02</totfact>
</mgrwt>
</event>
<event>
 4    1  0.2228009E-005  0.4873819E+03  0.7818608E-02  0.1017126E+00
          1   -1    0    0  501    0  0.00000000000E+00  0.00000000000E+00  0.70851498911E+03  0.70851498913E+03  0.50400000000E-02 0. -1.
         -1   -1    0    0    0  501 -0.00000000000E+00 -0.00000000000E+00 -0.83816555854E+02  0.83816556006E+02  0.50400000000E-02 0.  1.
    5000001    1    1    2    0    0 -0.98891061354E+02 -0.14936343008E+03  0.29861142475E+03  0.38533447711E+03  0.16500000000E+03 0.  0.
   -5000001    1    1    2    0    0  0.98891061354E+02  0.14936343008E+03  0.32608700851E+03  0.40699706802E+03  0.16500000000E+03 0.  0.
<mgrwt>
<rscale>  0 0.48738193E+03</rscale>
<asrwt>0</asrwt>
<pdfrwt beam="1">  1        1 0.10900231E+00 0.48738193E+03</pdfrwt>
<pdfrwt beam="2">  1       -1 0.12894854E-01 0.48738193E+03</pdfrwt>
<totfact> 0.11316505E+03</totfact>
</mgrwt>
</event>
<event>
 4    1  0.2228009E-005  0.5306827E+03  0.7818608E-02  0.1006067E+00
          1   -1    0    0  501    0  0.00000000000E+00  0.00000000000E+00  0.50921855794E+03  0.50921855796E+03  0.50400000000E-02 0.  1.
         -1   -1    0    0    0  501 -0.00000000000E+00 -0.00000000000E+00 -0.13826287838E+03  0.13826287847E+03  0.50400000000E-02 0. -1.
    5000001    1    1    2    0    0  0.19884586371E+03 -0.41960589946E+02  0.23838896277E+03  0.35405460906E+03  0.16500000000E+03 0.  0.
   -5000001    1    1    2    0    0 -0.19884586371E+03  0.41960589946E+02  0.13256671679E+03  0.29342682738E+03  0.16500000000E+03 0.  0.
<mgrwt>
<rscale>  0 0.53068267E+03</rscale>
<asrwt>0</asrwt>
<pdfrwt beam="1">  1        1 0.78341317E-01 0.53068267E+03</pdfrwt>
<pdfrwt beam="2">  1       -1 0.21271212E-01 0.53068267E+03</pdfrwt>
<totfact> 0.80186893E+02</totfact>
</mgrwt>
</event>
<event>
 4    1  0.2228009E-005  0.4597945E+03  0.7818608E-02  0.1024841E+00
          1   -1    0    0  501    0  0.00000000000E+00  0.00000000000E+00  0.87450373799E+03  0.87450373801E+03  0.50400000000E-02 0.  1.
         -1   -1    0    0    0  501 -0.00000000000E+00 -0.00000000000E+00 -0.60437406749E+02  0.60437406959E+02  0.50400000000E-02 0. -1.
    5000001    1    1    2    0    0  0.15044421808E+03  0.49426625098E+02  0.35929031974E+03  0.42590020883E+03  0.16500000000E+03 0.  0.
   -5000001    1    1    2    0    0 -0.15044421808E+03 -0.49426625098E+02  0.45477601150E+03  0.50904093613E+03  0.16500000000E+03 0.  0.
<mgrwt>
<rscale>  0 0.45979447E+03</rscale>
<asrwt>0</asrwt>
<pdfrwt beam="1">  1        1 0.13453904E+00 0.45979447E+03</pdfrwt>
<pdfrwt beam="2">  1       -1 0.92980627E-02 0.45979447E+03</pdfrwt>
<totfact> 0.13647760E+03</totfact>
</mgrwt>
</event>
<event>
 4    1  0.2228009E-005  0.1102715E+04  0.7818608E-02  0.9202549E-01
          1   -1    0    0  501    0  0.00000000000E+00  0.00000000000E+00  0.14128258811E+04  0.14128258811E+04  0.50400000000E-02 0.  1.
         -1   -1    0    0    0  501 -0.00000000000E+00 -0.00000000000E+00 -0.21516828874E+03  0.21516828880E+03  0.50400000000E-02 0. -1.
    5000001    1    1    2    0    0 -0.48446663965E+03  0.11348558510E+02  0.90115134077E+03  0.10364050626E+04  0.16500000000E+03 0.  0.
   -5000001    1    1    2    0    0  0.48446663965E+03 -0.11348558510E+02  0.29650625162E+03  0.59158910738E+03  0.16500000000E+03 0.  0.
<mgrwt>
<rscale>  0 0.11027154E+04</rscale>
<asrwt>0</asrwt>
<pdfrwt beam="1">  1        1 0.21735782E+00 0.11027154E+04</pdfrwt>
<pdfrwt beam="2">  1       -1 0.33102815E-01 0.11027154E+04</pdfrwt>
<totfact> 0.64242587E+01</totfact>
</mgrwt>
</event>
<event>
 4    1  0.2228009E-005  0.4966884E+03  0.7818608E-02  0.1014647E+00
         -1   -1    0    0    0  501 -0.00000000000E+00  0.00000000000E+00  0.21915591653E+03  0.21915591659E+03  0.50400000000E-02 0.  1.
          1   -1    0    0  501    0  0.00000000000E+00 -0.00000000000E+00 -0.28141997910E+03  0.28141997915E+03  0.50400000000E-02 0. -1.
    5000001    1    1    2    0    0  0.12954380260E+03  0.12813592074E+03 -0.66756140343E+02  0.25471904768E+03  0.16500000000E+03 0.  0.
   -5000001    1    1    2    0    0 -0.12954380260E+03 -0.12813592074E+03  0.44920777701E+01  0.24585684806E+03  0.16500000000E+03 0.  0.
<mgrwt>
<rscale>  0 0.49668845E+03</rscale>
<asrwt>0</asrwt>
<pdfrwt beam="1">  1        1 0.43295382E-01 0.49668845E+03</pdfrwt>
<pdfrwt beam="2">  1       -1 0.33716295E-01 0.49668845E+03</pdfrwt>
<totfact> 0.79511426E+02</totfact>
</mgrwt>
</event>
<event>
 4    1  0.2228009E-005  0.1474230E+04  0.7818608E-02  0.8901773E-01
         -1   -1    0    0    0  501 -0.00000000000E+00  0.00000000000E+00  0.11123706780E+04  0.11123706781E+04  0.50400000000E-02 0.  1.
          1   -1    0    0  501    0  0.00000000000E+00 -0.00000000000E+00 -0.48845125852E+03  0.48845125854E+03  0.50400000000E-02 0. -1.
    5000001    1    1    2    0    0 -0.42790713587E+03  0.55409403678E+03  0.48701433725E+03  0.86863840763E+03  0.16500000000E+03 0.  0.
   -5000001    1    1    2    0    0  0.42790713587E+03 -0.55409403678E+03  0.13690508228E+03  0.73218352896E+03  0.16500000000E+03 0.  0.
<mgrwt>
<rscale>  0 0.14742305E+04</rscale>
<asrwt>0</asrwt>
<pdfrwt beam="1">  1        1 0.75146349E-01 0.14742305E+04</pdfrwt>
<pdfrwt beam="2">  1       -1 0.17113395E+00 0.14742305E+04</pdfrwt>
<totfact> 0.10709967E+01</totfact>
</mgrwt>
</event>
<event>
 4    1  0.2228009E-005  0.3826582E+03  0.7818608E-02  0.1049956E+00
         -1   -1    0    0    0  501 -0.00000000000E+00  0.00000000000E+00  0.23847801402E+02  0.23847801934E+02  0.50400000000E-02 0. -1.
          1   -1    0    0  501    0  0.00000000000E+00 -0.00000000000E+00 -0.15350192208E+04  0.15350192208E+04  0.50400000000E-02 0.  1.
    5000001    1    1    2    0    0  0.87156278097E+02  0.38210944621E+02 -0.82908797671E+03  0.85068687907E+03  0.16500000000E+03 0.  0.
   -5000001    1    1    2    0    0 -0.87156278097E+02 -0.38210944621E+02 -0.68208344270E+03  0.70818014368E+03  0.16500000000E+03 0.  0.
<mgrwt>
<rscale>  0 0.38265825E+03</rscale>
<asrwt>0</asrwt>
<pdfrwt beam="1">  1        1 0.23615673E+00 0.38265825E+03</pdfrwt>
<pdfrwt beam="2">  1       -1 0.36688938E-02 0.38265825E+03</pdfrwt>
<totfact> 0.18933969E+03</totfact>
</mgrwt>
</event>
<event>
 4    1  0.2228009E-005  0.3550028E+03  0.7818608E-02  0.1060580E+00
         -1   -1    0    0    0  501 -0.00000000000E+00  0.00000000000E+00  0.18448524518E+03  0.18448524525E+03  0.50400000000E-02 0.  1.
          1   -1    0    0  501    0  0.00000000000E+00 -0.00000000000E+00 -0.17078197496E+03  0.17078197504E+03  0.50400000000E-02 0. -1.
    5000001    1    1    2    0    0  0.99437198879E+01 -0.40909408424E+02 -0.43278556655E+02  0.17570000207E+03  0.16500000000E+03 0.  0.
   -5000001    1    1    2    0    0 -0.99437198879E+01  0.40909408424E+02  0.56981826872E+02  0.17956721821E+03  0.16500000000E+03 0.  0.
<mgrwt>
<rscale>  0 0.35500284E+03</rscale>
<asrwt>0</asrwt>
<pdfrwt beam="1">  1        1 0.26274150E-01 0.35500284E+03</pdfrwt>
<pdfrwt beam="2">  1       -1 0.28382345E-01 0.35500284E+03</pdfrwt>
<totfact> 0.20238014E+03</totfact>
</mgrwt>
</event>
<event>
 4    1  0.2228009E-005  0.5628673E+03  0.7818608E-02  0.9985588E-01
         -1   -1    0    0    0  501 -0.00000000000E+00  0.00000000000E+00  0.59256118106E+02  0.59256118320E+02  0.50400000000E-02 0. -1.
          1   -1    0    0  501    0  0.00000000000E+00 -0.00000000000E+00 -0.13366536429E+04  0.13366536429E+04  0.50400000000E-02 0.  1.
    5000001    1    1    2    0    0  0.17738309417E+03 -0.14276648100E+03 -0.66728616712E+03  0.72411522496E+03  0.16500000000E+03 0.  0.
   -5000001    1    1    2    0    0 -0.17738309417E+03  0.14276648100E+03 -0.61011135768E+03  0.67179453627E+03  0.16500000000E+03 0.  0.
<mgrwt>
<rscale>  0 0.56286732E+03</rscale>
<asrwt>0</asrwt>
<pdfrwt beam="1">  1        1 0.20563900E+00 0.56286732E+03</pdfrwt>
<pdfrwt beam="2">  1       -1 0.91163269E-02 0.56286732E+03</pdfrwt>
<totfact> 0.63657241E+02</totfact>
</mgrwt>
</event>
<event>
 4    1  0.2228009E-005  0.4457834E+03  0.7818608E-02  0.1028987E+00
          1   -1    0    0  501    0  0.00000000000E+00  0.00000000000E+00  0.60930526017E+03  0.60930526019E+03  0.50400000000E-02 0. -1.
         -1   -1    0    0    0  501 -0.00000000000E+00 -0.00000000000E+00 -0.81536641299E+02  0.81536641455E+02  0.50400000000E-02 0.  1.
    5000001    1    1    2    0    0 -0.85132310994E+02  0.96597849017E+02  0.14507937368E+03  0.25465992908E+03  0.16500000000E+03 0.  0.
   -5000001    1    1    2    0    0  0.85132310994E+02 -0.96597849017E+02  0.38268924519E+03  0.43618197257E+03  0.16500000000E+03 0.  0.
<mgrwt>
<rscale>  0 0.44578338E+03</rscale>
<asrwt>0</asrwt>
<pdfrwt beam="1">  1        1 0.93739268E-01 0.44578338E+03</pdfrwt>
<pdfrwt beam="2">  1       -1 0.12544099E-01 0.44578338E+03</pdfrwt>
<totfact> 0.14739117E+03</totfact>
</mgrwt>
</event>
