<event>
 4    1  0.6148427E-004  0.6175153E+03  0.7818608E-02  0.9869719E-01
          2   -1    0    0  501    0  0.00000000000E+00  0.00000000000E+00  0.23741454141E+04  0.23741454141E+04  0.25500000000E-02 0. -1.
         -2   -1    0    0    0  501 -0.00000000000E+00 -0.00000000000E+00 -0.40153941303E+02  0.40153941384E+02  0.25500000000E-02 0.  1.
    5000001    1    1    2    0    0  0.29133241368E+03  0.32523423333E+02  0.93668996613E+03  0.98450466782E+03  0.77000000000E+02 0.  0.
   -5000001    1    1    2    0    0 -0.29133241368E+03 -0.32523423333E+02  0.13973015067E+04  0.14297946876E+04  0.77000000000E+02 0.  0.
<mgrwt>
<rscale>  0 0.61751533E+03</rscale>
<asrwt>0</asrwt>
<pdfrwt beam="1">  1        2 0.36525320E+00 0.61751533E+03</pdfrwt>
<pdfrwt beam="2">  1       -2 0.61775284E-02 0.61751533E+03</pdfrwt>
<totfact> 0.63750673E+02</totfact>
</mgrwt>
</event>
<event>
 4    1  0.6148427E-004  0.3349825E+03  0.7818608E-02  0.1068953E+00
          2   -1    0    0  501    0  0.00000000000E+00  0.00000000000E+00  0.83275785264E+02  0.83275785303E+02  0.25500000000E-02 0.  1.
         -2   -1    0    0    0  501 -0.00000000000E+00 -0.00000000000E+00 -0.33687238824E+03  0.33687238825E+03  0.25500000000E-02 0. -1.
    5000001    1    1    2    0    0  0.10048307864E+02 -0.12043652894E+03 -0.23555167494E+03  0.27571637158E+03  0.77000000000E+02 0.  0.
   -5000001    1    1    2    0    0 -0.10048307864E+02  0.12043652894E+03 -0.18044928043E+02  0.14443180197E+03  0.77000000000E+02 0.  0.
<mgrwt>
<rscale>  0 0.33498246E+03</rscale>
<asrwt>0</asrwt>
<pdfrwt beam="1">  1        2 0.12811660E-01 0.33498246E+03</pdfrwt>
<pdfrwt beam="2">  1       -2 0.51826520E-01 0.33498246E+03</pdfrwt>
<totfact> 0.16919504E+03</totfact>
</mgrwt>
</event>
<event>
 4    1  0.6148427E-004  0.2362294E+03  0.7818608E-02  0.1122330E+00
          2   -1    0    0  501    0  0.00000000000E+00  0.00000000000E+00  0.90495366423E+03  0.90495366424E+03  0.25500000000E-02 0.  1.
         -2   -1    0    0    0  501 -0.00000000000E+00 -0.00000000000E+00 -0.15416354250E+02  0.15416354461E+02  0.25500000000E-02 0. -1.
    5000001    1    1    2    0    0  0.46790515696E+02  0.27901599649E+02  0.16778371404E+03  0.19247915814E+03  0.77000000000E+02 0.  0.
   -5000001    1    1    2    0    0 -0.46790515696E+02 -0.27901599649E+02  0.72175359595E+03  0.72789086056E+03  0.77000000000E+02 0.  0.
<mgrwt>
<rscale>  0 0.23622943E+03</rscale>
<asrwt>0</asrwt>
<pdfrwt beam="1">  1        2 0.13922365E+00 0.23622943E+03</pdfrwt>
<pdfrwt beam="2">  1       -2 0.23717467E-02 0.23622943E+03</pdfrwt>
<totfact> 0.17912766E+04</totfact>
</mgrwt>
</event>
<event>
 4    1  0.6148427E-004  0.4437077E+03  0.7818608E-02  0.1029615E+00
         -2   -1    0    0    0  501 -0.00000000000E+00  0.00000000000E+00  0.32369607862E+02  0.32369607963E+02  0.25500000000E-02 0. -1.
          2   -1    0    0  501    0  0.00000000000E+00 -0.00000000000E+00 -0.15205354558E+04  0.15205354558E+04  0.25500000000E-02 0.  1.
    5000001    1    1    2    0    0 -0.14933863849E+03  0.36199188641E+02 -0.12350307862E+04  0.12469332192E+04  0.77000000000E+02 0.  0.
   -5000001    1    1    2    0    0  0.14933863849E+03 -0.36199188641E+02 -0.25313506173E+03  0.30597184459E+03  0.77000000000E+02 0.  0.
<mgrwt>
<rscale>  0 0.44370773E+03</rscale>
<asrwt>0</asrwt>
<pdfrwt beam="1">  1        2 0.23392848E+00 0.44370773E+03</pdfrwt>
<pdfrwt beam="2">  1       -2 0.49799408E-02 0.44370773E+03</pdfrwt>
<totfact> 0.26151551E+03</totfact>
</mgrwt>
</event>
<event>
 4    1  0.6148427E-004  0.2864208E+03  0.7818608E-02  0.1092233E+00
         -2   -1    0    0    0  501 -0.00000000000E+00  0.00000000000E+00  0.15188564253E+02  0.15188564467E+02  0.25500000000E-02 0. -1.
          2   -1    0    0  501    0  0.00000000000E+00 -0.00000000000E+00 -0.13503068038E+04  0.13503068038E+04  0.25500000000E-02 0.  1.
    5000001    1    1    2    0    0  0.95956348815E+02 -0.35393961637E+02 -0.97356326996E+03  0.98194439456E+03  0.77000000000E+02 0.  0.
   -5000001    1    1    2    0    0 -0.95956348815E+02  0.35393961637E+02 -0.36155496958E+03  0.38355097370E+03  0.77000000000E+02 0.  0.
<mgrwt>
<rscale>  0 0.28642082E+03</rscale>
<asrwt>0</asrwt>
<pdfrwt beam="1">  1        2 0.20773941E+00 0.28642082E+03</pdfrwt>
<pdfrwt beam="2">  1       -2 0.23367033E-02 0.28642082E+03</pdfrwt>
<totfact> 0.10114327E+04</totfact>
</mgrwt>
</event>
<event>
 4    1  0.6148427E-004  0.2542818E+03  0.7818608E-02  0.1110628E+00
         -2   -1    0    0    0  501 -0.00000000000E+00  0.00000000000E+00  0.15707796390E+02  0.15707796597E+02  0.25500000000E-02 0. -1.
          2   -1    0    0  501    0  0.00000000000E+00 -0.00000000000E+00 -0.10290949241E+04  0.10290949241E+04  0.25500000000E-02 0.  1.
    5000001    1    1    2    0    0  0.52407442665E+02  0.74780921195E+02 -0.68565630386E+03  0.69598296907E+03  0.77000000000E+02 0.  0.
   -5000001    1    1    2    0    0 -0.52407442665E+02 -0.74780921195E+02 -0.32773082384E+03  0.34881975161E+03  0.77000000000E+02 0.  0.
<mgrwt>
<rscale>  0 0.25428184E+03</rscale>
<asrwt>0</asrwt>
<pdfrwt beam="1">  1        2 0.15832224E+00 0.25428184E+03</pdfrwt>
<pdfrwt beam="2">  1       -2 0.24165849E-02 0.25428184E+03</pdfrwt>
<totfact> 0.14638188E+04</totfact>
</mgrwt>
</event>
<event>
 4    1  0.6148427E-004  0.2804559E+03  0.7818608E-02  0.1095440E+00
         -2   -1    0    0    0  501 -0.00000000000E+00  0.00000000000E+00  0.12728031965E+02  0.12728032220E+02  0.25500000000E-02 0. -1.
          2   -1    0    0  501    0  0.00000000000E+00 -0.00000000000E+00 -0.15449271847E+04  0.15449271847E+04  0.25500000000E-02 0.  1.
    5000001    1    1    2    0    0  0.21622335343E+02 -0.10691863991E+03 -0.52813359890E+03  0.54475060278E+03  0.77000000000E+02 0.  0.
   -5000001    1    1    2    0    0 -0.21622335343E+02  0.10691863991E+03 -0.10040655539E+04  0.10129046142E+04  0.77000000000E+02 0.  0.
<mgrwt>
<rscale>  0 0.28045593E+03</rscale>
<asrwt>0</asrwt>
<pdfrwt beam="1">  1        2 0.23768096E+00 0.28045593E+03</pdfrwt>
<pdfrwt beam="2">  1       -2 0.19581600E-02 0.28045593E+03</pdfrwt>
<totfact> 0.10300543E+04</totfact>
</mgrwt>
</event>
<event>
 4    1  0.6148427E-004  0.1911154E+03  0.7818608E-02  0.1157459E+00
          2   -1    0    0  501    0  0.00000000000E+00  0.00000000000E+00  0.20454188059E+02  0.20454188218E+02  0.25500000000E-02 0.  1.
         -2   -1    0    0    0  501 -0.00000000000E+00 -0.00000000000E+00 -0.44642567454E+03  0.44642567455E+03  0.25500000000E-02 0. -1.
    5000001    1    1    2    0    0  0.28032884748E+02 -0.11573301296E+02 -0.32969732655E+03  0.33992515509E+03  0.77000000000E+02 0.  0.
   -5000001    1    1    2    0    0 -0.28032884748E+02  0.11573301296E+02 -0.96274159936E+02  0.12695470768E+03  0.77000000000E+02 0.  0.
<mgrwt>
<rscale>  0 0.19111541E+03</rscale>
<asrwt>0</asrwt>
<pdfrwt beam="1">  1        2 0.31467985E-02 0.19111541E+03</pdfrwt>
<pdfrwt beam="2">  1       -2 0.68680866E-01 0.19111541E+03</pdfrwt>
<totfact> 0.56693458E+03</totfact>
</mgrwt>
</event>
<event>
 4    1  0.6148427E-004  0.1820846E+03  0.7818608E-02  0.1165801E+00
          2   -1    0    0  501    0  0.00000000000E+00  0.00000000000E+00  0.10797554322E+04  0.10797554322E+04  0.25500000000E-02 0.  1.
         -2   -1    0    0    0  501 -0.00000000000E+00 -0.00000000000E+00 -0.76764571899E+01  0.76764576134E+01  0.25500000000E-02 0. -1.
    5000001    1    1    2    0    0  0.38989753469E+02  0.28955746273E+02  0.54218951620E+03  0.54977914438E+03  0.77000000000E+02 0.  0.
   -5000001    1    1    2    0    0 -0.38989753469E+02 -0.28955746273E+02  0.52988945883E+03  0.53765274546E+03  0.77000000000E+02 0.  0.
<mgrwt>
<rscale>  0 0.18208456E+03</rscale>
<asrwt>0</asrwt>
<pdfrwt beam="1">  1        2 0.16611626E+00 0.18208456E+03</pdfrwt>
<pdfrwt beam="2">  1       -2 0.11809932E-02 0.18208456E+03</pdfrwt>
<totfact> 0.38096463E+04</totfact>
</mgrwt>
</event>
<event>
 4    1  0.6148427E-004  0.3703743E+03  0.7818608E-02  0.1054550E+00
         -2   -1    0    0    0  501 -0.00000000000E+00  0.00000000000E+00  0.42172733177E+02  0.42172733254E+02  0.25500000000E-02 0. -1.
          2   -1    0    0  501    0  0.00000000000E+00 -0.00000000000E+00 -0.81318592547E+03  0.81318592548E+03  0.25500000000E-02 0.  1.
    5000001    1    1    2    0    0 -0.32234234775E+02  0.15212215421E+03 -0.23610363452E+03  0.29300874036E+03  0.77000000000E+02 0.  0.
   -5000001    1    1    2    0    0  0.32234234775E+02 -0.15212215421E+03 -0.53490955777E+03  0.56234991837E+03  0.77000000000E+02 0.  0.
<mgrwt>
<rscale>  0 0.37037426E+03</rscale>
<asrwt>0</asrwt>
<pdfrwt beam="1">  1        2 0.12510552E+00 0.37037426E+03</pdfrwt>
<pdfrwt beam="2">  1       -2 0.64881134E-02 0.37037426E+03</pdfrwt>
<totfact> 0.45770512E+03</totfact>
</mgrwt>
</event>
<event>
 4    1  0.6148427E-004  0.1742331E+03  0.7818608E-02  0.1173504E+00
         -2   -1    0    0    0  501 -0.00000000000E+00  0.00000000000E+00  0.83470890508E+01  0.83470894403E+01  0.25500000000E-02 0. -1.
          2   -1    0    0  501    0  0.00000000000E+00 -0.00000000000E+00 -0.90921481955E+03  0.90921481955E+03  0.25500000000E-02 0.  1.
    5000001    1    1    2    0    0 -0.32454890756E+02 -0.23103619066E+02 -0.49549067402E+03  0.50301799688E+03  0.77000000000E+02 0.  0.
   -5000001    1    1    2    0    0  0.32454890756E+02  0.23103619066E+02 -0.40537705648E+03  0.41454391211E+03  0.77000000000E+02 0.  0.
<mgrwt>
<rscale>  0 0.17423315E+03</rscale>
<asrwt>0</asrwt>
<pdfrwt beam="1">  1        2 0.13987912E+00 0.17423315E+03</pdfrwt>
<pdfrwt beam="2">  1       -2 0.12841683E-02 0.17423315E+03</pdfrwt>
<totfact> 0.42681650E+04</totfact>
</mgrwt>
</event>
<event>
 4    1  0.6148427E-004  0.3243453E+03  0.7818608E-02  0.1073667E+00
          2   -1    0    0  501    0  0.00000000000E+00  0.00000000000E+00  0.37983580508E+03  0.37983580509E+03  0.25500000000E-02 0.  1.
         -2   -1    0    0    0  501 -0.00000000000E+00 -0.00000000000E+00 -0.69240345591E+02  0.69240345638E+02  0.25500000000E-02 0. -1.
    5000001    1    1    2    0    0 -0.73619888275E+02 -0.12220841159E+03  0.14972865482E+03  0.22068632465E+03  0.77000000000E+02 0.  0.
   -5000001    1    1    2    0    0  0.73619888275E+02  0.12220841159E+03  0.16086680467E+03  0.22838982608E+03  0.77000000000E+02 0.  0.
<mgrwt>
<rscale>  0 0.32434526E+03</rscale>
<asrwt>0</asrwt>
<pdfrwt beam="1">  1        2 0.58436278E-01 0.32434526E+03</pdfrwt>
<pdfrwt beam="2">  1       -2 0.10652361E-01 0.32434526E+03</pdfrwt>
<totfact> 0.50710575E+03</totfact>
</mgrwt>
</event>
<event>
 4    1  0.6148427E-004  0.1941256E+03  0.7818608E-02  0.1154792E+00
          2   -1    0    0  501    0  0.00000000000E+00  0.00000000000E+00  0.75239870830E+03  0.75239870830E+03  0.25500000000E-02 0.  1.
         -2   -1    0    0    0  501 -0.00000000000E+00 -0.00000000000E+00 -0.12521538728E+02  0.12521538987E+02  0.25500000000E-02 0. -1.
    5000001    1    1    2    0    0 -0.15085593552E+02  0.32974319023E+02  0.18607602453E+03  0.20461712478E+03  0.77000000000E+02 0.  0.
   -5000001    1    1    2    0    0  0.15085593552E+02 -0.32974319023E+02  0.55380114503E+03  0.56030312250E+03  0.77000000000E+02 0.  0.
<mgrwt>
<rscale>  0 0.19412563E+03</rscale>
<asrwt>0</asrwt>
<pdfrwt beam="1">  1        2 0.11575363E+00 0.19412563E+03</pdfrwt>
<pdfrwt beam="2">  1       -2 0.19263909E-02 0.19412563E+03</pdfrwt>
<totfact> 0.30414477E+04</totfact>
</mgrwt>
</event>
<event>
 4    1  0.6148427E-004  0.1762893E+03  0.7818608E-02  0.1171443E+00
         -2   -1    0    0    0  501 -0.00000000000E+00  0.00000000000E+00  0.30361963741E+03  0.30361963742E+03  0.25500000000E-02 0. -1.
          2   -1    0    0  501    0  0.00000000000E+00 -0.00000000000E+00 -0.25589507481E+02  0.25589507608E+02  0.25500000000E-02 0.  1.
    5000001    1    1    2    0    0 -0.35023116400E+02  0.16615971062E+02  0.10469444349E+03  0.13561945168E+03  0.77000000000E+02 0.  0.
   -5000001    1    1    2    0    0  0.35023116400E+02 -0.16615971062E+02  0.17333568644E+03  0.19358969335E+03  0.77000000000E+02 0.  0.
<mgrwt>
<rscale>  0 0.17628927E+03</rscale>
<asrwt>0</asrwt>
<pdfrwt beam="1">  1        2 0.39368473E-02 0.17628927E+03</pdfrwt>
<pdfrwt beam="2">  1       -2 0.46710714E-01 0.17628927E+03</pdfrwt>
<totfact> 0.91542241E+03</totfact>
</mgrwt>
</event>
<event>
 4    1  0.6148427E-004  0.2044997E+03  0.7818608E-02  0.1145997E+00
          2   -1    0    0  501    0  0.00000000000E+00  0.00000000000E+00  0.21976882228E+03  0.21976882229E+03  0.25500000000E-02 0.  1.
         -2   -1    0    0    0  501 -0.00000000000E+00 -0.00000000000E+00 -0.47572848448E+02  0.47572848517E+02  0.25500000000E-02 0. -1.
    5000001    1    1    2    0    0 -0.33997598095E+02 -0.42358887989E+02  0.13799479997E+03  0.16709780635E+03  0.77000000000E+02 0.  0.
   -5000001    1    1    2    0    0  0.33997598095E+02  0.42358887989E+02  0.34201173854E+02  0.10024386446E+03  0.77000000000E+02 0.  0.
<mgrwt>
<rscale>  0 0.20449967E+03</rscale>
<asrwt>0</asrwt>
<pdfrwt beam="1">  1        2 0.33810587E-01 0.20449967E+03</pdfrwt>
<pdfrwt beam="2">  1       -2 0.73189000E-02 0.20449967E+03</pdfrwt>
<totfact> 0.16170144E+04</totfact>
</mgrwt>
</event>
<event>
 4    1  0.6148427E-004  0.2477709E+03  0.7818608E-02  0.1114722E+00
          2   -1    0    0  501    0  0.00000000000E+00  0.00000000000E+00  0.71408249705E+03  0.71408249705E+03  0.25500000000E-02 0.  1.
         -2   -1    0    0    0  501 -0.00000000000E+00 -0.00000000000E+00 -0.21492754791E+02  0.21492754943E+02  0.25500000000E-02 0. -1.
    5000001    1    1    2    0    0  0.60331080149E+02  0.67455543968E+02  0.45035067280E+03  0.46576261994E+03  0.77000000000E+02 0.  0.
   -5000001    1    1    2    0    0 -0.60331080149E+02 -0.67455543968E+02  0.24223906945E+03  0.26981263205E+03  0.77000000000E+02 0.  0.
<mgrwt>
<rscale>  0 0.24777086E+03</rscale>
<asrwt>0</asrwt>
<pdfrwt beam="1">  1        2 0.10985885E+00 0.24777086E+03</pdfrwt>
<pdfrwt beam="2">  1       -2 0.33065774E-02 0.24777086E+03</pdfrwt>
<totfact> 0.14833295E+04</totfact>
</mgrwt>
</event>
<event>
 4    1  0.6148427E-004  0.2785527E+03  0.7818608E-02  0.1096482E+00
         -2   -1    0    0    0  501 -0.00000000000E+00  0.00000000000E+00  0.23092941107E+02  0.23092941248E+02  0.25500000000E-02 0. -1.
          2   -1    0    0  501    0  0.00000000000E+00 -0.00000000000E+00 -0.83999274022E+03  0.83999274022E+03  0.25500000000E-02 0.  1.
    5000001    1    1    2    0    0  0.54709376207E+02 -0.78859917182E+02 -0.20629080781E+03  0.24020178969E+03  0.77000000000E+02 0.  0.
   -5000001    1    1    2    0    0 -0.54709376207E+02  0.78859917182E+02 -0.61060899129E+03  0.62288389178E+03  0.77000000000E+02 0.  0.
<mgrwt>
<rscale>  0 0.27855271E+03</rscale>
<asrwt>0</asrwt>
<pdfrwt beam="1">  1        2 0.12922963E+00 0.27855271E+03</pdfrwt>
<pdfrwt beam="2">  1       -2 0.35527608E-02 0.27855271E+03</pdfrwt>
<totfact> 0.10915948E+04</totfact>
</mgrwt>
</event>
<event>
 4    1  0.6148427E-004  0.2005857E+03  0.7818608E-02  0.1149246E+00
          2   -1    0    0  501    0  0.00000000000E+00  0.00000000000E+00  0.17488167351E+04  0.17488167351E+04  0.25500000000E-02 0.  1.
         -2   -1    0    0    0  501 -0.00000000000E+00 -0.00000000000E+00 -0.57516936643E+01  0.57516942296E+01  0.25500000000E-02 0. -1.
    5000001    1    1    2    0    0 -0.23075984941E+01  0.40371665087E+02  0.13084090878E+04  0.13112965101E+04  0.77000000000E+02 0.  0.
   -5000001    1    1    2    0    0  0.23075984941E+01 -0.40371665087E+02  0.43465595370E+03  0.44327191930E+03  0.77000000000E+02 0.  0.
<mgrwt>
<rscale>  0 0.20058573E+03</rscale>
<asrwt>0</asrwt>
<pdfrwt beam="1">  1        2 0.26904890E+00 0.20058573E+03</pdfrwt>
<pdfrwt beam="2">  1       -2 0.88487543E-03 0.20058573E+03</pdfrwt>
<totfact> 0.25275696E+04</totfact>
</mgrwt>
</event>
<event>
 4    1  0.6148427E-004  0.3012660E+03  0.7818608E-02  0.1084609E+00
          2   -1    0    0  501    0  0.00000000000E+00  0.00000000000E+00  0.12690290046E+04  0.12690290046E+04  0.25500000000E-02 0.  1.
         -2   -1    0    0    0  501 -0.00000000000E+00 -0.00000000000E+00 -0.17880050004E+02  0.17880050186E+02  0.25500000000E-02 0. -1.
    5000001    1    1    2    0    0  0.80213827116E+02 -0.10124338794E+03  0.66301451963E+03  0.67985420121E+03  0.77000000000E+02 0.  0.
   -5000001    1    1    2    0    0 -0.80213827116E+02  0.10124338794E+03  0.58813443498E+03  0.60705485359E+03  0.77000000000E+02 0.  0.
<mgrwt>
<rscale>  0 0.30126601E+03</rscale>
<asrwt>0</asrwt>
<pdfrwt beam="1">  1        2 0.19523527E+00 0.30126601E+03</pdfrwt>
<pdfrwt beam="2">  1       -2 0.27507764E-02 0.30126601E+03</pdfrwt>
<totfact> 0.88170890E+03</totfact>
</mgrwt>
</event>
<event>
 4    1  0.6148427E-004  0.3091313E+03  0.7818608E-02  0.1080763E+00
         -2   -1    0    0    0  501 -0.00000000000E+00  0.00000000000E+00  0.12763586518E+03  0.12763586521E+03  0.25500000000E-02 0. -1.
          2   -1    0    0  501    0  0.00000000000E+00 -0.00000000000E+00 -0.18717731086E+03  0.18717731088E+03  0.25500000000E-02 0.  1.
    5000001    1    1    2    0    0  0.58637213130E+02 -0.99943309138E+02  0.38806050656E+02  0.14443648214E+03  0.77000000000E+02 0.  0.
   -5000001    1    1    2    0    0 -0.58637213130E+02  0.99943309138E+02 -0.98347496333E+02  0.17037669395E+03  0.77000000000E+02 0.  0.
<mgrwt>
<rscale>  0 0.30913129E+03</rscale>
<asrwt>0</asrwt>
<pdfrwt beam="1">  1        2 0.28796509E-01 0.30913129E+03</pdfrwt>
<pdfrwt beam="2">  1       -2 0.19636287E-01 0.30913129E+03</pdfrwt>
<totfact> 0.39786617E+03</totfact>
</mgrwt>
</event>
<event>
 4    1  0.6148427E-004  0.2381395E+03  0.7818608E-02  0.1121038E+00
         -2   -1    0    0    0  501 -0.00000000000E+00  0.00000000000E+00  0.21076206100E+02  0.21076206254E+02  0.25500000000E-02 0. -1.
          2   -1    0    0  501    0  0.00000000000E+00 -0.00000000000E+00 -0.67268282298E+03  0.67268282299E+03  0.25500000000E-02 0.  1.
    5000001    1    1    2    0    0 -0.71920390228E+02  0.20287200259E+02 -0.17542533842E+03  0.20563842633E+03  0.77000000000E+02 0.  0.
   -5000001    1    1    2    0    0  0.71920390228E+02 -0.20287200259E+02 -0.47618127846E+03  0.48812060291E+03  0.77000000000E+02 0.  0.
<mgrwt>
<rscale>  0 0.23813947E+03</rscale>
<asrwt>0</asrwt>
<pdfrwt beam="1">  1        2 0.10348965E+00 0.23813947E+03</pdfrwt>
<pdfrwt beam="2">  1       -2 0.32424938E-02 0.23813947E+03</pdfrwt>
<totfact> 0.16380636E+04</totfact>
</mgrwt>
</event>
<event>
 4    1  0.6148427E-004  0.2775921E+03  0.7818608E-02  0.1097011E+00
          2   -1    0    0  501    0  0.00000000000E+00  0.00000000000E+00  0.11703115000E+03  0.11703115003E+03  0.25500000000E-02 0.  1.
         -2   -1    0    0    0  501 -0.00000000000E+00 -0.00000000000E+00 -0.16460870780E+03  0.16460870782E+03  0.25500000000E-02 0. -1.
    5000001    1    1    2    0    0 -0.96564322771E+02  0.16681853859E+02  0.38195379010E+02  0.13034891506E+03  0.77000000000E+02 0.  0.
   -5000001    1    1    2    0    0  0.96564322771E+02 -0.16681853859E+02 -0.85772936811E+02  0.15129094279E+03  0.77000000000E+02 0.  0.
<mgrwt>
<rscale>  0 0.27759212E+03</rscale>
<asrwt>0</asrwt>
<pdfrwt beam="1">  1        2 0.18004792E-01 0.27759212E+03</pdfrwt>
<pdfrwt beam="2">  1       -2 0.25324416E-01 0.27759212E+03</pdfrwt>
<totfact> 0.43355938E+03</totfact>
</mgrwt>
</event>
<event>
 4    1  0.6148427E-004  0.1860626E+03  0.7818608E-02  0.1162061E+00
         -2   -1    0    0    0  501 -0.00000000000E+00  0.00000000000E+00  0.26328806776E+02  0.26328806900E+02  0.25500000000E-02 0. -1.
          2   -1    0    0  501    0  0.00000000000E+00 -0.00000000000E+00 -0.32872072142E+03  0.32872072143E+03  0.25500000000E-02 0.  1.
    5000001    1    1    2    0    0  0.34170191522E+02 -0.30794147481E+02 -0.10406845808E+03  0.13738677329E+03  0.77000000000E+02 0.  0.
   -5000001    1    1    2    0    0 -0.34170191522E+02  0.30794147481E+02 -0.19832345656E+03  0.21766275504E+03  0.77000000000E+02 0.  0.
<mgrwt>
<rscale>  0 0.18606262E+03</rscale>
<asrwt>0</asrwt>
<pdfrwt beam="1">  1        2 0.50572416E-01 0.18606262E+03</pdfrwt>
<pdfrwt beam="2">  1       -2 0.40505859E-02 0.18606262E+03</pdfrwt>
<totfact> 0.25608500E+04</totfact>
</mgrwt>
</event>
<event>
 4    1  0.6148427E-004  0.1907304E+03  0.7818608E-02  0.1157804E+00
         -2   -1    0    0    0  501 -0.00000000000E+00  0.00000000000E+00  0.34700363133E+02  0.34700363226E+02  0.25500000000E-02 0. -1.
          2   -1    0    0  501    0  0.00000000000E+00 -0.00000000000E+00 -0.26208726563E+03  0.26208726565E+03  0.25500000000E-02 0.  1.
    5000001    1    1    2    0    0 -0.73958663709E+01  0.49830033351E+02 -0.74705195986E+02  0.11852256060E+03  0.77000000000E+02 0.  0.
   -5000001    1    1    2    0    0  0.73958663709E+01 -0.49830033351E+02 -0.15268170652E+03  0.17826506828E+03  0.77000000000E+02 0.  0.
<mgrwt>
<rscale>  0 0.19073042E+03</rscale>
<asrwt>0</asrwt>
<pdfrwt beam="1">  1        2 0.40321117E-01 0.19073042E+03</pdfrwt>
<pdfrwt beam="2">  1       -2 0.53385176E-02 0.19073042E+03</pdfrwt>
<totfact> 0.21570060E+04</totfact>
</mgrwt>
</event>
<event>
 4    1  0.6148427E-004  0.2479325E+03  0.7818608E-02  0.1114618E+00
         -2   -1    0    0    0  501 -0.00000000000E+00  0.00000000000E+00  0.65921748202E+02  0.65921748251E+02  0.25500000000E-02 0. -1.
          2   -1    0    0  501    0  0.00000000000E+00 -0.00000000000E+00 -0.23311936690E+03  0.23311936692E+03  0.25500000000E-02 0.  1.
    5000001    1    1    2    0    0  0.94547143744E+02 -0.12843134110E+02 -0.10565921201E+03  0.16185480396E+03  0.77000000000E+02 0.  0.
   -5000001    1    1    2    0    0 -0.94547143744E+02  0.12843134110E+02 -0.61538406694E+02  0.13718631121E+03  0.77000000000E+02 0.  0.
<mgrwt>
<rscale>  0 0.24793254E+03</rscale>
<asrwt>0</asrwt>
<pdfrwt beam="1">  1        2 0.35864517E-01 0.24793254E+03</pdfrwt>
<pdfrwt beam="2">  1       -2 0.10141808E-01 0.24793254E+03</pdfrwt>
<totfact> 0.92035630E+03</totfact>
</mgrwt>
</event>
<event>
 4    1  0.6148427E-004  0.2143485E+03  0.7818608E-02  0.1138168E+00
         -2   -1    0    0    0  501 -0.00000000000E+00  0.00000000000E+00  0.83837230151E+01  0.83837234029E+01  0.25500000000E-02 0. -1.
          2   -1    0    0  501    0  0.00000000000E+00 -0.00000000000E+00 -0.13700732492E+04  0.13700732492E+04  0.25500000000E-02 0.  1.
    5000001    1    1    2    0    0 -0.24688147408E+02 -0.57822563405E+02 -0.93843177859E+03  0.94368223281E+03  0.77000000000E+02 0.  0.
   -5000001    1    1    2    0    0  0.24688147408E+02  0.57822563405E+02 -0.42325774758E+03  0.43477473977E+03  0.77000000000E+02 0.  0.
<mgrwt>
<rscale>  0 0.21434845E+03</rscale>
<asrwt>0</asrwt>
<pdfrwt beam="1">  1        2 0.21078032E+00 0.21434845E+03</pdfrwt>
<pdfrwt beam="2">  1       -2 0.12898047E-02 0.21434845E+03</pdfrwt>
<totfact> 0.23310023E+04</totfact>
</mgrwt>
</event>
<event>
 4    1  0.6148427E-004  0.2613119E+03  0.7818608E-02  0.1106358E+00
         -2   -1    0    0    0  501 -0.00000000000E+00  0.00000000000E+00  0.97307305634E+01  0.97307308975E+01  0.25500000000E-02 0. -1.
          2   -1    0    0  501    0  0.00000000000E+00 -0.00000000000E+00 -0.17543371796E+04  0.17543371796E+04  0.25500000000E-02 0.  1.
    5000001    1    1    2    0    0  0.83105375806E+02  0.53663454687E+02 -0.11208681806E+04  0.11278567055E+04  0.77000000000E+02 0.  0.
   -5000001    1    1    2    0    0 -0.83105375806E+02 -0.53663454687E+02 -0.62373826847E+03  0.63621120503E+03  0.77000000000E+02 0.  0.
<mgrwt>
<rscale>  0 0.26131194E+03</rscale>
<asrwt>0</asrwt>
<pdfrwt beam="1">  1        2 0.26989778E+00 0.26131194E+03</pdfrwt>
<pdfrwt beam="2">  1       -2 0.14970369E-02 0.26131194E+03</pdfrwt>
<totfact> 0.11820175E+04</totfact>
</mgrwt>
</event>
<event>
 4    1  0.6148427E-004  0.3600980E+03  0.7818608E-02  0.1058545E+00
          2   -1    0    0  501    0  0.00000000000E+00  0.00000000000E+00  0.41884927343E+02  0.41884927421E+02  0.25500000000E-02 0.  1.
         -2   -1    0    0    0  501 -0.00000000000E+00 -0.00000000000E+00 -0.77396918667E+03  0.77396918668E+03  0.25500000000E-02 0. -1.
    5000001    1    1    2    0    0  0.72636038791E+02  0.14057197262E+03 -0.27970443296E+03  0.33045429856E+03  0.77000000000E+02 0.  0.
   -5000001    1    1    2    0    0 -0.72636038791E+02 -0.14057197262E+03 -0.45237982637E+03  0.48539981554E+03  0.77000000000E+02 0.  0.
<mgrwt>
<rscale>  0 0.36009800E+03</rscale>
<asrwt>0</asrwt>
<pdfrwt beam="1">  1        2 0.64438356E-02 0.36009800E+03</pdfrwt>
<pdfrwt beam="2">  1       -2 0.11907217E+00 0.36009800E+03</pdfrwt>
<totfact> 0.64016676E+02</totfact>
</mgrwt>
</event>
<event>
 4    1  0.6148427E-004  0.2813202E+03  0.7818608E-02  0.1094970E+00
         -2   -1    0    0    0  501 -0.00000000000E+00  0.00000000000E+00  0.24783108310E+02  0.24783108441E+02  0.25500000000E-02 0. -1.
          2   -1    0    0  501    0  0.00000000000E+00 -0.00000000000E+00 -0.79833667947E+03  0.79833667948E+03  0.25500000000E-02 0.  1.
    5000001    1    1    2    0    0 -0.11521574997E+03  0.18650805007E+02 -0.34204344674E+03  0.36952028500E+03  0.77000000000E+02 0.  0.
   -5000001    1    1    2    0    0  0.11521574997E+03 -0.18650805007E+02 -0.43151012442E+03  0.45359950292E+03  0.77000000000E+02 0.  0.
<mgrwt>
<rscale>  0 0.28132021E+03</rscale>
<asrwt>0</asrwt>
<pdfrwt beam="1">  1        2 0.12282101E+00 0.28132021E+03</pdfrwt>
<pdfrwt beam="2">  1       -2 0.38127865E-02 0.28132021E+03</pdfrwt>
<totfact> 0.10485726E+04</totfact>
</mgrwt>
</event>
<event>
 4    1  0.6148427E-004  0.1858968E+03  0.7818608E-02  0.1162215E+00
          2   -1    0    0  501    0  0.00000000000E+00  0.00000000000E+00  0.23743019870E+04  0.23743019870E+04  0.25500000000E-02 0.  1.
         -2   -1    0    0    0  501 -0.00000000000E+00 -0.00000000000E+00 -0.36387129308E+01  0.36387138243E+01  0.25500000000E-02 0. -1.
    5000001    1    1    2    0    0 -0.50203178778E+02  0.98377500776E+00  0.10094384688E+04  0.10136154839E+04  0.77000000000E+02 0.  0.
   -5000001    1    1    2    0    0  0.50203178778E+02 -0.98377500776E+00  0.13612248053E+04  0.13643252169E+04  0.77000000000E+02 0.  0.
<mgrwt>
<rscale>  0 0.18589679E+03</rscale>
<asrwt>0</asrwt>
<pdfrwt beam="1">  1        2 0.36527734E+00 0.18589679E+03</pdfrwt>
<pdfrwt beam="2">  1       -2 0.55980189E-03 0.18589679E+03</pdfrwt>
<totfact> 0.22889821E+04</totfact>
</mgrwt>
</event>
<event>
 4    1  0.6148427E-004  0.1754983E+03  0.7818608E-02  0.1172232E+00
         -2   -1    0    0    0  501 -0.00000000000E+00  0.00000000000E+00  0.31551979594E+02  0.31551979697E+02  0.25500000000E-02 0. -1.
          2   -1    0    0  501    0  0.00000000000E+00 -0.00000000000E+00 -0.24403901309E+03  0.24403901310E+03  0.25500000000E-02 0.  1.
    5000001    1    1    2    0    0  0.38348622490E+02 -0.17300422562E+02 -0.10467907500E+03  0.13658927561E+03  0.77000000000E+02 0.  0.
   -5000001    1    1    2    0    0 -0.38348622490E+02  0.17300422562E+02 -0.10780795849E+03  0.13900171719E+03  0.77000000000E+02 0.  0.
<mgrwt>
<rscale>  0 0.17549831E+03</rscale>
<asrwt>0</asrwt>
<pdfrwt beam="1">  1        2 0.37544462E-01 0.17549831E+03</pdfrwt>
<pdfrwt beam="2">  1       -2 0.48541509E-02 0.17549831E+03</pdfrwt>
<totfact> 0.26695443E+04</totfact>
</mgrwt>
</event>
<event>
 4    1  0.6148427E-004  0.3795416E+03  0.7818608E-02  0.1051103E+00
          2   -1    0    0  501    0  0.00000000000E+00  0.00000000000E+00  0.54936825768E+02  0.54936825827E+02  0.25500000000E-02 0.  1.
         -2   -1    0    0    0  501 -0.00000000000E+00 -0.00000000000E+00 -0.65553395665E+03  0.65553395666E+03  0.25500000000E-02 0. -1.
    5000001    1    1    2    0    0  0.56921545239E+02 -0.12272403135E+02  0.55368852618E+01  0.96697111071E+02  0.77000000000E+02 0.  0.
   -5000001    1    1    2    0    0 -0.56921545239E+02  0.12272403135E+02 -0.60613401614E+03  0.61377367141E+03  0.77000000000E+02 0.  0.
<mgrwt>
<rscale>  0 0.37954159E+03</rscale>
<asrwt>0</asrwt>
<pdfrwt beam="1">  1        2 0.84518198E-02 0.37954159E+03</pdfrwt>
<pdfrwt beam="2">  1       -2 0.10085137E+00 0.37954159E+03</pdfrwt>
<totfact> 0.67044374E+02</totfact>
</mgrwt>
</event>
<event>
 4    1  0.6148427E-004  0.2607718E+03  0.7818608E-02  0.1106680E+00
          2   -1    0    0  501    0  0.00000000000E+00  0.00000000000E+00  0.32742583938E+04  0.32742583938E+04  0.25500000000E-02 0.  1.
         -2   -1    0    0    0  501 -0.00000000000E+00 -0.00000000000E+00 -0.51921615632E+01  0.51921621893E+01  0.25500000000E-02 0. -1.
    5000001    1    1    2    0    0  0.18107045518E+02  0.10340931095E+03  0.15454932137E+04  0.15509673189E+04  0.77000000000E+02 0.  0.
   -5000001    1    1    2    0    0 -0.18107045518E+02 -0.10340931095E+03  0.17235730186E+04  0.17284832371E+04  0.77000000000E+02 0.  0.
<mgrwt>
<rscale>  0 0.26077177E+03</rscale>
<asrwt>0</asrwt>
<pdfrwt beam="1">  1        2 0.50373167E+00 0.26077177E+03</pdfrwt>
<pdfrwt beam="2">  1       -2 0.79879475E-03 0.26077177E+03</pdfrwt>
<totfact> 0.41933811E+03</totfact>
</mgrwt>
</event>
<event>
 4    1  0.6148427E-004  0.1887903E+03  0.7818608E-02  0.1159557E+00
         -2   -1    0    0    0  501 -0.00000000000E+00  0.00000000000E+00  0.23720924167E+02  0.23720924304E+02  0.25500000000E-02 0. -1.
          2   -1    0    0  501    0  0.00000000000E+00 -0.00000000000E+00 -0.37563634459E+03  0.37563634460E+03  0.25500000000E-02 0.  1.
    5000001    1    1    2    0    0  0.33176813901E+02  0.26171097860E+02 -0.10280780025E+03  0.13521860499E+03  0.77000000000E+02 0.  0.
   -5000001    1    1    2    0    0 -0.33176813901E+02 -0.26171097860E+02 -0.24910762017E+03  0.26413866391E+03  0.77000000000E+02 0.  0.
<mgrwt>
<rscale>  0 0.18879027E+03</rscale>
<asrwt>0</asrwt>
<pdfrwt beam="1">  1        2 0.57790203E-01 0.18879027E+03</pdfrwt>
<pdfrwt beam="2">  1       -2 0.36493732E-02 0.18879027E+03</pdfrwt>
<totfact> 0.25968311E+04</totfact>
</mgrwt>
</event>
<event>
 4    1  0.6148427E-004  0.3084154E+03  0.7818608E-02  0.1081108E+00
          2   -1    0    0  501    0  0.00000000000E+00  0.00000000000E+00  0.79953072674E+03  0.79953072674E+03  0.25500000000E-02 0.  1.
         -2   -1    0    0    0  501 -0.00000000000E+00 -0.00000000000E+00 -0.29742466844E+02  0.29742466954E+02  0.25500000000E-02 0. -1.
    5000001    1    1    2    0    0 -0.10708674365E+03  0.60887143202E+02  0.52399214981E+03  0.54375691989E+03  0.77000000000E+02 0.  0.
   -5000001    1    1    2    0    0  0.10708674365E+03 -0.60887143202E+02  0.24579611009E+03  0.28551627380E+03  0.77000000000E+02 0.  0.
<mgrwt>
<rscale>  0 0.30841541E+03</rscale>
<asrwt>0</asrwt>
<pdfrwt beam="1">  1        2 0.12300472E+00 0.30841541E+03</pdfrwt>
<pdfrwt beam="2">  1       -2 0.45757644E-02 0.30841541E+03</pdfrwt>
<totfact> 0.79671121E+03</totfact>
</mgrwt>
</event>
<event>
 4    1  0.6148427E-004  0.2150963E+03  0.7818608E-02  0.1137593E+00
          2   -1    0    0  501    0  0.00000000000E+00  0.00000000000E+00  0.31898228474E+02  0.31898228575E+02  0.25500000000E-02 0.  1.
         -2   -1    0    0    0  501 -0.00000000000E+00 -0.00000000000E+00 -0.36260960899E+03  0.36260960899E+03  0.25500000000E-02 0. -1.
    5000001    1    1    2    0    0 -0.70969042483E+02 -0.15441501255E+02 -0.13043263891E+03  0.16797832671E+03  0.77000000000E+02 0.  0.
   -5000001    1    1    2    0    0  0.70969042483E+02  0.15441501255E+02 -0.20027874160E+03  0.22652951086E+03  0.77000000000E+02 0.  0.
<mgrwt>
<rscale>  0 0.21509630E+03</rscale>
<asrwt>0</asrwt>
<pdfrwt beam="1">  1        2 0.49074200E-02 0.21509630E+03</pdfrwt>
<pdfrwt beam="2">  1       -2 0.55786091E-01 0.21509630E+03</pdfrwt>
<totfact> 0.48605567E+03</totfact>
</mgrwt>
</event>
<event>
 4    1  0.6148427E-004  0.1709964E+03  0.7818608E-02  0.1176813E+00
         -2   -1    0    0    0  501 -0.00000000000E+00  0.00000000000E+00  0.21028679818E+02  0.21028679973E+02  0.25500000000E-02 0. -1.
          2   -1    0    0  501    0  0.00000000000E+00 -0.00000000000E+00 -0.34761788445E+03  0.34761788446E+03  0.25500000000E-02 0.  1.
    5000001    1    1    2    0    0  0.14010906105E+02  0.33865235070E+02 -0.15004245636E+03  0.17258301871E+03  0.77000000000E+02 0.  0.
   -5000001    1    1    2    0    0 -0.14010906105E+02 -0.33865235070E+02 -0.17654674827E+03  0.19606354572E+03  0.77000000000E+02 0.  0.
<mgrwt>
<rscale>  0 0.17099644E+03</rscale>
<asrwt>0</asrwt>
<pdfrwt beam="1">  1        2 0.53479670E-01 0.17099644E+03</pdfrwt>
<pdfrwt beam="2">  1       -2 0.32351818E-02 0.17099644E+03</pdfrwt>
<totfact> 0.33454332E+04</totfact>
</mgrwt>
</event>
<event>
 4    1  0.6148427E-004  0.5145540E+03  0.7818608E-02  0.1010048E+00
         -2   -1    0    0    0  501 -0.00000000000E+00  0.00000000000E+00  0.32141012433E+02  0.32141012534E+02  0.25500000000E-02 0. -1.
          2   -1    0    0  501    0  0.00000000000E+00 -0.00000000000E+00 -0.20594081050E+04  0.20594081050E+04  0.25500000000E-02 0.  1.
    5000001    1    1    2    0    0 -0.22747675119E+03  0.54686934651E+02 -0.71146616909E+03  0.75289404495E+03  0.77000000000E+02 0.  0.
   -5000001    1    1    2    0    0  0.22747675119E+03 -0.54686934651E+02 -0.13158009235E+04  0.13386550726E+04  0.77000000000E+02 0.  0.
<mgrwt>
<rscale>  0 0.51455403E+03</rscale>
<asrwt>0</asrwt>
<pdfrwt beam="1">  1        2 0.31683191E+00 0.51455403E+03</pdfrwt>
<pdfrwt beam="2">  1       -2 0.49447727E-02 0.51455403E+03</pdfrwt>
<totfact> 0.13507952E+03</totfact>
</mgrwt>
</event>
<event>
 4    1  0.6148427E-004  0.1676606E+03  0.7818608E-02  0.1180310E+00
          2   -1    0    0  501    0  0.00000000000E+00  0.00000000000E+00  0.34562676914E+04  0.34562676914E+04  0.25500000000E-02 0.  1.
         -2   -1    0    0    0  501 -0.00000000000E+00 -0.00000000000E+00 -0.20332678922E+01  0.20332694912E+01  0.25500000000E-02 0. -1.
    5000001    1    1    2    0    0  0.22094569010E+02 -0.24590813670E+02  0.17761152616E+04  0.17780909146E+04  0.77000000000E+02 0.  0.
   -5000001    1    1    2    0    0 -0.22094569010E+02  0.24590813670E+02  0.16781191619E+04  0.16802100462E+04  0.77000000000E+02 0.  0.
<mgrwt>
<rscale>  0 0.16766062E+03</rscale>
<asrwt>0</asrwt>
<pdfrwt beam="1">  1        2 0.53173663E+00 0.16766062E+03</pdfrwt>
<pdfrwt beam="2">  1       -2 0.31280872E-03 0.16766062E+03</pdfrwt>
<totfact> 0.12331272E+04</totfact>
</mgrwt>
</event>
<event>
 4    1  0.6148427E-004  0.2729060E+03  0.7818608E-02  0.1099628E+00
         -2   -1    0    0    0  501 -0.00000000000E+00  0.00000000000E+00  0.99778367505E+01  0.99778370763E+01  0.25500000000E-02 0. -1.
          2   -1    0    0  501    0  0.00000000000E+00 -0.00000000000E+00 -0.18660776305E+04  0.18660776305E+04  0.25500000000E-02 0.  1.
    5000001    1    1    2    0    0 -0.25241400345E+02  0.10420561781E+03 -0.69046330937E+03  0.70296836391E+03  0.77000000000E+02 0.  0.
   -5000001    1    1    2    0    0  0.25241400345E+02 -0.10420561781E+03 -0.11656364844E+04  0.11730871037E+04  0.77000000000E+02 0.  0.
<mgrwt>
<rscale>  0 0.27290598E+03</rscale>
<asrwt>0</asrwt>
<pdfrwt beam="1">  1        2 0.28708859E+00 0.27290598E+03</pdfrwt>
<pdfrwt beam="2">  1       -2 0.15350533E-02 0.27290598E+03</pdfrwt>
<totfact> 0.99635098E+03</totfact>
</mgrwt>
</event>
<event>
 4    1  0.6148427E-004  0.2512934E+03  0.7818608E-02  0.1112490E+00
          2   -1    0    0  501    0  0.00000000000E+00  0.00000000000E+00  0.75888716455E+03  0.75888716455E+03  0.25500000000E-02 0.  1.
         -2   -1    0    0    0  501 -0.00000000000E+00 -0.00000000000E+00 -0.20802959015E+02  0.20802959171E+02  0.25500000000E-02 0. -1.
    5000001    1    1    2    0    0 -0.50406190725E+02 -0.83347871361E+02  0.30932429310E+03  0.33331392114E+03  0.77000000000E+02 0.  0.
   -5000001    1    1    2    0    0  0.50406190725E+02  0.83347871361E+02  0.42875991243E+03  0.44637620258E+03  0.77000000000E+02 0.  0.
<mgrwt>
<rscale>  0 0.25129344E+03</rscale>
<asrwt>0</asrwt>
<pdfrwt beam="1">  1        2 0.11675187E+00 0.25129344E+03</pdfrwt>
<pdfrwt beam="2">  1       -2 0.32004554E-02 0.25129344E+03</pdfrwt>
<totfact> 0.14457663E+04</totfact>
</mgrwt>
</event>
<event>
 4    1  0.6148427E-004  0.2818287E+03  0.7818608E-02  0.1094694E+00
         -2   -1    0    0    0  501 -0.00000000000E+00  0.00000000000E+00  0.43524365527E+02  0.43524365602E+02  0.25500000000E-02 0. -1.
          2   -1    0    0  501    0  0.00000000000E+00 -0.00000000000E+00 -0.45622394858E+03  0.45622394858E+03  0.25500000000E-02 0.  1.
    5000001    1    1    2    0    0 -0.10351346613E+03 -0.53751327524E+02 -0.23824903813E+03  0.27621702890E+03  0.77000000000E+02 0.  0.
   -5000001    1    1    2    0    0  0.10351346613E+03  0.53751327524E+02 -0.17445054492E+03  0.22353128529E+03  0.77000000000E+02 0.  0.
<mgrwt>
<rscale>  0 0.28182873E+03</rscale>
<asrwt>0</asrwt>
<pdfrwt beam="1">  1        2 0.70188297E-01 0.28182873E+03</pdfrwt>
<pdfrwt beam="2">  1       -2 0.66960565E-02 0.28182873E+03</pdfrwt>
<totfact> 0.85753413E+03</totfact>
</mgrwt>
</event>
<event>
 4    1  0.6148427E-004  0.2265030E+03  0.7818608E-02  0.1129126E+00
          2   -1    0    0  501    0  0.00000000000E+00  0.00000000000E+00  0.11083729557E+04  0.11083729557E+04  0.25500000000E-02 0.  1.
         -2   -1    0    0    0  501 -0.00000000000E+00 -0.00000000000E+00 -0.11571831712E+02  0.11571831993E+02  0.25500000000E-02 0. -1.
    5000001    1    1    2    0    0 -0.51756922966E+02 -0.64260731325E+02  0.50183688973E+03  0.51437096006E+03  0.77000000000E+02 0.  0.
   -5000001    1    1    2    0    0  0.51756922966E+02  0.64260731325E+02  0.59496423426E+03  0.60557382763E+03  0.77000000000E+02 0.  0.
<mgrwt>
<rscale>  0 0.22650303E+03</rscale>
<asrwt>0</asrwt>
<pdfrwt beam="1">  1        2 0.17051893E+00 0.22650303E+03</pdfrwt>
<pdfrwt beam="2">  1       -2 0.17802817E-02 0.22650303E+03</pdfrwt>
<totfact> 0.20476689E+04</totfact>
</mgrwt>
</event>
<event>
 4    1  0.6148427E-004  0.1988698E+03  0.7818608E-02  0.1150696E+00
          2   -1    0    0  501    0  0.00000000000E+00  0.00000000000E+00  0.18458012355E+04  0.18458012355E+04  0.25500000000E-02 0.  1.
         -2   -1    0    0    0  501 -0.00000000000E+00 -0.00000000000E+00 -0.53566449056E+01  0.53566455126E+01  0.25500000000E-02 0. -1.
    5000001    1    1    2    0    0  0.38753206368E+02 -0.22803041933E+02  0.51059892799E+03  0.51832620520E+03  0.77000000000E+02 0.  0.
   -5000001    1    1    2    0    0 -0.38753206368E+02  0.22803041933E+02  0.13298456626E+04  0.13328316758E+04  0.77000000000E+02 0.  0.
<mgrwt>
<rscale>  0 0.19886983E+03</rscale>
<asrwt>0</asrwt>
<pdfrwt beam="1">  1        2 0.28397020E+00 0.19886983E+03</pdfrwt>
<pdfrwt beam="2">  1       -2 0.82409700E-03 0.19886983E+03</pdfrwt>
<totfact> 0.24926090E+04</totfact>
</mgrwt>
</event>
<event>
 4    1  0.6148427E-004  0.3085985E+03  0.7818608E-02  0.1081020E+00
          2   -1    0    0  501    0  0.00000000000E+00  0.00000000000E+00  0.15869173898E+04  0.15869173898E+04  0.25500000000E-02 0.  1.
         -2   -1    0    0    0  501 -0.00000000000E+00 -0.00000000000E+00 -0.15002838678E+02  0.15002838895E+02  0.25500000000E-02 0. -1.
    5000001    1    1    2    0    0  0.11229311644E+03 -0.72507002447E+02  0.76778422384E+03  0.78312746330E+03  0.77000000000E+02 0.  0.
   -5000001    1    1    2    0    0 -0.11229311644E+03  0.72507002447E+02  0.80413032729E+03  0.81879276540E+03  0.77000000000E+02 0.  0.
<mgrwt>
<rscale>  0 0.30859855E+03</rscale>
<asrwt>0</asrwt>
<pdfrwt beam="1">  1        2 0.24414113E+00 0.30859855E+03</pdfrwt>
<pdfrwt beam="2">  1       -2 0.23081291E-02 0.30859855E+03</pdfrwt>
<totfact> 0.76847555E+03</totfact>
</mgrwt>
</event>
<event>
 4    1  0.6148427E-004  0.1951652E+03  0.7818608E-02  0.1153883E+00
         -2   -1    0    0    0  501 -0.00000000000E+00  0.00000000000E+00  0.32110724042E+02  0.32110724144E+02  0.25500000000E-02 0. -1.
          2   -1    0    0  501    0  0.00000000000E+00 -0.00000000000E+00 -0.29654781047E+03  0.29654781048E+03  0.25500000000E-02 0.  1.
    5000001    1    1    2    0    0 -0.43165733796E+02  0.38026054239E+02 -0.16060301645E+03  0.18716727884E+03  0.77000000000E+02 0.  0.
   -5000001    1    1    2    0    0  0.43165733796E+02 -0.38026054239E+02 -0.10383406997E+03  0.14149125578E+03  0.77000000000E+02 0.  0.
<mgrwt>
<rscale>  0 0.19516521E+03</rscale>
<asrwt>0</asrwt>
<pdfrwt beam="1">  1        2 0.45622738E-01 0.19516521E+03</pdfrwt>
<pdfrwt beam="2">  1       -2 0.49401116E-02 0.19516521E+03</pdfrwt>
<totfact> 0.21293776E+04</totfact>
</mgrwt>
</event>
<event>
 4    1  0.6148427E-004  0.3307890E+03  0.7818608E-02  0.1070788E+00
          2   -1    0    0  501    0  0.00000000000E+00  0.00000000000E+00  0.20319242759E+04  0.20319242759E+04  0.25500000000E-02 0.  1.
         -2   -1    0    0    0  501 -0.00000000000E+00 -0.00000000000E+00 -0.13462778101E+02  0.13462778343E+02  0.25500000000E-02 0. -1.
    5000001    1    1    2    0    0 -0.23555542518E+02 -0.13986236890E+03  0.78543075915E+03  0.80183964933E+03  0.77000000000E+02 0.  0.
   -5000001    1    1    2    0    0  0.23555542518E+02  0.13986236890E+03  0.12330307387E+04  0.12435474049E+04  0.77000000000E+02 0.  0.
<mgrwt>
<rscale>  0 0.33078903E+03</rscale>
<asrwt>0</asrwt>
<pdfrwt beam="1">  1        2 0.31260358E+00 0.33078903E+03</pdfrwt>
<pdfrwt beam="2">  1       -2 0.20711976E-02 0.33078903E+03</pdfrwt>
<totfact> 0.52461275E+03</totfact>
</mgrwt>
</event>
<event>
 4    1  0.6148427E-004  0.2573065E+03  0.7818608E-02  0.1108772E+00
         -2   -1    0    0    0  501 -0.00000000000E+00  0.00000000000E+00  0.48891180196E+02  0.48891180262E+02  0.25500000000E-02 0. -1.
          2   -1    0    0  501    0  0.00000000000E+00 -0.00000000000E+00 -0.33854084278E+03  0.33854084279E+03  0.25500000000E-02 0.  1.
    5000001    1    1    2    0    0  0.75224396370E+02  0.70207759713E+02 -0.13593953812E+03  0.18707324062E+03  0.77000000000E+02 0.  0.
   -5000001    1    1    2    0    0 -0.75224396370E+02 -0.70207759713E+02 -0.15371012447E+03  0.20035878243E+03  0.77000000000E+02 0.  0.
<mgrwt>
<rscale>  0 0.25730652E+03</rscale>
<asrwt>0</asrwt>
<pdfrwt beam="1">  1        2 0.52083205E-01 0.25730652E+03</pdfrwt>
<pdfrwt beam="2">  1       -2 0.75217203E-02 0.25730652E+03</pdfrwt>
<totfact> 0.98680507E+03</totfact>
</mgrwt>
</event>
<event>
 4    1  0.6148427E-004  0.2276661E+03  0.7818608E-02  0.1128293E+00
         -2   -1    0    0    0  501 -0.00000000000E+00  0.00000000000E+00  0.98695386695E+03  0.98695386696E+03  0.25500000000E-02 0. -1.
          2   -1    0    0  501    0  0.00000000000E+00 -0.00000000000E+00 -0.13129249784E+02  0.13129250031E+02  0.25500000000E-02 0.  1.
    5000001    1    1    2    0    0  0.43412735142E+02 -0.57839205176E+02  0.30059885613E+03  0.31862001119E+03  0.77000000000E+02 0.  0.
   -5000001    1    1    2    0    0 -0.43412735142E+02  0.57839205176E+02  0.67322576104E+03  0.68146310580E+03  0.77000000000E+02 0.  0.
<mgrwt>
<rscale>  0 0.22766611E+03</rscale>
<asrwt>0</asrwt>
<pdfrwt beam="1">  1        2 0.20198860E-02 0.22766611E+03</pdfrwt>
<pdfrwt beam="2">  1       -2 0.15183895E+00 0.22766611E+03</pdfrwt>
<totfact> 0.16455701E+03</totfact>
</mgrwt>
</event>
<event>
 4    1  0.6148427E-004  0.4269464E+03  0.7818608E-02  0.1034829E+00
         -2   -1    0    0    0  501 -0.00000000000E+00  0.00000000000E+00  0.26326579032E+03  0.26326579034E+03  0.25500000000E-02 0. -1.
          2   -1    0    0  501    0  0.00000000000E+00 -0.00000000000E+00 -0.17309806630E+03  0.17309806632E+03  0.25500000000E-02 0.  1.
    5000001    1    1    2    0    0 -0.10240038534E+03 -0.15314677125E+03 -0.32093526507E+02  0.20223443551E+03  0.77000000000E+02 0.  0.
   -5000001    1    1    2    0    0  0.10240038534E+03  0.15314677125E+03  0.12226125053E+03  0.23412942114E+03  0.77000000000E+02 0.  0.
<mgrwt>
<rscale>  0 0.42694636E+03</rscale>
<asrwt>0</asrwt>
<pdfrwt beam="1">  1        2 0.26630472E-01 0.42694636E+03</pdfrwt>
<pdfrwt beam="2">  1       -2 0.40502429E-01 0.42694636E+03</pdfrwt>
<totfact> 0.11738210E+03</totfact>
</mgrwt>
</event>
<event>
 4    1  0.6148427E-004  0.2534553E+03  0.7818608E-02  0.1111140E+00
          2   -1    0    0  501    0  0.00000000000E+00  0.00000000000E+00  0.47725135486E+03  0.47725135487E+03  0.25500000000E-02 0.  1.
         -2   -1    0    0    0  501 -0.00000000000E+00 -0.00000000000E+00 -0.33650809111E+02  0.33650809208E+02  0.25500000000E-02 0. -1.
    5000001    1    1    2    0    0 -0.33831637188E+02 -0.94431604949E+02  0.23854271130E+03  0.26998802344E+03  0.77000000000E+02 0.  0.
   -5000001    1    1    2    0    0  0.33831637188E+02  0.94431604949E+02  0.20505783445E+03  0.24091414063E+03  0.77000000000E+02 0.  0.
<mgrwt>
<rscale>  0 0.25345528E+03</rscale>
<asrwt>0</asrwt>
<pdfrwt beam="1">  1        2 0.73423282E-01 0.25345528E+03</pdfrwt>
<pdfrwt beam="2">  1       -2 0.51770478E-02 0.25345528E+03</pdfrwt>
<totfact> 0.12047623E+04</totfact>
</mgrwt>
</event>
<event>
 4    1  0.6148427E-004  0.3427103E+03  0.7818608E-02  0.1065647E+00
          2   -1    0    0  501    0  0.00000000000E+00  0.00000000000E+00  0.45275609638E+03  0.45275609638E+03  0.25500000000E-02 0.  1.
         -2   -1    0    0    0  501 -0.00000000000E+00 -0.00000000000E+00 -0.64852994219E+02  0.64852994269E+02  0.25500000000E-02 0. -1.
    5000001    1    1    2    0    0 -0.13019943768E+03  0.74371474348E+01  0.31502754948E+03  0.34954050075E+03  0.77000000000E+02 0.  0.
   -5000001    1    1    2    0    0  0.13019943768E+03 -0.74371474348E+01  0.72875552678E+02  0.16806858990E+03  0.77000000000E+02 0.  0.
<mgrwt>
<rscale>  0 0.34271031E+03</rscale>
<asrwt>0</asrwt>
<pdfrwt beam="1">  1        2 0.69654784E-01 0.34271031E+03</pdfrwt>
<pdfrwt beam="2">  1       -2 0.99773837E-02 0.34271031E+03</pdfrwt>
<totfact> 0.46492062E+03</totfact>
</mgrwt>
</event>
<event>
 4    1  0.6148427E-004  0.6138822E+03  0.7818608E-02  0.9877016E-01
         -2   -1    0    0    0  501 -0.00000000000E+00  0.00000000000E+00  0.31477338007E+02  0.31477338110E+02  0.25500000000E-02 0. -1.
          2   -1    0    0  501    0  0.00000000000E+00 -0.00000000000E+00 -0.29930368046E+04  0.29930368046E+04  0.25500000000E-02 0.  1.
    5000001    1    1    2    0    0 -0.26955257774E+03  0.11132228944E+03 -0.12006587067E+04  0.12379667096E+04  0.77000000000E+02 0.  0.
   -5000001    1    1    2    0    0  0.26955257774E+03 -0.11132228944E+03 -0.17609007600E+04  0.17865474331E+04  0.77000000000E+02 0.  0.
<mgrwt>
<rscale>  0 0.61388218E+03</rscale>
<asrwt>0</asrwt>
<pdfrwt beam="1">  1        2 0.46046698E+00 0.61388218E+03</pdfrwt>
<pdfrwt beam="2">  1       -2 0.48426697E-02 0.61388218E+03</pdfrwt>
<totfact> 0.40862174E+02</totfact>
</mgrwt>
</event>
<event>
 4    1  0.6148427E-004  0.1958554E+03  0.7818608E-02  0.1153284E+00
          2   -1    0    0  501    0  0.00000000000E+00  0.00000000000E+00  0.10701608441E+04  0.10701608441E+04  0.25500000000E-02 0.  1.
         -2   -1    0    0    0  501 -0.00000000000E+00 -0.00000000000E+00 -0.89611139251E+01  0.89611142879E+01  0.25500000000E-02 0. -1.
    5000001    1    1    2    0    0  0.41698099176E+02 -0.41512682874E+02  0.45291395877E+03  0.46316529270E+03  0.77000000000E+02 0.  0.
   -5000001    1    1    2    0    0 -0.41698099176E+02  0.41512682874E+02  0.60828577143E+03  0.61595666571E+03  0.77000000000E+02 0.  0.
<mgrwt>
<rscale>  0 0.19585539E+03</rscale>
<asrwt>0</asrwt>
<pdfrwt beam="1">  1        2 0.16464013E+00 0.19585539E+03</pdfrwt>
<pdfrwt beam="2">  1       -2 0.13786329E-02 0.19585539E+03</pdfrwt>
<totfact> 0.31013257E+04</totfact>
</mgrwt>
</event>
<event>
 4    1  0.6148427E-004  0.4816046E+03  0.7818608E-02  0.1018695E+00
          2   -1    0    0  501    0  0.00000000000E+00  0.00000000000E+00  0.17390130555E+04  0.17390130555E+04  0.25500000000E-02 0.  1.
         -2   -1    0    0    0  501 -0.00000000000E+00 -0.00000000000E+00 -0.33344056789E+02  0.33344056886E+02  0.25500000000E-02 0. -1.
    5000001    1    1    2    0    0  0.50023857211E+02  0.99625998932E+02  0.12023387218E+03  0.18114334096E+03  0.77000000000E+02 0.  0.
   -5000001    1    1    2    0    0 -0.50023857211E+02 -0.99625998932E+02  0.15854351265E+04  0.15912137714E+04  0.77000000000E+02 0.  0.
<mgrwt>
<rscale>  0 0.48160461E+03</rscale>
<asrwt>0</asrwt>
<pdfrwt beam="1">  1        2 0.26754051E+00 0.48160461E+03</pdfrwt>
<pdfrwt beam="2">  1       -2 0.51298542E-02 0.48160461E+03</pdfrwt>
<totfact> 0.19009988E+03</totfact>
</mgrwt>
</event>
<event>
 4    1  0.6148427E-004  0.2797765E+03  0.7818608E-02  0.1095811E+00
         -2   -1    0    0    0  501 -0.00000000000E+00  0.00000000000E+00  0.43544690070E+02  0.43544690145E+02  0.25500000000E-02 0. -1.
          2   -1    0    0  501    0  0.00000000000E+00 -0.00000000000E+00 -0.44939404958E+03  0.44939404959E+03  0.25500000000E-02 0.  1.
    5000001    1    1    2    0    0  0.69729593531E+02 -0.52002712036E+02 -0.65618075144E+02  0.13342125040E+03  0.77000000000E+02 0.  0.
   -5000001    1    1    2    0    0 -0.69729593531E+02  0.52002712036E+02 -0.34023128436E+03  0.35951748933E+03  0.77000000000E+02 0.  0.
<mgrwt>
<rscale>  0 0.27977652E+03</rscale>
<asrwt>0</asrwt>
<pdfrwt beam="1">  1        2 0.69137543E-01 0.27977652E+03</pdfrwt>
<pdfrwt beam="2">  1       -2 0.66991834E-02 0.27977652E+03</pdfrwt>
<totfact> 0.87105799E+03</totfact>
</mgrwt>
</event>
<event>
 4    1  0.6148427E-004  0.2112993E+03  0.7818608E-02  0.1140541E+00
         -2   -1    0    0    0  501 -0.00000000000E+00  0.00000000000E+00  0.80197053155E+01  0.80197057209E+01  0.25500000000E-02 0. -1.
          2   -1    0    0  501    0  0.00000000000E+00 -0.00000000000E+00 -0.13918027371E+04  0.13918027371E+04  0.25500000000E-02 0.  1.
    5000001    1    1    2    0    0 -0.30388317893E+02  0.52768719235E+02 -0.95058766253E+03  0.95564318223E+03  0.77000000000E+02 0.  0.
   -5000001    1    1    2    0    0  0.30388317893E+02 -0.52768719235E+02 -0.43319536921E+03  0.44417926055E+03  0.77000000000E+02 0.  0.
<mgrwt>
<rscale>  0 0.21129930E+03</rscale>
<asrwt>0</asrwt>
<pdfrwt beam="1">  1        2 0.21412331E+00 0.21129930E+03</pdfrwt>
<pdfrwt beam="2">  1       -2 0.12338020E-02 0.21129930E+03</pdfrwt>
<totfact> 0.24179251E+04</totfact>
</mgrwt>
</event>
<event>
 4    1  0.6148427E-004  0.2215398E+03  0.7818608E-02  0.1132740E+00
         -2   -1    0    0    0  501 -0.00000000000E+00  0.00000000000E+00  0.56021410540E+01  0.56021416344E+01  0.25500000000E-02 0. -1.
          2   -1    0    0  501    0  0.00000000000E+00 -0.00000000000E+00 -0.21902293267E+04  0.21902293267E+04  0.25500000000E-02 0.  1.
    5000001    1    1    2    0    0 -0.67188481143E+02 -0.42204042162E+02 -0.11591723200E+04  0.11644333131E+04  0.77000000000E+02 0.  0.
   -5000001    1    1    2    0    0  0.67188481143E+02  0.42204042162E+02 -0.10254548656E+04  0.10313981552E+04  0.77000000000E+02 0.  0.
<mgrwt>
<rscale>  0 0.22153983E+03</rscale>
<asrwt>0</asrwt>
<pdfrwt beam="1">  1        2 0.33695767E+00 0.22153983E+03</pdfrwt>
<pdfrwt beam="2">  1       -2 0.86186965E-03 0.22153983E+03</pdfrwt>
<totfact> 0.15507289E+04</totfact>
</mgrwt>
</event>
<event>
 4    1  0.6148427E-004  0.1910564E+03  0.7818608E-02  0.1157512E+00
          2   -1    0    0  501    0  0.00000000000E+00  0.00000000000E+00  0.79871896896E+03  0.79871896896E+03  0.25500000000E-02 0.  1.
         -2   -1    0    0    0  501 -0.00000000000E+00 -0.00000000000E+00 -0.11425339298E+02  0.11425339583E+02  0.25500000000E-02 0. -1.
    5000001    1    1    2    0    0  0.14588694680E+02 -0.44244786741E+02  0.52948370271E+03  0.53707766906E+03  0.77000000000E+02 0.  0.
   -5000001    1    1    2    0    0 -0.14588694680E+02  0.44244786741E+02  0.25780992695E+03  0.27306663948E+03  0.77000000000E+02 0.  0.
<mgrwt>
<rscale>  0 0.19105638E+03</rscale>
<asrwt>0</asrwt>
<pdfrwt beam="1">  1        2 0.12287989E+00 0.19105638E+03</pdfrwt>
<pdfrwt beam="2">  1       -2 0.17577439E-02 0.19105638E+03</pdfrwt>
<totfact> 0.32233403E+04</totfact>
</mgrwt>
</event>
<event>
 4    1  0.6148427E-004  0.4726322E+03  0.7818608E-02  0.1021180E+00
         -2   -1    0    0    0  501 -0.00000000000E+00  0.00000000000E+00  0.40337878620E+02  0.40337878701E+02  0.25500000000E-02 0. -1.
          2   -1    0    0  501    0  0.00000000000E+00 -0.00000000000E+00 -0.13844381905E+04  0.13844381905E+04  0.25500000000E-02 0.  1.
    5000001    1    1    2    0    0 -0.22064882116E+03  0.30694905495E+02 -0.62087189306E+03  0.66410766228E+03  0.77000000000E+02 0.  0.
   -5000001    1    1    2    0    0  0.22064882116E+03 -0.30694905495E+02 -0.72322841881E+03  0.76066840692E+03  0.77000000000E+02 0.  0.
<mgrwt>
<rscale>  0 0.47263220E+03</rscale>
<asrwt>0</asrwt>
<pdfrwt beam="1">  1        2 0.21299045E+00 0.47263220E+03</pdfrwt>
<pdfrwt beam="2">  1       -2 0.62058285E-02 0.47263220E+03</pdfrwt>
<totfact> 0.22080237E+03</totfact>
</mgrwt>
</event>
<event>
 4    1  0.6148427E-004  0.4781872E+03  0.7818608E-02  0.1019635E+00
         -2   -1    0    0    0  501 -0.00000000000E+00  0.00000000000E+00  0.23993877090E+02  0.23993877225E+02  0.25500000000E-02 0. -1.
          2   -1    0    0  501    0  0.00000000000E+00 -0.00000000000E+00 -0.23825142580E+04  0.23825142580E+04  0.25500000000E-02 0.  1.
    5000001    1    1    2    0    0 -0.24353802524E+01  0.76525820084E+02 -0.10725748873E+03  0.15262798271E+03  0.77000000000E+02 0.  0.
   -5000001    1    1    2    0    0  0.24353802524E+01 -0.76525820084E+02 -0.22512628922E+04  0.22538801525E+04  0.77000000000E+02 0.  0.
<mgrwt>
<rscale>  0 0.47818722E+03</rscale>
<asrwt>0</asrwt>
<pdfrwt beam="1">  1        2 0.36654047E+00 0.47818722E+03</pdfrwt>
<pdfrwt beam="2">  1       -2 0.36913676E-02 0.47818722E+03</pdfrwt>
<totfact> 0.14137221E+03</totfact>
</mgrwt>
</event>
<event>
 4    1  0.6148427E-004  0.2443278E+03  0.7818608E-02  0.1116943E+00
          2   -1    0    0  501    0  0.00000000000E+00  0.00000000000E+00  0.11550395464E+03  0.11550395467E+03  0.25500000000E-02 0.  1.
         -2   -1    0    0    0  501 -0.00000000000E+00 -0.00000000000E+00 -0.12920785103E+03  0.12920785106E+03  0.25500000000E-02 0. -1.
    5000001    1    1    2    0    0  0.43778980379E+02  0.24750702786E+02 -0.87388660752E+02  0.12686597038E+03  0.77000000000E+02 0.  0.
   -5000001    1    1    2    0    0 -0.43778980379E+02 -0.24750702786E+02  0.73684764359E+02  0.11784583535E+03  0.77000000000E+02 0.  0.
<mgrwt>
<rscale>  0 0.24432779E+03</rscale>
<asrwt>0</asrwt>
<pdfrwt beam="1">  1        2 0.17769839E-01 0.24432779E+03</pdfrwt>
<pdfrwt beam="2">  1       -2 0.19878131E-01 0.24432779E+03</pdfrwt>
<totfact> 0.66699332E+03</totfact>
</mgrwt>
</event>
<event>
 4    1  0.6148427E-004  0.4047012E+03  0.7818608E-02  0.1042164E+00
          2   -1    0    0  501    0  0.00000000000E+00  0.00000000000E+00  0.16427484033E+04  0.16427484033E+04  0.25500000000E-02 0.  1.
         -2   -1    0    0    0  501 -0.00000000000E+00 -0.00000000000E+00 -0.24925156770E+02  0.24925156900E+02  0.25500000000E-02 0. -1.
    5000001    1    1    2    0    0  0.11856710893E+03 -0.13923580980E+03  0.64553057656E+03  0.67533954077E+03  0.77000000000E+02 0.  0.
   -5000001    1    1    2    0    0 -0.11856710893E+03  0.13923580980E+03  0.97229266996E+03  0.99233401943E+03  0.77000000000E+02 0.  0.
<mgrwt>
<rscale>  0 0.40470118E+03</rscale>
<asrwt>0</asrwt>
<pdfrwt beam="1">  1        2 0.25273058E+00 0.40470118E+03</pdfrwt>
<pdfrwt beam="2">  1       -2 0.38346387E-02 0.40470118E+03</pdfrwt>
<totfact> 0.33523224E+03</totfact>
</mgrwt>
</event>
<event>
 4    1  0.6148427E-004  0.2064276E+03  0.7818608E-02  0.1144427E+00
          2   -1    0    0  501    0  0.00000000000E+00  0.00000000000E+00  0.84947674461E+03  0.84947674462E+03  0.25500000000E-02 0.  1.
         -2   -1    0    0    0  501 -0.00000000000E+00 -0.00000000000E+00 -0.12540766442E+02  0.12540766702E+02  0.25500000000E-02 0. -1.
    5000001    1    1    2    0    0  0.41062382225E+02  0.33891710619E+02  0.23695766724E+03  0.25477971533E+03  0.77000000000E+02 0.  0.
   -5000001    1    1    2    0    0 -0.41062382225E+02 -0.33891710619E+02  0.59997831093E+03  0.60723779598E+03  0.77000000000E+02 0.  0.
<mgrwt>
<rscale>  0 0.20642761E+03</rscale>
<asrwt>0</asrwt>
<pdfrwt beam="1">  1        2 0.13068878E+00 0.20642761E+03</pdfrwt>
<pdfrwt beam="2">  1       -2 0.19293480E-02 0.20642761E+03</pdfrwt>
<totfact> 0.26151385E+04</totfact>
</mgrwt>
</event>
<event>
 4    1  0.6148427E-004  0.1855811E+03  0.7818608E-02  0.1162508E+00
         -2   -1    0    0    0  501 -0.00000000000E+00  0.00000000000E+00  0.45178054407E+02  0.45178054478E+02  0.25500000000E-02 0. -1.
          2   -1    0    0  501    0  0.00000000000E+00 -0.00000000000E+00 -0.19058123476E+03  0.19058123478E+03  0.25500000000E-02 0.  1.
    5000001    1    1    2    0    0 -0.23623975617E+02  0.17715537024E+02 -0.18666845071E+02  0.84554027585E+02  0.77000000000E+02 0.  0.
   -5000001    1    1    2    0    0  0.23623975617E+02 -0.17715537024E+02 -0.12673633528E+03  0.15120526167E+03  0.77000000000E+02 0.  0.
<mgrwt>
<rscale>  0 0.18558113E+03</rscale>
<asrwt>0</asrwt>
<pdfrwt beam="1">  1        2 0.29320190E-01 0.18558113E+03</pdfrwt>
<pdfrwt beam="2">  1       -2 0.69504700E-02 0.18558113E+03</pdfrwt>
<totfact> 0.20296847E+04</totfact>
</mgrwt>
</event>
<event>
 4    1  0.6148427E-004  0.2141566E+03  0.7818608E-02  0.1138316E+00
          2   -1    0    0  501    0  0.00000000000E+00  0.00000000000E+00  0.16876228790E+03  0.16876228792E+03  0.25500000000E-02 0. -1.
         -2   -1    0    0    0  501 -0.00000000000E+00 -0.00000000000E+00 -0.67940317801E+02  0.67940317848E+02  0.25500000000E-02 0.  1.
    5000001    1    1    2    0    0 -0.67867722128E+02  0.30299727620E+02  0.46477952797E+02  0.11667605280E+03  0.77000000000E+02 0.  0.
   -5000001    1    1    2    0    0  0.67867722128E+02 -0.30299727620E+02  0.54344017302E+02  0.12002655297E+03  0.77000000000E+02 0.  0.
<mgrwt>
<rscale>  0 0.21415661E+03</rscale>
<asrwt>0</asrwt>
<pdfrwt beam="1">  1        2 0.25963429E-01 0.21415661E+03</pdfrwt>
<pdfrwt beam="2">  1       -2 0.10452357E-01 0.21415661E+03</pdfrwt>
<totfact> 0.12390127E+04</totfact>
</mgrwt>
</event>
<event>
 4    1  0.6148427E-004  0.2013933E+03  0.7818608E-02  0.1148569E+00
          2   -1    0    0  501    0  0.00000000000E+00  0.00000000000E+00  0.61728376947E+03  0.61728376947E+03  0.25500000000E-02 0. -1.
         -2   -1    0    0    0  501 -0.00000000000E+00 -0.00000000000E+00 -0.16426504572E+02  0.16426504770E+02  0.25500000000E-02 0.  1.
    5000001    1    1    2    0    0 -0.29807186028E+02 -0.49696235081E+02  0.20854752910E+03  0.22973736312E+03  0.77000000000E+02 0.  0.
   -5000001    1    1    2    0    0  0.29807186028E+02  0.49696235081E+02  0.39230973580E+03  0.40397291112E+03  0.77000000000E+02 0.  0.
<mgrwt>
<rscale>  0 0.20139329E+03</rscale>
<asrwt>0</asrwt>
<pdfrwt beam="1">  1        2 0.94966740E-01 0.20139329E+03</pdfrwt>
<pdfrwt beam="2">  1       -2 0.25271544E-02 0.20139329E+03</pdfrwt>
<totfact> 0.25940247E+04</totfact>
</mgrwt>
</event>
<event>
 4    1  0.6148427E-004  0.2991365E+03  0.7818608E-02  0.1085673E+00
         -2   -1    0    0    0  501 -0.00000000000E+00  0.00000000000E+00  0.27323450145E+02  0.27323450264E+02  0.25500000000E-02 0. -1.
          2   -1    0    0  501    0  0.00000000000E+00 -0.00000000000E+00 -0.81873483917E+03  0.81873483917E+03  0.25500000000E-02 0.  1.
    5000001    1    1    2    0    0 -0.53379397131E+02 -0.10139708402E+03 -0.55845007838E+03  0.57526186970E+03  0.77000000000E+02 0.  0.
   -5000001    1    1    2    0    0  0.53379397131E+02  0.10139708402E+03 -0.23296131064E+03  0.27079641974E+03  0.77000000000E+02 0.  0.
<mgrwt>
<rscale>  0 0.29913649E+03</rscale>
<asrwt>0</asrwt>
<pdfrwt beam="1">  1        2 0.12595919E+00 0.29913649E+03</pdfrwt>
<pdfrwt beam="2">  1       -2 0.42036084E-02 0.29913649E+03</pdfrwt>
<totfact> 0.87802551E+03</totfact>
</mgrwt>
</event>
<event>
 4    1  0.6148427E-004  0.1795550E+03  0.7818608E-02  0.1168234E+00
         -2   -1    0    0    0  501 -0.00000000000E+00  0.00000000000E+00  0.44485680271E+01  0.44485687580E+01  0.25500000000E-02 0. -1.
          2   -1    0    0  501    0  0.00000000000E+00 -0.00000000000E+00 -0.18118186408E+04  0.18118186408E+04  0.25500000000E-02 0.  1.
    5000001    1    1    2    0    0  0.46066898904E+02 -0.18919440496E+01 -0.92688548451E+03  0.93122040357E+03  0.77000000000E+02 0.  0.
   -5000001    1    1    2    0    0 -0.46066898904E+02  0.18919440496E+01 -0.88048458824E+03  0.88504680597E+03  0.77000000000E+02 0.  0.
<mgrwt>
<rscale>  0 0.17955500E+03</rscale>
<asrwt>0</asrwt>
<pdfrwt beam="1">  1        2 0.27874074E+00 0.17955500E+03</pdfrwt>
<pdfrwt beam="2">  1       -2 0.68439658E-03 0.17955500E+03</pdfrwt>
<totfact> 0.33704963E+04</totfact>
</mgrwt>
</event>
<event>
 4    1  0.6148427E-004  0.3283756E+03  0.7818608E-02  0.1071858E+00
          2   -1    0    0  501    0  0.00000000000E+00  0.00000000000E+00  0.15790291995E+03  0.15790291997E+03  0.25500000000E-02 0.  1.
         -2   -1    0    0    0  501 -0.00000000000E+00 -0.00000000000E+00 -0.17072282984E+03  0.17072282986E+03  0.25500000000E-02 0. -1.
    5000001    1    1    2    0    0  0.54645022416E+02 -0.12423338127E+03 -0.57523532197E+02  0.16630684969E+03  0.77000000000E+02 0.  0.
   -5000001    1    1    2    0    0 -0.54645022416E+02  0.12423338127E+03  0.44703622307E+02  0.16231890014E+03  0.77000000000E+02 0.  0.
<mgrwt>
<rscale>  0 0.32837560E+03</rscale>
<asrwt>0</asrwt>
<pdfrwt beam="1">  1        2 0.24292757E-01 0.32837560E+03</pdfrwt>
<pdfrwt beam="2">  1       -2 0.26265051E-01 0.32837560E+03</pdfrwt>
<totfact> 0.28984497E+03</totfact>
</mgrwt>
</event>
<event>
 4    1  0.6148427E-004  0.2938561E+03  0.7818608E-02  0.1088353E+00
          2   -1    0    0  501    0  0.00000000000E+00  0.00000000000E+00  0.80628008245E+02  0.80628008285E+02  0.25500000000E-02 0.  1.
         -2   -1    0    0    0  501 -0.00000000000E+00 -0.00000000000E+00 -0.26774623088E+03  0.26774623089E+03  0.25500000000E-02 0. -1.
    5000001    1    1    2    0    0 -0.16090313316E+00 -0.12489417491E+03 -0.84355840922E+02  0.16924387349E+03  0.77000000000E+02 0.  0.
   -5000001    1    1    2    0    0  0.16090313316E+00  0.12489417491E+03 -0.10276238172E+03  0.17913036569E+03  0.77000000000E+02 0.  0.
<mgrwt>
<rscale>  0 0.29385606E+03</rscale>
<asrwt>0</asrwt>
<pdfrwt beam="1">  1        2 0.12404309E-01 0.29385606E+03</pdfrwt>
<pdfrwt beam="2">  1       -2 0.41191727E-01 0.29385606E+03</pdfrwt>
<totfact> 0.27587656E+03</totfact>
</mgrwt>
</event>
<event>
 4    1  0.6148427E-004  0.3302241E+03  0.7818608E-02  0.1071038E+00
          2   -1    0    0  501    0  0.00000000000E+00  0.00000000000E+00  0.13095782260E+04  0.13095782260E+04  0.25500000000E-02 0.  1.
         -2   -1    0    0    0  501 -0.00000000000E+00 -0.00000000000E+00 -0.20817385267E+02  0.20817385424E+02  0.25500000000E-02 0. -1.
    5000001    1    1    2    0    0 -0.37686058370E+02 -0.13386055760E+03  0.82428664519E+03  0.83947385982E+03  0.77000000000E+02 0.  0.
   -5000001    1    1    2    0    0  0.37686058370E+02  0.13386055760E+03  0.46447419553E+03  0.49092175160E+03  0.77000000000E+02 0.  0.
<mgrwt>
<rscale>  0 0.33022413E+03</rscale>
<asrwt>0</asrwt>
<pdfrwt beam="1">  1        2 0.20147359E+00 0.33022413E+03</pdfrwt>
<pdfrwt beam="2">  1       -2 0.32026744E-02 0.33022413E+03</pdfrwt>
<totfact> 0.66777665E+03</totfact>
</mgrwt>
</event>
<event>
 4    1  0.6148427E-004  0.2118416E+03  0.7818608E-02  0.1140116E+00
          2   -1    0    0  501    0  0.00000000000E+00  0.00000000000E+00  0.48988839083E+02  0.48988839149E+02  0.25500000000E-02 0.  1.
         -2   -1    0    0    0  501 -0.00000000000E+00 -0.00000000000E+00 -0.22901567059E+03  0.22901567060E+03  0.25500000000E-02 0. -1.
    5000001    1    1    2    0    0  0.65966801749E+02  0.30491725145E+02 -0.93916910959E+02  0.14153003356E+03  0.77000000000E+02 0.  0.
   -5000001    1    1    2    0    0 -0.65966801749E+02 -0.30491725145E+02 -0.86109920548E+02  0.13647447619E+03  0.77000000000E+02 0.  0.
<mgrwt>
<rscale>  0 0.21184156E+03</rscale>
<asrwt>0</asrwt>
<pdfrwt beam="1">  1        2 0.75367446E-02 0.21184156E+03</pdfrwt>
<pdfrwt beam="2">  1       -2 0.35233179E-01 0.21184156E+03</pdfrwt>
<totfact> 0.68012841E+03</totfact>
</mgrwt>
</event>
<event>
 4    1  0.6148427E-004  0.1794385E+03  0.7818608E-02  0.1168348E+00
         -2   -1    0    0    0  501 -0.00000000000E+00  0.00000000000E+00  0.23097498068E+01  0.23097512144E+01  0.25500000000E-02 0. -1.
          2   -1    0    0  501    0  0.00000000000E+00 -0.00000000000E+00 -0.34850288107E+04  0.34850288107E+04  0.25500000000E-02 0.  1.
    5000001    1    1    2    0    0  0.38147875317E+02  0.25115902245E+02 -0.16272425379E+04  0.16297034534E+04  0.77000000000E+02 0.  0.
   -5000001    1    1    2    0    0 -0.38147875317E+02 -0.25115902245E+02 -0.18554765230E+04  0.18576351085E+04  0.77000000000E+02 0.  0.
<mgrwt>
<rscale>  0 0.17943854E+03</rscale>
<asrwt>0</asrwt>
<pdfrwt beam="1">  1        2 0.53615407E+00 0.17943854E+03</pdfrwt>
<pdfrwt beam="2">  1       -2 0.35534902E-03 0.17943854E+03</pdfrwt>
<totfact> 0.98634172E+03</totfact>
</mgrwt>
</event>
<event>
 4    1  0.6148427E-004  0.3358452E+03  0.7818608E-02  0.1068579E+00
         -2   -1    0    0    0  501 -0.00000000000E+00  0.00000000000E+00  0.73048723133E+02  0.73048723177E+02  0.25500000000E-02 0. -1.
          2   -1    0    0  501    0  0.00000000000E+00 -0.00000000000E+00 -0.38601634735E+03  0.38601634736E+03  0.25500000000E-02 0.  1.
    5000001    1    1    2    0    0 -0.94086098399E+02  0.11555547062E+03 -0.14557083761E+03  0.22209261461E+03  0.77000000000E+02 0.  0.
   -5000001    1    1    2    0    0  0.94086098399E+02 -0.11555547062E+03 -0.16739678661E+03  0.23697245593E+03  0.77000000000E+02 0.  0.
<mgrwt>
<rscale>  0 0.33584521E+03</rscale>
<asrwt>0</asrwt>
<pdfrwt beam="1">  1        2 0.59387129E-01 0.33584521E+03</pdfrwt>
<pdfrwt beam="2">  1       -2 0.11238265E-01 0.33584521E+03</pdfrwt>
<totfact> 0.45753967E+03</totfact>
</mgrwt>
</event>
<event>
 4    1  0.6148427E-004  0.2117228E+03  0.7818608E-02  0.1140209E+00
          2   -1    0    0  501    0  0.00000000000E+00  0.00000000000E+00  0.28168455267E+03  0.28168455268E+03  0.25500000000E-02 0.  1.
         -2   -1    0    0    0  501 -0.00000000000E+00 -0.00000000000E+00 -0.39784355812E+02  0.39784355894E+02  0.25500000000E-02 0. -1.
    5000001    1    1    2    0    0  0.55187066079E+02  0.46653278695E+02  0.13226131248E+03  0.16924596141E+03  0.77000000000E+02 0.  0.
   -5000001    1    1    2    0    0 -0.55187066079E+02 -0.46653278695E+02  0.10963888438E+03  0.15222294716E+03  0.77000000000E+02 0.  0.
<mgrwt>
<rscale>  0 0.21172282E+03</rscale>
<asrwt>0</asrwt>
<pdfrwt beam="1">  1        2 0.43336085E-01 0.21172282E+03</pdfrwt>
<pdfrwt beam="2">  1       -2 0.61206701E-02 0.21172282E+03</pdfrwt>
<totfact> 0.16337873E+04</totfact>
</mgrwt>
</event>
<event>
 4    1  0.6148427E-004  0.2392394E+03  0.7818608E-02  0.1120301E+00
          2   -1    0    0  501    0  0.00000000000E+00  0.00000000000E+00  0.28398558500E+03  0.28398558501E+03  0.25500000000E-02 0.  1.
         -2   -1    0    0    0  501 -0.00000000000E+00 -0.00000000000E+00 -0.50385930510E+02  0.50385930575E+02  0.25500000000E-02 0. -1.
    5000001    1    1    2    0    0  0.74428657275E+02  0.52474964021E+02  0.12980851176E+03  0.17627392489E+03  0.77000000000E+02 0.  0.
   -5000001    1    1    2    0    0 -0.74428657275E+02 -0.52474964021E+02  0.10379114273E+03  0.15809759069E+03  0.77000000000E+02 0.  0.
<mgrwt>
<rscale>  0 0.23923944E+03</rscale>
<asrwt>0</asrwt>
<pdfrwt beam="1">  1        2 0.43690090E-01 0.23923944E+03</pdfrwt>
<pdfrwt beam="2">  1       -2 0.77516816E-02 0.23923944E+03</pdfrwt>
<totfact> 0.11332551E+04</totfact>
</mgrwt>
</event>
<event>
 4    1  0.6148427E-004  0.2206202E+03  0.7818608E-02  0.1133421E+00
         -2   -1    0    0    0  501 -0.00000000000E+00  0.00000000000E+00  0.99351512104E+01  0.99351515377E+01  0.25500000000E-02 0. -1.
          2   -1    0    0  501    0  0.00000000000E+00 -0.00000000000E+00 -0.12247746551E+04  0.12247746551E+04  0.25500000000E-02 0.  1.
    5000001    1    1    2    0    0  0.73835935187E+02 -0.11931459603E+02 -0.46526142270E+03  0.47748434163E+03  0.77000000000E+02 0.  0.
   -5000001    1    1    2    0    0 -0.73835935187E+02  0.11931459603E+02 -0.74957808118E+03  0.75722546499E+03  0.77000000000E+02 0.  0.
<mgrwt>
<rscale>  0 0.22062023E+03</rscale>
<asrwt>0</asrwt>
<pdfrwt beam="1">  1        2 0.18842675E+00 0.22062023E+03</pdfrwt>
<pdfrwt beam="2">  1       -2 0.15284858E-02 0.22062023E+03</pdfrwt>
<totfact> 0.21923793E+04</totfact>
</mgrwt>
</event>
<event>
 4    1  0.6148427E-004  0.2624955E+03  0.7818608E-02  0.1105653E+00
          2   -1    0    0  501    0  0.00000000000E+00  0.00000000000E+00  0.28367885677E+04  0.28367885677E+04  0.25500000000E-02 0.  1.
         -2   -1    0    0    0  501 -0.00000000000E+00 -0.00000000000E+00 -0.60723500911E+01  0.60723506265E+01  0.25500000000E-02 0. -1.
    5000001    1    1    2    0    0  0.49175808664E+02  0.94151603439E+02  0.13745621490E+04  0.13808087797E+04  0.77000000000E+02 0.  0.
   -5000001    1    1    2    0    0 -0.49175808664E+02 -0.94151603439E+02  0.14561540686E+04  0.14620521387E+04  0.77000000000E+02 0.  0.
<mgrwt>
<rscale>  0 0.26249552E+03</rscale>
<asrwt>0</asrwt>
<pdfrwt beam="1">  1        2 0.43642869E+00 0.26249552E+03</pdfrwt>
<pdfrwt beam="2">  1       -2 0.93420844E-03 0.26249552E+03</pdfrwt>
<totfact> 0.61110965E+03</totfact>
</mgrwt>
</event>
<event>
 4    1  0.6148427E-004  0.2024495E+03  0.7818608E-02  0.1147689E+00
          2   -1    0    0  501    0  0.00000000000E+00  0.00000000000E+00  0.40442548631E+03  0.40442548631E+03  0.25500000000E-02 0.  1.
         -2   -1    0    0    0  501 -0.00000000000E+00 -0.00000000000E+00 -0.25335809911E+02  0.25335810039E+02  0.25500000000E-02 0. -1.
    5000001    1    1    2    0    0 -0.36634549882E+02  0.11816157755E+02  0.30258779441E+03  0.31459511305E+03  0.77000000000E+02 0.  0.
   -5000001    1    1    2    0    0  0.36634549882E+02 -0.11816157755E+02  0.76501881980E+02  0.11516618330E+03  0.77000000000E+02 0.  0.
<mgrwt>
<rscale>  0 0.20244947E+03</rscale>
<asrwt>0</asrwt>
<pdfrwt beam="1">  1        2 0.62219306E-01 0.20244947E+03</pdfrwt>
<pdfrwt beam="2">  1       -2 0.38978169E-02 0.20244947E+03</pdfrwt>
<totfact> 0.21854568E+04</totfact>
</mgrwt>
</event>
<event>
 4    1  0.6148427E-004  0.1711497E+03  0.7818608E-02  0.1176654E+00
          2   -1    0    0  501    0  0.00000000000E+00  0.00000000000E+00  0.34941826225E+03  0.34941826226E+03  0.25500000000E-02 0.  1.
         -2   -1    0    0    0  501 -0.00000000000E+00 -0.00000000000E+00 -0.20957838397E+02  0.20957838552E+02  0.25500000000E-02 0. -1.
    5000001    1    1    2    0    0  0.33241915302E+02 -0.16797451406E+02  0.15855718672E+03  0.18015704474E+03  0.77000000000E+02 0.  0.
   -5000001    1    1    2    0    0 -0.33241915302E+02  0.16797451406E+02  0.16990323713E+03  0.19021905608E+03  0.77000000000E+02 0.  0.
<mgrwt>
<rscale>  0 0.17114966E+03</rscale>
<asrwt>0</asrwt>
<pdfrwt beam="1">  1        2 0.53756656E-01 0.17114966E+03</pdfrwt>
<pdfrwt beam="2">  1       -2 0.32242828E-02 0.17114966E+03</pdfrwt>
<totfact> 0.33439520E+04</totfact>
</mgrwt>
</event>
<event>
 4    1  0.6148427E-004  0.2108004E+03  0.7818608E-02  0.1140934E+00
          2   -1    0    0  501    0  0.00000000000E+00  0.00000000000E+00  0.63993652262E+03  0.63993652263E+03  0.25500000000E-02 0.  1.
         -2   -1    0    0    0  501 -0.00000000000E+00 -0.00000000000E+00 -0.17359848651E+02  0.17359848838E+02  0.25500000000E-02 0. -1.
    5000001    1    1    2    0    0  0.19931054932E+02  0.51530916648E+02  0.16746593500E+03  0.19242276816E+03  0.77000000000E+02 0.  0.
   -5000001    1    1    2    0    0 -0.19931054932E+02 -0.51530916648E+02  0.45511073898E+03  0.46487360331E+03  0.77000000000E+02 0.  0.
<mgrwt>
<rscale>  0 0.21080039E+03</rscale>
<asrwt>0</asrwt>
<pdfrwt beam="1">  1        2 0.98451766E-01 0.21080039E+03</pdfrwt>
<pdfrwt beam="2">  1       -2 0.26707462E-02 0.21080039E+03</pdfrwt>
<totfact> 0.22998505E+04</totfact>
</mgrwt>
</event>
<event>
 4    1  0.6148427E-004  0.1814004E+03  0.7818608E-02  0.1166455E+00
         -2   -1    0    0    0  501 -0.00000000000E+00  0.00000000000E+00  0.43477151100E+01  0.43477158578E+01  0.25500000000E-02 0. -1.
          2   -1    0    0  501    0  0.00000000000E+00 -0.00000000000E+00 -0.18921486819E+04  0.18921486819E+04  0.25500000000E-02 0.  1.
    5000001    1    1    2    0    0  0.36684881912E+02  0.16389338315E+02 -0.67064648833E+03  0.67624707266E+03  0.77000000000E+02 0.  0.
   -5000001    1    1    2    0    0 -0.36684881912E+02 -0.16389338315E+02 -0.12171544784E+04  0.12202493251E+04  0.77000000000E+02 0.  0.
<mgrwt>
<rscale>  0 0.18140038E+03</rscale>
<asrwt>0</asrwt>
<pdfrwt beam="1">  1        2 0.29109914E+00 0.18140038E+03</pdfrwt>
<pdfrwt beam="2">  1       -2 0.66888082E-03 0.18140038E+03</pdfrwt>
<totfact> 0.31672815E+04</totfact>
</mgrwt>
</event>
<event>
 4    1  0.6148427E-004  0.3165137E+03  0.7818608E-02  0.1077265E+00
         -2   -1    0    0    0  501 -0.00000000000E+00  0.00000000000E+00  0.10419942837E+02  0.10419943149E+02  0.25500000000E-02 0. -1.
          2   -1    0    0  501    0  0.00000000000E+00 -0.00000000000E+00 -0.24035854766E+04  0.24035854766E+04  0.25500000000E-02 0.  1.
    5000001    1    1    2    0    0  0.71588875284E+02 -0.50288379946E+02 -0.38003359132E+03  0.39750272798E+03  0.77000000000E+02 0.  0.
   -5000001    1    1    2    0    0 -0.71588875284E+02  0.50288379946E+02 -0.20131319424E+04  0.20165026917E+04  0.77000000000E+02 0.  0.
<mgrwt>
<rscale>  0 0.31651366E+03</rscale>
<asrwt>0</asrwt>
<pdfrwt beam="1">  1        2 0.36978194E+00 0.31651366E+03</pdfrwt>
<pdfrwt beam="2">  1       -2 0.16030701E-02 0.31651366E+03</pdfrwt>
<totfact> 0.48395701E+03</totfact>
</mgrwt>
</event>
<event>
 4    1  0.6148427E-004  0.2510070E+03  0.7818608E-02  0.1112670E+00
         -2   -1    0    0    0  501 -0.00000000000E+00  0.00000000000E+00  0.12292680153E+03  0.12292680156E+03  0.25500000000E-02 0. -1.
          2   -1    0    0  501    0  0.00000000000E+00 -0.00000000000E+00 -0.12813418179E+03  0.12813418182E+03  0.25500000000E-02 0.  1.
    5000001    1    1    2    0    0  0.83338446011E+02  0.11442182168E+02 -0.55016349368E+02  0.12661760863E+03  0.77000000000E+02 0.  0.
   -5000001    1    1    2    0    0 -0.83338446011E+02 -0.11442182168E+02  0.49808969103E+02  0.12444337475E+03  0.77000000000E+02 0.  0.
<mgrwt>
<rscale>  0 0.25100697E+03</rscale>
<asrwt>0</asrwt>
<pdfrwt beam="1">  1        2 0.19712951E-01 0.25100697E+03</pdfrwt>
<pdfrwt beam="2">  1       -2 0.18911816E-01 0.25100697E+03</pdfrwt>
<totfact> 0.64493429E+03</totfact>
</mgrwt>
</event>
<event>
 4    1  0.6148427E-004  0.2513371E+03  0.7818608E-02  0.1112463E+00
         -2   -1    0    0    0  501 -0.00000000000E+00  0.00000000000E+00  0.20802153707E+03  0.20802153709E+03  0.25500000000E-02 0. -1.
          2   -1    0    0  501    0  0.00000000000E+00 -0.00000000000E+00 -0.75917997488E+02  0.75917997531E+02  0.25500000000E-02 0.  1.
    5000001    1    1    2    0    0 -0.78458951853E+02  0.13943745145E+02 -0.91041993369E+00  0.11081545027E+03  0.77000000000E+02 0.  0.
   -5000001    1    1    2    0    0  0.78458951853E+02 -0.13943745145E+02  0.13301395952E+03  0.17312408435E+03  0.77000000000E+02 0.  0.
<mgrwt>
<rscale>  0 0.25133705E+03</rscale>
<asrwt>0</asrwt>
<pdfrwt beam="1">  1        2 0.11679692E-01 0.25133705E+03</pdfrwt>
<pdfrwt beam="2">  1       -2 0.32003313E-01 0.25133705E+03</pdfrwt>
<totfact> 0.47434925E+03</totfact>
</mgrwt>
</event>
<event>
 4    1  0.6148427E-004  0.3314395E+03  0.7818608E-02  0.1070502E+00
          2   -1    0    0  501    0  0.00000000000E+00  0.00000000000E+00  0.67939630944E+03  0.67939630945E+03  0.25500000000E-02 0. -1.
         -2   -1    0    0    0  501 -0.00000000000E+00 -0.00000000000E+00 -0.40422711550E+02  0.40422711631E+02  0.25500000000E-02 0.  1.
    5000001    1    1    2    0    0  0.64731271063E+01  0.91486267635E+02  0.56827265578E+03  0.58075334682E+03  0.77000000000E+02 0.  0.
   -5000001    1    1    2    0    0 -0.64731271063E+01 -0.91486267635E+02  0.70700942114E+02  0.13906567426E+03  0.77000000000E+02 0.  0.
<mgrwt>
<rscale>  0 0.33143953E+03</rscale>
<asrwt>0</asrwt>
<pdfrwt beam="1">  1        2 0.10452250E+00 0.33143953E+03</pdfrwt>
<pdfrwt beam="2">  1       -2 0.62188791E-02 0.33143953E+03</pdfrwt>
<totfact> 0.61092040E+03</totfact>
</mgrwt>
</event>
<event>
 4    1  0.6148427E-004  0.2445789E+03  0.7818608E-02  0.1116780E+00
         -2   -1    0    0    0  501 -0.00000000000E+00  0.00000000000E+00  0.20396878090E+02  0.20396878249E+02  0.25500000000E-02 0. -1.
          2   -1    0    0  501    0  0.00000000000E+00 -0.00000000000E+00 -0.73318644330E+03  0.73318644330E+03  0.25500000000E-02 0.  1.
    5000001    1    1    2    0    0  0.72441048983E+02 -0.52625920347E+02 -0.45424342339E+03  0.46934345714E+03  0.77000000000E+02 0.  0.
   -5000001    1    1    2    0    0 -0.72441048983E+02  0.52625920347E+02 -0.25854614182E+03  0.28423986441E+03  0.77000000000E+02 0.  0.
<mgrwt>
<rscale>  0 0.24457894E+03</rscale>
<asrwt>0</asrwt>
<pdfrwt beam="1">  1        2 0.11279789E+00 0.24457894E+03</pdfrwt>
<pdfrwt beam="2">  1       -2 0.31379818E-02 0.24457894E+03</pdfrwt>
<totfact> 0.15516562E+04</totfact>
</mgrwt>
</event>
<event>
 4    1  0.6148427E-004  0.4923548E+03  0.7818608E-02  0.1015794E+00
         -2   -1    0    0    0  501 -0.00000000000E+00  0.00000000000E+00  0.49302097831E+02  0.49302097897E+02  0.25500000000E-02 0. -1.
          2   -1    0    0  501    0  0.00000000000E+00 -0.00000000000E+00 -0.12292235839E+04  0.12292235839E+04  0.25500000000E-02 0.  1.
    5000001    1    1    2    0    0  0.16544595621E+03  0.61109798140E+02 -0.98860760438E+03  0.10071647171E+04  0.77000000000E+02 0.  0.
   -5000001    1    1    2    0    0 -0.16544595621E+03 -0.61109798140E+02 -0.19131388167E+03  0.27136096472E+03  0.77000000000E+02 0.  0.
<mgrwt>
<rscale>  0 0.49235476E+03</rscale>
<asrwt>0</asrwt>
<pdfrwt beam="1">  1        2 0.18911130E+00 0.49235476E+03</pdfrwt>
<pdfrwt beam="2">  1       -2 0.75849390E-02 0.49235476E+03</pdfrwt>
<totfact> 0.19719104E+03</totfact>
</mgrwt>
</event>
<event>
 4    1  0.6148427E-004  0.2183823E+03  0.7818608E-02  0.1135095E+00
         -2   -1    0    0    0  501 -0.00000000000E+00  0.00000000000E+00  0.12113177761E+03  0.12113177764E+03  0.25500000000E-02 0. -1.
          2   -1    0    0  501    0  0.00000000000E+00 -0.00000000000E+00 -0.98427558006E+02  0.98427558039E+02  0.25500000000E-02 0.  1.
    5000001    1    1    2    0    0 -0.44725854382E+02  0.60720004098E+02  0.28950285208E+02  0.11159946219E+03  0.77000000000E+02 0.  0.
   -5000001    1    1    2    0    0  0.44725854382E+02 -0.60720004098E+02 -0.62460656007E+01  0.10795987349E+03  0.77000000000E+02 0.  0.
<mgrwt>
<rscale>  0 0.21838228E+03</rscale>
<asrwt>0</asrwt>
<pdfrwt beam="1">  1        2 0.15142701E-01 0.21838228E+03</pdfrwt>
<pdfrwt beam="2">  1       -2 0.18635658E-01 0.21838228E+03</pdfrwt>
<totfact> 0.89220531E+03</totfact>
</mgrwt>
</event>
<event>
 4    1  0.6148427E-004  0.3098394E+03  0.7818608E-02  0.1080423E+00
          2   -1    0    0  501    0  0.00000000000E+00  0.00000000000E+00  0.67772317601E+02  0.67772317649E+02  0.25500000000E-02 0.  1.
         -2   -1    0    0    0  501 -0.00000000000E+00 -0.00000000000E+00 -0.35412849701E+03  0.35412849701E+03  0.25500000000E-02 0. -1.
    5000001    1    1    2    0    0  0.75371321616E+01  0.10157177393E+03 -0.26264507791E+03  0.29203607752E+03  0.77000000000E+02 0.  0.
   -5000001    1    1    2    0    0 -0.75371321616E+01 -0.10157177393E+03 -0.23711101494E+02  0.12986473715E+03  0.77000000000E+02 0.  0.
<mgrwt>
<rscale>  0 0.30983937E+03</rscale>
<asrwt>0</asrwt>
<pdfrwt beam="1">  1        2 0.10426511E-01 0.30983937E+03</pdfrwt>
<pdfrwt beam="2">  1       -2 0.54481306E-01 0.30983937E+03</pdfrwt>
<totfact> 0.19663843E+03</totfact>
</mgrwt>
</event>
<event>
 4    1  0.6148427E-004  0.3214623E+03  0.7818608E-02  0.1074978E+00
          2   -1    0    0  501    0  0.00000000000E+00  0.00000000000E+00  0.11979137403E+04  0.11979137403E+04  0.25500000000E-02 0.  1.
         -2   -1    0    0    0  501 -0.00000000000E+00 -0.00000000000E+00 -0.21566242449E+02  0.21566242600E+02  0.25500000000E-02 0. -1.
    5000001    1    1    2    0    0 -0.88936751153E+02 -0.10112614734E+03  0.42860793035E+03  0.45581794758E+03  0.77000000000E+02 0.  0.
   -5000001    1    1    2    0    0  0.88936751153E+02  0.10112614734E+03  0.74773956751E+03  0.76366203533E+03  0.77000000000E+02 0.  0.
<mgrwt>
<rscale>  0 0.32146227E+03</rscale>
<asrwt>0</asrwt>
<pdfrwt beam="1">  1        2 0.18429443E+00 0.32146227E+03</pdfrwt>
<pdfrwt beam="2">  1       -2 0.33178833E-02 0.32146227E+03</pdfrwt>
<totfact> 0.73190429E+03</totfact>
</mgrwt>
</event>
<event>
 4    1  0.6148427E-004  0.3890226E+03  0.7818608E-02  0.1047648E+00
          2   -1    0    0  501    0  0.00000000000E+00  0.00000000000E+00  0.40166559959E+03  0.40166559960E+03  0.25500000000E-02 0.  1.
         -2   -1    0    0    0  501 -0.00000000000E+00 -0.00000000000E+00 -0.94194385123E+02  0.94194385157E+02  0.25500000000E-02 0. -1.
    5000001    1    1    2    0    0 -0.17365680320E+03  0.39872469707E+02  0.13765580112E+03  0.23795927954E+03  0.77000000000E+02 0.  0.
   -5000001    1    1    2    0    0  0.17365680320E+03 -0.39872469707E+02  0.16981541335E+03  0.25790070522E+03  0.77000000000E+02 0.  0.
<mgrwt>
<rscale>  0 0.38902259E+03</rscale>
<asrwt>0</asrwt>
<pdfrwt beam="1">  1        2 0.61794707E-01 0.38902259E+03</pdfrwt>
<pdfrwt beam="2">  1       -2 0.14491444E-01 0.38902259E+03</pdfrwt>
<totfact> 0.28976144E+03</totfact>
</mgrwt>
</event>
<event>
 4    1  0.6148427E-004  0.2120337E+03  0.7818608E-02  0.1139966E+00
         -2   -1    0    0    0  501 -0.00000000000E+00  0.00000000000E+00  0.22522320309E+02  0.22522320454E+02  0.25500000000E-02 0. -1.
          2   -1    0    0  501    0  0.00000000000E+00 -0.00000000000E+00 -0.49904163708E+03  0.49904163708E+03  0.25500000000E-02 0.  1.
    5000001    1    1    2    0    0  0.66242597437E+02 -0.12514482954E+02 -0.17018531703E+03  0.19858684783E+03  0.77000000000E+02 0.  0.
   -5000001    1    1    2    0    0 -0.66242597437E+02  0.12514482954E+02 -0.30633399974E+03  0.32297710971E+03  0.77000000000E+02 0.  0.
<mgrwt>
<rscale>  0 0.21203373E+03</rscale>
<asrwt>0</asrwt>
<pdfrwt beam="1">  1        2 0.76775628E-01 0.21203373E+03</pdfrwt>
<pdfrwt beam="2">  1       -2 0.34649727E-02 0.21203373E+03</pdfrwt>
<totfact> 0.20762680E+04</totfact>
</mgrwt>
</event>
<event>
 4    1  0.6148427E-004  0.2423730E+03  0.7818608E-02  0.1118222E+00
          2   -1    0    0  501    0  0.00000000000E+00  0.00000000000E+00  0.38330155946E+03  0.38330155947E+03  0.25500000000E-02 0.  1.
         -2   -1    0    0    0  501 -0.00000000000E+00 -0.00000000000E+00 -0.38314913112E+02  0.38314913197E+02  0.25500000000E-02 0. -1.
    5000001    1    1    2    0    0 -0.82056528350E+02 -0.42929679868E+02  0.14909448463E+03  0.19166219399E+03  0.77000000000E+02 0.  0.
   -5000001    1    1    2    0    0  0.82056528350E+02  0.42929679868E+02  0.19589216172E+03  0.22995427867E+03  0.77000000000E+02 0.  0.
<mgrwt>
<rscale>  0 0.24237299E+03</rscale>
<asrwt>0</asrwt>
<pdfrwt beam="1">  1        2 0.58969472E-01 0.24237299E+03</pdfrwt>
<pdfrwt beam="2">  1       -2 0.58946019E-02 0.24237299E+03</pdfrwt>
<totfact> 0.12532247E+04</totfact>
</mgrwt>
</event>
<event>
 4    1  0.6148427E-004  0.3135663E+03  0.7818608E-02  0.1078649E+00
         -2   -1    0    0    0  501 -0.00000000000E+00  0.00000000000E+00  0.35243057620E+02  0.35243057712E+02  0.25500000000E-02 0. -1.
          2   -1    0    0  501    0  0.00000000000E+00 -0.00000000000E+00 -0.69746941976E+03  0.69746941977E+03  0.25500000000E-02 0.  1.
    5000001    1    1    2    0    0  0.13569819528E+03 -0.78678868235E+00 -0.29511456603E+03  0.33382064993E+03  0.77000000000E+02 0.  0.
   -5000001    1    1    2    0    0 -0.13569819528E+03  0.78678868235E+00 -0.36711179611E+03  0.39889182755E+03  0.77000000000E+02 0.  0.
<mgrwt>
<rscale>  0 0.31356629E+03</rscale>
<asrwt>0</asrwt>
<pdfrwt beam="1">  1        2 0.10730298E+00 0.31356629E+03</pdfrwt>
<pdfrwt beam="2">  1       -2 0.54220094E-02 0.31356629E+03</pdfrwt>
<totfact> 0.72966092E+03</totfact>
</mgrwt>
</event>
<event>
 4    1  0.6148427E-004  0.2402388E+03  0.7818608E-02  0.1119634E+00
          2   -1    0    0  501    0  0.00000000000E+00  0.00000000000E+00  0.11562748119E+04  0.11562748119E+04  0.25500000000E-02 0.  1.
         -2   -1    0    0    0  501 -0.00000000000E+00 -0.00000000000E+00 -0.12478579683E+02  0.12478579943E+02  0.25500000000E-02 0. -1.
    5000001    1    1    2    0    0  0.38408232076E+02  0.77906767640E+02  0.72224135955E+03  0.73150956124E+03  0.77000000000E+02 0.  0.
   -5000001    1    1    2    0    0 -0.38408232076E+02 -0.77906767640E+02  0.42155487263E+03  0.43724383057E+03  0.77000000000E+02 0.  0.
<mgrwt>
<rscale>  0 0.24023878E+03</rscale>
<asrwt>0</asrwt>
<pdfrwt beam="1">  1        2 0.17788840E+00 0.24023878E+03</pdfrwt>
<pdfrwt beam="2">  1       -2 0.19197818E-02 0.24023878E+03</pdfrwt>
<totfact> 0.17251372E+04</totfact>
</mgrwt>
</event>
<event>
 4    1  0.6148427E-004  0.2912611E+03  0.7818608E-02  0.1089693E+00
          2   -1    0    0  501    0  0.00000000000E+00  0.00000000000E+00  0.19146317473E+04  0.19146317473E+04  0.25500000000E-02 0.  1.
         -2   -1    0    0    0  501 -0.00000000000E+00 -0.00000000000E+00 -0.11076940243E+02  0.11076940537E+02  0.25500000000E-02 0. -1.
    5000001    1    1    2    0    0  0.56467475749E+01  0.12347442949E+03  0.95971476933E+03  0.97070039608E+03  0.77000000000E+02 0.  0.
   -5000001    1    1    2    0    0 -0.56467475749E+01 -0.12347442949E+03  0.94384003774E+03  0.95500829176E+03  0.77000000000E+02 0.  0.
<mgrwt>
<rscale>  0 0.29126113E+03</rscale>
<asrwt>0</asrwt>
<pdfrwt beam="1">  1        2 0.29455891E+00 0.29126113E+03</pdfrwt>
<pdfrwt beam="2">  1       -2 0.17041437E-02 0.29126113E+03</pdfrwt>
<totfact> 0.80661272E+03</totfact>
</mgrwt>
</event>
<event>
 4    1  0.6148427E-004  0.2367625E+03  0.7818608E-02  0.1121969E+00
          2   -1    0    0  501    0  0.00000000000E+00  0.00000000000E+00  0.88823435395E+02  0.88823435432E+02  0.25500000000E-02 0.  1.
         -2   -1    0    0    0  501 -0.00000000000E+00 -0.00000000000E+00 -0.15777504093E+03  0.15777504095E+03  0.25500000000E-02 0. -1.
    5000001    1    1    2    0    0  0.93552438936E+01  0.87622533115E+02 -0.53104364624E+02  0.12850798590E+03  0.77000000000E+02 0.  0.
   -5000001    1    1    2    0    0 -0.93552438936E+01 -0.87622533115E+02 -0.15847240911E+02  0.11809049048E+03  0.77000000000E+02 0.  0.
<mgrwt>
<rscale>  0 0.23676251E+03</rscale>
<asrwt>0</asrwt>
<pdfrwt beam="1">  1        2 0.13665144E-01 0.23676251E+03</pdfrwt>
<pdfrwt beam="2">  1       -2 0.24273083E-01 0.23676251E+03</pdfrwt>
<totfact> 0.64243314E+03</totfact>
</mgrwt>
</event>
<event>
 4    1  0.6148427E-004  0.2030108E+03  0.7818608E-02  0.1147223E+00
         -2   -1    0    0    0  501 -0.00000000000E+00  0.00000000000E+00  0.43528703365E+01  0.43528710834E+01  0.25500000000E-02 0. -1.
          2   -1    0    0  501    0  0.00000000000E+00 -0.00000000000E+00 -0.23670234062E+04  0.23670234062E+04  0.25500000000E-02 0.  1.
    5000001    1    1    2    0    0  0.52152549240E+02  0.31019097824E+02 -0.87399438341E+03  0.87947555683E+03  0.77000000000E+02 0.  0.
   -5000001    1    1    2    0    0 -0.52152549240E+02 -0.31019097824E+02 -0.14886761525E+04  0.14919007205E+04  0.77000000000E+02 0.  0.
<mgrwt>
<rscale>  0 0.20301081E+03</rscale>
<asrwt>0</asrwt>
<pdfrwt beam="1">  1        2 0.36415642E+00 0.20301081E+03</pdfrwt>
<pdfrwt beam="2">  1       -2 0.66967431E-03 0.20301081E+03</pdfrwt>
<totfact> 0.17920703E+04</totfact>
</mgrwt>
</event>
<event>
 4    1  0.6148427E-004  0.2391907E+03  0.7818608E-02  0.1120333E+00
         -2   -1    0    0    0  501 -0.00000000000E+00  0.00000000000E+00  0.12474436338E+03  0.12474436341E+03  0.25500000000E-02 0. -1.
          2   -1    0    0  501    0  0.00000000000E+00 -0.00000000000E+00 -0.11465889811E+03  0.11465889814E+03  0.25500000000E-02 0.  1.
    5000001    1    1    2    0    0  0.15947690768E+02 -0.88784504975E+02  0.20452324188E+02  0.12035079862E+03  0.77000000000E+02 0.  0.
   -5000001    1    1    2    0    0 -0.15947690768E+02  0.88784504975E+02 -0.10366858920E+02  0.11905246292E+03  0.77000000000E+02 0.  0.
<mgrwt>
<rscale>  0 0.23919073E+03</rscale>
<asrwt>0</asrwt>
<pdfrwt beam="1">  1        2 0.17639830E-01 0.23919073E+03</pdfrwt>
<pdfrwt beam="2">  1       -2 0.19191441E-01 0.23919073E+03</pdfrwt>
<totfact> 0.71349160E+03</totfact>
</mgrwt>
</event>
<event>
 4    1  0.6148427E-004  0.4912506E+03  0.7818608E-02  0.1016088E+00
          2   -1    0    0  501    0  0.00000000000E+00  0.00000000000E+00  0.78101148909E+03  0.78101148909E+03  0.25500000000E-02 0.  1.
         -2   -1    0    0    0  501 -0.00000000000E+00 -0.00000000000E+00 -0.77248275370E+02  0.77248275412E+02  0.25500000000E-02 0. -1.
    5000001    1    1    2    0    0 -0.12784207452E+03 -0.70545661017E+02  0.66965302982E+03  0.68969882315E+03  0.77000000000E+02 0.  0.
   -5000001    1    1    2    0    0  0.12784207452E+03  0.70545661017E+02  0.34110183898E+02  0.16856094136E+03  0.77000000000E+02 0.  0.
<mgrwt>
<rscale>  0 0.49125061E+03</rscale>
<asrwt>0</asrwt>
<pdfrwt beam="1">  1        2 0.12015561E+00 0.49125061E+03</pdfrwt>
<pdfrwt beam="2">  1       -2 0.11884350E-01 0.49125061E+03</pdfrwt>
<totfact> 0.18420482E+03</totfact>
</mgrwt>
</event>
<event>
 4    1  0.6148427E-004  0.3485125E+03  0.7818608E-02  0.1063227E+00
         -2   -1    0    0    0  501 -0.00000000000E+00  0.00000000000E+00  0.87435909231E+02  0.87435909268E+02  0.25500000000E-02 0. -1.
          2   -1    0    0  501    0  0.00000000000E+00 -0.00000000000E+00 -0.34728575871E+03  0.34728575872E+03  0.25500000000E-02 0.  1.
    5000001    1    1    2    0    0  0.72053899424E+02  0.13744963374E+03 -0.10651966451E+03  0.20337061037E+03  0.77000000000E+02 0.  0.
   -5000001    1    1    2    0    0 -0.72053899424E+02 -0.13744963374E+03 -0.15333018497E+03  0.23135105762E+03  0.77000000000E+02 0.  0.
<mgrwt>
<rscale>  0 0.34851253E+03</rscale>
<asrwt>0</asrwt>
<pdfrwt beam="1">  1        2 0.53428578E-01 0.34851253E+03</pdfrwt>
<pdfrwt beam="2">  1       -2 0.13451679E-01 0.34851253E+03</pdfrwt>
<totfact> 0.38348302E+03</totfact>
</mgrwt>
</event>
<event>
 4    1  0.6148427E-004  0.4892406E+03  0.7818608E-02  0.1016626E+00
         -2   -1    0    0    0  501 -0.00000000000E+00  0.00000000000E+00  0.23730134453E+03  0.23730134454E+03  0.25500000000E-02 0. -1.
          2   -1    0    0  501    0  0.00000000000E+00 -0.00000000000E+00 -0.25216496475E+03  0.25216496476E+03  0.25500000000E-02 0.  1.
    5000001    1    1    2    0    0  0.48231399486E+02  0.22528678850E+03  0.21385650122E+02  0.24385805502E+03  0.77000000000E+02 0.  0.
   -5000001    1    1    2    0    0 -0.48231399486E+02 -0.22528678850E+03 -0.36249270347E+02  0.24560825428E+03  0.77000000000E+02 0.  0.
<mgrwt>
<rscale>  0 0.48924058E+03</rscale>
<asrwt>0</asrwt>
<pdfrwt beam="1">  1        2 0.38794610E-01 0.48924058E+03</pdfrwt>
<pdfrwt beam="2">  1       -2 0.36507899E-01 0.48924058E+03</pdfrwt>
<totfact> 0.94329778E+02</totfact>
</mgrwt>
</event>
<event>
 4    1  0.6148427E-004  0.2364649E+03  0.7818608E-02  0.1122170E+00
          2   -1    0    0  501    0  0.00000000000E+00  0.00000000000E+00  0.83713368769E+03  0.83713368769E+03  0.25500000000E-02 0.  1.
         -2   -1    0    0    0  501 -0.00000000000E+00 -0.00000000000E+00 -0.16698541680E+02  0.16698541875E+02  0.25500000000E-02 0. -1.
    5000001    1    1    2    0    0 -0.79186643187E+02 -0.16166256969E+02  0.55090244719E+03  0.56209819306E+03  0.77000000000E+02 0.  0.
   -5000001    1    1    2    0    0  0.79186643187E+02  0.16166256969E+02  0.26953269882E+03  0.29173403651E+03  0.77000000000E+02 0.  0.
<mgrwt>
<rscale>  0 0.23646490E+03</rscale>
<asrwt>0</asrwt>
<pdfrwt beam="1">  1        2 0.12878976E+00 0.23646490E+03</pdfrwt>
<pdfrwt beam="2">  1       -2 0.25690072E-02 0.23646490E+03</pdfrwt>
<totfact> 0.17636384E+04</totfact>
</mgrwt>
</event>
<event>
 4    1  0.6148427E-004  0.1905576E+03  0.7818608E-02  0.1157959E+00
          2   -1    0    0  501    0  0.00000000000E+00  0.00000000000E+00  0.90730985215E+02  0.90730985251E+02  0.25500000000E-02 0.  1.
         -2   -1    0    0    0  501 -0.00000000000E+00 -0.00000000000E+00 -0.10005457821E+03  0.10005457824E+03  0.25500000000E-02 0. -1.
    5000001    1    1    2    0    0 -0.52092407030E+02 -0.10111048702E+01 -0.25529216339E+02  0.96412561890E+02  0.77000000000E+02 0.  0.
   -5000001    1    1    2    0    0  0.52092407030E+02  0.10111048702E+01  0.16205623347E+02  0.94373001602E+02  0.77000000000E+02 0.  0.
<mgrwt>
<rscale>  0 0.19055761E+03</rscale>
<asrwt>0</asrwt>
<pdfrwt beam="1">  1        2 0.13958613E-01 0.19055761E+03</pdfrwt>
<pdfrwt beam="2">  1       -2 0.15393012E-01 0.19055761E+03</pdfrwt>
<totfact> 0.13395412E+04</totfact>
</mgrwt>
</event>
<event>
 4    1  0.6148427E-004  0.4676016E+03  0.7818608E-02  0.1022599E+00
          2   -1    0    0  501    0  0.00000000000E+00  0.00000000000E+00  0.50488011159E+03  0.50488011160E+03  0.25500000000E-02 0.  1.
         -2   -1    0    0    0  501 -0.00000000000E+00 -0.00000000000E+00 -0.10826891156E+03  0.10826891159E+03  0.25500000000E-02 0. -1.
    5000001    1    1    2    0    0 -0.18463907293E+03 -0.62233232925E+02  0.33438203141E+03  0.39459460901E+03  0.77000000000E+02 0.  0.
   -5000001    1    1    2    0    0  0.18463907293E+03  0.62233232925E+02  0.62229168623E+02  0.21855441418E+03  0.77000000000E+02 0.  0.
<mgrwt>
<rscale>  0 0.46760163E+03</rscale>
<asrwt>0</asrwt>
<pdfrwt beam="1">  1        2 0.77673863E-01 0.46760163E+03</pdfrwt>
<pdfrwt beam="2">  1       -2 0.16656756E-01 0.46760163E+03</pdfrwt>
<totfact> 0.17783073E+03</totfact>
</mgrwt>
</event>
<event>
 4    1  0.6148427E-004  0.2178582E+03  0.7818608E-02  0.1135490E+00
         -2   -1    0    0    0  501 -0.00000000000E+00  0.00000000000E+00  0.28987577169E+02  0.28987577281E+02  0.25500000000E-02 0. -1.
          2   -1    0    0  501    0  0.00000000000E+00 -0.00000000000E+00 -0.40933219735E+03  0.40933219736E+03  0.25500000000E-02 0.  1.
    5000001    1    1    2    0    0 -0.34089394687E+02  0.60633290988E+02 -0.12350217211E+03  0.16130799522E+03  0.77000000000E+02 0.  0.
   -5000001    1    1    2    0    0  0.34089394687E+02 -0.60633290988E+02 -0.25684244807E+03  0.27701177942E+03  0.77000000000E+02 0.  0.
<mgrwt>
<rscale>  0 0.21785820E+03</rscale>
<asrwt>0</asrwt>
<pdfrwt beam="1">  1        2 0.62974180E-01 0.21785820E+03</pdfrwt>
<pdfrwt beam="2">  1       -2 0.44596275E-02 0.21785820E+03</pdfrwt>
<totfact> 0.17713523E+04</totfact>
</mgrwt>
</event>
<event>
 4    1  0.6148427E-004  0.2569530E+03  0.7818608E-02  0.1108988E+00
          2   -1    0    0  501    0  0.00000000000E+00  0.00000000000E+00  0.27079883558E+04  0.27079883558E+04  0.25500000000E-02 0.  1.
         -2   -1    0    0    0  501 -0.00000000000E+00 -0.00000000000E+00 -0.60953769967E+01  0.60953775301E+01  0.25500000000E-02 0. -1.
    5000001    1    1    2    0    0 -0.56993593058E+02 -0.83502099640E+02  0.11515570906E+04  0.11585480582E+04  0.77000000000E+02 0.  0.
   -5000001    1    1    2    0    0  0.56993593058E+02  0.83502099640E+02  0.15503358882E+04  0.15555356751E+04  0.77000000000E+02 0.  0.
<mgrwt>
<rscale>  0 0.25695300E+03</rscale>
<asrwt>0</asrwt>
<pdfrwt beam="1">  1        2 0.41661384E+00 0.25695300E+03</pdfrwt>
<pdfrwt beam="2">  1       -2 0.93774980E-03 0.25695300E+03</pdfrwt>
<totfact> 0.71952708E+03</totfact>
</mgrwt>
</event>
<event>
 4    1  0.6148427E-004  0.2020985E+03  0.7818608E-02  0.1147980E+00
          2   -1    0    0  501    0  0.00000000000E+00  0.00000000000E+00  0.24316959320E+03  0.24316959321E+03  0.25500000000E-02 0.  1.
         -2   -1    0    0    0  501 -0.00000000000E+00 -0.00000000000E+00 -0.41991068929E+02  0.41991069007E+02  0.25500000000E-02 0. -1.
    5000001    1    1    2    0    0  0.71170040705E+01 -0.29683771211E+02  0.18225880896E+03  0.20019753111E+03  0.77000000000E+02 0.  0.
   -5000001    1    1    2    0    0 -0.71170040705E+01  0.29683771211E+02  0.18919715313E+02  0.84963131109E+02  0.77000000000E+02 0.  0.
<mgrwt>
<rscale>  0 0.20209850E+03</rscale>
<asrwt>0</asrwt>
<pdfrwt beam="1">  1        2 0.37410706E-01 0.20209850E+03</pdfrwt>
<pdfrwt beam="2">  1       -2 0.64601646E-02 0.20209850E+03</pdfrwt>
<totfact> 0.17554516E+04</totfact>
</mgrwt>
</event>
<event>
 4    1  0.6148427E-004  0.6081397E+03  0.7818608E-02  0.9888661E-01
          2   -1    0    0  501    0  0.00000000000E+00  0.00000000000E+00  0.24122674095E+04  0.24122674095E+04  0.25500000000E-02 0.  1.
         -2   -1    0    0    0  501 -0.00000000000E+00 -0.00000000000E+00 -0.38328454916E+02  0.38328455001E+02  0.25500000000E-02 0. -1.
    5000001    1    1    2    0    0  0.21262151800E+03  0.19549783093E+03  0.96252900067E+03  0.10078781618E+04  0.77000000000E+02 0.  0.
   -5000001    1    1    2    0    0 -0.21262151800E+03 -0.19549783093E+03  0.14114099539E+04  0.14427177027E+04  0.77000000000E+02 0.  0.
<mgrwt>
<rscale>  0 0.60813973E+03</rscale>
<asrwt>0</asrwt>
<pdfrwt beam="1">  1        2 0.37111811E+00 0.60813973E+03</pdfrwt>
<pdfrwt beam="2">  1       -2 0.58966847E-02 0.60813973E+03</pdfrwt>
<totfact> 0.65353658E+02</totfact>
</mgrwt>
</event>
<event>
 4    1  0.6148427E-004  0.2216622E+03  0.7818608E-02  0.1132650E+00
         -2   -1    0    0    0  501 -0.00000000000E+00  0.00000000000E+00  0.45395072864E+01  0.45395080026E+01  0.25500000000E-02 0.  1.
          2   -1    0    0  501    0  0.00000000000E+00 -0.00000000000E+00 -0.27059179827E+04  0.27059179827E+04  0.25500000000E-02 0. -1.
    5000001    1    1    2    0    0 -0.48960343481E+02 -0.26694771671E+02 -0.65415013259E+03  0.66102278481E+03  0.77000000000E+02 0.  0.
   -5000001    1    1    2    0    0  0.48960343481E+02  0.26694771671E+02 -0.20472283428E+04  0.20494347059E+04  0.77000000000E+02 0.  0.
<mgrwt>
<rscale>  0 0.22166222E+03</rscale>
<asrwt>0</asrwt>
<pdfrwt beam="1">  1        2 0.41629379E+00 0.22166222E+03</pdfrwt>
<pdfrwt beam="2">  1       -2 0.69838795E-03 0.22166222E+03</pdfrwt>
<totfact> 0.11036262E+04</totfact>
</mgrwt>
</event>
<event>
 4    1  0.6148427E-004  0.2211613E+03  0.7818608E-02  0.1133020E+00
         -2   -1    0    0    0  501 -0.00000000000E+00  0.00000000000E+00  0.30434445984E+03  0.30434445985E+03  0.25500000000E-02 0. -1.
          2   -1    0    0  501    0  0.00000000000E+00 -0.00000000000E+00 -0.40178438654E+02  0.40178438735E+02  0.25500000000E-02 0.  1.
    5000001    1    1    2    0    0 -0.43536869865E+02  0.64269420324E+02  0.10634090229E+03  0.15252345697E+03  0.77000000000E+02 0.  0.
   -5000001    1    1    2    0    0  0.43536869865E+02 -0.64269420324E+02  0.15782511890E+03  0.19199944162E+03  0.77000000000E+02 0.  0.
<mgrwt>
<rscale>  0 0.22116135E+03</rscale>
<asrwt>0</asrwt>
<pdfrwt beam="1">  1        2 0.61812984E-02 0.22116135E+03</pdfrwt>
<pdfrwt beam="2">  1       -2 0.46822224E-01 0.22116135E+03</pdfrwt>
<totfact> 0.51088572E+03</totfact>
</mgrwt>
</event>
<event>
 4    1  0.6148427E-004  0.2199767E+03  0.7818608E-02  0.1133900E+00
         -2   -1    0    0    0  501 -0.00000000000E+00  0.00000000000E+00  0.44478537851E+02  0.44478537924E+02  0.25500000000E-02 0. -1.
          2   -1    0    0  501    0  0.00000000000E+00 -0.00000000000E+00 -0.27198375696E+03  0.27198375697E+03  0.25500000000E-02 0.  1.
    5000001    1    1    2    0    0 -0.68158065205E+02  0.78315595290E+01 -0.16875191826E+03  0.19777023308E+03  0.77000000000E+02 0.  0.
   -5000001    1    1    2    0    0  0.68158065205E+02 -0.78315595290E+01 -0.58753300854E+02  0.11869206182E+03  0.77000000000E+02 0.  0.
<mgrwt>
<rscale>  0 0.21997672E+03</rscale>
<asrwt>0</asrwt>
<pdfrwt beam="1">  1        2 0.41843654E-01 0.21997672E+03</pdfrwt>
<pdfrwt beam="2">  1       -2 0.68428522E-02 0.21997672E+03</pdfrwt>
<totfact> 0.14328245E+04</totfact>
</mgrwt>
</event>
<event>
 4    1  0.6148427E-004  0.4622497E+03  0.7818608E-02  0.1024131E+00
          2   -1    0    0  501    0  0.00000000000E+00  0.00000000000E+00  0.55723122264E+03  0.55723122265E+03  0.25500000000E-02 0.  1.
         -2   -1    0    0    0  501 -0.00000000000E+00 -0.00000000000E+00 -0.95864524278E+02  0.95864524311E+02  0.25500000000E-02 0. -1.
    5000001    1    1    2    0    0 -0.19232116169E+03  0.97543558106E+02  0.18628410536E+03  0.29518289732E+03  0.77000000000E+02 0.  0.
   -5000001    1    1    2    0    0  0.19232116169E+03 -0.97543558106E+02  0.27508259301E+03  0.35791284964E+03  0.77000000000E+02 0.  0.
<mgrwt>
<rscale>  0 0.46224974E+03</rscale>
<asrwt>0</asrwt>
<pdfrwt beam="1">  1        2 0.85727882E-01 0.46224974E+03</pdfrwt>
<pdfrwt beam="2">  1       -2 0.14748388E-01 0.46224974E+03</pdfrwt>
<totfact> 0.19471612E+03</totfact>
</mgrwt>
</event>
<event>
 4    1  0.6148427E-004  0.1653230E+03  0.7818608E-02  0.1182815E+00
         -2   -1    0    0    0  501 -0.00000000000E+00  0.00000000000E+00  0.41033331543E+01  0.41033339466E+01  0.25500000000E-02 0. -1.
          2   -1    0    0  501    0  0.00000000000E+00 -0.00000000000E+00 -0.16652127510E+04  0.16652127510E+04  0.25500000000E-02 0.  1.
    5000001    1    1    2    0    0  0.22668550104E+02  0.14034178679E+02 -0.69024144925E+03  0.69503458878E+03  0.77000000000E+02 0.  0.
   -5000001    1    1    2    0    0 -0.22668550104E+02 -0.14034178679E+02 -0.97086796857E+03  0.97428149615E+03  0.77000000000E+02 0.  0.
<mgrwt>
<rscale>  0 0.16532300E+03</rscale>
<asrwt>0</asrwt>
<pdfrwt beam="1">  1        2 0.25618604E+00 0.16532300E+03</pdfrwt>
<pdfrwt beam="2">  1       -2 0.63128341E-03 0.16532300E+03</pdfrwt>
<totfact> 0.44803628E+04</totfact>
</mgrwt>
</event>
<event>
 4    1  0.6148427E-004  0.4343857E+03  0.7818608E-02  0.1032483E+00
          2   -1    0    0  501    0  0.00000000000E+00  0.00000000000E+00  0.21921801504E+03  0.21921801506E+03  0.25500000000E-02 0.  1.
         -2   -1    0    0    0  501 -0.00000000000E+00 -0.00000000000E+00 -0.21518643843E+03  0.21518643845E+03  0.25500000000E-02 0. -1.
    5000001    1    1    2    0    0  0.17655223111E+03 -0.61537343263E+02  0.81304819476E+02  0.21793808432E+03  0.77000000000E+02 0.  0.
   -5000001    1    1    2    0    0 -0.17655223111E+03  0.61537343263E+02 -0.77273242865E+02  0.21646636919E+03  0.77000000000E+02 0.  0.
<mgrwt>
<rscale>  0 0.43438575E+03</rscale>
<asrwt>0</asrwt>
<pdfrwt beam="1">  1        2 0.33725849E-01 0.43438575E+03</pdfrwt>
<pdfrwt beam="2">  1       -2 0.33105606E-01 0.43438575E+03</pdfrwt>
<totfact> 0.13231100E+03</totfact>
</mgrwt>
</event>
<event>
 4    1  0.6148427E-004  0.9639424E+03  0.7818608E-02  0.9349001E-01
          2   -1    0    0  501    0  0.00000000000E+00  0.00000000000E+00  0.24361124698E+04  0.24361124698E+04  0.25500000000E-02 0.  1.
         -2   -1    0    0    0  501 -0.00000000000E+00 -0.00000000000E+00 -0.95355298301E+02  0.95355298335E+02  0.25500000000E-02 0. -1.
    5000001    1    1    2    0    0 -0.41993010342E+03  0.15926521990E+03  0.75797491612E+03  0.88439904766E+03  0.77000000000E+02 0.  0.
   -5000001    1    1    2    0    0  0.41993010342E+03 -0.15926521990E+03  0.15827822554E+04  0.16470687205E+04  0.77000000000E+02 0.  0.
<mgrwt>
<rscale>  0 0.96394239E+03</rscale>
<asrwt>0</asrwt>
<pdfrwt beam="1">  1        2 0.37478660E+00 0.96394239E+03</pdfrwt>
<pdfrwt beam="2">  1       -2 0.14670043E-01 0.96394239E+03</pdfrwt>
<totfact> 0.13996865E+02</totfact>
</mgrwt>
</event>
<event>
 4    1  0.6148427E-004  0.2276787E+03  0.7818608E-02  0.1128284E+00
         -2   -1    0    0    0  501 -0.00000000000E+00  0.00000000000E+00  0.32173845074E+02  0.32173845175E+02  0.25500000000E-02 0. -1.
          2   -1    0    0  501    0  0.00000000000E+00 -0.00000000000E+00 -0.40279306012E+03  0.40279306012E+03  0.25500000000E-02 0.  1.
    5000001    1    1    2    0    0  0.41752458372E+02  0.78295934564E+01 -0.32341525411E+03  0.33515816700E+03  0.77000000000E+02 0.  0.
   -5000001    1    1    2    0    0 -0.41752458372E+02 -0.78295934564E+01 -0.47203960933E+02  0.99808738303E+02  0.77000000000E+02 0.  0.
<mgrwt>
<rscale>  0 0.22767873E+03</rscale>
<asrwt>0</asrwt>
<pdfrwt beam="1">  1        2 0.61968159E-01 0.22767873E+03</pdfrwt>
<pdfrwt beam="2">  1       -2 0.49498226E-02 0.22767873E+03</pdfrwt>
<totfact> 0.15441244E+04</totfact>
</mgrwt>
</event>
<event>
 4    1  0.6148427E-004  0.2320813E+03  0.7818608E-02  0.1125183E+00
         -2   -1    0    0    0  501 -0.00000000000E+00  0.00000000000E+00  0.18763046343E+02  0.18763046516E+02  0.25500000000E-02 0. -1.
          2   -1    0    0  501    0  0.00000000000E+00 -0.00000000000E+00 -0.71765703989E+03  0.71765703989E+03  0.25500000000E-02 0.  1.
    5000001    1    1    2    0    0  0.63862915137E+02 -0.31946045841E+02 -0.19278998961E+03  0.21953587832E+03  0.77000000000E+02 0.  0.
   -5000001    1    1    2    0    0 -0.63862915137E+02  0.31946045841E+02 -0.50610400394E+03  0.51688420809E+03  0.77000000000E+02 0.  0.
<mgrwt>
<rscale>  0 0.23208130E+03</rscale>
<asrwt>0</asrwt>
<pdfrwt beam="1">  1        2 0.11040875E+00 0.23208130E+03</pdfrwt>
<pdfrwt beam="2">  1       -2 0.28866231E-02 0.23208130E+03</pdfrwt>
<totfact> 0.17982715E+04</totfact>
</mgrwt>
</event>
<event>
 4    1  0.6148427E-004  0.2948120E+03  0.7818608E-02  0.1087863E+00
          2   -1    0    0  501    0  0.00000000000E+00  0.00000000000E+00  0.16742340124E+03  0.16742340126E+03  0.25500000000E-02 0.  1.
         -2   -1    0    0    0  501 -0.00000000000E+00 -0.00000000000E+00 -0.12978189410E+03  0.12978189413E+03  0.25500000000E-02 0. -1.
    5000001    1    1    2    0    0  0.12065656046E+03  0.31307079728E+02  0.35119479807E+02  0.15066690640E+03  0.77000000000E+02 0.  0.
   -5000001    1    1    2    0    0 -0.12065656046E+03 -0.31307079728E+02  0.25220273335E+01  0.14653838898E+03  0.77000000000E+02 0.  0.
<mgrwt>
<rscale>  0 0.29481198E+03</rscale>
<asrwt>0</asrwt>
<pdfrwt beam="1">  1        2 0.25757446E-01 0.29481198E+03</pdfrwt>
<pdfrwt beam="2">  1       -2 0.19966445E-01 0.29481198E+03</pdfrwt>
<totfact> 0.43709650E+03</totfact>
</mgrwt>
</event>
<event>
 4    1  0.6148427E-004  0.2123988E+03  0.7818608E-02  0.1139680E+00
         -2   -1    0    0    0  501 -0.00000000000E+00  0.00000000000E+00  0.80988439080E+01  0.80988443095E+01  0.25500000000E-02 0. -1.
          2   -1    0    0  501    0  0.00000000000E+00 -0.00000000000E+00 -0.13925824158E+04  0.13925824158E+04  0.25500000000E-02 0.  1.
    5000001    1    1    2    0    0  0.24558226762E+02 -0.64356556524E+02 -0.85437133002E+03  0.86059528376E+03  0.77000000000E+02 0.  0.
   -5000001    1    1    2    0    0 -0.24558226762E+02  0.64356556524E+02 -0.53011224186E+03  0.54008597634E+03  0.77000000000E+02 0.  0.
<mgrwt>
<rscale>  0 0.21239876E+03</rscale>
<asrwt>0</asrwt>
<pdfrwt beam="1">  1        2 0.21424326E+00 0.21239876E+03</pdfrwt>
<pdfrwt beam="2">  1       -2 0.12459771E-02 0.21239876E+03</pdfrwt>
<totfact> 0.23820868E+04</totfact>
</mgrwt>
</event>
<event>
 4    1  0.6148427E-004  0.2019535E+03  0.7818608E-02  0.1148101E+00
         -2   -1    0    0    0  501 -0.00000000000E+00  0.00000000000E+00  0.12193613393E+02  0.12193613660E+02  0.25500000000E-02 0. -1.
          2   -1    0    0  501    0  0.00000000000E+00 -0.00000000000E+00 -0.83620028389E+03  0.83620028389E+03  0.25500000000E-02 0.  1.
    5000001    1    1    2    0    0  0.28978185385E+02 -0.40872762399E+02 -0.23591514955E+03  0.25317044796E+03  0.77000000000E+02 0.  0.
   -5000001    1    1    2    0    0 -0.28978185385E+02  0.40872762399E+02 -0.58809152094E+03  0.59522344959E+03  0.77000000000E+02 0.  0.
<mgrwt>
<rscale>  0 0.20195349E+03</rscale>
<asrwt>0</asrwt>
<pdfrwt beam="1">  1        2 0.12864615E+00 0.20195349E+03</pdfrwt>
<pdfrwt beam="2">  1       -2 0.18759412E-02 0.20195349E+03</pdfrwt>
<totfact> 0.27764576E+04</totfact>
</mgrwt>
</event>
<event>
 4    1  0.6148427E-004  0.2174568E+03  0.7818608E-02  0.1135793E+00
          2   -1    0    0  501    0  0.00000000000E+00  0.00000000000E+00  0.53768410953E+02  0.53768411013E+02  0.25500000000E-02 0.  1.
         -2   -1    0    0    0  501 -0.00000000000E+00 -0.00000000000E+00 -0.21986642244E+03  0.21986642246E+03  0.25500000000E-02 0. -1.
    5000001    1    1    2    0    0 -0.73896948541E+02 -0.51474869904E+01 -0.10839177196E+03  0.15220063027E+03  0.77000000000E+02 0.  0.
   -5000001    1    1    2    0    0  0.73896948541E+02  0.51474869904E+01 -0.57706239526E+02  0.12143420320E+03  0.77000000000E+02 0.  0.
<mgrwt>
<rscale>  0 0.21745683E+03</rscale>
<asrwt>0</asrwt>
<pdfrwt beam="1">  1        2 0.82720634E-02 0.21745683E+03</pdfrwt>
<pdfrwt beam="2">  1       -2 0.33825603E-01 0.21745683E+03</pdfrwt>
<totfact> 0.65284033E+03</totfact>
</mgrwt>
</event>
<event>
 4    1  0.6148427E-004  0.3363870E+03  0.7818608E-02  0.1068345E+00
          2   -1    0    0  501    0  0.00000000000E+00  0.00000000000E+00  0.21832422432E+03  0.21832422433E+03  0.25500000000E-02 0.  1.
         -2   -1    0    0    0  501 -0.00000000000E+00 -0.00000000000E+00 -0.12957361230E+03  0.12957361232E+03  0.25500000000E-02 0. -1.
    5000001    1    1    2    0    0  0.11473362294E+03  0.51944579954E+02  0.12774396848E+03  0.19521671317E+03  0.77000000000E+02 0.  0.
   -5000001    1    1    2    0    0 -0.11473362294E+03 -0.51944579954E+02 -0.38993356458E+02  0.15268112348E+03  0.77000000000E+02 0.  0.
<mgrwt>
<rscale>  0 0.33638703E+03</rscale>
<asrwt>0</asrwt>
<pdfrwt beam="1">  1        2 0.33588342E-01 0.33638703E+03</pdfrwt>
<pdfrwt beam="2">  1       -2 0.19934402E-01 0.33638703E+03</pdfrwt>
<totfact> 0.32799629E+03</totfact>
</mgrwt>
</event>
<event>
 4    1  0.6148427E-004  0.1909439E+03  0.7818608E-02  0.1157613E+00
         -2   -1    0    0    0  501 -0.00000000000E+00  0.00000000000E+00  0.15579907052E+02  0.15579907260E+02  0.25500000000E-02 0. -1.
          2   -1    0    0  501    0  0.00000000000E+00 -0.00000000000E+00 -0.58504146266E+03  0.58504146267E+03  0.25500000000E-02 0.  1.
    5000001    1    1    2    0    0  0.39767672064E+02  0.28992269056E+02 -0.37166792809E+03  0.38273759703E+03  0.77000000000E+02 0.  0.
   -5000001    1    1    2    0    0 -0.39767672064E+02 -0.28992269056E+02 -0.19779362752E+03  0.21788377291E+03  0.77000000000E+02 0.  0.
<mgrwt>
<rscale>  0 0.19094388E+03</rscale>
<asrwt>0</asrwt>
<pdfrwt beam="1">  1        2 0.90006362E-01 0.19094388E+03</pdfrwt>
<pdfrwt beam="2">  1       -2 0.23969092E-02 0.19094388E+03</pdfrwt>
<totfact> 0.29707705E+04</totfact>
</mgrwt>
</event>
<event>
 4    1  0.6148427E-004  0.4276517E+03  0.7818608E-02  0.1034604E+00
          2   -1    0    0  501    0  0.00000000000E+00  0.00000000000E+00  0.74626248859E+03  0.74626248859E+03  0.25500000000E-02 0.  1.
         -2   -1    0    0    0  501 -0.00000000000E+00 -0.00000000000E+00 -0.61267317762E+02  0.61267317815E+02  0.25500000000E-02 0. -1.
    5000001    1    1    2    0    0  0.83654263825E+02  0.17028847230E+03  0.22615233257E+03  0.30507388807E+03  0.77000000000E+02 0.  0.
   -5000001    1    1    2    0    0 -0.83654263825E+02 -0.17028847230E+03  0.45884283825E+03  0.50245591834E+03  0.77000000000E+02 0.  0.
<mgrwt>
<rscale>  0 0.42765173E+03</rscale>
<asrwt>0</asrwt>
<pdfrwt beam="1">  1        2 0.11480962E+00 0.42765173E+03</pdfrwt>
<pdfrwt beam="2">  1       -2 0.94257410E-02 0.42765173E+03</pdfrwt>
<totfact> 0.28401353E+03</totfact>
</mgrwt>
</event>
<event>
 4    1  0.6148427E-004  0.6355639E+03  0.7818608E-02  0.9834251E-01
         -2   -1    0    0    0  501 -0.00000000000E+00  0.00000000000E+00  0.72172563365E+02  0.72172563410E+02  0.25500000000E-02 0. -1.
          2   -1    0    0  501    0  0.00000000000E+00 -0.00000000000E+00 -0.13992209680E+04  0.13992209680E+04  0.25500000000E-02 0.  1.
    5000001    1    1    2    0    0  0.19474854959E+03 -0.14791730880E+03 -0.10981827062E+04  0.11277148504E+04  0.77000000000E+02 0.  0.
   -5000001    1    1    2    0    0 -0.19474854959E+03  0.14791730880E+03 -0.22886569846E+03  0.34367868095E+03  0.77000000000E+02 0.  0.
<mgrwt>
<rscale>  0 0.63556389E+03</rscale>
<asrwt>0</asrwt>
<pdfrwt beam="1">  1        2 0.21526474E+00 0.63556389E+03</pdfrwt>
<pdfrwt beam="2">  1       -2 0.11103472E-01 0.63556389E+03</pdfrwt>
<totfact> 0.85067490E+02</totfact>
</mgrwt>
</event>
<event>
 4    1  0.6148427E-004  0.2446512E+03  0.7818608E-02  0.1116733E+00
         -2   -1    0    0    0  501 -0.00000000000E+00  0.00000000000E+00  0.23344530872E+02  0.23344531011E+02  0.25500000000E-02 0. -1.
          2   -1    0    0  501    0  0.00000000000E+00 -0.00000000000E+00 -0.64098773218E+03  0.64098773219E+03  0.25500000000E-02 0.  1.
    5000001    1    1    2    0    0 -0.22922717942E+01 -0.62686082421E+02 -0.50273718778E+03  0.51245339243E+03  0.77000000000E+02 0.  0.
   -5000001    1    1    2    0    0  0.22922717942E+01  0.62686082421E+02 -0.11490601353E+03  0.15187887076E+03  0.77000000000E+02 0.  0.
<mgrwt>
<rscale>  0 0.24465125E+03</rscale>
<asrwt>0</asrwt>
<pdfrwt beam="1">  1        2 0.98613484E-01 0.24465125E+03</pdfrwt>
<pdfrwt beam="2">  1       -2 0.35914668E-02 0.24465125E+03</pdfrwt>
<totfact> 0.14912512E+04</totfact>
</mgrwt>
</event>
<event>
 4    1  0.6148427E-004  0.4704447E+03  0.7818608E-02  0.1021795E+00
          2   -1    0    0  501    0  0.00000000000E+00  0.00000000000E+00  0.24909336709E+02  0.24909336840E+02  0.25500000000E-02 0.  1.
         -2   -1    0    0    0  501 -0.00000000000E+00 -0.00000000000E+00 -0.22212373073E+04  0.22212373073E+04  0.25500000000E-02 0. -1.
    5000001    1    1    2    0    0 -0.15262986922E+03 -0.10562517970E+03 -0.51442192581E+03  0.55227843821E+03  0.77000000000E+02 0.  0.
   -5000001    1    1    2    0    0  0.15262986922E+03  0.10562517970E+03 -0.16819060447E+04  0.16938682059E+04  0.77000000000E+02 0.  0.
<mgrwt>
<rscale>  0 0.47044468E+03</rscale>
<asrwt>0</asrwt>
<pdfrwt beam="1">  1        2 0.38322074E-02 0.47044468E+03</pdfrwt>
<pdfrwt beam="2">  1       -2 0.34172866E+00 0.47044468E+03</pdfrwt>
<totfact> 0.45218261E+01</totfact>
</mgrwt>
</event>
<event>
 4    1  0.6148427E-004  0.3512109E+03  0.7818608E-02  0.1062119E+00
          2   -1    0    0  501    0  0.00000000000E+00  0.00000000000E+00  0.12206051596E+04  0.12206051596E+04  0.25500000000E-02 0.  1.
         -2   -1    0    0    0  501 -0.00000000000E+00 -0.00000000000E+00 -0.25263924694E+02  0.25263924823E+02  0.25500000000E-02 0. -1.
    5000001    1    1    2    0    0  0.94759316684E+02 -0.11932460038E+03  0.74352630419E+03  0.76287486089E+03  0.77000000000E+02 0.  0.
   -5000001    1    1    2    0    0 -0.94759316684E+02  0.11932460038E+03  0.45181493075E+03  0.48299422357E+03  0.77000000000E+02 0.  0.
<mgrwt>
<rscale>  0 0.35121092E+03</rscale>
<asrwt>0</asrwt>
<pdfrwt beam="1">  1        2 0.18778535E+00 0.35121092E+03</pdfrwt>
<pdfrwt beam="2">  1       -2 0.38867588E-02 0.35121092E+03</pdfrwt>
<totfact> 0.56033641E+03</totfact>
</mgrwt>
</event>
<event>
 4    1  0.6148427E-004  0.2690928E+03  0.7818608E-02  0.1101800E+00
          2   -1    0    0  501    0  0.00000000000E+00  0.00000000000E+00  0.23735211497E+02  0.23735211633E+02  0.25500000000E-02 0.  1.
         -2   -1    0    0    0  501 -0.00000000000E+00 -0.00000000000E+00 -0.76269549264E+03  0.76269549264E+03  0.25500000000E-02 0. -1.
    5000001    1    1    2    0    0  0.10230453205E+03 -0.34887870089E+02 -0.43419663867E+03  0.45402544179E+03  0.77000000000E+02 0.  0.
   -5000001    1    1    2    0    0 -0.10230453205E+03  0.34887870089E+02 -0.30476364247E+03  0.33240526248E+03  0.77000000000E+02 0.  0.
<mgrwt>
<rscale>  0 0.26909284E+03</rscale>
<asrwt>0</asrwt>
<pdfrwt beam="1">  1        2 0.36515716E-02 0.26909284E+03</pdfrwt>
<pdfrwt beam="2">  1       -2 0.11733775E+00 0.26909284E+03</pdfrwt>
<totfact> 0.14043905E+03</totfact>
</mgrwt>
</event>
<event>
 4    1  0.6148427E-004  0.2400381E+03  0.7818608E-02  0.1119767E+00
          2   -1    0    0  501    0  0.00000000000E+00  0.00000000000E+00  0.21437128252E+04  0.21437128252E+04  0.25500000000E-02 0.  1.
         -2   -1    0    0    0  501 -0.00000000000E+00 -0.00000000000E+00 -0.67194492510E+01  0.67194497348E+01  0.25500000000E-02 0. -1.
    5000001    1    1    2    0    0 -0.20497042615E+02  0.61921104241E+02  0.48644102043E+03  0.49679796524E+03  0.77000000000E+02 0.  0.
   -5000001    1    1    2    0    0  0.20497042615E+02 -0.61921104241E+02  0.16505523555E+04  0.16536343097E+04  0.77000000000E+02 0.  0.
<mgrwt>
<rscale>  0 0.24003808E+03</rscale>
<asrwt>0</asrwt>
<pdfrwt beam="1">  1        2 0.32980205E+00 0.24003808E+03</pdfrwt>
<pdfrwt beam="2">  1       -2 0.10337612E-02 0.24003808E+03</pdfrwt>
<totfact> 0.12637166E+04</totfact>
</mgrwt>
</event>
<event>
 4    1  0.6148427E-004  0.1793824E+03  0.7818608E-02  0.1168402E+00
         -2   -1    0    0    0  501 -0.00000000000E+00  0.00000000000E+00  0.64075191902E+02  0.64075191953E+02  0.25500000000E-02 0. -1.
          2   -1    0    0  501    0  0.00000000000E+00 -0.00000000000E+00 -0.12554802560E+03  0.12554802563E+03  0.25500000000E-02 0.  1.
    5000001    1    1    2    0    0 -0.27481656262E+02 -0.29778961242E+02 -0.77344417475E+01  0.87354734003E+02  0.77000000000E+02 0.  0.
   -5000001    1    1    2    0    0  0.27481656262E+02  0.29778961242E+02 -0.53738391952E+02  0.10226848358E+03  0.77000000000E+02 0.  0.
<mgrwt>
<rscale>  0 0.17938243E+03</rscale>
<asrwt>0</asrwt>
<pdfrwt beam="1">  1        2 0.19315081E-01 0.17938243E+03</pdfrwt>
<pdfrwt beam="2">  1       -2 0.98577218E-02 0.17938243E+03</pdfrwt>
<totfact> 0.18716775E+04</totfact>
</mgrwt>
</event>
<event>
 4    1  0.6148427E-004  0.2865136E+03  0.7818608E-02  0.1092184E+00
         -2   -1    0    0    0  501 -0.00000000000E+00  0.00000000000E+00  0.75104303457E+02  0.75104303500E+02  0.25500000000E-02 0. -1.
          2   -1    0    0  501    0  0.00000000000E+00 -0.00000000000E+00 -0.27325344377E+03  0.27325344378E+03  0.25500000000E-02 0.  1.
    5000001    1    1    2    0    0  0.64079728080E+02  0.10174124090E+03 -0.84894502268E+02  0.16611311858E+03  0.77000000000E+02 0.  0.
   -5000001    1    1    2    0    0 -0.64079728080E+02 -0.10174124090E+03 -0.11325463804E+03  0.18224462869E+03  0.77000000000E+02 0.  0.
<mgrwt>
<rscale>  0 0.28651359E+03</rscale>
<asrwt>0</asrwt>
<pdfrwt beam="1">  1        2 0.42038991E-01 0.28651359E+03</pdfrwt>
<pdfrwt beam="2">  1       -2 0.11554508E-01 0.28651359E+03</pdfrwt>
<totfact> 0.63304483E+03</totfact>
</mgrwt>
</event>
<event>
 4    1  0.6148427E-004  0.1896672E+03  0.7818608E-02  0.1158762E+00
         -2   -1    0    0    0  501 -0.00000000000E+00  0.00000000000E+00  0.16519720329E+02  0.16519720526E+02  0.25500000000E-02 0. -1.
          2   -1    0    0  501    0  0.00000000000E+00 -0.00000000000E+00 -0.54440460213E+03  0.54440460214E+03  0.25500000000E-02 0.  1.
    5000001    1    1    2    0    0 -0.11724945909E+02  0.43946460802E+02 -0.17062463375E+03  0.19264093909E+03  0.77000000000E+02 0.  0.
   -5000001    1    1    2    0    0  0.11724945909E+02 -0.43946460802E+02 -0.35726024806E+03  0.36828338357E+03  0.77000000000E+02 0.  0.
<mgrwt>
<rscale>  0 0.18966720E+03</rscale>
<asrwt>0</asrwt>
<pdfrwt beam="1">  1        2 0.83754541E-01 0.18966720E+03</pdfrwt>
<pdfrwt beam="2">  1       -2 0.25414959E-02 0.18966720E+03</pdfrwt>
<totfact> 0.29559984E+04</totfact>
</mgrwt>
</event>
<event>
 4    1  0.6148427E-004  0.2084801E+03  0.7818608E-02  0.1142775E+00
          2   -1    0    0  501    0  0.00000000000E+00  0.00000000000E+00  0.40044684543E+03  0.40044684543E+03  0.25500000000E-02 0.  1.
         -2   -1    0    0    0  501 -0.00000000000E+00 -0.00000000000E+00 -0.27134658605E+02  0.27134658725E+02  0.25500000000E-02 0. -1.
    5000001    1    1    2    0    0 -0.68338943116E+01 -0.53278551312E+02  0.93757453901E+02  0.13268295408E+03  0.77000000000E+02 0.  0.
   -5000001    1    1    2    0    0  0.68338943116E+01  0.53278551312E+02  0.27955473292E+03  0.29489855008E+03  0.77000000000E+02 0.  0.
<mgrwt>
<rscale>  0 0.20848010E+03</rscale>
<asrwt>0</asrwt>
<pdfrwt beam="1">  1        2 0.61607203E-01 0.20848010E+03</pdfrwt>
<pdfrwt beam="2">  1       -2 0.41745632E-02 0.20848010E+03</pdfrwt>
<totfact> 0.19974048E+04</totfact>
</mgrwt>
</event>
<event>
 4    1  0.6148427E-004  0.8835124E+03  0.7818608E-02  0.9446430E-01
         -2   -1    0    0    0  501 -0.00000000000E+00  0.00000000000E+00  0.23042911551E+03  0.23042911552E+03  0.25500000000E-02 0. -1.
          2   -1    0    0  501    0  0.00000000000E+00 -0.00000000000E+00 -0.84689183302E+03  0.84689183302E+03  0.25500000000E-02 0.  1.
    5000001    1    1    2    0    0 -0.19903815021E+03 -0.34652345511E+03 -0.98710975564E+02  0.41876908539E+03  0.77000000000E+02 0.  0.
   -5000001    1    1    2    0    0  0.19903815021E+03  0.34652345511E+03 -0.51775174195E+03  0.65855186316E+03  0.77000000000E+02 0.  0.
<mgrwt>
<rscale>  0 0.88351239E+03</rscale>
<asrwt>0</asrwt>
<pdfrwt beam="1">  1        2 0.13029105E+00 0.88351239E+03</pdfrwt>
<pdfrwt beam="2">  1       -2 0.35450634E-01 0.88351239E+03</pdfrwt>
<totfact> 0.23900372E+02</totfact>
</mgrwt>
</event>
<event>
 4    1  0.6148427E-004  0.2606182E+03  0.7818608E-02  0.1106772E+00
          2   -1    0    0  501    0  0.00000000000E+00  0.00000000000E+00  0.38364387896E+04  0.38364387896E+04  0.25500000000E-02 0.  1.
         -2   -1    0    0    0  501 -0.00000000000E+00 -0.00000000000E+00 -0.44261009270E+01  0.44261016616E+01  0.25500000000E-02 0. -1.
    5000001    1    1    2    0    0 -0.43920536814E+02 -0.95351347970E+02  0.18345176457E+04  0.18391315574E+04  0.77000000000E+02 0.  0.
   -5000001    1    1    2    0    0  0.43920536814E+02  0.95351347970E+02  0.19974950430E+04  0.20017333338E+04  0.77000000000E+02 0.  0.
<mgrwt>
<rscale>  0 0.26061824E+03</rscale>
<asrwt>0</asrwt>
<pdfrwt beam="1">  1        2 0.59022383E+00 0.26061824E+03</pdfrwt>
<pdfrwt beam="2">  1       -2 0.68093580E-03 0.26061824E+03</pdfrwt>
<totfact> 0.22104712E+03</totfact>
</mgrwt>
</event>
<event>
 4    1  0.6148427E-004  0.2691764E+03  0.7818608E-02  0.1101752E+00
         -2   -1    0    0    0  501 -0.00000000000E+00  0.00000000000E+00  0.18724036435E+02  0.18724036609E+02  0.25500000000E-02 0. -1.
          2   -1    0    0  501    0  0.00000000000E+00 -0.00000000000E+00 -0.96741907489E+03  0.96741907489E+03  0.25500000000E-02 0.  1.
    5000001    1    1    2    0    0  0.65712699409E+02  0.82832530900E+02 -0.59052345483E+03  0.60483579403E+03  0.77000000000E+02 0.  0.
   -5000001    1    1    2    0    0 -0.65712699409E+02 -0.82832530900E+02 -0.35817158362E+03  0.38130731747E+03  0.77000000000E+02 0.  0.
<mgrwt>
<rscale>  0 0.26917645E+03</rscale>
<asrwt>0</asrwt>
<pdfrwt beam="1">  1        2 0.14883366E+00 0.26917645E+03</pdfrwt>
<pdfrwt beam="2">  1       -2 0.28806218E-02 0.26917645E+03</pdfrwt>
<totfact> 0.12336276E+04</totfact>
</mgrwt>
</event>
<event>
 4    1  0.6148427E-004  0.4027890E+03  0.7818608E-02  0.1042818E+00
         -2   -1    0    0    0  501 -0.00000000000E+00  0.00000000000E+00  0.23514283633E+02  0.23514283771E+02  0.25500000000E-02 0. -1.
          2   -1    0    0  501    0  0.00000000000E+00 -0.00000000000E+00 -0.17248983859E+04  0.17248983859E+04  0.25500000000E-02 0.  1.
    5000001    1    1    2    0    0  0.17996029495E+03 -0.16456230542E+02 -0.65782159498E+03  0.68652368212E+03  0.77000000000E+02 0.  0.
   -5000001    1    1    2    0    0 -0.17996029495E+03  0.16456230542E+02 -0.10435625073E+04  0.10618889876E+04  0.77000000000E+02 0.  0.
<mgrwt>
<rscale>  0 0.40278903E+03</rscale>
<asrwt>0</asrwt>
<pdfrwt beam="1">  1        2 0.26536888E+00 0.40278903E+03</pdfrwt>
<pdfrwt beam="2">  1       -2 0.36175835E-02 0.40278903E+03</pdfrwt>
<totfact> 0.33094739E+03</totfact>
</mgrwt>
</event>
<event>
 4    1  0.6148427E-004  0.2145836E+03  0.7818608E-02  0.1137987E+00
         -2   -1    0    0    0  501 -0.00000000000E+00  0.00000000000E+00  0.94860197711E+02  0.94860197746E+02  0.25500000000E-02 0. -1.
          2   -1    0    0  501    0  0.00000000000E+00 -0.00000000000E+00 -0.12135260709E+03  0.12135260711E+03  0.25500000000E-02 0.  1.
    5000001    1    1    2    0    0 -0.23339401429E+02  0.67389652062E+02 -0.35696289538E+02  0.11085719621E+03  0.77000000000E+02 0.  0.
   -5000001    1    1    2    0    0  0.23339401429E+02 -0.67389652062E+02  0.92038801632E+01  0.10535560865E+03  0.77000000000E+02 0.  0.
<mgrwt>
<rscale>  0 0.21458362E+03</rscale>
<asrwt>0</asrwt>
<pdfrwt beam="1">  1        2 0.18669632E-01 0.21458362E+03</pdfrwt>
<pdfrwt beam="2">  1       -2 0.14593877E-01 0.21458362E+03</pdfrwt>
<totfact> 0.10490052E+04</totfact>
</mgrwt>
</event>
<event>
 4    1  0.6148427E-004  0.1795784E+03  0.7818608E-02  0.1168212E+00
         -2   -1    0    0    0  501 -0.00000000000E+00  0.00000000000E+00  0.11220272082E+02  0.11220272372E+02  0.25500000000E-02 0. -1.
          2   -1    0    0  501    0  0.00000000000E+00 -0.00000000000E+00 -0.71852992710E+03  0.71852992710E+03  0.25500000000E-02 0.  1.
    5000001    1    1    2    0    0 -0.40408710281E+01  0.43759494414E+02 -0.29591624731E+03  0.30891203831E+03  0.77000000000E+02 0.  0.
   -5000001    1    1    2    0    0  0.40408710281E+01 -0.43759494414E+02 -0.41139340770E+03  0.42083816116E+03  0.77000000000E+02 0.  0.
<mgrwt>
<rscale>  0 0.17957841E+03</rscale>
<asrwt>0</asrwt>
<pdfrwt beam="1">  1        2 0.11054303E+00 0.17957841E+03</pdfrwt>
<pdfrwt beam="2">  1       -2 0.17261963E-02 0.17957841E+03</pdfrwt>
<totfact> 0.37517587E+04</totfact>
</mgrwt>
</event>
<event>
 4    1  0.6148427E-004  0.2158883E+03  0.7818608E-02  0.1136986E+00
         -2   -1    0    0    0  501 -0.00000000000E+00  0.00000000000E+00  0.44348350869E+01  0.44348358200E+01  0.25500000000E-02 0. -1.
          2   -1    0    0  501    0  0.00000000000E+00 -0.00000000000E+00 -0.26273659934E+04  0.26273659934E+04  0.25500000000E-02 0.  1.
    5000001    1    1    2    0    0  0.16117521616E+02 -0.55965699328E+02 -0.72289941605E+03  0.72931783177E+03  0.77000000000E+02 0.  0.
   -5000001    1    1    2    0    0 -0.16117521616E+02  0.55965699328E+02 -0.19000317422E+04  0.19024829974E+04  0.77000000000E+02 0.  0.
<mgrwt>
<rscale>  0 0.21588827E+03</rscale>
<asrwt>0</asrwt>
<pdfrwt beam="1">  1        2 0.40420891E+00 0.21588827E+03</pdfrwt>
<pdfrwt beam="2">  1       -2 0.68228447E-03 0.21588827E+03</pdfrwt>
<totfact> 0.12616791E+04</totfact>
</mgrwt>
</event>
<event>
 4    1  0.6148427E-004  0.1738751E+03  0.7818608E-02  0.1173866E+00
         -2   -1    0    0    0  501 -0.00000000000E+00  0.00000000000E+00  0.32636142970E+01  0.32636152932E+01  0.25500000000E-02 0. -1.
          2   -1    0    0  501    0  0.00000000000E+00 -0.00000000000E+00 -0.23158800973E+04  0.23158800973E+04  0.25500000000E-02 0.  1.
    5000001    1    1    2    0    0 -0.39158329873E+02 -0.97768164251E+01 -0.11506554792E+04  0.11539350037E+04  0.77000000000E+02 0.  0.
   -5000001    1    1    2    0    0  0.39158329873E+02  0.97768164251E+01 -0.11619610037E+04  0.11652087088E+04  0.77000000000E+02 0.  0.
<mgrwt>
<rscale>  0 0.17387513E+03</rscale>
<asrwt>0</asrwt>
<pdfrwt beam="1">  1        2 0.35628793E+00 0.17387513E+03</pdfrwt>
<pdfrwt beam="2">  1       -2 0.50209644E-03 0.17387513E+03</pdfrwt>
<totfact> 0.28632941E+04</totfact>
</mgrwt>
</event>
<event>
 4    1  0.6148427E-004  0.5297851E+03  0.7818608E-02  0.1006284E+00
         -2   -1    0    0    0  501 -0.00000000000E+00  0.00000000000E+00  0.44540621929E+02  0.44540622002E+02  0.25500000000E-02 0. -1.
          2   -1    0    0  501    0  0.00000000000E+00 -0.00000000000E+00 -0.15753724313E+04  0.15753724313E+04  0.25500000000E-02 0.  1.
    5000001    1    1    2    0    0 -0.22524572998E+03 -0.11028522720E+03 -0.65346149959E+03  0.70415864807E+03  0.77000000000E+02 0.  0.
   -5000001    1    1    2    0    0  0.22524572998E+03  0.11028522720E+03 -0.87737030981E+03  0.91575440526E+03  0.77000000000E+02 0.  0.
<mgrwt>
<rscale>  0 0.52978512E+03</rscale>
<asrwt>0</asrwt>
<pdfrwt beam="1">  1        2 0.24236495E+00 0.52978512E+03</pdfrwt>
<pdfrwt beam="2">  1       -2 0.68524046E-02 0.52978512E+03</pdfrwt>
<totfact> 0.14811461E+03</totfact>
</mgrwt>
</event>
<event>
 4    1  0.6148427E-004  0.2576474E+03  0.7818608E-02  0.1108565E+00
         -2   -1    0    0    0  501 -0.00000000000E+00  0.00000000000E+00  0.17194960641E+02  0.17194960830E+02  0.25500000000E-02 0. -1.
          2   -1    0    0  501    0  0.00000000000E+00 -0.00000000000E+00 -0.96514008685E+03  0.96514008686E+03  0.25500000000E-02 0.  1.
    5000001    1    1    2    0    0 -0.98969700269E+02 -0.15005460405E+02 -0.37703814875E+03  0.39762662263E+03  0.77000000000E+02 0.  0.
   -5000001    1    1    2    0    0  0.98969700269E+02  0.15005460405E+02 -0.57090697747E+03  0.58470842506E+03  0.77000000000E+02 0.  0.
<mgrwt>
<rscale>  0 0.25764740E+03</rscale>
<asrwt>0</asrwt>
<pdfrwt beam="1">  1        2 0.14848305E+00 0.25764740E+03</pdfrwt>
<pdfrwt beam="2">  1       -2 0.26453793E-02 0.25764740E+03</pdfrwt>
<totfact> 0.14020936E+04</totfact>
</mgrwt>
</event>
<event>
 4    1  0.6148427E-004  0.2090593E+03  0.7818608E-02  0.1142313E+00
         -2   -1    0    0    0  501 -0.00000000000E+00  0.00000000000E+00  0.31012604811E+02  0.31012604916E+02  0.25500000000E-02 0. -1.
          2   -1    0    0  501    0  0.00000000000E+00 -0.00000000000E+00 -0.35232285342E+03  0.35232285343E+03  0.25500000000E-02 0.  1.
    5000001    1    1    2    0    0 -0.59571912771E+02 -0.38055167479E+02 -0.16187262356E+03  0.19268823218E+03  0.77000000000E+02 0.  0.
   -5000001    1    1    2    0    0  0.59571912771E+02  0.38055167479E+02 -0.15943762505E+03  0.19064722617E+03  0.77000000000E+02 0.  0.
<mgrwt>
<rscale>  0 0.20905932E+03</rscale>
<asrwt>0</asrwt>
<pdfrwt beam="1">  1        2 0.54203513E-01 0.20905932E+03</pdfrwt>
<pdfrwt beam="2">  1       -2 0.47711702E-02 0.20905932E+03</pdfrwt>
<totfact> 0.18754457E+04</totfact>
</mgrwt>
</event>
<event>
 4    1  0.6148427E-004  0.2277110E+03  0.7818608E-02  0.1128261E+00
         -2   -1    0    0    0  501 -0.00000000000E+00  0.00000000000E+00  0.26047707031E+03  0.26047707032E+03  0.25500000000E-02 0. -1.
          2   -1    0    0  501    0  0.00000000000E+00 -0.00000000000E+00 -0.49766660046E+02  0.49766660111E+02  0.25500000000E-02 0.  1.
    5000001    1    1    2    0    0 -0.34114814727E+02  0.72496944314E+02  0.71582877939E+02  0.13218447690E+03  0.77000000000E+02 0.  0.
   -5000001    1    1    2    0    0  0.34114814727E+02 -0.72496944314E+02  0.13912753232E+03  0.17805925354E+03  0.77000000000E+02 0.  0.
<mgrwt>
<rscale>  0 0.22771099E+03</rscale>
<asrwt>0</asrwt>
<pdfrwt beam="1">  1        2 0.76564092E-02 0.22771099E+03</pdfrwt>
<pdfrwt beam="2">  1       -2 0.40073395E-01 0.22771099E+03</pdfrwt>
<totfact> 0.52521582E+03</totfact>
</mgrwt>
</event>
<event>
 4    1  0.6148427E-004  0.2194092E+03  0.7818608E-02  0.1134324E+00
          2   -1    0    0  501    0  0.00000000000E+00  0.00000000000E+00  0.16353680791E+04  0.16353680791E+04  0.25500000000E-02 0.  1.
         -2   -1    0    0    0  501 -0.00000000000E+00 -0.00000000000E+00 -0.73592617718E+01  0.73592622136E+01  0.25500000000E-02 0. -1.
    5000001    1    1    2    0    0  0.65914438146E+02  0.20468358458E+02  0.53968452945E+03  0.54950164530E+03  0.77000000000E+02 0.  0.
   -5000001    1    1    2    0    0 -0.65914438146E+02 -0.20468358458E+02  0.10883242879E+04  0.10932256960E+04  0.77000000000E+02 0.  0.
<mgrwt>
<rscale>  0 0.21940923E+03</rscale>
<asrwt>0</asrwt>
<pdfrwt beam="1">  1        2 0.25159523E+00 0.21940923E+03</pdfrwt>
<pdfrwt beam="2">  1       -2 0.11321935E-02 0.21940923E+03</pdfrwt>
<totfact> 0.20374372E+04</totfact>
</mgrwt>
</event>
<event>
 4    1  0.6148427E-004  0.2975315E+03  0.7818608E-02  0.1086481E+00
         -2   -1    0    0    0  501 -0.00000000000E+00  0.00000000000E+00  0.11753091254E+03  0.11753091257E+03  0.25500000000E-02 0. -1.
          2   -1    0    0  501    0  0.00000000000E+00 -0.00000000000E+00 -0.18830151691E+03  0.18830151693E+03  0.25500000000E-02 0.  1.
    5000001    1    1    2    0    0 -0.46705080406E+02 -0.99410099412E+02 -0.10151140572E+03  0.16821800704E+03  0.77000000000E+02 0.  0.
   -5000001    1    1    2    0    0  0.46705080406E+02  0.99410099412E+02  0.30740801353E+02  0.13761442246E+03  0.77000000000E+02 0.  0.
<mgrwt>
<rscale>  0 0.29753151E+03</rscale>
<asrwt>0</asrwt>
<pdfrwt beam="1">  1        2 0.28969464E-01 0.29753151E+03</pdfrwt>
<pdfrwt beam="2">  1       -2 0.18081679E-01 0.29753151E+03</pdfrwt>
<totfact> 0.45429946E+03</totfact>
</mgrwt>
</event>
<event>
 4    1  0.6148427E-004  0.7170629E+03  0.7818608E-02  0.9688489E-01
          2   -1    0    0  501    0  0.00000000000E+00  0.00000000000E+00  0.16944328872E+04  0.16944328872E+04  0.25500000000E-02 0.  1.
         -2   -1    0    0    0  501 -0.00000000000E+00 -0.00000000000E+00 -0.75863032285E+02  0.75863032328E+02  0.25500000000E-02 0. -1.
    5000001    1    1    2    0    0  0.41409867231E+02  0.31954541768E+03  0.47085217711E+03  0.57572113367E+03  0.77000000000E+02 0.  0.
   -5000001    1    1    2    0    0 -0.41409867231E+02 -0.31954541768E+03  0.11477176778E+04  0.11945747859E+04  0.77000000000E+02 0.  0.
<mgrwt>
<rscale>  0 0.71706295E+03</rscale>
<asrwt>0</asrwt>
<pdfrwt beam="1">  1        2 0.26068195E+00 0.71706295E+03</pdfrwt>
<pdfrwt beam="2">  1       -2 0.11671237E-01 0.71706295E+03</pdfrwt>
<totfact> 0.53592121E+02</totfact>
</mgrwt>
</event>
<event>
 4    1  0.6148427E-004  0.2607454E+03  0.7818608E-02  0.1106696E+00
          2   -1    0    0  501    0  0.00000000000E+00  0.00000000000E+00  0.86240864643E+03  0.86240864643E+03  0.25500000000E-02 0.  1.
         -2   -1    0    0    0  501 -0.00000000000E+00 -0.00000000000E+00 -0.19708808872E+02  0.19708809037E+02  0.25500000000E-02 0. -1.
    5000001    1    1    2    0    0  0.70282403235E+02  0.76052127288E+02  0.35855746767E+03  0.38107217150E+03  0.77000000000E+02 0.  0.
   -5000001    1    1    2    0    0 -0.70282403235E+02 -0.76052127288E+02  0.48414236988E+03  0.50104528397E+03  0.77000000000E+02 0.  0.
<mgrwt>
<rscale>  0 0.26074545E+03</rscale>
<asrwt>0</asrwt>
<pdfrwt beam="1">  1        2 0.13267826E+00 0.26074545E+03</pdfrwt>
<pdfrwt beam="2">  1       -2 0.30321244E-02 0.26074545E+03</pdfrwt>
<totfact> 0.13329211E+04</totfact>
</mgrwt>
</event>
<event>
 4    1  0.6148427E-004  0.3129588E+03  0.7818608E-02  0.1078936E+00
          2   -1    0    0  501    0  0.00000000000E+00  0.00000000000E+00  0.25623227301E+03  0.25623227303E+03  0.25500000000E-02 0.  1.
         -2   -1    0    0    0  501 -0.00000000000E+00 -0.00000000000E+00 -0.95560967328E+02  0.95560967362E+02  0.25500000000E-02 0. -1.
    5000001    1    1    2    0    0  0.70865874944E+02  0.11630046320E+03  0.76957042593E+02  0.17435353847E+03  0.77000000000E+02 0.  0.
   -5000001    1    1    2    0    0 -0.70865874944E+02 -0.11630046320E+03  0.83714263092E+02  0.17743970192E+03  0.77000000000E+02 0.  0.
<mgrwt>
<rscale>  0 0.31295881E+03</rscale>
<asrwt>0</asrwt>
<pdfrwt beam="1">  1        2 0.39420348E-01 0.31295881E+03</pdfrwt>
<pdfrwt beam="2">  1       -2 0.14701688E-01 0.31295881E+03</pdfrwt>
<totfact> 0.45925183E+03</totfact>
</mgrwt>
</event>
<event>
 4    1  0.6148427E-004  0.3685053E+03  0.7818608E-02  0.1055266E+00
         -2   -1    0    0    0  501 -0.00000000000E+00  0.00000000000E+00  0.11172114924E+03  0.11172114927E+03  0.25500000000E-02 0. -1.
          2   -1    0    0  501    0  0.00000000000E+00 -0.00000000000E+00 -0.30387297559E+03  0.30387297560E+03  0.25500000000E-02 0.  1.
    5000001    1    1    2    0    0 -0.14307231120E+03 -0.56683761702E+02 -0.17034969680E+03  0.24213788277E+03  0.77000000000E+02 0.  0.
   -5000001    1    1    2    0    0  0.14307231120E+03  0.56683761702E+02 -0.21802129552E+02  0.17345624210E+03  0.77000000000E+02 0.  0.
<mgrwt>
<rscale>  0 0.36850529E+03</rscale>
<asrwt>0</asrwt>
<pdfrwt beam="1">  1        2 0.46749688E-01 0.36850529E+03</pdfrwt>
<pdfrwt beam="2">  1       -2 0.17187869E-01 0.36850529E+03</pdfrwt>
<totfact> 0.29506693E+03</totfact>
</mgrwt>
</event>
<event>
 4    1  0.6148427E-004  0.2933405E+03  0.7818608E-02  0.1088618E+00
         -2   -1    0    0    0  501 -0.00000000000E+00  0.00000000000E+00  0.95671663604E+02  0.95671663638E+02  0.25500000000E-02 0. -1.
          2   -1    0    0  501    0  0.00000000000E+00 -0.00000000000E+00 -0.22485405125E+03  0.22485405127E+03  0.25500000000E-02 0.  1.
    5000001    1    1    2    0    0  0.51934615586E+02 -0.61135864965E+02  0.39919938218E+02  0.11814143959E+03  0.77000000000E+02 0.  0.
   -5000001    1    1    2    0    0 -0.51934615586E+02  0.61135864965E+02 -0.16910232587E+03  0.20238427531E+03  0.77000000000E+02 0.  0.
<mgrwt>
<rscale>  0 0.29334049E+03</rscale>
<asrwt>0</asrwt>
<pdfrwt beam="1">  1        2 0.34592931E-01 0.29334049E+03</pdfrwt>
<pdfrwt beam="2">  1       -2 0.14718717E-01 0.29334049E+03</pdfrwt>
<totfact> 0.52728730E+03</totfact>
</mgrwt>
</event>
<event>
 4    1  0.6148427E-004  0.1592350E+03  0.7818608E-02  0.1189563E+00
          2   -1    0    0  501    0  0.00000000000E+00  0.00000000000E+00  0.22191576094E+04  0.22191576094E+04  0.25500000000E-02 0.  1.
         -2   -1    0    0    0  501 -0.00000000000E+00 -0.00000000000E+00 -0.28564651306E+01  0.28564662688E+01  0.25500000000E-02 0. -1.
    5000001    1    1    2    0    0 -0.10784840825E+02  0.16497625773E+02  0.10435025934E+04  0.10465252729E+04  0.77000000000E+02 0.  0.
   -5000001    1    1    2    0    0  0.10784840825E+02 -0.16497625773E+02  0.11727985509E+04  0.11754888028E+04  0.77000000000E+02 0.  0.
<mgrwt>
<rscale>  0 0.15923502E+03</rscale>
<asrwt>0</asrwt>
<pdfrwt beam="1">  1        2 0.34141041E+00 0.15923502E+03</pdfrwt>
<pdfrwt beam="2">  1       -2 0.43945427E-03 0.15923502E+03</pdfrwt>
<totfact> 0.38722638E+04</totfact>
</mgrwt>
</event>
<event>
 4    1  0.6148427E-004  0.2145439E+03  0.7818608E-02  0.1138017E+00
          2   -1    0    0  501    0  0.00000000000E+00  0.00000000000E+00  0.28361085575E+04  0.28361085575E+04  0.25500000000E-02 0.  1.
         -2   -1    0    0    0  501 -0.00000000000E+00 -0.00000000000E+00 -0.40574162716E+01  0.40574170729E+01  0.25500000000E-02 0. -1.
    5000001    1    1    2    0    0 -0.61607047246E+02  0.32913517231E+02  0.10658904182E+04  0.10709482301E+04  0.77000000000E+02 0.  0.
   -5000001    1    1    2    0    0  0.61607047246E+02 -0.32913517231E+02  0.17661607230E+04  0.17692177445E+04  0.77000000000E+02 0.  0.
<mgrwt>
<rscale>  0 0.21454393E+03</rscale>
<asrwt>0</asrwt>
<pdfrwt beam="1">  1        2 0.43632485E+00 0.21454393E+03</pdfrwt>
<pdfrwt beam="2">  1       -2 0.62421730E-03 0.21454393E+03</pdfrwt>
<totfact> 0.10944114E+04</totfact>
</mgrwt>
</event>
<event>
 4    1  0.6148427E-004  0.2210458E+03  0.7818608E-02  0.1133106E+00
          2   -1    0    0  501    0  0.00000000000E+00  0.00000000000E+00  0.65215487200E+03  0.65215487201E+03  0.25500000000E-02 0.  1.
         -2   -1    0    0    0  501 -0.00000000000E+00 -0.00000000000E+00 -0.18730687892E+02  0.18730688065E+02  0.25500000000E-02 0. -1.
    5000001    1    1    2    0    0  0.30536016133E+01  0.56338027137E+02  0.14764545472E+03  0.17581660355E+03  0.77000000000E+02 0.  0.
   -5000001    1    1    2    0    0 -0.30536016133E+01 -0.56338027137E+02  0.48577872939E+03  0.49506895652E+03  0.77000000000E+02 0.  0.
<mgrwt>
<rscale>  0 0.22104578E+03</rscale>
<asrwt>0</asrwt>
<pdfrwt beam="1">  1        2 0.10033150E+00 0.22104578E+03</pdfrwt>
<pdfrwt beam="2">  1       -2 0.28816449E-02 0.22104578E+03</pdfrwt>
<totfact> 0.20162952E+04</totfact>
</mgrwt>
</event>
<event>
 4    1  0.6148427E-004  0.2767288E+03  0.7818608E-02  0.1097489E+00
          2   -1    0    0  501    0  0.00000000000E+00  0.00000000000E+00  0.11929410474E+04  0.11929410474E+04  0.25500000000E-02 0.  1.
         -2   -1    0    0    0  501 -0.00000000000E+00 -0.00000000000E+00 -0.16048320976E+02  0.16048321179E+02  0.25500000000E-02 0. -1.
    5000001    1    1    2    0    0 -0.76277399625E-01 -0.10165121116E+03  0.35387774681E+03  0.37615347165E+03  0.77000000000E+02 0.  0.
   -5000001    1    1    2    0    0  0.76277399625E-01  0.10165121116E+03  0.82301497966E+03  0.83283589698E+03  0.77000000000E+02 0.  0.
<mgrwt>
<rscale>  0 0.27672875E+03</rscale>
<asrwt>0</asrwt>
<pdfrwt beam="1">  1        2 0.18352940E+00 0.27672875E+03</pdfrwt>
<pdfrwt beam="2">  1       -2 0.24689724E-02 0.27672875E+03</pdfrwt>
<totfact> 0.11404882E+04</totfact>
</mgrwt>
</event>
<event>
 4    1  0.6148427E-004  0.8017941E+03  0.7818608E-02  0.9557424E-01
          2   -1    0    0  501    0  0.00000000000E+00  0.00000000000E+00  0.22177054762E+03  0.22177054763E+03  0.25500000000E-02 0.  1.
         -2   -1    0    0    0  501 -0.00000000000E+00 -0.00000000000E+00 -0.72470592764E+03  0.72470592764E+03  0.25500000000E-02 0. -1.
    5000001    1    1    2    0    0  0.25533896116E+03 -0.77862299747E+02 -0.59263341067E+03  0.65452569259E+03  0.77000000000E+02 0.  0.
   -5000001    1    1    2    0    0 -0.25533896116E+03  0.77862299747E+02  0.89698030654E+02  0.29195078269E+03  0.77000000000E+02 0.  0.
<mgrwt>
<rscale>  0 0.80179406E+03</rscale>
<asrwt>0</asrwt>
<pdfrwt beam="1">  1        2 0.34118546E-01 0.80179406E+03</pdfrwt>
<pdfrwt beam="2">  1       -2 0.11149322E+00 0.80179406E+03</pdfrwt>
<totfact> 0.98575623E+01</totfact>
</mgrwt>
</event>
<event>
 4    1  0.6148427E-004  0.2648267E+03  0.7818608E-02  0.1104277E+00
         -2   -1    0    0    0  501 -0.00000000000E+00  0.00000000000E+00  0.11273203843E+04  0.11273203843E+04  0.25500000000E-02 0. -1.
          2   -1    0    0  501    0  0.00000000000E+00 -0.00000000000E+00 -0.15553072246E+02  0.15553072455E+02  0.25500000000E-02 0.  1.
    5000001    1    1    2    0    0 -0.92324141253E+01  0.77214373319E+02  0.87758769801E+03  0.88438479443E+03  0.77000000000E+02 0.  0.
   -5000001    1    1    2    0    0  0.92324141253E+01 -0.77214373319E+02  0.23417961401E+03  0.25848866229E+03  0.77000000000E+02 0.  0.
<mgrwt>
<rscale>  0 0.26482670E+03</rscale>
<asrwt>0</asrwt>
<pdfrwt beam="1">  1        2 0.23927802E-02 0.26482670E+03</pdfrwt>
<pdfrwt beam="2">  1       -2 0.17343392E+00 0.26482670E+03</pdfrwt>
<totfact> 0.92045297E+02</totfact>
</mgrwt>
</event>
<event>
 4    1  0.6148427E-004  0.6693358E+03  0.7818608E-02  0.9771159E-01
         -2   -1    0    0    0  501 -0.00000000000E+00  0.00000000000E+00  0.42688855052E+02  0.42688855129E+02  0.25500000000E-02 0. -1.
          2   -1    0    0  501    0  0.00000000000E+00 -0.00000000000E+00 -0.26236962726E+04  0.26236962726E+04  0.25500000000E-02 0.  1.
    5000001    1    1    2    0    0 -0.27979154642E+03 -0.64779377542E+02 -0.19024014284E+04  0.19254973051E+04  0.77000000000E+02 0.  0.
   -5000001    1    1    2    0    0  0.27979154642E+03  0.64779377542E+02 -0.67860598918E+03  0.74088782265E+03  0.77000000000E+02 0.  0.
<mgrwt>
<rscale>  0 0.66933576E+03</rscale>
<asrwt>0</asrwt>
<pdfrwt beam="1">  1        2 0.40364545E+00 0.66933576E+03</pdfrwt>
<pdfrwt beam="2">  1       -2 0.65675182E-02 0.66933576E+03</pdfrwt>
<totfact> 0.41662802E+02</totfact>
</mgrwt>
</event>
<event>
 4    1  0.6148427E-004  0.3899479E+03  0.7818608E-02  0.1047317E+00
          2   -1    0    0  501    0  0.00000000000E+00  0.00000000000E+00  0.65589926036E+03  0.65589926037E+03  0.25500000000E-02 0.  1.
         -2   -1    0    0    0  501 -0.00000000000E+00 -0.00000000000E+00 -0.57958359334E+02  0.57958359390E+02  0.25500000000E-02 0. -1.
    5000001    1    1    2    0    0 -0.56449541040E+02 -0.84648186043E+02  0.56885288107E+03  0.58298753536E+03  0.77000000000E+02 0.  0.
   -5000001    1    1    2    0    0  0.56449541040E+02  0.84648186043E+02  0.29088019955E+02  0.13087008439E+03  0.77000000000E+02 0.  0.
<mgrwt>
<rscale>  0 0.38994792E+03</rscale>
<asrwt>0</asrwt>
<pdfrwt beam="1">  1        2 0.10090758E+00 0.38994792E+03</pdfrwt>
<pdfrwt beam="2">  1       -2 0.89166709E-02 0.38994792E+03</pdfrwt>
<totfact> 0.36356915E+03</totfact>
</mgrwt>
</event>
<event>
 4    1  0.6148427E-004  0.2418897E+03  0.7818608E-02  0.1118540E+00
          2   -1    0    0  501    0  0.00000000000E+00  0.00000000000E+00  0.11810434108E+04  0.11810434108E+04  0.25500000000E-02 0.  1.
         -2   -1    0    0    0  501 -0.00000000000E+00 -0.00000000000E+00 -0.12385363171E+02  0.12385363433E+02  0.25500000000E-02 0. -1.
    5000001    1    1    2    0    0  0.80097285857E+02 -0.42344356795E+02  0.47511173052E+03  0.48976400055E+03  0.77000000000E+02 0.  0.
   -5000001    1    1    2    0    0 -0.80097285857E+02  0.42344356795E+02  0.69354631707E+03  0.70366477365E+03  0.77000000000E+02 0.  0.
<mgrwt>
<rscale>  0 0.24188966E+03</rscale>
<asrwt>0</asrwt>
<pdfrwt beam="1">  1        2 0.18169907E+00 0.24188966E+03</pdfrwt>
<pdfrwt beam="2">  1       -2 0.19054396E-02 0.24188966E+03</pdfrwt>
<totfact> 0.16887831E+04</totfact>
</mgrwt>
</event>
<event>
 4    1  0.6148427E-004  0.2393248E+03  0.7818608E-02  0.1120243E+00
          2   -1    0    0  501    0  0.00000000000E+00  0.00000000000E+00  0.43284682241E+04  0.43284682241E+04  0.25500000000E-02 0.  1.
         -2   -1    0    0    0  501 -0.00000000000E+00 -0.00000000000E+00 -0.33081181705E+01  0.33081191533E+01  0.25500000000E-02 0. -1.
    5000001    1    1    2    0    0  0.88310309227E+02  0.23305578904E+02  0.22882750650E+04  0.22913912005E+04  0.77000000000E+02 0.  0.
   -5000001    1    1    2    0    0 -0.88310309227E+02 -0.23305578904E+02  0.20368850409E+04  0.20403851427E+04  0.77000000000E+02 0.  0.
<mgrwt>
<rscale>  0 0.23932477E+03</rscale>
<asrwt>0</asrwt>
<pdfrwt beam="1">  1        2 0.66591906E+00 0.23932477E+03</pdfrwt>
<pdfrwt beam="2">  1       -2 0.50894067E-03 0.23932477E+03</pdfrwt>
<totfact> 0.13812562E+03</totfact>
</mgrwt>
</event>
<event>
 4    1  0.6148427E-004  0.4484340E+03  0.7818608E-02  0.1028190E+00
          2   -1    0    0  501    0  0.00000000000E+00  0.00000000000E+00  0.60462570952E+03  0.60462570952E+03  0.25500000000E-02 0.  1.
         -2   -1    0    0    0  501 -0.00000000000E+00 -0.00000000000E+00 -0.83147757190E+02  0.83147757229E+02  0.25500000000E-02 0. -1.
    5000001    1    1    2    0    0  0.16028146542E+03  0.13652015839E+03  0.25453357572E+03  0.33918172559E+03  0.77000000000E+02 0.  0.
   -5000001    1    1    2    0    0 -0.16028146542E+03 -0.13652015839E+03  0.26694437660E+03  0.34859174116E+03  0.77000000000E+02 0.  0.
<mgrwt>
<rscale>  0 0.44843404E+03</rscale>
<asrwt>0</asrwt>
<pdfrwt beam="1">  1        2 0.93019342E-01 0.44843404E+03</pdfrwt>
<pdfrwt beam="2">  1       -2 0.12791962E-01 0.44843404E+03</pdfrwt>
<totfact> 0.22393412E+03</totfact>
</mgrwt>
</event>
<event>
 4    1  0.6148427E-004  0.2379060E+03  0.7818608E-02  0.1121196E+00
          2   -1    0    0  501    0  0.00000000000E+00  0.00000000000E+00  0.12681143130E+04  0.12681143130E+04  0.25500000000E-02 0.  1.
         -2   -1    0    0    0  501 -0.00000000000E+00 -0.00000000000E+00 -0.11158154505E+02  0.11158154796E+02  0.25500000000E-02 0. -1.
    5000001    1    1    2    0    0 -0.86591381964E+02  0.26819750513E+02  0.61849153456E+03  0.62982389981E+03  0.77000000000E+02 0.  0.
   -5000001    1    1    2    0    0  0.86591381964E+02 -0.26819750513E+02  0.63846462395E+03  0.64944856801E+03  0.77000000000E+02 0.  0.
<mgrwt>
<rscale>  0 0.23790600E+03</rscale>
<asrwt>0</asrwt>
<pdfrwt beam="1">  1        2 0.19509463E+00 0.23790600E+03</pdfrwt>
<pdfrwt beam="2">  1       -2 0.17166381E-02 0.23790600E+03</pdfrwt>
<totfact> 0.17566806E+04</totfact>
</mgrwt>
</event>
<event>
 4    1  0.6148427E-004  0.4100923E+03  0.7818608E-02  0.1040340E+00
          2   -1    0    0  501    0  0.00000000000E+00  0.00000000000E+00  0.14419271769E+04  0.14419271769E+04  0.25500000000E-02 0.  1.
         -2   -1    0    0    0  501 -0.00000000000E+00 -0.00000000000E+00 -0.29158143562E+02  0.29158143673E+02  0.25500000000E-02 0. -1.
    5000001    1    1    2    0    0 -0.67494170120E+02 -0.15735397222E+03  0.10021753213E+04  0.10196078218E+04  0.77000000000E+02 0.  0.
   -5000001    1    1    2    0    0  0.67494170120E+02  0.15735397222E+03  0.41059371206E+03  0.45147749884E+03  0.77000000000E+02 0.  0.
<mgrwt>
<rscale>  0 0.41009228E+03</rscale>
<asrwt>0</asrwt>
<pdfrwt beam="1">  1        2 0.22183490E+00 0.41009228E+03</pdfrwt>
<pdfrwt beam="2">  1       -2 0.44858693E-02 0.41009228E+03</pdfrwt>
<totfact> 0.33911876E+03</totfact>
</mgrwt>
</event>
<event>
 4    1  0.6148427E-004  0.1884854E+03  0.7818608E-02  0.1159835E+00
          2   -1    0    0  501    0  0.00000000000E+00  0.00000000000E+00  0.10775317085E+04  0.10775317085E+04  0.25500000000E-02 0.  1.
         -2   -1    0    0    0  501 -0.00000000000E+00 -0.00000000000E+00 -0.82426247575E+01  0.82426251519E+01  0.25500000000E-02 0. -1.
    5000001    1    1    2    0    0  0.50711477031E+02  0.13852170212E+01  0.42248185103E+03  0.43242743573E+03  0.77000000000E+02 0.  0.
   -5000001    1    1    2    0    0 -0.50711477031E+02 -0.13852170212E+01  0.64680723272E+03  0.65334689792E+03  0.77000000000E+02 0.  0.
<mgrwt>
<rscale>  0 0.18848543E+03</rscale>
<asrwt>0</asrwt>
<pdfrwt beam="1">  1        2 0.16577401E+00 0.18848543E+03</pdfrwt>
<pdfrwt beam="2">  1       -2 0.12680969E-02 0.18848543E+03</pdfrwt>
<totfact> 0.34564572E+04</totfact>
</mgrwt>
</event>
<event>
 4    1  0.6148427E-004  0.2395416E+03  0.7818608E-02  0.1120099E+00
          2   -1    0    0  501    0  0.00000000000E+00  0.00000000000E+00  0.32083486451E+03  0.32083486452E+03  0.25500000000E-02 0.  1.
         -2   -1    0    0    0  501 -0.00000000000E+00 -0.00000000000E+00 -0.44711600970E+02  0.44711601043E+02  0.25500000000E-02 0. -1.
    5000001    1    1    2    0    0 -0.26332812523E+02 -0.71034059304E+02  0.59108653100E+02  0.12313442844E+03  0.77000000000E+02 0.  0.
   -5000001    1    1    2    0    0  0.26332812523E+02  0.71034059304E+02  0.21701461044E+03  0.24241203712E+03  0.77000000000E+02 0.  0.
<mgrwt>
<rscale>  0 0.23954157E+03</rscale>
<asrwt>0</asrwt>
<pdfrwt beam="1">  1        2 0.49359210E-01 0.23954157E+03</pdfrwt>
<pdfrwt beam="2">  1       -2 0.68787079E-02 0.23954157E+03</pdfrwt>
<totfact> 0.11965298E+04</totfact>
</mgrwt>
</event>
<event>
 4    1  0.6148427E-004  0.2209785E+03  0.7818608E-02  0.1133156E+00
         -2   -1    0    0    0  501 -0.00000000000E+00  0.00000000000E+00  0.20039772915E+02  0.20039773078E+02  0.25500000000E-02 0. -1.
          2   -1    0    0  501    0  0.00000000000E+00 -0.00000000000E+00 -0.60918250212E+03  0.60918250213E+03  0.25500000000E-02 0.  1.
    5000001    1    1    2    0    0  0.11078992105E+01 -0.73633525963E+02 -0.37786826226E+03  0.39260227611E+03  0.77000000000E+02 0.  0.
   -5000001    1    1    2    0    0 -0.11078992105E+01  0.73633525963E+02 -0.21127446695E+03  0.23661999910E+03  0.77000000000E+02 0.  0.
<mgrwt>
<rscale>  0 0.22097854E+03</rscale>
<asrwt>0</asrwt>
<pdfrwt beam="1">  1        2 0.93720371E-01 0.22097854E+03</pdfrwt>
<pdfrwt beam="2">  1       -2 0.30830425E-02 0.22097854E+03</pdfrwt>
<totfact> 0.19755118E+04</totfact>
</mgrwt>
</event>
<event>
 4    1  0.6148427E-004  0.2182104E+03  0.7818608E-02  0.1135224E+00
         -2   -1    0    0    0  501 -0.00000000000E+00  0.00000000000E+00  0.13664841039E+02  0.13664841277E+02  0.25500000000E-02 0. -1.
          2   -1    0    0  501    0  0.00000000000E+00 -0.00000000000E+00 -0.87113654974E+03  0.87113654974E+03  0.25500000000E-02 0.  1.
    5000001    1    1    2    0    0 -0.25969520223E+02  0.72162410226E+02 -0.38960891254E+03  0.40448230389E+03  0.77000000000E+02 0.  0.
   -5000001    1    1    2    0    0  0.25969520223E+02 -0.72162410226E+02 -0.46786279616E+03  0.48031908713E+03  0.77000000000E+02 0.  0.
<mgrwt>
<rscale>  0 0.21821038E+03</rscale>
<asrwt>0</asrwt>
<pdfrwt beam="1">  1        2 0.13402096E+00 0.21821038E+03</pdfrwt>
<pdfrwt beam="2">  1       -2 0.21022839E-02 0.21821038E+03</pdfrwt>
<totfact> 0.22395967E+04</totfact>
</mgrwt>
</event>
<event>
 4    1  0.6148427E-004  0.2101323E+03  0.7818608E-02  0.1141461E+00
          2   -1    0    0  501    0  0.00000000000E+00  0.00000000000E+00  0.37555236693E+03  0.37555236694E+03  0.25500000000E-02 0.  1.
         -2   -1    0    0    0  501 -0.00000000000E+00 -0.00000000000E+00 -0.29393766391E+02  0.29393766502E+02  0.25500000000E-02 0. -1.
    5000001    1    1    2    0    0 -0.62813007073E+02 -0.13948471078E+02  0.11306427376E+03  0.15117064432E+03  0.77000000000E+02 0.  0.
   -5000001    1    1    2    0    0  0.62813007073E+02  0.13948471078E+02  0.23309432678E+03  0.25377548912E+03  0.77000000000E+02 0.  0.
<mgrwt>
<rscale>  0 0.21013233E+03</rscale>
<asrwt>0</asrwt>
<pdfrwt beam="1">  1        2 0.57777291E-01 0.21013233E+03</pdfrwt>
<pdfrwt beam="2">  1       -2 0.45221176E-02 0.21013233E+03</pdfrwt>
<totfact> 0.18990845E+04</totfact>
</mgrwt>
</event>
<event>
 4    1  0.6148427E-004  0.2275868E+03  0.7818608E-02  0.1128350E+00
         -2   -1    0    0    0  501 -0.00000000000E+00  0.00000000000E+00  0.16583542231E+03  0.16583542233E+03  0.25500000000E-02 0. -1.
          2   -1    0    0  501    0  0.00000000000E+00 -0.00000000000E+00 -0.78083084943E+02  0.78083084985E+02  0.25500000000E-02 0.  1.
    5000001    1    1    2    0    0  0.33765557225E+02  0.76489880084E+02  0.38091962787E+02  0.11987832264E+03  0.77000000000E+02 0.  0.
   -5000001    1    1    2    0    0 -0.33765557225E+02 -0.76489880084E+02  0.49660374576E+02  0.12404018467E+03  0.77000000000E+02 0.  0.
<mgrwt>
<rscale>  0 0.22758683E+03</rscale>
<asrwt>0</asrwt>
<pdfrwt beam="1">  1        2 0.12012782E-01 0.22758683E+03</pdfrwt>
<pdfrwt beam="2">  1       -2 0.25513142E-01 0.22758683E+03</pdfrwt>
<totfact> 0.68602282E+03</totfact>
</mgrwt>
</event>
<event>
 4    1  0.6148427E-004  0.2383653E+03  0.7818608E-02  0.1120887E+00
         -2   -1    0    0    0  501 -0.00000000000E+00  0.00000000000E+00  0.37048862542E+02  0.37048862630E+02  0.25500000000E-02 0. -1.
          2   -1    0    0  501    0  0.00000000000E+00 -0.00000000000E+00 -0.38339907679E+03  0.38339907680E+03  0.25500000000E-02 0.  1.
    5000001    1    1    2    0    0  0.49342429188E+02  0.75415106413E+02 -0.15132959178E+03  0.19222840306E+03  0.77000000000E+02 0.  0.
   -5000001    1    1    2    0    0 -0.49342429188E+02 -0.75415106413E+02 -0.19502062247E+03  0.22821953637E+03  0.77000000000E+02 0.  0.
<mgrwt>
<rscale>  0 0.23836526E+03</rscale>
<asrwt>0</asrwt>
<pdfrwt beam="1">  1        2 0.58984471E-01 0.23836526E+03</pdfrwt>
<pdfrwt beam="2">  1       -2 0.56998253E-02 0.23836526E+03</pdfrwt>
<totfact> 0.13177513E+04</totfact>
</mgrwt>
</event>
<event>
 4    1  0.6148427E-004  0.1968182E+03  0.7818608E-02  0.1152452E+00
         -2   -1    0    0    0  501 -0.00000000000E+00  0.00000000000E+00  0.27552759993E+03  0.27552759994E+03  0.25500000000E-02 0. -1.
          2   -1    0    0  501    0  0.00000000000E+00 -0.00000000000E+00 -0.35148373194E+02  0.35148373286E+02  0.25500000000E-02 0.  1.
    5000001    1    1    2    0    0 -0.36625134783E+02  0.10571111633E+02  0.44451611923E+02  0.96737245679E+02  0.77000000000E+02 0.  0.
   -5000001    1    1    2    0    0  0.36625134783E+02 -0.10571111633E+02  0.19592761481E+03  0.21393872755E+03  0.77000000000E+02 0.  0.
<mgrwt>
<rscale>  0 0.19681816E+03</rscale>
<asrwt>0</asrwt>
<pdfrwt beam="1">  1        2 0.54074419E-02 0.19681816E+03</pdfrwt>
<pdfrwt beam="2">  1       -2 0.42388862E-01 0.19681816E+03</pdfrwt>
<totfact> 0.73267853E+03</totfact>
</mgrwt>
</event>
<event>
 4    1  0.6148427E-004  0.1636338E+03  0.7818608E-02  0.1184654E+00
          2   -1    0    0  501    0  0.00000000000E+00  0.00000000000E+00  0.14898867477E+02  0.14898867696E+02  0.25500000000E-02 0.  1.
         -2   -1    0    0    0  501 -0.00000000000E+00 -0.00000000000E+00 -0.44929614829E+03  0.44929614829E+03  0.25500000000E-02 0. -1.
    5000001    1    1    2    0    0  0.72548767220E+01 -0.25487992286E+02 -0.19473009474E+03  0.21107126944E+03  0.77000000000E+02 0.  0.
   -5000001    1    1    2    0    0 -0.72548767220E+01  0.25487992286E+02 -0.23966718607E+03  0.25312374655E+03  0.77000000000E+02 0.  0.
<mgrwt>
<rscale>  0 0.16363378E+03</rscale>
<asrwt>0</asrwt>
<pdfrwt beam="1">  1        2 0.22921338E-02 0.16363378E+03</pdfrwt>
<pdfrwt beam="2">  1       -2 0.69122474E-01 0.16363378E+03</pdfrwt>
<totfact> 0.84933644E+03</totfact>
</mgrwt>
</event>
<event>
 4    1  0.6148427E-004  0.3126455E+03  0.7818608E-02  0.1079085E+00
         -2   -1    0    0    0  501 -0.00000000000E+00  0.00000000000E+00  0.11575260050E+02  0.11575260331E+02  0.25500000000E-02 0.  1.
          2   -1    0    0  501    0  0.00000000000E+00 -0.00000000000E+00 -0.21111233523E+04  0.21111233523E+04  0.25500000000E-02 0. -1.
    5000001    1    1    2    0    0  0.77781926998E+02  0.66582606168E+02 -0.44157467010E+03  0.45978305850E+03  0.77000000000E+02 0.  0.
   -5000001    1    1    2    0    0 -0.77781926998E+02 -0.66582606168E+02 -0.16579734222E+04  0.16629155541E+04  0.77000000000E+02 0.  0.
<mgrwt>
<rscale>  0 0.31264550E+03</rscale>
<asrwt>0</asrwt>
<pdfrwt beam="1">  1        2 0.32478790E+00 0.31264550E+03</pdfrwt>
<pdfrwt beam="2">  1       -2 0.17808109E-02 0.31264550E+03</pdfrwt>
<totfact> 0.59537623E+03</totfact>
</mgrwt>
</event>
<event>
 4    1  0.6148427E-004  0.3396226E+03  0.7818608E-02  0.1066957E+00
         -2   -1    0    0    0  501 -0.00000000000E+00  0.00000000000E+00  0.22518578716E+02  0.22518578861E+02  0.25500000000E-02 0. -1.
          2   -1    0    0  501    0  0.00000000000E+00 -0.00000000000E+00 -0.12805375250E+04  0.12805375250E+04  0.25500000000E-02 0.  1.
    5000001    1    1    2    0    0  0.11519495472E+03  0.96197766454E+02 -0.70409639921E+03  0.72401976993E+03  0.77000000000E+02 0.  0.
   -5000001    1    1    2    0    0 -0.11519495472E+03 -0.96197766454E+02 -0.55392254710E+03  0.57903633397E+03  0.77000000000E+02 0.  0.
<mgrwt>
<rscale>  0 0.33962264E+03</rscale>
<asrwt>0</asrwt>
<pdfrwt beam="1">  1        2 0.19700572E+00 0.33962264E+03</pdfrwt>
<pdfrwt beam="2">  1       -2 0.34643977E-02 0.33962264E+03</pdfrwt>
<totfact> 0.61625885E+03</totfact>
</mgrwt>
</event>
<event>
 4    1  0.6148427E-004  0.3913367E+03  0.7818608E-02  0.1046821E+00
          2   -1    0    0  501    0  0.00000000000E+00  0.00000000000E+00  0.52072776644E+03  0.52072776645E+03  0.25500000000E-02 0.  1.
         -2   -1    0    0    0  501 -0.00000000000E+00 -0.00000000000E+00 -0.73524227675E+02  0.73524227719E+02  0.25500000000E-02 0. -1.
    5000001    1    1    2    0    0  0.17799522112E+03  0.50727544948E+01  0.26228899504E+03  0.32624001670E+03  0.77000000000E+02 0.  0.
   -5000001    1    1    2    0    0 -0.17799522112E+03 -0.50727544948E+01  0.18491454373E+03  0.26801197746E+03  0.77000000000E+02 0.  0.
<mgrwt>
<rscale>  0 0.39133672E+03</rscale>
<asrwt>0</asrwt>
<pdfrwt beam="1">  1        2 0.80111963E-01 0.39133672E+03</pdfrwt>
<pdfrwt beam="2">  1       -2 0.11311420E-01 0.39133672E+03</pdfrwt>
<totfact> 0.32529640E+03</totfact>
</mgrwt>
</event>
<event>
 4    1  0.6148427E-004  0.2866105E+03  0.7818608E-02  0.1092132E+00
          2   -1    0    0  501    0  0.00000000000E+00  0.00000000000E+00  0.99918042827E+03  0.99918042828E+03  0.25500000000E-02 0.  1.
         -2   -1    0    0    0  501 -0.00000000000E+00 -0.00000000000E+00 -0.20553240390E+02  0.20553240548E+02  0.25500000000E-02 0. -1.
    5000001    1    1    2    0    0 -0.62598889088E+02 -0.21272914854E+02  0.12934481471E+03  0.16440875559E+03  0.77000000000E+02 0.  0.
   -5000001    1    1    2    0    0  0.62598889088E+02  0.21272914854E+02  0.84928237318E+03  0.85532491324E+03  0.77000000000E+02 0.  0.
<mgrwt>
<rscale>  0 0.28661051E+03</rscale>
<asrwt>0</asrwt>
<pdfrwt beam="1">  1        2 0.15372009E+00 0.28661051E+03</pdfrwt>
<pdfrwt beam="2">  1       -2 0.31620365E-02 0.28661051E+03</pdfrwt>
<totfact> 0.10283033E+04</totfact>
</mgrwt>
</event>
<event>
 4    1  0.6148427E-004  0.2113314E+03  0.7818608E-02  0.1140516E+00
          2   -1    0    0  501    0  0.00000000000E+00  0.00000000000E+00  0.19663142999E+03  0.19663143000E+03  0.25500000000E-02 0.  1.
         -2   -1    0    0    0  501 -0.00000000000E+00 -0.00000000000E+00 -0.56782571906E+02  0.56782571963E+02  0.25500000000E-02 0. -1.
    5000001    1    1    2    0    0 -0.47300034675E+01  0.44320011087E+02  0.15676327752E+01  0.88983671469E+02  0.77000000000E+02 0.  0.
   -5000001    1    1    2    0    0  0.47300034675E+01 -0.44320011087E+02  0.13828122530E+03  0.16443033050E+03  0.77000000000E+02 0.  0.
<mgrwt>
<rscale>  0 0.21133138E+03</rscale>
<asrwt>0</asrwt>
<pdfrwt beam="1">  1        2 0.30250989E-01 0.21133138E+03</pdfrwt>
<pdfrwt beam="2">  1       -2 0.87357804E-02 0.21133138E+03</pdfrwt>
<totfact> 0.13887382E+04</totfact>
</mgrwt>
</event>
<event>
 4    1  0.6148427E-004  0.1937526E+03  0.7818608E-02  0.1155120E+00
          2   -1    0    0  501    0  0.00000000000E+00  0.00000000000E+00  0.11533366012E+04  0.11533366012E+04  0.25500000000E-02 0.  1.
         -2   -1    0    0    0  501 -0.00000000000E+00 -0.00000000000E+00 -0.81372784659E+01  0.81372788654E+01  0.25500000000E-02 0. -1.
    5000001    1    1    2    0    0  0.42074548601E+02  0.36080548847E+02  0.45513753929E+03  0.46492069573E+03  0.77000000000E+02 0.  0.
   -5000001    1    1    2    0    0 -0.42074548601E+02 -0.36080548847E+02  0.69006178346E+03  0.69655318435E+03  0.77000000000E+02 0.  0.
<mgrwt>
<rscale>  0 0.19375264E+03</rscale>
<asrwt>0</asrwt>
<pdfrwt beam="1">  1        2 0.17743649E+00 0.19375264E+03</pdfrwt>
<pdfrwt beam="2">  1       -2 0.12518884E-02 0.19375264E+03</pdfrwt>
<totfact> 0.31900805E+04</totfact>
</mgrwt>
</event>
<event>
 4    1  0.6148427E-004  0.5372771E+03  0.7818608E-02  0.1004482E+00
          2   -1    0    0  501    0  0.00000000000E+00  0.00000000000E+00  0.18375882425E+04  0.18375882425E+04  0.25500000000E-02 0.  1.
         -2   -1    0    0    0  501 -0.00000000000E+00 -0.00000000000E+00 -0.39272493213E+02  0.39272493295E+02  0.25500000000E-02 0. -1.
    5000001    1    1    2    0    0 -0.15394059024E+03  0.29544903310E+02  0.16122245998E+04  0.16216558719E+04  0.77000000000E+02 0.  0.
   -5000001    1    1    2    0    0  0.15394059024E+03 -0.29544903310E+02  0.18609114943E+03  0.25520486385E+03  0.77000000000E+02 0.  0.
<mgrwt>
<rscale>  0 0.53727710E+03</rscale>
<asrwt>0</asrwt>
<pdfrwt beam="1">  1        2 0.28270595E+00 0.53727710E+03</pdfrwt>
<pdfrwt beam="2">  1       -2 0.60419207E-02 0.53727710E+03</pdfrwt>
<totfact> 0.13010867E+03</totfact>
</mgrwt>
</event>
<event>
 4    1  0.6148427E-004  0.2308390E+03  0.7818608E-02  0.1126051E+00
          2   -1    0    0  501    0  0.00000000000E+00  0.00000000000E+00  0.31955743084E+04  0.31955743084E+04  0.25500000000E-02 0.  1.
         -2   -1    0    0    0  501 -0.00000000000E+00 -0.00000000000E+00 -0.41687835917E+01  0.41687843716E+01  0.25500000000E-02 0. -1.
    5000001    1    1    2    0    0  0.43909648987E+02 -0.69020905928E+02  0.19626275547E+04  0.19658402430E+04  0.77000000000E+02 0.  0.
   -5000001    1    1    2    0    0 -0.43909648987E+02  0.69020905928E+02  0.12287779701E+04  0.12339028497E+04  0.77000000000E+02 0.  0.
<mgrwt>
<rscale>  0 0.23083898E+03</rscale>
<asrwt>0</asrwt>
<pdfrwt beam="1">  1        2 0.49162879E+00 0.23083898E+03</pdfrwt>
<pdfrwt beam="2">  1       -2 0.64134881E-03 0.23083898E+03</pdfrwt>
<totfact> 0.64524093E+03</totfact>
</mgrwt>
</event>
<event>
 4    1  0.6148427E-004  0.1923528E+03  0.7818608E-02  0.1156356E+00
         -2   -1    0    0    0  501 -0.00000000000E+00  0.00000000000E+00  0.76126263933E+01  0.76126268204E+01  0.25500000000E-02 0. -1.
          2   -1    0    0  501    0  0.00000000000E+00 -0.00000000000E+00 -0.12150733453E+04  0.12150733453E+04  0.25500000000E-02 0.  1.
    5000001    1    1    2    0    0 -0.21561883513E+02 -0.48068019892E+02 -0.75218508444E+03  0.75794910819E+03  0.77000000000E+02 0.  0.
   -5000001    1    1    2    0    0  0.21561883513E+02  0.48068019892E+02 -0.45527563450E+03  0.46473686397E+03  0.77000000000E+02 0.  0.
<mgrwt>
<rscale>  0 0.19235280E+03</rscale>
<asrwt>0</asrwt>
<pdfrwt beam="1">  1        2 0.18693421E+00 0.19235280E+03</pdfrwt>
<pdfrwt beam="2">  1       -2 0.11711743E-02 0.19235280E+03</pdfrwt>
<totfact> 0.32405557E+04</totfact>
</mgrwt>
</event>
<event>
 4    1  0.6148427E-004  0.2130813E+03  0.7818608E-02  0.1139149E+00
          2   -1    0    0  501    0  0.00000000000E+00  0.00000000000E+00  0.21476306058E+04  0.21476306058E+04  0.25500000000E-02 0.  1.
         -2   -1    0    0    0  501 -0.00000000000E+00 -0.00000000000E+00 -0.52853158177E+01  0.52853164328E+01  0.25500000000E-02 0. -1.
    5000001    1    1    2    0    0  0.43467156225E+02 -0.46288939709E+02  0.14478463507E+04  0.14512822313E+04  0.77000000000E+02 0.  0.
   -5000001    1    1    2    0    0 -0.43467156225E+02  0.46288939709E+02  0.69449893925E+03  0.70163369091E+03  0.77000000000E+02 0.  0.
<mgrwt>
<rscale>  0 0.21308127E+03</rscale>
<asrwt>0</asrwt>
<pdfrwt beam="1">  1        2 0.33040520E+00 0.21308127E+03</pdfrwt>
<pdfrwt beam="2">  1       -2 0.81312434E-03 0.21308127E+03</pdfrwt>
<totfact> 0.17738925E+04</totfact>
</mgrwt>
</event>
<event>
 4    1  0.6148427E-004  0.2254345E+03  0.7818608E-02  0.1129895E+00
         -2   -1    0    0    0  501 -0.00000000000E+00  0.00000000000E+00  0.73303214157E+02  0.73303214202E+02  0.25500000000E-02 0. -1.
          2   -1    0    0  501    0  0.00000000000E+00 -0.00000000000E+00 -0.17332357640E+03  0.17332357641E+03  0.25500000000E-02 0.  1.
    5000001    1    1    2    0    0  0.64875518649E+02  0.18026598272E+02  0.17952064061E+01  0.10230353822E+03  0.77000000000E+02 0.  0.
   -5000001    1    1    2    0    0 -0.64875518649E+02 -0.18026598272E+02 -0.10181556864E+03  0.14432325240E+03  0.77000000000E+02 0.  0.
<mgrwt>
<rscale>  0 0.22543447E+03</rscale>
<asrwt>0</asrwt>
<pdfrwt beam="1">  1        2 0.26665165E-01 0.22543447E+03</pdfrwt>
<pdfrwt beam="2">  1       -2 0.11277418E-01 0.22543447E+03</pdfrwt>
<totfact> 0.10689677E+04</totfact>
</mgrwt>
</event>
<event>
 4    1  0.6148427E-004  0.2535900E+03  0.7818608E-02  0.1111057E+00
          2   -1    0    0  501    0  0.00000000000E+00  0.00000000000E+00  0.25447898700E+03  0.25447898701E+03  0.25500000000E-02 0.  1.
         -2   -1    0    0    0  501 -0.00000000000E+00 -0.00000000000E+00 -0.63176009738E+02  0.63176009790E+02  0.25500000000E-02 0. -1.
    5000001    1    1    2    0    0 -0.30023272774E+02 -0.91922294997E+02  0.13101172220E+03  0.18012267092E+03  0.77000000000E+02 0.  0.
   -5000001    1    1    2    0    0  0.30023272774E+02  0.91922294997E+02  0.60291255058E+02  0.13753232588E+03  0.77000000000E+02 0.  0.
<mgrwt>
<rscale>  0 0.25358996E+03</rscale>
<asrwt>0</asrwt>
<pdfrwt beam="1">  1        2 0.39150613E-01 0.25358996E+03</pdfrwt>
<pdfrwt beam="2">  1       -2 0.97193861E-02 0.25358996E+03</pdfrwt>
<totfact> 0.89656462E+03</totfact>
</mgrwt>
</event>
<event>
 4    1  0.6148427E-004  0.3204588E+03  0.7818608E-02  0.1075438E+00
         -2   -1    0    0    0  501 -0.00000000000E+00  0.00000000000E+00  0.17334859346E+03  0.17334859347E+03  0.25500000000E-02 0. -1.
          2   -1    0    0  501    0  0.00000000000E+00 -0.00000000000E+00 -0.14810307343E+03  0.14810307346E+03  0.25500000000E-02 0.  1.
    5000001    1    1    2    0    0 -0.95523287259E+02  0.87363160052E+02 -0.42204057437E+02  0.15641995591E+03  0.77000000000E+02 0.  0.
   -5000001    1    1    2    0    0  0.95523287259E+02 -0.87363160052E+02  0.67449577457E+02  0.16503171102E+03  0.77000000000E+02 0.  0.
<mgrwt>
<rscale>  0 0.32045879E+03</rscale>
<asrwt>0</asrwt>
<pdfrwt beam="1">  1        2 0.22785088E-01 0.32045879E+03</pdfrwt>
<pdfrwt beam="2">  1       -2 0.26669014E-01 0.32045879E+03</pdfrwt>
<totfact> 0.30306521E+03</totfact>
</mgrwt>
</event>
<event>
 4    1  0.6148427E-004  0.3490197E+03  0.7818608E-02  0.1063018E+00
         -2   -1    0    0    0  501 -0.00000000000E+00  0.00000000000E+00  0.27862253214E+02  0.27862253330E+02  0.25500000000E-02 0. -1.
          2   -1    0    0  501    0  0.00000000000E+00 -0.00000000000E+00 -0.10930089110E+04  0.10930089110E+04  0.25500000000E-02 0.  1.
    5000001    1    1    2    0    0  0.12735619170E+03  0.78373898703E+00 -0.82523232797E+03  0.83854493555E+03  0.77000000000E+02 0.  0.
   -5000001    1    1    2    0    0 -0.12735619170E+03 -0.78373898703E+00 -0.23991432986E+03  0.28232622883E+03  0.77000000000E+02 0.  0.
<mgrwt>
<rscale>  0 0.34901972E+03</rscale>
<asrwt>0</asrwt>
<pdfrwt beam="1">  1        2 0.16815518E+00 0.34901972E+03</pdfrwt>
<pdfrwt beam="2">  1       -2 0.42865014E-02 0.34901972E+03</pdfrwt>
<totfact> 0.57314720E+03</totfact>
</mgrwt>
</event>
<event>
 4    1  0.6148427E-004  0.2502091E+03  0.7818608E-02  0.1113173E+00
          2   -1    0    0  501    0  0.00000000000E+00  0.00000000000E+00  0.30513684650E+03  0.30513684651E+03  0.25500000000E-02 0.  1.
         -2   -1    0    0    0  501 -0.00000000000E+00 -0.00000000000E+00 -0.51292226134E+02  0.51292226197E+02  0.25500000000E-02 0. -1.
    5000001    1    1    2    0    0  0.91885819138E+02  0.12219543932E+02  0.17480472271E+03  0.21231583101E+03  0.77000000000E+02 0.  0.
   -5000001    1    1    2    0    0 -0.91885819138E+02 -0.12219543932E+02  0.79039897648E+02  0.14411324170E+03  0.77000000000E+02 0.  0.
<mgrwt>
<rscale>  0 0.25020910E+03</rscale>
<asrwt>0</asrwt>
<pdfrwt beam="1">  1        2 0.46944131E-01 0.25020910E+03</pdfrwt>
<pdfrwt beam="2">  1       -2 0.78911116E-02 0.25020910E+03</pdfrwt>
<totfact> 0.10227163E+04</totfact>
</mgrwt>
</event>
<event>
 4    1  0.6148427E-004  0.1769259E+03  0.7818608E-02  0.1170812E+00
         -2   -1    0    0    0  501 -0.00000000000E+00  0.00000000000E+00  0.60191770679E+01  0.60191776081E+01  0.25500000000E-02 0. -1.
          2   -1    0    0  501    0  0.00000000000E+00 -0.00000000000E+00 -0.13001266830E+04  0.13001266830E+04  0.25500000000E-02 0.  1.
    5000001    1    1    2    0    0 -0.73876600276E+01  0.42919417687E+02 -0.64851418183E+03  0.65451989883E+03  0.77000000000E+02 0.  0.
   -5000001    1    1    2    0    0  0.73876600276E+01 -0.42919417687E+02 -0.64559332406E+03  0.65162596174E+03  0.77000000000E+02 0.  0.
<mgrwt>
<rscale>  0 0.17692589E+03</rscale>
<asrwt>0</asrwt>
<pdfrwt beam="1">  1        2 0.20001927E+00 0.17692589E+03</pdfrwt>
<pdfrwt beam="2">  1       -2 0.92602832E-03 0.17692589E+03</pdfrwt>
<totfact> 0.40563218E+04</totfact>
</mgrwt>
</event>
<event>
 4    1  0.6148427E-004  0.1954701E+03  0.7818608E-02  0.1153618E+00
         -2   -1    0    0    0  501 -0.00000000000E+00  0.00000000000E+00  0.28355341338E+03  0.28355341339E+03  0.25500000000E-02 0. -1.
          2   -1    0    0  501    0  0.00000000000E+00 -0.00000000000E+00 -0.33687268446E+02  0.33687268543E+02  0.25500000000E-02 0.  1.
    5000001    1    1    2    0    0 -0.78000270722E+01 -0.48382315195E+02  0.68211718726E+02  0.11394528256E+03  0.77000000000E+02 0.  0.
   -5000001    1    1    2    0    0  0.78000270722E+01  0.48382315195E+02  0.18165442621E+03  0.20329539937E+03  0.77000000000E+02 0.  0.
<mgrwt>
<rscale>  0 0.19547010E+03</rscale>
<asrwt>0</asrwt>
<pdfrwt beam="1">  1        2 0.51826566E-02 0.19547010E+03</pdfrwt>
<pdfrwt beam="2">  1       -2 0.43623603E-01 0.19547010E+03</pdfrwt>
<totfact> 0.73251513E+03</totfact>
</mgrwt>
</event>
<event>
 4    1  0.6148427E-004  0.2900331E+03  0.7818608E-02  0.1090332E+00
          2   -1    0    0  501    0  0.00000000000E+00  0.00000000000E+00  0.62180119017E+03  0.62180119018E+03  0.25500000000E-02 0.  1.
         -2   -1    0    0    0  501 -0.00000000000E+00 -0.00000000000E+00 -0.33820767670E+02  0.33820767766E+02  0.25500000000E-02 0. -1.
    5000001    1    1    2    0    0  0.21032813728E+02  0.98041809443E+02  0.45456930122E+03  0.47182287488E+03  0.77000000000E+02 0.  0.
   -5000001    1    1    2    0    0 -0.21032813728E+02 -0.98041809443E+02  0.13341112129E+03  0.18379908306E+03  0.77000000000E+02 0.  0.
<mgrwt>
<rscale>  0 0.29003306E+03</rscale>
<asrwt>0</asrwt>
<pdfrwt beam="1">  1        2 0.95661711E-01 0.29003306E+03</pdfrwt>
<pdfrwt beam="2">  1       -2 0.52031956E-02 0.29003306E+03</pdfrwt>
<totfact> 0.88943792E+03</totfact>
</mgrwt>
</event>
<event>
 4    1  0.6148427E-004  0.2743274E+03  0.7818608E-02  0.1098828E+00
          2   -1    0    0  501    0  0.00000000000E+00  0.00000000000E+00  0.88379386031E+03  0.88379386032E+03  0.25500000000E-02 0.  1.
         -2   -1    0    0    0  501 -0.00000000000E+00 -0.00000000000E+00 -0.21287630579E+02  0.21287630732E+02  0.25500000000E-02 0. -1.
    5000001    1    1    2    0    0 -0.19671887113E+02  0.10090077988E+03  0.27244426999E+03  0.30120230871E+03  0.77000000000E+02 0.  0.
   -5000001    1    1    2    0    0  0.19671887113E+02 -0.10090077988E+03  0.59006195975E+03  0.60387918234E+03  0.77000000000E+02 0.  0.
<mgrwt>
<rscale>  0 0.27432738E+03</rscale>
<asrwt>0</asrwt>
<pdfrwt beam="1">  1        2 0.13596828E+00 0.27432738E+03</pdfrwt>
<pdfrwt beam="2">  1       -2 0.32750203E-02 0.27432738E+03</pdfrwt>
<totfact> 0.11526772E+04</totfact>
</mgrwt>
</event>
<event>
 4    1  0.6148427E-004  0.2746966E+03  0.7818608E-02  0.1098621E+00
         -2   -1    0    0    0  501 -0.00000000000E+00  0.00000000000E+00  0.11326392502E+02  0.11326392789E+02  0.25500000000E-02 0. -1.
          2   -1    0    0  501    0  0.00000000000E+00 -0.00000000000E+00 -0.16655394130E+04  0.16655394130E+04  0.25500000000E-02 0.  1.
    5000001    1    1    2    0    0  0.11162161029E+03 -0.15813500274E+02 -0.91889704743E+03  0.92898344143E+03  0.77000000000E+02 0.  0.
   -5000001    1    1    2    0    0 -0.11162161029E+03  0.15813500274E+02 -0.73531597310E+03  0.74788236439E+03  0.77000000000E+02 0.  0.
<mgrwt>
<rscale>  0 0.27469658E+03</rscale>
<asrwt>0</asrwt>
<pdfrwt beam="1">  1        2 0.25623664E+00 0.27469658E+03</pdfrwt>
<pdfrwt beam="2">  1       -2 0.17425233E-02 0.27469658E+03</pdfrwt>
<totfact> 0.10548813E+04</totfact>
</mgrwt>
</event>
<event>
 4    1  0.6148427E-004  0.1982727E+03  0.7818608E-02  0.1151205E+00
         -2   -1    0    0    0  501 -0.00000000000E+00  0.00000000000E+00  0.76567231251E+02  0.76567231294E+02  0.25500000000E-02 0.  1.
          2   -1    0    0  501    0  0.00000000000E+00 -0.00000000000E+00 -0.12835803881E+03  0.12835803884E+03  0.25500000000E-02 0. -1.
    5000001    1    1    2    0    0 -0.55351726529E+02  0.27036423494E+02 -0.36447656366E+02  0.10512950813E+03  0.77000000000E+02 0.  0.
   -5000001    1    1    2    0    0  0.55351726529E+02 -0.27036423494E+02 -0.15343151197E+02  0.99795762003E+02  0.77000000000E+02 0.  0.
<mgrwt>
<rscale>  0 0.19827274E+03</rscale>
<asrwt>0</asrwt>
<pdfrwt beam="1">  1        2 0.19747391E-01 0.19827274E+03</pdfrwt>
<pdfrwt beam="2">  1       -2 0.11779574E-01 0.19827274E+03</pdfrwt>
<totfact> 0.13854092E+04</totfact>
</mgrwt>
</event>
<event>
 4    1  0.6148427E-004  0.1769481E+03  0.7818608E-02  0.1170790E+00
          2   -1    0    0  501    0  0.00000000000E+00  0.00000000000E+00  0.78164281757E+03  0.78164281757E+03  0.25500000000E-02 0.  1.
         -2   -1    0    0    0  501 -0.00000000000E+00 -0.00000000000E+00 -0.10014365177E+02  0.10014365501E+02  0.25500000000E-02 0. -1.
    5000001    1    1    2    0    0 -0.20031911362E+02  0.35418215334E+02  0.31608237132E+03  0.32786093532E+03  0.77000000000E+02 0.  0.
   -5000001    1    1    2    0    0  0.20031911362E+02 -0.35418215334E+02  0.45554608107E+03  0.46379624775E+03  0.77000000000E+02 0.  0.
<mgrwt>
<rscale>  0 0.17694809E+03</rscale>
<asrwt>0</asrwt>
<pdfrwt beam="1">  1        2 0.12025279E+00 0.17694809E+03</pdfrwt>
<pdfrwt beam="2">  1       -2 0.15406709E-02 0.17694809E+03</pdfrwt>
<totfact> 0.39864107E+04</totfact>
</mgrwt>
</event>
<event>
 4    1  0.6148427E-004  0.2018567E+03  0.7818608E-02  0.1148182E+00
          2   -1    0    0  501    0  0.00000000000E+00  0.00000000000E+00  0.10706224082E+03  0.10706224085E+03  0.25500000000E-02 0.  1.
         -2   -1    0    0    0  501 -0.00000000000E+00 -0.00000000000E+00 -0.95145896983E+02  0.95145897018E+02  0.25500000000E-02 0. -1.
    5000001    1    1    2    0    0  0.37837736774E+02 -0.42301755412E+02 -0.26291044129E+02  0.99203587820E+02  0.77000000000E+02 0.  0.
   -5000001    1    1    2    0    0 -0.37837736774E+02  0.42301755412E+02  0.38207387964E+02  0.10300455005E+03  0.77000000000E+02 0.  0.
<mgrwt>
<rscale>  0 0.20185671E+03</rscale>
<asrwt>0</asrwt>
<pdfrwt beam="1">  1        2 0.16471114E-01 0.20185671E+03</pdfrwt>
<pdfrwt beam="2">  1       -2 0.14637830E-01 0.20185671E+03</pdfrwt>
<totfact> 0.12021996E+04</totfact>
</mgrwt>
</event>
<event>
 4    1  0.6148427E-004  0.2580434E+03  0.7818608E-02  0.1108325E+00
          2   -1    0    0  501    0  0.00000000000E+00  0.00000000000E+00  0.89584292112E+03  0.89584292113E+03  0.25500000000E-02 0.  1.
         -2   -1    0    0    0  501 -0.00000000000E+00 -0.00000000000E+00 -0.18582054871E+02  0.18582055046E+02  0.25500000000E-02 0. -1.
    5000001    1    1    2    0    0  0.21779329750E+02 -0.97932972129E+02  0.34811742888E+03  0.37037811832E+03  0.77000000000E+02 0.  0.
   -5000001    1    1    2    0    0 -0.21779329750E+02  0.97932972129E+02  0.52914343737E+03  0.54404685786E+03  0.77000000000E+02 0.  0.
<mgrwt>
<rscale>  0 0.25804343E+03</rscale>
<asrwt>0</asrwt>
<pdfrwt beam="1">  1        2 0.13782205E+00 0.25804343E+03</pdfrwt>
<pdfrwt beam="2">  1       -2 0.28587763E-02 0.25804343E+03</pdfrwt>
<totfact> 0.13828487E+04</totfact>
</mgrwt>
</event>
<event>
 4    1  0.6148427E-004  0.3643500E+03  0.7818608E-02  0.1056875E+00
         -2   -1    0    0    0  501 -0.00000000000E+00  0.00000000000E+00  0.16766548856E+02  0.16766549050E+02  0.25500000000E-02 0. -1.
          2   -1    0    0  501    0  0.00000000000E+00 -0.00000000000E+00 -0.19794011585E+04  0.19794011585E+04  0.25500000000E-02 0.  1.
    5000001    1    1    2    0    0  0.16236873176E+03  0.18373423063E+02 -0.85195260459E+03  0.87089231722E+03  0.77000000000E+02 0.  0.
   -5000001    1    1    2    0    0 -0.16236873176E+03 -0.18373423063E+02 -0.11106820051E+04  0.11252753903E+04  0.77000000000E+02 0.  0.
<mgrwt>
<rscale>  0 0.36434998E+03</rscale>
<asrwt>0</asrwt>
<pdfrwt beam="1">  1        2 0.30452307E+00 0.36434998E+03</pdfrwt>
<pdfrwt beam="2">  1       -2 0.25794706E-02 0.36434998E+03</pdfrwt>
<totfact> 0.40334582E+03</totfact>
</mgrwt>
</event>
<event>
 4    1  0.6148427E-004  0.2098073E+03  0.7818608E-02  0.1141719E+00
         -2   -1    0    0    0  501 -0.00000000000E+00  0.00000000000E+00  0.10553083414E+03  0.10553083417E+03  0.25500000000E-02 0. -1.
          2   -1    0    0  501    0  0.00000000000E+00 -0.00000000000E+00 -0.10428021082E+03  0.10428021085E+03  0.25500000000E-02 0.  1.
    5000001    1    1    2    0    0 -0.29981111365E+02  0.51295452217E+02 -0.38690615166E+02  0.10467117157E+03  0.77000000000E+02 0.  0.
   -5000001    1    1    2    0    0  0.29981111365E+02 -0.51295452217E+02  0.39941238491E+02  0.10513987345E+03  0.77000000000E+02 0.  0.
<mgrwt>
<rscale>  0 0.20980732E+03</rscale>
<asrwt>0</asrwt>
<pdfrwt beam="1">  1        2 0.16043109E-01 0.20980732E+03</pdfrwt>
<pdfrwt beam="2">  1       -2 0.16235513E-01 0.20980732E+03</pdfrwt>
<totfact> 0.10475639E+04</totfact>
</mgrwt>
</event>
<event>
 4    1  0.6148427E-004  0.2528734E+03  0.7818608E-02  0.1111502E+00
         -2   -1    0    0    0  501 -0.00000000000E+00  0.00000000000E+00  0.65556113386E+02  0.65556113436E+02  0.25500000000E-02 0. -1.
          2   -1    0    0  501    0  0.00000000000E+00 -0.00000000000E+00 -0.24385580458E+03  0.24385580459E+03  0.25500000000E-02 0.  1.
    5000001    1    1    2    0    0  0.71524319380E+02  0.70139405056E+02 -0.83414069237E+02  0.15140069799E+03  0.77000000000E+02 0.  0.
   -5000001    1    1    2    0    0 -0.71524319380E+02 -0.70139405056E+02 -0.94885621952E+02  0.15801122004E+03  0.77000000000E+02 0.  0.
<mgrwt>
<rscale>  0 0.25287340E+03</rscale>
<asrwt>0</asrwt>
<pdfrwt beam="1">  1        2 0.37516277E-01 0.25287340E+03</pdfrwt>
<pdfrwt beam="2">  1       -2 0.10085556E-01 0.25287340E+03</pdfrwt>
<totfact> 0.88520108E+03</totfact>
</mgrwt>
</event>
<event>
 4    1  0.6148427E-004  0.1854347E+03  0.7818608E-02  0.1162645E+00
          2   -1    0    0  501    0  0.00000000000E+00  0.00000000000E+00  0.23896580278E+03  0.23896580280E+03  0.25500000000E-02 0.  1.
         -2   -1    0    0    0  501 -0.00000000000E+00 -0.00000000000E+00 -0.35973795761E+02  0.35973795851E+02  0.25500000000E-02 0. -1.
    5000001    1    1    2    0    0 -0.45209306477E+02  0.23011507887E+02  0.11587842868E+03  0.14808855837E+03  0.77000000000E+02 0.  0.
   -5000001    1    1    2    0    0  0.45209306477E+02 -0.23011507887E+02  0.87113578342E+02  0.12685104028E+03  0.77000000000E+02 0.  0.
<mgrwt>
<rscale>  0 0.18543470E+03</rscale>
<asrwt>0</asrwt>
<pdfrwt beam="1">  1        2 0.36763969E-01 0.18543470E+03</pdfrwt>
<pdfrwt beam="2">  1       -2 0.55344303E-02 0.18543470E+03</pdfrwt>
<totfact> 0.22498564E+04</totfact>
</mgrwt>
</event>
<event>
 4    1  0.6148427E-004  0.2028415E+03  0.7818608E-02  0.1147364E+00
         -2   -1    0    0    0  501 -0.00000000000E+00  0.00000000000E+00  0.75848182416E+01  0.75848186703E+01  0.25500000000E-02 0. -1.
          2   -1    0    0  501    0  0.00000000000E+00 -0.00000000000E+00 -0.13561523155E+04  0.13561523155E+04  0.25500000000E-02 0.  1.
    5000001    1    1    2    0    0  0.48094477806E+02 -0.88554361453E+00 -0.37037684919E+03  0.38134219987E+03  0.77000000000E+02 0.  0.
   -5000001    1    1    2    0    0 -0.48094477806E+02  0.88554361453E+00 -0.97819064810E+03  0.98239493434E+03  0.77000000000E+02 0.  0.
<mgrwt>
<rscale>  0 0.20284151E+03</rscale>
<asrwt>0</asrwt>
<pdfrwt beam="1">  1        2 0.20863862E+00 0.20284151E+03</pdfrwt>
<pdfrwt beam="2">  1       -2 0.11668962E-02 0.20284151E+03</pdfrwt>
<totfact> 0.27339752E+04</totfact>
</mgrwt>
</event>
<event>
 4    1  0.6148427E-004  0.2474441E+03  0.7818608E-02  0.1114931E+00
          2   -1    0    0  501    0  0.00000000000E+00  0.00000000000E+00  0.46144915772E+03  0.46144915772E+03  0.25500000000E-02 0.  1.
         -2   -1    0    0    0  501 -0.00000000000E+00 -0.00000000000E+00 -0.33171887508E+02  0.33171887606E+02  0.25500000000E-02 0. -1.
    5000001    1    1    2    0    0  0.76985265884E+02 -0.53341333303E+02  0.26335069055E+03  0.28992173981E+03  0.77000000000E+02 0.  0.
   -5000001    1    1    2    0    0 -0.76985265884E+02  0.53341333303E+02  0.16492657966E+03  0.20469930552E+03  0.77000000000E+02 0.  0.
<mgrwt>
<rscale>  0 0.24744405E+03</rscale>
<asrwt>0</asrwt>
<pdfrwt beam="1">  1        2 0.70992169E-01 0.24744405E+03</pdfrwt>
<pdfrwt beam="2">  1       -2 0.51033680E-02 0.24744405E+03</pdfrwt>
<totfact> 0.12765145E+04</totfact>
</mgrwt>
</event>
<event>
 4    1  0.6148427E-004  0.1711953E+03  0.7818608E-02  0.1176607E+00
         -2   -1    0    0    0  501 -0.00000000000E+00  0.00000000000E+00  0.50902166548E+01  0.50902172935E+01  0.25500000000E-02 0. -1.
          2   -1    0    0  501    0  0.00000000000E+00 -0.00000000000E+00 -0.14394190431E+04  0.14394190431E+04  0.25500000000E-02 0.  1.
    5000001    1    1    2    0    0  0.95525723662E+01  0.30993070615E+02 -0.87414653124E+03  0.87813038903E+03  0.77000000000E+02 0.  0.
   -5000001    1    1    2    0    0 -0.95525723662E+01 -0.30993070615E+02 -0.56018229525E+03  0.56637887141E+03  0.77000000000E+02 0.  0.
<mgrwt>
<rscale>  0 0.17119527E+03</rscale>
<asrwt>0</asrwt>
<pdfrwt beam="1">  1        2 0.22144876E+00 0.17119527E+03</pdfrwt>
<pdfrwt beam="2">  1       -2 0.78311145E-03 0.17119527E+03</pdfrwt>
<totfact> 0.43320357E+04</totfact>
</mgrwt>
</event>
<event>
 4    1  0.6148427E-004  0.2271211E+03  0.7818608E-02  0.1128683E+00
         -2   -1    0    0    0  501 -0.00000000000E+00  0.00000000000E+00  0.13657853548E+02  0.13657853786E+02  0.25500000000E-02 0. -1.
          2   -1    0    0  501    0  0.00000000000E+00 -0.00000000000E+00 -0.94421890386E+03  0.94421890386E+03  0.25500000000E-02 0.  1.
    5000001    1    1    2    0    0 -0.50293543121E+02  0.39715225998E+02 -0.23972414095E+03  0.25981417092E+03  0.77000000000E+02 0.  0.
   -5000001    1    1    2    0    0  0.50293543121E+02 -0.39715225998E+02 -0.69083690936E+03  0.69806258673E+03  0.77000000000E+02 0.  0.
<mgrwt>
<rscale>  0 0.22712114E+03</rscale>
<asrwt>0</asrwt>
<pdfrwt beam="1">  1        2 0.14526440E+00 0.22712114E+03</pdfrwt>
<pdfrwt beam="2">  1       -2 0.21012090E-02 0.22712114E+03</pdfrwt>
<totfact> 0.20172874E+04</totfact>
</mgrwt>
</event>
<event>
 4    1  0.6148427E-004  0.2549838E+03  0.7818608E-02  0.1110195E+00
         -2   -1    0    0    0  501 -0.00000000000E+00  0.00000000000E+00  0.49259348346E+02  0.49259348412E+02  0.25500000000E-02 0. -1.
          2   -1    0    0  501    0  0.00000000000E+00 -0.00000000000E+00 -0.32997147403E+03  0.32997147404E+03  0.25500000000E-02 0.  1.
    5000001    1    1    2    0    0 -0.68890039116E+02  0.58481137128E+02 -0.20946711187E+03  0.24077240674E+03  0.77000000000E+02 0.  0.
   -5000001    1    1    2    0    0  0.68890039116E+02 -0.58481137128E+02 -0.71245013809E+02  0.13845841571E+03  0.77000000000E+02 0.  0.
<mgrwt>
<rscale>  0 0.25498376E+03</rscale>
<asrwt>0</asrwt>
<pdfrwt beam="1">  1        2 0.50764841E-01 0.25498376E+03</pdfrwt>
<pdfrwt beam="2">  1       -2 0.75783615E-02 0.25498376E+03</pdfrwt>
<totfact> 0.10022335E+04</totfact>
</mgrwt>
</event>
<event>
 4    1  0.6148427E-004  0.2279027E+03  0.7818608E-02  0.1128125E+00
         -2   -1    0    0    0  501 -0.00000000000E+00  0.00000000000E+00  0.18724986590E+03  0.18724986592E+03  0.25500000000E-02 0. -1.
          2   -1    0    0  501    0  0.00000000000E+00 -0.00000000000E+00 -0.69345350667E+02  0.69345350714E+02  0.25500000000E-02 0.  1.
    5000001    1    1    2    0    0 -0.37667695837E+02 -0.65446128370E+02  0.17525069112E+02  0.10926197452E+03  0.77000000000E+02 0.  0.
   -5000001    1    1    2    0    0  0.37667695837E+02  0.65446128370E+02  0.10037944612E+03  0.14733324212E+03  0.77000000000E+02 0.  0.
<mgrwt>
<rscale>  0 0.22790268E+03</rscale>
<asrwt>0</asrwt>
<pdfrwt beam="1">  1        2 0.10668516E-01 0.22790268E+03</pdfrwt>
<pdfrwt beam="2">  1       -2 0.28807671E-01 0.22790268E+03</pdfrwt>
<totfact> 0.63876843E+03</totfact>
</mgrwt>
</event>
<event>
 4    1  0.6148427E-004  0.2209805E+03  0.7818608E-02  0.1133154E+00
          2   -1    0    0  501    0  0.00000000000E+00  0.00000000000E+00  0.25586238082E+04  0.25586238082E+04  0.25500000000E-02 0.  1.
         -2   -1    0    0    0  501 -0.00000000000E+00 -0.00000000000E+00 -0.47713501651E+01  0.47713508465E+01  0.25500000000E-02 0. -1.
    5000001    1    1    2    0    0  0.49152079334E+02  0.44589838633E+02  0.17792132350E+04  0.17821147315E+04  0.77000000000E+02 0.  0.
   -5000001    1    1    2    0    0 -0.49152079334E+02 -0.44589838633E+02  0.77463922297E+03  0.78128042749E+03  0.77000000000E+02 0.  0.
<mgrwt>
<rscale>  0 0.22098046E+03</rscale>
<asrwt>0</asrwt>
<pdfrwt beam="1">  1        2 0.39363478E+00 0.22098046E+03</pdfrwt>
<pdfrwt beam="2">  1       -2 0.73405328E-03 0.22098046E+03</pdfrwt>
<totfact> 0.12394643E+04</totfact>
</mgrwt>
</event>
<event>
 4    1  0.6148427E-004  0.3693110E+03  0.7818608E-02  0.1054957E+00
         -2   -1    0    0    0  501 -0.00000000000E+00  0.00000000000E+00  0.83158121902E+02  0.83158121941E+02  0.25500000000E-02 0. -1.
          2   -1    0    0  501    0  0.00000000000E+00 -0.00000000000E+00 -0.41003394852E+03  0.41003394853E+03  0.25500000000E-02 0.  1.
    5000001    1    1    2    0    0 -0.89488623548E+02  0.35029672271E+02  0.20316470255E+02  0.12480805522E+03  0.77000000000E+02 0.  0.
   -5000001    1    1    2    0    0  0.89488623548E+02 -0.35029672271E+02 -0.34719229687E+03  0.36838401525E+03  0.77000000000E+02 0.  0.
<mgrwt>
<rscale>  0 0.36931100E+03</rscale>
<asrwt>0</asrwt>
<pdfrwt beam="1">  1        2 0.63082145E-01 0.36931100E+03</pdfrwt>
<pdfrwt beam="2">  1       -2 0.12793557E-01 0.36931100E+03</pdfrwt>
<totfact> 0.34756849E+03</totfact>
</mgrwt>
</event>
<event>
 4    1  0.6148427E-004  0.2102859E+03  0.7818608E-02  0.1141340E+00
          2   -1    0    0  501    0  0.00000000000E+00  0.00000000000E+00  0.15113589362E+04  0.15113589362E+04  0.25500000000E-02 0.  1.
         -2   -1    0    0    0  501 -0.00000000000E+00 -0.00000000000E+00 -0.73146332538E+01  0.73146336983E+01  0.25500000000E-02 0. -1.
    5000001    1    1    2    0    0  0.42277082781E+02 -0.57430478628E+02  0.79793980936E+03  0.80481212153E+03  0.77000000000E+02 0.  0.
   -5000001    1    1    2    0    0 -0.42277082781E+02  0.57430478628E+02  0.70610449361E+03  0.71386144839E+03  0.77000000000E+02 0.  0.
<mgrwt>
<rscale>  0 0.21028587E+03</rscale>
<asrwt>0</asrwt>
<pdfrwt beam="1">  1        2 0.23251689E+00 0.21028587E+03</pdfrwt>
<pdfrwt beam="2">  1       -2 0.11253276E-02 0.21028587E+03</pdfrwt>
<totfact> 0.23844069E+04</totfact>
</mgrwt>
</event>
<event>
 4    1  0.6148427E-004  0.4263931E+03  0.7818608E-02  0.1035005E+00
          2   -1    0    0  501    0  0.00000000000E+00  0.00000000000E+00  0.42323860328E+04  0.42323860328E+04  0.25500000000E-02 0.  1.
         -2   -1    0    0    0  501 -0.00000000000E+00 -0.00000000000E+00 -0.10739275542E+02  0.10739275844E+02  0.25500000000E-02 0. -1.
    5000001    1    1    2    0    0 -0.18122431840E+01 -0.16289080828E+03  0.97677608414E+03  0.99325586743E+03  0.77000000000E+02 0.  0.
   -5000001    1    1    2    0    0  0.18122431840E+01  0.16289080828E+03  0.32448706731E+04  0.32498694412E+04  0.77000000000E+02 0.  0.
<mgrwt>
<rscale>  0 0.42639306E+03</rscale>
<asrwt>0</asrwt>
<pdfrwt beam="1">  1        2 0.65113670E+00 0.42639306E+03</pdfrwt>
<pdfrwt beam="2">  1       -2 0.16521953E-02 0.42639306E+03</pdfrwt>
<totfact> 0.28640270E+02</totfact>
</mgrwt>
</event>
<event>
 4    1  0.6148427E-004  0.3861191E+03  0.7818608E-02  0.1048695E+00
         -2   -1    0    0    0  501 -0.00000000000E+00  0.00000000000E+00  0.31412164790E+02  0.31412164894E+02  0.25500000000E-02 0. -1.
          2   -1    0    0  501    0  0.00000000000E+00 -0.00000000000E+00 -0.11865463459E+04  0.11865463459E+04  0.25500000000E-02 0.  1.
    5000001    1    1    2    0    0  0.12868803933E+03 -0.11752975305E+03 -0.67576525540E+03  0.70211219525E+03  0.77000000000E+02 0.  0.
   -5000001    1    1    2    0    0 -0.12868803933E+03  0.11752975305E+03 -0.47936892566E+03  0.51584631550E+03  0.77000000000E+02 0.  0.
<mgrwt>
<rscale>  0 0.38611910E+03</rscale>
<asrwt>0</asrwt>
<pdfrwt beam="1">  1        2 0.18254556E+00 0.38611910E+03</pdfrwt>
<pdfrwt beam="2">  1       -2 0.48326416E-02 0.38611910E+03</pdfrwt>
<totfact> 0.42105450E+03</totfact>
</mgrwt>
</event>
<event>
 4    1  0.6148427E-004  0.2124368E+03  0.7818608E-02  0.1139651E+00
          2   -1    0    0  501    0  0.00000000000E+00  0.00000000000E+00  0.50253449237E+02  0.50253449302E+02  0.25500000000E-02 0.  1.
         -2   -1    0    0    0  501 -0.00000000000E+00 -0.00000000000E+00 -0.22450892781E+03  0.22450892783E+03  0.25500000000E-02 0. -1.
    5000001    1    1    2    0    0 -0.57701828238E+02 -0.39304210046E+02 -0.58819874287E+02  0.11942821911E+03  0.77000000000E+02 0.  0.
   -5000001    1    1    2    0    0  0.57701828238E+02  0.39304210046E+02 -0.11543560429E+03  0.15533415802E+03  0.77000000000E+02 0.  0.
<mgrwt>
<rscale>  0 0.21243680E+03</rscale>
<asrwt>0</asrwt>
<pdfrwt beam="1">  1        2 0.77313000E-02 0.21243680E+03</pdfrwt>
<pdfrwt beam="2">  1       -2 0.34539835E-01 0.21243680E+03</pdfrwt>
<totfact> 0.68330512E+03</totfact>
</mgrwt>
</event>
<event>
 4    1  0.6148427E-004  0.2319262E+03  0.7818608E-02  0.1125291E+00
          2   -1    0    0  501    0  0.00000000000E+00  0.00000000000E+00  0.35679425378E+03  0.35679425379E+03  0.25500000000E-02 0. -1.
         -2   -1    0    0    0  501 -0.00000000000E+00 -0.00000000000E+00 -0.37689622670E+02  0.37689622756E+02  0.25500000000E-02 0.  1.
    5000001    1    1    2    0    0 -0.61990604318E+02  0.60603112710E+02  0.15667154667E+03  0.19491163595E+03  0.77000000000E+02 0.  0.
   -5000001    1    1    2    0    0  0.61990604318E+02 -0.60603112710E+02  0.16243308444E+03  0.19957224059E+03  0.77000000000E+02 0.  0.
<mgrwt>
<rscale>  0 0.23192620E+03</rscale>
<asrwt>0</asrwt>
<pdfrwt beam="1">  1        2 0.54891423E-01 0.23192620E+03</pdfrwt>
<pdfrwt beam="2">  1       -2 0.57984035E-02 0.23192620E+03</pdfrwt>
<totfact> 0.13851613E+04</totfact>
</mgrwt>
</event>
<event>
 4    1  0.6148427E-004  0.2455337E+03  0.7818608E-02  0.1116160E+00
          2   -1    0    0  501    0  0.00000000000E+00  0.00000000000E+00  0.36309148629E+03  0.36309148629E+03  0.25500000000E-02 0.  1.
         -2   -1    0    0    0  501 -0.00000000000E+00 -0.00000000000E+00 -0.41509359294E+02  0.41509359372E+02  0.25500000000E-02 0. -1.
    5000001    1    1    2    0    0 -0.74804288015E+02 -0.59554587724E+02  0.15994349881E+03  0.20162676716E+03  0.77000000000E+02 0.  0.
   -5000001    1    1    2    0    0  0.74804288015E+02  0.59554587724E+02  0.16163862818E+03  0.20297407851E+03  0.77000000000E+02 0.  0.
<mgrwt>
<rscale>  0 0.24553366E+03</rscale>
<asrwt>0</asrwt>
<pdfrwt beam="1">  1        2 0.55860225E-01 0.24553366E+03</pdfrwt>
<pdfrwt beam="2">  1       -2 0.63860558E-02 0.24553366E+03</pdfrwt>
<totfact> 0.11759159E+04</totfact>
</mgrwt>
</event>
<event>
 4    1  0.6148427E-004  0.2781714E+03  0.7818608E-02  0.1096692E+00
         -2   -1    0    0    0  501 -0.00000000000E+00  0.00000000000E+00  0.40446677409E+02  0.40446677490E+02  0.25500000000E-02 0. -1.
          2   -1    0    0  501    0  0.00000000000E+00 -0.00000000000E+00 -0.47827995206E+03  0.47827995207E+03  0.25500000000E-02 0.  1.
    5000001    1    1    2    0    0  0.39375367079E+02  0.10459580463E+03 -0.16219769316E+03  0.21148946438E+03  0.77000000000E+02 0.  0.
   -5000001    1    1    2    0    0 -0.39375367079E+02 -0.10459580463E+03 -0.27563558149E+03  0.30723716518E+03  0.77000000000E+02 0.  0.
<mgrwt>
<rscale>  0 0.27817142E+03</rscale>
<asrwt>0</asrwt>
<pdfrwt beam="1">  1        2 0.73581527E-01 0.27817142E+03</pdfrwt>
<pdfrwt beam="2">  1       -2 0.62225661E-02 0.27817142E+03</pdfrwt>
<totfact> 0.91082194E+03</totfact>
</mgrwt>
</event>
<event>
 4    1  0.6148427E-004  0.1796410E+03  0.7818608E-02  0.1168151E+00
          2   -1    0    0  501    0  0.00000000000E+00  0.00000000000E+00  0.44188439455E+03  0.44188439456E+03  0.25500000000E-02 0.  1.
         -2   -1    0    0    0  501 -0.00000000000E+00 -0.00000000000E+00 -0.18257538137E+02  0.18257538315E+02  0.25500000000E-02 0. -1.
    5000001    1    1    2    0    0  0.78207304389E+01  0.43325601136E+02  0.17554831232E+03  0.19668370928E+03  0.77000000000E+02 0.  0.
   -5000001    1    1    2    0    0 -0.78207304389E+01 -0.43325601136E+02  0.24807854410E+03  0.26345822360E+03  0.77000000000E+02 0.  0.
<mgrwt>
<rscale>  0 0.17964099E+03</rscale>
<asrwt>0</asrwt>
<pdfrwt beam="1">  1        2 0.67982210E-01 0.17964099E+03</pdfrwt>
<pdfrwt beam="2">  1       -2 0.28088522E-02 0.17964099E+03</pdfrwt>
<totfact> 0.31982481E+04</totfact>
</mgrwt>
</event>
<event>
 4    1  0.6148427E-004  0.1804630E+03  0.7818608E-02  0.1167356E+00
         -2   -1    0    0    0  501 -0.00000000000E+00  0.00000000000E+00  0.71388457877E+01  0.71388462432E+01  0.25500000000E-02 0. -1.
          2   -1    0    0  501    0  0.00000000000E+00 -0.00000000000E+00 -0.11404822276E+04  0.11404822276E+04  0.25500000000E-02 0.  1.
    5000001    1    1    2    0    0 -0.38256566898E+02  0.21523601526E+02 -0.45914536573E+03  0.46762195971E+03  0.77000000000E+02 0.  0.
   -5000001    1    1    2    0    0  0.38256566898E+02 -0.21523601526E+02 -0.67419801604E+03  0.67999911409E+03  0.77000000000E+02 0.  0.
<mgrwt>
<rscale>  0 0.18046304E+03</rscale>
<asrwt>0</asrwt>
<pdfrwt beam="1">  1        2 0.17545866E+00 0.18046304E+03</pdfrwt>
<pdfrwt beam="2">  1       -2 0.10982849E-02 0.18046304E+03</pdfrwt>
<totfact> 0.38998143E+04</totfact>
</mgrwt>
</event>
<event>
 4    1  0.6148427E-004  0.3558151E+03  0.7818608E-02  0.1060253E+00
          2   -1    0    0  501    0  0.00000000000E+00  0.00000000000E+00  0.35093513305E+03  0.35093513306E+03  0.25500000000E-02 0.  1.
         -2   -1    0    0    0  501 -0.00000000000E+00 -0.00000000000E+00 -0.90190728565E+02  0.90190728601E+02  0.25500000000E-02 0. -1.
    5000001    1    1    2    0    0 -0.43937024890E+02  0.12969316544E+03  0.23388535521E+03  0.28174836059E+03  0.77000000000E+02 0.  0.
   -5000001    1    1    2    0    0  0.43937024890E+02 -0.12969316544E+03  0.26859049278E+02  0.15937750106E+03  0.77000000000E+02 0.  0.
<mgrwt>
<rscale>  0 0.35581509E+03</rscale>
<asrwt>0</asrwt>
<pdfrwt beam="1">  1        2 0.53990020E-01 0.35581509E+03</pdfrwt>
<pdfrwt beam="2">  1       -2 0.13875497E-01 0.35581509E+03</pdfrwt>
<totfact> 0.36041404E+03</totfact>
</mgrwt>
</event>
<event>
 4    1  0.6148427E-004  0.4176240E+03  0.7818608E-02  0.1037842E+00
         -2   -1    0    0    0  501 -0.00000000000E+00  0.00000000000E+00  0.19748997484E+03  0.19748997486E+03  0.25500000000E-02 0. -1.
          2   -1    0    0  501    0  0.00000000000E+00 -0.00000000000E+00 -0.22078315481E+03  0.22078315483E+03  0.25500000000E-02 0.  1.
    5000001    1    1    2    0    0  0.13315401881E+02  0.17490690680E+03  0.71571260118E+02  0.20450225242E+03  0.77000000000E+02 0.  0.
   -5000001    1    1    2    0    0 -0.13315401881E+02 -0.17490690680E+03 -0.94864440091E+02  0.21377087726E+03  0.77000000000E+02 0.  0.
<mgrwt>
<rscale>  0 0.41762404E+03</rscale>
<asrwt>0</asrwt>
<pdfrwt beam="1">  1        2 0.33966639E-01 0.41762404E+03</pdfrwt>
<pdfrwt beam="2">  1       -2 0.30383073E-01 0.41762404E+03</pdfrwt>
<totfact> 0.15384129E+03</totfact>
</mgrwt>
</event>
<event>
 4    1  0.6148427E-004  0.2965757E+03  0.7818608E-02  0.1086965E+00
          2   -1    0    0  501    0  0.00000000000E+00  0.00000000000E+00  0.10268655032E+03  0.10268655035E+03  0.25500000000E-02 0.  1.
         -2   -1    0    0    0  501 -0.00000000000E+00 -0.00000000000E+00 -0.21413987684E+03  0.21413987686E+03  0.25500000000E-02 0. -1.
    5000001    1    1    2    0    0  0.12198797518E+03  0.28603328456E+02 -0.35427375329E+02  0.15127232202E+03  0.77000000000E+02 0.  0.
   -5000001    1    1    2    0    0 -0.12198797518E+03 -0.28603328456E+02 -0.76025951198E+02  0.16555410518E+03  0.77000000000E+02 0.  0.
<mgrwt>
<rscale>  0 0.29657569E+03</rscale>
<asrwt>0</asrwt>
<pdfrwt beam="1">  1        2 0.15797931E-01 0.29657569E+03</pdfrwt>
<pdfrwt beam="2">  1       -2 0.32944596E-01 0.29657569E+03</pdfrwt>
<totfact> 0.31468406E+03</totfact>
</mgrwt>
</event>
<event>
 4    1  0.6148427E-004  0.3230602E+03  0.7818608E-02  0.1074249E+00
          2   -1    0    0  501    0  0.00000000000E+00  0.00000000000E+00  0.76682212316E+03  0.76682212317E+03  0.25500000000E-02 0.  1.
         -2   -1    0    0    0  501 -0.00000000000E+00 -0.00000000000E+00 -0.34026114611E+02  0.34026114707E+02  0.25500000000E-02 0. -1.
    5000001    1    1    2    0    0 -0.12094948933E+03  0.27608856299E+02  0.19515428416E+03  0.24373186607E+03  0.77000000000E+02 0.  0.
   -5000001    1    1    2    0    0  0.12094948933E+03 -0.27608856299E+02  0.53764172440E+03  0.55711637180E+03  0.77000000000E+02 0.  0.
<mgrwt>
<rscale>  0 0.32306023E+03</rscale>
<asrwt>0</asrwt>
<pdfrwt beam="1">  1        2 0.11797263E+00 0.32306023E+03</pdfrwt>
<pdfrwt beam="2">  1       -2 0.52347872E-02 0.32306023E+03</pdfrwt>
<totfact> 0.68515923E+03</totfact>
</mgrwt>
</event>
<event>
 4    1  0.6148427E-004  0.1899391E+03  0.7818608E-02  0.1158516E+00
         -2   -1    0    0    0  501 -0.00000000000E+00  0.00000000000E+00  0.81574418843E+01  0.81574422829E+01  0.25500000000E-02 0. -1.
          2   -1    0    0  501    0  0.00000000000E+00 -0.00000000000E+00 -0.11056429194E+04  0.11056429194E+04  0.25500000000E-02 0.  1.
    5000001    1    1    2    0    0  0.27664258230E+02  0.56023186032E+01 -0.82957323562E+03  0.83361708860E+03  0.77000000000E+02 0.  0.
   -5000001    1    1    2    0    0 -0.27664258230E+02 -0.56023186032E+01 -0.26791224191E+03  0.28018327310E+03  0.77000000000E+02 0.  0.
<mgrwt>
<rscale>  0 0.18993913E+03</rscale>
<asrwt>0</asrwt>
<pdfrwt beam="1">  1        2 0.17009879E+00 0.18993913E+03</pdfrwt>
<pdfrwt beam="2">  1       -2 0.12549920E-02 0.18993913E+03</pdfrwt>
<totfact> 0.33809408E+04</totfact>
</mgrwt>
</event>
<event>
 4    1  0.6148427E-004  0.2331921E+03  0.7818608E-02  0.1124413E+00
          2   -1    0    0  501    0  0.00000000000E+00  0.00000000000E+00  0.10448244032E+04  0.10448244032E+04  0.25500000000E-02 0.  1.
         -2   -1    0    0    0  501 -0.00000000000E+00 -0.00000000000E+00 -0.13011410970E+02  0.13011411220E+02  0.25500000000E-02 0. -1.
    5000001    1    1    2    0    0  0.85443390508E+02 -0.14930085759E+02  0.56999340966E+03  0.58167427956E+03  0.77000000000E+02 0.  0.
   -5000001    1    1    2    0    0 -0.85443390508E+02  0.14930085759E+02  0.46181958259E+03  0.47616153489E+03  0.77000000000E+02 0.  0.
<mgrwt>
<rscale>  0 0.23319211E+03</rscale>
<asrwt>0</asrwt>
<pdfrwt beam="1">  1        2 0.16074221E+00 0.23319211E+03</pdfrwt>
<pdfrwt beam="2">  1       -2 0.20017556E-02 0.23319211E+03</pdfrwt>
<totfact> 0.18826954E+04</totfact>
</mgrwt>
</event>
<event>
 4    1  0.6148427E-004  0.3683070E+03  0.7818608E-02  0.1055342E+00
          2   -1    0    0  501    0  0.00000000000E+00  0.00000000000E+00  0.14942584020E+03  0.14942584022E+03  0.25500000000E-02 0.  1.
         -2   -1    0    0    0  501 -0.00000000000E+00 -0.00000000000E+00 -0.22695215688E+03  0.22695215689E+03  0.25500000000E-02 0. -1.
    5000001    1    1    2    0    0 -0.26554957287E+02  0.16266129860E+03 -0.95061972621E+01  0.18216265151E+03  0.77000000000E+02 0.  0.
   -5000001    1    1    2    0    0  0.26554957287E+02 -0.16266129860E+03 -0.68020119420E+02  0.19421534560E+03  0.77000000000E+02 0.  0.
<mgrwt>
<rscale>  0 0.36830703E+03</rscale>
<asrwt>0</asrwt>
<pdfrwt beam="1">  1        2 0.22988591E-01 0.36830703E+03</pdfrwt>
<pdfrwt beam="2">  1       -2 0.34915716E-01 0.36830703E+03</pdfrwt>
<totfact> 0.18364817E+03</totfact>
</mgrwt>
</event>
<event>
 4    1  0.6148427E-004  0.2017731E+03  0.7818608E-02  0.1148252E+00
         -2   -1    0    0    0  501 -0.00000000000E+00  0.00000000000E+00  0.62096551138E+01  0.62096556374E+01  0.25500000000E-02 0. -1.
          2   -1    0    0  501    0  0.00000000000E+00 -0.00000000000E+00 -0.16390751232E+04  0.16390751232E+04  0.25500000000E-02 0.  1.
    5000001    1    1    2    0    0  0.64769001146E+02  0.38679689057E+01 -0.86742507336E+03  0.87324981683E+03  0.77000000000E+02 0.  0.
   -5000001    1    1    2    0    0 -0.64769001146E+02 -0.38679689057E+01 -0.76544039477E+03  0.77203496206E+03  0.77000000000E+02 0.  0.
<mgrwt>
<rscale>  0 0.20177306E+03</rscale>
<asrwt>0</asrwt>
<pdfrwt beam="1">  1        2 0.25216506E+00 0.20177306E+03</pdfrwt>
<pdfrwt beam="2">  1       -2 0.95533290E-03 0.20177306E+03</pdfrwt>
<totfact> 0.25826405E+04</totfact>
</mgrwt>
</event>
<event>
 4    1  0.6148427E-004  0.2686444E+03  0.7818608E-02  0.1102058E+00
         -2   -1    0    0    0  501 -0.00000000000E+00  0.00000000000E+00  0.74324465281E+02  0.74324465324E+02  0.25500000000E-02 0. -1.
          2   -1    0    0  501    0  0.00000000000E+00 -0.00000000000E+00 -0.24275247074E+03  0.24275247075E+03  0.25500000000E-02 0.  1.
    5000001    1    1    2    0    0  0.10988813810E+03 -0.27988345479E+01 -0.77726596713E+02  0.15509242472E+03  0.77000000000E+02 0.  0.
   -5000001    1    1    2    0    0 -0.10988813810E+03  0.27988345479E+01 -0.90701408747E+02  0.16198451135E+03  0.77000000000E+02 0.  0.
<mgrwt>
<rscale>  0 0.26864436E+03</rscale>
<asrwt>0</asrwt>
<pdfrwt beam="1">  1        2 0.37346534E-01 0.26864436E+03</pdfrwt>
<pdfrwt beam="2">  1       -2 0.11434533E-01 0.26864436E+03</pdfrwt>
<totfact> 0.72976830E+03</totfact>
</mgrwt>
</event>
<event>
 4    1  0.6148427E-004  0.2720744E+03  0.7818608E-02  0.1100098E+00
         -2   -1    0    0    0  501 -0.00000000000E+00  0.00000000000E+00  0.25225080307E+02  0.25225080436E+02  0.25500000000E-02 0. -1.
          2   -1    0    0  501    0  0.00000000000E+00 -0.00000000000E+00 -0.73363947386E+03  0.73363947387E+03  0.25500000000E-02 0.  1.
    5000001    1    1    2    0    0  0.61714552998E+02 -0.97591748135E+01 -0.61396344704E+03  0.62191964260E+03  0.77000000000E+02 0.  0.
   -5000001    1    1    2    0    0 -0.61714552998E+02  0.97591748135E+01 -0.94450946511E+02  0.13694491170E+03  0.77000000000E+02 0.  0.
<mgrwt>
<rscale>  0 0.27207436E+03</rscale>
<asrwt>0</asrwt>
<pdfrwt beam="1">  1        2 0.11286759E+00 0.27207436E+03</pdfrwt>
<pdfrwt beam="2">  1       -2 0.38807822E-02 0.27207436E+03</pdfrwt>
<totfact> 0.11337343E+04</totfact>
</mgrwt>
</event>
<event>
 4    1  0.6148427E-004  0.2725609E+03  0.7818608E-02  0.1099823E+00
         -2   -1    0    0    0  501 -0.00000000000E+00  0.00000000000E+00  0.13652074124E+03  0.13652074126E+03  0.25500000000E-02 0. -1.
          2   -1    0    0  501    0  0.00000000000E+00 -0.00000000000E+00 -0.13604053920E+03  0.13604053923E+03  0.25500000000E-02 0.  1.
    5000001    1    1    2    0    0 -0.99927039812E+02 -0.43556012031E+02  0.27823033215E+02  0.13632923621E+03  0.77000000000E+02 0.  0.
   -5000001    1    1    2    0    0  0.99927039812E+02  0.43556012031E+02 -0.27342831183E+02  0.13623204427E+03  0.77000000000E+02 0.  0.
<mgrwt>
<rscale>  0 0.27256086E+03</rscale>
<asrwt>0</asrwt>
<pdfrwt beam="1">  1        2 0.20929314E-01 0.27256086E+03</pdfrwt>
<pdfrwt beam="2">  1       -2 0.21003191E-01 0.27256086E+03</pdfrwt>
<totfact> 0.50510524E+03</totfact>
</mgrwt>
</event>
<event>
 4    1  0.6148427E-004  0.1643552E+03  0.7818608E-02  0.1183866E+00
         -2   -1    0    0    0  501 -0.00000000000E+00  0.00000000000E+00  0.10541071618E+02  0.10541071926E+02  0.25500000000E-02 0. -1.
          2   -1    0    0  501    0  0.00000000000E+00 -0.00000000000E+00 -0.64065201299E+03  0.64065201299E+03  0.25500000000E-02 0.  1.
    5000001    1    1    2    0    0 -0.50138021621E+01  0.23391053138E+02 -0.25217402498E+03  0.26475086110E+03  0.77000000000E+02 0.  0.
   -5000001    1    1    2    0    0  0.50138021621E+01 -0.23391053138E+02 -0.37793691639E+03  0.38644222382E+03  0.77000000000E+02 0.  0.
<mgrwt>
<rscale>  0 0.16435521E+03</rscale>
<asrwt>0</asrwt>
<pdfrwt beam="1">  1        2 0.98561818E-01 0.16435521E+03</pdfrwt>
<pdfrwt beam="2">  1       -2 0.16217038E-02 0.16435521E+03</pdfrwt>
<totfact> 0.46694484E+04</totfact>
</mgrwt>
</event>
<event>
 4    1  0.6148427E-004  0.2812148E+03  0.7818608E-02  0.1095027E+00
          2   -1    0    0  501    0  0.00000000000E+00  0.00000000000E+00  0.14328480770E+04  0.14328480770E+04  0.25500000000E-02 0. -1.
         -2   -1    0    0    0  501 -0.00000000000E+00 -0.00000000000E+00 -0.13797999902E+02  0.13798000138E+02  0.25500000000E-02 0.  1.
    5000001    1    1    2    0    0 -0.49985442329E+02 -0.10051874473E+03  0.52845860225E+03  0.54571059801E+03  0.77000000000E+02 0.  0.
   -5000001    1    1    2    0    0  0.49985442329E+02  0.10051874473E+03  0.89059147485E+03  0.90093547914E+03  0.77000000000E+02 0.  0.
<mgrwt>
<rscale>  0 0.28121478E+03</rscale>
<asrwt>0</asrwt>
<pdfrwt beam="1">  1        2 0.22043827E+00 0.28121478E+03</pdfrwt>
<pdfrwt beam="2">  1       -2 0.21227682E-02 0.28121478E+03</pdfrwt>
<totfact> 0.10504963E+04</totfact>
</mgrwt>
</event>
<event>
 4    1  0.6148427E-004  0.2318364E+03  0.7818608E-02  0.1125354E+00
         -2   -1    0    0    0  501 -0.00000000000E+00  0.00000000000E+00  0.32619276174E+02  0.32619276273E+02  0.25500000000E-02 0. -1.
          2   -1    0    0  501    0  0.00000000000E+00 -0.00000000000E+00 -0.41193522570E+03  0.41193522571E+03  0.25500000000E-02 0.  1.
    5000001    1    1    2    0    0  0.23540030503E+02  0.56474904742E+02 -0.30730906250E+03  0.32266299415E+03  0.77000000000E+02 0.  0.
   -5000001    1    1    2    0    0 -0.23540030503E+02 -0.56474904742E+02 -0.72006887031E+02  0.12189150783E+03  0.77000000000E+02 0.  0.
<mgrwt>
<rscale>  0 0.23183640E+03</rscale>
<asrwt>0</asrwt>
<pdfrwt beam="1">  1        2 0.63374646E-01 0.23183640E+03</pdfrwt>
<pdfrwt beam="2">  1       -2 0.50183505E-02 0.23183640E+03</pdfrwt>
<totfact> 0.14775025E+04</totfact>
</mgrwt>
</event>
<event>
 4    1  0.6148427E-004  0.6956227E+03  0.7818608E-02  0.9724747E-01
         -2   -1    0    0    0  501 -0.00000000000E+00  0.00000000000E+00  0.35221866209E+03  0.35221866210E+03  0.25500000000E-02 0. -1.
          2   -1    0    0  501    0  0.00000000000E+00 -0.00000000000E+00 -0.34345914966E+03  0.34345914966E+03  0.25500000000E-02 0.  1.
    5000001    1    1    2    0    0  0.32634471722E+03 -0.48999161453E+02 -0.73996922762E+02  0.34685203885E+03  0.77000000000E+02 0.  0.
   -5000001    1    1    2    0    0 -0.32634471722E+03  0.48999161453E+02  0.82756435196E+02  0.34882577291E+03  0.77000000000E+02 0.  0.
<mgrwt>
<rscale>  0 0.69562266E+03</rscale>
<asrwt>0</asrwt>
<pdfrwt beam="1">  1        2 0.52839870E-01 0.69562266E+03</pdfrwt>
<pdfrwt beam="2">  1       -2 0.54187486E-01 0.69562266E+03</pdfrwt>
<totfact> 0.30553912E+02</totfact>
</mgrwt>
</event>
<event>
 4    1  0.6148427E-004  0.3310781E+03  0.7818608E-02  0.1070661E+00
          2   -1    0    0  501    0  0.00000000000E+00  0.00000000000E+00  0.67344286506E+03  0.67344286507E+03  0.25500000000E-02 0.  1.
         -2   -1    0    0    0  501 -0.00000000000E+00 -0.00000000000E+00 -0.40691161168E+02  0.40691161248E+02  0.25500000000E-02 0. -1.
    5000001    1    1    2    0    0  0.13925248117E+01 -0.14401291485E+03  0.37475491273E+03  0.40879322816E+03  0.77000000000E+02 0.  0.
   -5000001    1    1    2    0    0 -0.13925248117E+01  0.14401291485E+03  0.25799679116E+03  0.30534079816E+03  0.77000000000E+02 0.  0.
<mgrwt>
<rscale>  0 0.33107807E+03</rscale>
<asrwt>0</asrwt>
<pdfrwt beam="1">  1        2 0.10360659E+00 0.33107807E+03</pdfrwt>
<pdfrwt beam="2">  1       -2 0.62601790E-02 0.33107807E+03</pdfrwt>
<totfact> 0.61116003E+03</totfact>
</mgrwt>
</event>
<event>
 4    1  0.6148427E-004  0.3145120E+03  0.7818608E-02  0.1078203E+00
          2   -1    0    0  501    0  0.00000000000E+00  0.00000000000E+00  0.77766073484E+02  0.77766073526E+02  0.25500000000E-02 0.  1.
         -2   -1    0    0    0  501 -0.00000000000E+00 -0.00000000000E+00 -0.31799793721E+03  0.31799793722E+03  0.25500000000E-02 0. -1.
    5000001    1    1    2    0    0 -0.12294849868E+03  0.60036221708E+02 -0.13135468398E+03  0.20470401620E+03  0.77000000000E+02 0.  0.
   -5000001    1    1    2    0    0  0.12294849868E+03 -0.60036221708E+02 -0.10887717974E+03  0.19105999454E+03  0.77000000000E+02 0.  0.
<mgrwt>
<rscale>  0 0.31451201E+03</rscale>
<asrwt>0</asrwt>
<pdfrwt beam="1">  1        2 0.11964011E-01 0.31451201E+03</pdfrwt>
<pdfrwt beam="2">  1       -2 0.48922759E-01 0.31451201E+03</pdfrwt>
<totfact> 0.20621098E+03</totfact>
</mgrwt>
</event>
<event>
 4    1  0.6148427E-004  0.3551050E+03  0.7818608E-02  0.1060539E+00
          2   -1    0    0  501    0  0.00000000000E+00  0.00000000000E+00  0.10264415301E+04  0.10264415301E+04  0.25500000000E-02 0.  1.
         -2   -1    0    0    0  501 -0.00000000000E+00 -0.00000000000E+00 -0.30712800459E+02  0.30712800564E+02  0.25500000000E-02 0. -1.
    5000001    1    1    2    0    0  0.50513055212E+02  0.45558799575E+01  0.46145835719E+02  0.10310559123E+03  0.77000000000E+02 0.  0.
   -5000001    1    1    2    0    0 -0.50513055212E+02 -0.45558799575E+01  0.94958289390E+03  0.95404873941E+03  0.77000000000E+02 0.  0.
<mgrwt>
<rscale>  0 0.35510502E+03</rscale>
<asrwt>0</asrwt>
<pdfrwt beam="1">  1        2 0.15791405E+00 0.35510502E+03</pdfrwt>
<pdfrwt beam="2">  1       -2 0.47250472E-02 0.35510502E+03</pdfrwt>
<totfact> 0.54212524E+03</totfact>
</mgrwt>
</event>
<event>
 4    1  0.6148427E-004  0.2357906E+03  0.7818608E-02  0.1122629E+00
         -2   -1    0    0    0  501 -0.00000000000E+00  0.00000000000E+00  0.15368622194E+02  0.15368622405E+02  0.25500000000E-02 0. -1.
          2   -1    0    0  501    0  0.00000000000E+00 -0.00000000000E+00 -0.90439468087E+03  0.90439468087E+03  0.25500000000E-02 0.  1.
    5000001    1    1    2    0    0  0.82096953091E+02  0.26829588501E+02 -0.35637271465E+03  0.37468686696E+03  0.77000000000E+02 0.  0.
   -5000001    1    1    2    0    0 -0.82096953091E+02 -0.26829588501E+02 -0.53265334403E+03  0.54507643632E+03  0.77000000000E+02 0.  0.
<mgrwt>
<rscale>  0 0.23579059E+03</rscale>
<asrwt>0</asrwt>
<pdfrwt beam="1">  1        2 0.13913760E+00 0.23579059E+03</pdfrwt>
<pdfrwt beam="2">  1       -2 0.23644041E-02 0.23579059E+03</pdfrwt>
<totfact> 0.18008032E+04</totfact>
</mgrwt>
</event>
<event>
 4    1  0.6148427E-004  0.3000359E+03  0.7818608E-02  0.1085223E+00
         -2   -1    0    0    0  501 -0.00000000000E+00  0.00000000000E+00  0.12758868868E+04  0.12758868868E+04  0.25500000000E-02 0. -1.
          2   -1    0    0  501    0  0.00000000000E+00 -0.00000000000E+00 -0.17639015915E+02  0.17639016100E+02  0.25500000000E-02 0.  1.
    5000001    1    1    2    0    0 -0.23604109938E+02  0.12546634552E+03  0.55731480891E+03  0.57691225858E+03  0.77000000000E+02 0.  0.
   -5000001    1    1    2    0    0  0.23604109938E+02 -0.12546634552E+03  0.70093306199E+03  0.71661364434E+03  0.77000000000E+02 0.  0.
<mgrwt>
<rscale>  0 0.30003593E+03</rscale>
<asrwt>0</asrwt>
<pdfrwt beam="1">  1        2 0.27136949E-02 0.30003593E+03</pdfrwt>
<pdfrwt beam="2">  1       -2 0.19629028E+00 0.30003593E+03</pdfrwt>
<totfact> 0.54819160E+02</totfact>
</mgrwt>
</event>
<event>
 4    1  0.6148427E-004  0.2172593E+03  0.7818608E-02  0.1135943E+00
          2   -1    0    0  501    0  0.00000000000E+00  0.00000000000E+00  0.15243561007E+03  0.15243561009E+03  0.25500000000E-02 0.  1.
         -2   -1    0    0    0  501 -0.00000000000E+00 -0.00000000000E+00 -0.77412358775E+02  0.77412358817E+02  0.25500000000E-02 0. -1.
    5000001    1    1    2    0    0 -0.44023771845E+02 -0.76609897173E+01  0.10336479654E+03  0.13641870991E+03  0.77000000000E+02 0.  0.
   -5000001    1    1    2    0    0  0.44023771845E+02  0.76609897173E+01 -0.28341545238E+02  0.93429259000E+02  0.77000000000E+02 0.  0.
<mgrwt>
<rscale>  0 0.21725929E+03</rscale>
<asrwt>0</asrwt>
<pdfrwt beam="1">  1        2 0.23451632E-01 0.21725929E+03</pdfrwt>
<pdfrwt beam="2">  1       -2 0.11909594E-01 0.21725929E+03</pdfrwt>
<totfact> 0.11274713E+04</totfact>
</mgrwt>
</event>
<event>
 4    1  0.6148427E-004  0.2624207E+03  0.7818608E-02  0.1105698E+00
          2   -1    0    0  501    0  0.00000000000E+00  0.00000000000E+00  0.22105919098E+04  0.22105919098E+04  0.25500000000E-02 0.  1.
         -2   -1    0    0    0  501 -0.00000000000E+00 -0.00000000000E+00 -0.77880275898E+01  0.77880280073E+01  0.25500000000E-02 0. -1.
    5000001    1    1    2    0    0 -0.35813900250E+02  0.99689956496E+02  0.10325026587E+04  0.10407744536E+04  0.77000000000E+02 0.  0.
   -5000001    1    1    2    0    0  0.35813900250E+02 -0.99689956496E+02  0.11703012234E+04  0.11776054842E+04  0.77000000000E+02 0.  0.
<mgrwt>
<rscale>  0 0.26242066E+03</rscale>
<asrwt>0</asrwt>
<pdfrwt beam="1">  1        2 0.34009135E+00 0.26242066E+03</pdfrwt>
<pdfrwt beam="2">  1       -2 0.11981571E-02 0.26242066E+03</pdfrwt>
<totfact> 0.94125006E+03</totfact>
</mgrwt>
</event>
<event>
 4    1  0.6148427E-004  0.2469625E+03  0.7818608E-02  0.1115240E+00
         -2   -1    0    0    0  501 -0.00000000000E+00  0.00000000000E+00  0.35584574981E+02  0.35584575073E+02  0.25500000000E-02 0.  1.
          2   -1    0    0  501    0  0.00000000000E+00 -0.00000000000E+00 -0.42848952987E+03  0.42848952988E+03  0.25500000000E-02 0. -1.
    5000001    1    1    2    0    0  0.13990817450E+02  0.88802529384E+02 -0.26254292124E+03  0.28799204449E+03  0.77000000000E+02 0.  0.
   -5000001    1    1    2    0    0 -0.13990817450E+02 -0.88802529384E+02 -0.13036203365E+03  0.17608206046E+03  0.77000000000E+02 0.  0.
<mgrwt>
<rscale>  0 0.24696249E+03</rscale>
<asrwt>0</asrwt>
<pdfrwt beam="1">  1        2 0.65921462E-01 0.24696249E+03</pdfrwt>
<pdfrwt beam="2">  1       -2 0.54745503E-02 0.24696249E+03</pdfrwt>
<totfact> 0.12442350E+04</totfact>
</mgrwt>
</event>
<event>
 4    1  0.6148427E-004  0.6203420E+03  0.7818608E-02  0.9864079E-01
         -2   -1    0    0    0  501 -0.00000000000E+00  0.00000000000E+00  0.35345621223E+03  0.35345621224E+03  0.25500000000E-02 0. -1.
          2   -1    0    0  501    0  0.00000000000E+00 -0.00000000000E+00 -0.27218662712E+03  0.27218662713E+03  0.25500000000E-02 0.  1.
    5000001    1    1    2    0    0 -0.22867349017E+03 -0.17978086917E+03 -0.35270050471E+02  0.30296155282E+03  0.77000000000E+02 0.  0.
   -5000001    1    1    2    0    0  0.22867349017E+03  0.17978086917E+03  0.11653963558E+03  0.32268128655E+03  0.77000000000E+02 0.  0.
<mgrwt>
<rscale>  0 0.62034202E+03</rscale>
<asrwt>0</asrwt>
<pdfrwt beam="1">  1        2 0.41874866E-01 0.62034202E+03</pdfrwt>
<pdfrwt beam="2">  1       -2 0.54377879E-01 0.62034202E+03</pdfrwt>
<totfact> 0.39328526E+02</totfact>
</mgrwt>
</event>
<event>
 4    1  0.6148427E-004  0.2288491E+03  0.7818608E-02  0.1127452E+00
          2   -1    0    0  501    0  0.00000000000E+00  0.00000000000E+00  0.87452766260E+02  0.87452766297E+02  0.25500000000E-02 0.  1.
         -2   -1    0    0    0  501 -0.00000000000E+00 -0.00000000000E+00 -0.14971479185E+03  0.14971479188E+03  0.25500000000E-02 0. -1.
    5000001    1    1    2    0    0  0.82657361532E+02  0.95763530673E+01 -0.47186961747E+02  0.12279884084E+03  0.77000000000E+02 0.  0.
   -5000001    1    1    2    0    0 -0.82657361532E+02 -0.95763530673E+01 -0.15075063847E+02  0.11436871733E+03  0.77000000000E+02 0.  0.
<mgrwt>
<rscale>  0 0.22884906E+03</rscale>
<asrwt>0</asrwt>
<pdfrwt beam="1">  1        2 0.13454272E-01 0.22884906E+03</pdfrwt>
<pdfrwt beam="2">  1       -2 0.23033045E-01 0.22884906E+03</pdfrwt>
<totfact> 0.71604782E+03</totfact>
</mgrwt>
</event>
<event>
 4    1  0.6148427E-004  0.2831162E+03  0.7818608E-02  0.1093999E+00
         -2   -1    0    0    0  501 -0.00000000000E+00  0.00000000000E+00  0.10298972713E+03  0.10298972717E+03  0.25500000000E-02 0. -1.
          2   -1    0    0  501    0  0.00000000000E+00 -0.00000000000E+00 -0.19456983408E+03  0.19456983410E+03  0.25500000000E-02 0.  1.
    5000001    1    1    2    0    0  0.97774095974E+02 -0.36268645487E+02  0.13984062549E+02  0.13038306061E+03  0.77000000000E+02 0.  0.
   -5000001    1    1    2    0    0 -0.97774095974E+02  0.36268645487E+02 -0.10556416950E+03  0.16717650065E+03  0.77000000000E+02 0.  0.
<mgrwt>
<rscale>  0 0.28311619E+03</rscale>
<asrwt>0</asrwt>
<pdfrwt beam="1">  1        2 0.29933821E-01 0.28311619E+03</pdfrwt>
<pdfrwt beam="2">  1       -2 0.15844573E-01 0.28311619E+03</pdfrwt>
<totfact> 0.54603509E+03</totfact>
</mgrwt>
</event>
<event>
 4    1  0.6148427E-004  0.1916331E+03  0.7818608E-02  0.1156997E+00
         -2   -1    0    0    0  501 -0.00000000000E+00  0.00000000000E+00  0.77738371552E+02  0.77738371594E+02  0.25500000000E-02 0. -1.
          2   -1    0    0  501    0  0.00000000000E+00 -0.00000000000E+00 -0.11809887511E+03  0.11809887514E+03  0.25500000000E-02 0.  1.
    5000001    1    1    2    0    0 -0.49157821773E+02 -0.10575750650E+02 -0.47667853687E+02  0.10358360014E+03  0.77000000000E+02 0.  0.
   -5000001    1    1    2    0    0  0.49157821773E+02  0.10575750650E+02  0.73073501288E+01  0.92253646590E+02  0.77000000000E+02 0.  0.
<mgrwt>
<rscale>  0 0.19163313E+03</rscale>
<asrwt>0</asrwt>
<pdfrwt beam="1">  1        2 0.18169058E-01 0.19163313E+03</pdfrwt>
<pdfrwt beam="2">  1       -2 0.11959750E-01 0.19163313E+03</pdfrwt>
<totfact> 0.14839024E+04</totfact>
</mgrwt>
</event>
<event>
 4    1  0.6148427E-004  0.2776018E+03  0.7818608E-02  0.1097006E+00
         -2   -1    0    0    0  501 -0.00000000000E+00  0.00000000000E+00  0.15147674172E+02  0.15147674387E+02  0.25500000000E-02 0. -1.
          2   -1    0    0  501    0  0.00000000000E+00 -0.00000000000E+00 -0.12718583264E+04  0.12718583264E+04  0.25500000000E-02 0.  1.
    5000001    1    1    2    0    0  0.76894655422E+02 -0.13603988413E+02 -0.10228059897E+04  0.10286685322E+04  0.77000000000E+02 0.  0.
   -5000001    1    1    2    0    0 -0.76894655422E+02  0.13603988413E+02 -0.23390466249E+03  0.25833746857E+03  0.77000000000E+02 0.  0.
<mgrwt>
<rscale>  0 0.27760184E+03</rscale>
<asrwt>0</asrwt>
<pdfrwt beam="1">  1        2 0.19567043E+00 0.27760184E+03</pdfrwt>
<pdfrwt beam="2">  1       -2 0.23304124E-02 0.27760184E+03</pdfrwt>
<totfact> 0.11213712E+04</totfact>
</mgrwt>
</event>
<event>
 4    1  0.6148427E-004  0.2351091E+03  0.7818608E-02  0.1123095E+00
         -2   -1    0    0    0  501 -0.00000000000E+00  0.00000000000E+00  0.26881350332E+02  0.26881350453E+02  0.25500000000E-02 0. -1.
          2   -1    0    0  501    0  0.00000000000E+00 -0.00000000000E+00 -0.51407655968E+03  0.51407655969E+03  0.25500000000E-02 0.  1.
    5000001    1    1    2    0    0  0.72049578038E+02 -0.41529245044E+02 -0.31541501575E+03  0.33515884600E+03  0.77000000000E+02 0.  0.
   -5000001    1    1    2    0    0 -0.72049578038E+02  0.41529245044E+02 -0.17178019360E+03  0.20579906415E+03  0.77000000000E+02 0.  0.
<mgrwt>
<rscale>  0 0.23510910E+03</rscale>
<asrwt>0</asrwt>
<pdfrwt beam="1">  1        2 0.79088695E-01 0.23510910E+03</pdfrwt>
<pdfrwt beam="2">  1       -2 0.41355927E-02 0.23510910E+03</pdfrwt>
<totfact> 0.15513901E+04</totfact>
</mgrwt>
</event>
<event>
 4    1  0.6148427E-004  0.1658147E+03  0.7818608E-02  0.1182284E+00
         -2   -1    0    0    0  501 -0.00000000000E+00  0.00000000000E+00  0.15143246131E+03  0.15143246133E+03  0.25500000000E-02 0. -1.
          2   -1    0    0  501    0  0.00000000000E+00 -0.00000000000E+00 -0.45390735259E+02  0.45390735331E+02  0.25500000000E-02 0.  1.
    5000001    1    1    2    0    0  0.26751138360E+02 -0.14752919381E+02  0.49020326924E+02  0.96256243878E+02  0.77000000000E+02 0.  0.
   -5000001    1    1    2    0    0 -0.26751138360E+02  0.14752919381E+02  0.57021399125E+02  0.10056695278E+03  0.77000000000E+02 0.  0.
<mgrwt>
<rscale>  0 0.16581473E+03</rscale>
<asrwt>0</asrwt>
<pdfrwt beam="1">  1        2 0.69831901E-02 0.16581473E+03</pdfrwt>
<pdfrwt beam="2">  1       -2 0.23297302E-01 0.16581473E+03</pdfrwt>
<totfact> 0.15467734E+04</totfact>
</mgrwt>
</event>
<event>
 4    1  0.6148427E-004  0.2838163E+03  0.7818608E-02  0.1093623E+00
         -2   -1    0    0    0  501 -0.00000000000E+00  0.00000000000E+00  0.19502435333E+02  0.19502435500E+02  0.25500000000E-02 0. -1.
          2   -1    0    0  501    0  0.00000000000E+00 -0.00000000000E+00 -0.10325853483E+04  0.10325853483E+04  0.25500000000E-02 0.  1.
    5000001    1    1    2    0    0 -0.52400922083E+02  0.98584124619E+02 -0.35172466974E+03  0.37696674862E+03  0.77000000000E+02 0.  0.
   -5000001    1    1    2    0    0  0.52400922083E+02 -0.98584124619E+02 -0.66135824321E+03  0.67512103516E+03  0.77000000000E+02 0.  0.
<mgrwt>
<rscale>  0 0.28381634E+03</rscale>
<asrwt>0</asrwt>
<pdfrwt beam="1">  1        2 0.15885924E+00 0.28381634E+03</pdfrwt>
<pdfrwt beam="2">  1       -2 0.30003755E-02 0.28381634E+03</pdfrwt>
<totfact> 0.10608307E+04</totfact>
</mgrwt>
</event>
<event>
 4    1  0.6148427E-004  0.2110085E+03  0.7818608E-02  0.1140770E+00
          2   -1    0    0  501    0  0.00000000000E+00  0.00000000000E+00  0.12725573802E+04  0.12725573802E+04  0.25500000000E-02 0.  1.
         -2   -1    0    0    0  501 -0.00000000000E+00 -0.00000000000E+00 -0.87470672956E+01  0.87470676673E+01  0.25500000000E-02 0. -1.
    5000001    1    1    2    0    0  0.58231935486E+02 -0.29019461181E+02  0.82093364567E+03  0.82709983559E+03  0.77000000000E+02 0.  0.
   -5000001    1    1    2    0    0 -0.58231935486E+02  0.29019461181E+02  0.44287666727E+03  0.45420461231E+03  0.77000000000E+02 0.  0.
<mgrwt>
<rscale>  0 0.21100849E+03</rscale>
<asrwt>0</asrwt>
<pdfrwt beam="1">  1        2 0.19577812E+00 0.21100849E+03</pdfrwt>
<pdfrwt beam="2">  1       -2 0.13457023E-02 0.21100849E+03</pdfrwt>
<totfact> 0.24759434E+04</totfact>
</mgrwt>
</event>
<event>
 4    1  0.6148427E-004  0.2643505E+03  0.7818608E-02  0.1104557E+00
         -2   -1    0    0    0  501 -0.00000000000E+00  0.00000000000E+00  0.14011998833E+03  0.14011998835E+03  0.25500000000E-02 0. -1.
          2   -1    0    0  501    0  0.00000000000E+00 -0.00000000000E+00 -0.12468098024E+03  0.12468098027E+03  0.25500000000E-02 0.  1.
    5000001    1    1    2    0    0 -0.72255166134E+02 -0.78068583604E+02  0.22771243793E+02  0.13327806392E+03  0.77000000000E+02 0.  0.
   -5000001    1    1    2    0    0  0.72255166134E+02  0.78068583604E+02 -0.73322357093E+01  0.13152290470E+03  0.77000000000E+02 0.  0.
<mgrwt>
<rscale>  0 0.26435051E+03</rscale>
<asrwt>0</asrwt>
<pdfrwt beam="1">  1        2 0.19181689E-01 0.26435051E+03</pdfrwt>
<pdfrwt beam="2">  1       -2 0.21556921E-01 0.26435051E+03</pdfrwt>
<totfact> 0.53302249E+03</totfact>
</mgrwt>
</event>
<event>
 4    1  0.6148427E-004  0.1844332E+03  0.7818608E-02  0.1163580E+00
         -2   -1    0    0    0  501 -0.00000000000E+00  0.00000000000E+00  0.27213975034E+03  0.27213975036E+03  0.25500000000E-02 0. -1.
          2   -1    0    0  501    0  0.00000000000E+00 -0.00000000000E+00 -0.31248287793E+02  0.31248287897E+02  0.25500000000E-02 0.  1.
    5000001    1    1    2    0    0  0.23443692839E+02 -0.11497806069E+02  0.48873335394E+02  0.94865215916E+02  0.77000000000E+02 0.  0.
   -5000001    1    1    2    0    0 -0.23443692839E+02  0.11497806069E+02  0.19201812716E+03  0.20852282234E+03  0.77000000000E+02 0.  0.
<mgrwt>
<rscale>  0 0.18443320E+03</rscale>
<asrwt>0</asrwt>
<pdfrwt beam="1">  1        2 0.48074288E-02 0.18443320E+03</pdfrwt>
<pdfrwt beam="2">  1       -2 0.41867655E-01 0.18443320E+03</pdfrwt>
<totfact> 0.87149444E+03</totfact>
</mgrwt>
</event>
<event>
 4    1  0.6148427E-004  0.4324658E+03  0.7818608E-02  0.1033084E+00
          2   -1    0    0  501    0  0.00000000000E+00  0.00000000000E+00  0.55665186702E+03  0.55665186703E+03  0.25500000000E-02 0.  1.
         -2   -1    0    0    0  501 -0.00000000000E+00 -0.00000000000E+00 -0.83996249304E+02  0.83996249343E+02  0.25500000000E-02 0. -1.
    5000001    1    1    2    0    0  0.97097103741E+02 -0.16840293103E+03  0.31800939422E+03  0.38058687517E+03  0.77000000000E+02 0.  0.
   -5000001    1    1    2    0    0 -0.97097103741E+02  0.16840293103E+03  0.15464622349E+03  0.26006124120E+03  0.77000000000E+02 0.  0.
<mgrwt>
<rscale>  0 0.43246581E+03</rscale>
<asrwt>0</asrwt>
<pdfrwt beam="1">  1        2 0.85638746E-01 0.43246581E+03</pdfrwt>
<pdfrwt beam="2">  1       -2 0.12922500E-01 0.43246581E+03</pdfrwt>
<totfact> 0.24262465E+03</totfact>
</mgrwt>
</event>
<event>
 4    1  0.6148427E-004  0.2765260E+03  0.7818608E-02  0.1097602E+00
          2   -1    0    0  501    0  0.00000000000E+00  0.00000000000E+00  0.14318232605E+04  0.14318232605E+04  0.25500000000E-02 0.  1.
         -2   -1    0    0    0  501 -0.00000000000E+00 -0.00000000000E+00 -0.13351265709E+02  0.13351265953E+02  0.25500000000E-02 0. -1.
    5000001    1    1    2    0    0  0.79254566714E+02 -0.79720910184E+02  0.58656617042E+03  0.60218401021E+03  0.77000000000E+02 0.  0.
   -5000001    1    1    2    0    0 -0.79254566714E+02  0.79720910184E+02  0.83190582440E+03  0.84299051628E+03  0.77000000000E+02 0.  0.
<mgrwt>
<rscale>  0 0.27652597E+03</rscale>
<asrwt>0</asrwt>
<pdfrwt beam="1">  1        2 0.22028042E+00 0.27652597E+03</pdfrwt>
<pdfrwt beam="2">  1       -2 0.20540416E-02 0.27652597E+03</pdfrwt>
<totfact> 0.11037092E+04</totfact>
</mgrwt>
</event>
<event>
 4    1  0.6148427E-004  0.2480881E+03  0.7818608E-02  0.1114519E+00
         -2   -1    0    0    0  501 -0.00000000000E+00  0.00000000000E+00  0.14687861987E+02  0.14687862209E+02  0.25500000000E-02 0. -1.
          2   -1    0    0  501    0  0.00000000000E+00 -0.00000000000E+00 -0.10475948218E+04  0.10475948218E+04  0.25500000000E-02 0.  1.
    5000001    1    1    2    0    0  0.65479741706E+02  0.71876639091E+02 -0.50780402671E+03  0.52273107556E+03  0.77000000000E+02 0.  0.
   -5000001    1    1    2    0    0 -0.65479741706E+02 -0.71876639091E+02 -0.52510293306E+03  0.53955160840E+03  0.77000000000E+02 0.  0.
<mgrwt>
<rscale>  0 0.24808812E+03</rscale>
<asrwt>0</asrwt>
<pdfrwt beam="1">  1        2 0.16116838E+00 0.24808812E+03</pdfrwt>
<pdfrwt beam="2">  1       -2 0.22596719E-02 0.24808812E+03</pdfrwt>
<totfact> 0.15738022E+04</totfact>
</mgrwt>
</event>
<event>
 4    1  0.6148427E-004  0.2370115E+03  0.7818608E-02  0.1121800E+00
          2   -1    0    0  501    0  0.00000000000E+00  0.00000000000E+00  0.50239469719E+02  0.50239469784E+02  0.25500000000E-02 0.  1.
         -2   -1    0    0    0  501 -0.00000000000E+00 -0.00000000000E+00 -0.27953339216E+03  0.27953339217E+03  0.25500000000E-02 0. -1.
    5000001    1    1    2    0    0  0.79268510962E+01 -0.89718115139E+02 -0.11681780335E+03  0.16639583628E+03  0.77000000000E+02 0.  0.
   -5000001    1    1    2    0    0 -0.79268510962E+01  0.89718115139E+02 -0.11247611910E+03  0.16337702568E+03  0.77000000000E+02 0.  0.
<mgrwt>
<rscale>  0 0.23701147E+03</rscale>
<asrwt>0</asrwt>
<pdfrwt beam="1">  1        2 0.77291493E-02 0.23701147E+03</pdfrwt>
<pdfrwt beam="2">  1       -2 0.43005137E-01 0.23701147E+03</pdfrwt>
<totfact> 0.45402240E+03</totfact>
</mgrwt>
</event>
<event>
 4    1  0.6148427E-004  0.2468288E+03  0.7818608E-02  0.1115326E+00
          2   -1    0    0  501    0  0.00000000000E+00  0.00000000000E+00  0.45001544227E+03  0.45001544228E+03  0.25500000000E-02 0.  1.
         -2   -1    0    0    0  501 -0.00000000000E+00 -0.00000000000E+00 -0.33845752240E+02  0.33845752337E+02  0.25500000000E-02 0. -1.
    5000001    1    1    2    0    0  0.42565528516E+02  0.77182467211E+02  0.13132786931E+03  0.17591181518E+03  0.77000000000E+02 0.  0.
   -5000001    1    1    2    0    0 -0.42565528516E+02 -0.77182467211E+02  0.28484182072E+03  0.30794937943E+03  0.77000000000E+02 0.  0.
<mgrwt>
<rscale>  0 0.24682878E+03</rscale>
<asrwt>0</asrwt>
<pdfrwt beam="1">  1        2 0.69233135E-01 0.24682878E+03</pdfrwt>
<pdfrwt beam="2">  1       -2 0.52070396E-02 0.24682878E+03</pdfrwt>
<totfact> 0.12726034E+04</totfact>
</mgrwt>
</event>
<event>
 4    1  0.6148427E-004  0.2204299E+03  0.7818608E-02  0.1133563E+00
          2   -1    0    0  501    0  0.00000000000E+00  0.00000000000E+00  0.16173212029E+02  0.16173212230E+02  0.25500000000E-02 0.  1.
         -2   -1    0    0    0  501 -0.00000000000E+00 -0.00000000000E+00 -0.75107776472E+03  0.75107776472E+03  0.25500000000E-02 0. -1.
    5000001    1    1    2    0    0  0.57327451717E+02 -0.53213393198E+02 -0.40230070774E+03  0.41700474983E+03  0.77000000000E+02 0.  0.
   -5000001    1    1    2    0    0 -0.57327451717E+02  0.53213393198E+02 -0.33260384495E+03  0.35024622712E+03  0.77000000000E+02 0.  0.
<mgrwt>
<rscale>  0 0.22042994E+03</rscale>
<asrwt>0</asrwt>
<pdfrwt beam="1">  1        2 0.24881871E-02 0.22042994E+03</pdfrwt>
<pdfrwt beam="2">  1       -2 0.11555040E+00 0.22042994E+03</pdfrwt>
<totfact> 0.24340726E+03</totfact>
</mgrwt>
</event>
<event>
 4    1  0.6148427E-004  0.2341305E+03  0.7818608E-02  0.1123766E+00
         -2   -1    0    0    0  501 -0.00000000000E+00  0.00000000000E+00  0.24621785457E+02  0.24621785589E+02  0.25500000000E-02 0. -1.
          2   -1    0    0  501    0  0.00000000000E+00 -0.00000000000E+00 -0.55659149951E+03  0.55659149952E+03  0.25500000000E-02 0.  1.
    5000001    1    1    2    0    0 -0.83643473640E+02 -0.26985919726E+01 -0.33494840285E+03  0.35372721927E+03  0.77000000000E+02 0.  0.
   -5000001    1    1    2    0    0  0.83643473640E+02  0.26985919726E+01 -0.19702131121E+03  0.22748606584E+03  0.77000000000E+02 0.  0.
<mgrwt>
<rscale>  0 0.23413053E+03</rscale>
<asrwt>0</asrwt>
<pdfrwt beam="1">  1        2 0.85629452E-01 0.23413053E+03</pdfrwt>
<pdfrwt beam="2">  1       -2 0.37879674E-02 0.23413053E+03</pdfrwt>
<totfact> 0.16176122E+04</totfact>
</mgrwt>
</event>
<event>
 4    1  0.6148427E-004  0.2438713E+03  0.7818608E-02  0.1117240E+00
          2   -1    0    0  501    0  0.00000000000E+00  0.00000000000E+00  0.50335974936E+03  0.50335974936E+03  0.25500000000E-02 0.  1.
         -2   -1    0    0    0  501 -0.00000000000E+00 -0.00000000000E+00 -0.29538113922E+02  0.29538114032E+02  0.25500000000E-02 0. -1.
    5000001    1    1    2    0    0 -0.10273253767E+02  0.92801974043E+02  0.26943607411E+03  0.29536848877E+03  0.77000000000E+02 0.  0.
   -5000001    1    1    2    0    0  0.10273253767E+02 -0.92801974043E+02  0.20438556133E+03  0.23752937462E+03  0.77000000000E+02 0.  0.
<mgrwt>
<rscale>  0 0.24387126E+03</rscale>
<asrwt>0</asrwt>
<pdfrwt beam="1">  1        2 0.77439961E-01 0.24387126E+03</pdfrwt>
<pdfrwt beam="2">  1       -2 0.45443252E-02 0.24387126E+03</pdfrwt>
<totfact> 0.13807890E+04</totfact>
</mgrwt>
</event>
<event>
 4    1  0.6148427E-004  0.4274818E+03  0.7818608E-02  0.1034658E+00
         -2   -1    0    0    0  501 -0.00000000000E+00  0.00000000000E+00  0.50152256927E+02  0.50152256992E+02  0.25500000000E-02 0. -1.
          2   -1    0    0  501    0  0.00000000000E+00 -0.00000000000E+00 -0.91092949680E+03  0.91092949680E+03  0.25500000000E-02 0.  1.
    5000001    1    1    2    0    0 -0.14485397777E+03  0.92815010952E+02 -0.20378575603E+03  0.27758770775E+03  0.77000000000E+02 0.  0.
   -5000001    1    1    2    0    0  0.14485397777E+03 -0.92815010952E+02 -0.65699148384E+03  0.68349404604E+03  0.77000000000E+02 0.  0.
<mgrwt>
<rscale>  0 0.42748179E+03</rscale>
<asrwt>0</asrwt>
<pdfrwt beam="1">  1        2 0.14014299E+00 0.42748179E+03</pdfrwt>
<pdfrwt beam="2">  1       -2 0.77157325E-02 0.42748179E+03</pdfrwt>
<totfact> 0.30032845E+03</totfact>
</mgrwt>
</event>
<event>
 4    1  0.6148427E-004  0.3714136E+03  0.7818608E-02  0.1054154E+00
         -2   -1    0    0    0  501 -0.00000000000E+00  0.00000000000E+00  0.15740914810E+02  0.15740915016E+02  0.25500000000E-02 0. -1.
          2   -1    0    0  501    0  0.00000000000E+00 -0.00000000000E+00 -0.21909152931E+04  0.21909152931E+04  0.25500000000E-02 0.  1.
    5000001    1    1    2    0    0 -0.13243835940E+03  0.74233151830E+02 -0.15285027134E+04  0.15379531933E+04  0.77000000000E+02 0.  0.
   -5000001    1    1    2    0    0  0.13243835940E+03 -0.74233151830E+02 -0.64667166490E+03  0.66870301484E+03  0.77000000000E+02 0.  0.
<mgrwt>
<rscale>  0 0.37141358E+03</rscale>
<asrwt>0</asrwt>
<pdfrwt beam="1">  1        2 0.33706365E+00 0.37141358E+03</pdfrwt>
<pdfrwt beam="2">  1       -2 0.24216810E-02 0.37141358E+03</pdfrwt>
<totfact> 0.34159435E+03</totfact>
</mgrwt>
</event>
<event>
 4    1  0.6148427E-004  0.4951501E+03  0.7818608E-02  0.1015053E+00
         -2   -1    0    0    0  501 -0.00000000000E+00  0.00000000000E+00  0.21634110923E+03  0.21634110925E+03  0.25500000000E-02 0. -1.
          2   -1    0    0  501    0  0.00000000000E+00 -0.00000000000E+00 -0.28331836764E+03  0.28331836765E+03  0.25500000000E-02 0.  1.
    5000001    1    1    2    0    0 -0.13938677048E+03 -0.41304352448E+02 -0.22018622096E+03  0.27485576803E+03  0.77000000000E+02 0.  0.
   -5000001    1    1    2    0    0  0.13938677048E+03  0.41304352448E+02  0.15320896255E+03  0.22480370887E+03  0.77000000000E+02 0.  0.
<mgrwt>
<rscale>  0 0.49515012E+03</rscale>
<asrwt>0</asrwt>
<pdfrwt beam="1">  1        2 0.43587441E-01 0.49515012E+03</pdfrwt>
<pdfrwt beam="2">  1       -2 0.33283248E-01 0.49515012E+03</pdfrwt>
<totfact> 0.98821495E+02</totfact>
</mgrwt>
</event>
<event>
 4    1  0.6148427E-004  0.2309448E+03  0.7818608E-02  0.1125977E+00
          2   -1    0    0  501    0  0.00000000000E+00  0.00000000000E+00  0.52562047472E+03  0.52562047473E+03  0.25500000000E-02 0.  1.
         -2   -1    0    0    0  501 -0.00000000000E+00 -0.00000000000E+00 -0.25367873826E+02  0.25367873954E+02  0.25500000000E-02 0. -1.
    5000001    1    1    2    0    0 -0.21007565492E+02 -0.54377863839E+02  0.99110475443E+02  0.13838408950E+03  0.77000000000E+02 0.  0.
   -5000001    1    1    2    0    0  0.21007565492E+02  0.54377863839E+02  0.40114212545E+03  0.41260425918E+03  0.77000000000E+02 0.  0.
<mgrwt>
<rscale>  0 0.23094479E+03</rscale>
<asrwt>0</asrwt>
<pdfrwt beam="1">  1        2 0.80864689E-01 0.23094479E+03</pdfrwt>
<pdfrwt beam="2">  1       -2 0.39027498E-02 0.23094479E+03</pdfrwt>
<totfact> 0.16490201E+04</totfact>
</mgrwt>
</event>
<event>
 4    1  0.6148427E-004  0.2494907E+03  0.7818608E-02  0.1113627E+00
         -2   -1    0    0    0  501 -0.00000000000E+00  0.00000000000E+00  0.46098077800E+02  0.46098077871E+02  0.25500000000E-02 0. -1.
          2   -1    0    0  501    0  0.00000000000E+00 -0.00000000000E+00 -0.33757158849E+03  0.33757158850E+03  0.25500000000E-02 0.  1.
    5000001    1    1    2    0    0  0.47856062021E+02  0.85574728347E+02 -0.13900462445E+03  0.18672043922E+03  0.77000000000E+02 0.  0.
   -5000001    1    1    2    0    0 -0.47856062021E+02 -0.85574728347E+02 -0.15246888623E+03  0.19694922715E+03  0.77000000000E+02 0.  0.
<mgrwt>
<rscale>  0 0.24949069E+03</rscale>
<asrwt>0</asrwt>
<pdfrwt beam="1">  1        2 0.51934089E-01 0.24949069E+03</pdfrwt>
<pdfrwt beam="2">  1       -2 0.70920122E-02 0.24949069E+03</pdfrwt>
<totfact> 0.10828608E+04</totfact>
</mgrwt>
</event>
<event>
 4    1  0.6148427E-004  0.1913107E+03  0.7818608E-02  0.1157284E+00
         -2   -1    0    0    0  501 -0.00000000000E+00  0.00000000000E+00  0.25169165948E+02  0.25169166077E+02  0.25500000000E-02 0. -1.
          2   -1    0    0  501    0  0.00000000000E+00 -0.00000000000E+00 -0.36353774278E+03  0.36353774279E+03  0.25500000000E-02 0.  1.
    5000001    1    1    2    0    0 -0.29737120909E+02  0.18984101893E+02 -0.25950845537E+03  0.27298045882E+03  0.77000000000E+02 0.  0.
   -5000001    1    1    2    0    0  0.29737120909E+02 -0.18984101893E+02 -0.78860121454E+02  0.11572645005E+03  0.77000000000E+02 0.  0.
<mgrwt>
<rscale>  0 0.19131066E+03</rscale>
<asrwt>0</asrwt>
<pdfrwt beam="1">  1        2 0.55928879E-01 0.19131066E+03</pdfrwt>
<pdfrwt beam="2">  1       -2 0.38721797E-02 0.19131066E+03</pdfrwt>
<totfact> 0.24648686E+04</totfact>
</mgrwt>
</event>
<event>
 4    1  0.6148427E-004  0.2596743E+03  0.7818608E-02  0.1107339E+00
          2   -1    0    0  501    0  0.00000000000E+00  0.00000000000E+00  0.61888243982E+03  0.61888243982E+03  0.25500000000E-02 0.  1.
         -2   -1    0    0    0  501 -0.00000000000E+00 -0.00000000000E+00 -0.27238924302E+02  0.27238924421E+02  0.25500000000E-02 0. -1.
    5000001    1    1    2    0    0  0.35792563391E+02 -0.98083273270E+02  0.28283157805E+03  0.31116577195E+03  0.77000000000E+02 0.  0.
   -5000001    1    1    2    0    0 -0.35792563391E+02  0.98083273270E+02  0.30881193747E+03  0.33495559230E+03  0.77000000000E+02 0.  0.
<mgrwt>
<rscale>  0 0.25967435E+03</rscale>
<asrwt>0</asrwt>
<pdfrwt beam="1">  1        2 0.95212679E-01 0.25967435E+03</pdfrwt>
<pdfrwt beam="2">  1       -2 0.41906039E-02 0.25967435E+03</pdfrwt>
<totfact> 0.12362445E+04</totfact>
</mgrwt>
</event>
<event>
 4    1  0.6148427E-004  0.2226775E+03  0.7818608E-02  0.1131902E+00
          2   -1    0    0  501    0  0.00000000000E+00  0.00000000000E+00  0.11286845379E+04  0.11286845379E+04  0.25500000000E-02 0.  1.
         -2   -1    0    0    0  501 -0.00000000000E+00 -0.00000000000E+00 -0.10982975018E+02  0.10982975314E+02  0.25500000000E-02 0. -1.
    5000001    1    1    2    0    0  0.69829012368E+02 -0.20815286077E+02  0.38469164865E+03  0.39903136674E+03  0.77000000000E+02 0.  0.
   -5000001    1    1    2    0    0 -0.69829012368E+02  0.20815286077E+02  0.73300991419E+03  0.74063614643E+03  0.77000000000E+02 0.  0.
<mgrwt>
<rscale>  0 0.22267747E+03</rscale>
<asrwt>0</asrwt>
<pdfrwt beam="1">  1        2 0.17364364E+00 0.22267747E+03</pdfrwt>
<pdfrwt beam="2">  1       -2 0.16896898E-02 0.22267747E+03</pdfrwt>
<totfact> 0.21490222E+04</totfact>
</mgrwt>
</event>
<event>
 4    1  0.6148427E-004  0.2107252E+03  0.7818608E-02  0.1140993E+00
         -2   -1    0    0    0  501 -0.00000000000E+00  0.00000000000E+00  0.94141259714E+01  0.94141263167E+01  0.25500000000E-02 0. -1.
          2   -1    0    0  501    0  0.00000000000E+00 -0.00000000000E+00 -0.11792145026E+04  0.11792145026E+04  0.25500000000E-02 0.  1.
    5000001    1    1    2    0    0 -0.71709179790E+02  0.53950534177E+01 -0.57937057527E+03  0.58887229223E+03  0.77000000000E+02 0.  0.
   -5000001    1    1    2    0    0  0.71709179790E+02 -0.53950534177E+01 -0.59042980139E+03  0.59975633672E+03  0.77000000000E+02 0.  0.
<mgrwt>
<rscale>  0 0.21072517E+03</rscale>
<asrwt>0</asrwt>
<pdfrwt beam="1">  1        2 0.18141750E+00 0.21072517E+03</pdfrwt>
<pdfrwt beam="2">  1       -2 0.14483280E-02 0.21072517E+03</pdfrwt>
<totfact> 0.25092573E+04</totfact>
</mgrwt>
</event>
<event>
 4    1  0.6148427E-004  0.1807593E+03  0.7818608E-02  0.1167070E+00
         -2   -1    0    0    0  501 -0.00000000000E+00  0.00000000000E+00  0.68760947290E+01  0.68760952018E+01  0.25500000000E-02 0. -1.
          2   -1    0    0  501    0  0.00000000000E+00 -0.00000000000E+00 -0.11879539107E+04  0.11879539107E+04  0.25500000000E-02 0.  1.
    5000001    1    1    2    0    0 -0.35464666312E+02 -0.31331207253E+02 -0.59259551255E+03  0.59944793652E+03  0.77000000000E+02 0.  0.
   -5000001    1    1    2    0    0  0.35464666312E+02  0.31331207253E+02 -0.58848230345E+03  0.59538206941E+03  0.77000000000E+02 0.  0.
<mgrwt>
<rscale>  0 0.18075933E+03</rscale>
<asrwt>0</asrwt>
<pdfrwt beam="1">  1        2 0.18276198E+00 0.18075933E+03</pdfrwt>
<pdfrwt beam="2">  1       -2 0.10578617E-02 0.18075933E+03</pdfrwt>
<totfact> 0.38698106E+04</totfact>
</mgrwt>
</event>
<event>
 4    1  0.6148427E-004  0.1697140E+03  0.7818608E-02  0.1178146E+00
         -2   -1    0    0    0  501 -0.00000000000E+00  0.00000000000E+00  0.14133617316E+02  0.14133617546E+02  0.25500000000E-02 0. -1.
          2   -1    0    0  501    0  0.00000000000E+00 -0.00000000000E+00 -0.50947375091E+03  0.50947375092E+03  0.25500000000E-02 0.  1.
    5000001    1    1    2    0    0 -0.12881351361E+02  0.23280566126E+02 -0.32092688747E+03  0.33110569472E+03  0.77000000000E+02 0.  0.
   -5000001    1    1    2    0    0  0.12881351361E+02 -0.23280566126E+02 -0.17441324613E+03  0.19250167375E+03  0.77000000000E+02 0.  0.
<mgrwt>
<rscale>  0 0.16971396E+03</rscale>
<asrwt>0</asrwt>
<pdfrwt beam="1">  1        2 0.78380563E-01 0.16971396E+03</pdfrwt>
<pdfrwt beam="2">  1       -2 0.21744031E-02 0.16971396E+03</pdfrwt>
<totfact> 0.39630613E+04</totfact>
</mgrwt>
</event>
<event>
 4    1  0.6148427E-004  0.1858447E+03  0.7818608E-02  0.1162263E+00
          2   -1    0    0  501    0  0.00000000000E+00  0.00000000000E+00  0.15539779053E+04  0.15539779053E+04  0.25500000000E-02 0.  1.
         -2   -1    0    0    0  501 -0.00000000000E+00 -0.00000000000E+00 -0.55564236874E+01  0.55564242726E+01  0.25500000000E-02 0. -1.
    5000001    1    1    2    0    0  0.33289892873E+02 -0.39221641033E+02  0.83867113401E+03  0.84376822950E+03  0.77000000000E+02 0.  0.
   -5000001    1    1    2    0    0 -0.33289892873E+02  0.39221641033E+02  0.70975034756E+03  0.71576610004E+03  0.77000000000E+02 0.  0.
<mgrwt>
<rscale>  0 0.18584467E+03</rscale>
<asrwt>0</asrwt>
<pdfrwt beam="1">  1        2 0.23907378E+00 0.18584467E+03</pdfrwt>
<pdfrwt beam="2">  1       -2 0.85483353E-03 0.18584467E+03</pdfrwt>
<totfact> 0.33426405E+04</totfact>
</mgrwt>
</event>
<event>
 4    1  0.6148427E-004  0.1806945E+03  0.7818608E-02  0.1167133E+00
          2   -1    0    0  501    0  0.00000000000E+00  0.00000000000E+00  0.85300364962E+03  0.85300364962E+03  0.25500000000E-02 0.  1.
         -2   -1    0    0    0  501 -0.00000000000E+00 -0.00000000000E+00 -0.95692772307E+01  0.95692775704E+01  0.25500000000E-02 0. -1.
    5000001    1    1    2    0    0  0.24952904144E+02  0.36549460674E+02  0.50089624818E+03  0.50870872013E+03  0.77000000000E+02 0.  0.
   -5000001    1    1    2    0    0 -0.24952904144E+02 -0.36549460674E+02  0.34253812421E+03  0.35386420706E+03  0.77000000000E+02 0.  0.
<mgrwt>
<rscale>  0 0.18069453E+03</rscale>
<asrwt>0</asrwt>
<pdfrwt beam="1">  1        2 0.13123137E+00 0.18069453E+03</pdfrwt>
<pdfrwt beam="2">  1       -2 0.14721961E-02 0.18069453E+03</pdfrwt>
<totfact> 0.38185981E+04</totfact>
</mgrwt>
</event>
<event>
 4    1  0.6148427E-004  0.1744776E+03  0.7818608E-02  0.1173257E+00
         -2   -1    0    0    0  501 -0.00000000000E+00  0.00000000000E+00  0.67186609705E+02  0.67186609754E+02  0.25500000000E-02 0. -1.
          2   -1    0    0  501    0  0.00000000000E+00 -0.00000000000E+00 -0.11327571987E+03  0.11327571990E+03  0.25500000000E-02 0.  1.
    5000001    1    1    2    0    0 -0.22316927535E+02  0.28816501228E+02 -0.36069782050E+01  0.85266912043E+02  0.77000000000E+02 0.  0.
   -5000001    1    1    2    0    0  0.22316927535E+02 -0.28816501228E+02 -0.42482131956E+02  0.95195417606E+02  0.77000000000E+02 0.  0.
<mgrwt>
<rscale>  0 0.17447764E+03</rscale>
<asrwt>0</asrwt>
<pdfrwt beam="1">  1        2 0.17427034E-01 0.17447764E+03</pdfrwt>
<pdfrwt beam="2">  1       -2 0.10336402E-01 0.17447764E+03</pdfrwt>
<totfact> 0.19498572E+04</totfact>
</mgrwt>
</event>
<event>
 4    1  0.6148427E-004  0.2972968E+03  0.7818608E-02  0.1086600E+00
          2   -1    0    0  501    0  0.00000000000E+00  0.00000000000E+00  0.39323537254E+02  0.39323537337E+02  0.25500000000E-02 0.  1.
         -2   -1    0    0    0  501 -0.00000000000E+00 -0.00000000000E+00 -0.56191157798E+03  0.56191157798E+03  0.25500000000E-02 0. -1.
    5000001    1    1    2    0    0 -0.12378058712E+03 -0.19330073337E+02 -0.30523352475E+03  0.33880937135E+03  0.77000000000E+02 0.  0.
   -5000001    1    1    2    0    0  0.12378058712E+03  0.19330073337E+02 -0.21735451598E+03  0.26242574397E+03  0.77000000000E+02 0.  0.
<mgrwt>
<rscale>  0 0.29729683E+03</rscale>
<asrwt>0</asrwt>
<pdfrwt beam="1">  1        2 0.60497754E-02 0.29729683E+03</pdfrwt>
<pdfrwt beam="2">  1       -2 0.86447929E-01 0.29729683E+03</pdfrwt>
<totfact> 0.14657614E+03</totfact>
</mgrwt>
</event>
<event>
 4    1  0.6148427E-004  0.2506956E+03  0.7818608E-02  0.1112866E+00
          2   -1    0    0  501    0  0.00000000000E+00  0.00000000000E+00  0.26454204139E+04  0.26454204139E+04  0.25500000000E-02 0.  1.
         -2   -1    0    0    0  501 -0.00000000000E+00 -0.00000000000E+00 -0.59393467022E+01  0.59393472496E+01  0.25500000000E-02 0. -1.
    5000001    1    1    2    0    0  0.97558039318E+02  0.15256786990E+02  0.13802452671E+04  0.13859135391E+04  0.77000000000E+02 0.  0.
   -5000001    1    1    2    0    0 -0.97558039318E+02 -0.15256786990E+02  0.12592358001E+04  0.12654462220E+04  0.77000000000E+02 0.  0.
<mgrwt>
<rscale>  0 0.25069559E+03</rscale>
<asrwt>0</asrwt>
<pdfrwt beam="1">  1        2 0.40698813E+00 0.25069559E+03</pdfrwt>
<pdfrwt beam="2">  1       -2 0.91374484E-03 0.25069559E+03</pdfrwt>
<totfact> 0.80985476E+03</totfact>
</mgrwt>
</event>
<event>
 4    1  0.6148427E-004  0.3771082E+03  0.7818608E-02  0.1052008E+00
          2   -1    0    0  501    0  0.00000000000E+00  0.00000000000E+00  0.67174177786E+02  0.67174177834E+02  0.25500000000E-02 0.  1.
         -2   -1    0    0    0  501 -0.00000000000E+00 -0.00000000000E+00 -0.52926060708E+03  0.52926060709E+03  0.25500000000E-02 0. -1.
    5000001    1    1    2    0    0 -0.10940744625E+03  0.13285643103E+03 -0.23370179623E+03  0.30027712221E+03  0.77000000000E+02 0.  0.
   -5000001    1    1    2    0    0  0.10940744625E+03 -0.13285643103E+03 -0.22838463307E+03  0.29615766271E+03  0.77000000000E+02 0.  0.
<mgrwt>
<rscale>  0 0.37710819E+03</rscale>
<asrwt>0</asrwt>
<pdfrwt beam="1">  1        2 0.10334489E-01 0.37710819E+03</pdfrwt>
<pdfrwt beam="2">  1       -2 0.81424706E-01 0.37710819E+03</pdfrwt>
<totfact> 0.84746169E+02</totfact>
</mgrwt>
</event>
<event>
 4    1  0.6148427E-004  0.2710449E+03  0.7818608E-02  0.1100683E+00
          2   -1    0    0  501    0  0.00000000000E+00  0.00000000000E+00  0.39945946777E+03  0.39945946778E+03  0.25500000000E-02 0.  1.
         -2   -1    0    0    0  501 -0.00000000000E+00 -0.00000000000E+00 -0.45977983136E+02  0.45977983207E+02  0.25500000000E-02 0. -1.
    5000001    1    1    2    0    0  0.67130079531E+01  0.95430549199E+02  0.82544833896E+02  0.14796859058E+03  0.77000000000E+02 0.  0.
   -5000001    1    1    2    0    0 -0.67130079531E+01 -0.95430549199E+02  0.27093665074E+03  0.29746886040E+03  0.77000000000E+02 0.  0.
<mgrwt>
<rscale>  0 0.27104495E+03</rscale>
<asrwt>0</asrwt>
<pdfrwt beam="1">  1        2 0.61455305E-01 0.27104495E+03</pdfrwt>
<pdfrwt beam="2">  1       -2 0.70735356E-02 0.27104495E+03</pdfrwt>
<totfact> 0.90974338E+03</totfact>
</mgrwt>
</event>
<event>
 4    1  0.6148427E-004  0.3957093E+03  0.7818608E-02  0.1045276E+00
          2   -1    0    0  501    0  0.00000000000E+00  0.00000000000E+00  0.12219676622E+04  0.12219676622E+04  0.25500000000E-02 0.  1.
         -2   -1    0    0    0  501 -0.00000000000E+00 -0.00000000000E+00 -0.32035593180E+02  0.32035593281E+02  0.25500000000E-02 0. -1.
    5000001    1    1    2    0    0  0.10716319384E+03 -0.98847740080E+02  0.94157182878E+03  0.95589818212E+03  0.77000000000E+02 0.  0.
   -5000001    1    1    2    0    0 -0.10716319384E+03  0.98847740080E+02  0.24836024025E+03  0.29810507337E+03  0.77000000000E+02 0.  0.
<mgrwt>
<rscale>  0 0.39570928E+03</rscale>
<asrwt>0</asrwt>
<pdfrwt beam="1">  1        2 0.18799501E+00 0.39570928E+03</pdfrwt>
<pdfrwt beam="2">  1       -2 0.49285532E-02 0.39570928E+03</pdfrwt>
<totfact> 0.38983868E+03</totfact>
</mgrwt>
</event>
<event>
 4    1  0.6148427E-004  0.2556734E+03  0.7818608E-02  0.1109771E+00
          2   -1    0    0  501    0  0.00000000000E+00  0.00000000000E+00  0.68915667266E+03  0.68915667266E+03  0.25500000000E-02 0.  1.
         -2   -1    0    0    0  501 -0.00000000000E+00 -0.00000000000E+00 -0.23713360416E+02  0.23713360553E+02  0.25500000000E-02 0. -1.
    5000001    1    1    2    0    0 -0.17079697290E+02  0.60468754741E+02  0.55690856231E+03  0.56570693219E+03  0.77000000000E+02 0.  0.
   -5000001    1    1    2    0    0  0.17079697290E+02 -0.60468754741E+02  0.10853474994E+03  0.14716310103E+03  0.77000000000E+02 0.  0.
<mgrwt>
<rscale>  0 0.25567339E+03</rscale>
<asrwt>0</asrwt>
<pdfrwt beam="1">  1        2 0.10602409E+00 0.25567339E+03</pdfrwt>
<pdfrwt beam="2">  1       -2 0.36482097E-02 0.25567339E+03</pdfrwt>
<totfact> 0.13389398E+04</totfact>
</mgrwt>
</event>
<event>
 4    1  0.6148427E-004  0.3025051E+03  0.7818608E-02  0.1083995E+00
          2   -1    0    0  501    0  0.00000000000E+00  0.00000000000E+00  0.59874718208E+02  0.59874718262E+02  0.25500000000E-02 0.  1.
         -2   -1    0    0    0  501 -0.00000000000E+00 -0.00000000000E+00 -0.38208678911E+03  0.38208678912E+03  0.25500000000E-02 0. -1.
    5000001    1    1    2    0    0 -0.12734065568E+03  0.35651552519E+01 -0.12190354118E+03  0.19240017223E+03  0.77000000000E+02 0.  0.
   -5000001    1    1    2    0    0  0.12734065568E+03 -0.35651552519E+01 -0.20030852973E+03  0.24956133516E+03  0.77000000000E+02 0.  0.
<mgrwt>
<rscale>  0 0.30250513E+03</rscale>
<asrwt>0</asrwt>
<pdfrwt beam="1">  1        2 0.92114954E-02 0.30250513E+03</pdfrwt>
<pdfrwt beam="2">  1       -2 0.58782581E-01 0.30250513E+03</pdfrwt>
<totfact> 0.19632579E+03</totfact>
</mgrwt>
</event>
<event>
 4    1  0.6148427E-004  0.2305942E+03  0.7818608E-02  0.1126222E+00
         -2   -1    0    0    0  501 -0.00000000000E+00  0.00000000000E+00  0.55755152190E+02  0.55755152248E+02  0.25500000000E-02 0. -1.
          2   -1    0    0  501    0  0.00000000000E+00 -0.00000000000E+00 -0.23842507810E+03  0.23842507811E+03  0.25500000000E-02 0.  1.
    5000001    1    1    2    0    0  0.32931791991E+02  0.69372451151E+02 -0.42465530410E+02  0.11674485503E+03  0.77000000000E+02 0.  0.
   -5000001    1    1    2    0    0 -0.32931791991E+02 -0.69372451151E+02 -0.14020439550E+03  0.17743537533E+03  0.77000000000E+02 0.  0.
<mgrwt>
<rscale>  0 0.23059425E+03</rscale>
<asrwt>0</asrwt>
<pdfrwt beam="1">  1        2 0.36680781E-01 0.23059425E+03</pdfrwt>
<pdfrwt beam="2">  1       -2 0.85777158E-02 0.23059425E+03</pdfrwt>
<totfact> 0.11655172E+04</totfact>
</mgrwt>
</event>
<event>
 4    1  0.6148427E-004  0.2308876E+03  0.7818608E-02  0.1126017E+00
         -2   -1    0    0    0  501 -0.00000000000E+00  0.00000000000E+00  0.12240115783E+03  0.12240115786E+03  0.25500000000E-02 0. -1.
          2   -1    0    0  501    0  0.00000000000E+00 -0.00000000000E+00 -0.10888189435E+03  0.10888189438E+03  0.25500000000E-02 0.  1.
    5000001    1    1    2    0    0 -0.54662504513E+02 -0.65417633498E+02  0.18216606270E+02  0.11631122438E+03  0.77000000000E+02 0.  0.
   -5000001    1    1    2    0    0  0.54662504513E+02  0.65417633498E+02 -0.46973427838E+01  0.11497182786E+03  0.77000000000E+02 0.  0.
<mgrwt>
<rscale>  0 0.23088759E+03</rscale>
<asrwt>0</asrwt>
<pdfrwt beam="1">  1        2 0.16751061E-01 0.23088759E+03</pdfrwt>
<pdfrwt beam="2">  1       -2 0.18830947E-01 0.23088759E+03</pdfrwt>
<totfact> 0.78112860E+03</totfact>
</mgrwt>
</event>
<event>
 4    1  0.6148427E-004  0.2882161E+03  0.7818608E-02  0.1091284E+00
         -2   -1    0    0    0  501 -0.00000000000E+00  0.00000000000E+00  0.12572259145E+03  0.12572259148E+03  0.25500000000E-02 0. -1.
          2   -1    0    0  501    0  0.00000000000E+00 -0.00000000000E+00 -0.16518219095E+03  0.16518219097E+03  0.25500000000E-02 0.  1.
    5000001    1    1    2    0    0 -0.11811020211E+03  0.29775617757E+02 -0.20976579508E+02  0.14562150989E+03  0.77000000000E+02 0.  0.
   -5000001    1    1    2    0    0  0.11811020211E+03 -0.29775617757E+02 -0.18483019992E+02  0.14528327255E+03  0.77000000000E+02 0.  0.
<mgrwt>
<rscale>  0 0.28821612E+03</rscale>
<asrwt>0</asrwt>
<pdfrwt beam="1">  1        2 0.25412645E-01 0.28821612E+03</pdfrwt>
<pdfrwt beam="2">  1       -2 0.19341937E-01 0.28821612E+03</pdfrwt>
<totfact> 0.46818100E+03</totfact>
</mgrwt>
</event>
<event>
 4    1  0.6148427E-004  0.2937854E+03  0.7818608E-02  0.1088389E+00
          2   -1    0    0  501    0  0.00000000000E+00  0.00000000000E+00  0.30838830652E+04  0.30838830652E+04  0.25500000000E-02 0.  1.
         -2   -1    0    0    0  501 -0.00000000000E+00 -0.00000000000E+00 -0.69968480129E+01  0.69968484776E+01  0.25500000000E-02 0. -1.
    5000001    1    1    2    0    0 -0.10398675995E+03  0.64368847880E+02  0.18151775827E+04  0.18209215391E+04  0.77000000000E+02 0.  0.
   -5000001    1    1    2    0    0  0.10398675995E+03 -0.64368847880E+02  0.12617086346E+04  0.12699583747E+04  0.77000000000E+02 0.  0.
<mgrwt>
<rscale>  0 0.29378538E+03</rscale>
<asrwt>0</asrwt>
<pdfrwt beam="1">  1        2 0.47444259E+00 0.29378538E+03</pdfrwt>
<pdfrwt beam="2">  1       -2 0.10764404E-02 0.29378538E+03</pdfrwt>
<totfact> 0.35499621E+03</totfact>
</mgrwt>
</event>
<event>
 4    1  0.6148427E-004  0.3562602E+03  0.7818608E-02  0.1060075E+00
         -2   -1    0    0    0  501 -0.00000000000E+00  0.00000000000E+00  0.48071853478E+02  0.48071853546E+02  0.25500000000E-02 0.  1.
          2   -1    0    0  501    0  0.00000000000E+00 -0.00000000000E+00 -0.66006068739E+03  0.66006068740E+03  0.25500000000E-02 0. -1.
    5000001    1    1    2    0    0  0.12661190228E+03  0.94059166067E+02 -0.36640299206E+03  0.40627312625E+03  0.77000000000E+02 0.  0.
   -5000001    1    1    2    0    0 -0.12661190228E+03 -0.94059166067E+02 -0.24558584186E+03  0.30185941470E+03  0.77000000000E+02 0.  0.
<mgrwt>
<rscale>  0 0.35626025E+03</rscale>
<asrwt>0</asrwt>
<pdfrwt beam="1">  1        2 0.10154779E+00 0.35626025E+03</pdfrwt>
<pdfrwt beam="2">  1       -2 0.73956703E-02 0.35626025E+03</pdfrwt>
<totfact> 0.48387862E+03</totfact>
</mgrwt>
</event>
<event>
 4    1  0.6148427E-004  0.2998056E+03  0.7818608E-02  0.1085338E+00
          2   -1    0    0  501    0  0.00000000000E+00  0.00000000000E+00  0.17744956428E+04  0.17744956428E+04  0.25500000000E-02 0.  1.
         -2   -1    0    0    0  501 -0.00000000000E+00 -0.00000000000E+00 -0.12663231480E+02  0.12663231736E+02  0.25500000000E-02 0. -1.
    5000001    1    1    2    0    0  0.99817638821E+02 -0.78529151853E+02  0.10018332583E+04  0.10127829314E+04  0.77000000000E+02 0.  0.
   -5000001    1    1    2    0    0 -0.99817638821E+02  0.78529151853E+02  0.75999915303E+03  0.77437594314E+03  0.77000000000E+02 0.  0.
<mgrwt>
<rscale>  0 0.29980560E+03</rscale>
<asrwt>0</asrwt>
<pdfrwt beam="1">  1        2 0.27299921E+00 0.29980560E+03</pdfrwt>
<pdfrwt beam="2">  1       -2 0.19481904E-02 0.29980560E+03</pdfrwt>
<totfact> 0.78524474E+03</totfact>
</mgrwt>
</event>
<event>
 4    1  0.6148427E-004  0.1793898E+03  0.7818608E-02  0.1168395E+00
         -2   -1    0    0    0  501 -0.00000000000E+00  0.00000000000E+00  0.39920257717E+01  0.39920265861E+01  0.25500000000E-02 0. -1.
          2   -1    0    0  501    0  0.00000000000E+00 -0.00000000000E+00 -0.20153117449E+04  0.20153117449E+04  0.25500000000E-02 0.  1.
    5000001    1    1    2    0    0  0.41924039586E+02  0.15010818166E+01 -0.79318326528E+03  0.79801539500E+03  0.77000000000E+02 0.  0.
   -5000001    1    1    2    0    0 -0.41924039586E+02 -0.15010818166E+01 -0.12181364538E+04  0.12212883765E+04  0.77000000000E+02 0.  0.
<mgrwt>
<rscale>  0 0.17938982E+03</rscale>
<asrwt>0</asrwt>
<pdfrwt beam="1">  1        2 0.31004715E+00 0.17938982E+03</pdfrwt>
<pdfrwt beam="2">  1       -2 0.61415948E-03 0.17938982E+03</pdfrwt>
<totfact> 0.30883171E+04</totfact>
</mgrwt>
</event>
<event>
 4    1  0.6148427E-004  0.1875874E+03  0.7818608E-02  0.1160656E+00
          2   -1    0    0  501    0  0.00000000000E+00  0.00000000000E+00  0.23658866627E+03  0.23658866628E+03  0.25500000000E-02 0.  1.
         -2   -1    0    0    0  501 -0.00000000000E+00 -0.00000000000E+00 -0.37183752765E+02  0.37183752852E+02  0.25500000000E-02 0. -1.
    5000001    1    1    2    0    0  0.12992271843E+02  0.13605913975E+02  0.17288333958E+03  0.19018824655E+03  0.77000000000E+02 0.  0.
   -5000001    1    1    2    0    0 -0.12992271843E+02 -0.13605913975E+02  0.26521573925E+02  0.83584172582E+02  0.77000000000E+02 0.  0.
<mgrwt>
<rscale>  0 0.18758736E+03</rscale>
<asrwt>0</asrwt>
<pdfrwt beam="1">  1        2 0.36398257E-01 0.18758736E+03</pdfrwt>
<pdfrwt beam="2">  1       -2 0.57205772E-02 0.18758736E+03</pdfrwt>
<totfact> 0.21647527E+04</totfact>
</mgrwt>
</event>
<event>
 4    1  0.6148427E-004  0.2195528E+03  0.7818608E-02  0.1134217E+00
          2   -1    0    0  501    0  0.00000000000E+00  0.00000000000E+00  0.89473532187E+03  0.89473532187E+03  0.25500000000E-02 0.  1.
         -2   -1    0    0    0  501 -0.00000000000E+00 -0.00000000000E+00 -0.13468632824E+02  0.13468633065E+02  0.25500000000E-02 0. -1.
    5000001    1    1    2    0    0 -0.77892502300E+02  0.71283719986E+01  0.44870347709E+03  0.46193275047E+03  0.77000000000E+02 0.  0.
   -5000001    1    1    2    0    0  0.77892502300E+02 -0.71283719986E+01  0.43256321196E+03  0.44627120447E+03  0.77000000000E+02 0.  0.
<mgrwt>
<rscale>  0 0.21955283E+03</rscale>
<asrwt>0</asrwt>
<pdfrwt beam="1">  1        2 0.13765159E+00 0.21955283E+03</pdfrwt>
<pdfrwt beam="2">  1       -2 0.20720974E-02 0.21955283E+03</pdfrwt>
<totfact> 0.22092330E+04</totfact>
</mgrwt>
</event>
<event>
 4    1  0.6148427E-004  0.1741742E+03  0.7818608E-02  0.1173563E+00
          2   -1    0    0  501    0  0.00000000000E+00  0.00000000000E+00  0.10855735933E+04  0.10855735933E+04  0.25500000000E-02 0.  1.
         -2   -1    0    0    0  501 -0.00000000000E+00 -0.00000000000E+00 -0.69863180851E+01  0.69863185505E+01  0.25500000000E-02 0. -1.
    5000001    1    1    2    0    0 -0.37767680707E+02  0.13513654725E+02  0.49668192301E+03  0.50421319817E+03  0.77000000000E+02 0.  0.
   -5000001    1    1    2    0    0  0.37767680707E+02 -0.13513654725E+02  0.58190535218E+03  0.58834671365E+03  0.77000000000E+02 0.  0.
<mgrwt>
<rscale>  0 0.17417420E+03</rscale>
<asrwt>0</asrwt>
<pdfrwt beam="1">  1        2 0.16701124E+00 0.17417420E+03</pdfrwt>
<pdfrwt beam="2">  1       -2 0.10748187E-02 0.17417420E+03</pdfrwt>
<totfact> 0.43150202E+04</totfact>
</mgrwt>
</event>
<event>
 4    1  0.6148427E-004  0.2494761E+03  0.7818608E-02  0.1113636E+00
         -2   -1    0    0    0  501 -0.00000000000E+00  0.00000000000E+00  0.11764005944E+03  0.11764005947E+03  0.25500000000E-02 0. -1.
          2   -1    0    0  501    0  0.00000000000E+00 -0.00000000000E+00 -0.13226429564E+03  0.13226429567E+03  0.25500000000E-02 0.  1.
    5000001    1    1    2    0    0  0.56568815091E+02  0.35683766268E+02 -0.79249168606E+02  0.12916188579E+03  0.77000000000E+02 0.  0.
   -5000001    1    1    2    0    0 -0.56568815091E+02 -0.35683766268E+02  0.64624932405E+02  0.12074246935E+03  0.77000000000E+02 0.  0.
<mgrwt>
<rscale>  0 0.24947609E+03</rscale>
<asrwt>0</asrwt>
<pdfrwt beam="1">  1        2 0.20348353E-01 0.24947609E+03</pdfrwt>
<pdfrwt beam="2">  1       -2 0.18098471E-01 0.24947609E+03</pdfrwt>
<totfact> 0.66977626E+03</totfact>
</mgrwt>
</event>
<event>
 4    1  0.6148427E-004  0.8633810E+03  0.7818608E-02  0.9472551E-01
          2   -1    0    0  501    0  0.00000000000E+00  0.00000000000E+00  0.13807963760E+04  0.13807963760E+04  0.25500000000E-02 0.  1.
         -2   -1    0    0    0  501 -0.00000000000E+00 -0.00000000000E+00 -0.13496317818E+03  0.13496317820E+03  0.25500000000E-02 0. -1.
    5000001    1    1    2    0    0  0.19435394240E+03 -0.26092906566E+03  0.14350271486E+03  0.36383988430E+03  0.77000000000E+02 0.  0.
   -5000001    1    1    2    0    0 -0.19435394240E+03  0.26092906566E+03  0.11023304829E+04  0.11519196699E+04  0.77000000000E+02 0.  0.
<mgrwt>
<rscale>  0 0.86338095E+03</rscale>
<asrwt>0</asrwt>
<pdfrwt beam="1">  1        2 0.21243022E+00 0.86338095E+03</pdfrwt>
<pdfrwt beam="2">  1       -2 0.20763566E-01 0.86338095E+03</pdfrwt>
<totfact> 0.29796610E+02</totfact>
</mgrwt>
</event>
<event>
 4    1  0.6148427E-004  0.1708306E+03  0.7818608E-02  0.1176984E+00
         -2   -1    0    0    0  501 -0.00000000000E+00  0.00000000000E+00  0.18024020513E+02  0.18024020693E+02  0.25500000000E-02 0. -1.
          2   -1    0    0  501    0  0.00000000000E+00 -0.00000000000E+00 -0.40478076549E+03  0.40478076550E+03  0.25500000000E-02 0.  1.
    5000001    1    1    2    0    0  0.16698833406E+02 -0.31856109129E+02 -0.21454125392E+03  0.23076094201E+03  0.77000000000E+02 0.  0.
   -5000001    1    1    2    0    0 -0.16698833406E+02  0.31856109129E+02 -0.17221549106E+03  0.19204384418E+03  0.77000000000E+02 0.  0.
<mgrwt>
<rscale>  0 0.17083064E+03</rscale>
<asrwt>0</asrwt>
<pdfrwt beam="1">  1        2 0.62273957E-01 0.17083064E+03</pdfrwt>
<pdfrwt beam="2">  1       -2 0.27729266E-02 0.17083064E+03</pdfrwt>
<totfact> 0.35677847E+04</totfact>
</mgrwt>
</event>
<event>
 4    1  0.6148427E-004  0.2700703E+03  0.7818608E-02  0.1101239E+00
         -2   -1    0    0    0  501 -0.00000000000E+00  0.00000000000E+00  0.21357189779E+03  0.21357189781E+03  0.25500000000E-02 0. -1.
          2   -1    0    0  501    0  0.00000000000E+00 -0.00000000000E+00 -0.85378717586E+02  0.85378717624E+02  0.25500000000E-02 0.  1.
    5000001    1    1    2    0    0  0.59793710793E+02 -0.81605582938E+01 -0.38935400577E+02  0.10529410230E+03  0.77000000000E+02 0.  0.
   -5000001    1    1    2    0    0 -0.59793710793E+02  0.81605582938E+01  0.16712858079E+03  0.19365651313E+03  0.77000000000E+02 0.  0.
<mgrwt>
<rscale>  0 0.27007032E+03</rscale>
<asrwt>0</asrwt>
<pdfrwt beam="1">  1        2 0.13135187E-01 0.27007032E+03</pdfrwt>
<pdfrwt beam="2">  1       -2 0.32857215E-01 0.27007032E+03</pdfrwt>
<totfact> 0.39301041E+03</totfact>
</mgrwt>
</event>
<event>
 4    1  0.6148427E-004  0.2809583E+03  0.7818608E-02  0.1095167E+00
         -2   -1    0    0    0  501 -0.00000000000E+00  0.00000000000E+00  0.12169575445E+02  0.12169575712E+02  0.25500000000E-02 0. -1.
          2   -1    0    0  501    0  0.00000000000E+00 -0.00000000000E+00 -0.16216176155E+04  0.16216176155E+04  0.25500000000E-02 0.  1.
    5000001    1    1    2    0    0  0.11308144599E+02 -0.11693031389E+03 -0.81749821095E+03  0.82947748454E+03  0.77000000000E+02 0.  0.
   -5000001    1    1    2    0    0 -0.11308144599E+02  0.11693031389E+03 -0.79194982911E+03  0.80430970668E+03  0.77000000000E+02 0.  0.
<mgrwt>
<rscale>  0 0.28095835E+03</rscale>
<asrwt>0</asrwt>
<pdfrwt beam="1">  1        2 0.24947946E+00 0.28095835E+03</pdfrwt>
<pdfrwt beam="2">  1       -2 0.18722437E-02 0.28095835E+03</pdfrwt>
<totfact> 0.10018255E+04</totfact>
</mgrwt>
</event>
<event>
 4    1  0.6148427E-004  0.2341896E+03  0.7818608E-02  0.1123725E+00
          2   -1    0    0  501    0  0.00000000000E+00  0.00000000000E+00  0.75490968543E+02  0.75490968586E+02  0.25500000000E-02 0.  1.
         -2   -1    0    0    0  501 -0.00000000000E+00 -0.00000000000E+00 -0.18162685989E+03  0.18162685990E+03  0.25500000000E-02 0. -1.
    5000001    1    1    2    0    0  0.48542968538E+02  0.72267483479E+02 -0.68717560519E+02  0.13501893233E+03  0.77000000000E+02 0.  0.
   -5000001    1    1    2    0    0 -0.48542968538E+02 -0.72267483479E+02 -0.37418330825E+02  0.12209889616E+03  0.77000000000E+02 0.  0.
<mgrwt>
<rscale>  0 0.23418956E+03</rscale>
<asrwt>0</asrwt>
<pdfrwt beam="1">  1        2 0.11613995E-01 0.23418956E+03</pdfrwt>
<pdfrwt beam="2">  1       -2 0.27942594E-01 0.23418956E+03</pdfrwt>
<totfact> 0.60892387E+03</totfact>
</mgrwt>
</event>
<event>
 4    1  0.6148427E-004  0.2536822E+03  0.7818608E-02  0.1111000E+00
          2   -1    0    0  501    0  0.00000000000E+00  0.00000000000E+00  0.85878101101E+03  0.85878101101E+03  0.25500000000E-02 0.  1.
         -2   -1    0    0    0  501 -0.00000000000E+00 -0.00000000000E+00 -0.18734308144E+02  0.18734308318E+02  0.25500000000E-02 0. -1.
    5000001    1    1    2    0    0 -0.91605700013E+02 -0.27726125578E+02  0.31067349295E+03  0.33407687968E+03  0.77000000000E+02 0.  0.
   -5000001    1    1    2    0    0  0.91605700013E+02  0.27726125578E+02  0.52937320992E+03  0.54343843965E+03  0.77000000000E+02 0.  0.
<mgrwt>
<rscale>  0 0.25368223E+03</rscale>
<asrwt>0</asrwt>
<pdfrwt beam="1">  1        2 0.13212013E+00 0.25368223E+03</pdfrwt>
<pdfrwt beam="2">  1       -2 0.28822018E-02 0.25368223E+03</pdfrwt>
<totfact> 0.14435727E+04</totfact>
</mgrwt>
</event>
<event>
 4    1  0.6148427E-004  0.5396748E+03  0.7818608E-02  0.1003912E+00
          2   -1    0    0  501    0  0.00000000000E+00  0.00000000000E+00  0.76822159455E+03  0.76822159455E+03  0.25500000000E-02 0.  1.
         -2   -1    0    0    0  501 -0.00000000000E+00 -0.00000000000E+00 -0.94780246897E+02  0.94780246931E+02  0.25500000000E-02 0. -1.
    5000001    1    1    2    0    0 -0.18466943547E+03  0.86173003540E+02  0.59134994364E+03  0.63020024023E+03  0.77000000000E+02 0.  0.
   -5000001    1    1    2    0    0  0.18466943547E+03 -0.86173003540E+02  0.82091404010E+02  0.23280160126E+03  0.77000000000E+02 0.  0.
<mgrwt>
<rscale>  0 0.53967484E+03</rscale>
<asrwt>0</asrwt>
<pdfrwt beam="1">  1        2 0.11818793E+00 0.53967484E+03</pdfrwt>
<pdfrwt beam="2">  1       -2 0.14581577E-01 0.53967484E+03</pdfrwt>
<totfact> 0.13404735E+03</totfact>
</mgrwt>
</event>
<event>
 4    1  0.6148427E-004  0.5808207E+03  0.7818608E-02  0.9946016E-01
         -2   -1    0    0    0  501 -0.00000000000E+00  0.00000000000E+00  0.10253840773E+03  0.10253840776E+03  0.25500000000E-02 0.  1.
          2   -1    0    0  501    0  0.00000000000E+00 -0.00000000000E+00 -0.82250332278E+03  0.82250332278E+03  0.25500000000E-02 0. -1.
    5000001    1    1    2    0    0  0.10428122315E+02 -0.19691750566E+03 -0.67661043165E+03  0.70895410711E+03  0.77000000000E+02 0.  0.
   -5000001    1    1    2    0    0 -0.10428122315E+02  0.19691750566E+03 -0.43354483400E+02  0.21608762343E+03  0.77000000000E+02 0.  0.
<mgrwt>
<rscale>  0 0.58082073E+03</rscale>
<asrwt>0</asrwt>
<pdfrwt beam="1">  1        2 0.12653897E+00 0.58082073E+03</pdfrwt>
<pdfrwt beam="2">  1       -2 0.15775140E-01 0.58082073E+03</pdfrwt>
<totfact> 0.10731065E+03</totfact>
</mgrwt>
</event>
<event>
 4    1  0.6148427E-004  0.2685821E+03  0.7818608E-02  0.1102094E+00
          2   -1    0    0  501    0  0.00000000000E+00  0.00000000000E+00  0.14708723230E+03  0.14708723232E+03  0.25500000000E-02 0.  1.
         -2   -1    0    0    0  501 -0.00000000000E+00 -0.00000000000E+00 -0.12260811882E+03  0.12260811885E+03  0.25500000000E-02 0. -1.
    5000001    1    1    2    0    0 -0.57530201635E+02  0.87549270331E+02 -0.21522564861E+02  0.13178322971E+03  0.77000000000E+02 0.  0.
   -5000001    1    1    2    0    0  0.57530201635E+02 -0.87549270331E+02  0.46001678340E+02  0.13791212146E+03  0.77000000000E+02 0.  0.
<mgrwt>
<rscale>  0 0.26858212E+03</rscale>
<asrwt>0</asrwt>
<pdfrwt beam="1">  1        2 0.22628805E-01 0.26858212E+03</pdfrwt>
<pdfrwt beam="2">  1       -2 0.18862788E-01 0.26858212E+03</pdfrwt>
<totfact> 0.55525201E+03</totfact>
</mgrwt>
</event>
<event>
 4    1  0.6148427E-004  0.7610887E+03  0.7818608E-02  0.9618113E-01
         -2   -1    0    0    0  501 -0.00000000000E+00  0.00000000000E+00  0.93194061834E+02  0.93194061869E+02  0.25500000000E-02 0. -1.
          2   -1    0    0  501    0  0.00000000000E+00 -0.00000000000E+00 -0.15538971142E+04  0.15538971142E+04  0.25500000000E-02 0.  1.
    5000001    1    1    2    0    0  0.49460075336E+02 -0.30922540790E+03 -0.29312145824E+03  0.43579334693E+03  0.77000000000E+02 0.  0.
   -5000001    1    1    2    0    0 -0.49460075336E+02  0.30922540790E+03 -0.11675815941E+04  0.12112978291E+04  0.77000000000E+02 0.  0.
<mgrwt>
<rscale>  0 0.76108865E+03</rscale>
<asrwt>0</asrwt>
<pdfrwt beam="1">  1        2 0.23906108E+00 0.76108865E+03</pdfrwt>
<pdfrwt beam="2">  1       -2 0.14337549E-01 0.76108865E+03</pdfrwt>
<totfact> 0.45330872E+02</totfact>
</mgrwt>
</event>
<event>
 4    1  0.6148427E-004  0.1960156E+03  0.7818608E-02  0.1153145E+00
         -2   -1    0    0    0  501 -0.00000000000E+00  0.00000000000E+00  0.62356089194E+01  0.62356094408E+01  0.25500000000E-02 0. -1.
          2   -1    0    0  501    0  0.00000000000E+00 -0.00000000000E+00 -0.15404313328E+04  0.15404313328E+04  0.25500000000E-02 0.  1.
    5000001    1    1    2    0    0 -0.14453037742E+02  0.57786285070E+02 -0.67769334098E+03  0.68464984441E+03  0.77000000000E+02 0.  0.
   -5000001    1    1    2    0    0  0.14453037742E+02 -0.57786285070E+02 -0.85650238295E+03  0.86201709788E+03  0.77000000000E+02 0.  0.
<mgrwt>
<rscale>  0 0.19601559E+03</rscale>
<asrwt>0</asrwt>
<pdfrwt beam="1">  1        2 0.23698913E+00 0.19601559E+03</pdfrwt>
<pdfrwt beam="2">  1       -2 0.95932571E-03 0.19601559E+03</pdfrwt>
<totfact> 0.28873918E+04</totfact>
</mgrwt>
</event>
<event>
 4    1  0.6148427E-004  0.2951748E+03  0.7818608E-02  0.1087678E+00
          2   -1    0    0  501    0  0.00000000000E+00  0.00000000000E+00  0.12752020104E+04  0.12752020104E+04  0.25500000000E-02 0.  1.
         -2   -1    0    0    0  501 -0.00000000000E+00 -0.00000000000E+00 -0.17081249980E+02  0.17081250170E+02  0.25500000000E-02 0. -1.
    5000001    1    1    2    0    0  0.82114323671E+02 -0.83019103179E+02  0.83525153019E+03  0.84688195891E+03  0.77000000000E+02 0.  0.
   -5000001    1    1    2    0    0 -0.82114323671E+02  0.83019103179E+02  0.42286923020E+03  0.44540130163E+03  0.77000000000E+02 0.  0.
<mgrwt>
<rscale>  0 0.29517483E+03</rscale>
<asrwt>0</asrwt>
<pdfrwt beam="1">  1        2 0.19618493E+00 0.29517483E+03</pdfrwt>
<pdfrwt beam="2">  1       -2 0.26278846E-02 0.29517483E+03</pdfrwt>
<totfact> 0.93584483E+03</totfact>
</mgrwt>
</event>
<event>
 4    1  0.6148427E-004  0.2041060E+03  0.7818608E-02  0.1146320E+00
          2   -1    0    0  501    0  0.00000000000E+00  0.00000000000E+00  0.80059470282E+03  0.80059470282E+03  0.25500000000E-02 0.  1.
         -2   -1    0    0    0  501 -0.00000000000E+00 -0.00000000000E+00 -0.13008842511E+02  0.13008842761E+02  0.25500000000E-02 0. -1.
    5000001    1    1    2    0    0  0.57159776485E+02  0.33366014126E+02  0.35289237680E+03  0.36720915096E+03  0.77000000000E+02 0.  0.
   -5000001    1    1    2    0    0 -0.57159776485E+02 -0.33366014126E+02  0.43469348351E+03  0.44639439462E+03  0.77000000000E+02 0.  0.
<mgrwt>
<rscale>  0 0.20410596E+03</rscale>
<asrwt>0</asrwt>
<pdfrwt beam="1">  1        2 0.12316843E+00 0.20410596E+03</pdfrwt>
<pdfrwt beam="2">  1       -2 0.20013601E-02 0.20410596E+03</pdfrwt>
<totfact> 0.26715986E+04</totfact>
</mgrwt>
</event>
<event>
 4    1  0.6148427E-004  0.3077957E+03  0.7818608E-02  0.1081407E+00
          2   -1    0    0  501    0  0.00000000000E+00  0.00000000000E+00  0.19720184818E+04  0.19720184818E+04  0.25500000000E-02 0.  1.
         -2   -1    0    0    0  501 -0.00000000000E+00 -0.00000000000E+00 -0.12010305361E+02  0.12010305632E+02  0.25500000000E-02 0. -1.
    5000001    1    1    2    0    0  0.22282323395E+02  0.10385081725E+03  0.14986530209E+04  0.15043840504E+04  0.77000000000E+02 0.  0.
   -5000001    1    1    2    0    0 -0.22282323395E+02 -0.10385081725E+03  0.46135515554E+03  0.47964473699E+03  0.77000000000E+02 0.  0.
<mgrwt>
<rscale>  0 0.30779568E+03</rscale>
<asrwt>0</asrwt>
<pdfrwt beam="1">  1        2 0.30338752E+00 0.30779568E+03</pdfrwt>
<pdfrwt beam="2">  1       -2 0.18477389E-02 0.30779568E+03</pdfrwt>
<totfact> 0.66809554E+03</totfact>
</mgrwt>
</event>
<event>
 4    1  0.6148427E-004  0.1890744E+03  0.7818608E-02  0.1159299E+00
         -2   -1    0    0    0  501 -0.00000000000E+00  0.00000000000E+00  0.21699750193E+02  0.21699750343E+02  0.25500000000E-02 0. -1.
          2   -1    0    0  501    0  0.00000000000E+00 -0.00000000000E+00 -0.41186126851E+03  0.41186126852E+03  0.25500000000E-02 0.  1.
    5000001    1    1    2    0    0 -0.44586179849E+02  0.28861795018E+02 -0.22646786167E+03  0.24502575990E+03  0.77000000000E+02 0.  0.
   -5000001    1    1    2    0    0  0.44586179849E+02 -0.28861795018E+02 -0.16369365665E+03  0.18853525896E+03  0.77000000000E+02 0.  0.
<mgrwt>
<rscale>  0 0.18907445E+03</rscale>
<asrwt>0</asrwt>
<pdfrwt beam="1">  1        2 0.63363266E-01 0.18907445E+03</pdfrwt>
<pdfrwt beam="2">  1       -2 0.33384234E-02 0.18907445E+03</pdfrwt>
<totfact> 0.26850685E+04</totfact>
</mgrwt>
</event>
<event>
 4    1  0.6148427E-004  0.2333057E+03  0.7818608E-02  0.1124334E+00
         -2   -1    0    0    0  501 -0.00000000000E+00  0.00000000000E+00  0.41459031994E+02  0.41459032072E+02  0.25500000000E-02 0. -1.
          2   -1    0    0  501    0  0.00000000000E+00 -0.00000000000E+00 -0.32822492381E+03  0.32822492382E+03  0.25500000000E-02 0.  1.
    5000001    1    1    2    0    0 -0.69048327015E+02 -0.50411673819E+02 -0.17385735343E+03  0.20848114462E+03  0.77000000000E+02 0.  0.
   -5000001    1    1    2    0    0  0.69048327015E+02  0.50411673819E+02 -0.11290853838E+03  0.16120281127E+03  0.77000000000E+02 0.  0.
<mgrwt>
<rscale>  0 0.23330570E+03</rscale>
<asrwt>0</asrwt>
<pdfrwt beam="1">  1        2 0.50496140E-01 0.23330570E+03</pdfrwt>
<pdfrwt beam="2">  1       -2 0.63783129E-02 0.23330570E+03</pdfrwt>
<totfact> 0.13098124E+04</totfact>
</mgrwt>
</event>
<event>
 4    1  0.6148427E-004  0.4451506E+03  0.7818608E-02  0.1029178E+00
         -2   -1    0    0    0  501 -0.00000000000E+00  0.00000000000E+00  0.44585633972E+03  0.44585633973E+03  0.25500000000E-02 0.  1.
          2   -1    0    0  501    0  0.00000000000E+00 -0.00000000000E+00 -0.11111149193E+03  0.11111149196E+03  0.25500000000E-02 0. -1.
    5000001    1    1    2    0    0 -0.60644456407E+02  0.57755372429E+02  0.40673037308E+03  0.42234112933E+03  0.77000000000E+02 0.  0.
   -5000001    1    1    2    0    0  0.60644456407E+02 -0.57755372429E+02 -0.71985525293E+02  0.13462670236E+03  0.77000000000E+02 0.  0.
<mgrwt>
<rscale>  0 0.44515060E+03</rscale>
<asrwt>0</asrwt>
<pdfrwt beam="1">  1        2 0.17094075E-01 0.44515060E+03</pdfrwt>
<pdfrwt beam="2">  1       -2 0.68593284E-01 0.44515060E+03</pdfrwt>
<totfact> 0.66907143E+02</totfact>
</mgrwt>
</event>
<event>
 4    1  0.6148427E-004  0.2218345E+03  0.7818608E-02  0.1132523E+00
         -2   -1    0    0    0  501 -0.00000000000E+00  0.00000000000E+00  0.73433244099E+01  0.73433248526E+01  0.25500000000E-02 0. -1.
          2   -1    0    0  501    0  0.00000000000E+00 -0.00000000000E+00 -0.16753498530E+04  0.16753498530E+04  0.25500000000E-02 0.  1.
    5000001    1    1    2    0    0  0.40887753506E+02 -0.53726889793E+02 -0.11571830089E+04  0.11617056009E+04  0.77000000000E+02 0.  0.
   -5000001    1    1    2    0    0 -0.40887753506E+02  0.53726889793E+02 -0.51082351970E+03  0.52098757697E+03  0.77000000000E+02 0.  0.
<mgrwt>
<rscale>  0 0.22183451E+03</rscale>
<asrwt>0</asrwt>
<pdfrwt beam="1">  1        2 0.25774583E+00 0.22183451E+03</pdfrwt>
<pdfrwt beam="2">  1       -2 0.11297436E-02 0.22183451E+03</pdfrwt>
<totfact> 0.19484986E+04</totfact>
</mgrwt>
</event>
<event>
 4    1  0.6148427E-004  0.5208055E+03  0.7818608E-02  0.1008487E+00
          2   -1    0    0  501    0  0.00000000000E+00  0.00000000000E+00  0.86248966955E+02  0.86248966993E+02  0.25500000000E-02 0.  1.
         -2   -1    0    0    0  501 -0.00000000000E+00 -0.00000000000E+00 -0.78620764234E+03  0.78620764234E+03  0.25500000000E-02 0. -1.
    5000001    1    1    2    0    0 -0.74300630312E+02 -0.15078882322E+03 -0.42805065870E+02  0.18978705577E+03  0.77000000000E+02 0.  0.
   -5000001    1    1    2    0    0  0.74300630312E+02  0.15078882322E+03 -0.65715360952E+03  0.68266955357E+03  0.77000000000E+02 0.  0.
<mgrwt>
<rscale>  0 0.52080552E+03</rscale>
<asrwt>0</asrwt>
<pdfrwt beam="1">  1        2 0.13269072E-01 0.52080552E+03</pdfrwt>
<pdfrwt beam="2">  1       -2 0.12095502E+00 0.52080552E+03</pdfrwt>
<totfact> 0.24602316E+02</totfact>
</mgrwt>
</event>
<event>
 4    1  0.6148427E-004  0.3641006E+03  0.7818608E-02  0.1056972E+00
          2   -1    0    0  501    0  0.00000000000E+00  0.00000000000E+00  0.23263485358E+04  0.23263485358E+04  0.25500000000E-02 0.  1.
         -2   -1    0    0    0  501 -0.00000000000E+00 -0.00000000000E+00 -0.14246498161E+02  0.14246498389E+02  0.25500000000E-02 0. -1.
    5000001    1    1    2    0    0  0.12517323676E+03 -0.76798434288E+01  0.18450034812E+04  0.18508630865E+04  0.77000000000E+02 0.  0.
   -5000001    1    1    2    0    0 -0.12517323676E+03  0.76798434288E+01  0.46709855643E+03  0.48973194772E+03  0.77000000000E+02 0.  0.
<mgrwt>
<rscale>  0 0.36410065E+03</rscale>
<asrwt>0</asrwt>
<pdfrwt beam="1">  1        2 0.35789968E+00 0.36410065E+03</pdfrwt>
<pdfrwt beam="2">  1       -2 0.21917695E-02 0.36410065E+03</pdfrwt>
<totfact> 0.33498123E+03</totfact>
</mgrwt>
</event>
<event>
 4    1  0.6148427E-004  0.4773887E+03  0.7818608E-02  0.1019855E+00
          2   -1    0    0  501    0  0.00000000000E+00  0.00000000000E+00  0.14916628120E+04  0.14916628120E+04  0.25500000000E-02 0.  1.
         -2   -1    0    0    0  501 -0.00000000000E+00 -0.00000000000E+00 -0.38195618651E+02  0.38195618736E+02  0.25500000000E-02 0. -1.
    5000001    1    1    2    0    0  0.95724768191E+02  0.19296584521E+03  0.50827836153E+03  0.55738222205E+03  0.77000000000E+02 0.  0.
   -5000001    1    1    2    0    0 -0.95724768191E+02 -0.19296584521E+03  0.94518883187E+03  0.97247620873E+03  0.77000000000E+02 0.  0.
<mgrwt>
<rscale>  0 0.47738866E+03</rscale>
<asrwt>0</asrwt>
<pdfrwt beam="1">  1        2 0.22948657E+00 0.47738866E+03</pdfrwt>
<pdfrwt beam="2">  1       -2 0.58762494E-02 0.47738866E+03</pdfrwt>
<totfact> 0.20971942E+03</totfact>
</mgrwt>
</event>
<event>
 4    1  0.6148427E-004  0.2179252E+03  0.7818608E-02  0.1135439E+00
          2   -1    0    0  501    0  0.00000000000E+00  0.00000000000E+00  0.33995754364E+03  0.33995754365E+03  0.25500000000E-02 0.  1.
         -2   -1    0    0    0  501 -0.00000000000E+00 -0.00000000000E+00 -0.34924488008E+02  0.34924488101E+02  0.25500000000E-02 0. -1.
    5000001    1    1    2    0    0 -0.57295504781E+02  0.39020148375E+02  0.21055995944E+03  0.23466964731E+03  0.77000000000E+02 0.  0.
   -5000001    1    1    2    0    0  0.57295504781E+02 -0.39020148375E+02  0.94473096190E+02  0.14021238444E+03  0.77000000000E+02 0.  0.
<mgrwt>
<rscale>  0 0.21792515E+03</rscale>
<asrwt>0</asrwt>
<pdfrwt beam="1">  1        2 0.52301161E-01 0.21792515E+03</pdfrwt>
<pdfrwt beam="2">  1       -2 0.53729982E-02 0.21792515E+03</pdfrwt>
<totfact> 0.16323773E+04</totfact>
</mgrwt>
</event>
<event>
 4    1  0.6148427E-004  0.3045482E+03  0.7818608E-02  0.1082989E+00
         -2   -1    0    0    0  501 -0.00000000000E+00  0.00000000000E+00  0.78485944159E+01  0.78485948302E+01  0.25500000000E-02 0. -1.
          2   -1    0    0  501    0  0.00000000000E+00 -0.00000000000E+00 -0.29543371633E+04  0.29543371633E+04  0.25500000000E-02 0.  1.
    5000001    1    1    2    0    0 -0.12760997102E+03  0.27411935744E+00 -0.11696880733E+04  0.11791452704E+04  0.77000000000E+02 0.  0.
   -5000001    1    1    2    0    0  0.12760997102E+03 -0.27411935744E+00 -0.17768004956E+04  0.17830404877E+04  0.77000000000E+02 0.  0.
<mgrwt>
<rscale>  0 0.30454816E+03</rscale>
<asrwt>0</asrwt>
<pdfrwt beam="1">  1        2 0.45451252E+00 0.30454816E+03</pdfrwt>
<pdfrwt beam="2">  1       -2 0.12074785E-02 0.30454816E+03</pdfrwt>
<totfact> 0.35837308E+03</totfact>
</mgrwt>
</event>
<event>
 4    1  0.6148427E-004  0.2447737E+03  0.7818608E-02  0.1116653E+00
         -2   -1    0    0    0  501 -0.00000000000E+00  0.00000000000E+00  0.57222199019E+02  0.57222199076E+02  0.25500000000E-02 0. -1.
          2   -1    0    0  501    0  0.00000000000E+00 -0.00000000000E+00 -0.26176095931E+03  0.26176095932E+03  0.25500000000E-02 0.  1.
    5000001    1    1    2    0    0 -0.56356165019E+02 -0.40712331256E+02 -0.17652947120E+02  0.10523372935E+03  0.77000000000E+02 0.  0.
   -5000001    1    1    2    0    0  0.56356165019E+02  0.40712331256E+02 -0.18688581317E+03  0.21374942904E+03  0.77000000000E+02 0.  0.
<mgrwt>
<rscale>  0 0.24477367E+03</rscale>
<asrwt>0</asrwt>
<pdfrwt beam="1">  1        2 0.40270916E-01 0.24477367E+03</pdfrwt>
<pdfrwt beam="2">  1       -2 0.88034154E-02 0.24477367E+03</pdfrwt>
<totfact> 0.10150089E+04</totfact>
</mgrwt>
</event>
<event>
 4    1  0.6148427E-004  0.2452044E+03  0.7818608E-02  0.1116374E+00
         -2   -1    0    0    0  501 -0.00000000000E+00  0.00000000000E+00  0.86334237211E+01  0.86334240977E+01  0.25500000000E-02 0. -1.
          2   -1    0    0  501    0  0.00000000000E+00 -0.00000000000E+00 -0.17410588492E+04  0.17410588492E+04  0.25500000000E-02 0.  1.
    5000001    1    1    2    0    0  0.75074051180E+02  0.43830128708E+02 -0.11466995757E+04  0.11525650135E+04  0.77000000000E+02 0.  0.
   -5000001    1    1    2    0    0 -0.75074051180E+02 -0.43830128708E+02 -0.58572584977E+03  0.59712725983E+03  0.77000000000E+02 0.  0.
<mgrwt>
<rscale>  0 0.24520440E+03</rscale>
<asrwt>0</asrwt>
<pdfrwt beam="1">  1        2 0.26785493E+00 0.24520440E+03</pdfrwt>
<pdfrwt beam="2">  1       -2 0.13282205E-02 0.24520440E+03</pdfrwt>
<totfact> 0.14278945E+04</totfact>
</mgrwt>
</event>
<event>
 4    1  0.6148427E-004  0.2285223E+03  0.7818608E-02  0.1127684E+00
         -2   -1    0    0    0  501 -0.00000000000E+00  0.00000000000E+00  0.92530826084E+02  0.92530826119E+02  0.25500000000E-02 0. -1.
          2   -1    0    0  501    0  0.00000000000E+00 -0.00000000000E+00 -0.14109474448E+03  0.14109474451E+03  0.25500000000E-02 0.  1.
    5000001    1    1    2    0    0 -0.46360650882E+02  0.68396068888E+02 -0.41968030532E+02  0.12048920191E+03  0.77000000000E+02 0.  0.
   -5000001    1    1    2    0    0  0.46360650882E+02 -0.68396068888E+02 -0.65958878664E+01  0.11313636872E+03  0.77000000000E+02 0.  0.
<mgrwt>
<rscale>  0 0.22852233E+03</rscale>
<asrwt>0</asrwt>
<pdfrwt beam="1">  1        2 0.21706884E-01 0.22852233E+03</pdfrwt>
<pdfrwt beam="2">  1       -2 0.14235512E-01 0.22852233E+03</pdfrwt>
<totfact> 0.92350655E+03</totfact>
</mgrwt>
</event>
<event>
 4    1  0.6148427E-004  0.1675881E+03  0.7818608E-02  0.1180387E+00
         -2   -1    0    0    0  501 -0.00000000000E+00  0.00000000000E+00  0.31160659355E+01  0.31160669789E+01  0.25500000000E-02 0. -1.
          2   -1    0    0  501    0  0.00000000000E+00 -0.00000000000E+00 -0.22533023571E+04  0.22533023572E+04  0.25500000000E-02 0.  1.
    5000001    1    1    2    0    0  0.28884812801E+01 -0.21144827570E+02 -0.78527714418E+03  0.78933176816E+03  0.77000000000E+02 0.  0.
   -5000001    1    1    2    0    0 -0.28884812801E+01  0.21144827570E+02 -0.14649091470E+04  0.14670866560E+04  0.77000000000E+02 0.  0.
<mgrwt>
<rscale>  0 0.16758807E+03</rscale>
<asrwt>0</asrwt>
<pdfrwt beam="1">  1        2 0.34666060E+00 0.16758807E+03</pdfrwt>
<pdfrwt beam="2">  1       -2 0.47939664E-03 0.16758807E+03</pdfrwt>
<totfact> 0.32933403E+04</totfact>
</mgrwt>
</event>
<event>
 4    1  0.6148427E-004  0.4993799E+03  0.7818608E-02  0.1013941E+00
         -2   -1    0    0    0  501 -0.00000000000E+00  0.00000000000E+00  0.31024315103E+02  0.31024315208E+02  0.25500000000E-02 0. -1.
          2   -1    0    0  501    0  0.00000000000E+00 -0.00000000000E+00 -0.20095553207E+04  0.20095553207E+04  0.25500000000E-02 0.  1.
    5000001    1    1    2    0    0  0.73916183935E+01  0.18467745132E+03 -0.37966838193E+03  0.42922893342E+03  0.77000000000E+02 0.  0.
   -5000001    1    1    2    0    0 -0.73916183935E+01 -0.18467745132E+03 -0.15988626236E+04  0.16113507025E+04  0.77000000000E+02 0.  0.
<mgrwt>
<rscale>  0 0.49937993E+03</rscale>
<asrwt>0</asrwt>
<pdfrwt beam="1">  1        2 0.30916226E+00 0.49937993E+03</pdfrwt>
<pdfrwt beam="2">  1       -2 0.47729731E-02 0.49937993E+03</pdfrwt>
<totfact> 0.15190526E+03</totfact>
</mgrwt>
</event>
<event>
 4    1  0.6148427E-004  0.2376825E+03  0.7818608E-02  0.1121346E+00
          2   -1    0    0  501    0  0.00000000000E+00  0.00000000000E+00  0.20856536049E+03  0.20856536051E+03  0.25500000000E-02 0.  1.
         -2   -1    0    0    0  501 -0.00000000000E+00 -0.00000000000E+00 -0.67716171760E+02  0.67716171808E+02  0.25500000000E-02 0. -1.
    5000001    1    1    2    0    0 -0.59351723879E+02  0.67853288333E+02  0.60870854462E+02  0.13327023969E+03  0.77000000000E+02 0.  0.
   -5000001    1    1    2    0    0  0.59351723879E+02 -0.67853288333E+02  0.79978334271E+02  0.14301129262E+03  0.77000000000E+02 0.  0.
<mgrwt>
<rscale>  0 0.23768254E+03</rscale>
<asrwt>0</asrwt>
<pdfrwt beam="1">  1        2 0.32086978E-01 0.23768254E+03</pdfrwt>
<pdfrwt beam="2">  1       -2 0.10417873E-01 0.23768254E+03</pdfrwt>
<totfact> 0.99310059E+03</totfact>
</mgrwt>
</event>
<event>
 4    1  0.6148427E-004  0.2616884E+03  0.7818608E-02  0.1106133E+00
         -2   -1    0    0    0  501 -0.00000000000E+00  0.00000000000E+00  0.14897221429E+02  0.14897221647E+02  0.25500000000E-02 0. -1.
          2   -1    0    0  501    0  0.00000000000E+00 -0.00000000000E+00 -0.11492216833E+04  0.11492216833E+04  0.25500000000E-02 0.  1.
    5000001    1    1    2    0    0 -0.52361565774E+00 -0.10270313593E+03 -0.67996476785E+03  0.69197492283E+03  0.77000000000E+02 0.  0.
   -5000001    1    1    2    0    0  0.52361565774E+00  0.10270313593E+03 -0.45435969403E+03  0.47214398213E+03  0.77000000000E+02 0.  0.
<mgrwt>
<rscale>  0 0.26168844E+03</rscale>
<asrwt>0</asrwt>
<pdfrwt beam="1">  1        2 0.17680327E+00 0.26168844E+03</pdfrwt>
<pdfrwt beam="2">  1       -2 0.22918811E-02 0.26168844E+03</pdfrwt>
<totfact> 0.13463281E+04</totfact>
</mgrwt>
</event>
<event>
 4    1  0.6148427E-004  0.3594379E+03  0.7818608E-02  0.1058807E+00
         -2   -1    0    0    0  501 -0.00000000000E+00  0.00000000000E+00  0.72475196455E+02  0.72475196500E+02  0.25500000000E-02 0. -1.
          2   -1    0    0  501    0  0.00000000000E+00 -0.00000000000E+00 -0.44565446864E+03  0.44565446865E+03  0.25500000000E-02 0.  1.
    5000001    1    1    2    0    0 -0.53524984158E+02  0.14377743033E+03 -0.26331511106E+03  0.31432581999E+03  0.77000000000E+02 0.  0.
   -5000001    1    1    2    0    0  0.53524984158E+02 -0.14377743033E+03 -0.10986416112E+03  0.20380384515E+03  0.77000000000E+02 0.  0.
<mgrwt>
<rscale>  0 0.35943787E+03</rscale>
<asrwt>0</asrwt>
<pdfrwt beam="1">  1        2 0.68562224E-01 0.35943787E+03</pdfrwt>
<pdfrwt beam="2">  1       -2 0.11150031E-01 0.35943787E+03</pdfrwt>
<totfact> 0.39617964E+03</totfact>
</mgrwt>
</event>
<event>
 4    1  0.6148427E-004  0.2873308E+03  0.7818608E-02  0.1091751E+00
         -2   -1    0    0    0  501 -0.00000000000E+00  0.00000000000E+00  0.16387751181E+02  0.16387751379E+02  0.25500000000E-02 0. -1.
          2   -1    0    0  501    0  0.00000000000E+00 -0.00000000000E+00 -0.12594620001E+04  0.12594620001E+04  0.25500000000E-02 0.  1.
    5000001    1    1    2    0    0  0.92999033135E+02 -0.28701614078E+02 -0.94290774426E+03  0.95103975574E+03  0.77000000000E+02 0.  0.
   -5000001    1    1    2    0    0 -0.92999033135E+02  0.28701614078E+02 -0.30016650468E+03  0.32480999576E+03  0.77000000000E+02 0.  0.
<mgrwt>
<rscale>  0 0.28733082E+03</rscale>
<asrwt>0</asrwt>
<pdfrwt beam="1">  1        2 0.19376331E+00 0.28733082E+03</pdfrwt>
<pdfrwt beam="2">  1       -2 0.25211935E-02 0.28733082E+03</pdfrwt>
<totfact> 0.10149975E+04</totfact>
</mgrwt>
</event>
<event>
 4    1  0.6148427E-004  0.2582670E+03  0.7818608E-02  0.1108189E+00
         -2   -1    0    0    0  501 -0.00000000000E+00  0.00000000000E+00  0.10834937623E+02  0.10834937923E+02  0.25500000000E-02 0. -1.
          2   -1    0    0  501    0  0.00000000000E+00 -0.00000000000E+00 -0.15390451028E+04  0.15390451028E+04  0.25500000000E-02 0.  1.
    5000001    1    1    2    0    0  0.97521066568E+02 -0.25964958969E+02 -0.62185038846E+03  0.63467428115E+03  0.77000000000E+02 0.  0.
   -5000001    1    1    2    0    0 -0.97521066568E+02  0.25964958969E+02 -0.90635977667E+03  0.91520575953E+03  0.77000000000E+02 0.  0.
<mgrwt>
<rscale>  0 0.25826698E+03</rscale>
<asrwt>0</asrwt>
<pdfrwt beam="1">  1        2 0.23677600E+00 0.25826698E+03</pdfrwt>
<pdfrwt beam="2">  1       -2 0.16669147E-02 0.25826698E+03</pdfrwt>
<totfact> 0.13116189E+04</totfact>
</mgrwt>
</event>
<event>
 4    1  0.6148427E-004  0.3162030E+03  0.7818608E-02  0.1077410E+00
          2   -1    0    0  501    0  0.00000000000E+00  0.00000000000E+00  0.27930173200E+04  0.27930173200E+04  0.25500000000E-02 0.  1.
         -2   -1    0    0    0  501 -0.00000000000E+00 -0.00000000000E+00 -0.89494905480E+01  0.89494909113E+01  0.25500000000E-02 0. -1.
    5000001    1    1    2    0    0 -0.50654674125E+02  0.80762332001E+02  0.22772158168E+04  0.22805107601E+04  0.77000000000E+02 0.  0.
   -5000001    1    1    2    0    0  0.50654674125E+02 -0.80762332001E+02  0.50685201257E+03  0.52145605081E+03  0.77000000000E+02 0.  0.
<mgrwt>
<rscale>  0 0.31620299E+03</rscale>
<asrwt>0</asrwt>
<pdfrwt beam="1">  1        2 0.42969509E+00 0.31620299E+03</pdfrwt>
<pdfrwt beam="2">  1       -2 0.13768444E-02 0.31620299E+03</pdfrwt>
<totfact> 0.36674661E+03</totfact>
</mgrwt>
</event>
<event>
 4    1  0.6148427E-004  0.4838632E+03  0.7818608E-02  0.1018079E+00
         -2   -1    0    0    0  501 -0.00000000000E+00  0.00000000000E+00  0.30922166252E+03  0.30922166253E+03  0.25500000000E-02 0. -1.
          2   -1    0    0  501    0  0.00000000000E+00 -0.00000000000E+00 -0.18928460730E+03  0.18928460731E+03  0.25500000000E-02 0.  1.
    5000001    1    1    2    0    0  0.13352685980E+03 -0.61755373980E+02  0.24124429424E+03  0.29286679226E+03  0.77000000000E+02 0.  0.
   -5000001    1    1    2    0    0 -0.13352685980E+03  0.61755373980E+02 -0.12130723902E+03  0.20563947759E+03  0.77000000000E+02 0.  0.
<mgrwt>
<rscale>  0 0.48386321E+03</rscale>
<asrwt>0</asrwt>
<pdfrwt beam="1">  1        2 0.29120709E-01 0.48386321E+03</pdfrwt>
<pdfrwt beam="2">  1       -2 0.47572563E-01 0.48386321E+03</pdfrwt>
<totfact> 0.77408825E+02</totfact>
</mgrwt>
</event>
<event>
 4    1  0.6148427E-004  0.2758708E+03  0.7818608E-02  0.1097966E+00
          2   -1    0    0  501    0  0.00000000000E+00  0.00000000000E+00  0.38797834129E+03  0.38797834129E+03  0.25500000000E-02 0.  1.
         -2   -1    0    0    0  501 -0.00000000000E+00 -0.00000000000E+00 -0.49039275354E+02  0.49039275420E+02  0.25500000000E-02 0. -1.
    5000001    1    1    2    0    0 -0.57446455359E+02  0.50885920033E+02  0.30396005399E+03  0.32281602580E+03  0.77000000000E+02 0.  0.
   -5000001    1    1    2    0    0  0.57446455359E+02 -0.50885920033E+02  0.34979011940E+02  0.11420159091E+03  0.77000000000E+02 0.  0.
<mgrwt>
<rscale>  0 0.27587082E+03</rscale>
<asrwt>0</asrwt>
<pdfrwt beam="1">  1        2 0.59688974E-01 0.27587082E+03</pdfrwt>
<pdfrwt beam="2">  1       -2 0.75445041E-02 0.27587082E+03</pdfrwt>
<totfact> 0.85015884E+03</totfact>
</mgrwt>
</event>
<event>
 4    1  0.6148427E-004  0.1992554E+03  0.7818608E-02  0.1150369E+00
         -2   -1    0    0    0  501 -0.00000000000E+00  0.00000000000E+00  0.22836073923E+03  0.22836073925E+03  0.25500000000E-02 0. -1.
          2   -1    0    0  501    0  0.00000000000E+00 -0.00000000000E+00 -0.43464928272E+02  0.43464928346E+02  0.25500000000E-02 0.  1.
    5000001    1    1    2    0    0 -0.51298327958E+02 -0.36517454075E+02  0.84774285603E+02  0.13069323779E+03  0.77000000000E+02 0.  0.
   -5000001    1    1    2    0    0  0.51298327958E+02  0.36517454075E+02  0.10012152536E+03  0.14113242981E+03  0.77000000000E+02 0.  0.
<mgrwt>
<rscale>  0 0.19925545E+03</rscale>
<asrwt>0</asrwt>
<pdfrwt beam="1">  1        2 0.66869119E-02 0.19925545E+03</pdfrwt>
<pdfrwt beam="2">  1       -2 0.35132422E-01 0.19925545E+03</pdfrwt>
<totfact> 0.79387813E+03</totfact>
</mgrwt>
</event>
<event>
 4    1  0.6148427E-004  0.7668599E+03  0.7818608E-02  0.9609265E-01
          2   -1    0    0  501    0  0.00000000000E+00  0.00000000000E+00  0.77391029653E+02  0.77391029695E+02  0.25500000000E-02 0.  1.
         -2   -1    0    0    0  501 -0.00000000000E+00 -0.00000000000E+00 -0.18996843607E+04  0.18996843607E+04  0.25500000000E-02 0. -1.
    5000001    1    1    2    0    0  0.17997674621E+03 -0.28385773892E+03 -0.13434967806E+04  0.13870398136E+04  0.77000000000E+02 0.  0.
   -5000001    1    1    2    0    0 -0.17997674621E+03  0.28385773892E+03 -0.47879655042E+03  0.59003557674E+03  0.77000000000E+02 0.  0.
<mgrwt>
<rscale>  0 0.76685991E+03</rscale>
<asrwt>0</asrwt>
<pdfrwt beam="1">  1        2 0.11906314E-01 0.76685991E+03</pdfrwt>
<pdfrwt beam="2">  1       -2 0.29225910E+00 0.76685991E+03</pdfrwt>
<totfact> 0.19599971E+01</totfact>
</mgrwt>
</event>
<event>
 4    1  0.6148427E-004  0.2603109E+03  0.7818608E-02  0.1106957E+00
          2   -1    0    0  501    0  0.00000000000E+00  0.00000000000E+00  0.83370910332E+02  0.83370910371E+02  0.25500000000E-02 0.  1.
         -2   -1    0    0    0  501 -0.00000000000E+00 -0.00000000000E+00 -0.20319362230E+03  0.20319362232E+03  0.25500000000E-02 0. -1.
    5000001    1    1    2    0    0  0.78400058194E+01  0.86804330873E+02  0.44202211847E+01  0.11638297085E+03  0.77000000000E+02 0.  0.
   -5000001    1    1    2    0    0 -0.78400058194E+01 -0.86804330873E+02 -0.12424293315E+03  0.17018156183E+03  0.77000000000E+02 0.  0.
<mgrwt>
<rscale>  0 0.26031087E+03</rscale>
<asrwt>0</asrwt>
<pdfrwt beam="1">  1        2 0.12826294E-01 0.26031087E+03</pdfrwt>
<pdfrwt beam="2">  1       -2 0.31260557E-01 0.26031087E+03</pdfrwt>
<totfact> 0.44259503E+03</totfact>
</mgrwt>
</event>
<event>
 4    1  0.6148427E-004  0.3983272E+03  0.7818608E-02  0.1044360E+00
          2   -1    0    0  501    0  0.00000000000E+00  0.00000000000E+00  0.85751206201E+03  0.85751206202E+03  0.25500000000E-02 0.  1.
         -2   -1    0    0    0  501 -0.00000000000E+00 -0.00000000000E+00 -0.46257232299E+02  0.46257232369E+02  0.25500000000E-02 0. -1.
    5000001    1    1    2    0    0 -0.15061124279E+03  0.98274287599E+02  0.49038737713E+03  0.52796814460E+03  0.77000000000E+02 0.  0.
   -5000001    1    1    2    0    0  0.15061124279E+03 -0.98274287599E+02  0.32086745258E+03  0.37580114979E+03  0.77000000000E+02 0.  0.
<mgrwt>
<rscale>  0 0.39832718E+03</rscale>
<asrwt>0</asrwt>
<pdfrwt beam="1">  1        2 0.13192493E+00 0.39832718E+03</pdfrwt>
<pdfrwt beam="2">  1       -2 0.71164972E-02 0.39832718E+03</pdfrwt>
<totfact> 0.36986114E+03</totfact>
</mgrwt>
</event>
<event>
 4    1  0.6148427E-004  0.2406182E+03  0.7818608E-02  0.1119382E+00
          2   -1    0    0  501    0  0.00000000000E+00  0.00000000000E+00  0.76741486581E+03  0.76741486581E+03  0.25500000000E-02 0.  1.
         -2   -1    0    0    0  501 -0.00000000000E+00 -0.00000000000E+00 -0.18861085877E+02  0.18861086049E+02  0.25500000000E-02 0. -1.
    5000001    1    1    2    0    0  0.57563108926E+02  0.53762537928E+02  0.21615927659E+03  0.24260617232E+03  0.77000000000E+02 0.  0.
   -5000001    1    1    2    0    0 -0.57563108926E+02 -0.53762537928E+02  0.53239450335E+03  0.54366977954E+03  0.77000000000E+02 0.  0.
<mgrwt>
<rscale>  0 0.24061819E+03</rscale>
<asrwt>0</asrwt>
<pdfrwt beam="1">  1        2 0.11806381E+00 0.24061819E+03</pdfrwt>
<pdfrwt beam="2">  1       -2 0.29017060E-02 0.24061819E+03</pdfrwt>
<totfact> 0.16459816E+04</totfact>
</mgrwt>
</event>
<event>
 4    1  0.6148427E-004  0.3507448E+03  0.7818608E-02  0.1062310E+00
          2   -1    0    0  501    0  0.00000000000E+00  0.00000000000E+00  0.14686180201E+04  0.14686180201E+04  0.25500000000E-02 0.  1.
         -2   -1    0    0    0  501 -0.00000000000E+00 -0.00000000000E+00 -0.20941780738E+02  0.20941780893E+02  0.25500000000E-02 0. -1.
    5000001    1    1    2    0    0 -0.14079248490E+03 -0.27132227338E+02  0.44639848910E+03  0.47514133964E+03  0.77000000000E+02 0.  0.
   -5000001    1    1    2    0    0  0.14079248490E+03  0.27132227338E+02  0.10012777502E+04  0.10144184613E+04  0.77000000000E+02 0.  0.
<mgrwt>
<rscale>  0 0.35074479E+03</rscale>
<asrwt>0</asrwt>
<pdfrwt beam="1">  1        2 0.22594121E+00 0.35074479E+03</pdfrwt>
<pdfrwt beam="2">  1       -2 0.32218127E-02 0.35074479E+03</pdfrwt>
<totfact> 0.54149501E+03</totfact>
</mgrwt>
</event>
<event>
 4    1  0.6148427E-004  0.5779502E+03  0.7818608E-02  0.9952239E-01
         -2   -1    0    0    0  501 -0.00000000000E+00  0.00000000000E+00  0.89106165883E+02  0.89106165920E+02  0.25500000000E-02 0. -1.
          2   -1    0    0  501    0  0.00000000000E+00 -0.00000000000E+00 -0.93715859452E+03  0.93715859452E+03  0.25500000000E-02 0.  1.
    5000001    1    1    2    0    0  0.14961717203E+03 -0.23472619450E+03 -0.44141759706E+03  0.52750372468E+03  0.77000000000E+02 0.  0.
   -5000001    1    1    2    0    0 -0.14961717203E+03  0.23472619450E+03 -0.40663483158E+03  0.49876103577E+03  0.77000000000E+02 0.  0.
<mgrwt>
<rscale>  0 0.57795020E+03</rscale>
<asrwt>0</asrwt>
<pdfrwt beam="1">  1        2 0.14417824E+00 0.57795020E+03</pdfrwt>
<pdfrwt beam="2">  1       -2 0.13708642E-01 0.57795020E+03</pdfrwt>
<totfact> 0.11366747E+03</totfact>
</mgrwt>
</event>
<event>
 4    1  0.6148427E-004  0.2004334E+03  0.7818608E-02  0.1149374E+00
          2   -1    0    0  501    0  0.00000000000E+00  0.00000000000E+00  0.37188412418E+03  0.37188412419E+03  0.25500000000E-02 0.  1.
         -2   -1    0    0    0  501 -0.00000000000E+00 -0.00000000000E+00 -0.27006756938E+02  0.27006757058E+02  0.25500000000E-02 0. -1.
    5000001    1    1    2    0    0 -0.55388673493E+02  0.32349149553E+02  0.17265255157E+03  0.19963034888E+03  0.77000000000E+02 0.  0.
   -5000001    1    1    2    0    0  0.55388673493E+02 -0.32349149553E+02  0.17222481567E+03  0.19926053237E+03  0.77000000000E+02 0.  0.
<mgrwt>
<rscale>  0 0.20043337E+03</rscale>
<asrwt>0</asrwt>
<pdfrwt beam="1">  1        2 0.57212939E-01 0.20043337E+03</pdfrwt>
<pdfrwt beam="2">  1       -2 0.41548859E-02 0.20043337E+03</pdfrwt>
<totfact> 0.21724357E+04</totfact>
</mgrwt>
</event>
<event>
 4    1  0.6148427E-004  0.1809468E+03  0.7818608E-02  0.1166890E+00
          2   -1    0    0  501    0  0.00000000000E+00  0.00000000000E+00  0.17971686027E+02  0.17971686208E+02  0.25500000000E-02 0.  1.
         -2   -1    0    0    0  501 -0.00000000000E+00 -0.00000000000E+00 -0.45546288874E+03  0.45546288875E+03  0.25500000000E-02 0. -1.
    5000001    1    1    2    0    0 -0.14337330639E+02 -0.45210046814E+02 -0.21185852673E+03  0.23035308275E+03  0.77000000000E+02 0.  0.
   -5000001    1    1    2    0    0  0.14337330639E+02  0.45210046814E+02 -0.22563267599E+03  0.24308149221E+03  0.77000000000E+02 0.  0.
<mgrwt>
<rscale>  0 0.18094680E+03</rscale>
<asrwt>0</asrwt>
<pdfrwt beam="1">  1        2 0.27648751E-02 0.18094680E+03</pdfrwt>
<pdfrwt beam="2">  1       -2 0.70071205E-01 0.18094680E+03</pdfrwt>
<totfact> 0.64462468E+03</totfact>
</mgrwt>
</event>
<event>
 4    1  0.6148427E-004  0.2144105E+03  0.7818608E-02  0.1138120E+00
          2   -1    0    0  501    0  0.00000000000E+00  0.00000000000E+00  0.20224054678E+03  0.20224054679E+03  0.25500000000E-02 0.  1.
         -2   -1    0    0    0  501 -0.00000000000E+00 -0.00000000000E+00 -0.56828177403E+02  0.56828177461E+02  0.25500000000E-02 0. -1.
    5000001    1    1    2    0    0  0.38712509338E+02 -0.63249179579E+02  0.62976341008E+02  0.12407310999E+03  0.77000000000E+02 0.  0.
   -5000001    1    1    2    0    0 -0.38712509338E+02  0.63249179579E+02  0.82436028364E+02  0.13499561426E+03  0.77000000000E+02 0.  0.
<mgrwt>
<rscale>  0 0.21441046E+03</rscale>
<asrwt>0</asrwt>
<pdfrwt beam="1">  1        2 0.31113930E-01 0.21441046E+03</pdfrwt>
<pdfrwt beam="2">  1       -2 0.87427967E-02 0.21441046E+03</pdfrwt>
<totfact> 0.13463392E+04</totfact>
</mgrwt>
</event>
<event>
 4    1  0.6148427E-004  0.3220181E+03  0.7818608E-02  0.1074724E+00
          2   -1    0    0  501    0  0.00000000000E+00  0.00000000000E+00  0.32075659751E+04  0.32075659751E+04  0.25500000000E-02 0.  1.
         -2   -1    0    0    0  501 -0.00000000000E+00 -0.00000000000E+00 -0.80821163381E+01  0.80821167404E+01  0.25500000000E-02 0. -1.
    5000001    1    1    2    0    0 -0.48527730967E+02 -0.13095384071E+03  0.13784522428E+04  0.13876467255E+04  0.77000000000E+02 0.  0.
   -5000001    1    1    2    0    0  0.48527730967E+02  0.13095384071E+03  0.18210316159E+04  0.18280013663E+04  0.77000000000E+02 0.  0.
<mgrwt>
<rscale>  0 0.32201815E+03</rscale>
<asrwt>0</asrwt>
<pdfrwt beam="1">  1        2 0.49347202E+00 0.32201815E+03</pdfrwt>
<pdfrwt beam="2">  1       -2 0.12434017E-02 0.32201815E+03</pdfrwt>
<totfact> 0.24082241E+03</totfact>
</mgrwt>
</event>
<event>
 4    1  0.6148427E-004  0.2131564E+03  0.7818608E-02  0.1139091E+00
         -2   -1    0    0    0  501 -0.00000000000E+00  0.00000000000E+00  0.11219925329E+02  0.11219925619E+02  0.25500000000E-02 0. -1.
          2   -1    0    0  501    0  0.00000000000E+00 -0.00000000000E+00 -0.10123871077E+04  0.10123871077E+04  0.25500000000E-02 0.  1.
    5000001    1    1    2    0    0  0.31808511480E+02 -0.40844101219E+02 -0.75240480513E+03  0.75810422291E+03  0.77000000000E+02 0.  0.
   -5000001    1    1    2    0    0 -0.31808511480E+02  0.40844101219E+02 -0.24876237722E+03  0.26550281039E+03  0.77000000000E+02 0.  0.
<mgrwt>
<rscale>  0 0.21315635E+03</rscale>
<asrwt>0</asrwt>
<pdfrwt beam="1">  1        2 0.15575179E+00 0.21315635E+03</pdfrwt>
<pdfrwt beam="2">  1       -2 0.17261432E-02 0.21315635E+03</pdfrwt>
<totfact> 0.24336889E+04</totfact>
</mgrwt>
</event>
<event>
 4    1  0.6148427E-004  0.3075949E+03  0.7818608E-02  0.1081504E+00
          2   -1    0    0  501    0  0.00000000000E+00  0.00000000000E+00  0.24716568544E+04  0.24716568544E+04  0.25500000000E-02 0.  1.
         -2   -1    0    0    0  501 -0.00000000000E+00 -0.00000000000E+00 -0.95699615329E+01  0.95699618726E+01  0.25500000000E-02 0. -1.
    5000001    1    1    2    0    0 -0.57279799444E+02 -0.90537524335E+02  0.59349878229E+03  0.60798669666E+03  0.77000000000E+02 0.  0.
   -5000001    1    1    2    0    0  0.57279799444E+02  0.90537524335E+02  0.18685881105E+04  0.18732401196E+04  0.77000000000E+02 0.  0.
<mgrwt>
<rscale>  0 0.30759494E+03</rscale>
<asrwt>0</asrwt>
<pdfrwt beam="1">  1        2 0.38025502E+00 0.30759494E+03</pdfrwt>
<pdfrwt beam="2">  1       -2 0.14723013E-02 0.30759494E+03</pdfrwt>
<totfact> 0.50353479E+03</totfact>
</mgrwt>
</event>
<event>
 4    1  0.6148427E-004  0.3830344E+03  0.7818608E-02  0.1049818E+00
          2   -1    0    0  501    0  0.00000000000E+00  0.00000000000E+00  0.51092078701E+03  0.51092078702E+03  0.25500000000E-02 0.  1.
         -2   -1    0    0    0  501 -0.00000000000E+00 -0.00000000000E+00 -0.71789681652E+02  0.71789681698E+02  0.25500000000E-02 0. -1.
    5000001    1    1    2    0    0  0.12713711188E+03 -0.99265716445E+02  0.32421857016E+03  0.37022183744E+03  0.77000000000E+02 0.  0.
   -5000001    1    1    2    0    0 -0.12713711188E+03  0.99265716445E+02  0.11491253520E+03  0.21248863128E+03  0.77000000000E+02 0.  0.
<mgrwt>
<rscale>  0 0.38303441E+03</rscale>
<asrwt>0</asrwt>
<pdfrwt beam="1">  1        2 0.78603201E-01 0.38303441E+03</pdfrwt>
<pdfrwt beam="2">  1       -2 0.11044566E-01 0.38303441E+03</pdfrwt>
<totfact> 0.34541287E+03</totfact>
</mgrwt>
</event>
<event>
 4    1  0.6148427E-004  0.2420082E+03  0.7818608E-02  0.1118462E+00
          2   -1    0    0  501    0  0.00000000000E+00  0.00000000000E+00  0.65015514557E+02  0.65015514607E+02  0.25500000000E-02 0.  1.
         -2   -1    0    0    0  501 -0.00000000000E+00 -0.00000000000E+00 -0.22520761267E+03  0.22520761268E+03  0.25500000000E-02 0. -1.
    5000001    1    1    2    0    0  0.45856493303E+02  0.51114090816E+02 -0.15591841639E+03  0.18696261880E+03  0.77000000000E+02 0.  0.
   -5000001    1    1    2    0    0 -0.45856493303E+02 -0.51114090816E+02 -0.42736817174E+01  0.10326050849E+03  0.77000000000E+02 0.  0.
<mgrwt>
<rscale>  0 0.24200817E+03</rscale>
<asrwt>0</asrwt>
<pdfrwt beam="1">  1        2 0.10002387E-01 0.24200817E+03</pdfrwt>
<pdfrwt beam="2">  1       -2 0.34647325E-01 0.24200817E+03</pdfrwt>
<totfact> 0.49498056E+03</totfact>
</mgrwt>
</event>
<event>
 4    1  0.6148427E-004  0.4648999E+03  0.7818608E-02  0.1023370E+00
          2   -1    0    0  501    0  0.00000000000E+00  0.00000000000E+00  0.36300265395E+04  0.36300265395E+04  0.25500000000E-02 0.  1.
         -2   -1    0    0    0  501 -0.00000000000E+00 -0.00000000000E+00 -0.14885009238E+02  0.14885009457E+02  0.25500000000E-02 0. -1.
    5000001    1    1    2    0    0  0.54038563239E+02  0.16996799617E+03  0.80676307780E+03  0.82982223985E+03  0.77000000000E+02 0.  0.
   -5000001    1    1    2    0    0 -0.54038563239E+02 -0.16996799617E+03  0.28083784524E+04  0.28150893091E+04  0.77000000000E+02 0.  0.
<mgrwt>
<rscale>  0 0.46489990E+03</rscale>
<asrwt>0</asrwt>
<pdfrwt beam="1">  1        2 0.55846631E+00 0.46489990E+03</pdfrwt>
<pdfrwt beam="2">  1       -2 0.22899986E-02 0.46489990E+03</pdfrwt>
<totfact> 0.50392615E+02</totfact>
</mgrwt>
</event>
<event>
 4    1  0.6148427E-004  0.2855107E+03  0.7818608E-02  0.1092717E+00
          2   -1    0    0  501    0  0.00000000000E+00  0.00000000000E+00  0.10471537045E+03  0.10471537048E+03  0.25500000000E-02 0.  1.
         -2   -1    0    0    0  501 -0.00000000000E+00 -0.00000000000E+00 -0.19461411263E+03  0.19461411264E+03  0.25500000000E-02 0. -1.
    5000001    1    1    2    0    0  0.43078070810E+02 -0.53706044216E+02 -0.14825818931E+03  0.18069186498E+03  0.77000000000E+02 0.  0.
   -5000001    1    1    2    0    0 -0.43078070810E+02  0.53706044216E+02  0.58359447141E+02  0.11863761815E+03  0.77000000000E+02 0.  0.
<mgrwt>
<rscale>  0 0.28551069E+03</rscale>
<asrwt>0</asrwt>
<pdfrwt beam="1">  1        2 0.16110057E-01 0.28551069E+03</pdfrwt>
<pdfrwt beam="2">  1       -2 0.29940633E-01 0.28551069E+03</pdfrwt>
<totfact> 0.36602352E+03</totfact>
</mgrwt>
</event>
<event>
 4    1  0.6148427E-004  0.2140923E+03  0.7818608E-02  0.1138366E+00
          2   -1    0    0  501    0  0.00000000000E+00  0.00000000000E+00  0.54948446546E+03  0.54948446547E+03  0.25500000000E-02 0.  1.
         -2   -1    0    0    0  501 -0.00000000000E+00 -0.00000000000E+00 -0.20853862037E+02  0.20853862193E+02  0.25500000000E-02 0. -1.
    5000001    1    1    2    0    0  0.54622792052E+02 -0.36907177259E+02  0.35598438432E+03  0.37013466606E+03  0.77000000000E+02 0.  0.
   -5000001    1    1    2    0    0 -0.54622792052E+02  0.36907177259E+02  0.17264621911E+03  0.20020366160E+03  0.77000000000E+02 0.  0.
<mgrwt>
<rscale>  0 0.21409225E+03</rscale>
<asrwt>0</asrwt>
<pdfrwt beam="1">  1        2 0.84536051E-01 0.21409225E+03</pdfrwt>
<pdfrwt beam="2">  1       -2 0.32082873E-02 0.21409225E+03</pdfrwt>
<totfact> 0.20912058E+04</totfact>
</mgrwt>
</event>
<event>
 4    1  0.6148427E-004  0.2541160E+03  0.7818608E-02  0.1110731E+00
          2   -1    0    0  501    0  0.00000000000E+00  0.00000000000E+00  0.13376656405E+03  0.13376656408E+03  0.25500000000E-02 0.  1.
         -2   -1    0    0    0  501 -0.00000000000E+00 -0.00000000000E+00 -0.12068589250E+03  0.12068589253E+03  0.25500000000E-02 0. -1.
    5000001    1    1    2    0    0 -0.89226295470E+01 -0.60087192823E+02 -0.74341933372E+02  0.12306830265E+03  0.77000000000E+02 0.  0.
   -5000001    1    1    2    0    0  0.89226295470E+01  0.60087192823E+02  0.87422604925E+02  0.13138415396E+03  0.77000000000E+02 0.  0.
<mgrwt>
<rscale>  0 0.25411601E+03</rscale>
<asrwt>0</asrwt>
<pdfrwt beam="1">  1        2 0.20579472E-01 0.25411601E+03</pdfrwt>
<pdfrwt beam="2">  1       -2 0.18567060E-01 0.25411601E+03</pdfrwt>
<totfact> 0.63376840E+03</totfact>
</mgrwt>
</event>
<event>
 4    1  0.6148427E-004  0.3429921E+03  0.7818608E-02  0.1065529E+00
          2   -1    0    0  501    0  0.00000000000E+00  0.00000000000E+00  0.74154061609E+03  0.74154061609E+03  0.25500000000E-02 0.  1.
         -2   -1    0    0    0  501 -0.00000000000E+00 -0.00000000000E+00 -0.39661889017E+02  0.39661889099E+02  0.25500000000E-02 0. -1.
    5000001    1    1    2    0    0  0.15050360097E+03  0.16156647202E+02  0.40529417011E+03  0.43943683901E+03  0.77000000000E+02 0.  0.
   -5000001    1    1    2    0    0 -0.15050360097E+03 -0.16156647202E+02  0.29658455696E+03  0.34176566618E+03  0.77000000000E+02 0.  0.
<mgrwt>
<rscale>  0 0.34299214E+03</rscale>
<asrwt>0</asrwt>
<pdfrwt beam="1">  1        2 0.11408317E+00 0.34299214E+03</pdfrwt>
<pdfrwt beam="2">  1       -2 0.61018289E-02 0.34299214E+03</pdfrwt>
<totfact> 0.56534859E+03</totfact>
</mgrwt>
</event>
<event>
 4    1  0.6148427E-004  0.2340809E+03  0.7818608E-02  0.1123800E+00
         -2   -1    0    0    0  501 -0.00000000000E+00  0.00000000000E+00  0.14951131630E+02  0.14951131848E+02  0.25500000000E-02 0. -1.
          2   -1    0    0  501    0  0.00000000000E+00 -0.00000000000E+00 -0.91621600449E+03  0.91621600450E+03  0.25500000000E-02 0.  1.
    5000001    1    1    2    0    0  0.48578336827E+02 -0.65214816664E+02 -0.58592084924E+03  0.59652750875E+03  0.77000000000E+02 0.  0.
   -5000001    1    1    2    0    0 -0.48578336827E+02  0.65214816664E+02 -0.31534402362E+03  0.33463962759E+03  0.77000000000E+02 0.  0.
<mgrwt>
<rscale>  0 0.23408089E+03</rscale>
<asrwt>0</asrwt>
<pdfrwt beam="1">  1        2 0.14095626E+00 0.23408089E+03</pdfrwt>
<pdfrwt beam="2">  1       -2 0.23001748E-02 0.23408089E+03</pdfrwt>
<totfact> 0.18423559E+04</totfact>
</mgrwt>
</event>
<event>
 4    1  0.6148427E-004  0.1999018E+03  0.7818608E-02  0.1149822E+00
          2   -1    0    0  501    0  0.00000000000E+00  0.00000000000E+00  0.67256689726E+03  0.67256689726E+03  0.25500000000E-02 0.  1.
         -2   -1    0    0    0  501 -0.00000000000E+00 -0.00000000000E+00 -0.14853807759E+02  0.14853807978E+02  0.25500000000E-02 0. -1.
    5000001    1    1    2    0    0 -0.55625244593E+02  0.29522770773E+02  0.36244734207E+03  0.37584948796E+03  0.77000000000E+02 0.  0.
   -5000001    1    1    2    0    0  0.55625244593E+02 -0.29522770773E+02  0.29526574744E+03  0.31157121728E+03  0.77000000000E+02 0.  0.
<mgrwt>
<rscale>  0 0.19990177E+03</rscale>
<asrwt>0</asrwt>
<pdfrwt beam="1">  1        2 0.10347181E+00 0.19990177E+03</pdfrwt>
<pdfrwt beam="2">  1       -2 0.22852017E-02 0.19990177E+03</pdfrwt>
<totfact> 0.27181494E+04</totfact>
</mgrwt>
</event>
<event>
 4    1  0.6148427E-004  0.2504972E+03  0.7818608E-02  0.1112991E+00
          2   -1    0    0  501    0  0.00000000000E+00  0.00000000000E+00  0.11752944750E+03  0.11752944753E+03  0.25500000000E-02 0.  1.
         -2   -1    0    0    0  501 -0.00000000000E+00 -0.00000000000E+00 -0.13347474064E+03  0.13347474066E+03  0.25500000000E-02 0. -1.
    5000001    1    1    2    0    0  0.90252062306E+01 -0.80277408218E+02  0.48995703121E+02  0.12188312247E+03  0.77000000000E+02 0.  0.
   -5000001    1    1    2    0    0 -0.90252062306E+01  0.80277408218E+02 -0.64940996263E+02  0.12912106572E+03  0.77000000000E+02 0.  0.
<mgrwt>
<rscale>  0 0.25049721E+03</rscale>
<asrwt>0</asrwt>
<pdfrwt beam="1">  1        2 0.18081454E-01 0.25049721E+03</pdfrwt>
<pdfrwt beam="2">  1       -2 0.20534575E-01 0.25049721E+03</pdfrwt>
<totfact> 0.61903176E+03</totfact>
</mgrwt>
</event>
<event>
 4    1  0.6148427E-004  0.2022571E+03  0.7818608E-02  0.1147849E+00
          2   -1    0    0  501    0  0.00000000000E+00  0.00000000000E+00  0.15550597501E+03  0.15550597503E+03  0.25500000000E-02 0.  1.
         -2   -1    0    0    0  501 -0.00000000000E+00 -0.00000000000E+00 -0.65765834652E+02  0.65765834702E+02  0.25500000000E-02 0. -1.
    5000001    1    1    2    0    0  0.52961305827E+02  0.76388624067E+01  0.34312685140E+01  0.93829769995E+02  0.77000000000E+02 0.  0.
   -5000001    1    1    2    0    0 -0.52961305827E+02 -0.76388624067E+01  0.86308871846E+02  0.12744203974E+03  0.77000000000E+02 0.  0.
<mgrwt>
<rscale>  0 0.20225707E+03</rscale>
<asrwt>0</asrwt>
<pdfrwt beam="1">  1        2 0.23923996E-01 0.20225707E+03</pdfrwt>
<pdfrwt beam="2">  1       -2 0.10117821E-01 0.20225707E+03</pdfrwt>
<totfact> 0.14236172E+04</totfact>
</mgrwt>
</event>
<event>
 4    1  0.6148427E-004  0.2571707E+03  0.7818608E-02  0.1108855E+00
          2   -1    0    0  501    0  0.00000000000E+00  0.00000000000E+00  0.28492079834E+03  0.28492079836E+03  0.25500000000E-02 0.  1.
         -2   -1    0    0    0  501 -0.00000000000E+00 -0.00000000000E+00 -0.58030821160E+02  0.58030821216E+02  0.25500000000E-02 0. -1.
    5000001    1    1    2    0    0  0.61249121284E+02  0.66006667131E+02  0.46809143473E+02  0.12739085868E+03  0.77000000000E+02 0.  0.
   -5000001    1    1    2    0    0 -0.61249121284E+02 -0.66006667131E+02  0.18008083371E+03  0.21556076089E+03  0.77000000000E+02 0.  0.
<mgrwt>
<rscale>  0 0.25717067E+03</rscale>
<asrwt>0</asrwt>
<pdfrwt beam="1">  1        2 0.43833969E-01 0.25717067E+03</pdfrwt>
<pdfrwt beam="2">  1       -2 0.89278185E-02 0.25717067E+03</pdfrwt>
<totfact> 0.90851051E+03</totfact>
</mgrwt>
</event>
<event>
 4    1  0.6148427E-004  0.3628730E+03  0.7818608E-02  0.1057452E+00
         -2   -1    0    0    0  501 -0.00000000000E+00  0.00000000000E+00  0.15701170649E+03  0.15701170651E+03  0.25500000000E-02 0. -1.
          2   -1    0    0  501    0  0.00000000000E+00 -0.00000000000E+00 -0.20966077058E+03  0.20966077060E+03  0.25500000000E-02 0.  1.
    5000001    1    1    2    0    0  0.53897774246E+02 -0.11569063913E+03  0.78203768806E+02  0.16832742945E+03  0.77000000000E+02 0.  0.
   -5000001    1    1    2    0    0 -0.53897774246E+02  0.11569063913E+03 -0.13085283290E+03  0.19834504765E+03  0.77000000000E+02 0.  0.
<mgrwt>
<rscale>  0 0.36287296E+03</rscale>
<asrwt>0</asrwt>
<pdfrwt beam="1">  1        2 0.32255503E-01 0.36287296E+03</pdfrwt>
<pdfrwt beam="2">  1       -2 0.24155647E-01 0.36287296E+03</pdfrwt>
<totfact> 0.24574515E+03</totfact>
</mgrwt>
</event>
<event>
 4    1  0.6148427E-004  0.7737539E+03  0.7818608E-02  0.9598804E-01
          2   -1    0    0  501    0  0.00000000000E+00  0.00000000000E+00  0.96792071436E+03  0.96792071437E+03  0.25500000000E-02 0.  1.
         -2   -1    0    0    0  501 -0.00000000000E+00 -0.00000000000E+00 -0.15463432428E+03  0.15463432430E+03  0.25500000000E-02 0. -1.
    5000001    1    1    2    0    0 -0.29756958028E+03  0.23458101790E+03  0.38779091927E+03  0.54761912506E+03  0.77000000000E+02 0.  0.
   -5000001    1    1    2    0    0  0.29756958028E+03 -0.23458101790E+03  0.42549547082E+03  0.57493591360E+03  0.77000000000E+02 0.  0.
<mgrwt>
<rscale>  0 0.77375388E+03</rscale>
<asrwt>0</asrwt>
<pdfrwt beam="1">  1        2 0.14891088E+00 0.77375388E+03</pdfrwt>
<pdfrwt beam="2">  1       -2 0.23789896E-01 0.77375388E+03</pdfrwt>
<totfact> 0.41643720E+02</totfact>
</mgrwt>
</event>
<event>
 4    1  0.6148427E-004  0.5663918E+03  0.7818608E-02  0.9977695E-01
         -2   -1    0    0    0  501 -0.00000000000E+00  0.00000000000E+00  0.50081294983E+02  0.50081295048E+02  0.25500000000E-02 0. -1.
          2   -1    0    0  501    0  0.00000000000E+00 -0.00000000000E+00 -0.16013946027E+04  0.16013946027E+04  0.25500000000E-02 0.  1.
    5000001    1    1    2    0    0 -0.27247488487E+03 -0.53221725434E+01 -0.77613692732E+03  0.82618909358E+03  0.77000000000E+02 0.  0.
   -5000001    1    1    2    0    0  0.27247488487E+03  0.53221725434E+01 -0.77517638035E+03  0.82528680412E+03  0.77000000000E+02 0.  0.
<mgrwt>
<rscale>  0 0.56639179E+03</rscale>
<asrwt>0</asrwt>
<pdfrwt beam="1">  1        2 0.24636836E+00 0.56639179E+03</pdfrwt>
<pdfrwt beam="2">  1       -2 0.77048159E-02 0.56639179E+03</pdfrwt>
<totfact> 0.11889923E+03</totfact>
</mgrwt>
</event>
<event>
 4    1  0.6148427E-004  0.1984528E+03  0.7818608E-02  0.1151051E+00
          2   -1    0    0  501    0  0.00000000000E+00  0.00000000000E+00  0.12168304274E+04  0.12168304274E+04  0.25500000000E-02 0.  1.
         -2   -1    0    0    0  501 -0.00000000000E+00 -0.00000000000E+00 -0.80914104558E+01  0.80914108576E+01  0.25500000000E-02 0. -1.
    5000001    1    1    2    0    0  0.38814029214E+02  0.48210024091E+02  0.66165599172E+03  0.66899057292E+03  0.77000000000E+02 0.  0.
   -5000001    1    1    2    0    0 -0.38814029214E+02 -0.48210024091E+02  0.54708302526E+03  0.55593126536E+03  0.77000000000E+02 0.  0.
<mgrwt>
<rscale>  0 0.19845276E+03</rscale>
<asrwt>0</asrwt>
<pdfrwt beam="1">  1        2 0.18720465E+00 0.19845276E+03</pdfrwt>
<pdfrwt beam="2">  1       -2 0.12448326E-02 0.19845276E+03</pdfrwt>
<totfact> 0.29661619E+04</totfact>
</mgrwt>
</event>
<event>
 4    1  0.6148427E-004  0.3005219E+03  0.7818608E-02  0.1084980E+00
          2   -1    0    0  501    0  0.00000000000E+00  0.00000000000E+00  0.29517838926E+04  0.29517838926E+04  0.25500000000E-02 0.  1.
         -2   -1    0    0    0  501 -0.00000000000E+00 -0.00000000000E+00 -0.76490514664E+01  0.76490518915E+01  0.25500000000E-02 0. -1.
    5000001    1    1    2    0    0 -0.10139087059E+03  0.25037454711E+02  0.22183062096E+04  0.22220977526E+04  0.77000000000E+02 0.  0.
   -5000001    1    1    2    0    0  0.10139087059E+03 -0.25037454711E+02  0.72582863154E+03  0.73733519185E+03  0.77000000000E+02 0.  0.
<mgrwt>
<rscale>  0 0.30052186E+03</rscale>
<asrwt>0</asrwt>
<pdfrwt beam="1">  1        2 0.45412089E+00 0.30052186E+03</pdfrwt>
<pdfrwt beam="2">  1       -2 0.11767764E-02 0.30052186E+03</pdfrwt>
<totfact> 0.37352165E+03</totfact>
</mgrwt>
</event>
<event>
 4    1  0.6148427E-004  0.2110497E+03  0.7818608E-02  0.1140737E+00
         -2   -1    0    0    0  501 -0.00000000000E+00  0.00000000000E+00  0.11898181853E+02  0.11898182126E+02  0.25500000000E-02 0. -1.
          2   -1    0    0  501    0  0.00000000000E+00 -0.00000000000E+00 -0.93589891757E+03  0.93589891757E+03  0.25500000000E-02 0.  1.
    5000001    1    1    2    0    0  0.50630179541E+02  0.51365596471E+02 -0.45231000073E+03  0.46445147899E+03  0.77000000000E+02 0.  0.
   -5000001    1    1    2    0    0 -0.50630179541E+02 -0.51365596471E+02 -0.47169073498E+03  0.48334562070E+03  0.77000000000E+02 0.  0.
<mgrwt>
<rscale>  0 0.21104972E+03</rscale>
<asrwt>0</asrwt>
<pdfrwt beam="1">  1        2 0.14398439E+00 0.21104972E+03</pdfrwt>
<pdfrwt beam="2">  1       -2 0.18304903E-02 0.21104972E+03</pdfrwt>
<totfact> 0.24880567E+04</totfact>
</mgrwt>
</event>
<event>
 4    1  0.6148427E-004  0.2818613E+03  0.7818608E-02  0.1094677E+00
          2   -1    0    0  501    0  0.00000000000E+00  0.00000000000E+00  0.18853002484E+03  0.18853002486E+03  0.25500000000E-02 0. -1.
         -2   -1    0    0    0  501 -0.00000000000E+00 -0.00000000000E+00 -0.10534902147E+03  0.10534902150E+03  0.25500000000E-02 0.  1.
    5000001    1    1    2    0    0 -0.39510342743E+02  0.65715276656E+02  0.13515454121E+03  0.17342235952E+03  0.77000000000E+02 0.  0.
   -5000001    1    1    2    0    0  0.39510342743E+02 -0.65715276656E+02 -0.51973537846E+02  0.12045668685E+03  0.77000000000E+02 0.  0.
<mgrwt>
<rscale>  0 0.28186134E+03</rscale>
<asrwt>0</asrwt>
<pdfrwt beam="1">  1        2 0.29004619E-01 0.28186134E+03</pdfrwt>
<pdfrwt beam="2">  1       -2 0.16207542E-01 0.28186134E+03</pdfrwt>
<totfact> 0.54430770E+03</totfact>
</mgrwt>
</event>
<event>
 4    1  0.6148427E-004  0.4454493E+03  0.7818608E-02  0.1029088E+00
         -2   -1    0    0    0  501 -0.00000000000E+00  0.00000000000E+00  0.15907140482E+02  0.15907140687E+02  0.25500000000E-02 0. -1.
          2   -1    0    0  501    0  0.00000000000E+00 -0.00000000000E+00 -0.31184903636E+04  0.31184903636E+04  0.25500000000E-02 0.  1.
    5000001    1    1    2    0    0 -0.20710493503E+03 -0.20076169944E+02 -0.14138083459E+04  0.14311109481E+04  0.77000000000E+02 0.  0.
   -5000001    1    1    2    0    0  0.20710493503E+03  0.20076169944E+02 -0.16887748772E+04  0.17032865563E+04  0.77000000000E+02 0.  0.
<mgrwt>
<rscale>  0 0.44544928E+03</rscale>
<asrwt>0</asrwt>
<pdfrwt beam="1">  1        2 0.47976726E+00 0.44544928E+03</pdfrwt>
<pdfrwt beam="2">  1       -2 0.24472549E-02 0.44544928E+03</pdfrwt>
<totfact> 0.98799065E+02</totfact>
</mgrwt>
</event>
<event>
 4    1  0.6148427E-004  0.2477207E+03  0.7818608E-02  0.1114754E+00
          2   -1    0    0  501    0  0.00000000000E+00  0.00000000000E+00  0.85354068973E+02  0.85354069011E+02  0.25500000000E-02 0.  1.
         -2   -1    0    0    0  501 -0.00000000000E+00 -0.00000000000E+00 -0.17973814434E+03  0.17973814436E+03  0.25500000000E-02 0. -1.
    5000001    1    1    2    0    0  0.60840205085E+02 -0.68599118189E+02 -0.13266991681E+02  0.12046735093E+03  0.77000000000E+02 0.  0.
   -5000001    1    1    2    0    0 -0.60840205085E+02  0.68599118189E+02 -0.81117083687E+02  0.14462486244E+03  0.77000000000E+02 0.  0.
<mgrwt>
<rscale>  0 0.24772067E+03</rscale>
<asrwt>0</asrwt>
<pdfrwt beam="1">  1        2 0.13131395E-01 0.24772067E+03</pdfrwt>
<pdfrwt beam="2">  1       -2 0.27652022E-01 0.24772067E+03</pdfrwt>
<totfact> 0.53604144E+03</totfact>
</mgrwt>
</event>
<event>
 4    1  0.6148427E-004  0.2363568E+03  0.7818608E-02  0.1122244E+00
          2   -1    0    0  501    0  0.00000000000E+00  0.00000000000E+00  0.25018886391E+03  0.25018886392E+03  0.25500000000E-02 0.  1.
         -2   -1    0    0    0  501 -0.00000000000E+00 -0.00000000000E+00 -0.55822383366E+02  0.55822383424E+02  0.25500000000E-02 0. -1.
    5000001    1    1    2    0    0 -0.62638577043E+02 -0.35175911181E+02  0.27748157521E+02  0.10890315104E+03  0.77000000000E+02 0.  0.
   -5000001    1    1    2    0    0  0.62638577043E+02  0.35175911181E+02  0.16661832302E+03  0.19710809630E+03  0.77000000000E+02 0.  0.
<mgrwt>
<rscale>  0 0.23635684E+03</rscale>
<asrwt>0</asrwt>
<pdfrwt beam="1">  1        2 0.38490595E-01 0.23635684E+03</pdfrwt>
<pdfrwt beam="2">  1       -2 0.85880589E-02 0.23635684E+03</pdfrwt>
<totfact> 0.11059004E+04</totfact>
</mgrwt>
</event>
<event>
 4    1  0.6148427E-004  0.1954231E+03  0.7818608E-02  0.1153659E+00
          2   -1    0    0  501    0  0.00000000000E+00  0.00000000000E+00  0.54095824313E+03  0.54095824314E+03  0.25500000000E-02 0.  1.
         -2   -1    0    0    0  501 -0.00000000000E+00 -0.00000000000E+00 -0.17649322633E+02  0.17649322818E+02  0.25500000000E-02 0. -1.
    5000001    1    1    2    0    0  0.21097392196E+02  0.48660634111E+02  0.34278563821E+03  0.35530824791E+03  0.77000000000E+02 0.  0.
   -5000001    1    1    2    0    0 -0.21097392196E+02 -0.48660634111E+02  0.18052328228E+03  0.20329931804E+03  0.77000000000E+02 0.  0.
<mgrwt>
<rscale>  0 0.19542310E+03</rscale>
<asrwt>0</asrwt>
<pdfrwt beam="1">  1        2 0.83224342E-01 0.19542310E+03</pdfrwt>
<pdfrwt beam="2">  1       -2 0.27152805E-02 0.19542310E+03</pdfrwt>
<totfact> 0.27071620E+04</totfact>
</mgrwt>
</event>
<event>
 4    1  0.6148427E-004  0.2026307E+03  0.7818608E-02  0.1147538E+00
         -2   -1    0    0    0  501 -0.00000000000E+00  0.00000000000E+00  0.69206120591E+01  0.69206125289E+01  0.25500000000E-02 0. -1.
          2   -1    0    0  501    0  0.00000000000E+00 -0.00000000000E+00 -0.14832209494E+04  0.14832209494E+04  0.25500000000E-02 0.  1.
    5000001    1    1    2    0    0 -0.30490784391E+02  0.57585409424E+02 -0.80792769339E+03  0.81420017505E+03  0.77000000000E+02 0.  0.
   -5000001    1    1    2    0    0  0.30490784391E+02 -0.57585409424E+02 -0.66837264393E+03  0.67594138686E+03  0.77000000000E+02 0.  0.
<mgrwt>
<rscale>  0 0.20263067E+03</rscale>
<asrwt>0</asrwt>
<pdfrwt beam="1">  1        2 0.22818759E+00 0.20263067E+03</pdfrwt>
<pdfrwt beam="2">  1       -2 0.10647108E-02 0.20263067E+03</pdfrwt>
<totfact> 0.26682539E+04</totfact>
</mgrwt>
</event>
<event>
 4    1  0.6148427E-004  0.2119863E+03  0.7818608E-02  0.1140003E+00
         -2   -1    0    0    0  501 -0.00000000000E+00  0.00000000000E+00  0.41158731265E+02  0.41158731344E+02  0.25500000000E-02 0. -1.
          2   -1    0    0  501    0  0.00000000000E+00 -0.00000000000E+00 -0.27295650119E+03  0.27295650120E+03  0.25500000000E-02 0.  1.
    5000001    1    1    2    0    0  0.63408451635E+02 -0.12243484802E+02 -0.65978161181E+02  0.12021918487E+03  0.77000000000E+02 0.  0.
   -5000001    1    1    2    0    0 -0.63408451635E+02  0.12243484802E+02 -0.16581960875E+03  0.19389604767E+03  0.77000000000E+02 0.  0.
<mgrwt>
<rscale>  0 0.21198626E+03</rscale>
<asrwt>0</asrwt>
<pdfrwt beam="1">  1        2 0.41993307E-01 0.21198626E+03</pdfrwt>
<pdfrwt beam="2">  1       -2 0.63321127E-02 0.21198626E+03</pdfrwt>
<totfact> 0.16042718E+04</totfact>
</mgrwt>
</event>
<event>
 4    1  0.6148427E-004  0.1689987E+03  0.7818608E-02  0.1178896E+00
         -2   -1    0    0    0  501 -0.00000000000E+00  0.00000000000E+00  0.53988429034E+02  0.53988429094E+02  0.25500000000E-02 0. -1.
          2   -1    0    0  501    0  0.00000000000E+00 -0.00000000000E+00 -0.13225310413E+03  0.13225310415E+03  0.25500000000E-02 0.  1.
    5000001    1    1    2    0    0 -0.23526695780E+02  0.15385795785E+02 -0.16523018953E+02  0.83619604649E+02  0.77000000000E+02 0.  0.
   -5000001    1    1    2    0    0  0.23526695780E+02 -0.15385795785E+02 -0.61741656142E+02  0.10262192860E+03  0.77000000000E+02 0.  0.
<mgrwt>
<rscale>  0 0.16899867E+03</rscale>
<asrwt>0</asrwt>
<pdfrwt beam="1">  1        2 0.20346631E-01 0.16899867E+03</pdfrwt>
<pdfrwt beam="2">  1       -2 0.83059122E-02 0.16899867E+03</pdfrwt>
<totfact> 0.22949676E+04</totfact>
</mgrwt>
</event>
<event>
 4    1  0.6148427E-004  0.2582549E+03  0.7818608E-02  0.1108196E+00
         -2   -1    0    0    0  501 -0.00000000000E+00  0.00000000000E+00  0.11467537693E+02  0.11467537977E+02  0.25500000000E-02 0. -1.
          2   -1    0    0  501    0  0.00000000000E+00 -0.00000000000E+00 -0.14540089633E+04  0.14540089633E+04  0.25500000000E-02 0.  1.
    5000001    1    1    2    0    0  0.78754352457E+02 -0.64441746875E+02 -0.83332172292E+03  0.84303563428E+03  0.77000000000E+02 0.  0.
   -5000001    1    1    2    0    0 -0.78754352457E+02  0.64441746875E+02 -0.60921970265E+03  0.62244086696E+03  0.77000000000E+02 0.  0.
<mgrwt>
<rscale>  0 0.25825493E+03</rscale>
<asrwt>0</asrwt>
<pdfrwt beam="1">  1        2 0.22369354E+00 0.25825493E+03</pdfrwt>
<pdfrwt beam="2">  1       -2 0.17642377E-02 0.25825493E+03</pdfrwt>
<totfact> 0.13401840E+04</totfact>
</mgrwt>
</event>
<event>
 4    1  0.6148427E-004  0.1881752E+03  0.7818608E-02  0.1160118E+00
         -2   -1    0    0    0  501 -0.00000000000E+00  0.00000000000E+00  0.34746619561E+03  0.34746619562E+03  0.25500000000E-02 0. -1.
          2   -1    0    0  501    0  0.00000000000E+00 -0.00000000000E+00 -0.25477240946E+02  0.25477241073E+02  0.25500000000E-02 0.  1.
    5000001    1    1    2    0    0 -0.12947708314E+01 -0.53406525035E+02  0.17752241423E+03  0.20074147778E+03  0.77000000000E+02 0.  0.
   -5000001    1    1    2    0    0  0.12947708314E+01  0.53406525035E+02  0.14446654044E+03  0.17220195891E+03  0.77000000000E+02 0.  0.
<mgrwt>
<rscale>  0 0.18817524E+03</rscale>
<asrwt>0</asrwt>
<pdfrwt beam="1">  1        2 0.39195760E-02 0.18817524E+03</pdfrwt>
<pdfrwt beam="2">  1       -2 0.53456332E-01 0.18817524E+03</pdfrwt>
<totfact> 0.70799862E+03</totfact>
</mgrwt>
</event>
<event>
 4    1  0.6148427E-004  0.2007423E+03  0.7818608E-02  0.1149114E+00
         -2   -1    0    0    0  501 -0.00000000000E+00  0.00000000000E+00  0.11017341931E+02  0.11017342226E+02  0.25500000000E-02 0. -1.
          2   -1    0    0  501    0  0.00000000000E+00 -0.00000000000E+00 -0.91441032041E+03  0.91441032042E+03  0.25500000000E-02 0.  1.
    5000001    1    1    2    0    0  0.64088121022E+02  0.61090298573E+01 -0.44766752160E+03  0.45878079450E+03  0.77000000000E+02 0.  0.
   -5000001    1    1    2    0    0 -0.64088121022E+02 -0.61090298573E+01 -0.45572545688E+03  0.46664686814E+03  0.77000000000E+02 0.  0.
<mgrwt>
<rscale>  0 0.20074234E+03</rscale>
<asrwt>0</asrwt>
<pdfrwt beam="1">  1        2 0.14067845E+00 0.20074234E+03</pdfrwt>
<pdfrwt beam="2">  1       -2 0.16949764E-02 0.20074234E+03</pdfrwt>
<totfact> 0.28625245E+04</totfact>
</mgrwt>
</event>
<event>
 4    1  0.6148427E-004  0.2367280E+03  0.7818608E-02  0.1121992E+00
         -2   -1    0    0    0  501 -0.00000000000E+00  0.00000000000E+00  0.44669135016E+02  0.44669135089E+02  0.25500000000E-02 0. -1.
          2   -1    0    0  501    0  0.00000000000E+00 -0.00000000000E+00 -0.31364014342E+03  0.31364014343E+03  0.25500000000E-02 0.  1.
    5000001    1    1    2    0    0  0.65993933079E+02 -0.11027595081E+02 -0.22535424824E+03  0.24736682125E+03  0.77000000000E+02 0.  0.
   -5000001    1    1    2    0    0 -0.65993933079E+02  0.11027595081E+02 -0.43616760159E+02  0.11094245726E+03  0.77000000000E+02 0.  0.
<mgrwt>
<rscale>  0 0.23672798E+03</rscale>
<asrwt>0</asrwt>
<pdfrwt beam="1">  1        2 0.48252328E-01 0.23672798E+03</pdfrwt>
<pdfrwt beam="2">  1       -2 0.68721748E-02 0.23672798E+03</pdfrwt>
<totfact> 0.12270505E+04</totfact>
</mgrwt>
</event>
<event>
 4    1  0.6148427E-004  0.1959535E+03  0.7818608E-02  0.1153199E+00
         -2   -1    0    0    0  501 -0.00000000000E+00  0.00000000000E+00  0.31137122496E+02  0.31137122600E+02  0.25500000000E-02 0. -1.
          2   -1    0    0  501    0  0.00000000000E+00 -0.00000000000E+00 -0.30829572099E+03  0.30829572100E+03  0.25500000000E-02 0.  1.
    5000001    1    1    2    0    0  0.37304807071E+02  0.37495698051E+02 -0.87402327902E+02  0.12792866342E+03  0.77000000000E+02 0.  0.
   -5000001    1    1    2    0    0 -0.37304807071E+02 -0.37495698051E+02 -0.18975627059E+03  0.21150418017E+03  0.77000000000E+02 0.  0.
<mgrwt>
<rscale>  0 0.19595348E+03</rscale>
<asrwt>0</asrwt>
<pdfrwt beam="1">  1        2 0.47430109E-01 0.19595348E+03</pdfrwt>
<pdfrwt beam="2">  1       -2 0.47903268E-02 0.19595348E+03</pdfrwt>
<totfact> 0.21406236E+04</totfact>
</mgrwt>
</event>
<event>
 4    1  0.6148427E-004  0.2151309E+03  0.7818608E-02  0.1137566E+00
          2   -1    0    0  501    0  0.00000000000E+00  0.00000000000E+00  0.20478030787E+03  0.20478030789E+03  0.25500000000E-02 0.  1.
         -2   -1    0    0    0  501 -0.00000000000E+00 -0.00000000000E+00 -0.56501141925E+02  0.56501141983E+02  0.25500000000E-02 0. -1.
    5000001    1    1    2    0    0 -0.45569388767E+02 -0.34262861882E+02  0.14754378639E+02  0.96939179829E+02  0.77000000000E+02 0.  0.
   -5000001    1    1    2    0    0  0.45569388767E+02  0.34262861882E+02  0.13352478731E+03  0.16434227004E+03  0.77000000000E+02 0.  0.
<mgrwt>
<rscale>  0 0.21513086E+03</rscale>
<asrwt>0</asrwt>
<pdfrwt beam="1">  1        2 0.31504663E-01 0.21513086E+03</pdfrwt>
<pdfrwt beam="2">  1       -2 0.86924832E-02 0.21513086E+03</pdfrwt>
<totfact> 0.13405061E+04</totfact>
</mgrwt>
</event>
<event>
 4    1  0.6148427E-004  0.2296458E+03  0.7818608E-02  0.1126889E+00
         -2   -1    0    0    0  501 -0.00000000000E+00  0.00000000000E+00  0.14251780219E+02  0.14251780447E+02  0.25500000000E-02 0. -1.
          2   -1    0    0  501    0  0.00000000000E+00 -0.00000000000E+00 -0.92509833322E+03  0.92509833322E+03  0.25500000000E-02 0.  1.
    5000001    1    1    2    0    0  0.83968333700E+02  0.23371931010E+01 -0.51314831967E+03  0.52564849616E+03  0.77000000000E+02 0.  0.
   -5000001    1    1    2    0    0 -0.83968333700E+02 -0.23371931010E+01 -0.39769823333E+03  0.41370161751E+03  0.77000000000E+02 0.  0.
<mgrwt>
<rscale>  0 0.22964580E+03</rscale>
<asrwt>0</asrwt>
<pdfrwt beam="1">  1        2 0.14232277E+00 0.22964580E+03</pdfrwt>
<pdfrwt beam="2">  1       -2 0.21925823E-02 0.22964580E+03</pdfrwt>
<totfact> 0.19494370E+04</totfact>
</mgrwt>
</event>
<event>
 4    1  0.6148427E-004  0.3326336E+03  0.7818608E-02  0.1069977E+00
          2   -1    0    0  501    0  0.00000000000E+00  0.00000000000E+00  0.11200949390E+03  0.11200949393E+03  0.25500000000E-02 0. -1.
         -2   -1    0    0    0  501 -0.00000000000E+00 -0.00000000000E+00 -0.24695476942E+03  0.24695476943E+03  0.25500000000E-02 0.  1.
    5000001    1    1    2    0    0  0.14150700806E+03  0.37715777767E+02 -0.49236285246E+02  0.17262654781E+03  0.77000000000E+02 0.  0.
   -5000001    1    1    2    0    0 -0.14150700806E+03 -0.37715777767E+02 -0.85708990272E+02  0.18633771555E+03  0.77000000000E+02 0.  0.
<mgrwt>
<rscale>  0 0.33263360E+03</rscale>
<asrwt>0</asrwt>
<pdfrwt beam="1">  1        2 0.17232230E-01 0.33263360E+03</pdfrwt>
<pdfrwt beam="2">  1       -2 0.37993041E-01 0.33263360E+03</pdfrwt>
<totfact> 0.21805828E+03</totfact>
</mgrwt>
</event>
<event>
 4    1  0.6148427E-004  0.1889212E+03  0.7818608E-02  0.1159438E+00
          2   -1    0    0  501    0  0.00000000000E+00  0.00000000000E+00  0.44947804545E+03  0.44947804546E+03  0.25500000000E-02 0.  1.
         -2   -1    0    0    0  501 -0.00000000000E+00 -0.00000000000E+00 -0.19851478025E+02  0.19851478189E+02  0.25500000000E-02 0. -1.
    5000001    1    1    2    0    0  0.12309752697E+02 -0.39966847854E+02  0.12715988816E+03  0.15442640997E+03  0.77000000000E+02 0.  0.
   -5000001    1    1    2    0    0 -0.12309752697E+02  0.39966847854E+02  0.30246667926E+03  0.31490311368E+03  0.77000000000E+02 0.  0.
<mgrwt>
<rscale>  0 0.18892119E+03</rscale>
<asrwt>0</asrwt>
<pdfrwt beam="1">  1        2 0.69150458E-01 0.18892119E+03</pdfrwt>
<pdfrwt beam="2">  1       -2 0.30540740E-02 0.18892119E+03</pdfrwt>
<totfact> 0.27861707E+04</totfact>
</mgrwt>
</event>
<event>
 4    1  0.6148427E-004  0.3064644E+03  0.7818608E-02  0.1082053E+00
          2   -1    0    0  501    0  0.00000000000E+00  0.00000000000E+00  0.67965188875E+03  0.67965188875E+03  0.25500000000E-02 0.  1.
         -2   -1    0    0    0  501 -0.00000000000E+00 -0.00000000000E+00 -0.34547249502E+02  0.34547249597E+02  0.25500000000E-02 0. -1.
    5000001    1    1    2    0    0 -0.54595019810E+02 -0.11924409499E+03  0.36623394763E+03  0.39655526068E+03  0.77000000000E+02 0.  0.
   -5000001    1    1    2    0    0  0.54595019810E+02  0.11924409499E+03  0.27887069161E+03  0.31764387767E+03  0.77000000000E+02 0.  0.
<mgrwt>
<rscale>  0 0.30646438E+03</rscale>
<asrwt>0</asrwt>
<pdfrwt beam="1">  1        2 0.10456182E+00 0.30646438E+03</pdfrwt>
<pdfrwt beam="2">  1       -2 0.53149622E-02 0.30646438E+03</pdfrwt>
<totfact> 0.77577216E+03</totfact>
</mgrwt>
</event>
<event>
 4    1  0.6148427E-004  0.1569460E+03  0.7818608E-02  0.1192188E+00
         -2   -1    0    0    0  501 -0.00000000000E+00  0.00000000000E+00  0.11312469312E+02  0.11312469600E+02  0.25500000000E-02 0. -1.
          2   -1    0    0  501    0  0.00000000000E+00 -0.00000000000E+00 -0.54435621072E+03  0.54435621073E+03  0.25500000000E-02 0.  1.
    5000001    1    1    2    0    0 -0.62488254465E-01 -0.67022205758E+01 -0.21848442040E+03  0.23175281147E+03  0.77000000000E+02 0.  0.
   -5000001    1    1    2    0    0  0.62488254465E-01  0.67022205758E+01 -0.31455932100E+03  0.32391586886E+03  0.77000000000E+02 0.  0.
<mgrwt>
<rscale>  0 0.15694602E+03</rscale>
<asrwt>0</asrwt>
<pdfrwt beam="1">  1        2 0.83747089E-01 0.15694602E+03</pdfrwt>
<pdfrwt beam="2">  1       -2 0.17403803E-02 0.15694602E+03</pdfrwt>
<totfact> 0.50522695E+04</totfact>
</mgrwt>
</event>
<event>
 4    1  0.6148427E-004  0.4368622E+03  0.7818608E-02  0.1031714E+00
         -2   -1    0    0    0  501 -0.00000000000E+00  0.00000000000E+00  0.13133858715E+03  0.13133858718E+03  0.25500000000E-02 0. -1.
          2   -1    0    0  501    0  0.00000000000E+00 -0.00000000000E+00 -0.36327587677E+03  0.36327587678E+03  0.25500000000E-02 0.  1.
    5000001    1    1    2    0    0 -0.77426837991E+02 -0.18528141436E+03 -0.15921538581E+03  0.26758672767E+03  0.77000000000E+02 0.  0.
   -5000001    1    1    2    0    0  0.77426837991E+02  0.18528141436E+03 -0.72721903813E+02  0.22702773629E+03  0.77000000000E+02 0.  0.
<mgrwt>
<rscale>  0 0.43686218E+03</rscale>
<asrwt>0</asrwt>
<pdfrwt beam="1">  1        2 0.55888596E-01 0.43686218E+03</pdfrwt>
<pdfrwt beam="2">  1       -2 0.20205937E-01 0.43686218E+03</pdfrwt>
<totfact> 0.18447755E+03</totfact>
</mgrwt>
</event>
<event>
 4    1  0.6148427E-004  0.1886788E+03  0.7818608E-02  0.1159658E+00
         -2   -1    0    0    0  501 -0.00000000000E+00  0.00000000000E+00  0.42941101763E+03  0.42941101763E+03  0.25500000000E-02 0. -1.
          2   -1    0    0  501    0  0.00000000000E+00 -0.00000000000E+00 -0.20725881045E+02  0.20725881202E+02  0.25500000000E-02 0.  1.
    5000001    1    1    2    0    0 -0.23332827811E+02 -0.44785210744E+02  0.15540391218E+03  0.18063640794E+03  0.77000000000E+02 0.  0.
   -5000001    1    1    2    0    0  0.23332827811E+02  0.44785210744E+02  0.25328122441E+03  0.26950049089E+03  0.77000000000E+02 0.  0.
<mgrwt>
<rscale>  0 0.18867879E+03</rscale>
<asrwt>0</asrwt>
<pdfrwt beam="1">  1        2 0.31885972E-02 0.18867879E+03</pdfrwt>
<pdfrwt beam="2">  1       -2 0.66063232E-01 0.18867879E+03</pdfrwt>
<totfact> 0.60407028E+03</totfact>
</mgrwt>
</event>
<event>
 4    1  0.6148427E-004  0.2476488E+03  0.7818608E-02  0.1114800E+00
          2   -1    0    0  501    0  0.00000000000E+00  0.00000000000E+00  0.49252874374E+03  0.49252874374E+03  0.25500000000E-02 0.  1.
         -2   -1    0    0    0  501 -0.00000000000E+00 -0.00000000000E+00 -0.31130120276E+02  0.31130120381E+02  0.25500000000E-02 0. -1.
    5000001    1    1    2    0    0 -0.82981360355E+02 -0.12519725356E+02  0.33344049742E+03  0.35235523979E+03  0.77000000000E+02 0.  0.
   -5000001    1    1    2    0    0  0.82981360355E+02  0.12519725356E+02  0.12795812604E+03  0.17130362433E+03  0.77000000000E+02 0.  0.
<mgrwt>
<rscale>  0 0.24764878E+03</rscale>
<asrwt>0</asrwt>
<pdfrwt beam="1">  1        2 0.75773655E-01 0.24764878E+03</pdfrwt>
<pdfrwt beam="2">  1       -2 0.47892492E-02 0.24764878E+03</pdfrwt>
<totfact> 0.13077423E+04</totfact>
</mgrwt>
</event>
<event>
 4    1  0.6148427E-004  0.3977688E+03  0.7818608E-02  0.1044555E+00
          2   -1    0    0  501    0  0.00000000000E+00  0.00000000000E+00  0.23336548484E+04  0.23336548484E+04  0.25500000000E-02 0.  1.
         -2   -1    0    0    0  501 -0.00000000000E+00 -0.00000000000E+00 -0.16949805730E+02  0.16949805922E+02  0.25500000000E-02 0. -1.
    5000001    1    1    2    0    0 -0.13304066107E+03 -0.57582491855E+02  0.18219641174E+04  0.18293435451E+04  0.77000000000E+02 0.  0.
   -5000001    1    1    2    0    0  0.13304066107E+03  0.57582491855E+02  0.49474092532E+03  0.52126110928E+03  0.77000000000E+02 0.  0.
<mgrwt>
<rscale>  0 0.39776876E+03</rscale>
<asrwt>0</asrwt>
<pdfrwt beam="1">  1        2 0.35902381E+00 0.39776876E+03</pdfrwt>
<pdfrwt beam="2">  1       -2 0.26076625E-02 0.39776876E+03</pdfrwt>
<totfact> 0.25561011E+03</totfact>
</mgrwt>
</event>
<event>
 4    1  0.6148427E-004  0.2172699E+03  0.7818608E-02  0.1135935E+00
         -2   -1    0    0    0  501 -0.00000000000E+00  0.00000000000E+00  0.10082740700E+02  0.10082741023E+02  0.25500000000E-02 0. -1.
          2   -1    0    0  501    0  0.00000000000E+00 -0.00000000000E+00 -0.11704710391E+04  0.11704710391E+04  0.25500000000E-02 0.  1.
    5000001    1    1    2    0    0  0.57315874644E+02  0.50635022470E+02 -0.55383081443E+03  0.56436387730E+03  0.77000000000E+02 0.  0.
   -5000001    1    1    2    0    0 -0.57315874644E+02 -0.50635022470E+02 -0.60655748399E+03  0.61618990285E+03  0.77000000000E+02 0.  0.
<mgrwt>
<rscale>  0 0.21726994E+03</rscale>
<asrwt>0</asrwt>
<pdfrwt beam="1">  1        2 0.18007236E+00 0.21726994E+03</pdfrwt>
<pdfrwt beam="2">  1       -2 0.15511918E-02 0.21726994E+03</pdfrwt>
<totfact> 0.23008453E+04</totfact>
</mgrwt>
</event>
<event>
 4    1  0.6148427E-004  0.4075563E+03  0.7818608E-02  0.1041194E+00
          2   -1    0    0  501    0  0.00000000000E+00  0.00000000000E+00  0.10763082164E+04  0.10763082164E+04  0.25500000000E-02 0.  1.
         -2   -1    0    0    0  501 -0.00000000000E+00 -0.00000000000E+00 -0.38581456617E+02  0.38581456701E+02  0.25500000000E-02 0. -1.
    5000001    1    1    2    0    0  0.11692244084E+03 -0.12948150001E+03  0.32235617186E+03  0.37453813899E+03  0.77000000000E+02 0.  0.
   -5000001    1    1    2    0    0 -0.11692244084E+03  0.12948150001E+03  0.71537058794E+03  0.74035153414E+03  0.77000000000E+02 0.  0.
<mgrwt>
<rscale>  0 0.40755632E+03</rscale>
<asrwt>0</asrwt>
<pdfrwt beam="1">  1        2 0.16558587E+00 0.40755632E+03</pdfrwt>
<pdfrwt beam="2">  1       -2 0.59356090E-02 0.40755632E+03</pdfrwt>
<totfact> 0.35643333E+03</totfact>
</mgrwt>
</event>
<event>
 4    1  0.6148427E-004  0.3800831E+03  0.7818608E-02  0.1050903E+00
          2   -1    0    0  501    0  0.00000000000E+00  0.00000000000E+00  0.78214099159E+03  0.78214099160E+03  0.25500000000E-02 0.  1.
         -2   -1    0    0    0  501 -0.00000000000E+00 -0.00000000000E+00 -0.46175539585E+02  0.46175539655E+02  0.25500000000E-02 0. -1.
    5000001    1    1    2    0    0  0.17037618184E+03  0.15414065743E+02  0.43412543186E+03  0.47292655598E+03  0.77000000000E+02 0.  0.
   -5000001    1    1    2    0    0 -0.17037618184E+03 -0.15414065743E+02  0.30184002014E+03  0.35538997527E+03  0.77000000000E+02 0.  0.
<mgrwt>
<rscale>  0 0.38008306E+03</rscale>
<asrwt>0</asrwt>
<pdfrwt beam="1">  1        2 0.12032937E+00 0.38008306E+03</pdfrwt>
<pdfrwt beam="2">  1       -2 0.71039299E-02 0.38008306E+03</pdfrwt>
<totfact> 0.41795556E+03</totfact>
</mgrwt>
</event>
<event>
 4    1  0.6148427E-004  0.2739111E+03  0.7818608E-02  0.1099062E+00
         -2   -1    0    0    0  501 -0.00000000000E+00  0.00000000000E+00  0.10032827473E+03  0.10032827476E+03  0.25500000000E-02 0. -1.
          2   -1    0    0  501    0  0.00000000000E+00 -0.00000000000E+00 -0.18695445327E+03  0.18695445329E+03  0.25500000000E-02 0.  1.
    5000001    1    1    2    0    0  0.65719752592E+02  0.91226510069E+02 -0.28991612039E+02  0.13932291839E+03  0.77000000000E+02 0.  0.
   -5000001    1    1    2    0    0 -0.65719752592E+02 -0.91226510069E+02 -0.57634566501E+02  0.14795980966E+03  0.77000000000E+02 0.  0.
<mgrwt>
<rscale>  0 0.27391106E+03</rscale>
<asrwt>0</asrwt>
<pdfrwt beam="1">  1        2 0.28762224E-01 0.27391106E+03</pdfrwt>
<pdfrwt beam="2">  1       -2 0.15435119E-01 0.27391106E+03</pdfrwt>
<totfact> 0.59520946E+03</totfact>
</mgrwt>
</event>
<event>
 4    1  0.6148427E-004  0.1765487E+03  0.7818608E-02  0.1171186E+00
         -2   -1    0    0    0  501 -0.00000000000E+00  0.00000000000E+00  0.35316667159E+01  0.35316676365E+01  0.25500000000E-02 0. -1.
          2   -1    0    0  501    0  0.00000000000E+00 -0.00000000000E+00 -0.22064249166E+04  0.22064249166E+04  0.25500000000E-02 0.  1.
    5000001    1    1    2    0    0 -0.25095806138E+02 -0.25164380585E+02 -0.79475061154E+03  0.79926252263E+03  0.77000000000E+02 0.  0.
   -5000001    1    1    2    0    0  0.25095806138E+02  0.25164380585E+02 -0.14081426383E+04  0.14106940616E+04  0.77000000000E+02 0.  0.
<mgrwt>
<rscale>  0 0.17654867E+03</rscale>
<asrwt>0</asrwt>
<pdfrwt beam="1">  1        2 0.33944889E+00 0.17654867E+03</pdfrwt>
<pdfrwt beam="2">  1       -2 0.54333517E-03 0.17654867E+03</pdfrwt>
<totfact> 0.29232490E+04</totfact>
</mgrwt>
</event>
<event>
 4    1  0.6148427E-004  0.1760536E+03  0.7818608E-02  0.1171678E+00
          2   -1    0    0  501    0  0.00000000000E+00  0.00000000000E+00  0.29513083438E+03  0.29513083439E+03  0.25500000000E-02 0.  1.
         -2   -1    0    0    0  501 -0.00000000000E+00 -0.00000000000E+00 -0.26255205138E+02  0.26255205262E+02  0.25500000000E-02 0. -1.
    5000001    1    1    2    0    0 -0.33575373600E+02 -0.17774441398E+02  0.99017260208E+02  0.13105973561E+03  0.77000000000E+02 0.  0.
   -5000001    1    1    2    0    0  0.33575373600E+02  0.17774441398E+02  0.16985836903E+03  0.19032630404E+03  0.77000000000E+02 0.  0.
<mgrwt>
<rscale>  0 0.17605364E+03</rscale>
<asrwt>0</asrwt>
<pdfrwt beam="1">  1        2 0.45404745E-01 0.17605364E+03</pdfrwt>
<pdfrwt beam="2">  1       -2 0.40392622E-02 0.17605364E+03</pdfrwt>
<totfact> 0.28713214E+04</totfact>
</mgrwt>
</event>
<event>
 4    1  0.6148427E-004  0.2900087E+03  0.7818608E-02  0.1090345E+00
          2   -1    0    0  501    0  0.00000000000E+00  0.00000000000E+00  0.11627259948E+03  0.11627259951E+03  0.25500000000E-02 0.  1.
         -2   -1    0    0    0  501 -0.00000000000E+00 -0.00000000000E+00 -0.18083589112E+03  0.18083589114E+03  0.25500000000E-02 0. -1.
    5000001    1    1    2    0    0  0.10857202800E+03  0.11930935112E+02  0.25372417595E+02  0.13602570364E+03  0.77000000000E+02 0.  0.
   -5000001    1    1    2    0    0 -0.10857202800E+03 -0.11930935112E+02 -0.89935709236E+02  0.16108278701E+03  0.77000000000E+02 0.  0.
<mgrwt>
<rscale>  0 0.29000868E+03</rscale>
<asrwt>0</asrwt>
<pdfrwt beam="1">  1        2 0.17888092E-01 0.29000868E+03</pdfrwt>
<pdfrwt beam="2">  1       -2 0.27820906E-01 0.29000868E+03</pdfrwt>
<totfact> 0.36993901E+03</totfact>
</mgrwt>
</event>
<event>
 4    1  0.6148427E-004  0.5337595E+03  0.7818608E-02  0.1005324E+00
         -2   -1    0    0    0  501 -0.00000000000E+00  0.00000000000E+00  0.65464548501E+02  0.65464548550E+02  0.25500000000E-02 0. -1.
          2   -1    0    0  501    0  0.00000000000E+00 -0.00000000000E+00 -0.10879903830E+04  0.10879903830E+04  0.25500000000E-02 0.  1.
    5000001    1    1    2    0    0  0.19037798611E+03  0.12724308439E+03 -0.75633626657E+03  0.79398244832E+03  0.77000000000E+02 0.  0.
   -5000001    1    1    2    0    0 -0.19037798611E+03 -0.12724308439E+03 -0.26618956791E+03  0.35947248320E+03  0.77000000000E+02 0.  0.
<mgrwt>
<rscale>  0 0.53375949E+03</rscale>
<asrwt>0</asrwt>
<pdfrwt beam="1">  1        2 0.16738312E+00 0.53375949E+03</pdfrwt>
<pdfrwt beam="2">  1       -2 0.10071470E-01 0.53375949E+03</pdfrwt>
<totfact> 0.15174839E+03</totfact>
</mgrwt>
</event>
<event>
 4    1  0.6148427E-004  0.3224209E+03  0.7818608E-02  0.1074541E+00
          2   -1    0    0  501    0  0.00000000000E+00  0.00000000000E+00  0.78613548359E+03  0.78613548359E+03  0.25500000000E-02 0.  1.
         -2   -1    0    0    0  501 -0.00000000000E+00 -0.00000000000E+00 -0.33058941296E+02  0.33058941395E+02  0.25500000000E-02 0. -1.
    5000001    1    1    2    0    0  0.55622926194E+01  0.10135588263E+03  0.62749361108E+03  0.64029773230E+03  0.77000000000E+02 0.  0.
   -5000001    1    1    2    0    0 -0.55622926194E+01 -0.10135588263E+03  0.12558293121E+03  0.17889669269E+03  0.77000000000E+02 0.  0.
<mgrwt>
<rscale>  0 0.32242089E+03</rscale>
<asrwt>0</asrwt>
<pdfrwt beam="1">  1        2 0.12094391E+00 0.32242089E+03</pdfrwt>
<pdfrwt beam="2">  1       -2 0.50859914E-02 0.32242089E+03</pdfrwt>
<totfact> 0.69379218E+03</totfact>
</mgrwt>
</event>
<event>
 4    1  0.6148427E-004  0.1876635E+03  0.7818608E-02  0.1160586E+00
         -2   -1    0    0    0  501 -0.00000000000E+00  0.00000000000E+00  0.14871659816E+02  0.14871660035E+02  0.25500000000E-02 0. -1.
          2   -1    0    0  501    0  0.00000000000E+00 -0.00000000000E+00 -0.59202509679E+03  0.59202509679E+03  0.25500000000E-02 0.  1.
    5000001    1    1    2    0    0 -0.12113139017E+02 -0.48337990171E+02 -0.22453882332E+03  0.24254890766E+03  0.77000000000E+02 0.  0.
   -5000001    1    1    2    0    0  0.12113139017E+02  0.48337990171E+02 -0.35261461365E+03  0.36434784916E+03  0.77000000000E+02 0.  0.
<mgrwt>
<rscale>  0 0.18766349E+03</rscale>
<asrwt>0</asrwt>
<pdfrwt beam="1">  1        2 0.91080766E-01 0.18766349E+03</pdfrwt>
<pdfrwt beam="2">  1       -2 0.22879481E-02 0.18766349E+03</pdfrwt>
<totfact> 0.31333915E+04</totfact>
</mgrwt>
</event>
<event>
 4    1  0.6148427E-004  0.2984779E+03  0.7818608E-02  0.1086004E+00
         -2   -1    0    0    0  501 -0.00000000000E+00  0.00000000000E+00  0.16001664816E+02  0.16001665019E+02  0.25500000000E-02 0. -1.
          2   -1    0    0  501    0  0.00000000000E+00 -0.00000000000E+00 -0.13918719196E+04  0.13918719196E+04  0.25500000000E-02 0.  1.
    5000001    1    1    2    0    0 -0.42526373788E+02 -0.12039064042E+03 -0.71808948202E+03  0.73340568784E+03  0.77000000000E+02 0.  0.
   -5000001    1    1    2    0    0  0.42526373788E+02  0.12039064042E+03 -0.65778077272E+03  0.67446789674E+03  0.77000000000E+02 0.  0.
<mgrwt>
<rscale>  0 0.29847793E+03</rscale>
<asrwt>0</asrwt>
<pdfrwt beam="1">  1        2 0.21413405E+00 0.29847793E+03</pdfrwt>
<pdfrwt beam="2">  1       -2 0.24617957E-02 0.29847793E+03</pdfrwt>
<totfact> 0.88917880E+03</totfact>
</mgrwt>
</event>
<event>
 4    1  0.6148427E-004  0.3470067E+03  0.7818608E-02  0.1063850E+00
          2   -1    0    0  501    0  0.00000000000E+00  0.00000000000E+00  0.18990146779E+03  0.18990146781E+03  0.25500000000E-02 0.  1.
         -2   -1    0    0    0  501 -0.00000000000E+00 -0.00000000000E+00 -0.15852123272E+03  0.15852123274E+03  0.25500000000E-02 0. -1.
    5000001    1    1    2    0    0 -0.49561554449E+02  0.60956668747E+02  0.15041046237E+03  0.18634476203E+03  0.77000000000E+02 0.  0.
   -5000001    1    1    2    0    0  0.49561554449E+02 -0.60956668747E+02 -0.11903022730E+03  0.16207793852E+03  0.77000000000E+02 0.  0.
<mgrwt>
<rscale>  0 0.34700671E+03</rscale>
<asrwt>0</asrwt>
<pdfrwt beam="1">  1        2 0.29215611E-01 0.34700671E+03</pdfrwt>
<pdfrwt beam="2">  1       -2 0.24387882E-01 0.34700671E+03</pdfrwt>
<totfact> 0.26934123E+03</totfact>
</mgrwt>
</event>
<event>
 4    1  0.6148427E-004  0.2510504E+03  0.7818608E-02  0.1112643E+00
          2   -1    0    0  501    0  0.00000000000E+00  0.00000000000E+00  0.24984968657E+04  0.24984968657E+04  0.25500000000E-02 0.  1.
         -2   -1    0    0    0  501 -0.00000000000E+00 -0.00000000000E+00 -0.63064235357E+01  0.63064240512E+01  0.25500000000E-02 0. -1.
    5000001    1    1    2    0    0  0.22065147735E+02  0.70198178492E+02  0.58330525391E+03  0.59294913294E+03  0.77000000000E+02 0.  0.
   -5000001    1    1    2    0    0 -0.22065147735E+02 -0.70198178492E+02  0.19088851883E+04  0.19118541569E+04  0.77000000000E+02 0.  0.
<mgrwt>
<rscale>  0 0.25105043E+03</rscale>
<asrwt>0</asrwt>
<pdfrwt beam="1">  1        2 0.38438428E+00 0.25105043E+03</pdfrwt>
<pdfrwt beam="2">  1       -2 0.97021867E-03 0.25105043E+03</pdfrwt>
<totfact> 0.89477342E+03</totfact>
</mgrwt>
</event>
<event>
 4    1  0.6148427E-004  0.3110380E+03  0.7818608E-02  0.1079849E+00
         -2   -1    0    0    0  501 -0.00000000000E+00  0.00000000000E+00  0.19742911424E+02  0.19742911588E+02  0.25500000000E-02 0. -1.
          2   -1    0    0  501    0  0.00000000000E+00 -0.00000000000E+00 -0.12250549597E+04  0.12250549597E+04  0.25500000000E-02 0.  1.
    5000001    1    1    2    0    0  0.28042373498E+02 -0.12911001616E+03 -0.71594949677E+03  0.73209866338E+03  0.77000000000E+02 0.  0.
   -5000001    1    1    2    0    0 -0.28042373498E+02  0.12911001616E+03 -0.48936255152E+03  0.51269920794E+03  0.77000000000E+02 0.  0.
<mgrwt>
<rscale>  0 0.31103795E+03</rscale>
<asrwt>0</asrwt>
<pdfrwt beam="1">  1        2 0.18846993E+00 0.31103795E+03</pdfrwt>
<pdfrwt beam="2">  1       -2 0.30373720E-02 0.31103795E+03</pdfrwt>
<totfact> 0.80571845E+03</totfact>
</mgrwt>
</event>
<event>
 4    1  0.6148427E-004  0.3279295E+03  0.7818608E-02  0.1072057E+00
          2   -1    0    0  501    0  0.00000000000E+00  0.00000000000E+00  0.65132656317E+03  0.65132656317E+03  0.25500000000E-02 0.  1.
         -2   -1    0    0    0  501 -0.00000000000E+00 -0.00000000000E+00 -0.41276431026E+02  0.41276431105E+02  0.25500000000E-02 0. -1.
    5000001    1    1    2    0    0  0.50277705860E+02 -0.10402235413E+03  0.48923321822E+03  0.50855347769E+03  0.77000000000E+02 0.  0.
   -5000001    1    1    2    0    0 -0.50277705860E+02  0.10402235413E+03  0.12081691392E+03  0.18404951658E+03  0.77000000000E+02 0.  0.
<mgrwt>
<rscale>  0 0.32792948E+03</rscale>
<asrwt>0</asrwt>
<pdfrwt beam="1">  1        2 0.10020408E+00 0.32792948E+03</pdfrwt>
<pdfrwt beam="2">  1       -2 0.63502205E-02 0.32792948E+03</pdfrwt>
<totfact> 0.62215191E+03</totfact>
</mgrwt>
</event>
<event>
 4    1  0.6148427E-004  0.2053985E+03  0.7818608E-02  0.1145263E+00
          2   -1    0    0  501    0  0.00000000000E+00  0.00000000000E+00  0.64079301296E+01  0.64079306369E+01  0.25500000000E-02 0.  1.
         -2   -1    0    0    0  501 -0.00000000000E+00 -0.00000000000E+00 -0.16459506852E+04  0.16459506852E+04  0.25500000000E-02 0. -1.
    5000001    1    1    2    0    0  0.23228293470E+01 -0.67916539350E+02 -0.82212442019E+03  0.82851410013E+03  0.77000000000E+02 0.  0.
   -5000001    1    1    2    0    0 -0.23228293470E+01  0.67916539350E+02 -0.81741833491E+03  0.82384451573E+03  0.77000000000E+02 0.  0.
<mgrwt>
<rscale>  0 0.20539851E+03</rscale>
<asrwt>0</asrwt>
<pdfrwt beam="1">  1        2 0.98583675E-03 0.20539851E+03</pdfrwt>
<pdfrwt beam="2">  1       -2 0.25322285E+00 0.20539851E+03</pdfrwt>
<totfact> 0.10014858E+03</totfact>
</mgrwt>
</event>
<event>
 4    1  0.6148427E-004  0.2077540E+03  0.7818608E-02  0.1143357E+00
         -2   -1    0    0    0  501 -0.00000000000E+00  0.00000000000E+00  0.13824055193E+03  0.13824055195E+03  0.25500000000E-02 0. -1.
          2   -1    0    0  501    0  0.00000000000E+00 -0.00000000000E+00 -0.78055486819E+02  0.78055486861E+02  0.25500000000E-02 0.  1.
    5000001    1    1    2    0    0  0.26261995875E+02  0.58701104031E+02  0.58143249450E+02  0.11595322116E+03  0.77000000000E+02 0.  0.
   -5000001    1    1    2    0    0 -0.26261995875E+02 -0.58701104031E+02  0.20418156556E+01  0.10034281765E+03  0.77000000000E+02 0.  0.
<mgrwt>
<rscale>  0 0.20775402E+03</rscale>
<asrwt>0</asrwt>
<pdfrwt beam="1">  1        2 0.12008536E-01 0.20775402E+03</pdfrwt>
<pdfrwt beam="2">  1       -2 0.21267777E-01 0.20775402E+03</pdfrwt>
<totfact> 0.93725502E+03</totfact>
</mgrwt>
</event>
<event>
 4    1  0.6148427E-004  0.3130082E+03  0.7818608E-02  0.1078913E+00
          2   -1    0    0  501    0  0.00000000000E+00  0.00000000000E+00  0.44989045573E+03  0.44989045573E+03  0.25500000000E-02 0.  1.
         -2   -1    0    0    0  501 -0.00000000000E+00 -0.00000000000E+00 -0.54443319982E+02  0.54443320042E+02  0.25500000000E-02 0. -1.
    5000001    1    1    2    0    0 -0.12306377546E+03  0.31616720870E+02  0.11845704504E+03  0.19001416102E+03  0.77000000000E+02 0.  0.
   -5000001    1    1    2    0    0  0.12306377546E+03 -0.31616720870E+02  0.27699009071E+03  0.31431961475E+03  0.77000000000E+02 0.  0.
<mgrwt>
<rscale>  0 0.31300818E+03</rscale>
<asrwt>0</asrwt>
<pdfrwt beam="1">  1        2 0.69213913E-01 0.31300818E+03</pdfrwt>
<pdfrwt beam="2">  1       -2 0.83758958E-02 0.31300818E+03</pdfrwt>
<totfact> 0.61641930E+03</totfact>
</mgrwt>
</event>
<event>
 4    1  0.6148427E-004  0.2409022E+03  0.7818608E-02  0.1119193E+00
         -2   -1    0    0    0  501 -0.00000000000E+00  0.00000000000E+00  0.14831460949E+02  0.14831461168E+02  0.25500000000E-02 0. -1.
          2   -1    0    0  501    0  0.00000000000E+00 -0.00000000000E+00 -0.97822216172E+03  0.97822216172E+03  0.25500000000E-02 0.  1.
    5000001    1    1    2    0    0  0.89302328278E+02 -0.23543969988E+02 -0.45247705833E+03  0.46818128185E+03  0.77000000000E+02 0.  0.
   -5000001    1    1    2    0    0 -0.89302328278E+02  0.23543969988E+02 -0.51091364244E+03  0.52487234104E+03  0.77000000000E+02 0.  0.
<mgrwt>
<rscale>  0 0.24090217E+03</rscale>
<asrwt>0</asrwt>
<pdfrwt beam="1">  1        2 0.15049567E+00 0.24090217E+03</pdfrwt>
<pdfrwt beam="2">  1       -2 0.22817640E-02 0.24090217E+03</pdfrwt>
<totfact> 0.17071383E+04</totfact>
</mgrwt>
</event>
<event>
 4    1  0.6148427E-004  0.1944564E+03  0.7818608E-02  0.1154502E+00
          2   -1    0    0  501    0  0.00000000000E+00  0.00000000000E+00  0.21363759198E+02  0.21363759350E+02  0.25500000000E-02 0.  1.
         -2   -1    0    0    0  501 -0.00000000000E+00 -0.00000000000E+00 -0.44249339558E+03  0.44249339559E+03  0.25500000000E-02 0. -1.
    5000001    1    1    2    0    0  0.29580992456E+02  0.20082529781E+02 -0.32361334352E+03  0.33456380441E+03  0.77000000000E+02 0.  0.
   -5000001    1    1    2    0    0 -0.29580992456E+02 -0.20082529781E+02 -0.97516292865E+02  0.12929335053E+03  0.77000000000E+02 0.  0.
<mgrwt>
<rscale>  0 0.19445639E+03</rscale>
<asrwt>0</asrwt>
<pdfrwt beam="1">  1        2 0.32867325E-02 0.19445639E+03</pdfrwt>
<pdfrwt beam="2">  1       -2 0.68075900E-01 0.19445639E+03</pdfrwt>
<totfact> 0.54540040E+03</totfact>
</mgrwt>
</event>
<event>
 4    1  0.6148427E-004  0.4296120E+03  0.7818608E-02  0.1033983E+00
          2   -1    0    0  501    0  0.00000000000E+00  0.00000000000E+00  0.65223995137E+03  0.65223995138E+03  0.25500000000E-02 0.  1.
         -2   -1    0    0    0  501 -0.00000000000E+00 -0.00000000000E+00 -0.70743308880E+02  0.70743308926E+02  0.25500000000E-02 0. -1.
    5000001    1    1    2    0    0 -0.19281141681E+02  0.18647885528E+03  0.41053411272E+03  0.45783554209E+03  0.77000000000E+02 0.  0.
   -5000001    1    1    2    0    0  0.19281141681E+02 -0.18647885528E+03  0.17096252977E+03  0.26514771821E+03  0.77000000000E+02 0.  0.
<mgrwt>
<rscale>  0 0.42961198E+03</rscale>
<asrwt>0</asrwt>
<pdfrwt beam="1">  1        2 0.10034460E+00 0.42961198E+03</pdfrwt>
<pdfrwt beam="2">  1       -2 0.10883586E-01 0.42961198E+03</pdfrwt>
<totfact> 0.26611324E+03</totfact>
</mgrwt>
</event>
<event>
 4    1  0.6148427E-004  0.2893134E+03  0.7818608E-02  0.1090708E+00
         -2   -1    0    0    0  501 -0.00000000000E+00  0.00000000000E+00  0.22125978583E+03  0.22125978585E+03  0.25500000000E-02 0. -1.
          2   -1    0    0  501    0  0.00000000000E+00 -0.00000000000E+00 -0.94574651318E+02  0.94574651352E+02  0.25500000000E-02 0.  1.
    5000001    1    1    2    0    0 -0.26386431320E+02 -0.77633296556E+02 -0.35953657607E+02  0.11808826355E+03  0.77000000000E+02 0.  0.
   -5000001    1    1    2    0    0  0.26386431320E+02  0.77633296556E+02  0.16263879212E+03  0.19774617365E+03  0.77000000000E+02 0.  0.
<mgrwt>
<rscale>  0 0.28931344E+03</rscale>
<asrwt>0</asrwt>
<pdfrwt beam="1">  1        2 0.14549946E-01 0.28931344E+03</pdfrwt>
<pdfrwt beam="2">  1       -2 0.34039967E-01 0.28931344E+03</pdfrwt>
<totfact> 0.32634244E+03</totfact>
</mgrwt>
</event>
<event>
 4    1  0.6148427E-004  0.3444302E+03  0.7818608E-02  0.1064925E+00
         -2   -1    0    0    0  501 -0.00000000000E+00  0.00000000000E+00  0.76710047139E+01  0.76710051377E+01  0.25500000000E-02 0. -1.
          2   -1    0    0  501    0  0.00000000000E+00 -0.00000000000E+00 -0.38662517370E+04  0.38662517370E+04  0.25500000000E-02 0.  1.
    5000001    1    1    2    0    0  0.10733013984E+03 -0.10051257249E+03 -0.14130755160E+04  0.14227909017E+04  0.77000000000E+02 0.  0.
   -5000001    1    1    2    0    0 -0.10733013984E+03  0.10051257249E+03 -0.24455052164E+04  0.24511318405E+04  0.77000000000E+02 0.  0.
<mgrwt>
<rscale>  0 0.34443017E+03</rscale>
<asrwt>0</asrwt>
<pdfrwt beam="1">  1        2 0.59480640E+00 0.34443017E+03</pdfrwt>
<pdfrwt beam="2">  1       -2 0.11801577E-02 0.34443017E+03</pdfrwt>
<totfact> 0.93008313E+02</totfact>
</mgrwt>
</event>
<event>
 4    1  0.6148427E-004  0.2036402E+03  0.7818608E-02  0.1146704E+00
          2   -1    0    0  501    0  0.00000000000E+00  0.00000000000E+00  0.75755285157E+03  0.75755285158E+03  0.25500000000E-02 0.  1.
         -2   -1    0    0    0  501 -0.00000000000E+00 -0.00000000000E+00 -0.13685291724E+02  0.13685291962E+02  0.25500000000E-02 0. -1.
    5000001    1    1    2    0    0 -0.59083144537E+02 -0.29932243471E+02  0.34473538081E+03  0.35938592064E+03  0.77000000000E+02 0.  0.
   -5000001    1    1    2    0    0  0.59083144537E+02  0.29932243471E+02  0.39913217904E+03  0.41185222290E+03  0.77000000000E+02 0.  0.
<mgrwt>
<rscale>  0 0.20364019E+03</rscale>
<asrwt>0</asrwt>
<pdfrwt beam="1">  1        2 0.11654663E+00 0.20364019E+03</pdfrwt>
<pdfrwt beam="2">  1       -2 0.21054289E-02 0.20364019E+03</pdfrwt>
<totfact> 0.26572882E+04</totfact>
</mgrwt>
</event>
<event>
 4    1  0.6148427E-004  0.2061300E+03  0.7818608E-02  0.1144668E+00
         -2   -1    0    0    0  501 -0.00000000000E+00  0.00000000000E+00  0.21472025023E+02  0.21472025174E+02  0.25500000000E-02 0. -1.
          2   -1    0    0  501    0  0.00000000000E+00 -0.00000000000E+00 -0.49470855802E+03  0.49470855803E+03  0.25500000000E-02 0.  1.
    5000001    1    1    2    0    0  0.33722154360E+02  0.31558598743E+02 -0.36332595694E+03  0.37425643593E+03  0.77000000000E+02 0.  0.
   -5000001    1    1    2    0    0 -0.33722154360E+02 -0.31558598743E+02 -0.10991057606E+03  0.14192414727E+03  0.77000000000E+02 0.  0.
<mgrwt>
<rscale>  0 0.20613000E+03</rscale>
<asrwt>0</asrwt>
<pdfrwt beam="1">  1        2 0.76109000E-01 0.20613000E+03</pdfrwt>
<pdfrwt beam="2">  1       -2 0.33033889E-02 0.20613000E+03</pdfrwt>
<totfact> 0.22465003E+04</totfact>
</mgrwt>
</event>
<event>
 4    1  0.6148427E-004  0.3488338E+03  0.7818608E-02  0.1063095E+00
         -2   -1    0    0    0  501 -0.00000000000E+00  0.00000000000E+00  0.10745916836E+02  0.10745917138E+02  0.25500000000E-02 0. -1.
          2   -1    0    0  501    0  0.00000000000E+00 -0.00000000000E+00 -0.28309593297E+04  0.28309593297E+04  0.25500000000E-02 0.  1.
    5000001    1    1    2    0    0  0.12360045974E+03 -0.68537777392E+02 -0.86255928601E+03  0.87744630745E+03  0.77000000000E+02 0.  0.
   -5000001    1    1    2    0    0 -0.12360045974E+03  0.68537777392E+02 -0.19576541268E+04  0.19642589394E+04  0.77000000000E+02 0.  0.
<mgrwt>
<rscale>  0 0.34883379E+03</rscale>
<asrwt>0</asrwt>
<pdfrwt beam="1">  1        2 0.43553161E+00 0.34883379E+03</pdfrwt>
<pdfrwt beam="2">  1       -2 0.16532203E-02 0.34883379E+03</pdfrwt>
<totfact> 0.26573560E+03</totfact>
</mgrwt>
</event>
<event>
 4    1  0.6148427E-004  0.3776186E+03  0.7818608E-02  0.1051817E+00
         -2   -1    0    0    0  501 -0.00000000000E+00  0.00000000000E+00  0.98839686481E+02  0.98839686514E+02  0.25500000000E-02 0. -1.
          2   -1    0    0  501    0  0.00000000000E+00 -0.00000000000E+00 -0.36067454720E+03  0.36067454720E+03  0.25500000000E-02 0.  1.
    5000001    1    1    2    0    0  0.14139055051E+03  0.50394875381E+02 -0.23409389228E+03  0.28854788449E+03  0.77000000000E+02 0.  0.
   -5000001    1    1    2    0    0 -0.14139055051E+03 -0.50394875381E+02 -0.27740968434E+02  0.17096634923E+03  0.77000000000E+02 0.  0.
<mgrwt>
<rscale>  0 0.37761864E+03</rscale>
<asrwt>0</asrwt>
<pdfrwt beam="1">  1        2 0.55488391E-01 0.37761864E+03</pdfrwt>
<pdfrwt beam="2">  1       -2 0.15206106E-01 0.37761864E+03</pdfrwt>
<totfact> 0.30083538E+03</totfact>
</mgrwt>
</event>
<event>
 4    1  0.6148427E-004  0.2248718E+03  0.7818608E-02  0.1130302E+00
          2   -1    0    0  501    0  0.00000000000E+00  0.00000000000E+00  0.62574603947E+03  0.62574603947E+03  0.25500000000E-02 0.  1.
         -2   -1    0    0    0  501 -0.00000000000E+00 -0.00000000000E+00 -0.20202821141E+02  0.20202821302E+02  0.25500000000E-02 0. -1.
    5000001    1    1    2    0    0 -0.78441138185E+01  0.64967464320E+02  0.44438812674E+03  0.45573249690E+03  0.77000000000E+02 0.  0.
   -5000001    1    1    2    0    0  0.78441138185E+01 -0.64967464320E+02  0.16115509159E+03  0.19021636388E+03  0.77000000000E+02 0.  0.
<mgrwt>
<rscale>  0 0.22487183E+03</rscale>
<asrwt>0</asrwt>
<pdfrwt beam="1">  1        2 0.96268626E-01 0.22487183E+03</pdfrwt>
<pdfrwt beam="2">  1       -2 0.31081262E-02 0.22487183E+03</pdfrwt>
<totfact> 0.18939119E+04</totfact>
</mgrwt>
</event>
<event>
 4    1  0.6148427E-004  0.2428137E+03  0.7818608E-02  0.1117932E+00
          2   -1    0    0  501    0  0.00000000000E+00  0.00000000000E+00  0.17152053842E+04  0.17152053842E+04  0.25500000000E-02 0.  1.
         -2   -1    0    0    0  501 -0.00000000000E+00 -0.00000000000E+00 -0.85935033953E+01  0.85935037737E+01  0.25500000000E-02 0. -1.
    5000001    1    1    2    0    0 -0.76075237383E+02  0.10933323540E+02  0.47075866645E+03  0.48316632886E+03  0.77000000000E+02 0.  0.
   -5000001    1    1    2    0    0  0.76075237383E+02 -0.10933323540E+02  0.12358532144E+04  0.12406325592E+04  0.77000000000E+02 0.  0.
<mgrwt>
<rscale>  0 0.24281370E+03</rscale>
<asrwt>0</asrwt>
<pdfrwt beam="1">  1        2 0.26387753E+00 0.24281370E+03</pdfrwt>
<pdfrwt beam="2">  1       -2 0.13220786E-02 0.24281370E+03</pdfrwt>
<totfact> 0.14826790E+04</totfact>
</mgrwt>
</event>
<event>
 4    1  0.6148427E-004  0.3056828E+03  0.7818608E-02  0.1082434E+00
          2   -1    0    0  501    0  0.00000000000E+00  0.00000000000E+00  0.33763646240E+04  0.33763646240E+04  0.25500000000E-02 0.  1.
         -2   -1    0    0    0  501 -0.00000000000E+00 -0.00000000000E+00 -0.69188315455E+01  0.69188320154E+01  0.25500000000E-02 0. -1.
    5000001    1    1    2    0    0  0.12410785583E+03  0.14934742233E+02  0.21550383243E+04  0.21600335612E+04  0.77000000000E+02 0.  0.
   -5000001    1    1    2    0    0 -0.12410785583E+03 -0.14934742233E+02  0.12144074682E+04  0.12232498948E+04  0.77000000000E+02 0.  0.
<mgrwt>
<rscale>  0 0.30568283E+03</rscale>
<asrwt>0</asrwt>
<pdfrwt beam="1">  1        2 0.51944176E+00 0.30568283E+03</pdfrwt>
<pdfrwt beam="2">  1       -2 0.10644335E-02 0.30568283E+03</pdfrwt>
<totfact> 0.23679846E+03</totfact>
</mgrwt>
</event>
<event>
 4    1  0.6148427E-004  0.2679489E+03  0.7818608E-02  0.1102459E+00
          2   -1    0    0  501    0  0.00000000000E+00  0.00000000000E+00  0.38975544687E+03  0.38975544687E+03  0.25500000000E-02 0.  1.
         -2   -1    0    0    0  501 -0.00000000000E+00 -0.00000000000E+00 -0.46052343485E+02  0.46052343555E+02  0.25500000000E-02 0. -1.
    5000001    1    1    2    0    0 -0.98955378450E+02 -0.28920417077E+02  0.11117800992E+03  0.17005324854E+03  0.77000000000E+02 0.  0.
   -5000001    1    1    2    0    0  0.98955378450E+02  0.28920417077E+02  0.23252509346E+03  0.26575454189E+03  0.77000000000E+02 0.  0.
<mgrwt>
<rscale>  0 0.26794889E+03</rscale>
<asrwt>0</asrwt>
<pdfrwt beam="1">  1        2 0.59962376E-01 0.26794889E+03</pdfrwt>
<pdfrwt beam="2">  1       -2 0.70849760E-02 0.26794889E+03</pdfrwt>
<totfact> 0.93157982E+03</totfact>
</mgrwt>
</event>
<event>
 4    1  0.6148427E-004  0.4873549E+03  0.7818608E-02  0.1017133E+00
          2   -1    0    0  501    0  0.00000000000E+00  0.00000000000E+00  0.92716560975E+03  0.92716560976E+03  0.25500000000E-02 0.  1.
         -2   -1    0    0    0  501 -0.00000000000E+00 -0.00000000000E+00 -0.64043254864E+02  0.64043254915E+02  0.25500000000E-02 0. -1.
    5000001    1    1    2    0    0  0.75890180795E+02  0.18178677027E+03  0.67768236717E+03  0.70992122109E+03  0.77000000000E+02 0.  0.
   -5000001    1    1    2    0    0 -0.75890180795E+02 -0.18178677027E+03  0.18543998772E+03  0.28128764358E+03  0.77000000000E+02 0.  0.
<mgrwt>
<rscale>  0 0.48735492E+03</rscale>
<asrwt>0</asrwt>
<pdfrwt beam="1">  1        2 0.14264086E+00 0.48735492E+03</pdfrwt>
<pdfrwt beam="2">  1       -2 0.98528089E-02 0.48735492E+03</pdfrwt>
<totfact> 0.19850357E+03</totfact>
</mgrwt>
</event>
<event>
 4    1  0.6148427E-004  0.1925554E+03  0.7818608E-02  0.1156177E+00
          2   -1    0    0  501    0  0.00000000000E+00  0.00000000000E+00  0.88794518574E+03  0.88794518575E+03  0.25500000000E-02 0.  1.
         -2   -1    0    0    0  501 -0.00000000000E+00 -0.00000000000E+00 -0.10439148116E+02  0.10439148427E+02  0.25500000000E-02 0. -1.
    5000001    1    1    2    0    0 -0.15096476898E+02  0.55015413255E+02  0.48196760144E+03  0.49140245029E+03  0.77000000000E+02 0.  0.
   -5000001    1    1    2    0    0  0.15096476898E+02 -0.55015413255E+02  0.39553843618E+03  0.40698188388E+03  0.77000000000E+02 0.  0.
<mgrwt>
<rscale>  0 0.19255536E+03</rscale>
<asrwt>0</asrwt>
<pdfrwt beam="1">  1        2 0.13660691E+00 0.19255536E+03</pdfrwt>
<pdfrwt beam="2">  1       -2 0.16060233E-02 0.19255536E+03</pdfrwt>
<totfact> 0.32097470E+04</totfact>
</mgrwt>
</event>
<event>
 4    1  0.6148427E-004  0.3906148E+03  0.7818608E-02  0.1047079E+00
          2   -1    0    0  501    0  0.00000000000E+00  0.00000000000E+00  0.98194875240E+03  0.98194875241E+03  0.25500000000E-02 0.  1.
         -2   -1    0    0    0  501 -0.00000000000E+00 -0.00000000000E+00 -0.38846195627E+02  0.38846195710E+02  0.25500000000E-02 0. -1.
    5000001    1    1    2    0    0 -0.17585429186E+03 -0.28536425362E+02  0.41448102243E+03  0.45767081783E+03  0.77000000000E+02 0.  0.
   -5000001    1    1    2    0    0  0.17585429186E+03  0.28536425362E+02  0.52862153435E+03  0.56312413029E+03  0.77000000000E+02 0.  0.
<mgrwt>
<rscale>  0 0.39061476E+03</rscale>
<asrwt>0</asrwt>
<pdfrwt beam="1">  1        2 0.15106903E+00 0.39061476E+03</pdfrwt>
<pdfrwt beam="2">  1       -2 0.59763381E-02 0.39061476E+03</pdfrwt>
<totfact> 0.40295104E+03</totfact>
</mgrwt>
</event>
<event>
 4    1  0.6148427E-004  0.2046558E+03  0.7818608E-02  0.1145869E+00
          2   -1    0    0  501    0  0.00000000000E+00  0.00000000000E+00  0.93627097646E+03  0.93627097646E+03  0.25500000000E-02 0.  1.
         -2   -1    0    0    0  501 -0.00000000000E+00 -0.00000000000E+00 -0.11183728079E+02  0.11183728370E+02  0.25500000000E-02 0. -1.
    5000001    1    1    2    0    0  0.35307765045E+01 -0.64507484314E+02  0.37369596555E+03  0.38697720422E+03  0.77000000000E+02 0.  0.
   -5000001    1    1    2    0    0 -0.35307765045E+01  0.64507484314E+02  0.55139128283E+03  0.56047750061E+03  0.77000000000E+02 0.  0.
<mgrwt>
<rscale>  0 0.20465581E+03</rscale>
<asrwt>0</asrwt>
<pdfrwt beam="1">  1        2 0.14404169E+00 0.20465581E+03</pdfrwt>
<pdfrwt beam="2">  1       -2 0.17205736E-02 0.20465581E+03</pdfrwt>
<totfact> 0.27166361E+04</totfact>
</mgrwt>
</event>
<event>
 4    1  0.6148427E-004  0.1866872E+03  0.7818608E-02  0.1161484E+00
         -2   -1    0    0    0  501 -0.00000000000E+00  0.00000000000E+00  0.61509329592E+01  0.61509334878E+01  0.25500000000E-02 0. -1.
          2   -1    0    0  501    0  0.00000000000E+00 -0.00000000000E+00 -0.14165375140E+04  0.14165375140E+04  0.25500000000E-02 0.  1.
    5000001    1    1    2    0    0 -0.39206465914E+02  0.59975707154E+01 -0.44000694008E+03  0.44845091721E+03  0.77000000000E+02 0.  0.
   -5000001    1    1    2    0    0  0.39206465914E+02 -0.59975707154E+01 -0.97037964099E+03  0.97423753031E+03  0.77000000000E+02 0.  0.
<mgrwt>
<rscale>  0 0.18668720E+03</rscale>
<asrwt>0</asrwt>
<pdfrwt beam="1">  1        2 0.21792859E+00 0.18668720E+03</pdfrwt>
<pdfrwt beam="2">  1       -2 0.94629854E-03 0.18668720E+03</pdfrwt>
<totfact> 0.34153855E+04</totfact>
</mgrwt>
</event>
<event>
 4    1  0.6148427E-004  0.2658868E+03  0.7818608E-02  0.1103657E+00
          2   -1    0    0  501    0  0.00000000000E+00  0.00000000000E+00  0.46813220516E+02  0.46813220586E+02  0.25500000000E-02 0.  1.
         -2   -1    0    0    0  501 -0.00000000000E+00 -0.00000000000E+00 -0.37754171229E+03  0.37754171230E+03  0.25500000000E-02 0. -1.
    5000001    1    1    2    0    0 -0.68124214106E+02  0.37904837758E+02 -0.28551293246E+03  0.30581746169E+03  0.77000000000E+02 0.  0.
   -5000001    1    1    2    0    0  0.68124214106E+02 -0.37904837758E+02 -0.45215559313E+02  0.11853747119E+03  0.77000000000E+02 0.  0.
<mgrwt>
<rscale>  0 0.26588677E+03</rscale>
<asrwt>0</asrwt>
<pdfrwt beam="1">  1        2 0.72020342E-02 0.26588677E+03</pdfrwt>
<pdfrwt beam="2">  1       -2 0.58083339E-01 0.26588677E+03</pdfrwt>
<totfact> 0.27413487E+03</totfact>
</mgrwt>
</event>
<event>
 4    1  0.6148427E-004  0.2398630E+03  0.7818608E-02  0.1119884E+00
          2   -1    0    0  501    0  0.00000000000E+00  0.00000000000E+00  0.11935336175E+03  0.11935336178E+03  0.25500000000E-02 0.  1.
         -2   -1    0    0    0  501 -0.00000000000E+00 -0.00000000000E+00 -0.12051248545E+03  0.12051248548E+03  0.25500000000E-02 0. -1.
    5000001    1    1    2    0    0  0.75160305305E+02 -0.49648167253E+02  0.17874874613E+02  0.11984374472E+03  0.77000000000E+02 0.  0.
   -5000001    1    1    2    0    0 -0.75160305305E+02  0.49648167253E+02 -0.19033998314E+02  0.12002210253E+03  0.77000000000E+02 0.  0.
<mgrwt>
<rscale>  0 0.23986305E+03</rscale>
<asrwt>0</asrwt>
<pdfrwt beam="1">  1        2 0.18362056E-01 0.23986305E+03</pdfrwt>
<pdfrwt beam="2">  1       -2 0.18540382E-01 0.23986305E+03</pdfrwt>
<totfact> 0.72221783E+03</totfact>
</mgrwt>
</event>
<event>
 4    1  0.6148427E-004  0.2434059E+03  0.7818608E-02  0.1117544E+00
          2   -1    0    0  501    0  0.00000000000E+00  0.00000000000E+00  0.40706121663E+03  0.40706121664E+03  0.25500000000E-02 0.  1.
         -2   -1    0    0    0  501 -0.00000000000E+00 -0.00000000000E+00 -0.36386697381E+02  0.36386697470E+02  0.25500000000E-02 0. -1.
    5000001    1    1    2    0    0 -0.81041777889E+02  0.30600123147E+02  0.25297841959E+03  0.27826465474E+03  0.77000000000E+02 0.  0.
   -5000001    1    1    2    0    0  0.81041777889E+02 -0.30600123147E+02  0.11769609966E+03  0.16518325937E+03  0.77000000000E+02 0.  0.
<mgrwt>
<rscale>  0 0.24340594E+03</rscale>
<asrwt>0</asrwt>
<pdfrwt beam="1">  1        2 0.62624804E-01 0.24340594E+03</pdfrwt>
<pdfrwt beam="2">  1       -2 0.55979533E-02 0.24340594E+03</pdfrwt>
<totfact> 0.12708338E+04</totfact>
</mgrwt>
</event>
<event>
 4    1  0.6148427E-004  0.2199468E+03  0.7818608E-02  0.1133923E+00
          2   -1    0    0  501    0  0.00000000000E+00  0.00000000000E+00  0.55168316274E+02  0.55168316333E+02  0.25500000000E-02 0.  1.
         -2   -1    0    0    0  501 -0.00000000000E+00 -0.00000000000E+00 -0.21922264030E+03  0.21922264031E+03  0.25500000000E-02 0. -1.
    5000001    1    1    2    0    0  0.15421462859E+02  0.11996266813E+02 -0.17690052562E+03  0.19391886937E+03  0.77000000000E+02 0.  0.
   -5000001    1    1    2    0    0 -0.15421462859E+02 -0.11996266813E+02  0.12846201598E+02  0.80472087270E+02  0.77000000000E+02 0.  0.
<mgrwt>
<rscale>  0 0.21994676E+03</rscale>
<asrwt>0</asrwt>
<pdfrwt beam="1">  1        2 0.84874334E-02 0.21994676E+03</pdfrwt>
<pdfrwt beam="2">  1       -2 0.33726560E-01 0.21994676E+03</pdfrwt>
<totfact> 0.63585590E+03</totfact>
</mgrwt>
</event>
<event>
 4    1  0.6148427E-004  0.2498792E+03  0.7818608E-02  0.1113381E+00
          2   -1    0    0  501    0  0.00000000000E+00  0.00000000000E+00  0.55627269179E+03  0.55627269180E+03  0.25500000000E-02 0.  1.
         -2   -1    0    0    0  501 -0.00000000000E+00 -0.00000000000E+00 -0.28061594163E+02  0.28061594279E+02  0.25500000000E-02 0. -1.
    5000001    1    1    2    0    0  0.82083279636E+02  0.45575118673E+02  0.19528375906E+03  0.22995543653E+03  0.77000000000E+02 0.  0.
   -5000001    1    1    2    0    0 -0.82083279636E+02 -0.45575118673E+02  0.33292733857E+03  0.35437884955E+03  0.77000000000E+02 0.  0.
<mgrwt>
<rscale>  0 0.24987916E+03</rscale>
<asrwt>0</asrwt>
<pdfrwt beam="1">  1        2 0.85580406E-01 0.24987916E+03</pdfrwt>
<pdfrwt beam="2">  1       -2 0.43171688E-02 0.24987916E+03</pdfrwt>
<totfact> 0.13344360E+04</totfact>
</mgrwt>
</event>
<event>
 4    1  0.6148427E-004  0.3740468E+03  0.7818608E-02  0.1053156E+00
         -2   -1    0    0    0  501 -0.00000000000E+00  0.00000000000E+00  0.53858581159E+02  0.53858581219E+02  0.25500000000E-02 0. -1.
          2   -1    0    0  501    0  0.00000000000E+00 -0.00000000000E+00 -0.64943709245E+03  0.64943709245E+03  0.25500000000E-02 0.  1.
    5000001    1    1    2    0    0  0.89124410285E+02  0.82246940884E+02 -0.52295498122E+03  0.54232705278E+03  0.77000000000E+02 0.  0.
   -5000001    1    1    2    0    0 -0.89124410285E+02 -0.82246940884E+02 -0.72623530074E+02  0.16096862090E+03  0.77000000000E+02 0.  0.
<mgrwt>
<rscale>  0 0.37404684E+03</rscale>
<asrwt>0</asrwt>
<pdfrwt beam="1">  1        2 0.99913393E-01 0.37404684E+03</pdfrwt>
<pdfrwt beam="2">  1       -2 0.82859360E-02 0.37404684E+03</pdfrwt>
<totfact> 0.41302373E+03</totfact>
</mgrwt>
</event>
<event>
 4    1  0.6148427E-004  0.1662648E+03  0.7818608E-02  0.1181800E+00
         -2   -1    0    0    0  501 -0.00000000000E+00  0.00000000000E+00  0.31449423186E+01  0.31449433524E+01  0.25500000000E-02 0. -1.
          2   -1    0    0  501    0  0.00000000000E+00 -0.00000000000E+00 -0.21974956736E+04  0.21974956736E+04  0.25500000000E-02 0.  1.
    5000001    1    1    2    0    0  0.30638226930E+02 -0.61594588691E+01 -0.10665369640E+04  0.10697694777E+04  0.77000000000E+02 0.  0.
   -5000001    1    1    2    0    0 -0.30638226930E+02  0.61594588691E+01 -0.11278137673E+04  0.11308711392E+04  0.77000000000E+02 0.  0.
<mgrwt>
<rscale>  0 0.16626483E+03</rscale>
<asrwt>0</asrwt>
<pdfrwt beam="1">  1        2 0.33807503E+00 0.16626483E+03</pdfrwt>
<pdfrwt beam="2">  1       -2 0.48383912E-03 0.16626483E+03</pdfrwt>
<totfact> 0.34750346E+04</totfact>
</mgrwt>
</event>
<event>
 4    1  0.6148427E-004  0.5830273E+03  0.7818608E-02  0.9941258E-01
         -2   -1    0    0    0  501 -0.00000000000E+00  0.00000000000E+00  0.48891413471E+02  0.48891413538E+02  0.25500000000E-02 0. -1.
          2   -1    0    0  501    0  0.00000000000E+00 -0.00000000000E+00 -0.17381419586E+04  0.17381419586E+04  0.25500000000E-02 0.  1.
    5000001    1    1    2    0    0  0.27210188401E+03 -0.68313519891E+02 -0.90156056872E+03  0.94733659876E+03  0.77000000000E+02 0.  0.
   -5000001    1    1    2    0    0 -0.27210188401E+03  0.68313519891E+02 -0.78768997637E+03  0.83969677334E+03  0.77000000000E+02 0.  0.
<mgrwt>
<rscale>  0 0.58302733E+03</rscale>
<asrwt>0</asrwt>
<pdfrwt beam="1">  1        2 0.26740641E+00 0.58302733E+03</pdfrwt>
<pdfrwt beam="2">  1       -2 0.75217573E-02 0.58302733E+03</pdfrwt>
<totfact> 0.10401369E+03</totfact>
</mgrwt>
</event>
<event>
 4    1  0.6148427E-004  0.2849542E+03  0.7818608E-02  0.1093013E+00
         -2   -1    0    0    0  501 -0.00000000000E+00  0.00000000000E+00  0.38388332234E+02  0.38388332318E+02  0.25500000000E-02 0. -1.
          2   -1    0    0  501    0  0.00000000000E+00 -0.00000000000E+00 -0.52879947405E+03  0.52879947405E+03  0.25500000000E-02 0.  1.
    5000001    1    1    2    0    0 -0.44057307224E+02  0.48815846100E+02 -0.45696150328E+02  0.11109082458E+03  0.77000000000E+02 0.  0.
   -5000001    1    1    2    0    0  0.44057307224E+02 -0.48815846100E+02 -0.44471499148E+03  0.45609698179E+03  0.77000000000E+02 0.  0.
<mgrwt>
<rscale>  0 0.28495424E+03</rscale>
<asrwt>0</asrwt>
<pdfrwt beam="1">  1        2 0.81353760E-01 0.28495424E+03</pdfrwt>
<pdfrwt beam="2">  1       -2 0.59058976E-02 0.28495424E+03</pdfrwt>
<totfact> 0.88259058E+03</totfact>
</mgrwt>
</event>
<event>
 4    1  0.6148427E-004  0.2151551E+03  0.7818608E-02  0.1137548E+00
          2   -1    0    0  501    0  0.00000000000E+00  0.00000000000E+00  0.28405843327E+03  0.28405843328E+03  0.25500000000E-02 0.  1.
         -2   -1    0    0    0  501 -0.00000000000E+00 -0.00000000000E+00 -0.40741358491E+02  0.40741358571E+02  0.25500000000E-02 0. -1.
    5000001    1    1    2    0    0  0.29441028548E+02  0.44557969057E+02  0.20142156153E+03  0.22215272274E+03  0.77000000000E+02 0.  0.
   -5000001    1    1    2    0    0 -0.29441028548E+02 -0.44557969057E+02  0.41895513248E+02  0.10264706912E+03  0.77000000000E+02 0.  0.
<mgrwt>
<rscale>  0 0.21515507E+03</rscale>
<asrwt>0</asrwt>
<pdfrwt beam="1">  1        2 0.43701295E-01 0.21515507E+03</pdfrwt>
<pdfrwt beam="2">  1       -2 0.62679016E-02 0.21515507E+03</pdfrwt>
<totfact> 0.15629539E+04</totfact>
</mgrwt>
</event>
<event>
 4    1  0.6148427E-004  0.2700066E+03  0.7818608E-02  0.1101276E+00
         -2   -1    0    0    0  501 -0.00000000000E+00  0.00000000000E+00  0.72775833613E+02  0.72775833658E+02  0.25500000000E-02 0. -1.
          2   -1    0    0  501    0  0.00000000000E+00 -0.00000000000E+00 -0.25043873699E+03  0.25043873701E+03  0.25500000000E-02 0.  1.
    5000001    1    1    2    0    0  0.10947877508E+03 -0.10773041845E+02 -0.10555724768E+03  0.17080103384E+03  0.77000000000E+02 0.  0.
   -5000001    1    1    2    0    0 -0.10947877508E+03  0.10773041845E+02 -0.72105655701E+02  0.15241353682E+03  0.77000000000E+02 0.  0.
<mgrwt>
<rscale>  0 0.27000658E+03</rscale>
<asrwt>0</asrwt>
<pdfrwt beam="1">  1        2 0.38529036E-01 0.27000658E+03</pdfrwt>
<pdfrwt beam="2">  1       -2 0.11196282E-01 0.27000658E+03</pdfrwt>
<totfact> 0.72999291E+03</totfact>
</mgrwt>
</event>
<event>
 4    1  0.6148427E-004  0.2333297E+03  0.7818608E-02  0.1124318E+00
         -2   -1    0    0    0  501 -0.00000000000E+00  0.00000000000E+00  0.54888928267E+01  0.54888934190E+01  0.25500000000E-02 0. -1.
          2   -1    0    0  501    0  0.00000000000E+00 -0.00000000000E+00 -0.24796781570E+04  0.24796781570E+04  0.25500000000E-02 0.  1.
    5000001    1    1    2    0    0  0.68990372082E+02 -0.13108712173E+02 -0.67853956526E+03  0.68649577668E+03  0.77000000000E+02 0.  0.
   -5000001    1    1    2    0    0 -0.68990372082E+02  0.13108712173E+02 -0.17956496989E+04  0.17986712738E+04  0.77000000000E+02 0.  0.
<mgrwt>
<rscale>  0 0.23332971E+03</rscale>
<asrwt>0</asrwt>
<pdfrwt beam="1">  1        2 0.38148805E+00 0.23332971E+03</pdfrwt>
<pdfrwt beam="2">  1       -2 0.84444707E-03 0.23332971E+03</pdfrwt>
<totfact> 0.11191845E+04</totfact>
</mgrwt>
</event>
<event>
 4    1  0.6148427E-004  0.2713113E+03  0.7818608E-02  0.1100531E+00
          2   -1    0    0  501    0  0.00000000000E+00  0.00000000000E+00  0.13531143623E+03  0.13531143626E+03  0.25500000000E-02 0.  1.
         -2   -1    0    0    0  501 -0.00000000000E+00 -0.00000000000E+00 -0.13600078696E+03  0.13600078699E+03  0.25500000000E-02 0. -1.
    5000001    1    1    2    0    0  0.10232458143E+03 -0.16053515676E+02  0.41433761147E+02  0.13554996087E+03  0.77000000000E+02 0.  0.
   -5000001    1    1    2    0    0 -0.10232458143E+03  0.16053515676E+02 -0.42123111876E+02  0.13576226237E+03  0.77000000000E+02 0.  0.
<mgrwt>
<rscale>  0 0.27131135E+03</rscale>
<asrwt>0</asrwt>
<pdfrwt beam="1">  1        2 0.20817144E-01 0.27131135E+03</pdfrwt>
<pdfrwt beam="2">  1       -2 0.20923198E-01 0.27131135E+03</pdfrwt>
<totfact> 0.51147178E+03</totfact>
</mgrwt>
</event>
<event>
 4    1  0.6148427E-004  0.3118214E+03  0.7818608E-02  0.1079476E+00
          2   -1    0    0  501    0  0.00000000000E+00  0.00000000000E+00  0.14096072680E+03  0.14096072682E+03  0.25500000000E-02 0.  1.
         -2   -1    0    0    0  501 -0.00000000000E+00 -0.00000000000E+00 -0.17244619561E+03  0.17244619563E+03  0.25500000000E-02 0. -1.
    5000001    1    1    2    0    0 -0.90076121908E+02  0.99148423820E+02 -0.36706003981E+02  0.15880947205E+03  0.77000000000E+02 0.  0.
   -5000001    1    1    2    0    0  0.90076121908E+02 -0.99148423820E+02  0.52205351741E+01  0.15459745040E+03  0.77000000000E+02 0.  0.
<mgrwt>
<rscale>  0 0.31182137E+03</rscale>
<asrwt>0</asrwt>
<pdfrwt beam="1">  1        2 0.21686266E-01 0.31182137E+03</pdfrwt>
<pdfrwt beam="2">  1       -2 0.26530184E-01 0.31182137E+03</pdfrwt>
<totfact> 0.32336643E+03</totfact>
</mgrwt>
</event>
<event>
 4    1  0.6148427E-004  0.2913522E+03  0.7818608E-02  0.1089645E+00
          2   -1    0    0  501    0  0.00000000000E+00  0.00000000000E+00  0.18889093606E+04  0.18889093606E+04  0.25500000000E-02 0.  1.
         -2   -1    0    0    0  501 -0.00000000000E+00 -0.00000000000E+00 -0.11234804170E+02  0.11234804459E+02  0.25500000000E-02 0. -1.
    5000001    1    1    2    0    0 -0.10808288716E+03 -0.18895506411E+02  0.13108422500E+04  0.13176780165E+04  0.77000000000E+02 0.  0.
   -5000001    1    1    2    0    0  0.10808288716E+03  0.18895506411E+02  0.56683230642E+03  0.58246614859E+03  0.77000000000E+02 0.  0.
<mgrwt>
<rscale>  0 0.29135221E+03</rscale>
<asrwt>0</asrwt>
<pdfrwt beam="1">  1        2 0.29060127E+00 0.29135221E+03</pdfrwt>
<pdfrwt beam="2">  1       -2 0.17284325E-02 0.29135221E+03</pdfrwt>
<totfact> 0.81502562E+03</totfact>
</mgrwt>
</event>
<event>
 4    1  0.6148427E-004  0.2036341E+03  0.7818608E-02  0.1146709E+00
         -2   -1    0    0    0  501 -0.00000000000E+00  0.00000000000E+00  0.25371423565E+03  0.25371423566E+03  0.25500000000E-02 0. -1.
          2   -1    0    0  501    0  0.00000000000E+00 -0.00000000000E+00 -0.40859811088E+02  0.40859811167E+02  0.25500000000E-02 0.  1.
    5000001    1    1    2    0    0 -0.55327029952E+02  0.26904560088E+02  0.69467603816E+02  0.12058061029E+03  0.77000000000E+02 0.  0.
   -5000001    1    1    2    0    0  0.55327029952E+02 -0.26904560088E+02  0.14338682074E+03  0.17399343654E+03  0.77000000000E+02 0.  0.
<mgrwt>
<rscale>  0 0.20363414E+03</rscale>
<asrwt>0</asrwt>
<pdfrwt beam="1">  1        2 0.62861248E-02 0.20363414E+03</pdfrwt>
<pdfrwt beam="2">  1       -2 0.39032960E-01 0.20363414E+03</pdfrwt>
<totfact> 0.70662876E+03</totfact>
</mgrwt>
</event>
<event>
 4    1  0.6148427E-004  0.3999846E+03  0.7818608E-02  0.1043785E+00
          2   -1    0    0  501    0  0.00000000000E+00  0.00000000000E+00  0.19256320731E+03  0.19256320733E+03  0.25500000000E-02 0.  1.
         -2   -1    0    0    0  501 -0.00000000000E+00 -0.00000000000E+00 -0.20770799378E+03  0.20770799379E+03  0.25500000000E-02 0. -1.
    5000001    1    1    2    0    0  0.15165546049E+03 -0.10024253412E+03  0.24387509840E+02  0.19892635567E+03  0.77000000000E+02 0.  0.
   -5000001    1    1    2    0    0 -0.15165546049E+03  0.10024253412E+03 -0.39532296303E+02  0.20134484546E+03  0.77000000000E+02 0.  0.
<mgrwt>
<rscale>  0 0.39998459E+03</rscale>
<asrwt>0</asrwt>
<pdfrwt beam="1">  1        2 0.29625109E-01 0.39998459E+03</pdfrwt>
<pdfrwt beam="2">  1       -2 0.31955076E-01 0.39998459E+03</pdfrwt>
<totfact> 0.16302885E+03</totfact>
</mgrwt>
</event>
<event>
 4    1  0.6148427E-004  0.3091145E+03  0.7818608E-02  0.1080771E+00
          2   -1    0    0  501    0  0.00000000000E+00  0.00000000000E+00  0.70976897886E+03  0.70976897886E+03  0.25500000000E-02 0.  1.
         -2   -1    0    0    0  501 -0.00000000000E+00 -0.00000000000E+00 -0.33655931217E+02  0.33655931313E+02  0.25500000000E-02 0. -1.
    5000001    1    1    2    0    0 -0.96884467676E+02 -0.37928786215E+02  0.54118767608E+03  0.55645151958E+03  0.77000000000E+02 0.  0.
   -5000001    1    1    2    0    0  0.96884467676E+02  0.37928786215E+02  0.13492537156E+03  0.18697339060E+03  0.77000000000E+02 0.  0.
<mgrwt>
<rscale>  0 0.30911445E+03</rscale>
<asrwt>0</asrwt>
<pdfrwt beam="1">  1        2 0.10919523E+00 0.30911445E+03</pdfrwt>
<pdfrwt beam="2">  1       -2 0.51778354E-02 0.30911445E+03</pdfrwt>
<totfact> 0.76609064E+03</totfact>
</mgrwt>
</event>
<event>
 4    1  0.6148427E-004  0.2104152E+03  0.7818608E-02  0.1141238E+00
          2   -1    0    0  501    0  0.00000000000E+00  0.00000000000E+00  0.53112900306E+03  0.53112900306E+03  0.25500000000E-02 0.  1.
         -2   -1    0    0    0  501 -0.00000000000E+00 -0.00000000000E+00 -0.20839835069E+02  0.20839835225E+02  0.25500000000E-02 0. -1.
    5000001    1    1    2    0    0  0.24143585886E+02 -0.66197378755E+02  0.22047862025E+03  0.24393611393E+03  0.77000000000E+02 0.  0.
   -5000001    1    1    2    0    0 -0.24143585886E+02  0.66197378755E+02  0.28981054774E+03  0.30803272435E+03  0.77000000000E+02 0.  0.
<mgrwt>
<rscale>  0 0.21041522E+03</rscale>
<asrwt>0</asrwt>
<pdfrwt beam="1">  1        2 0.81712137E-01 0.21041522E+03</pdfrwt>
<pdfrwt beam="2">  1       -2 0.32061292E-02 0.21041522E+03</pdfrwt>
<totfact> 0.21725216E+04</totfact>
</mgrwt>
</event>
<event>
 4    1  0.6148427E-004  0.4721095E+03  0.7818608E-02  0.1021326E+00
         -2   -1    0    0    0  501 -0.00000000000E+00  0.00000000000E+00  0.94205153601E+02  0.94205153636E+02  0.25500000000E-02 0.  1.
          2   -1    0    0  501    0  0.00000000000E+00 -0.00000000000E+00 -0.59149471902E+03  0.59149471902E+03  0.25500000000E-02 0. -1.
    5000001    1    1    2    0    0  0.35646589431E+02  0.22022737129E+03 -0.24182051407E+03  0.33790077749E+03  0.77000000000E+02 0.  0.
   -5000001    1    1    2    0    0 -0.35646589431E+02 -0.22022737129E+03 -0.25546905134E+03  0.34779909517E+03  0.77000000000E+02 0.  0.
<mgrwt>
<rscale>  0 0.47210952E+03</rscale>
<asrwt>0</asrwt>
<pdfrwt beam="1">  1        2 0.90999186E-01 0.47210952E+03</pdfrwt>
<pdfrwt beam="2">  1       -2 0.14493101E-01 0.47210952E+03</pdfrwt>
<totfact> 0.18692347E+03</totfact>
</mgrwt>
</event>
<event>
 4    1  0.6148427E-004  0.1834202E+03  0.7818608E-02  0.1164533E+00
         -2   -1    0    0    0  501 -0.00000000000E+00  0.00000000000E+00  0.42807051183E+01  0.42807058779E+01  0.25500000000E-02 0. -1.
          2   -1    0    0  501    0  0.00000000000E+00 -0.00000000000E+00 -0.19648023972E+04  0.19648023972E+04  0.25500000000E-02 0.  1.
    5000001    1    1    2    0    0 -0.38372750446E+02 -0.26635478622E+02 -0.79437345341E+03  0.79946238197E+03  0.77000000000E+02 0.  0.
   -5000001    1    1    2    0    0  0.38372750446E+02  0.26635478622E+02 -0.11661482387E+04  0.11696207211E+04  0.77000000000E+02 0.  0.
<mgrwt>
<rscale>  0 0.18342018E+03</rscale>
<asrwt>0</asrwt>
<pdfrwt beam="1">  1        2 0.30227657E+00 0.18342018E+03</pdfrwt>
<pdfrwt beam="2">  1       -2 0.65857165E-03 0.18342018E+03</pdfrwt>
<totfact> 0.29717344E+04</totfact>
</mgrwt>
</event>
<event>
 4    1  0.6148427E-004  0.5919724E+03  0.7818608E-02  0.9922202E-01
         -2   -1    0    0    0  501 -0.00000000000E+00  0.00000000000E+00  0.43289175354E+03  0.43289175355E+03  0.25500000000E-02 0. -1.
          2   -1    0    0  501    0  0.00000000000E+00 -0.00000000000E+00 -0.20237816397E+03  0.20237816399E+03  0.25500000000E-02 0.  1.
    5000001    1    1    2    0    0 -0.22508561500E+03 -0.17038794760E+03  0.16304774991E+03  0.33497635069E+03  0.77000000000E+02 0.  0.
   -5000001    1    1    2    0    0  0.22508561500E+03  0.17038794760E+03  0.67465839666E+02  0.30029356685E+03  0.77000000000E+02 0.  0.
<mgrwt>
<rscale>  0 0.59197243E+03</rscale>
<asrwt>0</asrwt>
<pdfrwt beam="1">  1        2 0.31135102E-01 0.59197243E+03</pdfrwt>
<pdfrwt beam="2">  1       -2 0.66598731E-01 0.59197243E+03</pdfrwt>
<totfact> 0.35710343E+02</totfact>
</mgrwt>
</event>
<event>
 4    1  0.6148427E-004  0.2100167E+03  0.7818608E-02  0.1141553E+00
          2   -1    0    0  501    0  0.00000000000E+00  0.00000000000E+00  0.42533549461E+03  0.42533549462E+03  0.25500000000E-02 0.  1.
         -2   -1    0    0    0  501 -0.00000000000E+00 -0.00000000000E+00 -0.25924847322E+02  0.25924847448E+02  0.25500000000E-02 0. -1.
    5000001    1    1    2    0    0  0.47656798202E+02  0.33843421704E+01  0.85700622521E+02  0.12472458012E+03  0.77000000000E+02 0.  0.
   -5000001    1    1    2    0    0 -0.47656798202E+02 -0.33843421704E+01  0.31371002477E+03  0.32653576195E+03  0.77000000000E+02 0.  0.
<mgrwt>
<rscale>  0 0.21001674E+03</rscale>
<asrwt>0</asrwt>
<pdfrwt beam="1">  1        2 0.65436231E-01 0.21001674E+03</pdfrwt>
<pdfrwt beam="2">  1       -2 0.39884380E-02 0.21001674E+03</pdfrwt>
<totfact> 0.20044355E+04</totfact>
</mgrwt>
</event>
<event>
 4    1  0.6148427E-004  0.1896079E+03  0.7818608E-02  0.1158815E+00
          2   -1    0    0  501    0  0.00000000000E+00  0.00000000000E+00  0.24126191583E+04  0.24126191583E+04  0.25500000000E-02 0.  1.
         -2   -1    0    0    0  501 -0.00000000000E+00 -0.00000000000E+00 -0.37253233236E+01  0.37253241964E+01  0.25500000000E-02 0. -1.
    5000001    1    1    2    0    0 -0.20152011076E+02  0.39728551759E+02  0.78674110397E+03  0.79175439756E+03  0.77000000000E+02 0.  0.
   -5000001    1    1    2    0    0  0.20152011076E+02 -0.39728551759E+02  0.16221527310E+04  0.16245900849E+04  0.77000000000E+02 0.  0.
<mgrwt>
<rscale>  0 0.18960788E+03</rscale>
<asrwt>0</asrwt>
<pdfrwt beam="1">  1        2 0.37117280E+00 0.18960788E+03</pdfrwt>
<pdfrwt beam="2">  1       -2 0.57312577E-03 0.18960788E+03</pdfrwt>
<totfact> 0.21128470E+04</totfact>
</mgrwt>
</event>
<event>
 4    1  0.6148427E-004  0.4403658E+03  0.7818608E-02  0.1030635E+00
          2   -1    0    0  501    0  0.00000000000E+00  0.00000000000E+00  0.21094963496E+04  0.21094963496E+04  0.25500000000E-02 0.  1.
         -2   -1    0    0    0  501 -0.00000000000E+00 -0.00000000000E+00 -0.22982031624E+02  0.22982031765E+02  0.25500000000E-02 0. -1.
    5000001    1    1    2    0    0  0.56056941199E+02 -0.17599770811E+03  0.14879767340E+04  0.15013731498E+04  0.77000000000E+02 0.  0.
   -5000001    1    1    2    0    0 -0.56056941199E+02  0.17599770811E+03  0.59853758395E+03  0.63110523158E+03  0.77000000000E+02 0.  0.
<mgrwt>
<rscale>  0 0.44036581E+03</rscale>
<asrwt>0</asrwt>
<pdfrwt beam="1">  1        2 0.32453797E+00 0.44036581E+03</pdfrwt>
<pdfrwt beam="2">  1       -2 0.35356965E-02 0.44036581E+03</pdfrwt>
<totfact> 0.21307730E+03</totfact>
</mgrwt>
</event>
<event>
 4    1  0.6148427E-004  0.3781234E+03  0.7818608E-02  0.1051630E+00
         -2   -1    0    0    0  501 -0.00000000000E+00  0.00000000000E+00  0.98101493663E+02  0.98101493696E+02  0.25500000000E-02 0. -1.
          2   -1    0    0  501    0  0.00000000000E+00 -0.00000000000E+00 -0.36436063330E+03  0.36436063330E+03  0.25500000000E-02 0.  1.
    5000001    1    1    2    0    0  0.68334229395E+01 -0.17171495276E+03 -0.15368989715E+03  0.24306851947E+03  0.77000000000E+02 0.  0.
   -5000001    1    1    2    0    0 -0.68334229395E+01  0.17171495276E+03 -0.11256924249E+03  0.21939360753E+03  0.77000000000E+02 0.  0.
<mgrwt>
<rscale>  0 0.37812338E+03</rscale>
<asrwt>0</asrwt>
<pdfrwt beam="1">  1        2 0.56055481E-01 0.37812338E+03</pdfrwt>
<pdfrwt beam="2">  1       -2 0.15092538E-01 0.37812338E+03</pdfrwt>
<totfact> 0.30125545E+03</totfact>
</mgrwt>
</event>
<event>
 4    1  0.6148427E-004  0.2678409E+03  0.7818608E-02  0.1102522E+00
          2   -1    0    0  501    0  0.00000000000E+00  0.00000000000E+00  0.88754953386E+03  0.88754953387E+03  0.25500000000E-02 0.  1.
         -2   -1    0    0    0  501 -0.00000000000E+00 -0.00000000000E+00 -0.20206974077E+02  0.20206974238E+02  0.25500000000E-02 0. -1.
    5000001    1    1    2    0    0 -0.87754567036E+02  0.69451872261E+01  0.65478891724E+03  0.66515158107E+03  0.77000000000E+02 0.  0.
   -5000001    1    1    2    0    0  0.87754567036E+02 -0.69451872261E+01  0.21255364255E+03  0.24260492703E+03  0.77000000000E+02 0.  0.
<mgrwt>
<rscale>  0 0.26784093E+03</rscale>
<asrwt>0</asrwt>
<pdfrwt beam="1">  1        2 0.13654607E+00 0.26784093E+03</pdfrwt>
<pdfrwt beam="2">  1       -2 0.31087655E-02 0.26784093E+03</pdfrwt>
<totfact> 0.12377548E+04</totfact>
</mgrwt>
</event>
<event>
 4    1  0.6148427E-004  0.4325351E+03  0.7818608E-02  0.1033062E+00
          2   -1    0    0  501    0  0.00000000000E+00  0.00000000000E+00  0.12082000673E+04  0.12082000673E+04  0.25500000000E-02 0.  1.
         -2   -1    0    0    0  501 -0.00000000000E+00 -0.00000000000E+00 -0.38711841618E+02  0.38711841702E+02  0.25500000000E-02 0. -1.
    5000001    1    1    2    0    0  0.46959664124E+02  0.19563298485E+03  0.63983311218E+03  0.67512434874E+03  0.77000000000E+02 0.  0.
   -5000001    1    1    2    0    0 -0.46959664124E+02 -0.19563298485E+03  0.52965511345E+03  0.57178756022E+03  0.77000000000E+02 0.  0.
<mgrwt>
<rscale>  0 0.43253508E+03</rscale>
<asrwt>0</asrwt>
<pdfrwt beam="1">  1        2 0.18587695E+00 0.43253508E+03</pdfrwt>
<pdfrwt beam="2">  1       -2 0.59556675E-02 0.43253508E+03</pdfrwt>
<totfact> 0.29644269E+03</totfact>
</mgrwt>
</event>
<event>
 4    1  0.6148427E-004  0.4888045E+03  0.7818608E-02  0.1016743E+00
         -2   -1    0    0    0  501 -0.00000000000E+00  0.00000000000E+00  0.32367986194E+02  0.32367986295E+02  0.25500000000E-02 0. -1.
          2   -1    0    0  501    0  0.00000000000E+00 -0.00000000000E+00 -0.18454175357E+04  0.18454175357E+04  0.25500000000E-02 0.  1.
    5000001    1    1    2    0    0 -0.22426814411E+03  0.58900064481E+02 -0.88283386609E+03  0.91601858779E+03  0.77000000000E+02 0.  0.
   -5000001    1    1    2    0    0  0.22426814411E+03 -0.58900064481E+02 -0.93021568337E+03  0.96176693416E+03  0.77000000000E+02 0.  0.
<mgrwt>
<rscale>  0 0.48880446E+03</rscale>
<asrwt>0</asrwt>
<pdfrwt beam="1">  1        2 0.28391031E+00 0.48880446E+03</pdfrwt>
<pdfrwt beam="2">  1       -2 0.49796916E-02 0.48880446E+03</pdfrwt>
<totfact> 0.17442602E+03</totfact>
</mgrwt>
</event>
<event>
 4    1  0.6148427E-004  0.2296133E+03  0.7818608E-02  0.1126912E+00
         -2   -1    0    0    0  501 -0.00000000000E+00  0.00000000000E+00  0.70699601228E+01  0.70699605827E+01  0.25500000000E-02 0. -1.
          2   -1    0    0  501    0  0.00000000000E+00 -0.00000000000E+00 -0.18643061889E+04  0.18643061889E+04  0.25500000000E-02 0.  1.
    5000001    1    1    2    0    0  0.21538439826E+02  0.79127873328E+02 -0.11156178307E+04  0.11212748409E+04  0.77000000000E+02 0.  0.
   -5000001    1    1    2    0    0 -0.21538439826E+02 -0.79127873328E+02 -0.74161839805E+03  0.75010130853E+03  0.77000000000E+02 0.  0.
<mgrwt>
<rscale>  0 0.22961333E+03</rscale>
<asrwt>0</asrwt>
<pdfrwt beam="1">  1        2 0.28681595E+00 0.22961333E+03</pdfrwt>
<pdfrwt beam="2">  1       -2 0.10876877E-02 0.22961333E+03</pdfrwt>
<totfact> 0.16423835E+04</totfact>
</mgrwt>
</event>
<event>
 4    1  0.6148427E-004  0.6567508E+03  0.7818608E-02  0.9794194E-01
         -2   -1    0    0    0  501 -0.00000000000E+00  0.00000000000E+00  0.70506514287E+03  0.70506514288E+03  0.25500000000E-02 0. -1.
          2   -1    0    0  501    0  0.00000000000E+00 -0.00000000000E+00 -0.15293680242E+03  0.15293680244E+03  0.25500000000E-02 0.  1.
    5000001    1    1    2    0    0 -0.28007172157E+03  0.90763644132E+02  0.11487322936E+03  0.32527383409E+03  0.77000000000E+02 0.  0.
   -5000001    1    1    2    0    0  0.28007172157E+03 -0.90763644132E+02  0.43725511109E+03  0.53272811123E+03  0.77000000000E+02 0.  0.
<mgrwt>
<rscale>  0 0.65675082E+03</rscale>
<asrwt>0</asrwt>
<pdfrwt beam="1">  1        2 0.23528739E-01 0.65675082E+03</pdfrwt>
<pdfrwt beam="2">  1       -2 0.10847156E+00 0.65675082E+03</pdfrwt>
<totfact> 0.16162020E+02</totfact>
</mgrwt>
</event>
<event>
 4    1  0.6148427E-004  0.1909423E+03  0.7818608E-02  0.1157614E+00
         -2   -1    0    0    0  501 -0.00000000000E+00  0.00000000000E+00  0.56839605355E+02  0.56839605412E+02  0.25500000000E-02 0. -1.
          2   -1    0    0  501    0  0.00000000000E+00 -0.00000000000E+00 -0.16035899644E+03  0.16035899646E+03  0.25500000000E-02 0.  1.
    5000001    1    1    2    0    0  0.30888372359E+01  0.49387958752E+02 -0.20878249687E+02  0.93880843068E+02  0.77000000000E+02 0.  0.
   -5000001    1    1    2    0    0 -0.30888372359E+01 -0.49387958752E+02 -0.82641141400E+02  0.12331775881E+03  0.77000000000E+02 0.  0.
<mgrwt>
<rscale>  0 0.19094232E+03</rscale>
<asrwt>0</asrwt>
<pdfrwt beam="1">  1        2 0.24670615E-01 0.19094232E+03</pdfrwt>
<pdfrwt beam="2">  1       -2 0.87445548E-02 0.19094232E+03</pdfrwt>
<totfact> 0.17234985E+04</totfact>
</mgrwt>
</event>
<event>
 4    1  0.6148427E-004  0.1730503E+03  0.7818608E-02  0.1174704E+00
         -2   -1    0    0    0  501 -0.00000000000E+00  0.00000000000E+00  0.48650805164E+01  0.48650811847E+01  0.25500000000E-02 0. -1.
          2   -1    0    0  501    0  0.00000000000E+00 -0.00000000000E+00 -0.15388444195E+04  0.15388444195E+04  0.25500000000E-02 0.  1.
    5000001    1    1    2    0    0 -0.10518352392E+02  0.22421525953E+02 -0.10411059564E+04  0.10442432538E+04  0.77000000000E+02 0.  0.
   -5000001    1    1    2    0    0  0.10518352392E+02 -0.22421525953E+02 -0.49287338252E+03  0.49946624687E+03  0.77000000000E+02 0.  0.
<mgrwt>
<rscale>  0 0.17305031E+03</rscale>
<asrwt>0</asrwt>
<pdfrwt beam="1">  1        2 0.23674491E+00 0.17305031E+03</pdfrwt>
<pdfrwt beam="2">  1       -2 0.74847520E-03 0.17305031E+03</pdfrwt>
<totfact> 0.40998509E+04</totfact>
</mgrwt>
</event>
<event>
 4    1  0.6148427E-004  0.2639740E+03  0.7818608E-02  0.1104779E+00
          2   -1    0    0  501    0  0.00000000000E+00  0.00000000000E+00  0.94697573846E+03  0.94697573846E+03  0.25500000000E-02 0.  1.
         -2   -1    0    0    0  501 -0.00000000000E+00 -0.00000000000E+00 -0.18396006150E+02  0.18396006327E+02  0.25500000000E-02 0. -1.
    5000001    1    1    2    0    0  0.95069820769E+02 -0.20611747175E+02  0.62899845757E+03  0.64111713015E+03  0.77000000000E+02 0.  0.
   -5000001    1    1    2    0    0 -0.95069820769E+02  0.20611747175E+02  0.29958127474E+03  0.32425461464E+03  0.77000000000E+02 0.  0.
<mgrwt>
<rscale>  0 0.26397403E+03</rscale>
<asrwt>0</asrwt>
<pdfrwt beam="1">  1        2 0.14568857E+00 0.26397403E+03</pdfrwt>
<pdfrwt beam="2">  1       -2 0.28301550E-02 0.26397403E+03</pdfrwt>
<totfact> 0.13033500E+04</totfact>
</mgrwt>
</event>
<event>
 4    1  0.6148427E-004  0.2361142E+03  0.7818608E-02  0.1122409E+00
         -2   -1    0    0    0  501 -0.00000000000E+00  0.00000000000E+00  0.69125900660E+01  0.69125905363E+01  0.25500000000E-02 0. -1.
          2   -1    0    0  501    0  0.00000000000E+00 -0.00000000000E+00 -0.20162446543E+04  0.20162446543E+04  0.25500000000E-02 0.  1.
    5000001    1    1    2    0    0  0.46177448860E+02 -0.15724655725E+02 -0.16475276864E+04  0.16500473021E+04  0.77000000000E+02 0.  0.
   -5000001    1    1    2    0    0 -0.46177448860E+02  0.15724655725E+02 -0.36180437788E+03  0.37310994282E+03  0.77000000000E+02 0.  0.
<mgrwt>
<rscale>  0 0.23611415E+03</rscale>
<asrwt>0</asrwt>
<pdfrwt beam="1">  1        2 0.31019102E+00 0.23611415E+03</pdfrwt>
<pdfrwt beam="2">  1       -2 0.10634770E-02 0.23611415E+03</pdfrwt>
<totfact> 0.14145518E+04</totfact>
</mgrwt>
</event>
<event>
 4    1  0.6148427E-004  0.2337286E+03  0.7818608E-02  0.1124043E+00
          2   -1    0    0  501    0  0.00000000000E+00  0.00000000000E+00  0.93131577383E+03  0.93131577383E+03  0.25500000000E-02 0.  1.
         -2   -1    0    0    0  501 -0.00000000000E+00 -0.00000000000E+00 -0.14664479245E+02  0.14664479467E+02  0.25500000000E-02 0. -1.
    5000001    1    1    2    0    0  0.86024892154E+02 -0.10779317396E+02  0.51722602286E+03  0.53006436824E+03  0.77000000000E+02 0.  0.
   -5000001    1    1    2    0    0 -0.86024892154E+02  0.10779317396E+02  0.39942527172E+03  0.41591588506E+03  0.77000000000E+02 0.  0.
<mgrwt>
<rscale>  0 0.23372857E+03</rscale>
<asrwt>0</asrwt>
<pdfrwt beam="1">  1        2 0.14327934E+00 0.23372857E+03</pdfrwt>
<pdfrwt beam="2">  1       -2 0.22560739E-02 0.23372857E+03</pdfrwt>
<totfact> 0.18541375E+04</totfact>
</mgrwt>
</event>
<event>
 4    1  0.6148427E-004  0.3058264E+03  0.7818608E-02  0.1082364E+00
          2   -1    0    0  501    0  0.00000000000E+00  0.00000000000E+00  0.46258653168E+03  0.46258653169E+03  0.25500000000E-02 0.  1.
         -2   -1    0    0    0  501 -0.00000000000E+00 -0.00000000000E+00 -0.50547194308E+02  0.50547194372E+02  0.25500000000E-02 0. -1.
    5000001    1    1    2    0    0  0.87100433469E+02 -0.79115619366E+01  0.37215632188E+03  0.38997231470E+03  0.77000000000E+02 0.  0.
   -5000001    1    1    2    0    0 -0.87100433469E+02  0.79115619366E+01  0.39883015499E+02  0.12316141136E+03  0.77000000000E+02 0.  0.
<mgrwt>
<rscale>  0 0.30582643E+03</rscale>
<asrwt>0</asrwt>
<pdfrwt beam="1">  1        2 0.71167163E-01 0.30582643E+03</pdfrwt>
<pdfrwt beam="2">  1       -2 0.77764910E-02 0.30582643E+03</pdfrwt>
<totfact> 0.67105231E+03</totfact>
</mgrwt>
</event>
<event>
 4    1  0.6148427E-004  0.2150393E+03  0.7818608E-02  0.1137636E+00
          2   -1    0    0  501    0  0.00000000000E+00  0.00000000000E+00  0.80503955527E+02  0.80503955567E+02  0.25500000000E-02 0.  1.
         -2   -1    0    0    0  501 -0.00000000000E+00 -0.00000000000E+00 -0.14360139396E+03  0.14360139399E+03  0.25500000000E-02 0. -1.
    5000001    1    1    2    0    0 -0.28064205605E+02  0.54317395565E+02  0.13800214065E+02  0.99284565797E+02  0.77000000000E+02 0.  0.
   -5000001    1    1    2    0    0  0.28064205605E+02 -0.54317395565E+02 -0.76897652501E+02  0.12482078376E+03  0.77000000000E+02 0.  0.
<mgrwt>
<rscale>  0 0.21503935E+03</rscale>
<asrwt>0</asrwt>
<pdfrwt beam="1">  1        2 0.12385224E-01 0.21503935E+03</pdfrwt>
<pdfrwt beam="2">  1       -2 0.22092522E-01 0.21503935E+03</pdfrwt>
<totfact> 0.84735648E+03</totfact>
</mgrwt>
</event>
<event>
 4    1  0.6148427E-004  0.4210290E+03  0.7818608E-02  0.1036732E+00
          2   -1    0    0  501    0  0.00000000000E+00  0.00000000000E+00  0.11304507419E+04  0.11304507419E+04  0.25500000000E-02 0.  1.
         -2   -1    0    0    0  501 -0.00000000000E+00 -0.00000000000E+00 -0.39202374856E+02  0.39202374939E+02  0.25500000000E-02 0. -1.
    5000001    1    1    2    0    0 -0.17207910800E+03 -0.47382835912E+01  0.28570371256E+03  0.34232920137E+03  0.77000000000E+02 0.  0.
   -5000001    1    1    2    0    0  0.17207910800E+03  0.47382835912E+01  0.80554465448E+03  0.82732391546E+03  0.77000000000E+02 0.  0.
<mgrwt>
<rscale>  0 0.42102900E+03</rscale>
<asrwt>0</asrwt>
<pdfrwt beam="1">  1        2 0.17391550E+00 0.42102900E+03</pdfrwt>
<pdfrwt beam="2">  1       -2 0.60311347E-02 0.42102900E+03</pdfrwt>
<totfact> 0.32278729E+03</totfact>
</mgrwt>
</event>
<event>
 4    1  0.6148427E-004  0.6501317E+03  0.7818608E-02  0.9806532E-01
         -2   -1    0    0    0  501 -0.00000000000E+00  0.00000000000E+00  0.11053106562E+03  0.11053106565E+03  0.25500000000E-02 0. -1.
          2   -1    0    0  501    0  0.00000000000E+00 -0.00000000000E+00 -0.95600098005E+03  0.95600098006E+03  0.25500000000E-02 0.  1.
    5000001    1    1    2    0    0  0.53215292827E+02  0.23197709366E+03 -0.76328331587E+03  0.80322827370E+03  0.77000000000E+02 0.  0.
   -5000001    1    1    2    0    0 -0.53215292827E+02 -0.23197709366E+03 -0.82186598561E+02  0.26330377201E+03  0.77000000000E+02 0.  0.
<mgrwt>
<rscale>  0 0.65013170E+03</rscale>
<asrwt>0</asrwt>
<pdfrwt beam="1">  1        2 0.14707707E+00 0.65013170E+03</pdfrwt>
<pdfrwt beam="2">  1       -2 0.17004780E-01 0.65013170E+03</pdfrwt>
<totfact> 0.76646149E+02</totfact>
</mgrwt>
</event>
<event>
 4    1  0.6148427E-004  0.3093193E+03  0.7818608E-02  0.1080673E+00
          2   -1    0    0  501    0  0.00000000000E+00  0.00000000000E+00  0.52194791774E+02  0.52194791837E+02  0.25500000000E-02 0.  1.
         -2   -1    0    0    0  501 -0.00000000000E+00 -0.00000000000E+00 -0.45827580233E+03  0.45827580234E+03  0.25500000000E-02 0. -1.
    5000001    1    1    2    0    0  0.58624601379E+02 -0.11282579224E+03 -0.13255678505E+03  0.19916526942E+03  0.77000000000E+02 0.  0.
   -5000001    1    1    2    0    0 -0.58624601379E+02  0.11282579224E+03 -0.27352422551E+03  0.31130532476E+03  0.77000000000E+02 0.  0.
<mgrwt>
<rscale>  0 0.30931932E+03</rscale>
<asrwt>0</asrwt>
<pdfrwt beam="1">  1        2 0.80299683E-02 0.30931932E+03</pdfrwt>
<pdfrwt beam="2">  1       -2 0.70503967E-01 0.30931932E+03</pdfrwt>
<totfact> 0.15931276E+03</totfact>
</mgrwt>
</event>
<event>
 4    1  0.6148427E-004  0.4885236E+03  0.7818608E-02  0.1016819E+00
         -2   -1    0    0    0  501 -0.00000000000E+00  0.00000000000E+00  0.10217193164E+03  0.10217193168E+03  0.25500000000E-02 0. -1.
          2   -1    0    0  501    0  0.00000000000E+00 -0.00000000000E+00 -0.58395511319E+03  0.58395511320E+03  0.25500000000E-02 0.  1.
    5000001    1    1    2    0    0 -0.34593909197E+02  0.13350519351E+03 -0.50257375998E+03  0.52681093332E+03  0.77000000000E+02 0.  0.
   -5000001    1    1    2    0    0  0.34593909197E+02 -0.13350519351E+03  0.20790578430E+02  0.15931611155E+03  0.77000000000E+02 0.  0.
<mgrwt>
<rscale>  0 0.48852358E+03</rscale>
<asrwt>0</asrwt>
<pdfrwt beam="1">  1        2 0.89839246E-01 0.48852358E+03</pdfrwt>
<pdfrwt beam="2">  1       -2 0.15718759E-01 0.48852358E+03</pdfrwt>
<totfact> 0.16564234E+03</totfact>
</mgrwt>
</event>
<event>
 4    1  0.6148427E-004  0.6586420E+03  0.7818608E-02  0.9790697E-01
         -2   -1    0    0    0  501 -0.00000000000E+00  0.00000000000E+00  0.23287507744E+03  0.23287507745E+03  0.25500000000E-02 0. -1.
          2   -1    0    0  501    0  0.00000000000E+00 -0.00000000000E+00 -0.46571036273E+03  0.46571036274E+03  0.25500000000E-02 0.  1.
    5000001    1    1    2    0    0  0.15978181100E+03 -0.23160222621E+03 -0.27850391626E+03  0.40331532290E+03  0.77000000000E+02 0.  0.
   -5000001    1    1    2    0    0 -0.15978181100E+03  0.23160222621E+03  0.45668630968E+02  0.29527011729E+03  0.77000000000E+02 0.  0.
<mgrwt>
<rscale>  0 0.65864205E+03</rscale>
<asrwt>0</asrwt>
<pdfrwt beam="1">  1        2 0.71647748E-01 0.65864205E+03</pdfrwt>
<pdfrwt beam="2">  1       -2 0.35826935E-01 0.65864205E+03</pdfrwt>
<totfact> 0.49335812E+02</totfact>
</mgrwt>
</event>
<event>
 4    1  0.6148427E-004  0.2622785E+03  0.7818608E-02  0.1105782E+00
         -2   -1    0    0    0  501 -0.00000000000E+00  0.00000000000E+00  0.20656150137E+02  0.20656150295E+02  0.25500000000E-02 0. -1.
          2   -1    0    0  501    0  0.00000000000E+00 -0.00000000000E+00 -0.83256089999E+03  0.83256089999E+03  0.25500000000E-02 0.  1.
    5000001    1    1    2    0    0 -0.47969397373E+02 -0.33611557356E+02 -0.69395154616E+03  0.70066293486E+03  0.77000000000E+02 0.  0.
   -5000001    1    1    2    0    0  0.47969397373E+02  0.33611557356E+02 -0.11795320369E+03  0.15255411543E+03  0.77000000000E+02 0.  0.
<mgrwt>
<rscale>  0 0.26227850E+03</rscale>
<asrwt>0</asrwt>
<pdfrwt beam="1">  1        2 0.12808627E+00 0.26227850E+03</pdfrwt>
<pdfrwt beam="2">  1       -2 0.31778699E-02 0.26227850E+03</pdfrwt>
<totfact> 0.13015394E+04</totfact>
</mgrwt>
</event>
<event>
 4    1  0.6148427E-004  0.8283207E+03  0.7818608E-02  0.9519905E-01
          2   -1    0    0  501    0  0.00000000000E+00  0.00000000000E+00  0.27185079632E+03  0.27185079633E+03  0.25500000000E-02 0.  1.
         -2   -1    0    0    0  501 -0.00000000000E+00 -0.00000000000E+00 -0.63096667621E+03  0.63096667621E+03  0.25500000000E-02 0. -1.
    5000001    1    1    2    0    0 -0.32409610202E+03 -0.18665018819E+03 -0.35436706001E+03  0.52094298087E+03  0.77000000000E+02 0.  0.
   -5000001    1    1    2    0    0  0.32409610202E+03  0.18665018819E+03 -0.47488198788E+01  0.38187449167E+03  0.77000000000E+02 0.  0.
<mgrwt>
<rscale>  0 0.82832069E+03</rscale>
<asrwt>0</asrwt>
<pdfrwt beam="1">  1        2 0.41823200E-01 0.82832069E+03</pdfrwt>
<pdfrwt beam="2">  1       -2 0.97071796E-01 0.82832069E+03</pdfrwt>
<totfact> 0.10926343E+02</totfact>
</mgrwt>
</event>
<event>
 4    1  0.6148427E-004  0.3325941E+03  0.7818608E-02  0.1069995E+00
          2   -1    0    0  501    0  0.00000000000E+00  0.00000000000E+00  0.62915005243E+03  0.62915005244E+03  0.25500000000E-02 0.  1.
         -2   -1    0    0    0  501 -0.00000000000E+00 -0.00000000000E+00 -0.43955668020E+02  0.43955668094E+02  0.25500000000E-02 0. -1.
    5000001    1    1    2    0    0  0.41273581620E+02  0.93648417407E+02  0.50727491889E+03  0.52319248653E+03  0.77000000000E+02 0.  0.
   -5000001    1    1    2    0    0 -0.41273581620E+02 -0.93648417407E+02  0.77919465523E+02  0.14991323401E+03  0.77000000000E+02 0.  0.
<mgrwt>
<rscale>  0 0.33259411E+03</rscale>
<asrwt>0</asrwt>
<pdfrwt beam="1">  1        2 0.96792311E-01 0.33259411E+03</pdfrwt>
<pdfrwt beam="2">  1       -2 0.67624108E-02 0.33259411E+03</pdfrwt>
<totfact> 0.58832843E+03</totfact>
</mgrwt>
</event>
<event>
 4    1  0.6148427E-004  0.2012501E+03  0.7818608E-02  0.1148689E+00
          2   -1    0    0  501    0  0.00000000000E+00  0.00000000000E+00  0.36885470358E+02  0.36885470446E+02  0.25500000000E-02 0.  1.
         -2   -1    0    0    0  501 -0.00000000000E+00 -0.00000000000E+00 -0.27450915042E+03  0.27450915043E+03  0.25500000000E-02 0. -1.
    5000001    1    1    2    0    0 -0.46274178143E+02 -0.25700162518E+02 -0.17659483609E+03  0.19979122615E+03  0.77000000000E+02 0.  0.
   -5000001    1    1    2    0    0  0.46274178143E+02  0.25700162518E+02 -0.61028843973E+02  0.11160339472E+03  0.77000000000E+02 0.  0.
<mgrwt>
<rscale>  0 0.20125008E+03</rscale>
<asrwt>0</asrwt>
<pdfrwt beam="1">  1        2 0.56746880E-02 0.20125008E+03</pdfrwt>
<pdfrwt beam="2">  1       -2 0.42232176E-01 0.20125008E+03</pdfrwt>
<totfact> 0.69386709E+03</totfact>
</mgrwt>
</event>
<event>
 4    1  0.6148427E-004  0.2409532E+03  0.7818608E-02  0.1119159E+00
         -2   -1    0    0    0  501 -0.00000000000E+00  0.00000000000E+00  0.11399633622E+02  0.11399633907E+02  0.25500000000E-02 0. -1.
          2   -1    0    0  501    0  0.00000000000E+00 -0.00000000000E+00 -0.12732523904E+04  0.12732523904E+04  0.25500000000E-02 0.  1.
    5000001    1    1    2    0    0  0.19024650842E+02 -0.84753864107E+02 -0.80290113185E+03  0.81124865630E+03  0.77000000000E+02 0.  0.
   -5000001    1    1    2    0    0 -0.19024650842E+02  0.84753864107E+02 -0.45895162497E+03  0.47340336805E+03  0.77000000000E+02 0.  0.
<mgrwt>
<rscale>  0 0.24095320E+03</rscale>
<asrwt>0</asrwt>
<pdfrwt beam="1">  1        2 0.19588487E+00 0.24095320E+03</pdfrwt>
<pdfrwt beam="2">  1       -2 0.17537908E-02 0.24095320E+03</pdfrwt>
<totfact> 0.16922527E+04</totfact>
</mgrwt>
</event>
<event>
 4    1  0.6148427E-004  0.2198574E+03  0.7818608E-02  0.1133989E+00
         -2   -1    0    0    0  501 -0.00000000000E+00  0.00000000000E+00  0.35636150037E+01  0.35636159160E+01  0.25500000000E-02 0. -1.
          2   -1    0    0  501    0  0.00000000000E+00 -0.00000000000E+00 -0.33910283973E+04  0.33910283973E+04  0.25500000000E-02 0.  1.
    5000001    1    1    2    0    0 -0.76799789961E+02 -0.43095982811E+00 -0.14462456287E+04  0.14503288634E+04  0.77000000000E+02 0.  0.
   -5000001    1    1    2    0    0  0.76799789961E+02  0.43095982811E+00 -0.19412191536E+04  0.19442631498E+04  0.77000000000E+02 0.  0.
<mgrwt>
<rscale>  0 0.21985742E+03</rscale>
<asrwt>0</asrwt>
<pdfrwt beam="1">  1        2 0.52169410E+00 0.21985742E+03</pdfrwt>
<pdfrwt beam="2">  1       -2 0.54825124E-03 0.21985742E+03</pdfrwt>
<totfact> 0.61010487E+03</totfact>
</mgrwt>
</event>
<event>
 4    1  0.6148427E-004  0.2732759E+03  0.7818608E-02  0.1099419E+00
         -2   -1    0    0    0  501 -0.00000000000E+00  0.00000000000E+00  0.12030228089E+02  0.12030228360E+02  0.25500000000E-02 0. -1.
          2   -1    0    0  501    0  0.00000000000E+00 -0.00000000000E+00 -0.15519185089E+04  0.15519185089E+04  0.25500000000E-02 0.  1.
    5000001    1    1    2    0    0 -0.19565770665E+02 -0.11063266111E+03 -0.70763769025E+03  0.72062646756E+03  0.77000000000E+02 0.  0.
   -5000001    1    1    2    0    0  0.19565770665E+02  0.11063266111E+03 -0.83225059055E+03  0.84332226969E+03  0.77000000000E+02 0.  0.
<mgrwt>
<rscale>  0 0.27327593E+03</rscale>
<asrwt>0</asrwt>
<pdfrwt beam="1">  1        2 0.23875654E+00 0.27327593E+03</pdfrwt>
<pdfrwt beam="2">  1       -2 0.18508056E-02 0.27327593E+03</pdfrwt>
<totfact> 0.11089493E+04</totfact>
</mgrwt>
</event>
<event>
 4    1  0.6148427E-004  0.2651010E+03  0.7818608E-02  0.1104117E+00
          2   -1    0    0  501    0  0.00000000000E+00  0.00000000000E+00  0.21170762104E+04  0.21170762104E+04  0.25500000000E-02 0.  1.
         -2   -1    0    0    0  501 -0.00000000000E+00 -0.00000000000E+00 -0.82990070809E+01  0.82990074727E+01  0.25500000000E-02 0. -1.
    5000001    1    1    2    0    0  0.10090491940E+03  0.38123800479E+02  0.10730257824E+04  0.10811792435E+04  0.77000000000E+02 0.  0.
   -5000001    1    1    2    0    0 -0.10090491940E+03 -0.38123800479E+02  0.10357514209E+04  0.10441959743E+04  0.77000000000E+02 0.  0.
<mgrwt>
<rscale>  0 0.26510097E+03</rscale>
<asrwt>0</asrwt>
<pdfrwt beam="1">  1        2 0.32570352E+00 0.26510097E+03</pdfrwt>
<pdfrwt beam="2">  1       -2 0.12767724E-02 0.26510097E+03</pdfrwt>
<totfact> 0.96183759E+03</totfact>
</mgrwt>
</event>
<event>
 4    1  0.6148427E-004  0.2133755E+03  0.7818608E-02  0.1138921E+00
         -2   -1    0    0    0  501 -0.00000000000E+00  0.00000000000E+00  0.60036170802E+02  0.60036170857E+02  0.25500000000E-02 0. -1.
          2   -1    0    0  501    0  0.00000000000E+00 -0.00000000000E+00 -0.18959025801E+03  0.18959025802E+03  0.25500000000E-02 0.  1.
    5000001    1    1    2    0    0  0.27466513112E+02 -0.60789097430E+02 -0.27716187490E+02  0.10557893141E+03  0.77000000000E+02 0.  0.
   -5000001    1    1    2    0    0 -0.27466513112E+02  0.60789097430E+02 -0.10183789971E+03  0.14404749747E+03  0.77000000000E+02 0.  0.
<mgrwt>
<rscale>  0 0.21337547E+03</rscale>
<asrwt>0</asrwt>
<pdfrwt beam="1">  1        2 0.29167732E-01 0.21337547E+03</pdfrwt>
<pdfrwt beam="2">  1       -2 0.92363341E-02 0.21337547E+03</pdfrwt>
<totfact> 0.13250306E+04</totfact>
</mgrwt>
</event>
<event>
 4    1  0.6148427E-004  0.3759018E+03  0.7818608E-02  0.1052459E+00
          2   -1    0    0  501    0  0.00000000000E+00  0.00000000000E+00  0.10269609089E+03  0.10269609092E+03  0.25500000000E-02 0.  1.
         -2   -1    0    0    0  501 -0.00000000000E+00 -0.00000000000E+00 -0.34398144361E+03  0.34398144362E+03  0.25500000000E-02 0. -1.
    5000001    1    1    2    0    0  0.14142412744E+03  0.90474752380E+02 -0.79306758656E+02  0.20101001619E+03  0.77000000000E+02 0.  0.
   -5000001    1    1    2    0    0 -0.14142412744E+03 -0.90474752380E+02 -0.16197859406E+03  0.24566751835E+03  0.77000000000E+02 0.  0.
<mgrwt>
<rscale>  0 0.37590185E+03</rscale>
<asrwt>0</asrwt>
<pdfrwt beam="1">  1        2 0.15799399E-01 0.37590185E+03</pdfrwt>
<pdfrwt beam="2">  1       -2 0.52920222E-01 0.37590185E+03</pdfrwt>
<totfact> 0.12624745E+03</totfact>
</mgrwt>
</event>
<event>
 4    1  0.6148427E-004  0.4535030E+03  0.7818608E-02  0.1026683E+00
          2   -1    0    0  501    0  0.00000000000E+00  0.00000000000E+00  0.97076624841E+03  0.97076624841E+03  0.25500000000E-02 0.  1.
         -2   -1    0    0    0  501 -0.00000000000E+00 -0.00000000000E+00 -0.52964603223E+02  0.52964603285E+02  0.25500000000E-02 0. -1.
    5000001    1    1    2    0    0 -0.60309529300E+02  0.16069728787E+03  0.74467532322E+03  0.76806978503E+03  0.77000000000E+02 0.  0.
   -5000001    1    1    2    0    0  0.60309529300E+02 -0.16069728787E+03  0.17312632196E+03  0.25566106667E+03  0.77000000000E+02 0.  0.
<mgrwt>
<rscale>  0 0.45350303E+03</rscale>
<asrwt>0</asrwt>
<pdfrwt beam="1">  1        2 0.14934865E+00 0.45350303E+03</pdfrwt>
<pdfrwt beam="2">  1       -2 0.81484009E-02 0.45350303E+03</pdfrwt>
<totfact> 0.25212721E+03</totfact>
</mgrwt>
</event>
<event>
 4    1  0.6148427E-004  0.2694029E+03  0.7818608E-02  0.1101622E+00
         -2   -1    0    0    0  501 -0.00000000000E+00  0.00000000000E+00  0.11838389177E+03  0.11838389180E+03  0.25500000000E-02 0. -1.
          2   -1    0    0  501    0  0.00000000000E+00 -0.00000000000E+00 -0.15326817797E+03  0.15326817799E+03  0.25500000000E-02 0.  1.
    5000001    1    1    2    0    0 -0.77899398165E+02 -0.61618378906E+02  0.31442933491E+02  0.12954844237E+03  0.77000000000E+02 0.  0.
   -5000001    1    1    2    0    0  0.77899398165E+02  0.61618378906E+02 -0.66327219691E+02  0.14210362742E+03  0.77000000000E+02 0.  0.
<mgrwt>
<rscale>  0 0.26940292E+03</rscale>
<asrwt>0</asrwt>
<pdfrwt beam="1">  1        2 0.23579720E-01 0.26940292E+03</pdfrwt>
<pdfrwt beam="2">  1       -2 0.18212906E-01 0.26940292E+03</pdfrwt>
<totfact> 0.56257333E+03</totfact>
</mgrwt>
</event>
<event>
 4    1  0.6148427E-004  0.6171570E+03  0.7818608E-02  0.9870437E-01
          2   -1    0    0  501    0  0.00000000000E+00  0.00000000000E+00  0.33988340389E+04  0.33988340389E+04  0.25500000000E-02 0.  1.
         -2   -1    0    0    0  501 -0.00000000000E+00 -0.00000000000E+00 -0.28015690605E+02  0.28015690721E+02  0.25500000000E-02 0. -1.
    5000001    1    1    2    0    0  0.15261221581E+03  0.21276660997E+03  0.88591472010E+03  0.92700270227E+03  0.77000000000E+02 0.  0.
   -5000001    1    1    2    0    0 -0.15261221581E+03 -0.21276660997E+03  0.24849036282E+04  0.24998470274E+04  0.77000000000E+02 0.  0.
<mgrwt>
<rscale>  0 0.61715698E+03</rscale>
<asrwt>0</asrwt>
<pdfrwt beam="1">  1        2 0.52289745E+00 0.61715698E+03</pdfrwt>
<pdfrwt beam="2">  1       -2 0.43101070E-02 0.61715698E+03</pdfrwt>
<totfact> 0.27064026E+02</totfact>
</mgrwt>
</event>
<event>
 4    1  0.6148427E-004  0.1729779E+03  0.7818608E-02  0.1174777E+00
          2   -1    0    0  501    0  0.00000000000E+00  0.00000000000E+00  0.23100867102E+02  0.23100867243E+02  0.25500000000E-02 0.  1.
         -2   -1    0    0    0  501 -0.00000000000E+00 -0.00000000000E+00 -0.32381198054E+03  0.32381198055E+03  0.25500000000E-02 0. -1.
    5000001    1    1    2    0    0 -0.17630925678E+02  0.18916310957E+02 -0.90771947438E+02  0.12180813931E+03  0.77000000000E+02 0.  0.
   -5000001    1    1    2    0    0  0.17630925678E+02 -0.18916310957E+02 -0.20993916600E+03  0.22510470848E+03  0.77000000000E+02 0.  0.
<mgrwt>
<rscale>  0 0.17297789E+03</rscale>
<asrwt>0</asrwt>
<pdfrwt beam="1">  1        2 0.35539798E-02 0.17297789E+03</pdfrwt>
<pdfrwt beam="2">  1       -2 0.49817224E-01 0.17297789E+03</pdfrwt>
<totfact> 0.92307487E+03</totfact>
</mgrwt>
</event>
<event>
 4    1  0.6148427E-004  0.3004474E+03  0.7818608E-02  0.1085017E+00
         -2   -1    0    0    0  501 -0.00000000000E+00  0.00000000000E+00  0.27160642380E+03  0.27160642381E+03  0.25500000000E-02 0. -1.
          2   -1    0    0  501    0  0.00000000000E+00 -0.00000000000E+00 -0.83087715126E+02  0.83087715166E+02  0.25500000000E-02 0.  1.
    5000001    1    1    2    0    0  0.50907620272E+02 -0.42540493570E+02 -0.36333947034E+02  0.10793718128E+03  0.77000000000E+02 0.  0.
   -5000001    1    1    2    0    0 -0.50907620272E+02  0.42540493570E+02  0.22485265571E+03  0.24675695770E+03  0.77000000000E+02 0.  0.
<mgrwt>
<rscale>  0 0.30044738E+03</rscale>
<asrwt>0</asrwt>
<pdfrwt beam="1">  1        2 0.12782726E-01 0.30044738E+03</pdfrwt>
<pdfrwt beam="2">  1       -2 0.41785603E-01 0.30044738E+03</pdfrwt>
<totfact> 0.25890087E+03</totfact>
</mgrwt>
</event>
<event>
 4    1  0.6148427E-004  0.1987118E+03  0.7818608E-02  0.1150830E+00
          2   -1    0    0  501    0  0.00000000000E+00  0.00000000000E+00  0.82389853380E+03  0.82389853381E+03  0.25500000000E-02 0.  1.
         -2   -1    0    0    0  501 -0.00000000000E+00 -0.00000000000E+00 -0.11981569101E+02  0.11981569372E+02  0.25500000000E-02 0. -1.
    5000001    1    1    2    0    0  0.47917704282E+02  0.40544804924E+02  0.39916302190E+03  0.41133940443E+03  0.77000000000E+02 0.  0.
   -5000001    1    1    2    0    0 -0.47917704282E+02 -0.40544804924E+02  0.41275394280E+03  0.42454069875E+03  0.77000000000E+02 0.  0.
<mgrwt>
<rscale>  0 0.19871182E+03</rscale>
<asrwt>0</asrwt>
<pdfrwt beam="1">  1        2 0.12675371E+00 0.19871182E+03</pdfrwt>
<pdfrwt beam="2">  1       -2 0.18433171E-02 0.19871182E+03</pdfrwt>
<totfact> 0.28997926E+04</totfact>
</mgrwt>
</event>
<event>
 4    1  0.6148427E-004  0.2044712E+03  0.7818608E-02  0.1146021E+00
         -2   -1    0    0    0  501 -0.00000000000E+00  0.00000000000E+00  0.94241304447E+02  0.94241304482E+02  0.25500000000E-02 0. -1.
          2   -1    0    0  501    0  0.00000000000E+00 -0.00000000000E+00 -0.11090808856E+03  0.11090808859E+03  0.25500000000E-02 0.  1.
    5000001    1    1    2    0    0 -0.10651240473E+02 -0.66054947245E+02 -0.15169061361E+02  0.10313004122E+03  0.77000000000E+02 0.  0.
   -5000001    1    1    2    0    0  0.10651240473E+02  0.66054947245E+02 -0.14977227535E+01  0.10201935185E+03  0.77000000000E+02 0.  0.
<mgrwt>
<rscale>  0 0.20447125E+03</rscale>
<asrwt>0</asrwt>
<pdfrwt beam="1">  1        2 0.17062783E-01 0.20447125E+03</pdfrwt>
<pdfrwt beam="2">  1       -2 0.14498662E-01 0.20447125E+03</pdfrwt>
<totfact> 0.11730161E+04</totfact>
</mgrwt>
</event>
<event>
 4    1  0.6148427E-004  0.3728040E+03  0.7818608E-02  0.1053626E+00
          2   -1    0    0  501    0  0.00000000000E+00  0.00000000000E+00  0.45824391956E+03  0.45824391957E+03  0.25500000000E-02 0.  1.
         -2   -1    0    0    0  501 -0.00000000000E+00 -0.00000000000E+00 -0.75823619375E+02  0.75823619418E+02  0.25500000000E-02 0. -1.
    5000001    1    1    2    0    0  0.62746234703E+02 -0.15521064447E+03  0.23145688848E+03  0.29585253988E+03  0.77000000000E+02 0.  0.
   -5000001    1    1    2    0    0 -0.62746234703E+02  0.15521064447E+03  0.15096341170E+03  0.23821499911E+03  0.77000000000E+02 0.  0.
<mgrwt>
<rscale>  0 0.37280404E+03</rscale>
<asrwt>0</asrwt>
<pdfrwt beam="1">  1        2 0.70499064E-01 0.37280404E+03</pdfrwt>
<pdfrwt beam="2">  1       -2 0.11665172E-01 0.37280404E+03</pdfrwt>
<totfact> 0.35722320E+03</totfact>
</mgrwt>
</event>
<event>
 4    1  0.6148427E-004  0.4318677E+03  0.7818608E-02  0.1033272E+00
         -2   -1    0    0    0  501 -0.00000000000E+00  0.00000000000E+00  0.17822192235E+02  0.17822192418E+02  0.25500000000E-02 0. -1.
          2   -1    0    0  501    0  0.00000000000E+00 -0.00000000000E+00 -0.26162564462E+04  0.26162564462E+04  0.25500000000E-02 0.  1.
    5000001    1    1    2    0    0  0.35182167017E+02 -0.18158008624E+03 -0.17905517649E+04  0.18017252108E+04  0.77000000000E+02 0.  0.
   -5000001    1    1    2    0    0 -0.35182167017E+02  0.18158008624E+03 -0.80788248903E+03  0.83235342774E+03  0.77000000000E+02 0.  0.
<mgrwt>
<rscale>  0 0.43186769E+03</rscale>
<asrwt>0</asrwt>
<pdfrwt beam="1">  1        2 0.40250069E+00 0.43186769E+03</pdfrwt>
<pdfrwt beam="2">  1       -2 0.27418778E-02 0.43186769E+03</pdfrwt>
<totfact> 0.16481068E+03</totfact>
</mgrwt>
</event>
<event>
 4    1  0.6148427E-004  0.2096988E+03  0.7818608E-02  0.1141805E+00
          2   -1    0    0  501    0  0.00000000000E+00  0.00000000000E+00  0.13521933016E+04  0.13521933016E+04  0.25500000000E-02 0.  1.
         -2   -1    0    0    0  501 -0.00000000000E+00 -0.00000000000E+00 -0.81300461277E+01  0.81300465276E+01  0.25500000000E-02 0. -1.
    5000001    1    1    2    0    0 -0.68563292312E+02  0.13511246013E+02  0.75928535462E+03  0.76637244768E+03  0.77000000000E+02 0.  0.
   -5000001    1    1    2    0    0  0.68563292312E+02 -0.13511246013E+02  0.58477790088E+03  0.59395090048E+03  0.77000000000E+02 0.  0.
<mgrwt>
<rscale>  0 0.20969878E+03</rscale>
<asrwt>0</asrwt>
<pdfrwt beam="1">  1        2 0.20802988E+00 0.20969878E+03</pdfrwt>
<pdfrwt beam="2">  1       -2 0.12507755E-02 0.20969878E+03</pdfrwt>
<totfact> 0.24893469E+04</totfact>
</mgrwt>
</event>
<event>
 4    1  0.6148427E-004  0.2863802E+03  0.7818608E-02  0.1092254E+00
         -2   -1    0    0    0  501 -0.00000000000E+00  0.00000000000E+00  0.58223381258E+01  0.58223386842E+01  0.25500000000E-02 0. -1.
          2   -1    0    0  501    0  0.00000000000E+00 -0.00000000000E+00 -0.35215075723E+04  0.35215075723E+04  0.25500000000E-02 0.  1.
    5000001    1    1    2    0    0  0.10187259381E+03  0.64772722797E+02 -0.17463027645E+04  0.17521631991E+04  0.77000000000E+02 0.  0.
   -5000001    1    1    2    0    0 -0.10187259381E+03 -0.64772722797E+02 -0.17693824696E+04  0.17751667119E+04  0.77000000000E+02 0.  0.
<mgrwt>
<rscale>  0 0.28638023E+03</rscale>
<asrwt>0</asrwt>
<pdfrwt beam="1">  1        2 0.54176869E+00 0.28638023E+03</pdfrwt>
<pdfrwt beam="2">  1       -2 0.89574718E-03 0.28638023E+03</pdfrwt>
<totfact> 0.24511365E+03</totfact>
</mgrwt>
</event>
<event>
 4    1  0.6148427E-004  0.2137742E+03  0.7818608E-02  0.1138612E+00
         -2   -1    0    0    0  501 -0.00000000000E+00  0.00000000000E+00  0.99640219212E+02  0.99640219245E+02  0.25500000000E-02 0. -1.
          2   -1    0    0  501    0  0.00000000000E+00 -0.00000000000E+00 -0.11466108864E+03  0.11466108866E+03  0.25500000000E-02 0.  1.
    5000001    1    1    2    0    0  0.49275411131E+02 -0.55321535703E+02 -0.10222202938E+02  0.10734072800E+03  0.77000000000E+02 0.  0.
   -5000001    1    1    2    0    0 -0.49275411131E+02  0.55321535703E+02 -0.47986664866E+01  0.10696057991E+03  0.77000000000E+02 0.  0.
<mgrwt>
<rscale>  0 0.21377424E+03</rscale>
<asrwt>0</asrwt>
<pdfrwt beam="1">  1        2 0.17640168E-01 0.21377424E+03</pdfrwt>
<pdfrwt beam="2">  1       -2 0.15329264E-01 0.21377424E+03</pdfrwt>
<totfact> 0.10326994E+04</totfact>
</mgrwt>
</event>
<event>
 4    1  0.6148427E-004  0.2767102E+03  0.7818608E-02  0.1097499E+00
          2   -1    0    0  501    0  0.00000000000E+00  0.00000000000E+00  0.29014176166E+04  0.29014176166E+04  0.25500000000E-02 0.  1.
         -2   -1    0    0    0  501 -0.00000000000E+00 -0.00000000000E+00 -0.65975104976E+01  0.65975109904E+01  0.25500000000E-02 0. -1.
    5000001    1    1    2    0    0  0.11426212520E+03 -0.12463391418E+02  0.14326801482E+04  0.14393444954E+04  0.77000000000E+02 0.  0.
   -5000001    1    1    2    0    0 -0.11426212520E+03  0.12463391418E+02  0.14621399580E+04  0.14686706323E+04  0.77000000000E+02 0.  0.
<mgrwt>
<rscale>  0 0.27671020E+03</rscale>
<asrwt>0</asrwt>
<pdfrwt beam="1">  1        2 0.44637114E+00 0.27671020E+03</pdfrwt>
<pdfrwt beam="2">  1       -2 0.10150035E-02 0.27671020E+03</pdfrwt>
<totfact> 0.49670769E+03</totfact>
</mgrwt>
</event>
<event>
 4    1  0.6148427E-004  0.7648537E+03  0.7818608E-02  0.9612331E-01
         -2   -1    0    0    0  501 -0.00000000000E+00  0.00000000000E+00  0.63917373553E+02  0.63917373604E+02  0.25500000000E-02 0. -1.
          2   -1    0    0  501    0  0.00000000000E+00 -0.00000000000E+00 -0.22881148042E+04  0.22881148042E+04  0.25500000000E-02 0.  1.
    5000001    1    1    2    0    0  0.27039027461E+03  0.25252264698E+03 -0.93166630816E+03  0.10053903210E+04  0.77000000000E+02 0.  0.
   -5000001    1    1    2    0    0 -0.27039027461E+03 -0.25252264698E+03 -0.12925311225E+04  0.13466418568E+04  0.77000000000E+02 0.  0.
<mgrwt>
<rscale>  0 0.76485368E+03</rscale>
<asrwt>0</asrwt>
<pdfrwt beam="1">  1        2 0.35201760E+00 0.76485368E+03</pdfrwt>
<pdfrwt beam="2">  1       -2 0.98334438E-02 0.76485368E+03</pdfrwt>
<totfact> 0.33461542E+02</totfact>
</mgrwt>
</event>
<event>
 4    1  0.6148427E-004  0.4285843E+03  0.7818608E-02  0.1034308E+00
          2   -1    0    0  501    0  0.00000000000E+00  0.00000000000E+00  0.90782309867E+03  0.90782309868E+03  0.25500000000E-02 0.  1.
         -2   -1    0    0    0  501 -0.00000000000E+00 -0.00000000000E+00 -0.50583776799E+02  0.50583776863E+02  0.25500000000E-02 0. -1.
    5000001    1    1    2    0    0 -0.16838840431E+03  0.25630294547E+02  0.66294854087E+03  0.68879701984E+03  0.77000000000E+02 0.  0.
   -5000001    1    1    2    0    0  0.16838840431E+03 -0.25630294547E+02  0.19429078101E+03  0.26960985570E+03  0.77000000000E+02 0.  0.
<mgrwt>
<rscale>  0 0.42858428E+03</rscale>
<asrwt>0</asrwt>
<pdfrwt beam="1">  1        2 0.13966510E+00 0.42858428E+03</pdfrwt>
<pdfrwt beam="2">  1       -2 0.77821189E-02 0.42858428E+03</pdfrwt>
<totfact> 0.29769021E+03</totfact>
</mgrwt>
</event>
<event>
 4    1  0.6148427E-004  0.1732394E+03  0.7818608E-02  0.1174511E+00
         -2   -1    0    0    0  501 -0.00000000000E+00  0.00000000000E+00  0.41003404201E+03  0.41003404202E+03  0.25500000000E-02 0. -1.
          2   -1    0    0  501    0  0.00000000000E+00 -0.00000000000E+00 -0.18298408375E+02  0.18298408553E+02  0.25500000000E-02 0.  1.
    5000001    1    1    2    0    0  0.21164631081E+02  0.33541330896E+02  0.19835005451E+03  0.21643638005E+03  0.77000000000E+02 0.  0.
   -5000001    1    1    2    0    0 -0.21164631081E+02 -0.33541330896E+02  0.19338557913E+03  0.21189607052E+03  0.77000000000E+02 0.  0.
<mgrwt>
<rscale>  0 0.17323938E+03</rscale>
<asrwt>0</asrwt>
<pdfrwt beam="1">  1        2 0.28151398E-02 0.17323938E+03</pdfrwt>
<pdfrwt beam="2">  1       -2 0.63082160E-01 0.17323938E+03</pdfrwt>
<totfact> 0.78226622E+03</totfact>
</mgrwt>
</event>
<event>
 4    1  0.6148427E-004  0.3682965E+03  0.7818608E-02  0.1055346E+00
         -2   -1    0    0    0  501 -0.00000000000E+00  0.00000000000E+00  0.53652014417E+02  0.53652014477E+02  0.25500000000E-02 0. -1.
          2   -1    0    0  501    0  0.00000000000E+00 -0.00000000000E+00 -0.63204656127E+03  0.63204656127E+03  0.25500000000E-02 0.  1.
    5000001    1    1    2    0    0  0.13350531750E+03  0.43311872301E+02 -0.11976237355E+03  0.19992902291E+03  0.77000000000E+02 0.  0.
   -5000001    1    1    2    0    0 -0.13350531750E+03 -0.43311872301E+02 -0.45863217330E+03  0.48576955284E+03  0.77000000000E+02 0.  0.
<mgrwt>
<rscale>  0 0.36829646E+03</rscale>
<asrwt>0</asrwt>
<pdfrwt beam="1">  1        2 0.97237927E-01 0.36829646E+03</pdfrwt>
<pdfrwt beam="2">  1       -2 0.82541565E-02 0.36829646E+03</pdfrwt>
<totfact> 0.42914668E+03</totfact>
</mgrwt>
</event>
<event>
 4    1  0.6148427E-004  0.1939265E+03  0.7818608E-02  0.1154967E+00
          2   -1    0    0  501    0  0.00000000000E+00  0.00000000000E+00  0.25129381046E+04  0.25129381046E+04  0.25500000000E-02 0.  1.
         -2   -1    0    0    0  501 -0.00000000000E+00 -0.00000000000E+00 -0.37413868860E+01  0.37413877550E+01  0.25500000000E-02 0. -1.
    5000001    1    1    2    0    0  0.36783642606E+02  0.12069799232E+02  0.18312077029E+04  0.18332346733E+04  0.77000000000E+02 0.  0.
   -5000001    1    1    2    0    0 -0.36783642606E+02 -0.12069799232E+02  0.67798901486E+03  0.68344481906E+03  0.77000000000E+02 0.  0.
<mgrwt>
<rscale>  0 0.19392653E+03</rscale>
<asrwt>0</asrwt>
<pdfrwt beam="1">  1        2 0.38660645E+00 0.19392653E+03</pdfrwt>
<pdfrwt beam="2">  1       -2 0.57559717E-03 0.19392653E+03</pdfrwt>
<totfact> 0.18554083E+04</totfact>
</mgrwt>
</event>
<event>
 4    1  0.6148427E-004  0.1629684E+03  0.7818608E-02  0.1185386E+00
          2   -1    0    0  501    0  0.00000000000E+00  0.00000000000E+00  0.18732534592E+04  0.18732534592E+04  0.25500000000E-02 0.  1.
         -2   -1    0    0    0  501 -0.00000000000E+00 -0.00000000000E+00 -0.35444618414E+01  0.35444627586E+01  0.25500000000E-02 0. -1.
    5000001    1    1    2    0    0  0.19882134611E+02 -0.90396704795E+01  0.75881606107E+03  0.76302544483E+03  0.77000000000E+02 0.  0.
   -5000001    1    1    2    0    0 -0.19882134611E+02  0.90396704795E+01  0.11108929363E+04  0.11137724772E+04  0.77000000000E+02 0.  0.
<mgrwt>
<rscale>  0 0.16296842E+03</rscale>
<asrwt>0</asrwt>
<pdfrwt beam="1">  1        2 0.28819296E+00 0.16296842E+03</pdfrwt>
<pdfrwt beam="2">  1       -2 0.54530166E-03 0.16296842E+03</pdfrwt>
<totfact> 0.43078842E+04</totfact>
</mgrwt>
</event>
<event>
 4    1  0.6148427E-004  0.9738430E+03  0.7818608E-02  0.9337708E-01
         -2   -1    0    0    0  501 -0.00000000000E+00  0.00000000000E+00  0.12649553714E+03  0.12649553717E+03  0.25500000000E-02 0. -1.
          2   -1    0    0  501    0  0.00000000000E+00 -0.00000000000E+00 -0.18743154952E+04  0.18743154952E+04  0.25500000000E-02 0.  1.
    5000001    1    1    2    0    0 -0.32431969450E+03 -0.35337086117E+03 -0.80548027098E+03  0.94062835206E+03  0.77000000000E+02 0.  0.
   -5000001    1    1    2    0    0  0.32431969450E+03  0.35337086117E+03 -0.94233968708E+03  0.10601826803E+04  0.77000000000E+02 0.  0.
<mgrwt>
<rscale>  0 0.97384300E+03</rscale>
<asrwt>0</asrwt>
<pdfrwt beam="1">  1        2 0.28835621E+00 0.97384300E+03</pdfrwt>
<pdfrwt beam="2">  1       -2 0.19460853E-01 0.97384300E+03</pdfrwt>
<totfact> 0.17637285E+02</totfact>
</mgrwt>
</event>
<event>
 4    1  0.6148427E-004  0.2537212E+03  0.7818608E-02  0.1110975E+00
          2   -1    0    0  501    0  0.00000000000E+00  0.00000000000E+00  0.62396350041E+03  0.62396350042E+03  0.25500000000E-02 0.  1.
         -2   -1    0    0    0  501 -0.00000000000E+00 -0.00000000000E+00 -0.25792546576E+02  0.25792546702E+02  0.25500000000E-02 0. -1.
    5000001    1    1    2    0    0  0.67104895310E+02  0.32103237100E+02  0.47335739196E+03  0.48531423360E+03  0.77000000000E+02 0.  0.
   -5000001    1    1    2    0    0 -0.67104895310E+02 -0.32103237100E+02  0.12481356188E+03  0.16444181352E+03  0.77000000000E+02 0.  0.
<mgrwt>
<rscale>  0 0.25372117E+03</rscale>
<asrwt>0</asrwt>
<pdfrwt beam="1">  1        2 0.95994376E-01 0.25372117E+03</pdfrwt>
<pdfrwt beam="2">  1       -2 0.39680845E-02 0.25372117E+03</pdfrwt>
<totfact> 0.13278095E+04</totfact>
</mgrwt>
</event>
<event>
 4    1  0.6148427E-004  0.5294744E+03  0.7818608E-02  0.1006360E+00
         -2   -1    0    0    0  501 -0.00000000000E+00  0.00000000000E+00  0.35097453167E+02  0.35097453259E+02  0.25500000000E-02 0. -1.
          2   -1    0    0  501    0  0.00000000000E+00 -0.00000000000E+00 -0.19968907125E+04  0.19968907125E+04  0.25500000000E-02 0.  1.
    5000001    1    1    2    0    0  0.11615883642E+03  0.21230552751E+03 -0.12678375371E+04  0.12930226343E+04  0.77000000000E+02 0.  0.
   -5000001    1    1    2    0    0 -0.11615883642E+03 -0.21230552751E+03 -0.69395572220E+03  0.73896553144E+03  0.77000000000E+02 0.  0.
<mgrwt>
<rscale>  0 0.52947437E+03</rscale>
<asrwt>0</asrwt>
<pdfrwt beam="1">  1        2 0.30721387E+00 0.52947437E+03</pdfrwt>
<pdfrwt beam="2">  1       -2 0.53996098E-02 0.52947437E+03</pdfrwt>
<totfact> 0.12726875E+03</totfact>
</mgrwt>
</event>
<event>
 4    1  0.6148427E-004  0.3185050E+03  0.7818608E-02  0.1076339E+00
         -2   -1    0    0    0  501 -0.00000000000E+00  0.00000000000E+00  0.47764467152E+02  0.47764467220E+02  0.25500000000E-02 0. -1.
          2   -1    0    0  501    0  0.00000000000E+00 -0.00000000000E+00 -0.53096691076E+03  0.53096691077E+03  0.25500000000E-02 0.  1.
    5000001    1    1    2    0    0 -0.69067818732E+02 -0.71812733565E+02 -0.41874873244E+03  0.43727215005E+03  0.77000000000E+02 0.  0.
   -5000001    1    1    2    0    0  0.69067818732E+02  0.71812733565E+02 -0.64453711170E+02  0.14145922794E+03  0.77000000000E+02 0.  0.
<mgrwt>
<rscale>  0 0.31850495E+03</rscale>
<asrwt>0</asrwt>
<pdfrwt beam="1">  1        2 0.81687213E-01 0.31850495E+03</pdfrwt>
<pdfrwt beam="2">  1       -2 0.73483800E-02 0.31850495E+03</pdfrwt>
<totfact> 0.62867234E+03</totfact>
</mgrwt>
</event>
<event>
 4    1  0.6148427E-004  0.1725177E+03  0.7818608E-02  0.1175247E+00
          2   -1    0    0  501    0  0.00000000000E+00  0.00000000000E+00  0.13917665138E+03  0.13917665140E+03  0.25500000000E-02 0.  1.
         -2   -1    0    0    0  501 -0.00000000000E+00 -0.00000000000E+00 -0.53461452269E+02  0.53461452330E+02  0.25500000000E-02 0. -1.
    5000001    1    1    2    0    0 -0.11881482409E+02  0.36589346813E+02  0.36577025604E+02  0.93524481963E+02  0.77000000000E+02 0.  0.
   -5000001    1    1    2    0    0  0.11881482409E+02 -0.36589346813E+02  0.49138173504E+02  0.99113621767E+02  0.77000000000E+02 0.  0.
<mgrwt>
<rscale>  0 0.17251766E+03</rscale>
<asrwt>0</asrwt>
<pdfrwt beam="1">  1        2 0.21411792E-01 0.17251766E+03</pdfrwt>
<pdfrwt beam="2">  1       -2 0.82248389E-02 0.17251766E+03</pdfrwt>
<totfact> 0.22036308E+04</totfact>
</mgrwt>
</event>
<event>
 4    1  0.6148427E-004  0.2112937E+03  0.7818608E-02  0.1140546E+00
          2   -1    0    0  501    0  0.00000000000E+00  0.00000000000E+00  0.56443551326E+02  0.56443551384E+02  0.25500000000E-02 0.  1.
         -2   -1    0    0    0  501 -0.00000000000E+00 -0.00000000000E+00 -0.19774195335E+03  0.19774195337E+03  0.25500000000E-02 0. -1.
    5000001    1    1    2    0    0 -0.32927206687E+01  0.71011247894E+02 -0.86736041522E+02  0.13603521690E+03  0.77000000000E+02 0.  0.
   -5000001    1    1    2    0    0  0.32927206687E+01 -0.71011247894E+02 -0.54562360502E+02  0.11815028786E+03  0.77000000000E+02 0.  0.
<mgrwt>
<rscale>  0 0.21129371E+03</rscale>
<asrwt>0</asrwt>
<pdfrwt beam="1">  1        2 0.86836234E-02 0.21129371E+03</pdfrwt>
<pdfrwt beam="2">  1       -2 0.30421839E-01 0.21129371E+03</pdfrwt>
<totfact> 0.74448840E+03</totfact>
</mgrwt>
</event>
<event>
 4    1  0.6148427E-004  0.3918749E+03  0.7818608E-02  0.1046630E+00
          2   -1    0    0  501    0  0.00000000000E+00  0.00000000000E+00  0.66078858618E+03  0.66078858618E+03  0.25500000000E-02 0.  1.
         -2   -1    0    0    0  501 -0.00000000000E+00 -0.00000000000E+00 -0.58099497185E+02  0.58099497241E+02  0.25500000000E-02 0. -1.
    5000001    1    1    2    0    0 -0.17840520931E+03 -0.17498155136E+01  0.25526269378E+03  0.32081072831E+03  0.77000000000E+02 0.  0.
   -5000001    1    1    2    0    0  0.17840520931E+03  0.17498155136E+01  0.34742639521E+03  0.39807735511E+03  0.77000000000E+02 0.  0.
<mgrwt>
<rscale>  0 0.39187490E+03</rscale>
<asrwt>0</asrwt>
<pdfrwt beam="1">  1        2 0.10165979E+00 0.39187490E+03</pdfrwt>
<pdfrwt beam="2">  1       -2 0.89383838E-02 0.39187490E+03</pdfrwt>
<totfact> 0.35895322E+03</totfact>
</mgrwt>
</event>
<event>
 4    1  0.6148427E-004  0.2201973E+03  0.7818608E-02  0.1133736E+00
         -2   -1    0    0    0  501 -0.00000000000E+00  0.00000000000E+00  0.29050808037E+02  0.29050808149E+02  0.25500000000E-02 0. -1.
          2   -1    0    0  501    0  0.00000000000E+00 -0.00000000000E+00 -0.41725913295E+03  0.41725913296E+03  0.25500000000E-02 0.  1.
    5000001    1    1    2    0    0 -0.71091606132E+02 -0.33723888142E+02 -0.19650058553E+03  0.22523942197E+03  0.77000000000E+02 0.  0.
   -5000001    1    1    2    0    0  0.71091606132E+02  0.33723888142E+02 -0.19170773938E+03  0.22107051914E+03  0.77000000000E+02 0.  0.
<mgrwt>
<rscale>  0 0.22019732E+03</rscale>
<asrwt>0</asrwt>
<pdfrwt beam="1">  1        2 0.64193709E-01 0.22019732E+03</pdfrwt>
<pdfrwt beam="2">  1       -2 0.44693554E-02 0.22019732E+03</pdfrwt>
<totfact> 0.17303674E+04</totfact>
</mgrwt>
</event>
<event>
 4    1  0.6148427E-004  0.3641362E+03  0.7818608E-02  0.1056958E+00
          2   -1    0    0  501    0  0.00000000000E+00  0.00000000000E+00  0.83721801437E+03  0.83721801438E+03  0.25500000000E-02 0.  1.
         -2   -1    0    0    0  501 -0.00000000000E+00 -0.00000000000E+00 -0.39593978270E+02  0.39593978353E+02  0.25500000000E-02 0. -1.
    5000001    1    1    2    0    0 -0.15591467986E+03  0.26729721500E+02  0.51164901846E+03  0.54105229276E+03  0.77000000000E+02 0.  0.
   -5000001    1    1    2    0    0  0.15591467986E+03 -0.26729721500E+02  0.28597501764E+03  0.33575969997E+03  0.77000000000E+02 0.  0.
<mgrwt>
<rscale>  0 0.36413619E+03</rscale>
<asrwt>0</asrwt>
<pdfrwt beam="1">  1        2 0.12880277E+00 0.36413619E+03</pdfrwt>
<pdfrwt beam="2">  1       -2 0.60913813E-02 0.36413619E+03</pdfrwt>
<totfact> 0.48581492E+03</totfact>
</mgrwt>
</event>
<event>
 4    1  0.6148427E-004  0.1921042E+03  0.7818608E-02  0.1156577E+00
          2   -1    0    0  501    0  0.00000000000E+00  0.00000000000E+00  0.10712760355E+04  0.10712760355E+04  0.25500000000E-02 0.  1.
         -2   -1    0    0    0  501 -0.00000000000E+00 -0.00000000000E+00 -0.86121619853E+01  0.86121623628E+01  0.25500000000E-02 0. -1.
    5000001    1    1    2    0    0 -0.14927488661E+02 -0.53589385958E+02  0.45136795475E+03  0.46125555041E+03  0.77000000000E+02 0.  0.
   -5000001    1    1    2    0    0  0.14927488661E+02  0.53589385958E+02  0.61129591879E+03  0.61863264748E+03  0.77000000000E+02 0.  0.
<mgrwt>
<rscale>  0 0.19210417E+03</rscale>
<asrwt>0</asrwt>
<pdfrwt beam="1">  1        2 0.16481152E+00 0.19210417E+03</pdfrwt>
<pdfrwt beam="2">  1       -2 0.13249495E-02 0.19210417E+03</pdfrwt>
<totfact> 0.32757870E+04</totfact>
</mgrwt>
</event>
<event>
 4    1  0.6148427E-004  0.3111169E+03  0.7818608E-02  0.1079812E+00
         -2   -1    0    0    0  501 -0.00000000000E+00  0.00000000000E+00  0.66083853844E+02  0.66083853893E+02  0.25500000000E-02 0. -1.
          2   -1    0    0  501    0  0.00000000000E+00 -0.00000000000E+00 -0.36617760193E+03  0.36617760194E+03  0.25500000000E-02 0.  1.
    5000001    1    1    2    0    0  0.79431993544E+02  0.10927506644E+03 -0.15609435891E+03  0.22032914157E+03  0.77000000000E+02 0.  0.
   -5000001    1    1    2    0    0 -0.79431993544E+02 -0.10927506644E+03 -0.14399938917E+03  0.21193231426E+03  0.77000000000E+02 0.  0.
<mgrwt>
<rscale>  0 0.31111687E+03</rscale>
<asrwt>0</asrwt>
<pdfrwt beam="1">  1        2 0.56335015E-01 0.31111687E+03</pdfrwt>
<pdfrwt beam="2">  1       -2 0.10166747E-01 0.31111687E+03</pdfrwt>
<totfact> 0.56797763E+03</totfact>
</mgrwt>
</event>
<event>
 4    1  0.6148427E-004  0.3376474E+03  0.7818608E-02  0.1067802E+00
         -2   -1    0    0    0  501 -0.00000000000E+00  0.00000000000E+00  0.16841345915E+02  0.16841346108E+02  0.25500000000E-02 0. -1.
          2   -1    0    0  501    0  0.00000000000E+00 -0.00000000000E+00 -0.16923497865E+04  0.16923497865E+04  0.25500000000E-02 0.  1.
    5000001    1    1    2    0    0 -0.51566401559E+02  0.94161656246E+02 -0.30570953390E+03  0.33303577945E+03  0.77000000000E+02 0.  0.
   -5000001    1    1    2    0    0  0.51566401559E+02 -0.94161656246E+02 -0.13697989067E+04  0.13761553532E+04  0.77000000000E+02 0.  0.
<mgrwt>
<rscale>  0 0.33764744E+03</rscale>
<asrwt>0</asrwt>
<pdfrwt beam="1">  1        2 0.26036137E+00 0.33764744E+03</pdfrwt>
<pdfrwt beam="2">  1       -2 0.25909776E-02 0.33764744E+03</pdfrwt>
<totfact> 0.56908550E+03</totfact>
</mgrwt>
</event>
<event>
 4    1  0.6148427E-004  0.1664697E+03  0.7818608E-02  0.1181580E+00
          2   -1    0    0  501    0  0.00000000000E+00  0.00000000000E+00  0.86029983868E+02  0.86029983906E+02  0.25500000000E-02 0.  1.
         -2   -1    0    0    0  501 -0.00000000000E+00 -0.00000000000E+00 -0.80530492359E+02  0.80530492399E+02  0.25500000000E-02 0. -1.
    5000001    1    1    2    0    0 -0.28874299921E+02  0.29078446587E+01  0.15280803084E+02  0.83693988430E+02  0.77000000000E+02 0.  0.
   -5000001    1    1    2    0    0  0.28874299921E+02 -0.29078446587E+01 -0.97813115744E+01  0.82866487874E+02  0.77000000000E+02 0.  0.
<mgrwt>
<rscale>  0 0.16646966E+03</rscale>
<asrwt>0</asrwt>
<pdfrwt beam="1">  1        2 0.13235382E-01 0.16646966E+03</pdfrwt>
<pdfrwt beam="2">  1       -2 0.12389306E-01 0.16646966E+03</pdfrwt>
<totfact> 0.20095034E+04</totfact>
</mgrwt>
</event>
<event>
 4    1  0.6148427E-004  0.2273756E+03  0.7818608E-02  0.1128501E+00
         -2   -1    0    0    0  501 -0.00000000000E+00  0.00000000000E+00  0.10962528125E+02  0.10962528422E+02  0.25500000000E-02 0. -1.
          2   -1    0    0  501    0  0.00000000000E+00 -0.00000000000E+00 -0.11790084844E+04  0.11790084844E+04  0.25500000000E-02 0.  1.
    5000001    1    1    2    0    0  0.43921983154E+02 -0.61976043180E+02 -0.76725118233E+03  0.77483775548E+03  0.77000000000E+02 0.  0.
   -5000001    1    1    2    0    0 -0.43921983154E+02  0.61976043180E+02 -0.40079477398E+03  0.41513325738E+03  0.77000000000E+02 0.  0.
<mgrwt>
<rscale>  0 0.22737558E+03</rscale>
<asrwt>0</asrwt>
<pdfrwt beam="1">  1        2 0.18138582E+00 0.22737558E+03</pdfrwt>
<pdfrwt beam="2">  1       -2 0.16865437E-02 0.22737558E+03</pdfrwt>
<totfact> 0.20186576E+04</totfact>
</mgrwt>
</event>
<event>
 4    1  0.6148427E-004  0.2660226E+03  0.7818608E-02  0.1103578E+00
          2   -1    0    0  501    0  0.00000000000E+00  0.00000000000E+00  0.55925098180E+02  0.55925098238E+02  0.25500000000E-02 0.  1.
         -2   -1    0    0    0  501 -0.00000000000E+00 -0.00000000000E+00 -0.31635180177E+03  0.31635180178E+03  0.25500000000E-02 0. -1.
    5000001    1    1    2    0    0  0.56470109150E+01  0.93839085000E+02 -0.54523796207E+02  0.13318974044E+03  0.77000000000E+02 0.  0.
   -5000001    1    1    2    0    0 -0.56470109150E+01 -0.93839085000E+02 -0.20590290738E+03  0.23908715957E+03  0.77000000000E+02 0.  0.
<mgrwt>
<rscale>  0 0.26602260E+03</rscale>
<asrwt>0</asrwt>
<pdfrwt beam="1">  1        2 0.86038615E-02 0.26602260E+03</pdfrwt>
<pdfrwt beam="2">  1       -2 0.48669507E-01 0.26602260E+03</pdfrwt>
<totfact> 0.31245567E+03</totfact>
</mgrwt>
</event>
<event>
 4    1  0.6148427E-004  0.2534097E+03  0.7818608E-02  0.1111169E+00
         -2   -1    0    0    0  501 -0.00000000000E+00  0.00000000000E+00  0.25466022694E+02  0.25466022822E+02  0.25500000000E-02 0. -1.
          2   -1    0    0  501    0  0.00000000000E+00 -0.00000000000E+00 -0.63041317065E+03  0.63041317065E+03  0.25500000000E-02 0.  1.
    5000001    1    1    2    0    0 -0.86704552344E+02 -0.46212257320E+02 -0.24625121106E+03  0.27608315970E+03  0.77000000000E+02 0.  0.
   -5000001    1    1    2    0    0  0.86704552344E+02  0.46212257320E+02 -0.35869593690E+03  0.37979603378E+03  0.77000000000E+02 0.  0.
<mgrwt>
<rscale>  0 0.25340968E+03</rscale>
<asrwt>0</asrwt>
<pdfrwt beam="1">  1        2 0.96986629E-01 0.25340968E+03</pdfrwt>
<pdfrwt beam="2">  1       -2 0.39178501E-02 0.25340968E+03</pdfrwt>
<totfact> 0.13371570E+04</totfact>
</mgrwt>
</event>
<event>
 4    1  0.6148427E-004  0.1908436E+03  0.7818608E-02  0.1157703E+00
          2   -1    0    0  501    0  0.00000000000E+00  0.00000000000E+00  0.22094072418E+04  0.22094072418E+04  0.25500000000E-02 0.  1.
         -2   -1    0    0    0  501 -0.00000000000E+00 -0.00000000000E+00 -0.41211599198E+01  0.41211607087E+01  0.25500000000E-02 0. -1.
    5000001    1    1    2    0    0  0.27435857567E+02  0.38539272025E+02  0.74735313084E+03  0.75279725288E+03  0.77000000000E+02 0.  0.
   -5000001    1    1    2    0    0 -0.27435857567E+02 -0.38539272025E+02  0.14579329511E+04  0.14607311496E+04  0.77000000000E+02 0.  0.
<mgrwt>
<rscale>  0 0.19084362E+03</rscale>
<asrwt>0</asrwt>
<pdfrwt beam="1">  1        2 0.33990916E+00 0.19084362E+03</pdfrwt>
<pdfrwt beam="2">  1       -2 0.63402400E-03 0.19084362E+03</pdfrwt>
<totfact> 0.23439074E+04</totfact>
</mgrwt>
</event>
<event>
 4    1  0.6148427E-004  0.2092254E+03  0.7818608E-02  0.1142181E+00
         -2   -1    0    0    0  501 -0.00000000000E+00  0.00000000000E+00  0.14702275818E+02  0.14702276039E+02  0.25500000000E-02 0. -1.
          2   -1    0    0  501    0  0.00000000000E+00 -0.00000000000E+00 -0.74436227219E+03  0.74436227219E+03  0.25500000000E-02 0.  1.
    5000001    1    1    2    0    0 -0.19374036635E+02 -0.62140870147E+02 -0.26363756377E+03  0.28225982014E+03  0.77000000000E+02 0.  0.
   -5000001    1    1    2    0    0  0.19374036635E+02  0.62140870147E+02 -0.46602243260E+03  0.47680472809E+03  0.77000000000E+02 0.  0.
<mgrwt>
<rscale>  0 0.20922542E+03</rscale>
<asrwt>0</asrwt>
<pdfrwt beam="1">  1        2 0.11451724E+00 0.20922542E+03</pdfrwt>
<pdfrwt beam="2">  1       -2 0.22618892E-02 0.20922542E+03</pdfrwt>
<totfact> 0.24488534E+04</totfact>
</mgrwt>
</event>
<event>
 4    1  0.6148427E-004  0.1917417E+03  0.7818608E-02  0.1156900E+00
          2   -1    0    0  501    0  0.00000000000E+00  0.00000000000E+00  0.73983599737E+03  0.73983599738E+03  0.25500000000E-02 0.  1.
         -2   -1    0    0    0  501 -0.00000000000E+00 -0.00000000000E+00 -0.12423320489E+02  0.12423320751E+02  0.25500000000E-02 0. -1.
    5000001    1    1    2    0    0 -0.44994307972E+02  0.28986967468E+02  0.44192545211E+03  0.45176524574E+03  0.77000000000E+02 0.  0.
   -5000001    1    1    2    0    0  0.44994307972E+02 -0.28986967468E+02  0.28548722477E+03  0.30049407239E+03  0.77000000000E+02 0.  0.
<mgrwt>
<rscale>  0 0.19174170E+03</rscale>
<asrwt>0</asrwt>
<pdfrwt beam="1">  1        2 0.11382096E+00 0.19174170E+03</pdfrwt>
<pdfrwt beam="2">  1       -2 0.19112795E-02 0.19174170E+03</pdfrwt>
<totfact> 0.31379302E+04</totfact>
</mgrwt>
</event>
<event>
 4    1  0.6148427E-004  0.4331957E+03  0.7818608E-02  0.1032855E+00
          2   -1    0    0  501    0  0.00000000000E+00  0.00000000000E+00  0.49190792580E+03  0.49190792580E+03  0.25500000000E-02 0.  1.
         -2   -1    0    0    0  501 -0.00000000000E+00 -0.00000000000E+00 -0.95372801760E+02  0.95372801794E+02  0.25500000000E-02 0. -1.
    5000001    1    1    2    0    0  0.14200931428E+03 -0.74801459797E+02  0.36553914134E+03  0.40658303897E+03  0.77000000000E+02 0.  0.
   -5000001    1    1    2    0    0 -0.14200931428E+03  0.74801459797E+02  0.30995982701E+02  0.18069768863E+03  0.77000000000E+02 0.  0.
<mgrwt>
<rscale>  0 0.43319574E+03</rscale>
<asrwt>0</asrwt>
<pdfrwt beam="1">  1        2 0.75678142E-01 0.43319574E+03</pdfrwt>
<pdfrwt beam="2">  1       -2 0.14672739E-01 0.43319574E+03</pdfrwt>
<totfact> 0.22659337E+03</totfact>
</mgrwt>
</event>
<event>
 4    1  0.6148427E-004  0.3566642E+03  0.7818608E-02  0.1059913E+00
         -2   -1    0    0    0  501 -0.00000000000E+00  0.00000000000E+00  0.11713486259E+02  0.11713486537E+02  0.25500000000E-02 0. -1.
          2   -1    0    0  501    0  0.00000000000E+00 -0.00000000000E+00 -0.27150195132E+04  0.27150195132E+04  0.25500000000E-02 0.  1.
    5000001    1    1    2    0    0 -0.11151174349E+03  0.70058848164E+02 -0.20577486033E+04  0.20633956056E+04  0.77000000000E+02 0.  0.
   -5000001    1    1    2    0    0  0.11151174349E+03 -0.70058848164E+02 -0.64555742369E+03  0.66333739411E+03  0.77000000000E+02 0.  0.
<mgrwt>
<rscale>  0 0.35666424E+03</rscale>
<asrwt>0</asrwt>
<pdfrwt beam="1">  1        2 0.41769481E+00 0.35666424E+03</pdfrwt>
<pdfrwt beam="2">  1       -2 0.18020770E-02 0.35666424E+03</pdfrwt>
<totfact> 0.27257239E+03</totfact>
</mgrwt>
</event>
<event>
 4    1  0.6148427E-004  0.1866331E+03  0.7818608E-02  0.1161534E+00
         -2   -1    0    0    0  501 -0.00000000000E+00  0.00000000000E+00  0.38925639318E+02  0.38925639401E+02  0.25500000000E-02 0. -1.
          2   -1    0    0  501    0  0.00000000000E+00 -0.00000000000E+00 -0.22370814941E+03  0.22370814943E+03  0.25500000000E-02 0.  1.
    5000001    1    1    2    0    0 -0.19921784462E+02  0.41675100679E+02 -0.12813826382E+03  0.15646758823E+03  0.77000000000E+02 0.  0.
   -5000001    1    1    2    0    0  0.19921784462E+02 -0.41675100679E+02 -0.56644246277E+02  0.10616620060E+03  0.77000000000E+02 0.  0.
<mgrwt>
<rscale>  0 0.18663315E+03</rscale>
<asrwt>0</asrwt>
<pdfrwt beam="1">  1        2 0.34416638E-01 0.18663315E+03</pdfrwt>
<pdfrwt beam="2">  1       -2 0.59885600E-02 0.18663315E+03</pdfrwt>
<totfact> 0.21436597E+04</totfact>
</mgrwt>
</event>
<event>
 4    1  0.6148427E-004  0.2210351E+03  0.7818608E-02  0.1133114E+00
          2   -1    0    0  501    0  0.00000000000E+00  0.00000000000E+00  0.80082113505E+03  0.80082113505E+03  0.25500000000E-02 0.  1.
         -2   -1    0    0    0  501 -0.00000000000E+00 -0.00000000000E+00 -0.15252003245E+02  0.15252003458E+02  0.25500000000E-02 0. -1.
    5000001    1    1    2    0    0  0.58678528989E+02 -0.49764845625E+02  0.32220771755E+03  0.34009781369E+03  0.77000000000E+02 0.  0.
   -5000001    1    1    2    0    0 -0.58678528989E+02  0.49764845625E+02  0.46336141425E+03  0.47597532483E+03  0.77000000000E+02 0.  0.
<mgrwt>
<rscale>  0 0.22103508E+03</rscale>
<asrwt>0</asrwt>
<pdfrwt beam="1">  1        2 0.12320326E+00 0.22103508E+03</pdfrwt>
<pdfrwt beam="2">  1       -2 0.23464618E-02 0.22103508E+03</pdfrwt>
<totfact> 0.21253338E+04</totfact>
</mgrwt>
</event>
<event>
 4    1  0.6148427E-004  0.4886863E+03  0.7818608E-02  0.1016775E+00
         -2   -1    0    0    0  501 -0.00000000000E+00  0.00000000000E+00  0.40053793834E+02  0.40053793915E+02  0.25500000000E-02 0. -1.
          2   -1    0    0  501    0  0.00000000000E+00 -0.00000000000E+00 -0.14905850061E+04  0.14905850061E+04  0.25500000000E-02 0.  1.
    5000001    1    1    2    0    0 -0.12310188412E+03  0.19640986799E+03 -0.70456627322E+03  0.74570338840E+03  0.77000000000E+02 0.  0.
   -5000001    1    1    2    0    0  0.12310188412E+03 -0.19640986799E+03 -0.74596493905E+03  0.78493541162E+03  0.77000000000E+02 0.  0.
<mgrwt>
<rscale>  0 0.48868634E+03</rscale>
<asrwt>0</asrwt>
<pdfrwt beam="1">  1        2 0.22932073E+00 0.48868634E+03</pdfrwt>
<pdfrwt beam="2">  1       -2 0.61621233E-02 0.48868634E+03</pdfrwt>
<totfact> 0.19495313E+03</totfact>
</mgrwt>
</event>
<event>
 4    1  0.6148427E-004  0.1871256E+03  0.7818608E-02  0.1161080E+00
         -2   -1    0    0    0  501 -0.00000000000E+00  0.00000000000E+00  0.97375441642E+01  0.97375444981E+01  0.25500000000E-02 0. -1.
          2   -1    0    0  501    0  0.00000000000E+00 -0.00000000000E+00 -0.89899425716E+03  0.89899425716E+03  0.25500000000E-02 0.  1.
    5000001    1    1    2    0    0 -0.45451060713E+02  0.20739872258E+02 -0.35653626177E+03  0.36816171335E+03  0.77000000000E+02 0.  0.
   -5000001    1    1    2    0    0  0.45451060713E+02 -0.20739872258E+02 -0.53272045122E+03  0.54057008831E+03  0.77000000000E+02 0.  0.
<mgrwt>
<rscale>  0 0.18712559E+03</rscale>
<asrwt>0</asrwt>
<pdfrwt beam="1">  1        2 0.13830674E+00 0.18712559E+03</pdfrwt>
<pdfrwt beam="2">  1       -2 0.14980845E-02 0.18712559E+03</pdfrwt>
<totfact> 0.34861485E+04</totfact>
</mgrwt>
</event>
<event>
 4    1  0.6148427E-004  0.1777327E+03  0.7818608E-02  0.1170016E+00
          2   -1    0    0  501    0  0.00000000000E+00  0.00000000000E+00  0.28345442615E+02  0.28345442730E+02  0.25500000000E-02 0.  1.
         -2   -1    0    0    0  501 -0.00000000000E+00 -0.00000000000E+00 -0.27860648349E+03  0.27860648350E+03  0.25500000000E-02 0. -1.
    5000001    1    1    2    0    0 -0.23580791346E+02  0.36975617890E+02 -0.13671253840E+03  0.16291890067E+03  0.77000000000E+02 0.  0.
   -5000001    1    1    2    0    0  0.23580791346E+02 -0.36975617890E+02 -0.11354850248E+03  0.14403302556E+03  0.77000000000E+02 0.  0.
<mgrwt>
<rscale>  0 0.17773265E+03</rscale>
<asrwt>0</asrwt>
<pdfrwt beam="1">  1        2 0.43608375E-02 0.17773265E+03</pdfrwt>
<pdfrwt beam="2">  1       -2 0.42862534E-01 0.17773265E+03</pdfrwt>
<totfact> 0.94484880E+03</totfact>
</mgrwt>
</event>
<event>
 4    1  0.6148427E-004  0.2148373E+03  0.7818608E-02  0.1137792E+00
         -2   -1    0    0    0  501 -0.00000000000E+00  0.00000000000E+00  0.26134764152E+02  0.26134764277E+02  0.25500000000E-02 0. -1.
          2   -1    0    0  501    0  0.00000000000E+00 -0.00000000000E+00 -0.44151028542E+03  0.44151028543E+03  0.25500000000E-02 0.  1.
    5000001    1    1    2    0    0 -0.20249739016E+02  0.57030147718E+02 -0.30374289114E+03  0.31914140063E+03  0.77000000000E+02 0.  0.
   -5000001    1    1    2    0    0  0.20249739016E+02 -0.57030147718E+02 -0.11163263013E+03  0.14850364908E+03  0.77000000000E+02 0.  0.
<mgrwt>
<rscale>  0 0.21483731E+03</rscale>
<asrwt>0</asrwt>
<pdfrwt beam="1">  1        2 0.67924654E-01 0.21483731E+03</pdfrwt>
<pdfrwt beam="2">  1       -2 0.40207333E-02 0.21483731E+03</pdfrwt>
<totfact> 0.19043290E+04</totfact>
</mgrwt>
</event>
<event>
 4    1  0.6148427E-004  0.2027494E+03  0.7818608E-02  0.1147440E+00
          2   -1    0    0  501    0  0.00000000000E+00  0.00000000000E+00  0.13759045220E+04  0.13759045220E+04  0.25500000000E-02 0.  1.
         -2   -1    0    0    0  501 -0.00000000000E+00 -0.00000000000E+00 -0.74691407752E+01  0.74691412105E+01  0.25500000000E-02 0. -1.
    5000001    1    1    2    0    0 -0.80766589220E+01 -0.40835491528E+02  0.10331333414E+04  0.10368347366E+04  0.77000000000E+02 0.  0.
   -5000001    1    1    2    0    0  0.80766589220E+01  0.40835491528E+02  0.33530203983E+03  0.34653892667E+03  0.77000000000E+02 0.  0.
<mgrwt>
<rscale>  0 0.20274935E+03</rscale>
<asrwt>0</asrwt>
<pdfrwt beam="1">  1        2 0.21167764E+00 0.20274935E+03</pdfrwt>
<pdfrwt beam="2">  1       -2 0.11490985E-02 0.20274935E+03</pdfrwt>
<totfact> 0.27274699E+04</totfact>
</mgrwt>
</event>
<event>
 4    1  0.6148427E-004  0.1920998E+03  0.7818608E-02  0.1156581E+00
          2   -1    0    0  501    0  0.00000000000E+00  0.00000000000E+00  0.88198258265E+03  0.88198258265E+03  0.25500000000E-02 0.  1.
         -2   -1    0    0    0  501 -0.00000000000E+00 -0.00000000000E+00 -0.10460047213E+02  0.10460047524E+02  0.25500000000E-02 0. -1.
    5000001    1    1    2    0    0 -0.14672643036E+02 -0.39638935872E+02  0.25523149130E+03  0.26992340736E+03  0.77000000000E+02 0.  0.
   -5000001    1    1    2    0    0  0.14672643036E+02  0.39638935872E+02  0.61629104414E+03  0.62251922282E+03  0.77000000000E+02 0.  0.
<mgrwt>
<rscale>  0 0.19209976E+03</rscale>
<asrwt>0</asrwt>
<pdfrwt beam="1">  1        2 0.13568961E+00 0.19209976E+03</pdfrwt>
<pdfrwt beam="2">  1       -2 0.16092383E-02 0.19209976E+03</pdfrwt>
<totfact> 0.32283129E+04</totfact>
</mgrwt>
</event>
<event>
 4    1  0.6148427E-004  0.3248675E+03  0.7818608E-02  0.1073431E+00
         -2   -1    0    0    0  501 -0.00000000000E+00  0.00000000000E+00  0.77902462642E+02  0.77902462684E+02  0.25500000000E-02 0. -1.
          2   -1    0    0  501    0  0.00000000000E+00 -0.00000000000E+00 -0.33868911924E+03  0.33868911925E+03  0.25500000000E-02 0.  1.
    5000001    1    1    2    0    0 -0.11450264781E+03 -0.85042202395E+02 -0.11678091072E+03  0.19977440690E+03  0.77000000000E+02 0.  0.
   -5000001    1    1    2    0    0  0.11450264781E+03  0.85042202395E+02 -0.14400574588E+03  0.21681717503E+03  0.77000000000E+02 0.  0.
<mgrwt>
<rscale>  0 0.32486746E+03</rscale>
<asrwt>0</asrwt>
<pdfrwt beam="1">  1        2 0.52106018E-01 0.32486746E+03</pdfrwt>
<pdfrwt beam="2">  1       -2 0.11984994E-01 0.32486746E+03</pdfrwt>
<totfact> 0.47498743E+03</totfact>
</mgrwt>
</event>
<event>
 4    1  0.6148427E-004  0.3420772E+03  0.7818608E-02  0.1065915E+00
         -2   -1    0    0    0  501 -0.00000000000E+00  0.00000000000E+00  0.25143559778E+03  0.25143559779E+03  0.25500000000E-02 0. -1.
          2   -1    0    0  501    0  0.00000000000E+00 -0.00000000000E+00 -0.11634870863E+03  0.11634870865E+03  0.25500000000E-02 0.  1.
    5000001    1    1    2    0    0  0.13044694114E+03  0.73709367316E+02  0.99360105495E+02  0.19557838798E+03  0.77000000000E+02 0.  0.
   -5000001    1    1    2    0    0 -0.13044694114E+03 -0.73709367316E+02  0.35726783657E+02  0.17220591846E+03  0.77000000000E+02 0.  0.
<mgrwt>
<rscale>  0 0.34207723E+03</rscale>
<asrwt>0</asrwt>
<pdfrwt beam="1">  1        2 0.17899801E-01 0.34207723E+03</pdfrwt>
<pdfrwt beam="2">  1       -2 0.38682400E-01 0.34207723E+03</pdfrwt>
<totfact> 0.20165334E+03</totfact>
</mgrwt>
</event>
<event>
 4    1  0.6148427E-004  0.2299764E+03  0.7818608E-02  0.1126656E+00
          2   -1    0    0  501    0  0.00000000000E+00  0.00000000000E+00  0.96871464930E+03  0.96871464931E+03  0.25500000000E-02 0.  1.
         -2   -1    0    0    0  501 -0.00000000000E+00 -0.00000000000E+00 -0.13649312938E+02  0.13649313177E+02  0.25500000000E-02 0. -1.
    5000001    1    1    2    0    0 -0.84522498528E+02 -0.10936567963E+02  0.45428164797E+03  0.46857707686E+03  0.77000000000E+02 0.  0.
   -5000001    1    1    2    0    0  0.84522498528E+02  0.10936567963E+02  0.50078368840E+03  0.51378688563E+03  0.77000000000E+02 0.  0.
<mgrwt>
<rscale>  0 0.22997643E+03</rscale>
<asrwt>0</asrwt>
<pdfrwt beam="1">  1        2 0.14903307E+00 0.22997643E+03</pdfrwt>
<pdfrwt beam="2">  1       -2 0.20998936E-02 0.22997643E+03</pdfrwt>
<totfact> 0.19507798E+04</totfact>
</mgrwt>
</event>
<event>
 4    1  0.6148427E-004  0.2007802E+03  0.7818608E-02  0.1149082E+00
          2   -1    0    0  501    0  0.00000000000E+00  0.00000000000E+00  0.24247468161E+04  0.24247468161E+04  0.25500000000E-02 0.  1.
         -2   -1    0    0    0  501 -0.00000000000E+00 -0.00000000000E+00 -0.41563824375E+01  0.41563832197E+01  0.25500000000E-02 0. -1.
    5000001    1    1    2    0    0 -0.15658942677E+02 -0.60090975237E+02  0.14173850614E+04  0.14208326925E+04  0.77000000000E+02 0.  0.
   -5000001    1    1    2    0    0  0.15658942677E+02  0.60090975237E+02  0.10032053723E+04  0.10080705068E+04  0.77000000000E+02 0.  0.
<mgrwt>
<rscale>  0 0.20078024E+03</rscale>
<asrwt>0</asrwt>
<pdfrwt beam="1">  1        2 0.37303841E+00 0.20078024E+03</pdfrwt>
<pdfrwt beam="2">  1       -2 0.63944276E-03 0.20078024E+03</pdfrwt>
<totfact> 0.17826321E+04</totfact>
</mgrwt>
</event>
<event>
 4    1  0.6148427E-004  0.2205211E+03  0.7818608E-02  0.1133495E+00
          2   -1    0    0  501    0  0.00000000000E+00  0.00000000000E+00  0.23821369262E+04  0.23821369262E+04  0.25500000000E-02 0.  1.
         -2   -1    0    0    0  501 -0.00000000000E+00 -0.00000000000E+00 -0.51035656584E+01  0.51035662955E+01  0.25500000000E-02 0. -1.
    5000001    1    1    2    0    0  0.17686743372E+01 -0.78857808763E+02  0.11604732061E+04  0.11656966777E+04  0.77000000000E+02 0.  0.
   -5000001    1    1    2    0    0 -0.17686743372E+01  0.78857808763E+02  0.12165601544E+04  0.12215438148E+04  0.77000000000E+02 0.  0.
<mgrwt>
<rscale>  0 0.22052114E+03</rscale>
<asrwt>0</asrwt>
<pdfrwt beam="1">  1        2 0.36648200E+00 0.22052114E+03</pdfrwt>
<pdfrwt beam="2">  1       -2 0.78516529E-03 0.22052114E+03</pdfrwt>
<totfact> 0.14021626E+04</totfact>
</mgrwt>
</event>
<event>
 4    1  0.6148427E-004  0.1874998E+03  0.7818608E-02  0.1160736E+00
         -2   -1    0    0    0  501 -0.00000000000E+00  0.00000000000E+00  0.29416505758E+03  0.29416505759E+03  0.25500000000E-02 0. -1.
          2   -1    0    0  501    0  0.00000000000E+00 -0.00000000000E+00 -0.29877930420E+02  0.29877930529E+02  0.25500000000E-02 0.  1.
    5000001    1    1    2    0    0 -0.37718195625E+02 -0.28789818739E+02  0.17477616473E+03  0.19679233649E+03  0.77000000000E+02 0.  0.
   -5000001    1    1    2    0    0  0.37718195625E+02  0.28789818739E+02  0.89510962426E+02  0.12725065162E+03  0.77000000000E+02 0.  0.
<mgrwt>
<rscale>  0 0.18749979E+03</rscale>
<asrwt>0</asrwt>
<pdfrwt beam="1">  1        2 0.45966046E-02 0.18749979E+03</pdfrwt>
<pdfrwt beam="2">  1       -2 0.45256164E-01 0.18749979E+03</pdfrwt>
<totfact> 0.79652014E+03</totfact>
</mgrwt>
</event>
<event>
 4    1  0.6148427E-004  0.2482452E+03  0.7818608E-02  0.1114419E+00
         -2   -1    0    0    0  501 -0.00000000000E+00  0.00000000000E+00  0.21135307342E+02  0.21135307496E+02  0.25500000000E-02 0. -1.
          2   -1    0    0  501    0  0.00000000000E+00 -0.00000000000E+00 -0.72894257730E+03  0.72894257731E+03  0.25500000000E-02 0.  1.
    5000001    1    1    2    0    0  0.52967738165E+02 -0.79654455593E+02 -0.29926407552E+03  0.32347859354E+03  0.77000000000E+02 0.  0.
   -5000001    1    1    2    0    0 -0.52967738165E+02  0.79654455593E+02 -0.40854319444E+03  0.42659929126E+03  0.77000000000E+02 0.  0.
<mgrwt>
<rscale>  0 0.24824525E+03</rscale>
<asrwt>0</asrwt>
<pdfrwt beam="1">  1        2 0.11214499E+00 0.24824525E+03</pdfrwt>
<pdfrwt beam="2">  1       -2 0.32515863E-02 0.24824525E+03</pdfrwt>
<totfact> 0.14831989E+04</totfact>
</mgrwt>
</event>
<event>
 4    1  0.6148427E-004  0.1156574E+04  0.7818608E-02  0.9151740E-01
          2   -1    0    0  501    0  0.00000000000E+00  0.00000000000E+00  0.19456920355E+04  0.19456920355E+04  0.25500000000E-02 0.  1.
         -2   -1    0    0    0  501 -0.00000000000E+00 -0.00000000000E+00 -0.17187489557E+03  0.17187489559E+03  0.25500000000E-02 0. -1.
    5000001    1    1    2    0    0 -0.50412961219E+03 -0.25408254875E+03  0.70582548598E+03  0.90709603909E+03  0.77000000000E+02 0.  0.
   -5000001    1    1    2    0    0  0.50412961219E+03  0.25408254875E+03  0.10679916540E+04  0.12104708920E+04  0.77000000000E+02 0.  0.
<mgrwt>
<rscale>  0 0.11565736E+04</rscale>
<asrwt>0</asrwt>
<pdfrwt beam="1">  1        2 0.29933724E+00 0.11565736E+04</pdfrwt>
<pdfrwt beam="2">  1       -2 0.26442291E-01 0.11565736E+04</pdfrwt>
<totfact> 0.91901267E+01</totfact>
</mgrwt>
</event>
<event>
 4    1  0.6148427E-004  0.3259815E+03  0.7818608E-02  0.1072929E+00
          2   -1    0    0  501    0  0.00000000000E+00  0.00000000000E+00  0.11765315643E+04  0.11765315643E+04  0.25500000000E-02 0.  1.
         -2   -1    0    0    0  501 -0.00000000000E+00 -0.00000000000E+00 -0.22579910939E+02  0.22579911083E+02  0.25500000000E-02 0. -1.
    5000001    1    1    2    0    0 -0.11682165419E+03  0.53787865418E+02  0.34153839769E+03  0.37298513436E+03  0.77000000000E+02 0.  0.
   -5000001    1    1    2    0    0  0.11682165419E+03 -0.53787865418E+02  0.81241325568E+03  0.82612634104E+03  0.77000000000E+02 0.  0.
<mgrwt>
<rscale>  0 0.32598146E+03</rscale>
<asrwt>0</asrwt>
<pdfrwt beam="1">  1        2 0.18100491E+00 0.32598146E+03</pdfrwt>
<pdfrwt beam="2">  1       -2 0.34738314E-02 0.32598146E+03</pdfrwt>
<totfact> 0.70287545E+03</totfact>
</mgrwt>
</event>
<event>
 4    1  0.6148427E-004  0.2076886E+03  0.7818608E-02  0.1143410E+00
          2   -1    0    0  501    0  0.00000000000E+00  0.00000000000E+00  0.28209860828E+03  0.28209860829E+03  0.25500000000E-02 0.  1.
         -2   -1    0    0    0  501 -0.00000000000E+00 -0.00000000000E+00 -0.38226480520E+02  0.38226480605E+02  0.25500000000E-02 0. -1.
    5000001    1    1    2    0    0 -0.58847738373E+02  0.22199444193E+01  0.17936914961E+03  0.20388790130E+03  0.77000000000E+02 0.  0.
   -5000001    1    1    2    0    0  0.58847738373E+02 -0.22199444193E+01  0.64502978150E+02  0.11643718760E+03  0.77000000000E+02 0.  0.
<mgrwt>
<rscale>  0 0.20768858E+03</rscale>
<asrwt>0</asrwt>
<pdfrwt beam="1">  1        2 0.43399784E-01 0.20768858E+03</pdfrwt>
<pdfrwt beam="2">  1       -2 0.58809972E-02 0.20768858E+03</pdfrwt>
<totfact> 0.17316132E+04</totfact>
</mgrwt>
</event>
<event>
 4    1  0.6148427E-004  0.1906616E+03  0.7818608E-02  0.1157866E+00
          2   -1    0    0  501    0  0.00000000000E+00  0.00000000000E+00  0.10045614714E+04  0.10045614714E+04  0.25500000000E-02 0.  1.
         -2   -1    0    0    0  501 -0.00000000000E+00 -0.00000000000E+00 -0.90466955945E+01  0.90466959539E+01  0.25500000000E-02 0. -1.
    5000001    1    1    2    0    0  0.22432553239E+02  0.51246820455E+02  0.52663503502E+03  0.53516625095E+03  0.77000000000E+02 0.  0.
   -5000001    1    1    2    0    0 -0.22432553239E+02 -0.51246820455E+02  0.46887974083E+03  0.47844191645E+03  0.77000000000E+02 0.  0.
<mgrwt>
<rscale>  0 0.19066161E+03</rscale>
<asrwt>0</asrwt>
<pdfrwt beam="1">  1        2 0.15454793E+00 0.19066161E+03</pdfrwt>
<pdfrwt beam="2">  1       -2 0.13917993E-02 0.19066161E+03</pdfrwt>
<totfact> 0.33405124E+04</totfact>
</mgrwt>
</event>
<event>
 4    1  0.6148427E-004  0.2605643E+03  0.7818608E-02  0.1106805E+00
          2   -1    0    0  501    0  0.00000000000E+00  0.00000000000E+00  0.12564585725E+04  0.12564585725E+04  0.25500000000E-02 0.  1.
         -2   -1    0    0    0  501 -0.00000000000E+00 -0.00000000000E+00 -0.13508947352E+02  0.13508947592E+02  0.25500000000E-02 0. -1.
    5000001    1    1    2    0    0 -0.94648782523E+02 -0.44628256283E+02  0.57413018056E+03  0.58864636033E+03  0.77000000000E+02 0.  0.
   -5000001    1    1    2    0    0  0.94648782523E+02  0.44628256283E+02  0.66881944454E+03  0.68132115972E+03  0.77000000000E+02 0.  0.
<mgrwt>
<rscale>  0 0.26056426E+03</rscale>
<asrwt>0</asrwt>
<pdfrwt beam="1">  1        2 0.19330133E+00 0.26056426E+03</pdfrwt>
<pdfrwt beam="2">  1       -2 0.20782995E-02 0.26056426E+03</pdfrwt>
<totfact> 0.13516574E+04</totfact>
</mgrwt>
</event>
<event>
 4    1  0.6148427E-004  0.3044507E+03  0.7818608E-02  0.1083037E+00
         -2   -1    0    0    0  501 -0.00000000000E+00  0.00000000000E+00  0.23909053714E+03  0.23909053715E+03  0.25500000000E-02 0. -1.
          2   -1    0    0  501    0  0.00000000000E+00 -0.00000000000E+00 -0.96919577477E+02  0.96919577511E+02  0.25500000000E-02 0.  1.
    5000001    1    1    2    0    0  0.10537697723E+03 -0.51228505106E+02  0.13651761243E+03  0.19569038191E+03  0.77000000000E+02 0.  0.
   -5000001    1    1    2    0    0 -0.10537697723E+03  0.51228505106E+02  0.56533472282E+01  0.14031973276E+03  0.77000000000E+02 0.  0.
<mgrwt>
<rscale>  0 0.30445068E+03</rscale>
<asrwt>0</asrwt>
<pdfrwt beam="1">  1        2 0.14910705E-01 0.30445068E+03</pdfrwt>
<pdfrwt beam="2">  1       -2 0.36783159E-01 0.30445068E+03</pdfrwt>
<totfact> 0.27452361E+03</totfact>
</mgrwt>
</event>
<event>
 4    1  0.6148427E-004  0.2386372E+03  0.7818608E-02  0.1120704E+00
         -2   -1    0    0    0  501 -0.00000000000E+00  0.00000000000E+00  0.20218526593E+02  0.20218526754E+02  0.25500000000E-02 0. -1.
          2   -1    0    0  501    0  0.00000000000E+00 -0.00000000000E+00 -0.70415278051E+03  0.70415278052E+03  0.25500000000E-02 0.  1.
    5000001    1    1    2    0    0  0.40543802171E+02  0.47703571487E+02 -0.54305280970E+03  0.55204599876E+03  0.77000000000E+02 0.  0.
   -5000001    1    1    2    0    0 -0.40543802171E+02 -0.47703571487E+02 -0.14088144422E+03  0.17232530851E+03  0.77000000000E+02 0.  0.
<mgrwt>
<rscale>  0 0.23863723E+03</rscale>
<asrwt>0</asrwt>
<pdfrwt beam="1">  1        2 0.10833118E+00 0.23863723E+03</pdfrwt>
<pdfrwt beam="2">  1       -2 0.31105431E-02 0.23863723E+03</pdfrwt>
<totfact> 0.16494658E+04</totfact>
</mgrwt>
</event>
<event>
 4    1  0.6148427E-004  0.4408264E+03  0.7818608E-02  0.1030494E+00
         -2   -1    0    0    0  501 -0.00000000000E+00  0.00000000000E+00  0.12347189847E+02  0.12347190111E+02  0.25500000000E-02 0. -1.
          2   -1    0    0  501    0  0.00000000000E+00 -0.00000000000E+00 -0.39346581814E+04  0.39346581814E+04  0.25500000000E-02 0.  1.
    5000001    1    1    2    0    0 -0.16802385603E+03 -0.10203230974E+03 -0.13941437845E+04  0.14100384747E+04  0.77000000000E+02 0.  0.
   -5000001    1    1    2    0    0  0.16802385603E+03  0.10203230974E+03 -0.25281672071E+04  0.25369668968E+04  0.77000000000E+02 0.  0.
<mgrwt>
<rscale>  0 0.44082637E+03</rscale>
<asrwt>0</asrwt>
<pdfrwt beam="1">  1        2 0.60533103E+00 0.44082637E+03</pdfrwt>
<pdfrwt beam="2">  1       -2 0.18995708E-02 0.44082637E+03</pdfrwt>
<totfact> 0.40169800E+02</totfact>
</mgrwt>
</event>
<event>
 4    1  0.6148427E-004  0.3802423E+03  0.7818608E-02  0.1050844E+00
         -2   -1    0    0    0  501 -0.00000000000E+00  0.00000000000E+00  0.23428188954E+03  0.23428188955E+03  0.25500000000E-02 0. -1.
          2   -1    0    0  501    0  0.00000000000E+00 -0.00000000000E+00 -0.15428448155E+03  0.15428448157E+03  0.25500000000E-02 0.  1.
    5000001    1    1    2    0    0 -0.57086426678E+02  0.16023303069E+03  0.76610030626E+02  0.20182066551E+03  0.77000000000E+02 0.  0.
   -5000001    1    1    2    0    0  0.57086426678E+02 -0.16023303069E+03  0.33873773639E+01  0.18674570560E+03  0.77000000000E+02 0.  0.
<mgrwt>
<rscale>  0 0.38024234E+03</rscale>
<asrwt>0</asrwt>
<pdfrwt beam="1">  1        2 0.23736074E-01 0.38024234E+03</pdfrwt>
<pdfrwt beam="2">  1       -2 0.36043367E-01 0.38024234E+03</pdfrwt>
<totfact> 0.16687798E+03</totfact>
</mgrwt>
</event>
<event>
 4    1  0.6148427E-004  0.1947899E+03  0.7818608E-02  0.1154211E+00
         -2   -1    0    0    0  501 -0.00000000000E+00  0.00000000000E+00  0.35648057897E+03  0.35648057898E+03  0.25500000000E-02 0. -1.
          2   -1    0    0  501    0  0.00000000000E+00 -0.00000000000E+00 -0.26609512555E+02  0.26609512677E+02  0.25500000000E-02 0.  1.
    5000001    1    1    2    0    0  0.10110708045E+02 -0.48448566025E+02  0.23037867439E+03  0.24789680027E+03  0.77000000000E+02 0.  0.
   -5000001    1    1    2    0    0 -0.10110708045E+02  0.48448566025E+02  0.99492392027E+02  0.13519329140E+03  0.77000000000E+02 0.  0.
<mgrwt>
<rscale>  0 0.19478988E+03</rscale>
<asrwt>0</asrwt>
<pdfrwt beam="1">  1        2 0.40937709E-02 0.19478988E+03</pdfrwt>
<pdfrwt beam="2">  1       -2 0.54843169E-01 0.19478988E+03</pdfrwt>
<totfact> 0.63598815E+03</totfact>
</mgrwt>
</event>
<event>
 4    1  0.6148427E-004  0.3566626E+03  0.7818608E-02  0.1059913E+00
          2   -1    0    0  501    0  0.00000000000E+00  0.00000000000E+00  0.15522274213E+03  0.15522274215E+03  0.25500000000E-02 0.  1.
         -2   -1    0    0    0  501 -0.00000000000E+00 -0.00000000000E+00 -0.20488015682E+03  0.20488015683E+03  0.25500000000E-02 0. -1.
    5000001    1    1    2    0    0  0.12610439029E+03 -0.72694793889E+02  0.44287491421E+02  0.17052047445E+03  0.77000000000E+02 0.  0.
   -5000001    1    1    2    0    0 -0.12610439029E+03  0.72694793889E+02 -0.93944906108E+02  0.18958242454E+03  0.77000000000E+02 0.  0.
<mgrwt>
<rscale>  0 0.35666264E+03</rscale>
<asrwt>0</asrwt>
<pdfrwt beam="1">  1        2 0.23880422E-01 0.35666264E+03</pdfrwt>
<pdfrwt beam="2">  1       -2 0.31520024E-01 0.35666264E+03</pdfrwt>
<totfact> 0.21262504E+03</totfact>
</mgrwt>
</event>
<event>
 4    1  0.6148427E-004  0.2025249E+03  0.7818608E-02  0.1147626E+00
          2   -1    0    0  501    0  0.00000000000E+00  0.00000000000E+00  0.48628042503E+03  0.48628042504E+03  0.25500000000E-02 0.  1.
         -2   -1    0    0    0  501 -0.00000000000E+00 -0.00000000000E+00 -0.21086771345E+02  0.21086771500E+02  0.25500000000E-02 0. -1.
    5000001    1    1    2    0    0 -0.73188832956E+01  0.23413122327E+02  0.38546269287E+03  0.39384289754E+03  0.77000000000E+02 0.  0.
   -5000001    1    1    2    0    0  0.73188832956E+01 -0.23413122327E+02  0.79730960816E+02  0.11352429900E+03  0.77000000000E+02 0.  0.
<mgrwt>
<rscale>  0 0.20252490E+03</rscale>
<asrwt>0</asrwt>
<pdfrwt beam="1">  1        2 0.74812367E-01 0.20252490E+03</pdfrwt>
<pdfrwt beam="2">  1       -2 0.32441190E-02 0.20252490E+03</pdfrwt>
<totfact> 0.23491359E+04</totfact>
</mgrwt>
</event>
<event>
 4    1  0.6148427E-004  0.1895284E+03  0.7818608E-02  0.1158887E+00
         -2   -1    0    0    0  501 -0.00000000000E+00  0.00000000000E+00  0.53162051632E+01  0.53162057747E+01  0.25500000000E-02 0. -1.
          2   -1    0    0  501    0  0.00000000000E+00 -0.00000000000E+00 -0.16892226311E+04  0.16892226311E+04  0.25500000000E-02 0.  1.
    5000001    1    1    2    0    0 -0.28050638921E+02 -0.47244448168E+02 -0.79107818342E+03  0.79671360507E+03  0.77000000000E+02 0.  0.
   -5000001    1    1    2    0    0  0.28050638921E+02  0.47244448168E+02 -0.89282824255E+03  0.89782523184E+03  0.77000000000E+02 0.  0.
<mgrwt>
<rscale>  0 0.18952841E+03</rscale>
<asrwt>0</asrwt>
<pdfrwt beam="1">  1        2 0.25987998E+00 0.18952841E+03</pdfrwt>
<pdfrwt beam="2">  1       -2 0.81787911E-03 0.18952841E+03</pdfrwt>
<totfact> 0.30309205E+04</totfact>
</mgrwt>
</event>
<event>
 4    1  0.6148427E-004  0.2472804E+03  0.7818608E-02  0.1115036E+00
         -2   -1    0    0    0  501 -0.00000000000E+00  0.00000000000E+00  0.44524116360E+02  0.44524116433E+02  0.25500000000E-02 0. -1.
          2   -1    0    0  501    0  0.00000000000E+00 -0.00000000000E+00 -0.34333963971E+03  0.34333963972E+03  0.25500000000E-02 0.  1.
    5000001    1    1    2    0    0  0.92727577550E+02  0.26352200017E+02 -0.16205861748E+03  0.20367826979E+03  0.77000000000E+02 0.  0.
   -5000001    1    1    2    0    0 -0.92727577550E+02 -0.26352200017E+02 -0.13675690586E+03  0.18418548636E+03  0.77000000000E+02 0.  0.
<mgrwt>
<rscale>  0 0.24728036E+03</rscale>
<asrwt>0</asrwt>
<pdfrwt beam="1">  1        2 0.52821481E-01 0.24728036E+03</pdfrwt>
<pdfrwt beam="2">  1       -2 0.68498643E-02 0.24728036E+03</pdfrwt>
<totfact> 0.11214791E+04</totfact>
</mgrwt>
</event>
<event>
 4    1  0.6148427E-004  0.2978153E+03  0.7818608E-02  0.1086338E+00
          2   -1    0    0  501    0  0.00000000000E+00  0.00000000000E+00  0.81952702474E+03  0.81952702475E+03  0.25500000000E-02 0.  1.
         -2   -1    0    0    0  501 -0.00000000000E+00 -0.00000000000E+00 -0.27056453410E+02  0.27056453530E+02  0.25500000000E-02 0. -1.
    5000001    1    1    2    0    0 -0.47981309137E+02  0.11807830717E+02  0.73020518208E+03  0.73591455946E+03  0.77000000000E+02 0.  0.
   -5000001    1    1    2    0    0  0.47981309137E+02 -0.11807830717E+02  0.62265389252E+02  0.11066891881E+03  0.77000000000E+02 0.  0.
<mgrwt>
<rscale>  0 0.29781534E+03</rscale>
<asrwt>0</asrwt>
<pdfrwt beam="1">  1        2 0.12608107E+00 0.29781534E+03</pdfrwt>
<pdfrwt beam="2">  1       -2 0.41625316E-02 0.29781534E+03</pdfrwt>
<totfact> 0.88992532E+03</totfact>
</mgrwt>
</event>
<event>
 4    1  0.6148427E-004  0.2090866E+03  0.7818608E-02  0.1142291E+00
          2   -1    0    0  501    0  0.00000000000E+00  0.00000000000E+00  0.81375149419E+03  0.81375149419E+03  0.25500000000E-02 0.  1.
         -2   -1    0    0    0  501 -0.00000000000E+00 -0.00000000000E+00 -0.13430759192E+02  0.13430759434E+02  0.25500000000E-02 0. -1.
    5000001    1    1    2    0    0 -0.63119708175E+02 -0.31717981976E+02  0.41277833336E+03  0.42579934292E+03  0.77000000000E+02 0.  0.
   -5000001    1    1    2    0    0  0.63119708175E+02  0.31717981976E+02  0.38754240164E+03  0.40138291071E+03  0.77000000000E+02 0.  0.
<mgrwt>
<rscale>  0 0.20908659E+03</rscale>
<asrwt>0</asrwt>
<pdfrwt beam="1">  1        2 0.12519260E+00 0.20908659E+03</pdfrwt>
<pdfrwt beam="2">  1       -2 0.20662696E-02 0.20908659E+03</pdfrwt>
<totfact> 0.25014983E+04</totfact>
</mgrwt>
</event>
<event>
 4    1  0.6148427E-004  0.3785098E+03  0.7818608E-02  0.1051486E+00
         -2   -1    0    0    0  501 -0.00000000000E+00  0.00000000000E+00  0.16511265053E+02  0.16511265250E+02  0.25500000000E-02 0. -1.
          2   -1    0    0  501    0  0.00000000000E+00 -0.00000000000E+00 -0.21692720342E+04  0.21692720342E+04  0.25500000000E-02 0.  1.
    5000001    1    1    2    0    0  0.23064169517E+02  0.16611276948E+03 -0.13188505188E+04  0.13316985767E+04  0.77000000000E+02 0.  0.
   -5000001    1    1    2    0    0 -0.23064169517E+02 -0.16611276948E+03 -0.83391025036E+03  0.85408472282E+03  0.77000000000E+02 0.  0.
<mgrwt>
<rscale>  0 0.37850985E+03</rscale>
<asrwt>0</asrwt>
<pdfrwt beam="1">  1        2 0.33373393E+00 0.37850985E+03</pdfrwt>
<pdfrwt beam="2">  1       -2 0.25401964E-02 0.37850985E+03</pdfrwt>
<totfact> 0.32659970E+03</totfact>
</mgrwt>
</event>
<event>
 4    1  0.6148427E-004  0.3529755E+03  0.7818608E-02  0.1061400E+00
         -2   -1    0    0    0  501 -0.00000000000E+00  0.00000000000E+00  0.23818201349E+02  0.23818201485E+02  0.25500000000E-02 0. -1.
          2   -1    0    0  501    0  0.00000000000E+00 -0.00000000000E+00 -0.13077365071E+04  0.13077365071E+04  0.25500000000E-02 0.  1.
    5000001    1    1    2    0    0 -0.13545556020E+03  0.82298756805E+02 -0.60468374131E+03  0.62983547150E+03  0.77000000000E+02 0.  0.
   -5000001    1    1    2    0    0  0.13545556020E+03 -0.82298756805E+02 -0.67923456440E+03  0.70171923705E+03  0.77000000000E+02 0.  0.
<mgrwt>
<rscale>  0 0.35297553E+03</rscale>
<asrwt>0</asrwt>
<pdfrwt beam="1">  1        2 0.20119018E+00 0.35297553E+03</pdfrwt>
<pdfrwt beam="2">  1       -2 0.36643397E-02 0.35297553E+03</pdfrwt>
<totfact> 0.54695327E+03</totfact>
</mgrwt>
</event>
<event>
 4    1  0.6148427E-004  0.2458498E+03  0.7818608E-02  0.1115956E+00
          2   -1    0    0  501    0  0.00000000000E+00  0.00000000000E+00  0.52500051172E+02  0.52500051234E+02  0.25500000000E-02 0.  1.
         -2   -1    0    0    0  501 -0.00000000000E+00 -0.00000000000E+00 -0.28781931660E+03  0.28781931661E+03  0.25500000000E-02 0. -1.
    5000001    1    1    2    0    0 -0.69595919029E-01 -0.74031486682E+02 -0.20187053913E+03  0.22838866091E+03  0.77000000000E+02 0.  0.
   -5000001    1    1    2    0    0  0.69595919029E-01  0.74031486682E+02 -0.33448726298E+02  0.11193070693E+03  0.77000000000E+02 0.  0.
<mgrwt>
<rscale>  0 0.24584978E+03</rscale>
<asrwt>0</asrwt>
<pdfrwt beam="1">  1        2 0.80769311E-02 0.24584978E+03</pdfrwt>
<pdfrwt beam="2">  1       -2 0.44279894E-01 0.24584978E+03</pdfrwt>
<totfact> 0.40632083E+03</totfact>
</mgrwt>
</event>
<event>
 4    1  0.6148427E-004  0.2059773E+03  0.7818608E-02  0.1144792E+00
          2   -1    0    0  501    0  0.00000000000E+00  0.00000000000E+00  0.10148880495E+04  0.10148880495E+04  0.25500000000E-02 0.  1.
         -2   -1    0    0    0  501 -0.00000000000E+00 -0.00000000000E+00 -0.10451068048E+02  0.10451068359E+02  0.25500000000E-02 0. -1.
    5000001    1    1    2    0    0  0.56871383122E+02  0.15599240027E+02  0.67465689202E+03  0.68159270276E+03  0.77000000000E+02 0.  0.
   -5000001    1    1    2    0    0 -0.56871383122E+02 -0.15599240027E+02  0.32978008940E+03  0.34374641507E+03  0.77000000000E+02 0.  0.
<mgrwt>
<rscale>  0 0.20597732E+03</rscale>
<asrwt>0</asrwt>
<pdfrwt beam="1">  1        2 0.15613658E+00 0.20597732E+03</pdfrwt>
<pdfrwt beam="2">  1       -2 0.16078571E-02 0.20597732E+03</pdfrwt>
<totfact> 0.26840269E+04</totfact>
</mgrwt>
</event>
<event>
 4    1  0.6148427E-004  0.3336802E+03  0.7818608E-02  0.1069520E+00
          2   -1    0    0  501    0  0.00000000000E+00  0.00000000000E+00  0.91421958117E+03  0.91421958118E+03  0.25500000000E-02 0.  1.
         -2   -1    0    0    0  501 -0.00000000000E+00 -0.00000000000E+00 -0.30447414161E+02  0.30447414268E+02  0.25500000000E-02 0. -1.
    5000001    1    1    2    0    0  0.95300552617E+02 -0.61728918683E+02  0.71067185457E+03  0.72379288447E+03  0.77000000000E+02 0.  0.
   -5000001    1    1    2    0    0 -0.95300552617E+02  0.61728918683E+02  0.17310031244E+03  0.22087411097E+03  0.77000000000E+02 0.  0.
<mgrwt>
<rscale>  0 0.33368022E+03</rscale>
<asrwt>0</asrwt>
<pdfrwt beam="1">  1        2 0.14064916E+00 0.33368022E+03</pdfrwt>
<pdfrwt beam="2">  1       -2 0.46842178E-02 0.33368022E+03</pdfrwt>
<totfact> 0.64550586E+03</totfact>
</mgrwt>
</event>
<event>
 4    1  0.6148427E-004  0.3324477E+03  0.7818608E-02  0.1070059E+00
          2   -1    0    0  501    0  0.00000000000E+00  0.00000000000E+00  0.13800650001E+04  0.13800650001E+04  0.25500000000E-02 0.  1.
         -2   -1    0    0    0  501 -0.00000000000E+00 -0.00000000000E+00 -0.20021065414E+02  0.20021065577E+02  0.25500000000E-02 0. -1.
    5000001    1    1    2    0    0 -0.10094597132E+03  0.38051569676E+02  0.25754514034E+03  0.28964894336E+03  0.77000000000E+02 0.  0.
   -5000001    1    1    2    0    0  0.10094597132E+03 -0.38051569676E+02  0.11024987944E+04  0.11104371223E+04  0.77000000000E+02 0.  0.
<mgrwt>
<rscale>  0 0.33244772E+03</rscale>
<asrwt>0</asrwt>
<pdfrwt beam="1">  1        2 0.21231776E+00 0.33244772E+03</pdfrwt>
<pdfrwt beam="2">  1       -2 0.30801629E-02 0.33244772E+03</pdfrwt>
<totfact> 0.64724484E+03</totfact>
</mgrwt>
</event>
<event>
 4    1  0.6148427E-004  0.3440012E+03  0.7818608E-02  0.1065104E+00
         -2   -1    0    0    0  501 -0.00000000000E+00  0.00000000000E+00  0.30039412669E+03  0.30039412670E+03  0.25500000000E-02 0. -1.
          2   -1    0    0  501    0  0.00000000000E+00 -0.00000000000E+00 -0.98484616760E+02  0.98484616793E+02  0.25500000000E-02 0.  1.
    5000001    1    1    2    0    0  0.63488611196E+02  0.99396205878E+02  0.21541831333E+03  0.25737998992E+03  0.77000000000E+02 0.  0.
   -5000001    1    1    2    0    0 -0.63488611196E+02 -0.99396205878E+02 -0.13508803396E+02  0.14149875358E+03  0.77000000000E+02 0.  0.
<mgrwt>
<rscale>  0 0.34400117E+03</rscale>
<asrwt>0</asrwt>
<pdfrwt beam="1">  1        2 0.15151479E-01 0.34400117E+03</pdfrwt>
<pdfrwt beam="2">  1       -2 0.46214482E-01 0.34400117E+03</pdfrwt>
<totfact> 0.17386427E+03</totfact>
</mgrwt>
</event>
<event>
 4    1  0.6148427E-004  0.3039271E+03  0.7818608E-02  0.1083294E+00
          2   -1    0    0  501    0  0.00000000000E+00  0.00000000000E+00  0.82524216590E+03  0.82524216591E+03  0.25500000000E-02 0.  1.
         -2   -1    0    0    0  501 -0.00000000000E+00 -0.00000000000E+00 -0.27983213303E+02  0.27983213419E+02  0.25500000000E-02 0. -1.
    5000001    1    1    2    0    0 -0.68132651712E+02 -0.89977908932E+02  0.58539314064E+03  0.60112578670E+03  0.77000000000E+02 0.  0.
   -5000001    1    1    2    0    0  0.68132651712E+02  0.89977908932E+02  0.21186581195E+03  0.25209959262E+03  0.77000000000E+02 0.  0.
<mgrwt>
<rscale>  0 0.30392715E+03</rscale>
<asrwt>0</asrwt>
<pdfrwt beam="1">  1        2 0.12696033E+00 0.30392715E+03</pdfrwt>
<pdfrwt beam="2">  1       -2 0.43051099E-02 0.30392715E+03</pdfrwt>
<totfact> 0.83865473E+03</totfact>
</mgrwt>
</event>
<event>
 4    1  0.6148427E-004  0.2115696E+03  0.7818608E-02  0.1140329E+00
         -2   -1    0    0    0  501 -0.00000000000E+00  0.00000000000E+00  0.38304374322E+02  0.38304374406E+02  0.25500000000E-02 0. -1.
          2   -1    0    0  501    0  0.00000000000E+00 -0.00000000000E+00 -0.29214486837E+03  0.29214486838E+03  0.25500000000E-02 0.  1.
    5000001    1    1    2    0    0 -0.12979462020E+02  0.52693769164E+02 -0.20209142416E+03  0.22296870512E+03  0.77000000000E+02 0.  0.
   -5000001    1    1    2    0    0  0.12979462020E+02 -0.52693769164E+02 -0.51749069885E+02  0.10748053767E+03  0.77000000000E+02 0.  0.
<mgrwt>
<rscale>  0 0.21156962E+03</rscale>
<asrwt>0</asrwt>
<pdfrwt beam="1">  1        2 0.44945363E-01 0.21156962E+03</pdfrwt>
<pdfrwt beam="2">  1       -2 0.58929809E-02 0.21156962E+03</pdfrwt>
<totfact> 0.16648874E+04</totfact>
</mgrwt>
</event>
<event>
 4    1  0.6148427E-004  0.3452693E+03  0.7818608E-02  0.1064574E+00
          2   -1    0    0  501    0  0.00000000000E+00  0.00000000000E+00  0.16373279531E+04  0.16373279531E+04  0.25500000000E-02 0.  1.
         -2   -1    0    0    0  501 -0.00000000000E+00 -0.00000000000E+00 -0.18202043662E+02  0.18202043841E+02  0.25500000000E-02 0. -1.
    5000001    1    1    2    0    0  0.71940265221E+02  0.63819763995E+02  0.13894351599E+04  0.13948861701E+04  0.77000000000E+02 0.  0.
   -5000001    1    1    2    0    0 -0.71940265221E+02 -0.63819763995E+02  0.22969074955E+03  0.26064382684E+03  0.77000000000E+02 0.  0.
<mgrwt>
<rscale>  0 0.34526926E+03</rscale>
<asrwt>0</asrwt>
<pdfrwt beam="1">  1        2 0.25189664E+00 0.34526926E+03</pdfrwt>
<pdfrwt beam="2">  1       -2 0.28003141E-02 0.34526926E+03</pdfrwt>
<totfact> 0.54214936E+03</totfact>
</mgrwt>
</event>
<event>
 4    1  0.6148427E-004  0.3014020E+03  0.7818608E-02  0.1084542E+00
          2   -1    0    0  501    0  0.00000000000E+00  0.00000000000E+00  0.98040120996E+03  0.98040120997E+03  0.25500000000E-02 0.  1.
         -2   -1    0    0    0  501 -0.00000000000E+00 -0.00000000000E+00 -0.23164797551E+02  0.23164797692E+02  0.25500000000E-02 0. -1.
    5000001    1    1    2    0    0 -0.49689043608E+02  0.11459586824E+03  0.36421247853E+03  0.39265881321E+03  0.77000000000E+02 0.  0.
   -5000001    1    1    2    0    0  0.49689043608E+02 -0.11459586824E+03  0.59302393388E+03  0.61090719444E+03  0.77000000000E+02 0.  0.
<mgrwt>
<rscale>  0 0.30140203E+03</rscale>
<asrwt>0</asrwt>
<pdfrwt beam="1">  1        2 0.15083097E+00 0.30140203E+03</pdfrwt>
<pdfrwt beam="2">  1       -2 0.35638148E-02 0.30140203E+03</pdfrwt>
<totfact> 0.88413084E+03</totfact>
</mgrwt>
</event>
<event>
 4    1  0.6148427E-004  0.4436531E+03  0.7818608E-02  0.1029632E+00
          2   -1    0    0  501    0  0.00000000000E+00  0.00000000000E+00  0.21976347182E+03  0.21976347183E+03  0.25500000000E-02 0.  1.
         -2   -1    0    0    0  501 -0.00000000000E+00 -0.00000000000E+00 -0.22390897308E+03  0.22390897309E+03  0.25500000000E-02 0. -1.
    5000001    1    1    2    0    0 -0.14169254158E+03 -0.14616405137E+03  0.40792940372E+02  0.22143570226E+03  0.77000000000E+02 0.  0.
   -5000001    1    1    2    0    0  0.14169254158E+03  0.14616405137E+03 -0.44938441630E+02  0.22223674266E+03  0.77000000000E+02 0.  0.
<mgrwt>
<rscale>  0 0.44365308E+03</rscale>
<asrwt>0</asrwt>
<pdfrwt beam="1">  1        2 0.33809765E-01 0.44365308E+03</pdfrwt>
<pdfrwt beam="2">  1       -2 0.34447534E-01 0.44365308E+03</pdfrwt>
<totfact> 0.12250131E+03</totfact>
</mgrwt>
</event>
<event>
 4    1  0.6148427E-004  0.5638079E+03  0.7818608E-02  0.9983475E-01
          2   -1    0    0  501    0  0.00000000000E+00  0.00000000000E+00  0.24722840793E+04  0.24722840793E+04  0.25500000000E-02 0.  1.
         -2   -1    0    0    0  501 -0.00000000000E+00 -0.00000000000E+00 -0.32144297147E+02  0.32144297248E+02  0.25500000000E-02 0. -1.
    5000001    1    1    2    0    0  0.23173977441E+03  0.14083728606E+03  0.12269082704E+04  0.12588770266E+04  0.77000000000E+02 0.  0.
   -5000001    1    1    2    0    0 -0.23173977441E+03 -0.14083728606E+03  0.12132315117E+04  0.12455513499E+04  0.77000000000E+02 0.  0.
<mgrwt>
<rscale>  0 0.56380789E+03</rscale>
<asrwt>0</asrwt>
<pdfrwt beam="1">  1        2 0.38035152E+00 0.56380789E+03</pdfrwt>
<pdfrwt beam="2">  1       -2 0.49452749E-02 0.56380789E+03</pdfrwt>
<totfact> 0.79866175E+02</totfact>
</mgrwt>
</event>
<event>
 4    1  0.6148427E-004  0.1968341E+03  0.7818608E-02  0.1152438E+00
         -2   -1    0    0    0  501 -0.00000000000E+00  0.00000000000E+00  0.55255997163E+02  0.55255997222E+02  0.25500000000E-02 0. -1.
          2   -1    0    0  501    0  0.00000000000E+00 -0.00000000000E+00 -0.17529168289E+03  0.17529168291E+03  0.25500000000E-02 0.  1.
    5000001    1    1    2    0    0 -0.30853565448E+02  0.43535686290E+02 -0.95343478080E+02  0.13366629079E+03  0.77000000000E+02 0.  0.
   -5000001    1    1    2    0    0  0.30853565448E+02 -0.43535686290E+02 -0.24692207645E+02  0.96881389337E+02  0.77000000000E+02 0.  0.
<mgrwt>
<rscale>  0 0.19683411E+03</rscale>
<asrwt>0</asrwt>
<pdfrwt beam="1">  1        2 0.26967951E-01 0.19683411E+03</pdfrwt>
<pdfrwt beam="2">  1       -2 0.85009227E-02 0.19683411E+03</pdfrwt>
<totfact> 0.16358198E+04</totfact>
</mgrwt>
</event>
<event>
 4    1  0.6148427E-004  0.1155788E+04  0.7818608E-02  0.9152461E-01
          2   -1    0    0  501    0  0.00000000000E+00  0.00000000000E+00  0.16615662304E+04  0.16615662304E+04  0.25500000000E-02 0.  1.
         -2   -1    0    0    0  501 -0.00000000000E+00 -0.00000000000E+00 -0.20099188575E+03  0.20099188576E+03  0.25500000000E-02 0. -1.
    5000001    1    1    2    0    0  0.20104891393E+03  0.36792112591E+03  0.10149912595E+03  0.43819823511E+03  0.77000000000E+02 0.  0.
   -5000001    1    1    2    0    0 -0.20104891393E+03 -0.36792112591E+03  0.13590752187E+04  0.14243598810E+04  0.77000000000E+02 0.  0.
<mgrwt>
<rscale>  0 0.11557877E+04</rscale>
<asrwt>0</asrwt>
<pdfrwt beam="1">  1        2 0.25562559E+00 0.11557877E+04</pdfrwt>
<pdfrwt beam="2">  1       -2 0.30921827E-01 0.11557877E+04</pdfrwt>
<totfact> 0.98754108E+01</totfact>
</mgrwt>
</event>
<event>
 4    1  0.6148427E-004  0.2402769E+03  0.7818608E-02  0.1119609E+00
          2   -1    0    0  501    0  0.00000000000E+00  0.00000000000E+00  0.11778213069E+03  0.11778213072E+03  0.25500000000E-02 0.  1.
         -2   -1    0    0    0  501 -0.00000000000E+00 -0.00000000000E+00 -0.12254187287E+03  0.12254187290E+03  0.25500000000E-02 0. -1.
    5000001    1    1    2    0    0  0.41473338192E+02 -0.74684193892E+02  0.32361310970E+02  0.11947393459E+03  0.77000000000E+02 0.  0.
   -5000001    1    1    2    0    0 -0.41473338192E+02  0.74684193892E+02 -0.37121053152E+02  0.12085006903E+03  0.77000000000E+02 0.  0.
<mgrwt>
<rscale>  0 0.24027686E+03</rscale>
<asrwt>0</asrwt>
<pdfrwt beam="1">  1        2 0.18120328E-01 0.24027686E+03</pdfrwt>
<pdfrwt beam="2">  1       -2 0.18852596E-01 0.24027686E+03</pdfrwt>
<totfact> 0.71298890E+03</totfact>
</mgrwt>
</event>
<event>
 4    1  0.6148427E-004  0.1983918E+03  0.7818608E-02  0.1151103E+00
         -2   -1    0    0    0  501 -0.00000000000E+00  0.00000000000E+00  0.26681693886E+01  0.26681706071E+01  0.25500000000E-02 0. -1.
          2   -1    0    0  501    0  0.00000000000E+00 -0.00000000000E+00 -0.36878562042E+04  0.36878562042E+04  0.25500000000E-02 0.  1.
    5000001    1    1    2    0    0 -0.27642121237E+02 -0.17807658000E+02 -0.85306394685E+03  0.85716293490E+03  0.77000000000E+02 0.  0.
   -5000001    1    1    2    0    0  0.27642121237E+02  0.17807658000E+02 -0.28321240879E+04  0.28333614399E+04  0.77000000000E+02 0.  0.
<mgrwt>
<rscale>  0 0.19839181E+03</rscale>
<asrwt>0</asrwt>
<pdfrwt beam="1">  1        2 0.56735842E+00 0.19839181E+03</pdfrwt>
<pdfrwt beam="2">  1       -2 0.41049064E-03 0.19839181E+03</pdfrwt>
<totfact> 0.58697782E+03</totfact>
</mgrwt>
</event>
<event>
 4    1  0.6148427E-004  0.4286578E+03  0.7818608E-02  0.1034285E+00
         -2   -1    0    0    0  501 -0.00000000000E+00  0.00000000000E+00  0.27400957731E+02  0.27400957849E+02  0.25500000000E-02 0. -1.
          2   -1    0    0  501    0  0.00000000000E+00 -0.00000000000E+00 -0.16764699952E+04  0.16764699952E+04  0.25500000000E-02 0.  1.
    5000001    1    1    2    0    0  0.19935222560E+03  0.90209627029E+01 -0.87862759643E+03  0.90428874859E+03  0.77000000000E+02 0.  0.
   -5000001    1    1    2    0    0 -0.19935222560E+03 -0.90209627029E+01 -0.77044144106E+03  0.79958220448E+03  0.77000000000E+02 0.  0.
<mgrwt>
<rscale>  0 0.42865783E+03</rscale>
<asrwt>0</asrwt>
<pdfrwt beam="1">  1        2 0.25791838E+00 0.42865783E+03</pdfrwt>
<pdfrwt beam="2">  1       -2 0.42155333E-02 0.42865783E+03</pdfrwt>
<totfact> 0.27821053E+03</totfact>
</mgrwt>
</event>
<event>
 4    1  0.6148427E-004  0.1699730E+03  0.7818608E-02  0.1177876E+00
          2   -1    0    0  501    0  0.00000000000E+00  0.00000000000E+00  0.14645146969E+03  0.14645146972E+03  0.25500000000E-02 0.  1.
         -2   -1    0    0    0  501 -0.00000000000E+00 -0.00000000000E+00 -0.49318088341E+02  0.49318088407E+02  0.25500000000E-02 0. -1.
    5000001    1    1    2    0    0 -0.28041884530E+02 -0.20799393050E+02  0.38609088533E+02  0.92944197003E+02  0.77000000000E+02 0.  0.
   -5000001    1    1    2    0    0  0.28041884530E+02  0.20799393050E+02  0.58524292819E+02  0.10282536112E+03  0.77000000000E+02 0.  0.
<mgrwt>
<rscale>  0 0.16997302E+03</rscale>
<asrwt>0</asrwt>
<pdfrwt beam="1">  1        2 0.22530995E-01 0.16997302E+03</pdfrwt>
<pdfrwt beam="2">  1       -2 0.75873982E-02 0.16997302E+03</pdfrwt>
<totfact> 0.23549753E+04</totfact>
</mgrwt>
</event>
<event>
 4    1  0.6148427E-004  0.2217850E+03  0.7818608E-02  0.1132559E+00
          2   -1    0    0  501    0  0.00000000000E+00  0.00000000000E+00  0.53185245410E+03  0.53185245411E+03  0.25500000000E-02 0.  1.
         -2   -1    0    0    0  501 -0.00000000000E+00 -0.00000000000E+00 -0.23121350498E+02  0.23121350639E+02  0.25500000000E-02 0. -1.
    5000001    1    1    2    0    0  0.31711409291E+02 -0.71132544500E+02  0.21083013577E+03  0.23757903635E+03  0.77000000000E+02 0.  0.
   -5000001    1    1    2    0    0 -0.31711409291E+02  0.71132544500E+02  0.29790096784E+03  0.31739476839E+03  0.77000000000E+02 0.  0.
<mgrwt>
<rscale>  0 0.22178500E+03</rscale>
<asrwt>0</asrwt>
<pdfrwt beam="1">  1        2 0.81823453E-01 0.22178500E+03</pdfrwt>
<pdfrwt beam="2">  1       -2 0.35571309E-02 0.22178500E+03</pdfrwt>
<totfact> 0.18647577E+04</totfact>
</mgrwt>
</event>
<event>
 4    1  0.6148427E-004  0.1685886E+03  0.7818608E-02  0.1179328E+00
         -2   -1    0    0    0  501 -0.00000000000E+00  0.00000000000E+00  0.22509969571E+03  0.22509969572E+03  0.25500000000E-02 0. -1.
          2   -1    0    0  501    0  0.00000000000E+00 -0.00000000000E+00 -0.31566156689E+02  0.31566156792E+02  0.25500000000E-02 0.  1.
    5000001    1    1    2    0    0 -0.34006057692E+02  0.15025367548E+01  0.90332290490E+02  0.12348114140E+03  0.77000000000E+02 0.  0.
   -5000001    1    1    2    0    0  0.34006057692E+02 -0.15025367548E+01  0.10320124853E+03  0.13318471112E+03  0.77000000000E+02 0.  0.
<mgrwt>
<rscale>  0 0.16858864E+03</rscale>
<asrwt>0</asrwt>
<pdfrwt beam="1">  1        2 0.48563318E-02 0.16858864E+03</pdfrwt>
<pdfrwt beam="2">  1       -2 0.34630723E-01 0.16858864E+03</pdfrwt>
<totfact> 0.12203865E+04</totfact>
</mgrwt>
</event>
<event>
 4    1  0.6148427E-004  0.2797470E+03  0.7818608E-02  0.1095827E+00
          2   -1    0    0  501    0  0.00000000000E+00  0.00000000000E+00  0.14270135643E+04  0.14270135643E+04  0.25500000000E-02 0. -1.
         -2   -1    0    0    0  501 -0.00000000000E+00 -0.00000000000E+00 -0.13710164912E+02  0.13710165149E+02  0.25500000000E-02 0.  1.
    5000001    1    1    2    0    0  0.52151819552E+02 -0.95481930638E+02  0.48821354323E+03  0.50608109543E+03  0.77000000000E+02 0.  0.
   -5000001    1    1    2    0    0 -0.52151819552E+02  0.95481930638E+02  0.92508985620E+03  0.93464263406E+03  0.77000000000E+02 0.  0.
<mgrwt>
<rscale>  0 0.27974697E+03</rscale>
<asrwt>0</asrwt>
<pdfrwt beam="1">  1        2 0.21954052E+00 0.27974697E+03</pdfrwt>
<pdfrwt beam="2">  1       -2 0.21092564E-02 0.27974697E+03</pdfrwt>
<totfact> 0.10680501E+04</totfact>
</mgrwt>
</event>
<event>
 4    1  0.6148427E-004  0.4310359E+03  0.7818608E-02  0.1033533E+00
         -2   -1    0    0    0  501 -0.00000000000E+00  0.00000000000E+00  0.99879555077E+02  0.99879555109E+02  0.25500000000E-02 0. -1.
          2   -1    0    0  501    0  0.00000000000E+00 -0.00000000000E+00 -0.46503991124E+03  0.46503991124E+03  0.25500000000E-02 0.  1.
    5000001    1    1    2    0    0  0.16937742815E+03 -0.70124126514E+02 -0.29154904258E+03  0.35289651530E+03  0.77000000000E+02 0.  0.
   -5000001    1    1    2    0    0 -0.16937742815E+03  0.70124126514E+02 -0.73611313581E+02  0.21202295105E+03  0.77000000000E+02 0.  0.
<mgrwt>
<rscale>  0 0.43103587E+03</rscale>
<asrwt>0</asrwt>
<pdfrwt beam="1">  1        2 0.71544601E-01 0.43103587E+03</pdfrwt>
<pdfrwt beam="2">  1       -2 0.15366086E-01 0.43103587E+03</pdfrwt>
<totfact> 0.22351030E+03</totfact>
</mgrwt>
</event>
<event>
 4    1  0.6148427E-004  0.2357890E+03  0.7818608E-02  0.1122630E+00
         -2   -1    0    0    0  501 -0.00000000000E+00  0.00000000000E+00  0.14737630313E+02  0.14737630533E+02  0.25500000000E-02 0. -1.
          2   -1    0    0  501    0  0.00000000000E+00 -0.00000000000E+00 -0.94310353585E+03  0.94310353585E+03  0.25500000000E-02 0.  1.
    5000001    1    1    2    0    0 -0.74131279952E+02  0.49504928561E+02 -0.48405359049E+03  0.49817974977E+03  0.77000000000E+02 0.  0.
   -5000001    1    1    2    0    0  0.74131279952E+02 -0.49504928561E+02 -0.44431231505E+03  0.45966141661E+03  0.77000000000E+02 0.  0.
<mgrwt>
<rscale>  0 0.23578899E+03</rscale>
<asrwt>0</asrwt>
<pdfrwt beam="1">  1        2 0.14509280E+00 0.23578899E+03</pdfrwt>
<pdfrwt beam="2">  1       -2 0.22673285E-02 0.23578899E+03</pdfrwt>
<totfact> 0.18102105E+04</totfact>
</mgrwt>
</event>
<event>
 4    1  0.6148427E-004  0.2426856E+03  0.7818608E-02  0.1118017E+00
         -2   -1    0    0    0  501 -0.00000000000E+00  0.00000000000E+00  0.13814120984E+02  0.13814121220E+02  0.25500000000E-02 0. -1.
          2   -1    0    0  501    0  0.00000000000E+00 -0.00000000000E+00 -0.10658714768E+04  0.10658714768E+04  0.25500000000E-02 0.  1.
    5000001    1    1    2    0    0  0.44112115463E+02 -0.79557722884E+02 -0.42460067121E+03  0.44101024931E+03  0.77000000000E+02 0.  0.
   -5000001    1    1    2    0    0 -0.44112115463E+02  0.79557722884E+02 -0.62745668458E+03  0.63867534869E+03  0.77000000000E+02 0.  0.
<mgrwt>
<rscale>  0 0.24268562E+03</rscale>
<asrwt>0</asrwt>
<pdfrwt beam="1">  1        2 0.16398016E+00 0.24268562E+03</pdfrwt>
<pdfrwt beam="2">  1       -2 0.21252502E-02 0.24268562E+03</pdfrwt>
<totfact> 0.16782808E+04</totfact>
</mgrwt>
</event>
<event>
 4    1  0.6148427E-004  0.5476880E+03  0.7818608E-02  0.1002030E+00
         -2   -1    0    0    0  501 -0.00000000000E+00  0.00000000000E+00  0.30333023332E+02  0.30333023440E+02  0.25500000000E-02 0. -1.
          2   -1    0    0  501    0  0.00000000000E+00 -0.00000000000E+00 -0.24722410246E+04  0.24722410246E+04  0.25500000000E-02 0.  1.
    5000001    1    1    2    0    0  0.24893675380E+03 -0.73239607521E+02 -0.10310101586E+04  0.10659476979E+04  0.77000000000E+02 0.  0.
   -5000001    1    1    2    0    0 -0.24893675380E+03  0.73239607521E+02 -0.14108978427E+04  0.14366263502E+04  0.77000000000E+02 0.  0.
<mgrwt>
<rscale>  0 0.54768803E+03</rscale>
<asrwt>0</asrwt>
<pdfrwt beam="1">  1        2 0.38034461E+00 0.54768803E+03</pdfrwt>
<pdfrwt beam="2">  1       -2 0.46666209E-02 0.54768803E+03</pdfrwt>
<totfact> 0.87487043E+02</totfact>
</mgrwt>
</event>
<event>
 4    1  0.6148427E-004  0.2901375E+03  0.7818608E-02  0.1090277E+00
          2   -1    0    0  501    0  0.00000000000E+00  0.00000000000E+00  0.59015358166E+02  0.59015358221E+02  0.25500000000E-02 0.  1.
         -2   -1    0    0    0  501 -0.00000000000E+00 -0.00000000000E+00 -0.35660113724E+03  0.35660113725E+03  0.25500000000E-02 0. -1.
    5000001    1    1    2    0    0  0.10986835462E+03  0.55999225184E+01 -0.70155948886E+02  0.15150337172E+03  0.77000000000E+02 0.  0.
   -5000001    1    1    2    0    0 -0.10986835462E+03 -0.55999225184E+01 -0.22742983019E+03  0.26411312375E+03  0.77000000000E+02 0.  0.
<mgrwt>
<rscale>  0 0.29013751E+03</rscale>
<asrwt>0</asrwt>
<pdfrwt beam="1">  1        2 0.90792862E-02 0.29013751E+03</pdfrwt>
<pdfrwt beam="2">  1       -2 0.54861712E-01 0.29013751E+03</pdfrwt>
<totfact> 0.23011456E+03</totfact>
</mgrwt>
</event>
<event>
 4    1  0.6148427E-004  0.2520396E+03  0.7818608E-02  0.1112023E+00
          2   -1    0    0  501    0  0.00000000000E+00  0.00000000000E+00  0.60569016597E+03  0.60569016597E+03  0.25500000000E-02 0.  1.
         -2   -1    0    0    0  501 -0.00000000000E+00 -0.00000000000E+00 -0.26219649775E+02  0.26219649899E+02  0.25500000000E-02 0. -1.
    5000001    1    1    2    0    0 -0.30898902123E+02  0.78684107842E+02  0.15692416769E+03  0.19416520127E+03  0.77000000000E+02 0.  0.
   -5000001    1    1    2    0    0  0.30898902123E+02 -0.78684107842E+02  0.42254634850E+03  0.43774461460E+03  0.77000000000E+02 0.  0.
<mgrwt>
<rscale>  0 0.25203955E+03</rscale>
<asrwt>0</asrwt>
<pdfrwt beam="1">  1        2 0.93183102E-01 0.25203955E+03</pdfrwt>
<pdfrwt beam="2">  1       -2 0.40337923E-02 0.25203955E+03</pdfrwt>
<totfact> 0.13407355E+04</totfact>
</mgrwt>
</event>
<event>
 4    1  0.6148427E-004  0.2496262E+03  0.7818608E-02  0.1113541E+00
         -2   -1    0    0    0  501 -0.00000000000E+00  0.00000000000E+00  0.24800856695E+03  0.24800856696E+03  0.25500000000E-02 0.  1.
          2   -1    0    0  501    0  0.00000000000E+00 -0.00000000000E+00 -0.62813578082E+02  0.62813578134E+02  0.25500000000E-02 0. -1.
    5000001    1    1    2    0    0 -0.49203122427E+02 -0.78209393290E+02  0.51082431735E+02  0.13067544256E+03  0.77000000000E+02 0.  0.
   -5000001    1    1    2    0    0  0.49203122427E+02  0.78209393290E+02  0.13411255713E+03  0.18014670254E+03  0.77000000000E+02 0.  0.
<mgrwt>
<rscale>  0 0.24962616E+03</rscale>
<asrwt>0</asrwt>
<pdfrwt beam="1">  1        2 0.96636274E-02 0.24962616E+03</pdfrwt>
<pdfrwt beam="2">  1       -2 0.38155164E-01 0.24962616E+03</pdfrwt>
<totfact> 0.43174858E+03</totfact>
</mgrwt>
</event>
<event>
 4    1  0.6148427E-004  0.1951016E+03  0.7818608E-02  0.1153939E+00
          2   -1    0    0  501    0  0.00000000000E+00  0.00000000000E+00  0.46551292241E+03  0.46551292242E+03  0.25500000000E-02 0.  1.
         -2   -1    0    0    0  501 -0.00000000000E+00 -0.00000000000E+00 -0.20442307044E+02  0.20442307203E+02  0.25500000000E-02 0. -1.
    5000001    1    1    2    0    0  0.58854884338E+02 -0.10159955697E+02  0.23368444340E+03  0.25318874619E+03  0.77000000000E+02 0.  0.
   -5000001    1    1    2    0    0 -0.58854884338E+02  0.10159955697E+02  0.21138617196E+03  0.23276648343E+03  0.77000000000E+02 0.  0.
<mgrwt>
<rscale>  0 0.19510160E+03</rscale>
<asrwt>0</asrwt>
<pdfrwt beam="1">  1        2 0.71617370E-01 0.19510160E+03</pdfrwt>
<pdfrwt beam="2">  1       -2 0.31449705E-02 0.19510160E+03</pdfrwt>
<totfact> 0.25738932E+04</totfact>
</mgrwt>
</event>
<event>
 4    1  0.6148427E-004  0.5578848E+03  0.7818608E-02  0.9996852E-01
         -2   -1    0    0    0  501 -0.00000000000E+00  0.00000000000E+00  0.95346998163E+02  0.95346998198E+02  0.25500000000E-02 0. -1.
          2   -1    0    0  501    0  0.00000000000E+00 -0.00000000000E+00 -0.81605990940E+03  0.81605990941E+03  0.25500000000E-02 0.  1.
    5000001    1    1    2    0    0 -0.24085987310E+02  0.22256947006E+03 -0.60135963187E+03  0.64628144847E+03  0.77000000000E+02 0.  0.
   -5000001    1    1    2    0    0  0.24085987310E+02 -0.22256947006E+03 -0.11935327936E+03  0.26512545913E+03  0.77000000000E+02 0.  0.
<mgrwt>
<rscale>  0 0.55788480E+03</rscale>
<asrwt>0</asrwt>
<pdfrwt beam="1">  1        2 0.12554767E+00 0.55788480E+03</pdfrwt>
<pdfrwt beam="2">  1       -2 0.14668769E-01 0.55788480E+03</pdfrwt>
<totfact> 0.12261904E+03</totfact>
</mgrwt>
</event>
<event>
 4    1  0.6148427E-004  0.3527149E+03  0.7818608E-02  0.1061506E+00
         -2   -1    0    0    0  501 -0.00000000000E+00  0.00000000000E+00  0.47568189083E+02  0.47568189151E+02  0.25500000000E-02 0. -1.
          2   -1    0    0  501    0  0.00000000000E+00 -0.00000000000E+00 -0.65383944701E+03  0.65383944702E+03  0.25500000000E-02 0.  1.
    5000001    1    1    2    0    0 -0.51342738951E+02  0.12356487900E+03 -0.47267559010E+03  0.49724799611E+03  0.77000000000E+02 0.  0.
   -5000001    1    1    2    0    0  0.51342738951E+02 -0.12356487900E+03 -0.13359566783E+03  0.20415964006E+03  0.77000000000E+02 0.  0.
<mgrwt>
<rscale>  0 0.35271495E+03</rscale>
<asrwt>0</asrwt>
<pdfrwt beam="1">  1        2 0.10059068E+00 0.35271495E+03</pdfrwt>
<pdfrwt beam="2">  1       -2 0.73181834E-02 0.35271495E+03</pdfrwt>
<totfact> 0.49746116E+03</totfact>
</mgrwt>
</event>
<event>
 4    1  0.6148427E-004  0.2320506E+03  0.7818608E-02  0.1125205E+00
          2   -1    0    0  501    0  0.00000000000E+00  0.00000000000E+00  0.17945641222E+04  0.17945641222E+04  0.25500000000E-02 0.  1.
         -2   -1    0    0    0  501 -0.00000000000E+00 -0.00000000000E+00 -0.75014674943E+01  0.75014679277E+01  0.25500000000E-02 0. -1.
    5000001    1    1    2    0    0  0.39362259638E+02 -0.61556999219E+02  0.52976089527E+03  0.54029090109E+03  0.77000000000E+02 0.  0.
   -5000001    1    1    2    0    0 -0.39362259638E+02  0.61556999219E+02  0.12573017595E+04  0.12617746891E+04  0.77000000000E+02 0.  0.
<mgrwt>
<rscale>  0 0.23205055E+03</rscale>
<asrwt>0</asrwt>
<pdfrwt beam="1">  1        2 0.27608698E+00 0.23205055E+03</pdfrwt>
<pdfrwt beam="2">  1       -2 0.11540712E-02 0.23205055E+03</pdfrwt>
<totfact> 0.16394528E+04</totfact>
</mgrwt>
</event>
<event>
 4    1  0.6148427E-004  0.2312723E+03  0.7818608E-02  0.1125747E+00
         -2   -1    0    0    0  501 -0.00000000000E+00  0.00000000000E+00  0.18918373410E+03  0.18918373412E+03  0.25500000000E-02 0. -1.
          2   -1    0    0  501    0  0.00000000000E+00 -0.00000000000E+00 -0.70681140374E+02  0.70681140420E+02  0.25500000000E-02 0.  1.
    5000001    1    1    2    0    0  0.62564620366E+02 -0.59232683524E+02  0.54241417671E+02  0.12764785118E+03  0.77000000000E+02 0.  0.
   -5000001    1    1    2    0    0 -0.62564620366E+02  0.59232683524E+02  0.64261176058E+02  0.13221702336E+03  0.77000000000E+02 0.  0.
<mgrwt>
<rscale>  0 0.23127232E+03</rscale>
<asrwt>0</asrwt>
<pdfrwt beam="1">  1        2 0.10874022E-01 0.23127232E+03</pdfrwt>
<pdfrwt beam="2">  1       -2 0.29105189E-01 0.23127232E+03</pdfrwt>
<totfact> 0.61298704E+03</totfact>
</mgrwt>
</event>
<event>
 4    1  0.6148427E-004  0.3371990E+03  0.7818608E-02  0.1067995E+00
          2   -1    0    0  501    0  0.00000000000E+00  0.00000000000E+00  0.15644067343E+04  0.15644067343E+04  0.25500000000E-02 0.  1.
         -2   -1    0    0    0  501 -0.00000000000E+00 -0.00000000000E+00 -0.18170328269E+02  0.18170328448E+02  0.25500000000E-02 0. -1.
    5000001    1    1    2    0    0  0.72380860744E+02 -0.92693198583E+02  0.33621812368E+03  0.36442097190E+03  0.77000000000E+02 0.  0.
   -5000001    1    1    2    0    0 -0.72380860744E+02  0.92693198583E+02  0.12100182824E+04  0.12181560909E+04  0.77000000000E+02 0.  0.
<mgrwt>
<rscale>  0 0.33719896E+03</rscale>
<asrwt>0</asrwt>
<pdfrwt beam="1">  1        2 0.24067802E+00 0.33719896E+03</pdfrwt>
<pdfrwt beam="2">  1       -2 0.27954344E-02 0.33719896E+03</pdfrwt>
<totfact> 0.59457615E+03</totfact>
</mgrwt>
</event>
<event>
 4    1  0.6148427E-004  0.3709859E+03  0.7818608E-02  0.1054317E+00
         -2   -1    0    0    0  501 -0.00000000000E+00  0.00000000000E+00  0.53860138556E+02  0.53860138616E+02  0.25500000000E-02 0. -1.
          2   -1    0    0  501    0  0.00000000000E+00 -0.00000000000E+00 -0.63883287254E+03  0.63883287254E+03  0.25500000000E-02 0.  1.
    5000001    1    1    2    0    0 -0.44141429366E+01 -0.16654535845E+03 -0.34264984818E+03  0.38870909372E+03  0.77000000000E+02 0.  0.
   -5000001    1    1    2    0    0  0.44141429366E+01  0.16654535845E+03 -0.24232288580E+03  0.30398391744E+03  0.77000000000E+02 0.  0.
<mgrwt>
<rscale>  0 0.37098586E+03</rscale>
<asrwt>0</asrwt>
<pdfrwt beam="1">  1        2 0.98281975E-01 0.37098586E+03</pdfrwt>
<pdfrwt beam="2">  1       -2 0.82861756E-02 0.37098586E+03</pdfrwt>
<totfact> 0.42117987E+03</totfact>
</mgrwt>
</event>
<event>
 4    1  0.6148427E-004  0.1854044E+03  0.7818608E-02  0.1162673E+00
          2   -1    0    0  501    0  0.00000000000E+00  0.00000000000E+00  0.10349761914E+03  0.10349761917E+03  0.25500000000E-02 0.  1.
         -2   -1    0    0    0  501 -0.00000000000E+00 -0.00000000000E+00 -0.83032810558E+02  0.83032810597E+02  0.25500000000E-02 0. -1.
    5000001    1    1    2    0    0  0.29130718980E+02  0.42582595666E+02  0.11922478099E+02  0.93450637911E+02  0.77000000000E+02 0.  0.
   -5000001    1    1    2    0    0 -0.29130718980E+02 -0.42582595666E+02  0.85423304815E+01  0.93079791856E+02  0.77000000000E+02 0.  0.
<mgrwt>
<rscale>  0 0.18540440E+03</rscale>
<asrwt>0</asrwt>
<pdfrwt beam="1">  1        2 0.15922711E-01 0.18540440E+03</pdfrwt>
<pdfrwt beam="2">  1       -2 0.12774279E-01 0.18540440E+03</pdfrwt>
<totfact> 0.15514840E+04</totfact>
</mgrwt>
</event>
<event>
 4    1  0.6148427E-004  0.1724020E+03  0.7818608E-02  0.1175366E+00
          2   -1    0    0  501    0  0.00000000000E+00  0.00000000000E+00  0.44379986760E+03  0.44379986761E+03  0.25500000000E-02 0.  1.
         -2   -1    0    0    0  501 -0.00000000000E+00 -0.00000000000E+00 -0.16743160702E+02  0.16743160897E+02  0.25500000000E-02 0. -1.
    5000001    1    1    2    0    0 -0.13009656285E+02 -0.35462415331E+02  0.19042812584E+03  0.20885091613E+03  0.77000000000E+02 0.  0.
   -5000001    1    1    2    0    0  0.13009656285E+02  0.35462415331E+02  0.23662858106E+03  0.25169211238E+03  0.77000000000E+02 0.  0.
<mgrwt>
<rscale>  0 0.17240200E+03</rscale>
<asrwt>0</asrwt>
<pdfrwt beam="1">  1        2 0.68276903E-01 0.17240200E+03</pdfrwt>
<pdfrwt beam="2">  1       -2 0.25758709E-02 0.17240200E+03</pdfrwt>
<totfact> 0.36025899E+04</totfact>
</mgrwt>
</event>
<event>
 4    1  0.6148427E-004  0.3738593E+03  0.7818608E-02  0.1053227E+00
         -2   -1    0    0    0  501 -0.00000000000E+00  0.00000000000E+00  0.85527473679E+01  0.85527477481E+01  0.25500000000E-02 0. -1.
          2   -1    0    0  501    0  0.00000000000E+00 -0.00000000000E+00 -0.40855520556E+04  0.40855520556E+04  0.25500000000E-02 0.  1.
    5000001    1    1    2    0    0  0.13493762423E+03 -0.10380304660E+03 -0.20989388868E+04  0.21072391145E+04  0.77000000000E+02 0.  0.
   -5000001    1    1    2    0    0 -0.13493762423E+03  0.10380304660E+03 -0.19780604214E+04  0.19868656889E+04  0.77000000000E+02 0.  0.
<mgrwt>
<rscale>  0 0.37385931E+03</rscale>
<asrwt>0</asrwt>
<pdfrwt beam="1">  1        2 0.62854491E+00 0.37385931E+03</pdfrwt>
<pdfrwt beam="2">  1       -2 0.13158106E-02 0.37385931E+03</pdfrwt>
<totfact> 0.53500181E+02</totfact>
</mgrwt>
</event>
<event>
 4    1  0.6148427E-004  0.3603979E+03  0.7818608E-02  0.1058426E+00
          2   -1    0    0  501    0  0.00000000000E+00  0.00000000000E+00  0.19863678535E+03  0.19863678536E+03  0.25500000000E-02 0.  1.
         -2   -1    0    0    0  501 -0.00000000000E+00 -0.00000000000E+00 -0.16347258441E+03  0.16347258443E+03  0.25500000000E-02 0. -1.
    5000001    1    1    2    0    0  0.82165593411E+02  0.13837095776E+03  0.43098801128E+02  0.18353259479E+03  0.77000000000E+02 0.  0.
   -5000001    1    1    2    0    0 -0.82165593411E+02 -0.13837095776E+03 -0.79346001949E+01  0.17857677501E+03  0.77000000000E+02 0.  0.
<mgrwt>
<rscale>  0 0.36039794E+03</rscale>
<asrwt>0</asrwt>
<pdfrwt beam="1">  1        2 0.30559505E-01 0.36039794E+03</pdfrwt>
<pdfrwt beam="2">  1       -2 0.25149628E-01 0.36039794E+03</pdfrwt>
<totfact> 0.24282297E+03</totfact>
</mgrwt>
</event>
<event>
 4    1  0.6148427E-004  0.3025996E+03  0.7818608E-02  0.1083948E+00
         -2   -1    0    0    0  501 -0.00000000000E+00  0.00000000000E+00  0.83529085440E+01  0.83529089333E+01  0.25500000000E-02 0.  1.
          2   -1    0    0  501    0  0.00000000000E+00 -0.00000000000E+00 -0.27405577341E+04  0.27405577341E+04  0.25500000000E-02 0. -1.
    5000001    1    1    2    0    0 -0.12842945654E+03  0.20978729548E+02 -0.13176937867E+04  0.13263408867E+04  0.77000000000E+02 0.  0.
   -5000001    1    1    2    0    0  0.12842945654E+03 -0.20978729548E+02 -0.14145110389E+04  0.14225697563E+04  0.77000000000E+02 0.  0.
<mgrwt>
<rscale>  0 0.30259959E+03</rscale>
<asrwt>0</asrwt>
<pdfrwt beam="1">  1        2 0.42162355E+00 0.30259959E+03</pdfrwt>
<pdfrwt beam="2">  1       -2 0.12850651E-02 0.30259959E+03</pdfrwt>
<totfact> 0.43512637E+03</totfact>
</mgrwt>
</event>
<event>
 4    1  0.6148427E-004  0.1864420E+03  0.7818608E-02  0.1161710E+00
         -2   -1    0    0    0  501 -0.00000000000E+00  0.00000000000E+00  0.26485404624E+02  0.26485404747E+02  0.25500000000E-02 0. -1.
          2   -1    0    0  501    0  0.00000000000E+00 -0.00000000000E+00 -0.32811124879E+03  0.32811124880E+03  0.25500000000E-02 0.  1.
    5000001    1    1    2    0    0  0.27201293338E+02  0.34365480804E+02 -0.20594422826E+03  0.22419393789E+03  0.77000000000E+02 0.  0.
   -5000001    1    1    2    0    0 -0.27201293338E+02 -0.34365480804E+02 -0.95681615905E+02  0.13040271566E+03  0.77000000000E+02 0.  0.
<mgrwt>
<rscale>  0 0.18644205E+03</rscale>
<asrwt>0</asrwt>
<pdfrwt beam="1">  1        2 0.50478651E-01 0.18644205E+03</pdfrwt>
<pdfrwt beam="2">  1       -2 0.40746779E-02 0.18644205E+03</pdfrwt>
<totfact> 0.25437075E+04</totfact>
</mgrwt>
</event>
<event>
 4    1  0.6148427E-004  0.1998080E+03  0.7818608E-02  0.1149901E+00
          2   -1    0    0  501    0  0.00000000000E+00  0.00000000000E+00  0.19389236818E+04  0.19389236818E+04  0.25500000000E-02 0.  1.
         -2   -1    0    0    0  501 -0.00000000000E+00 -0.00000000000E+00 -0.51476040735E+01  0.51476047051E+01  0.25500000000E-02 0. -1.
    5000001    1    1    2    0    0  0.53253455801E+02  0.29294001185E+02  0.78285965068E+03  0.78898181330E+03  0.77000000000E+02 0.  0.
   -5000001    1    1    2    0    0 -0.53253455801E+02 -0.29294001185E+02  0.11509164270E+04  0.11550894732E+04  0.77000000000E+02 0.  0.
<mgrwt>
<rscale>  0 0.19980803E+03</rscale>
<asrwt>0</asrwt>
<pdfrwt beam="1">  1        2 0.29829631E+00 0.19980803E+03</pdfrwt>
<pdfrwt beam="2">  1       -2 0.79193818E-03 0.19980803E+03</pdfrwt>
<totfact> 0.23620514E+04</totfact>
</mgrwt>
</event>
<event>
 4    1  0.6148427E-004  0.2615761E+03  0.7818608E-02  0.1106200E+00
         -2   -1    0    0    0  501 -0.00000000000E+00  0.00000000000E+00  0.33684513771E+02  0.33684513868E+02  0.25500000000E-02 0. -1.
          2   -1    0    0  501    0  0.00000000000E+00 -0.00000000000E+00 -0.50781530925E+03  0.50781530926E+03  0.25500000000E-02 0.  1.
    5000001    1    1    2    0    0  0.96698881807E+02 -0.17279312029E+02 -0.15616376909E+03  0.19991340912E+03  0.77000000000E+02 0.  0.
   -5000001    1    1    2    0    0 -0.96698881807E+02  0.17279312029E+02 -0.31796702639E+03  0.34158641401E+03  0.77000000000E+02 0.  0.
<mgrwt>
<rscale>  0 0.26157608E+03</rscale>
<asrwt>0</asrwt>
<pdfrwt beam="1">  1        2 0.78125427E-01 0.26157608E+03</pdfrwt>
<pdfrwt beam="2">  1       -2 0.51822333E-02 0.26157608E+03</pdfrwt>
<totfact> 0.11241303E+04</totfact>
</mgrwt>
</event>
<event>
 4    1  0.6148427E-004  0.1924738E+03  0.7818608E-02  0.1156249E+00
          2   -1    0    0  501    0  0.00000000000E+00  0.00000000000E+00  0.15673521088E+04  0.15673521088E+04  0.25500000000E-02 0.  1.
         -2   -1    0    0    0  501 -0.00000000000E+00 -0.00000000000E+00 -0.59090383258E+01  0.59090388760E+01  0.25500000000E-02 0. -1.
    5000001    1    1    2    0    0 -0.33039990671E+01 -0.51932172105E+02  0.57642690492E+03  0.58387057095E+03  0.77000000000E+02 0.  0.
   -5000001    1    1    2    0    0  0.33039990671E+01  0.51932172105E+02  0.98501616559E+03  0.98939057676E+03  0.77000000000E+02 0.  0.
<mgrwt>
<rscale>  0 0.19247383E+03</rscale>
<asrwt>0</asrwt>
<pdfrwt beam="1">  1        2 0.24113111E+00 0.19247383E+03</pdfrwt>
<pdfrwt beam="2">  1       -2 0.90908280E-03 0.19247383E+03</pdfrwt>
<totfact> 0.30168241E+04</totfact>
</mgrwt>
</event>
<event>
 4    1  0.6148427E-004  0.2022567E+03  0.7818608E-02  0.1147849E+00
         -2   -1    0    0    0  501 -0.00000000000E+00  0.00000000000E+00  0.50686281620E+02  0.50686281684E+02  0.25500000000E-02 0. -1.
          2   -1    0    0  501    0  0.00000000000E+00 -0.00000000000E+00 -0.20176947552E+03  0.20176947553E+03  0.25500000000E-02 0.  1.
    5000001    1    1    2    0    0  0.49152210316E+02 -0.31482014902E+02 -0.11279738460E+03  0.14852375909E+03  0.77000000000E+02 0.  0.
   -5000001    1    1    2    0    0 -0.49152210316E+02  0.31482014902E+02 -0.38285809293E+02  0.10393199813E+03  0.77000000000E+02 0.  0.
<mgrwt>
<rscale>  0 0.20225671E+03</rscale>
<asrwt>0</asrwt>
<pdfrwt beam="1">  1        2 0.31041457E-01 0.20225671E+03</pdfrwt>
<pdfrwt beam="2">  1       -2 0.77978896E-02 0.20225671E+03</pdfrwt>
<totfact> 0.16070169E+04</totfact>
</mgrwt>
</event>
<event>
 4    1  0.6148427E-004  0.4276528E+03  0.7818608E-02  0.1034604E+00
          2   -1    0    0  501    0  0.00000000000E+00  0.00000000000E+00  0.16017499680E+04  0.16017499680E+04  0.25500000000E-02 0.  1.
         -2   -1    0    0    0  501 -0.00000000000E+00 -0.00000000000E+00 -0.28544857757E+02  0.28544857871E+02  0.25500000000E-02 0. -1.
    5000001    1    1    2    0    0  0.14862913837E+03 -0.69084041379E+02  0.35312590533E+03  0.39685026214E+03  0.77000000000E+02 0.  0.
   -5000001    1    1    2    0    0 -0.14862913837E+03  0.69084041379E+02  0.12200792049E+04  0.12334445637E+04  0.77000000000E+02 0.  0.
<mgrwt>
<rscale>  0 0.42765278E+03</rscale>
<asrwt>0</asrwt>
<pdfrwt beam="1">  1        2 0.24642316E+00 0.42765278E+03</pdfrwt>
<pdfrwt beam="2">  1       -2 0.43915150E-02 0.42765278E+03</pdfrwt>
<totfact> 0.28671429E+03</totfact>
</mgrwt>
</event>
<event>
 4    1  0.6148427E-004  0.1682909E+03  0.7818608E-02  0.1179642E+00
          2   -1    0    0  501    0  0.00000000000E+00  0.00000000000E+00  0.55078878301E+01  0.55078884204E+01  0.25500000000E-02 0.  1.
         -2   -1    0    0    0  501 -0.00000000000E+00 -0.00000000000E+00 -0.12855126485E+04  0.12855126485E+04  0.25500000000E-02 0. -1.
    5000001    1    1    2    0    0 -0.29392544670E+02  0.14756538779E+01 -0.76959176920E+03  0.77399392146E+03  0.77000000000E+02 0.  0.
   -5000001    1    1    2    0    0  0.29392544670E+02 -0.14756538779E+01 -0.51041299152E+03  0.51702661551E+03  0.77000000000E+02 0.  0.
<mgrwt>
<rscale>  0 0.16829094E+03</rscale>
<asrwt>0</asrwt>
<pdfrwt beam="1">  1        2 0.84736843E-03 0.16829094E+03</pdfrwt>
<pdfrwt beam="2">  1       -2 0.19777094E+00 0.16829094E+03</pdfrwt>
<totfact> 0.26330687E+03</totfact>
</mgrwt>
</event>
<event>
 4    1  0.6148427E-004  0.4741047E+03  0.7818608E-02  0.1020768E+00
          2   -1    0    0  501    0  0.00000000000E+00  0.00000000000E+00  0.56366579410E+03  0.56366579410E+03  0.25500000000E-02 0.  1.
         -2   -1    0    0    0  501 -0.00000000000E+00 -0.00000000000E+00 -0.99693495732E+02  0.99693495764E+02  0.25500000000E-02 0. -1.
    5000001    1    1    2    0    0 -0.19214784563E+03 -0.18970590887E+02  0.72552095813E+02  0.22016694690E+03  0.77000000000E+02 0.  0.
   -5000001    1    1    2    0    0  0.19214784563E+03  0.18970590887E+02  0.39142020255E+03  0.44319234297E+03  0.77000000000E+02 0.  0.
<mgrwt>
<rscale>  0 0.47410469E+03</rscale>
<asrwt>0</asrwt>
<pdfrwt beam="1">  1        2 0.86717813E-01 0.47410469E+03</pdfrwt>
<pdfrwt beam="2">  1       -2 0.15337461E-01 0.47410469E+03</pdfrwt>
<totfact> 0.17994137E+03</totfact>
</mgrwt>
</event>
<event>
 4    1  0.6148427E-004  0.2951352E+03  0.7818608E-02  0.1087698E+00
          2   -1    0    0  501    0  0.00000000000E+00  0.00000000000E+00  0.55163205283E+03  0.55163205284E+03  0.25500000000E-02 0.  1.
         -2   -1    0    0    0  501 -0.00000000000E+00 -0.00000000000E+00 -0.39475935909E+02  0.39475935991E+02  0.25500000000E-02 0. -1.
    5000001    1    1    2    0    0  0.11470159983E+03 -0.50080193350E+02  0.22900572919E+03  0.27209760523E+03  0.77000000000E+02 0.  0.
   -5000001    1    1    2    0    0 -0.11470159983E+03  0.50080193350E+02  0.28315038773E+03  0.31901038360E+03  0.77000000000E+02 0.  0.
<mgrwt>
<rscale>  0 0.29513517E+03</rscale>
<asrwt>0</asrwt>
<pdfrwt beam="1">  1        2 0.84866462E-01 0.29513517E+03</pdfrwt>
<pdfrwt beam="2">  1       -2 0.60732214E-02 0.29513517E+03</pdfrwt>
<totfact> 0.80676026E+03</totfact>
</mgrwt>
</event>
<event>
 4    1  0.6148427E-004  0.2563838E+03  0.7818608E-02  0.1109336E+00
          2   -1    0    0  501    0  0.00000000000E+00  0.00000000000E+00  0.22322731803E+04  0.22322731803E+04  0.25500000000E-02 0.  1.
         -2   -1    0    0    0  501 -0.00000000000E+00 -0.00000000000E+00 -0.73616274253E+01  0.73616278669E+01  0.25500000000E-02 0. -1.
    5000001    1    1    2    0    0 -0.10187423918E+02 -0.99369047150E+02  0.13128341399E+04  0.13188784895E+04  0.77000000000E+02 0.  0.
   -5000001    1    1    2    0    0  0.10187423918E+02  0.99369047150E+02  0.91207741293E+03  0.92075631864E+03  0.77000000000E+02 0.  0.
<mgrwt>
<rscale>  0 0.25638381E+03</rscale>
<asrwt>0</asrwt>
<pdfrwt beam="1">  1        2 0.34342687E+00 0.25638381E+03</pdfrwt>
<pdfrwt beam="2">  1       -2 0.11325574E-02 0.25638381E+03</pdfrwt>
<totfact> 0.99459954E+03</totfact>
</mgrwt>
</event>
<event>
 4    1  0.6148427E-004  0.2373957E+03  0.7818608E-02  0.1121540E+00
          2   -1    0    0  501    0  0.00000000000E+00  0.00000000000E+00  0.53281768832E+03  0.53281768833E+03  0.25500000000E-02 0.  1.
         -2   -1    0    0    0  501 -0.00000000000E+00 -0.00000000000E+00 -0.26442767551E+02  0.26442767674E+02  0.25500000000E-02 0. -1.
    5000001    1    1    2    0    0  0.47614832049E+02 -0.76353199137E+02  0.27191450244E+03  0.29658637846E+03  0.77000000000E+02 0.  0.
   -5000001    1    1    2    0    0 -0.47614832049E+02  0.76353199137E+02  0.23446041833E+03  0.26267407754E+03  0.77000000000E+02 0.  0.
<mgrwt>
<rscale>  0 0.23739566E+03</rscale>
<asrwt>0</asrwt>
<pdfrwt beam="1">  1        2 0.81971954E-01 0.23739566E+03</pdfrwt>
<pdfrwt beam="2">  1       -2 0.40681180E-02 0.23739566E+03</pdfrwt>
<totfact> 0.15282626E+04</totfact>
</mgrwt>
</event>
<event>
 4    1  0.6148427E-004  0.4338753E+03  0.7818608E-02  0.1032643E+00
         -2   -1    0    0    0  501 -0.00000000000E+00  0.00000000000E+00  0.40836695224E+02  0.40836695303E+02  0.25500000000E-02 0. -1.
          2   -1    0    0  501    0  0.00000000000E+00 -0.00000000000E+00 -0.11524427687E+04  0.11524427687E+04  0.25500000000E-02 0.  1.
    5000001    1    1    2    0    0  0.20120068752E+03  0.23656737958E+02 -0.52948120953E+03  0.57211948853E+03  0.77000000000E+02 0.  0.
   -5000001    1    1    2    0    0 -0.20120068752E+03 -0.23656737958E+02 -0.58212486392E+03  0.62115997545E+03  0.77000000000E+02 0.  0.
<mgrwt>
<rscale>  0 0.43387535E+03</rscale>
<asrwt>0</asrwt>
<pdfrwt beam="1">  1        2 0.17729886E+00 0.43387535E+03</pdfrwt>
<pdfrwt beam="2">  1       -2 0.62825694E-02 0.43387535E+03</pdfrwt>
<totfact> 0.29399984E+03</totfact>
</mgrwt>
</event>
<event>
 4    1  0.6148427E-004  0.4002450E+03  0.7818608E-02  0.1043695E+00
         -2   -1    0    0    0  501 -0.00000000000E+00  0.00000000000E+00  0.12147709651E+02  0.12147709919E+02  0.25500000000E-02 0. -1.
          2   -1    0    0  501    0  0.00000000000E+00 -0.00000000000E+00 -0.32968367826E+04  0.32968367826E+04  0.25500000000E-02 0.  1.
    5000001    1    1    2    0    0 -0.13083779964E+03 -0.12108596880E+03 -0.12424489999E+04  0.12575328461E+04  0.77000000000E+02 0.  0.
   -5000001    1    1    2    0    0  0.13083779964E+03  0.12108596880E+03 -0.20422400731E+04  0.20514516465E+04  0.77000000000E+02 0.  0.
<mgrwt>
<rscale>  0 0.40024501E+03</rscale>
<asrwt>0</asrwt>
<pdfrwt beam="1">  1        2 0.50720495E+00 0.40024501E+03</pdfrwt>
<pdfrwt beam="2">  1       -2 0.18688811E-02 0.40024501E+03</pdfrwt>
<totfact> 0.11486168E+03</totfact>
</mgrwt>
</event>
<event>
 4    1  0.6148427E-004  0.5316841E+03  0.7818608E-02  0.1005825E+00
         -2   -1    0    0    0  501 -0.00000000000E+00  0.00000000000E+00  0.36384013245E+03  0.36384013246E+03  0.25500000000E-02 0. -1.
          2   -1    0    0  501    0  0.00000000000E+00 -0.00000000000E+00 -0.19423915738E+03  0.19423915740E+03  0.25500000000E-02 0.  1.
    5000001    1    1    2    0    0  0.16378301385E+03 -0.18964001478E+03  0.13120842455E+03  0.29314307344E+03  0.77000000000E+02 0.  0.
   -5000001    1    1    2    0    0 -0.16378301385E+03  0.18964001478E+03  0.38392550520E+02  0.26493621642E+03  0.77000000000E+02 0.  0.
<mgrwt>
<rscale>  0 0.53168412E+03</rscale>
<asrwt>0</asrwt>
<pdfrwt beam="1">  1        2 0.29882948E-01 0.53168412E+03</pdfrwt>
<pdfrwt beam="2">  1       -2 0.55975404E-01 0.53168412E+03</pdfrwt>
<totfact> 0.53998044E+02</totfact>
</mgrwt>
</event>
<event>
 4    1  0.6148427E-004  0.2247374E+03  0.7818608E-02  0.1130400E+00
         -2   -1    0    0    0  501 -0.00000000000E+00  0.00000000000E+00  0.32128216895E+02  0.32128216996E+02  0.25500000000E-02 0. -1.
          2   -1    0    0  501    0  0.00000000000E+00 -0.00000000000E+00 -0.39301043112E+03  0.39301043113E+03  0.25500000000E-02 0.  1.
    5000001    1    1    2    0    0  0.27341886851E+02 -0.70917541746E+02 -0.12303617731E+03  0.16384070749E+03  0.77000000000E+02 0.  0.
   -5000001    1    1    2    0    0 -0.27341886851E+02  0.70917541746E+02 -0.23784603692E+03  0.26129794064E+03  0.77000000000E+02 0.  0.
<mgrwt>
<rscale>  0 0.22473740E+03</rscale>
<asrwt>0</asrwt>
<pdfrwt beam="1">  1        2 0.60463140E-01 0.22473740E+03</pdfrwt>
<pdfrwt beam="2">  1       -2 0.49428029E-02 0.22473740E+03</pdfrwt>
<totfact> 0.15879114E+04</totfact>
</mgrwt>
</event>
<event>
 4    1  0.6148427E-004  0.2053671E+03  0.7818608E-02  0.1145288E+00
         -2   -1    0    0    0  501 -0.00000000000E+00  0.00000000000E+00  0.10649173465E+03  0.10649173468E+03  0.25500000000E-02 0. -1.
          2   -1    0    0  501    0  0.00000000000E+00 -0.00000000000E+00 -0.99011526448E+02  0.99011526481E+02  0.25500000000E-02 0.  1.
    5000001    1    1    2    0    0  0.37951624610E+02 -0.55153574804E+02  0.15265840076E+02  0.10317116117E+03  0.77000000000E+02 0.  0.
   -5000001    1    1    2    0    0 -0.37951624610E+02  0.55153574804E+02 -0.77856318775E+01  0.10233209999E+03  0.77000000000E+02 0.  0.
<mgrwt>
<rscale>  0 0.20536708E+03</rscale>
<asrwt>0</asrwt>
<pdfrwt beam="1">  1        2 0.15232543E-01 0.20536708E+03</pdfrwt>
<pdfrwt beam="2">  1       -2 0.16383344E-01 0.20536708E+03</pdfrwt>
<totfact> 0.10952075E+04</totfact>
</mgrwt>
</event>
<event>
 4    1  0.6148427E-004  0.4226341E+03  0.7818608E-02  0.1036212E+00
         -2   -1    0    0    0  501 -0.00000000000E+00  0.00000000000E+00  0.46058326897E+02  0.46058326968E+02  0.25500000000E-02 0. -1.
          2   -1    0    0  501    0  0.00000000000E+00 -0.00000000000E+00 -0.96952945508E+03  0.96952945508E+03  0.25500000000E-02 0.  1.
    5000001    1    1    2    0    0 -0.83114963669E+02  0.17828930858E+03 -0.47505645595E+03  0.51990654071E+03  0.77000000000E+02 0.  0.
   -5000001    1    1    2    0    0  0.83114963669E+02 -0.17828930858E+03 -0.44841467224E+03  0.49568124134E+03  0.77000000000E+02 0.  0.
<mgrwt>
<rscale>  0 0.42263414E+03</rscale>
<asrwt>0</asrwt>
<pdfrwt beam="1">  1        2 0.14915836E+00 0.42263414E+03</pdfrwt>
<pdfrwt beam="2">  1       -2 0.70858972E-02 0.42263414E+03</pdfrwt>
<totfact> 0.31479450E+03</totfact>
</mgrwt>
</event>
<event>
 4    1  0.6148427E-004  0.2879676E+03  0.7818608E-02  0.1091415E+00
         -2   -1    0    0    0  501 -0.00000000000E+00  0.00000000000E+00  0.14882974401E+02  0.14882974620E+02  0.25500000000E-02 0. -1.
          2   -1    0    0  501    0  0.00000000000E+00 -0.00000000000E+00 -0.13929568644E+04  0.13929568644E+04  0.25500000000E-02 0.  1.
    5000001    1    1    2    0    0  0.87182436055E+02 -0.66146012500E+01 -0.11026551807E+04  0.11087930274E+04  0.77000000000E+02 0.  0.
   -5000001    1    1    2    0    0 -0.87182436055E+02  0.66146012500E+01 -0.27541870935E+03  0.29904681166E+03  0.77000000000E+02 0.  0.
<mgrwt>
<rscale>  0 0.28796765E+03</rscale>
<asrwt>0</asrwt>
<pdfrwt beam="1">  1        2 0.21430095E+00 0.28796765E+03</pdfrwt>
<pdfrwt beam="2">  1       -2 0.22896895E-02 0.28796765E+03</pdfrwt>
<totfact> 0.98790334E+03</totfact>
</mgrwt>
</event>
<event>
 4    1  0.6148427E-004  0.2083639E+03  0.7818608E-02  0.1142868E+00
          2   -1    0    0  501    0  0.00000000000E+00  0.00000000000E+00  0.10856734992E+03  0.10856734995E+03  0.25500000000E-02 0.  1.
         -2   -1    0    0    0  501 -0.00000000000E+00 -0.00000000000E+00 -0.99973702226E+02  0.99973702259E+02  0.25500000000E-02 0. -1.
    5000001    1    1    2    0    0 -0.66816475045E+02 -0.13743226060E+02 -0.12196333901E+02  0.10359086910E+03  0.77000000000E+02 0.  0.
   -5000001    1    1    2    0    0  0.66816475045E+02  0.13743226060E+02  0.20789981594E+02  0.10495018311E+03  0.77000000000E+02 0.  0.
<mgrwt>
<rscale>  0 0.20836391E+03</rscale>
<asrwt>0</asrwt>
<pdfrwt beam="1">  1        2 0.16702669E-01 0.20836391E+03</pdfrwt>
<pdfrwt beam="2">  1       -2 0.15380570E-01 0.20836391E+03</pdfrwt>
<totfact> 0.10925403E+04</totfact>
</mgrwt>
</event>
<event>
 4    1  0.6148427E-004  0.3101417E+03  0.7818608E-02  0.1080278E+00
          2   -1    0    0  501    0  0.00000000000E+00  0.00000000000E+00  0.12357161673E+04  0.12357161673E+04  0.25500000000E-02 0.  1.
         -2   -1    0    0    0  501 -0.00000000000E+00 -0.00000000000E+00 -0.19459943018E+02  0.19459943185E+02  0.25500000000E-02 0. -1.
    5000001    1    1    2    0    0  0.43201746143E-01  0.88415122023E+02  0.10188790247E+04  0.10256026047E+04  0.77000000000E+02 0.  0.
   -5000001    1    1    2    0    0 -0.43201746143E-01 -0.88415122023E+02  0.19737719952E+03  0.22957350579E+03  0.77000000000E+02 0.  0.
<mgrwt>
<rscale>  0 0.31014169E+03</rscale>
<asrwt>0</asrwt>
<pdfrwt beam="1">  1        2 0.19011023E+00 0.31014169E+03</pdfrwt>
<pdfrwt beam="2">  1       -2 0.29938366E-02 0.31014169E+03</pdfrwt>
<totfact> 0.81187400E+03</totfact>
</mgrwt>
</event>
<event>
 4    1  0.6148427E-004  0.1795273E+03  0.7818608E-02  0.1168261E+00
          2   -1    0    0  501    0  0.00000000000E+00  0.00000000000E+00  0.25568235434E+03  0.25568235435E+03  0.25500000000E-02 0.  1.
         -2   -1    0    0    0  501 -0.00000000000E+00 -0.00000000000E+00 -0.31513760422E+02  0.31513760526E+02  0.25500000000E-02 0. -1.
    5000001    1    1    2    0    0 -0.34553916421E+02 -0.30526151012E+02  0.11470973461E+03  0.14564732147E+03  0.77000000000E+02 0.  0.
   -5000001    1    1    2    0    0  0.34553916421E+02  0.30526151012E+02  0.10945885930E+03  0.14154879341E+03  0.77000000000E+02 0.  0.
<mgrwt>
<rscale>  0 0.17952730E+03</rscale>
<asrwt>0</asrwt>
<pdfrwt beam="1">  1        2 0.39335747E-01 0.17952730E+03</pdfrwt>
<pdfrwt beam="2">  1       -2 0.48482708E-02 0.17952730E+03</pdfrwt>
<totfact> 0.25490919E+04</totfact>
</mgrwt>
</event>
<event>
 4    1  0.6148427E-004  0.2516166E+03  0.7818608E-02  0.1112287E+00
         -2   -1    0    0    0  501 -0.00000000000E+00  0.00000000000E+00  0.84466296782E+01  0.84466300631E+01  0.25500000000E-02 0. -1.
          2   -1    0    0  501    0  0.00000000000E+00 -0.00000000000E+00 -0.18738516870E+04  0.18738516870E+04  0.25500000000E-02 0.  1.
    5000001    1    1    2    0    0  0.51043398775E+02 -0.17013642825E+02 -0.15587643170E+04  0.15615921646E+04  0.77000000000E+02 0.  0.
   -5000001    1    1    2    0    0 -0.51043398775E+02  0.17013642825E+02 -0.30664074031E+03  0.32070615245E+03  0.77000000000E+02 0.  0.
<mgrwt>
<rscale>  0 0.25161663E+03</rscale>
<asrwt>0</asrwt>
<pdfrwt beam="1">  1        2 0.28828454E+00 0.25161663E+03</pdfrwt>
<pdfrwt beam="2">  1       -2 0.12994830E-02 0.25161663E+03</pdfrwt>
<totfact> 0.12569659E+04</totfact>
</mgrwt>
</event>
<event>
 4    1  0.6148427E-004  0.3276428E+03  0.7818608E-02  0.1072185E+00
         -2   -1    0    0    0  501 -0.00000000000E+00  0.00000000000E+00  0.35289796457E+02  0.35289796549E+02  0.25500000000E-02 0. -1.
          2   -1    0    0  501    0  0.00000000000E+00 -0.00000000000E+00 -0.76048739361E+03  0.76048739362E+03  0.25500000000E-02 0.  1.
    5000001    1    1    2    0    0  0.13856076023E+03  0.26937324290E+02 -0.28642047094E+03  0.32846672569E+03  0.77000000000E+02 0.  0.
   -5000001    1    1    2    0    0 -0.13856076023E+03 -0.26937324290E+02 -0.43877712622E+03  0.46731046447E+03  0.77000000000E+02 0.  0.
<mgrwt>
<rscale>  0 0.32764277E+03</rscale>
<asrwt>0</asrwt>
<pdfrwt beam="1">  1        2 0.11699805E+00 0.32764277E+03</pdfrwt>
<pdfrwt beam="2">  1       -2 0.54292000E-02 0.32764277E+03</pdfrwt>
<totfact> 0.65496439E+03</totfact>
</mgrwt>
</event>
<event>
 4    1  0.6148427E-004  0.7975732E+03  0.7818608E-02  0.9563536E-01
         -2   -1    0    0    0  501 -0.00000000000E+00  0.00000000000E+00  0.27468391178E+03  0.27468391179E+03  0.25500000000E-02 0. -1.
          2   -1    0    0  501    0  0.00000000000E+00 -0.00000000000E+00 -0.57895917850E+03  0.57895917850E+03  0.25500000000E-02 0.  1.
    5000001    1    1    2    0    0 -0.48608509323E+02 -0.20796425771E+03  0.19876730741E+03  0.30174386847E+03  0.77000000000E+02 0.  0.
   -5000001    1    1    2    0    0  0.48608509323E+02  0.20796425771E+03 -0.50304257413E+03  0.55189922182E+03  0.77000000000E+02 0.  0.
<mgrwt>
<rscale>  0 0.79757325E+03</rscale>
<asrwt>0</asrwt>
<pdfrwt beam="1">  1        2 0.89070643E-01 0.79757325E+03</pdfrwt>
<pdfrwt beam="2">  1       -2 0.42259063E-01 0.79757325E+03</pdfrwt>
<totfact> 0.27655471E+02</totfact>
</mgrwt>
</event>
<event>
 4    1  0.6148427E-004  0.4969694E+03  0.7818608E-02  0.1014573E+00
         -2   -1    0    0    0  501 -0.00000000000E+00  0.00000000000E+00  0.50329651280E+02  0.50329651345E+02  0.25500000000E-02 0. -1.
          2   -1    0    0  501    0  0.00000000000E+00 -0.00000000000E+00 -0.12268048065E+04  0.12268048065E+04  0.25500000000E-02 0.  1.
    5000001    1    1    2    0    0  0.20800602478E+03 -0.20991059373E+02 -0.87102011887E+03  0.89906183236E+03  0.77000000000E+02 0.  0.
   -5000001    1    1    2    0    0 -0.20800602478E+03  0.20991059373E+02 -0.30545503636E+03  0.37807262551E+03  0.77000000000E+02 0.  0.
<mgrwt>
<rscale>  0 0.49696945E+03</rscale>
<asrwt>0</asrwt>
<pdfrwt beam="1">  1        2 0.18873918E+00 0.49696945E+03</pdfrwt>
<pdfrwt beam="2">  1       -2 0.77430242E-02 0.49696945E+03</pdfrwt>
<totfact> 0.19145452E+03</totfact>
</mgrwt>
</event>
<event>
 4    1  0.6148427E-004  0.4205413E+03  0.7818608E-02  0.1036890E+00
          2   -1    0    0  501    0  0.00000000000E+00  0.00000000000E+00  0.90204105025E+03  0.90204105026E+03  0.25500000000E-02 0.  1.
         -2   -1    0    0    0  501 -0.00000000000E+00 -0.00000000000E+00 -0.49015217655E+02  0.49015217721E+02  0.25500000000E-02 0. -1.
    5000001    1    1    2    0    0 -0.15672261564E+03 -0.11710446232E+03  0.41961436191E+03  0.46934065035E+03  0.77000000000E+02 0.  0.
   -5000001    1    1    2    0    0  0.15672261564E+03  0.11710446232E+03  0.43341147069E+03  0.48171561763E+03  0.77000000000E+02 0.  0.
<mgrwt>
<rscale>  0 0.42054126E+03</rscale>
<asrwt>0</asrwt>
<pdfrwt beam="1">  1        2 0.13877553E+00 0.42054126E+03</pdfrwt>
<pdfrwt beam="2">  1       -2 0.75408034E-02 0.42054126E+03</pdfrwt>
<totfact> 0.31556380E+03</totfact>
</mgrwt>
</event>
<event>
 4    1  0.6148427E-004  0.8756174E+03  0.7818608E-02  0.9456585E-01
          2   -1    0    0  501    0  0.00000000000E+00  0.00000000000E+00  0.15683578765E+04  0.15683578765E+04  0.25500000000E-02 0.  1.
         -2   -1    0    0    0  501 -0.00000000000E+00 -0.00000000000E+00 -0.12221475306E+03  0.12221475309E+03  0.25500000000E-02 0. -1.
    5000001    1    1    2    0    0  0.99447670530E+02  0.22908372364E+03  0.14012418985E+04  0.14254041706E+04  0.77000000000E+02 0.  0.
   -5000001    1    1    2    0    0 -0.99447670530E+02 -0.22908372364E+03  0.44901224942E+02  0.26516845893E+03  0.77000000000E+02 0.  0.
<mgrwt>
<rscale>  0 0.87561743E+03</rscale>
<asrwt>0</asrwt>
<pdfrwt beam="1">  1        2 0.24128584E+00 0.87561743E+03</pdfrwt>
<pdfrwt beam="2">  1       -2 0.18802269E-01 0.87561743E+03</pdfrwt>
<totfact> 0.27793676E+02</totfact>
</mgrwt>
</event>
<event>
 4    1  0.6148427E-004  0.6730329E+03  0.7818608E-02  0.9764494E-01
         -2   -1    0    0    0  501 -0.00000000000E+00  0.00000000000E+00  0.23128501554E+03  0.23128501555E+03  0.25500000000E-02 0. -1.
          2   -1    0    0  501    0  0.00000000000E+00 -0.00000000000E+00 -0.48962674029E+03  0.48962674029E+03  0.25500000000E-02 0.  1.
    5000001    1    1    2    0    0  0.25294536335E+03  0.18234468926E+03 -0.21611309224E+02  0.32191146489E+03  0.77000000000E+02 0.  0.
   -5000001    1    1    2    0    0 -0.25294536335E+03 -0.18234468926E+03 -0.23673041552E+03  0.39900029095E+03  0.77000000000E+02 0.  0.
<mgrwt>
<rscale>  0 0.67303292E+03</rscale>
<asrwt>0</asrwt>
<pdfrwt beam="1">  1        2 0.75327191E-01 0.67303292E+03</pdfrwt>
<pdfrwt beam="2">  1       -2 0.35582310E-01 0.67303292E+03</pdfrwt>
<totfact> 0.47175478E+02</totfact>
</mgrwt>
</event>
<event>
 4    1  0.6148427E-004  0.1988802E+03  0.7818608E-02  0.1150687E+00
          2   -1    0    0  501    0  0.00000000000E+00  0.00000000000E+00  0.29961746043E+03  0.29961746044E+03  0.25500000000E-02 0.  1.
         -2   -1    0    0    0  501 -0.00000000000E+00 -0.00000000000E+00 -0.33003190857E+02  0.33003190956E+02  0.25500000000E-02 0. -1.
    5000001    1    1    2    0    0 -0.50230746616E+02 -0.37021427253E+02  0.14685497509E+03  0.17716968615E+03  0.77000000000E+02 0.  0.
   -5000001    1    1    2    0    0  0.50230746616E+02  0.37021427253E+02  0.11975929448E+03  0.15545096525E+03  0.77000000000E+02 0.  0.
<mgrwt>
<rscale>  0 0.19888019E+03</rscale>
<asrwt>0</asrwt>
<pdfrwt beam="1">  1        2 0.46094994E-01 0.19888019E+03</pdfrwt>
<pdfrwt beam="2">  1       -2 0.50774140E-02 0.19888019E+03</pdfrwt>
<totfact> 0.20233981E+04</totfact>
</mgrwt>
</event>
<event>
 4    1  0.6148427E-004  0.4621273E+03  0.7818608E-02  0.1024166E+00
          2   -1    0    0  501    0  0.00000000000E+00  0.00000000000E+00  0.14435654481E+04  0.14435654481E+04  0.25500000000E-02 0.  1.
         -2   -1    0    0    0  501 -0.00000000000E+00 -0.00000000000E+00 -0.36985093293E+02  0.36985093381E+02  0.25500000000E-02 0. -1.
    5000001    1    1    2    0    0 -0.11407556233E+03 -0.13858061790E+02  0.11032287244E+03  0.17693336593E+03  0.77000000000E+02 0.  0.
   -5000001    1    1    2    0    0  0.11407556233E+03  0.13858061790E+02  0.12962574824E+04  0.13036171756E+04  0.77000000000E+02 0.  0.
<mgrwt>
<rscale>  0 0.46212727E+03</rscale>
<asrwt>0</asrwt>
<pdfrwt beam="1">  1        2 0.22208700E+00 0.46212727E+03</pdfrwt>
<pdfrwt beam="2">  1       -2 0.56900142E-02 0.46212727E+03</pdfrwt>
<totfact> 0.23441774E+03</totfact>
</mgrwt>
</event>
<event>
 4    1  0.6148427E-004  0.2129190E+03  0.7818608E-02  0.1139275E+00
          2   -1    0    0  501    0  0.00000000000E+00  0.00000000000E+00  0.28520457864E+02  0.28520457978E+02  0.25500000000E-02 0.  1.
         -2   -1    0    0    0  501 -0.00000000000E+00 -0.00000000000E+00 -0.39738592964E+03  0.39738592965E+03  0.25500000000E-02 0. -1.
    5000001    1    1    2    0    0  0.59915407778E+02  0.42573669599E+02 -0.18743671957E+03  0.21555485908E+03  0.77000000000E+02 0.  0.
   -5000001    1    1    2    0    0 -0.59915407778E+02 -0.42573669599E+02 -0.18142875221E+03  0.21035152854E+03  0.77000000000E+02 0.  0.
<mgrwt>
<rscale>  0 0.21291903E+03</rscale>
<asrwt>0</asrwt>
<pdfrwt beam="1">  1        2 0.43877631E-02 0.21291903E+03</pdfrwt>
<pdfrwt beam="2">  1       -2 0.61136293E-01 0.21291903E+03</pdfrwt>
<totfact> 0.46675872E+03</totfact>
</mgrwt>
</event>
<event>
 4    1  0.6148427E-004  0.1993607E+03  0.7818608E-02  0.1150280E+00
          2   -1    0    0  501    0  0.00000000000E+00  0.00000000000E+00  0.74531437378E+03  0.74531437378E+03  0.25500000000E-02 0.  1.
         -2   -1    0    0    0  501 -0.00000000000E+00 -0.00000000000E+00 -0.13331514466E+02  0.13331514710E+02  0.25500000000E-02 0. -1.
    5000001    1    1    2    0    0  0.56362126408E+02 -0.26029372205E+02  0.31892870004E+03  0.33391426029E+03  0.77000000000E+02 0.  0.
   -5000001    1    1    2    0    0 -0.56362126408E+02  0.26029372205E+02  0.41305415927E+03  0.42473162821E+03  0.77000000000E+02 0.  0.
<mgrwt>
<rscale>  0 0.19936067E+03</rscale>
<asrwt>0</asrwt>
<pdfrwt beam="1">  1        2 0.11466374E+00 0.19936067E+03</pdfrwt>
<pdfrwt beam="2">  1       -2 0.20510024E-02 0.19936067E+03</pdfrwt>
<totfact> 0.28129856E+04</totfact>
</mgrwt>
</event>
<event>
 4    1  0.6148427E-004  0.2193367E+03  0.7818608E-02  0.1134379E+00
         -2   -1    0    0    0  501 -0.00000000000E+00  0.00000000000E+00  0.10389020556E+02  0.10389020869E+02  0.25500000000E-02 0. -1.
          2   -1    0    0  501    0  0.00000000000E+00 -0.00000000000E+00 -0.11576787616E+04  0.11576787616E+04  0.25500000000E-02 0.  1.
    5000001    1    1    2    0    0 -0.10473446231E+02  0.71593520980E+02 -0.73007400646E+03  0.73768040521E+03  0.77000000000E+02 0.  0.
   -5000001    1    1    2    0    0  0.10473446231E+02 -0.71593520980E+02 -0.41721573457E+03  0.43038737725E+03  0.77000000000E+02 0.  0.
<mgrwt>
<rscale>  0 0.21933671E+03</rscale>
<asrwt>0</asrwt>
<pdfrwt beam="1">  1        2 0.17810432E+00 0.21933671E+03</pdfrwt>
<pdfrwt beam="2">  1       -2 0.15983118E-02 0.21933671E+03</pdfrwt>
<totfact> 0.22411174E+04</totfact>
</mgrwt>
</event>
<event>
 4    1  0.6148427E-004  0.4646171E+03  0.7818608E-02  0.1023451E+00
          2   -1    0    0  501    0  0.00000000000E+00  0.00000000000E+00  0.19676195823E+04  0.19676195823E+04  0.25500000000E-02 0.  1.
         -2   -1    0    0    0  501 -0.00000000000E+00 -0.00000000000E+00 -0.27427685570E+02  0.27427685689E+02  0.25500000000E-02 0. -1.
    5000001    1    1    2    0    0  0.72268209523E+02 -0.20083253679E+03  0.11840131739E+04  0.12055590396E+04  0.77000000000E+02 0.  0.
   -5000001    1    1    2    0    0 -0.72268209523E+02  0.20083253679E+03  0.75617872283E+03  0.78948822841E+03  0.77000000000E+02 0.  0.
<mgrwt>
<rscale>  0 0.46461705E+03</rscale>
<asrwt>0</asrwt>
<pdfrwt beam="1">  1        2 0.30271067E+00 0.46461705E+03</pdfrwt>
<pdfrwt beam="2">  1       -2 0.42196444E-02 0.46461705E+03</pdfrwt>
<totfact> 0.19371043E+03</totfact>
</mgrwt>
</event>
<event>
 4    1  0.6148427E-004  0.2611622E+03  0.7818608E-02  0.1106447E+00
          2   -1    0    0  501    0  0.00000000000E+00  0.00000000000E+00  0.10866972480E+04  0.10866972480E+04  0.25500000000E-02 0.  1.
         -2   -1    0    0    0  501 -0.00000000000E+00 -0.00000000000E+00 -0.15691047407E+02  0.15691047614E+02  0.25500000000E-02 0. -1.
    5000001    1    1    2    0    0 -0.80185413288E+01  0.98502308188E+02  0.38009962810E+03  0.40021460369E+03  0.77000000000E+02 0.  0.
   -5000001    1    1    2    0    0  0.80185413288E+01 -0.98502308188E+02  0.69090657251E+03  0.70217369195E+03  0.77000000000E+02 0.  0.
<mgrwt>
<rscale>  0 0.26116216E+03</rscale>
<asrwt>0</asrwt>
<pdfrwt beam="1">  1        2 0.16718421E+00 0.26116216E+03</pdfrwt>
<pdfrwt beam="2">  1       -2 0.24140071E-02 0.26116216E+03</pdfrwt>
<totfact> 0.13560374E+04</totfact>
</mgrwt>
</event>
<event>
 4    1  0.6148427E-004  0.1873864E+03  0.7818608E-02  0.1160840E+00
          2   -1    0    0  501    0  0.00000000000E+00  0.00000000000E+00  0.30818747444E+02  0.30818747550E+02  0.25500000000E-02 0.  1.
         -2   -1    0    0    0  501 -0.00000000000E+00 -0.00000000000E+00 -0.28484020442E+03  0.28484020443E+03  0.25500000000E-02 0. -1.
    5000001    1    1    2    0    0  0.52686488914E+02  0.84740885053E+01 -0.12923409131E+03  0.15961869141E+03  0.77000000000E+02 0.  0.
   -5000001    1    1    2    0    0 -0.52686488914E+02 -0.84740885053E+01 -0.12478736566E+03  0.15604026057E+03  0.77000000000E+02 0.  0.
<mgrwt>
<rscale>  0 0.18738643E+03</rscale>
<asrwt>0</asrwt>
<pdfrwt beam="1">  1        2 0.47413460E-02 0.18738643E+03</pdfrwt>
<pdfrwt beam="2">  1       -2 0.43821568E-01 0.18738643E+03</pdfrwt>
<totfact> 0.81386459E+03</totfact>
</mgrwt>
</event>
<event>
 4    1  0.6148427E-004  0.3029945E+03  0.7818608E-02  0.1083753E+00
          2   -1    0    0  501    0  0.00000000000E+00  0.00000000000E+00  0.80676715748E+03  0.80676715748E+03  0.25500000000E-02 0.  1.
         -2   -1    0    0    0  501 -0.00000000000E+00 -0.00000000000E+00 -0.28448628414E+02  0.28448628528E+02  0.25500000000E-02 0. -1.
    5000001    1    1    2    0    0 -0.12739093880E+03  0.26788399578E+02  0.41324539264E+03  0.44005320607E+03  0.77000000000E+02 0.  0.
   -5000001    1    1    2    0    0  0.12739093880E+03 -0.26788399578E+02  0.36507313643E+03  0.39516257994E+03  0.77000000000E+02 0.  0.
<mgrwt>
<rscale>  0 0.30299452E+03</rscale>
<asrwt>0</asrwt>
<pdfrwt beam="1">  1        2 0.12411801E+00 0.30299452E+03</pdfrwt>
<pdfrwt beam="2">  1       -2 0.43767124E-02 0.30299452E+03</pdfrwt>
<totfact> 0.84211555E+03</totfact>
</mgrwt>
</event>
<event>
 4    1  0.6148427E-004  0.3079963E+03  0.7818608E-02  0.1081310E+00
          2   -1    0    0  501    0  0.00000000000E+00  0.00000000000E+00  0.82545631613E+03  0.82545631614E+03  0.25500000000E-02 0.  1.
         -2   -1    0    0    0  501 -0.00000000000E+00 -0.00000000000E+00 -0.28730082651E+02  0.28730082765E+02  0.25500000000E-02 0. -1.
    5000001    1    1    2    0    0 -0.11486211160E+03 -0.65492418279E+02  0.35001843244E+03  0.38200060809E+03  0.77000000000E+02 0.  0.
   -5000001    1    1    2    0    0  0.11486211160E+03  0.65492418279E+02  0.44670780104E+03  0.47218579081E+03  0.77000000000E+02 0.  0.
<mgrwt>
<rscale>  0 0.30799629E+03</rscale>
<asrwt>0</asrwt>
<pdfrwt beam="1">  1        2 0.12699326E+00 0.30799629E+03</pdfrwt>
<pdfrwt beam="2">  1       -2 0.44200134E-02 0.30799629E+03</pdfrwt>
<totfact> 0.80586692E+03</totfact>
</mgrwt>
</event>
<event>
 4    1  0.6148427E-004  0.4202723E+03  0.7818608E-02  0.1036978E+00
         -2   -1    0    0    0  501 -0.00000000000E+00  0.00000000000E+00  0.62066970016E+02  0.62066970068E+02  0.25500000000E-02 0. -1.
          2   -1    0    0  501    0  0.00000000000E+00 -0.00000000000E+00 -0.71144462089E+03  0.71144462090E+03  0.25500000000E-02 0.  1.
    5000001    1    1    2    0    0 -0.11502101049E+03  0.84625081906E+02 -0.78880490381E+02  0.18039503625E+03  0.77000000000E+02 0.  0.
   -5000001    1    1    2    0    0  0.11502101049E+03 -0.84625081906E+02 -0.57049716049E+03  0.59311655471E+03  0.77000000000E+02 0.  0.
<mgrwt>
<rscale>  0 0.42027235E+03</rscale>
<asrwt>0</asrwt>
<pdfrwt beam="1">  1        2 0.10945301E+00 0.42027235E+03</pdfrwt>
<pdfrwt beam="2">  1       -2 0.95487652E-02 0.42027235E+03</pdfrwt>
<totfact> 0.29529764E+03</totfact>
</mgrwt>
</event>
<event>
 4    1  0.6148427E-004  0.2582940E+03  0.7818608E-02  0.1108173E+00
          2   -1    0    0  501    0  0.00000000000E+00  0.00000000000E+00  0.38091604682E+04  0.38091604682E+04  0.25500000000E-02 0.  1.
         -2   -1    0    0    0  501 -0.00000000000E+00 -0.00000000000E+00 -0.43786424590E+01  0.43786432015E+01  0.25500000000E-02 0. -1.
    5000001    1    1    2    0    0  0.81921812207E+02 -0.63464419034E+02  0.18533400371E+04  0.18578313188E+04  0.77000000000E+02 0.  0.
   -5000001    1    1    2    0    0 -0.81921812207E+02  0.63464419034E+02  0.19514417885E+04  0.19557077926E+04  0.77000000000E+02 0.  0.
<mgrwt>
<rscale>  0 0.25829404E+03</rscale>
<asrwt>0</asrwt>
<pdfrwt beam="1">  1        2 0.58602814E+00 0.25829404E+03</pdfrwt>
<pdfrwt beam="2">  1       -2 0.67363339E-03 0.25829404E+03</pdfrwt>
<totfact> 0.23504493E+03</totfact>
</mgrwt>
</event>
<event>
 4    1  0.6148427E-004  0.1660982E+03  0.7818608E-02  0.1181979E+00
          2   -1    0    0  501    0  0.00000000000E+00  0.00000000000E+00  0.31995614352E+03  0.31995614353E+03  0.25500000000E-02 0.  1.
         -2   -1    0    0    0  501 -0.00000000000E+00 -0.00000000000E+00 -0.21556548907E+02  0.21556549058E+02  0.25500000000E-02 0. -1.
    5000001    1    1    2    0    0  0.14636031824E+01 -0.28918582302E+02  0.17261790244E+03  0.19121811310E+03  0.77000000000E+02 0.  0.
   -5000001    1    1    2    0    0 -0.14636031824E+01  0.28918582302E+02  0.12578169218E+03  0.15029457949E+03  0.77000000000E+02 0.  0.
<mgrwt>
<rscale>  0 0.16609817E+03</rscale>
<asrwt>0</asrwt>
<pdfrwt beam="1">  1        2 0.49224022E-01 0.16609817E+03</pdfrwt>
<pdfrwt beam="2">  1       -2 0.33163922E-02 0.16609817E+03</pdfrwt>
<totfact> 0.35135298E+04</totfact>
</mgrwt>
</event>
<event>
 4    1  0.6148427E-004  0.4613162E+03  0.7818608E-02  0.1024400E+00
         -2   -1    0    0    0  501 -0.00000000000E+00  0.00000000000E+00  0.70767792883E+02  0.70767792929E+02  0.25500000000E-02 0. -1.
          2   -1    0    0  501    0  0.00000000000E+00 -0.00000000000E+00 -0.75179899055E+03  0.75179899056E+03  0.25500000000E-02 0.  1.
    5000001    1    1    2    0    0  0.13193714205E+03  0.14451460449E+03 -0.17152379211E+03  0.27136929012E+03  0.77000000000E+02 0.  0.
   -5000001    1    1    2    0    0 -0.13193714205E+03 -0.14451460449E+03 -0.50950740556E+03  0.55119749336E+03  0.77000000000E+02 0.  0.
<mgrwt>
<rscale>  0 0.46131618E+03</rscale>
<asrwt>0</asrwt>
<pdfrwt beam="1">  1        2 0.11566138E+00 0.46131618E+03</pdfrwt>
<pdfrwt beam="2">  1       -2 0.10887353E-01 0.46131618E+03</pdfrwt>
<totfact> 0.22311462E+03</totfact>
</mgrwt>
</event>
<event>
 4    1  0.6148427E-004  0.2448968E+03  0.7818608E-02  0.1116573E+00
         -2   -1    0    0    0  501 -0.00000000000E+00  0.00000000000E+00  0.75343167399E+02  0.75343167442E+02  0.25500000000E-02 0. -1.
          2   -1    0    0  501    0  0.00000000000E+00 -0.00000000000E+00 -0.19900419666E+03  0.19900419668E+03  0.25500000000E-02 0.  1.
    5000001    1    1    2    0    0 -0.65543433207E+02  0.67675019770E+02 -0.77221583563E+02  0.14411114775E+03  0.77000000000E+02 0.  0.
   -5000001    1    1    2    0    0  0.65543433207E+02 -0.67675019770E+02 -0.46439445697E+02  0.13023621637E+03  0.77000000000E+02 0.  0.
<mgrwt>
<rscale>  0 0.24489677E+03</rscale>
<asrwt>0</asrwt>
<pdfrwt beam="1">  1        2 0.30616030E-01 0.24489677E+03</pdfrwt>
<pdfrwt beam="2">  1       -2 0.11591257E-01 0.24489677E+03</pdfrwt>
<totfact> 0.88258060E+03</totfact>
</mgrwt>
</event>
<event>
 4    1  0.6148427E-004  0.2570951E+03  0.7818608E-02  0.1108901E+00
          2   -1    0    0  501    0  0.00000000000E+00  0.00000000000E+00  0.71382809417E+03  0.71382809418E+03  0.25500000000E-02 0.  1.
         -2   -1    0    0    0  501 -0.00000000000E+00 -0.00000000000E+00 -0.23149086970E+02  0.23149087110E+02  0.25500000000E-02 0. -1.
    5000001    1    1    2    0    0 -0.67863919716E+02  0.70275197766E+02  0.25239264630E+03  0.28138081478E+03  0.77000000000E+02 0.  0.
   -5000001    1    1    2    0    0  0.67863919716E+02 -0.70275197766E+02  0.43828636090E+03  0.45559636650E+03  0.77000000000E+02 0.  0.
<mgrwt>
<rscale>  0 0.25709507E+03</rscale>
<asrwt>0</asrwt>
<pdfrwt beam="1">  1        2 0.10981970E+00 0.25709507E+03</pdfrwt>
<pdfrwt beam="2">  1       -2 0.35613983E-02 0.25709507E+03</pdfrwt>
<totfact> 0.13304608E+04</totfact>
</mgrwt>
</event>
<event>
 4    1  0.6148427E-004  0.2022787E+03  0.7818608E-02  0.1147831E+00
         -2   -1    0    0    0  501 -0.00000000000E+00  0.00000000000E+00  0.13638255058E+02  0.13638255296E+02  0.25500000000E-02 0. -1.
          2   -1    0    0  501    0  0.00000000000E+00 -0.00000000000E+00 -0.75003499309E+03  0.75003499310E+03  0.25500000000E-02 0.  1.
    5000001    1    1    2    0    0  0.20469488236E+02  0.53974958487E+02 -0.48565201336E+03  0.49509511628E+03  0.77000000000E+02 0.  0.
   -5000001    1    1    2    0    0 -0.20469488236E+02 -0.53974958487E+02 -0.25074472468E+03  0.26857813211E+03  0.77000000000E+02 0.  0.
<mgrwt>
<rscale>  0 0.20227871E+03</rscale>
<asrwt>0</asrwt>
<pdfrwt beam="1">  1        2 0.11538997E+00 0.20227871E+03</pdfrwt>
<pdfrwt beam="2">  1       -2 0.20981937E-02 0.20227871E+03</pdfrwt>
<totfact> 0.27025374E+04</totfact>
</mgrwt>
</event>
<event>
 4    1  0.6148427E-004  0.3056069E+03  0.7818608E-02  0.1082471E+00
          2   -1    0    0  501    0  0.00000000000E+00  0.00000000000E+00  0.19586259764E+03  0.19586259765E+03  0.25500000000E-02 0.  1.
         -2   -1    0    0    0  501 -0.00000000000E+00 -0.00000000000E+00 -0.11921058334E+03  0.11921058337E+03  0.25500000000E-02 0. -1.
    5000001    1    1    2    0    0  0.10935501079E+03  0.48080819614E+02 -0.19533767058E+02  0.14346027902E+03  0.77000000000E+02 0.  0.
   -5000001    1    1    2    0    0 -0.10935501079E+03 -0.48080819614E+02  0.96185781354E+02  0.17161290201E+03  0.77000000000E+02 0.  0.
<mgrwt>
<rscale>  0 0.30560690E+03</rscale>
<asrwt>0</asrwt>
<pdfrwt beam="1">  1        2 0.30132707E-01 0.30560690E+03</pdfrwt>
<pdfrwt beam="2">  1       -2 0.18340090E-01 0.30560690E+03</pdfrwt>
<totfact> 0.42500054E+03</totfact>
</mgrwt>
</event>
<event>
 4    1  0.6148427E-004  0.1947889E+03  0.7818608E-02  0.1154212E+00
         -2   -1    0    0    0  501 -0.00000000000E+00  0.00000000000E+00  0.51074590447E+02  0.51074590511E+02  0.25500000000E-02 0. -1.
          2   -1    0    0  501    0  0.00000000000E+00 -0.00000000000E+00 -0.18572199903E+03  0.18572199905E+03  0.25500000000E-02 0.  1.
    5000001    1    1    2    0    0 -0.41877521330E+01 -0.56479266114E+02 -0.44605852013E+02  0.10548045697E+03  0.77000000000E+02 0.  0.
   -5000001    1    1    2    0    0  0.41877521330E+01  0.56479266114E+02 -0.90041556571E+02  0.13131613259E+03  0.77000000000E+02 0.  0.
<mgrwt>
<rscale>  0 0.19478886E+03</rscale>
<asrwt>0</asrwt>
<pdfrwt beam="1">  1        2 0.28572615E-01 0.19478886E+03</pdfrwt>
<pdfrwt beam="2">  1       -2 0.78576294E-02 0.19478886E+03</pdfrwt>
<totfact> 0.17338887E+04</totfact>
</mgrwt>
</event>
<event>
 4    1  0.6148427E-004  0.6993522E+03  0.7818608E-02  0.9718341E-01
         -2   -1    0    0    0  501 -0.00000000000E+00  0.00000000000E+00  0.36767872021E+02  0.36767872109E+02  0.25500000000E-02 0. -1.
          2   -1    0    0  501    0  0.00000000000E+00 -0.00000000000E+00 -0.33255494160E+04  0.33255494160E+04  0.25500000000E-02 0.  1.
    5000001    1    1    2    0    0  0.14816218870E+03 -0.26186303243E+03 -0.87184956631E+03  0.92551334306E+03  0.77000000000E+02 0.  0.
   -5000001    1    1    2    0    0 -0.14816218870E+03  0.26186303243E+03 -0.24169319776E+04  0.24368039450E+04  0.77000000000E+02 0.  0.
<mgrwt>
<rscale>  0 0.69935220E+03</rscale>
<asrwt>0</asrwt>
<pdfrwt beam="1">  1        2 0.51162275E+00 0.69935220E+03</pdfrwt>
<pdfrwt beam="2">  1       -2 0.56565983E-02 0.69935220E+03</pdfrwt>
<totfact> 0.19610692E+02</totfact>
</mgrwt>
</event>
<event>
 4    1  0.6148427E-004  0.1842309E+03  0.7818608E-02  0.1163770E+00
          2   -1    0    0  501    0  0.00000000000E+00  0.00000000000E+00  0.26709642256E+03  0.26709642258E+03  0.25500000000E-02 0.  1.
         -2   -1    0    0    0  501 -0.00000000000E+00 -0.00000000000E+00 -0.31768504023E+02  0.31768504125E+02  0.25500000000E-02 0. -1.
    5000001    1    1    2    0    0  0.19704303211E+02 -0.41744250987E+02  0.84204626898E+02  0.12308639749E+03  0.77000000000E+02 0.  0.
   -5000001    1    1    2    0    0 -0.19704303211E+02  0.41744250987E+02  0.15112329164E+03  0.17577852921E+03  0.77000000000E+02 0.  0.
<mgrwt>
<rscale>  0 0.18423087E+03</rscale>
<asrwt>0</asrwt>
<pdfrwt beam="1">  1        2 0.41091759E-01 0.18423087E+03</pdfrwt>
<pdfrwt beam="2">  1       -2 0.48874620E-02 0.18423087E+03</pdfrwt>
<totfact> 0.24087310E+04</totfact>
</mgrwt>
</event>
<event>
 4    1  0.6148427E-004  0.2512356E+03  0.7818608E-02  0.1112526E+00
          2   -1    0    0  501    0  0.00000000000E+00  0.00000000000E+00  0.12115628491E+04  0.12115628491E+04  0.25500000000E-02 0.  1.
         -2   -1    0    0    0  501 -0.00000000000E+00 -0.00000000000E+00 -0.13024360041E+02  0.13024360290E+02  0.25500000000E-02 0. -1.
    5000001    1    1    2    0    0 -0.80933806355E+02 -0.55307913195E+02  0.67502981037E+03  0.68644263501E+03  0.77000000000E+02 0.  0.
   -5000001    1    1    2    0    0  0.80933806355E+02  0.55307913195E+02  0.52350867869E+03  0.53814457438E+03  0.77000000000E+02 0.  0.
<mgrwt>
<rscale>  0 0.25123559E+03</rscale>
<asrwt>0</asrwt>
<pdfrwt beam="1">  1        2 0.18639428E+00 0.25123559E+03</pdfrwt>
<pdfrwt beam="2">  1       -2 0.20037478E-02 0.25123559E+03</pdfrwt>
<totfact> 0.15095885E+04</totfact>
</mgrwt>
</event>
<event>
 4    1  0.6148427E-004  0.3546565E+03  0.7818608E-02  0.1060720E+00
          2   -1    0    0  501    0  0.00000000000E+00  0.00000000000E+00  0.64243433263E+03  0.64243433263E+03  0.25500000000E-02 0.  1.
         -2   -1    0    0    0  501 -0.00000000000E+00 -0.00000000000E+00 -0.48947124159E+02  0.48947124225E+02  0.25500000000E-02 0. -1.
    5000001    1    1    2    0    0  0.79473183736E+02 -0.13555696187E+03  0.24076256276E+03  0.29763616795E+03  0.77000000000E+02 0.  0.
   -5000001    1    1    2    0    0 -0.79473183736E+02  0.13555696187E+03  0.35272464571E+03  0.39374528890E+03  0.77000000000E+02 0.  0.
<mgrwt>
<rscale>  0 0.35465653E+03</rscale>
<asrwt>0</asrwt>
<pdfrwt beam="1">  1        2 0.98836040E-01 0.35465653E+03</pdfrwt>
<pdfrwt beam="2">  1       -2 0.75303276E-02 0.35465653E+03</pdfrwt>
<totfact> 0.48588851E+03</totfact>
</mgrwt>
</event>
<event>
 4    1  0.6148427E-004  0.2419478E+03  0.7818608E-02  0.1118502E+00
         -2   -1    0    0    0  501 -0.00000000000E+00  0.00000000000E+00  0.19250099150E+04  0.19250099150E+04  0.25500000000E-02 0. -1.
          2   -1    0    0  501    0  0.00000000000E+00 -0.00000000000E+00 -0.76023929502E+01  0.76023933779E+01  0.25500000000E-02 0.  1.
    5000001    1    1    2    0    0  0.40923603883E+02 -0.83141517062E+02  0.87177727128E+03  0.88006355676E+03  0.77000000000E+02 0.  0.
   -5000001    1    1    2    0    0 -0.40923603883E+02  0.83141517062E+02  0.10456302508E+04  0.10525487516E+04  0.77000000000E+02 0.  0.
<mgrwt>
<rscale>  0 0.24194778E+03</rscale>
<asrwt>0</asrwt>
<pdfrwt beam="1">  1        2 0.11695967E-02 0.24194778E+03</pdfrwt>
<pdfrwt beam="2">  1       -2 0.29615594E+00 0.24194778E+03</pdfrwt>
<totfact> 0.44590431E+02</totfact>
</mgrwt>
</event>
<event>
 4    1  0.6148427E-004  0.1801773E+03  0.7818608E-02  0.1167632E+00
          2   -1    0    0  501    0  0.00000000000E+00  0.00000000000E+00  0.71525357421E+03  0.71525357421E+03  0.25500000000E-02 0.  1.
         -2   -1    0    0    0  501 -0.00000000000E+00 -0.00000000000E+00 -0.11346974538E+02  0.11346974824E+02  0.25500000000E-02 0. -1.
    5000001    1    1    2    0    0 -0.45317228133E+02 -0.10323417595E+02  0.37280670821E+03  0.38350236741E+03  0.77000000000E+02 0.  0.
   -5000001    1    1    2    0    0  0.45317228133E+02  0.10323417595E+02  0.33109989145E+03  0.34309818163E+03  0.77000000000E+02 0.  0.
<mgrwt>
<rscale>  0 0.18017729E+03</rscale>
<asrwt>0</asrwt>
<pdfrwt beam="1">  1        2 0.11003903E+00 0.18017729E+03</pdfrwt>
<pdfrwt beam="2">  1       -2 0.17456881E-02 0.18017729E+03</pdfrwt>
<totfact> 0.37124427E+04</totfact>
</mgrwt>
</event>
<event>
 4    1  0.6148427E-004  0.6082042E+03  0.7818608E-02  0.9888530E-01
         -2   -1    0    0    0  501 -0.00000000000E+00  0.00000000000E+00  0.89311371783E+02  0.89311371820E+02  0.25500000000E-02 0. -1.
          2   -1    0    0  501    0  0.00000000000E+00 -0.00000000000E+00 -0.10354569108E+04  0.10354569108E+04  0.25500000000E-02 0.  1.
    5000001    1    1    2    0    0  0.10348970420E+03  0.22951564425E+03 -0.75452018636E+03  0.79913532112E+03  0.77000000000E+02 0.  0.
   -5000001    1    1    2    0    0 -0.10348970420E+03 -0.22951564425E+03 -0.19162535264E+03  0.32563296149E+03  0.77000000000E+02 0.  0.
<mgrwt>
<rscale>  0 0.60820417E+03</rscale>
<asrwt>0</asrwt>
<pdfrwt beam="1">  1        2 0.15930105E+00 0.60820417E+03</pdfrwt>
<pdfrwt beam="2">  1       -2 0.13740212E-01 0.60820417E+03</pdfrwt>
<totfact> 0.97944033E+02</totfact>
</mgrwt>
</event>
<event>
 4    1  0.6148427E-004  0.2824879E+03  0.7818608E-02  0.1094338E+00
         -2   -1    0    0    0  501 -0.00000000000E+00  0.00000000000E+00  0.18697838672E+02  0.18697838846E+02  0.25500000000E-02 0. -1.
          2   -1    0    0  501    0  0.00000000000E+00 -0.00000000000E+00 -0.10669600946E+04  0.10669600946E+04  0.25500000000E-02 0.  1.
    5000001    1    1    2    0    0  0.52967269327E+02 -0.99326131502E+01 -0.92934132964E+03  0.93408163209E+03  0.77000000000E+02 0.  0.
   -5000001    1    1    2    0    0 -0.52967269327E+02  0.99326131502E+01 -0.11892092627E+03  0.15157630134E+03  0.77000000000E+02 0.  0.
<mgrwt>
<rscale>  0 0.28248786E+03</rscale>
<asrwt>0</asrwt>
<pdfrwt beam="1">  1        2 0.16414766E+00 0.28248786E+03</pdfrwt>
<pdfrwt beam="2">  1       -2 0.28765914E-02 0.28248786E+03</pdfrwt>
<totfact> 0.10769703E+04</totfact>
</mgrwt>
</event>
<event>
 4    1  0.6148427E-004  0.4065293E+03  0.7818608E-02  0.1041542E+00
         -2   -1    0    0    0  501 -0.00000000000E+00  0.00000000000E+00  0.80818027924E+02  0.80818027964E+02  0.25500000000E-02 0. -1.
          2   -1    0    0  501    0  0.00000000000E+00 -0.00000000000E+00 -0.51122886741E+03  0.51122886742E+03  0.25500000000E-02 0.  1.
    5000001    1    1    2    0    0 -0.94842594903E+02 -0.33244449803E+02  0.16381835174E+02  0.12766235065E+03  0.77000000000E+02 0.  0.
   -5000001    1    1    2    0    0  0.94842594903E+02  0.33244449803E+02 -0.44679267466E+03  0.46438454473E+03  0.77000000000E+02 0.  0.
<mgrwt>
<rscale>  0 0.40652926E+03</rscale>
<asrwt>0</asrwt>
<pdfrwt beam="1">  1        2 0.78650593E-01 0.40652926E+03</pdfrwt>
<pdfrwt beam="2">  1       -2 0.12433543E-01 0.40652926E+03</pdfrwt>
<totfact> 0.28492651E+03</totfact>
</mgrwt>
</event>
<event>
 4    1  0.6148427E-004  0.2579408E+03  0.7818608E-02  0.1108387E+00
          2   -1    0    0  501    0  0.00000000000E+00  0.00000000000E+00  0.11344691269E+04  0.11344691269E+04  0.25500000000E-02 0.  1.
         -2   -1    0    0    0  501 -0.00000000000E+00 -0.00000000000E+00 -0.14661807199E+02  0.14661807421E+02  0.25500000000E-02 0. -1.
    5000001    1    1    2    0    0 -0.31245964905E+02  0.86200135170E+02  0.34636029553E+03  0.36647131941E+03  0.77000000000E+02 0.  0.
   -5000001    1    1    2    0    0  0.31245964905E+02 -0.86200135170E+02  0.77344702413E+03  0.78265961488E+03  0.77000000000E+02 0.  0.
<mgrwt>
<rscale>  0 0.25794083E+03</rscale>
<asrwt>0</asrwt>
<pdfrwt beam="1">  1        2 0.17453372E+00 0.25794083E+03</pdfrwt>
<pdfrwt beam="2">  1       -2 0.22556625E-02 0.25794083E+03</pdfrwt>
<totfact> 0.14049349E+04</totfact>
</mgrwt>
</event>
<event>
 4    1  0.6148427E-004  0.2332903E+03  0.7818608E-02  0.1124345E+00
         -2   -1    0    0    0  501 -0.00000000000E+00  0.00000000000E+00  0.60451021595E+01  0.60451026973E+01  0.25500000000E-02 0. -1.
          2   -1    0    0  501    0  0.00000000000E+00 -0.00000000000E+00 -0.22507619420E+04  0.22507619420E+04  0.25500000000E-02 0.  1.
    5000001    1    1    2    0    0  0.85873403545E+02 -0.10025844148E+02 -0.98475625254E+03  0.99153851963E+03  0.77000000000E+02 0.  0.
   -5000001    1    1    2    0    0 -0.85873403545E+02  0.10025844148E+02 -0.12599605873E+04  0.12652685251E+04  0.77000000000E+02 0.  0.
<mgrwt>
<rscale>  0 0.23329026E+03</rscale>
<asrwt>0</asrwt>
<pdfrwt beam="1">  1        2 0.34627040E+00 0.23329026E+03</pdfrwt>
<pdfrwt beam="2">  1       -2 0.93001755E-03 0.23329026E+03</pdfrwt>
<totfact> 0.12919669E+04</totfact>
</mgrwt>
</event>
<event>
 4    1  0.6148427E-004  0.1650191E+03  0.7818608E-02  0.1183144E+00
          2   -1    0    0  501    0  0.00000000000E+00  0.00000000000E+00  0.21045893095E+03  0.21045893097E+03  0.25500000000E-02 0.  1.
         -2   -1    0    0    0  501 -0.00000000000E+00 -0.00000000000E+00 -0.32347527602E+02  0.32347527702E+02  0.25500000000E-02 0. -1.
    5000001    1    1    2    0    0 -0.82943578993E+01 -0.28360610505E+02  0.85541129023E+02  0.11882510406E+03  0.77000000000E+02 0.  0.
   -5000001    1    1    2    0    0  0.82943578993E+01  0.28360610505E+02  0.92570274329E+02  0.12398135461E+03  0.77000000000E+02 0.  0.
<mgrwt>
<rscale>  0 0.16501910E+03</rscale>
<asrwt>0</asrwt>
<pdfrwt beam="1">  1        2 0.32378296E-01 0.16501910E+03</pdfrwt>
<pdfrwt beam="2">  1       -2 0.49765429E-02 0.16501910E+03</pdfrwt>
<totfact> 0.29987796E+04</totfact>
</mgrwt>
</event>
<event>
 4    1  0.6148427E-004  0.2466921E+03  0.7818608E-02  0.1115413E+00
          2   -1    0    0  501    0  0.00000000000E+00  0.00000000000E+00  0.10494566518E+04  0.10494566518E+04  0.25500000000E-02 0.  1.
         -2   -1    0    0    0  501 -0.00000000000E+00 -0.00000000000E+00 -0.14497267018E+02  0.14497267242E+02  0.25500000000E-02 0. -1.
    5000001    1    1    2    0    0 -0.91879503437E+02  0.25186176805E+02  0.57984025241E+03  0.59263808937E+03  0.77000000000E+02 0.  0.
   -5000001    1    1    2    0    0  0.91879503437E+02 -0.25186176805E+02  0.45511913237E+03  0.47131582968E+03  0.77000000000E+02 0.  0.
<mgrwt>
<rscale>  0 0.24669214E+03</rscale>
<asrwt>0</asrwt>
<pdfrwt beam="1">  1        2 0.16145489E+00 0.24669214E+03</pdfrwt>
<pdfrwt beam="2">  1       -2 0.22303484E-02 0.24669214E+03</pdfrwt>
<totfact> 0.15998906E+04</totfact>
</mgrwt>
</event>
<event>
 4    1  0.6148427E-004  0.2238505E+03  0.7818608E-02  0.1131044E+00
         -2   -1    0    0    0  501 -0.00000000000E+00  0.00000000000E+00  0.22544942724E+02  0.22544942869E+02  0.25500000000E-02 0. -1.
          2   -1    0    0  501    0  0.00000000000E+00 -0.00000000000E+00 -0.55565746091E+03  0.55565746092E+03  0.25500000000E-02 0.  1.
    5000001    1    1    2    0    0 -0.62643514761E+02  0.49645519389E+02 -0.30393179418E+03  0.32356208531E+03  0.77000000000E+02 0.  0.
   -5000001    1    1    2    0    0  0.62643514761E+02 -0.49645519389E+02 -0.22918072401E+03  0.25464031848E+03  0.77000000000E+02 0.  0.
<mgrwt>
<rscale>  0 0.22385054E+03</rscale>
<asrwt>0</asrwt>
<pdfrwt beam="1">  1        2 0.85485753E-01 0.22385054E+03</pdfrwt>
<pdfrwt beam="2">  1       -2 0.34684532E-02 0.22385054E+03</pdfrwt>
<totfact> 0.18438805E+04</totfact>
</mgrwt>
</event>
<event>
 4    1  0.6148427E-004  0.1975171E+03  0.7818608E-02  0.1151851E+00
          2   -1    0    0  501    0  0.00000000000E+00  0.00000000000E+00  0.20343426211E+04  0.20343426211E+04  0.25500000000E-02 0.  1.
         -2   -1    0    0    0  501 -0.00000000000E+00 -0.00000000000E+00 -0.47943030251E+01  0.47943037032E+01  0.25500000000E-02 0. -1.
    5000001    1    1    2    0    0 -0.52291489226E+02 -0.89020497081E-01  0.13555937381E+04  0.13587854100E+04  0.77000000000E+02 0.  0.
   -5000001    1    1    2    0    0  0.52291489226E+02  0.89020497081E-01  0.67395458004E+03  0.68035151483E+03  0.77000000000E+02 0.  0.
<mgrwt>
<rscale>  0 0.19751715E+03</rscale>
<asrwt>0</asrwt>
<pdfrwt beam="1">  1        2 0.31297616E+00 0.19751715E+03</pdfrwt>
<pdfrwt beam="2">  1       -2 0.73758425E-03 0.19751715E+03</pdfrwt>
<totfact> 0.23326153E+04</totfact>
</mgrwt>
</event>
<event>
 4    1  0.6148427E-004  0.2914139E+03  0.7818608E-02  0.1089613E+00
          2   -1    0    0  501    0  0.00000000000E+00  0.00000000000E+00  0.12234524868E+04  0.12234524868E+04  0.25500000000E-02 0.  1.
         -2   -1    0    0    0  501 -0.00000000000E+00 -0.00000000000E+00 -0.17352951954E+02  0.17352952142E+02  0.25500000000E-02 0. -1.
    5000001    1    1    2    0    0  0.11503037272E+02 -0.12257231641E+03  0.65436026850E+03  0.67027804202E+03  0.77000000000E+02 0.  0.
   -5000001    1    1    2    0    0 -0.11503037272E+02  0.12257231641E+03  0.55173926634E+03  0.57052739693E+03  0.77000000000E+02 0.  0.
<mgrwt>
<rscale>  0 0.29141388E+03</rscale>
<asrwt>0</asrwt>
<pdfrwt beam="1">  1        2 0.18822342E+00 0.29141388E+03</pdfrwt>
<pdfrwt beam="2">  1       -2 0.26696854E-02 0.29141388E+03</pdfrwt>
<totfact> 0.97723987E+03</totfact>
</mgrwt>
</event>
<event>
 4    1  0.6148427E-004  0.2348511E+03  0.7818608E-02  0.1123271E+00
          2   -1    0    0  501    0  0.00000000000E+00  0.00000000000E+00  0.27509263412E+02  0.27509263530E+02  0.25500000000E-02 0.  1.
         -2   -1    0    0    0  501 -0.00000000000E+00 -0.00000000000E+00 -0.50124076144E+03  0.50124076145E+03  0.25500000000E-02 0. -1.
    5000001    1    1    2    0    0 -0.71130477747E+02  0.14687190105E+02 -0.35132383653E+03  0.36692328426E+03  0.77000000000E+02 0.  0.
   -5000001    1    1    2    0    0  0.71130477747E+02 -0.14687190105E+02 -0.12240766150E+03  0.16182674072E+03  0.77000000000E+02 0.  0.
<mgrwt>
<rscale>  0 0.23485114E+03</rscale>
<asrwt>0</asrwt>
<pdfrwt beam="1">  1        2 0.42321947E-02 0.23485114E+03</pdfrwt>
<pdfrwt beam="2">  1       -2 0.77113957E-01 0.23485114E+03</pdfrwt>
<totfact> 0.30030765E+03</totfact>
</mgrwt>
</event>
<event>
 4    1  0.6148427E-004  0.3009010E+03  0.7818608E-02  0.1084791E+00
          2   -1    0    0  501    0  0.00000000000E+00  0.00000000000E+00  0.10347958757E+03  0.10347958760E+03  0.25500000000E-02 0.  1.
         -2   -1    0    0    0  501 -0.00000000000E+00 -0.00000000000E+00 -0.21874221959E+03  0.21874221961E+03  0.25500000000E-02 0. -1.
    5000001    1    1    2    0    0 -0.11590740701E+03  0.56828825026E+02 -0.50665616805E+02  0.15861918887E+03  0.77000000000E+02 0.  0.
   -5000001    1    1    2    0    0  0.11590740701E+03 -0.56828825026E+02 -0.64597015217E+02  0.16360261834E+03  0.77000000000E+02 0.  0.
<mgrwt>
<rscale>  0 0.30090101E+03</rscale>
<asrwt>0</asrwt>
<pdfrwt beam="1">  1        2 0.15919937E-01 0.30090101E+03</pdfrwt>
<pdfrwt beam="2">  1       -2 0.33652649E-01 0.30090101E+03</pdfrwt>
<totfact> 0.29990768E+03</totfact>
</mgrwt>
</event>
<event>
 4    1  0.6148427E-004  0.1785211E+03  0.7818608E-02  0.1169242E+00
          2   -1    0    0  501    0  0.00000000000E+00  0.00000000000E+00  0.33271811335E+04  0.33271811335E+04  0.25500000000E-02 0.  1.
         -2   -1    0    0    0  501 -0.00000000000E+00 -0.00000000000E+00 -0.23946525809E+01  0.23946539386E+01  0.25500000000E-02 0. -1.
    5000001    1    1    2    0    0 -0.22255359891E+02  0.36351716518E+02  0.13846911861E+04  0.13874852897E+04  0.77000000000E+02 0.  0.
   -5000001    1    1    2    0    0  0.22255359891E+02 -0.36351716518E+02  0.19400952948E+04  0.19420904977E+04  0.77000000000E+02 0.  0.
<mgrwt>
<rscale>  0 0.17852109E+03</rscale>
<asrwt>0</asrwt>
<pdfrwt beam="1">  1        2 0.51187363E+00 0.17852109E+03</pdfrwt>
<pdfrwt beam="2">  1       -2 0.36840847E-03 0.17852109E+03</pdfrwt>
<totfact> 0.11817432E+04</totfact>
</mgrwt>
</event>
<event>
 4    1  0.6148427E-004  0.2053379E+03  0.7818608E-02  0.1145312E+00
         -2   -1    0    0    0  501 -0.00000000000E+00  0.00000000000E+00  0.34316993412E+03  0.34316993413E+03  0.25500000000E-02 0. -1.
          2   -1    0    0  501    0  0.00000000000E+00 -0.00000000000E+00 -0.30716308413E+02  0.30716308519E+02  0.25500000000E-02 0.  1.
    5000001    1    1    2    0    0 -0.63049249676E+02 -0.14761052046E+01  0.11036034006E+03  0.14861289119E+03  0.77000000000E+02 0.  0.
   -5000001    1    1    2    0    0  0.63049249676E+02  0.14761052046E+01  0.20209328565E+03  0.22527335145E+03  0.77000000000E+02 0.  0.
<mgrwt>
<rscale>  0 0.20533790E+03</rscale>
<asrwt>0</asrwt>
<pdfrwt beam="1">  1        2 0.47255854E-02 0.20533790E+03</pdfrwt>
<pdfrwt beam="2">  1       -2 0.52795381E-01 0.20533790E+03</pdfrwt>
<totfact> 0.56958383E+03</totfact>
</mgrwt>
</event>
<event>
 4    1  0.6148427E-004  0.2276338E+03  0.7818608E-02  0.1128316E+00
         -2   -1    0    0    0  501 -0.00000000000E+00  0.00000000000E+00  0.69736279021E+02  0.69736279068E+02  0.25500000000E-02 0.  1.
          2   -1    0    0  501    0  0.00000000000E+00 -0.00000000000E+00 -0.18576102463E+03  0.18576102465E+03  0.25500000000E-02 0. -1.
    5000001    1    1    2    0    0 -0.15001268153E+02  0.81536275801E+02 -0.71853968909E+02  0.13403430593E+03  0.77000000000E+02 0.  0.
   -5000001    1    1    2    0    0  0.15001268153E+02 -0.81536275801E+02 -0.44170776703E+02  0.12146299779E+03  0.77000000000E+02 0.  0.
<mgrwt>
<rscale>  0 0.22763376E+03</rscale>
<asrwt>0</asrwt>
<pdfrwt beam="1">  1        2 0.28578619E-01 0.22763376E+03</pdfrwt>
<pdfrwt beam="2">  1       -2 0.10728658E-01 0.22763376E+03</pdfrwt>
<totfact> 0.10731079E+04</totfact>
</mgrwt>
</event>
<event>
 4    1  0.6148427E-004  0.2749790E+03  0.7818608E-02  0.1098463E+00
          2   -1    0    0  501    0  0.00000000000E+00  0.00000000000E+00  0.70781670569E+03  0.70781670569E+03  0.25500000000E-02 0.  1.
         -2   -1    0    0    0  501 -0.00000000000E+00 -0.00000000000E+00 -0.26706587571E+02  0.26706587693E+02  0.25500000000E-02 0. -1.
    5000001    1    1    2    0    0  0.10760786996E+03 -0.17441548312E+02  0.42877365500E+03  0.44906514952E+03  0.77000000000E+02 0.  0.
   -5000001    1    1    2    0    0 -0.10760786996E+03  0.17441548312E+02  0.25233646311E+03  0.28545814387E+03  0.77000000000E+02 0.  0.
<mgrwt>
<rscale>  0 0.27497905E+03</rscale>
<asrwt>0</asrwt>
<pdfrwt beam="1">  1        2 0.10889485E+00 0.27497905E+03</pdfrwt>
<pdfrwt beam="2">  1       -2 0.41087068E-02 0.27497905E+03</pdfrwt>
<totfact> 0.10875955E+04</totfact>
</mgrwt>
</event>
<event>
 4    1  0.6148427E-004  0.2461240E+03  0.7818608E-02  0.1115779E+00
         -2   -1    0    0    0  501 -0.00000000000E+00  0.00000000000E+00  0.57049150254E+01  0.57049155953E+01  0.25500000000E-02 0. -1.
          2   -1    0    0  501    0  0.00000000000E+00 -0.00000000000E+00 -0.26545981722E+04  0.26545981722E+04  0.25500000000E-02 0.  1.
    5000001    1    1    2    0    0 -0.42636930075E+02 -0.58527500949E+02 -0.20056476219E+04  0.20084309198E+04  0.77000000000E+02 0.  0.
   -5000001    1    1    2    0    0  0.42636930075E+02  0.58527500949E+02 -0.64324563524E+03  0.65187216801E+03  0.77000000000E+02 0.  0.
<mgrwt>
<rscale>  0 0.24612402E+03</rscale>
<asrwt>0</asrwt>
<pdfrwt beam="1">  1        2 0.40839873E+00 0.24612402E+03</pdfrwt>
<pdfrwt beam="2">  1       -2 0.87768140E-03 0.24612402E+03</pdfrwt>
<totfact> 0.84838468E+03</totfact>
</mgrwt>
</event>
<event>
 4    1  0.6148427E-004  0.4200065E+03  0.7818608E-02  0.1037064E+00
         -2   -1    0    0    0  501 -0.00000000000E+00  0.00000000000E+00  0.12967173384E+03  0.12967173387E+03  0.25500000000E-02 0. -1.
          2   -1    0    0  501    0  0.00000000000E+00 -0.00000000000E+00 -0.34010007078E+03  0.34010007079E+03  0.25500000000E-02 0.  1.
    5000001    1    1    2    0    0  0.80922248060E+02 -0.13582771046E+03  0.23167424700E+02  0.17737899179E+03  0.77000000000E+02 0.  0.
   -5000001    1    1    2    0    0 -0.80922248060E+02  0.13582771046E+03 -0.23359576164E+03  0.29239281287E+03  0.77000000000E+02 0.  0.
<mgrwt>
<rscale>  0 0.42000650E+03</rscale>
<asrwt>0</asrwt>
<pdfrwt beam="1">  1        2 0.52323087E-01 0.42000650E+03</pdfrwt>
<pdfrwt beam="2">  1       -2 0.19949498E-01 0.42000650E+03</pdfrwt>
<totfact> 0.20268210E+03</totfact>
</mgrwt>
</event>
<event>
 4    1  0.6148427E-004  0.2979860E+03  0.7818608E-02  0.1086252E+00
          2   -1    0    0  501    0  0.00000000000E+00  0.00000000000E+00  0.42903246760E+03  0.42903246760E+03  0.25500000000E-02 0.  1.
         -2   -1    0    0    0  501 -0.00000000000E+00 -0.00000000000E+00 -0.51741809967E+02  0.51741810030E+02  0.25500000000E-02 0. -1.
    5000001    1    1    2    0    0 -0.94689419344E+02  0.69147437159E+02  0.10761312028E+03  0.17679660024E+03  0.77000000000E+02 0.  0.
   -5000001    1    1    2    0    0  0.94689419344E+02 -0.69147437159E+02  0.26967753735E+03  0.30397767739E+03  0.77000000000E+02 0.  0.
<mgrwt>
<rscale>  0 0.29798602E+03</rscale>
<asrwt>0</asrwt>
<pdfrwt beam="1">  1        2 0.66004995E-01 0.29798602E+03</pdfrwt>
<pdfrwt beam="2">  1       -2 0.79602784E-02 0.29798602E+03</pdfrwt>
<totfact> 0.70248363E+03</totfact>
</mgrwt>
</event>
<event>
 4    1  0.6148427E-004  0.2798121E+03  0.7818608E-02  0.1095792E+00
          2   -1    0    0  501    0  0.00000000000E+00  0.00000000000E+00  0.14216317586E+04  0.14216317586E+04  0.25500000000E-02 0.  1.
         -2   -1    0    0    0  501 -0.00000000000E+00 -0.00000000000E+00 -0.13768471554E+02  0.13768471790E+02  0.25500000000E-02 0. -1.
    5000001    1    1    2    0    0 -0.29765241462E+02 -0.83452993021E+02  0.31344335457E+03  0.33470301488E+03  0.77000000000E+02 0.  0.
   -5000001    1    1    2    0    0  0.29765241462E+02  0.83452993021E+02  0.10944199325E+04  0.11006972155E+04  0.77000000000E+02 0.  0.
<mgrwt>
<rscale>  0 0.27981206E+03</rscale>
<asrwt>0</asrwt>
<pdfrwt beam="1">  1        2 0.21871251E+00 0.27981206E+03</pdfrwt>
<pdfrwt beam="2">  1       -2 0.21182271E-02 0.27981206E+03</pdfrwt>
<totfact> 0.10685386E+04</totfact>
</mgrwt>
</event>
<event>
 4    1  0.6148427E-004  0.2965144E+03  0.7818608E-02  0.1086996E+00
         -2   -1    0    0    0  501 -0.00000000000E+00  0.00000000000E+00  0.21218115716E+03  0.21218115717E+03  0.25500000000E-02 0. -1.
          2   -1    0    0  501    0  0.00000000000E+00 -0.00000000000E+00 -0.10359168938E+03  0.10359168941E+03  0.25500000000E-02 0.  1.
    5000001    1    1    2    0    0 -0.73722072007E+02 -0.51288474512E+01 -0.55296543868E+02  0.12019965366E+03  0.77000000000E+02 0.  0.
   -5000001    1    1    2    0    0  0.73722072007E+02  0.51288474512E+01  0.16388601164E+03  0.19557319292E+03  0.77000000000E+02 0.  0.
<mgrwt>
<rscale>  0 0.29651445E+03</rscale>
<asrwt>0</asrwt>
<pdfrwt beam="1">  1        2 0.15937183E-01 0.29651445E+03</pdfrwt>
<pdfrwt beam="2">  1       -2 0.32643255E-01 0.29651445E+03</pdfrwt>
<totfact> 0.31676939E+03</totfact>
</mgrwt>
</event>
<event>
 4    1  0.6148427E-004  0.2282229E+03  0.7818608E-02  0.1127897E+00
          2   -1    0    0  501    0  0.00000000000E+00  0.00000000000E+00  0.17608976534E+03  0.17608976536E+03  0.25500000000E-02 0.  1.
         -2   -1    0    0    0  501 -0.00000000000E+00 -0.00000000000E+00 -0.73947646357E+02  0.73947646401E+02  0.25500000000E-02 0. -1.
    5000001    1    1    2    0    0  0.80359658569E+02  0.23524120540E+02  0.41188627000E+02  0.12098165963E+03  0.77000000000E+02 0.  0.
   -5000001    1    1    2    0    0 -0.80359658569E+02 -0.23524120540E+02  0.60953491981E+02  0.12905575213E+03  0.77000000000E+02 0.  0.
<mgrwt>
<rscale>  0 0.22822291E+03</rscale>
<asrwt>0</asrwt>
<pdfrwt beam="1">  1        2 0.27090733E-01 0.22822291E+03</pdfrwt>
<pdfrwt beam="2">  1       -2 0.11376561E-01 0.22822291E+03</pdfrwt>
<totfact> 0.10365195E+04</totfact>
</mgrwt>
</event>
<event>
 4    1  0.6148427E-004  0.3949047E+03  0.7818608E-02  0.1045558E+00
          2   -1    0    0  501    0  0.00000000000E+00  0.00000000000E+00  0.28033469227E+03  0.28033469228E+03  0.25500000000E-02 0.  1.
         -2   -1    0    0    0  501 -0.00000000000E+00 -0.00000000000E+00 -0.13907456336E+03  0.13907456338E+03  0.25500000000E-02 0. -1.
    5000001    1    1    2    0    0  0.17558371275E+03 -0.44587207896E+02  0.87109524932E+02  0.21525503159E+03  0.77000000000E+02 0.  0.
   -5000001    1    1    2    0    0 -0.17558371275E+03  0.44587207896E+02  0.54150603982E+02  0.20415422407E+03  0.77000000000E+02 0.  0.
<mgrwt>
<rscale>  0 0.39490467E+03</rscale>
<asrwt>0</asrwt>
<pdfrwt beam="1">  1        2 0.43128414E-01 0.39490467E+03</pdfrwt>
<pdfrwt beam="2">  1       -2 0.21396087E-01 0.39490467E+03</pdfrwt>
<totfact> 0.22149761E+03</totfact>
</mgrwt>
</event>
<event>
 4    1  0.6148427E-004  0.2601226E+03  0.7818608E-02  0.1107070E+00
          2   -1    0    0  501    0  0.00000000000E+00  0.00000000000E+00  0.13314307014E+04  0.13314307014E+04  0.25500000000E-02 0.  1.
         -2   -1    0    0    0  501 -0.00000000000E+00 -0.00000000000E+00 -0.12705083767E+02  0.12705084023E+02  0.25500000000E-02 0. -1.
    5000001    1    1    2    0    0  0.10155613399E+03  0.23358115190E+01  0.79289915494E+03  0.80307980567E+03  0.77000000000E+02 0.  0.
   -5000001    1    1    2    0    0 -0.10155613399E+03 -0.23358115190E+01  0.52582646273E+03  0.54105597979E+03  0.77000000000E+02 0.  0.
<mgrwt>
<rscale>  0 0.26012258E+03</rscale>
<asrwt>0</asrwt>
<pdfrwt beam="1">  1        2 0.20483533E+00 0.26012258E+03</pdfrwt>
<pdfrwt beam="2">  1       -2 0.19546298E-02 0.26012258E+03</pdfrwt>
<totfact> 0.13443235E+04</totfact>
</mgrwt>
</event>
<event>
 4    1  0.6148427E-004  0.2244909E+03  0.7818608E-02  0.1130578E+00
          2   -1    0    0  501    0  0.00000000000E+00  0.00000000000E+00  0.15702632916E+04  0.15702632916E+04  0.25500000000E-02 0.  1.
         -2   -1    0    0    0  501 -0.00000000000E+00 -0.00000000000E+00 -0.80235243200E+01  0.80235247252E+01  0.25500000000E-02 0. -1.
    5000001    1    1    2    0    0  0.55257860582E+02  0.59999536205E+02  0.80982516449E+03  0.81755683139E+03  0.77000000000E+02 0.  0.
   -5000001    1    1    2    0    0 -0.55257860582E+02 -0.59999536205E+02  0.75241460281E+03  0.76072998497E+03  0.77000000000E+02 0.  0.
<mgrwt>
<rscale>  0 0.22449094E+03</rscale>
<asrwt>0</asrwt>
<pdfrwt beam="1">  1        2 0.24157879E+00 0.22449094E+03</pdfrwt>
<pdfrwt beam="2">  1       -2 0.12343893E-02 0.22449094E+03</pdfrwt>
<totfact> 0.19468165E+04</totfact>
</mgrwt>
</event>
<event>
 4    1  0.6148427E-004  0.2587459E+03  0.7818608E-02  0.1107899E+00
          2   -1    0    0  501    0  0.00000000000E+00  0.00000000000E+00  0.11684706197E+04  0.11684706197E+04  0.25500000000E-02 0.  1.
         -2   -1    0    0    0  501 -0.00000000000E+00 -0.00000000000E+00 -0.14324160672E+02  0.14324160899E+02  0.25500000000E-02 0. -1.
    5000001    1    1    2    0    0 -0.12980859578E+02 -0.73761322668E+02  0.90668375081E+03  0.91302445719E+03  0.77000000000E+02 0.  0.
   -5000001    1    1    2    0    0  0.12980859578E+02  0.73761322668E+02  0.24746270821E+03  0.26977032341E+03  0.77000000000E+02 0.  0.
<mgrwt>
<rscale>  0 0.25874591E+03</rscale>
<asrwt>0</asrwt>
<pdfrwt beam="1">  1        2 0.17976478E+00 0.25874591E+03</pdfrwt>
<pdfrwt beam="2">  1       -2 0.22037162E-02 0.25874591E+03</pdfrwt>
<totfact> 0.13900800E+04</totfact>
</mgrwt>
</event>
<event>
 4    1  0.6148427E-004  0.2319772E+03  0.7818608E-02  0.1125256E+00
          2   -1    0    0  501    0  0.00000000000E+00  0.00000000000E+00  0.95503351355E+03  0.95503351355E+03  0.25500000000E-02 0.  1.
         -2   -1    0    0    0  501 -0.00000000000E+00 -0.00000000000E+00 -0.14086788442E+02  0.14086788673E+02  0.25500000000E-02 0. -1.
    5000001    1    1    2    0    0  0.50238594046E+02  0.70565078554E+02  0.45132506218E+03  0.46596851653E+03  0.77000000000E+02 0.  0.
   -5000001    1    1    2    0    0 -0.50238594046E+02 -0.70565078554E+02  0.48962166292E+03  0.50315178569E+03  0.77000000000E+02 0.  0.
<mgrwt>
<rscale>  0 0.23197720E+03</rscale>
<asrwt>0</asrwt>
<pdfrwt beam="1">  1        2 0.14692828E+00 0.23197720E+03</pdfrwt>
<pdfrwt beam="2">  1       -2 0.21671976E-02 0.23197720E+03</pdfrwt>
<totfact> 0.19000705E+04</totfact>
</mgrwt>
</event>
<event>
 4    1  0.6148427E-004  0.5169288E+03  0.7818608E-02  0.1009452E+00
          2   -1    0    0  501    0  0.00000000000E+00  0.00000000000E+00  0.11190218045E+04  0.11190218046E+04  0.25500000000E-02 0.  1.
         -2   -1    0    0    0  501 -0.00000000000E+00 -0.00000000000E+00 -0.59698424854E+02  0.59698424909E+02  0.25500000000E-02 0. -1.
    5000001    1    1    2    0    0 -0.10356102114E+03  0.20162846866E+03  0.30745945007E+03  0.38966554622E+03  0.77000000000E+02 0.  0.
   -5000001    1    1    2    0    0  0.10356102114E+03 -0.20162846866E+03  0.75186392963E+03  0.78905468324E+03  0.77000000000E+02 0.  0.
<mgrwt>
<rscale>  0 0.51692877E+03</rscale>
<asrwt>0</asrwt>
<pdfrwt beam="1">  1        2 0.17215718E+00 0.51692877E+03</pdfrwt>
<pdfrwt beam="2">  1       -2 0.91843739E-02 0.51692877E+03</pdfrwt>
<totfact> 0.16869528E+03</totfact>
</mgrwt>
</event>
<event>
 4    1  0.6148427E-004  0.2738146E+03  0.7818608E-02  0.1099116E+00
          2   -1    0    0  501    0  0.00000000000E+00  0.00000000000E+00  0.24360054044E+04  0.24360054045E+04  0.25500000000E-02 0.  1.
         -2   -1    0    0    0  501 -0.00000000000E+00 -0.00000000000E+00 -0.76944013958E+01  0.76944018183E+01  0.25500000000E-02 0. -1.
    5000001    1    1    2    0    0 -0.80096590550E+02 -0.18227215407E+02  0.51901108386E+03  0.53108304470E+03  0.77000000000E+02 0.  0.
   -5000001    1    1    2    0    0  0.80096590550E+02  0.18227215407E+02  0.19092999192E+04  0.19126167616E+04  0.77000000000E+02 0.  0.
<mgrwt>
<rscale>  0 0.27381456E+03</rscale>
<asrwt>0</asrwt>
<pdfrwt beam="1">  1        2 0.37477015E+00 0.27381456E+03</pdfrwt>
<pdfrwt beam="2">  1       -2 0.11837538E-02 0.27381456E+03</pdfrwt>
<totfact> 0.72492867E+03</totfact>
</mgrwt>
</event>
<event>
 4    1  0.6148427E-004  0.2827900E+03  0.7818608E-02  0.1094175E+00
          2   -1    0    0  501    0  0.00000000000E+00  0.00000000000E+00  0.40973299158E+03  0.40973299159E+03  0.25500000000E-02 0.  1.
         -2   -1    0    0    0  501 -0.00000000000E+00 -0.00000000000E+00 -0.48794091795E+02  0.48794091862E+02  0.25500000000E-02 0. -1.
    5000001    1    1    2    0    0 -0.89798388007E+02  0.57995865931E+02  0.26372180632E+03  0.29479732374E+03  0.77000000000E+02 0.  0.
   -5000001    1    1    2    0    0  0.89798388007E+02 -0.57995865931E+02  0.97217093463E+02  0.16372975971E+03  0.77000000000E+02 0.  0.
<mgrwt>
<rscale>  0 0.28279002E+03</rscale>
<asrwt>0</asrwt>
<pdfrwt beam="1">  1        2 0.63035842E-01 0.28279002E+03</pdfrwt>
<pdfrwt beam="2">  1       -2 0.75067837E-02 0.28279002E+03</pdfrwt>
<totfact> 0.80821024E+03</totfact>
</mgrwt>
</event>
<event>
 4    1  0.6148427E-004  0.2650757E+03  0.7818608E-02  0.1104131E+00
          2   -1    0    0  501    0  0.00000000000E+00  0.00000000000E+00  0.30128092576E+03  0.30128092577E+03  0.25500000000E-02 0.  1.
         -2   -1    0    0    0  501 -0.00000000000E+00 -0.00000000000E+00 -0.58305335702E+02  0.58305335757E+02  0.25500000000E-02 0. -1.
    5000001    1    1    2    0    0 -0.43768600775E+02 -0.91917974327E+02  0.73093638459E+02  0.14709277481E+03  0.77000000000E+02 0.  0.
   -5000001    1    1    2    0    0  0.43768600775E+02  0.91917974327E+02  0.16988195160E+03  0.21249348672E+03  0.77000000000E+02 0.  0.
<mgrwt>
<rscale>  0 0.26507573E+03</rscale>
<asrwt>0</asrwt>
<pdfrwt beam="1">  1        2 0.46350912E-01 0.26507573E+03</pdfrwt>
<pdfrwt beam="2">  1       -2 0.89700517E-02 0.26507573E+03</pdfrwt>
<totfact> 0.85039434E+03</totfact>
</mgrwt>
</event>
<event>
 4    1  0.6148427E-004  0.2079153E+03  0.7818608E-02  0.1143228E+00
         -2   -1    0    0    0  501 -0.00000000000E+00  0.00000000000E+00  0.69804688506E+01  0.69804693164E+01  0.25500000000E-02 0. -1.
          2   -1    0    0  501    0  0.00000000000E+00 -0.00000000000E+00 -0.15482043006E+04  0.15482043006E+04  0.25500000000E-02 0.  1.
    5000001    1    1    2    0    0 -0.62776628419E+02 -0.18238271165E+02 -0.95454020862E+03  0.95986954816E+03  0.77000000000E+02 0.  0.
   -5000001    1    1    2    0    0  0.62776628419E+02  0.18238271165E+02 -0.58668362315E+03  0.59531522178E+03  0.77000000000E+02 0.  0.
<mgrwt>
<rscale>  0 0.20791529E+03</rscale>
<asrwt>0</asrwt>
<pdfrwt beam="1">  1        2 0.23818500E+00 0.20791529E+03</pdfrwt>
<pdfrwt beam="2">  1       -2 0.10739196E-02 0.20791529E+03</pdfrwt>
<totfact> 0.24380284E+04</totfact>
</mgrwt>
</event>
<event>
 4    1  0.6148427E-004  0.1889054E+03  0.7818608E-02  0.1159452E+00
         -2   -1    0    0    0  501 -0.00000000000E+00  0.00000000000E+00  0.24028766566E+02  0.24028766701E+02  0.25500000000E-02 0. -1.
          2   -1    0    0  501    0  0.00000000000E+00 -0.00000000000E+00 -0.37127638968E+03  0.37127638969E+03  0.25500000000E-02 0.  1.
    5000001    1    1    2    0    0 -0.39018082569E+02 -0.10535861663E+02 -0.96483462458E+02  0.12989023703E+03  0.77000000000E+02 0.  0.
   -5000001    1    1    2    0    0  0.39018082569E+02  0.10535861663E+02 -0.25076416066E+03  0.26541491936E+03  0.77000000000E+02 0.  0.
<mgrwt>
<rscale>  0 0.18890541E+03</rscale>
<asrwt>0</asrwt>
<pdfrwt beam="1">  1        2 0.57119441E-01 0.18890541E+03</pdfrwt>
<pdfrwt beam="2">  1       -2 0.36967336E-02 0.18890541E+03</pdfrwt>
<totfact> 0.25796642E+04</totfact>
</mgrwt>
</event>
<event>
 4    1  0.6148427E-004  0.2251138E+03  0.7818608E-02  0.1130127E+00
          2   -1    0    0  501    0  0.00000000000E+00  0.00000000000E+00  0.14129670313E+04  0.14129670313E+04  0.25500000000E-02 0.  1.
         -2   -1    0    0    0  501 -0.00000000000E+00 -0.00000000000E+00 -0.89662766371E+01  0.89662769997E+01  0.25500000000E-02 0. -1.
    5000001    1    1    2    0    0  0.33996348441E+02  0.71823201976E+02  0.57167049172E+03  0.58228040938E+03  0.77000000000E+02 0.  0.
   -5000001    1    1    2    0    0 -0.33996348441E+02 -0.71823201976E+02  0.83233026290E+03  0.83965289887E+03  0.77000000000E+02 0.  0.
<mgrwt>
<rscale>  0 0.22511378E+03</rscale>
<asrwt>0</asrwt>
<pdfrwt beam="1">  1        2 0.21737971E+00 0.22511378E+03</pdfrwt>
<pdfrwt beam="2">  1       -2 0.13794262E-02 0.22511378E+03</pdfrwt>
<totfact> 0.20092579E+04</totfact>
</mgrwt>
</event>
<event>
 4    1  0.6148427E-004  0.1992667E+03  0.7818608E-02  0.1150359E+00
         -2   -1    0    0    0  501 -0.00000000000E+00  0.00000000000E+00  0.95829663104E+01  0.95829666497E+01  0.25500000000E-02 0. -1.
          2   -1    0    0  501    0  0.00000000000E+00 -0.00000000000E+00 -0.10358803512E+04  0.10358803512E+04  0.25500000000E-02 0.  1.
    5000001    1    1    2    0    0 -0.56856933252E+02  0.12645607826E+02 -0.64221648854E+03  0.64943332253E+03  0.77000000000E+02 0.  0.
   -5000001    1    1    2    0    0  0.56856933252E+02 -0.12645607826E+02 -0.38408089632E+03  0.39602999529E+03  0.77000000000E+02 0.  0.
<mgrwt>
<rscale>  0 0.19926672E+03</rscale>
<asrwt>0</asrwt>
<pdfrwt beam="1">  1        2 0.15936612E+00 0.19926672E+03</pdfrwt>
<pdfrwt beam="2">  1       -2 0.14743034E-02 0.19926672E+03</pdfrwt>
<totfact> 0.29515278E+04</totfact>
</mgrwt>
</event>
<event>
 4    1  0.6148427E-004  0.1860420E+03  0.7818608E-02  0.1162080E+00
         -2   -1    0    0    0  501 -0.00000000000E+00  0.00000000000E+00  0.42034549937E+01  0.42034557671E+01  0.25500000000E-02 0. -1.
          2   -1    0    0  501    0  0.00000000000E+00 -0.00000000000E+00 -0.20585228240E+04  0.20585228240E+04  0.25500000000E-02 0.  1.
    5000001    1    1    2    0    0  0.49738841916E+02 -0.11979532388E+02 -0.11415522417E+04  0.11452894753E+04  0.77000000000E+02 0.  0.
   -5000001    1    1    2    0    0 -0.49738841916E+02  0.11979532388E+02 -0.91276712725E+03  0.91743680446E+03  0.77000000000E+02 0.  0.
<mgrwt>
<rscale>  0 0.18604203E+03</rscale>
<asrwt>0</asrwt>
<pdfrwt beam="1">  1        2 0.31669501E+00 0.18604203E+03</pdfrwt>
<pdfrwt beam="2">  1       -2 0.64668709E-03 0.18604203E+03</pdfrwt>
<totfact> 0.27290387E+04</totfact>
</mgrwt>
</event>
<event>
 4    1  0.6148427E-004  0.2177663E+03  0.7818608E-02  0.1135559E+00
          2   -1    0    0  501    0  0.00000000000E+00  0.00000000000E+00  0.17731285056E+03  0.17731285058E+03  0.25500000000E-02 0.  1.
         -2   -1    0    0    0  501 -0.00000000000E+00 -0.00000000000E+00 -0.66862256280E+02  0.66862256328E+02  0.25500000000E-02 0. -1.
    5000001    1    1    2    0    0  0.40897677107E+02  0.62124490926E+02  0.32955567092E+02  0.11201402487E+03  0.77000000000E+02 0.  0.
   -5000001    1    1    2    0    0 -0.40897677107E+02 -0.62124490926E+02  0.77495027187E+02  0.13216108203E+03  0.77000000000E+02 0.  0.
<mgrwt>
<rscale>  0 0.21776627E+03</rscale>
<asrwt>0</asrwt>
<pdfrwt beam="1">  1        2 0.27278900E-01 0.21776627E+03</pdfrwt>
<pdfrwt beam="2">  1       -2 0.10286501E-01 0.21776627E+03</pdfrwt>
<totfact> 0.12045379E+04</totfact>
</mgrwt>
</event>
<event>
 4    1  0.6148427E-004  0.1788436E+03  0.7818608E-02  0.1168927E+00
         -2   -1    0    0    0  501 -0.00000000000E+00  0.00000000000E+00  0.73850799947E+01  0.73850804350E+01  0.25500000000E-02 0. -1.
          2   -1    0    0  501    0  0.00000000000E+00 -0.00000000000E+00 -0.10827584691E+04  0.10827584691E+04  0.25500000000E-02 0.  1.
    5000001    1    1    2    0    0  0.13638494641E+02 -0.39364343222E+02 -0.42667166449E+03  0.43556086754E+03  0.77000000000E+02 0.  0.
   -5000001    1    1    2    0    0 -0.13638494641E+02  0.39364343222E+02 -0.64870172465E+03  0.65458268203E+03  0.77000000000E+02 0.  0.
<mgrwt>
<rscale>  0 0.17884360E+03</rscale>
<asrwt>0</asrwt>
<pdfrwt beam="1">  1        2 0.16657810E+00 0.17884360E+03</pdfrwt>
<pdfrwt beam="2">  1       -2 0.11361670E-02 0.17884360E+03</pdfrwt>
<totfact> 0.40066921E+04</totfact>
</mgrwt>
</event>
<event>
 4    1  0.6148427E-004  0.3918453E+03  0.7818608E-02  0.1046641E+00
          2   -1    0    0  501    0  0.00000000000E+00  0.00000000000E+00  0.37676770835E+04  0.37676770835E+04  0.25500000000E-02 0.  1.
         -2   -1    0    0    0  501 -0.00000000000E+00 -0.00000000000E+00 -0.10188154600E+02  0.10188154919E+02  0.25500000000E-02 0. -1.
    5000001    1    1    2    0    0  0.46788918209E+02  0.79038646448E+02  0.38449991777E+03  0.40274743607E+03  0.77000000000E+02 0.  0.
   -5000001    1    1    2    0    0 -0.46788918209E+02 -0.79038646448E+02  0.33729890111E+04  0.33751178023E+04  0.77000000000E+02 0.  0.
<mgrwt>
<rscale>  0 0.39184526E+03</rscale>
<asrwt>0</asrwt>
<pdfrwt beam="1">  1        2 0.57964209E+00 0.39184526E+03</pdfrwt>
<pdfrwt beam="2">  1       -2 0.15674099E-02 0.39184526E+03</pdfrwt>
<totfact> 0.71661219E+02</totfact>
</mgrwt>
</event>
<event>
 4    1  0.6148427E-004  0.2030456E+03  0.7818608E-02  0.1147195E+00
          2   -1    0    0  501    0  0.00000000000E+00  0.00000000000E+00  0.34309477229E+04  0.34309477229E+04  0.25500000000E-02 0.  1.
         -2   -1    0    0    0  501 -0.00000000000E+00 -0.00000000000E+00 -0.30040901047E+01  0.30040911870E+01  0.25500000000E-02 0. -1.
    5000001    1    1    2    0    0 -0.36301665171E+02  0.48596850743E+02  0.21609196573E+04  0.21631417498E+04  0.77000000000E+02 0.  0.
   -5000001    1    1    2    0    0  0.36301665171E+02 -0.48596850743E+02  0.12670239756E+04  0.12708100643E+04  0.77000000000E+02 0.  0.
<mgrwt>
<rscale>  0 0.20304559E+03</rscale>
<asrwt>0</asrwt>
<pdfrwt beam="1">  1        2 0.52783767E+00 0.20304559E+03</pdfrwt>
<pdfrwt beam="2">  1       -2 0.46216818E-03 0.20304559E+03</pdfrwt>
<totfact> 0.73497994E+03</totfact>
</mgrwt>
</event>
<event>
 4    1  0.6148427E-004  0.2061691E+03  0.7818608E-02  0.1144636E+00
          2   -1    0    0  501    0  0.00000000000E+00  0.00000000000E+00  0.11551147772E+04  0.11551147772E+04  0.25500000000E-02 0.  1.
         -2   -1    0    0    0  501 -0.00000000000E+00 -0.00000000000E+00 -0.91994547692E+01  0.91994551226E+01  0.25500000000E-02 0. -1.
    5000001    1    1    2    0    0 -0.56015639512E+02  0.74610665302E+01  0.35394384299E+03  0.36660423262E+03  0.77000000000E+02 0.  0.
   -5000001    1    1    2    0    0  0.56015639512E+02 -0.74610665302E+01  0.79197147944E+03  0.79770999970E+03  0.77000000000E+02 0.  0.
<mgrwt>
<rscale>  0 0.20616912E+03</rscale>
<asrwt>0</asrwt>
<pdfrwt beam="1">  1        2 0.17771005E+00 0.20616912E+03</pdfrwt>
<pdfrwt beam="2">  1       -2 0.14153001E-02 0.20616912E+03</pdfrwt>
<totfact> 0.26745506E+04</totfact>
</mgrwt>
</event>
<event>
 4    1  0.6148427E-004  0.2438480E+03  0.7818608E-02  0.1117256E+00
          2   -1    0    0  501    0  0.00000000000E+00  0.00000000000E+00  0.12090294690E+04  0.12090294690E+04  0.25500000000E-02 0.  1.
         -2   -1    0    0    0  501 -0.00000000000E+00 -0.00000000000E+00 -0.12295368857E+02  0.12295369121E+02  0.25500000000E-02 0. -1.
    5000001    1    1    2    0    0  0.82998061248E+02 -0.41058844093E+02  0.69365548923E+03  0.70403227525E+03  0.77000000000E+02 0.  0.
   -5000001    1    1    2    0    0 -0.82998061248E+02  0.41058844093E+02  0.50307861088E+03  0.51729256285E+03  0.77000000000E+02 0.  0.
<mgrwt>
<rscale>  0 0.24384801E+03</rscale>
<asrwt>0</asrwt>
<pdfrwt beam="1">  1        2 0.18600458E+00 0.24384801E+03</pdfrwt>
<pdfrwt beam="2">  1       -2 0.18915948E-02 0.24384801E+03</pdfrwt>
<totfact> 0.16462548E+04</totfact>
</mgrwt>
</event>
<event>
 4    1  0.6148427E-004  0.2056299E+03  0.7818608E-02  0.1145074E+00
          2   -1    0    0  501    0  0.00000000000E+00  0.00000000000E+00  0.27996597150E+04  0.27996597150E+04  0.25500000000E-02 0.  1.
         -2   -1    0    0    0  501 -0.00000000000E+00 -0.00000000000E+00 -0.37757862241E+01  0.37757870852E+01  0.25500000000E-02 0. -1.
    5000001    1    1    2    0    0  0.12279270415E+01 -0.33098758496E+02  0.58622405581E+03  0.59218635515E+03  0.77000000000E+02 0.  0.
   -5000001    1    1    2    0    0 -0.12279270415E+01  0.33098758496E+02  0.22096598730E+04  0.22112491470E+04  0.77000000000E+02 0.  0.
<mgrwt>
<rscale>  0 0.20562994E+03</rscale>
<asrwt>0</asrwt>
<pdfrwt beam="1">  1        2 0.43071641E+00 0.20562994E+03</pdfrwt>
<pdfrwt beam="2">  1       -2 0.58089088E-03 0.20562994E+03</pdfrwt>
<totfact> 0.12720652E+04</totfact>
</mgrwt>
</event>
<event>
 4    1  0.6148427E-004  0.3691576E+03  0.7818608E-02  0.1055016E+00
         -2   -1    0    0    0  501 -0.00000000000E+00  0.00000000000E+00  0.51871029718E+02  0.51871029781E+02  0.25500000000E-02 0. -1.
          2   -1    0    0  501    0  0.00000000000E+00 -0.00000000000E+00 -0.65680852676E+03  0.65680852676E+03  0.25500000000E-02 0.  1.
    5000001    1    1    2    0    0 -0.97820548327E+02 -0.10412504004E+03 -0.13369208114E+03  0.21026996028E+03  0.77000000000E+02 0.  0.
   -5000001    1    1    2    0    0  0.97820548327E+02  0.10412504004E+03 -0.47124541590E+03  0.49840959626E+03  0.77000000000E+02 0.  0.
<mgrwt>
<rscale>  0 0.36915761E+03</rscale>
<asrwt>0</asrwt>
<pdfrwt beam="1">  1        2 0.10104746E+00 0.36915761E+03</pdfrwt>
<pdfrwt beam="2">  1       -2 0.79801589E-02 0.36915761E+03</pdfrwt>
<totfact> 0.43224908E+03</totfact>
</mgrwt>
</event>
<event>
 4    1  0.6148427E-004  0.3975737E+03  0.7818608E-02  0.1044623E+00
          2   -1    0    0  501    0  0.00000000000E+00  0.00000000000E+00  0.13229166481E+04  0.13229166481E+04  0.25500000000E-02 0.  1.
         -2   -1    0    0    0  501 -0.00000000000E+00 -0.00000000000E+00 -0.29870516717E+02  0.29870516826E+02  0.25500000000E-02 0. -1.
    5000001    1    1    2    0    0 -0.12799392417E+03 -0.30638763002E+02  0.21256017455E+03  0.26159511889E+03  0.77000000000E+02 0.  0.
   -5000001    1    1    2    0    0  0.12799392417E+03  0.30638763002E+02  0.10804859568E+04  0.10911920460E+04  0.77000000000E+02 0.  0.
<mgrwt>
<rscale>  0 0.39757366E+03</rscale>
<asrwt>0</asrwt>
<pdfrwt beam="1">  1        2 0.20352565E+00 0.39757366E+03</pdfrwt>
<pdfrwt beam="2">  1       -2 0.45954638E-02 0.39757366E+03</pdfrwt>
<totfact> 0.38041972E+03</totfact>
</mgrwt>
</event>
<event>
 4    1  0.6148427E-004  0.2478526E+03  0.7818608E-02  0.1114669E+00
          2   -1    0    0  501    0  0.00000000000E+00  0.00000000000E+00  0.16805768628E+04  0.16805768628E+04  0.25500000000E-02 0.  1.
         -2   -1    0    0    0  501 -0.00000000000E+00 -0.00000000000E+00 -0.91383659256E+01  0.91383662813E+01  0.25500000000E-02 0. -1.
    5000001    1    1    2    0    0  0.80911611610E+02  0.51818943655E+02  0.74007232036E+03  0.75024524735E+03  0.77000000000E+02 0.  0.
   -5000001    1    1    2    0    0 -0.80911611610E+02 -0.51818943655E+02  0.93136617654E+03  0.93946998176E+03  0.77000000000E+02 0.  0.
<mgrwt>
<rscale>  0 0.24785259E+03</rscale>
<asrwt>0</asrwt>
<pdfrwt beam="1">  1        2 0.25855038E+00 0.24785259E+03</pdfrwt>
<pdfrwt beam="2">  1       -2 0.14059020E-02 0.24785259E+03</pdfrwt>
<totfact> 0.14144454E+04</totfact>
</mgrwt>
</event>
<event>
 4    1  0.6148427E-004  0.5443538E+03  0.7818608E-02  0.1002809E+00
         -2   -1    0    0    0  501 -0.00000000000E+00  0.00000000000E+00  0.32375453037E+02  0.32375453138E+02  0.25500000000E-02 0. -1.
          2   -1    0    0  501    0  0.00000000000E+00 -0.00000000000E+00 -0.22881615851E+04  0.22881615851E+04  0.25500000000E-02 0.  1.
    5000001    1    1    2    0    0 -0.21030742755E+03 -0.15216600859E+03 -0.12459967238E+04  0.12750766816E+04  0.77000000000E+02 0.  0.
   -5000001    1    1    2    0    0  0.21030742755E+03  0.15216600859E+03 -0.10097894082E+04  0.10454603566E+04  0.77000000000E+02 0.  0.
<mgrwt>
<rscale>  0 0.54435381E+03</rscale>
<asrwt>0</asrwt>
<pdfrwt beam="1">  1        2 0.35202473E+00 0.54435381E+03</pdfrwt>
<pdfrwt beam="2">  1       -2 0.49808407E-02 0.54435381E+03</pdfrwt>
<totfact> 0.10007416E+03</totfact>
</mgrwt>
</event>
<event>
 4    1  0.6148427E-004  0.3032651E+03  0.7818608E-02  0.1083620E+00
         -2   -1    0    0    0  501 -0.00000000000E+00  0.00000000000E+00  0.59627030779E+02  0.59627030834E+02  0.25500000000E-02 0. -1.
          2   -1    0    0  501    0  0.00000000000E+00 -0.00000000000E+00 -0.38560404974E+03  0.38560404975E+03  0.25500000000E-02 0.  1.
    5000001    1    1    2    0    0  0.78141122996E+01 -0.13037407515E+03 -0.15971727963E+03  0.22022050139E+03  0.77000000000E+02 0.  0.
   -5000001    1    1    2    0    0 -0.78141122996E+01  0.13037407515E+03 -0.16625973933E+03  0.22501057919E+03  0.77000000000E+02 0.  0.
<mgrwt>
<rscale>  0 0.30326506E+03</rscale>
<asrwt>0</asrwt>
<pdfrwt beam="1">  1        2 0.59323698E-01 0.30326506E+03</pdfrwt>
<pdfrwt beam="2">  1       -2 0.91733896E-02 0.30326506E+03</pdfrwt>
<totfact> 0.63179795E+03</totfact>
</mgrwt>
</event>
<event>
 4    1  0.6148427E-004  0.4305105E+03  0.7818608E-02  0.1033699E+00
         -2   -1    0    0    0  501 -0.00000000000E+00  0.00000000000E+00  0.49162508786E+03  0.49162508786E+03  0.25500000000E-02 0. -1.
          2   -1    0    0  501    0  0.00000000000E+00 -0.00000000000E+00 -0.94248307969E+02  0.94248308004E+02  0.25500000000E-02 0.  1.
    5000001    1    1    2    0    0  0.84877332134E+02  0.16198046447E+03  0.31225466291E+03  0.36996460221E+03  0.77000000000E+02 0.  0.
   -5000001    1    1    2    0    0 -0.84877332134E+02 -0.16198046447E+03  0.85122116980E+02  0.21590879366E+03  0.77000000000E+02 0.  0.
<mgrwt>
<rscale>  0 0.43051055E+03</rscale>
<asrwt>0</asrwt>
<pdfrwt beam="1">  1        2 0.14499739E-01 0.43051055E+03</pdfrwt>
<pdfrwt beam="2">  1       -2 0.75634630E-01 0.43051055E+03</pdfrwt>
<totfact> 0.65857815E+02</totfact>
</mgrwt>
</event>
<event>
 4    1  0.6148427E-004  0.2954779E+03  0.7818608E-02  0.1087523E+00
          2   -1    0    0  501    0  0.00000000000E+00  0.00000000000E+00  0.17492925765E+04  0.17492925765E+04  0.25500000000E-02 0.  1.
         -2   -1    0    0    0  501 -0.00000000000E+00 -0.00000000000E+00 -0.12477496654E+02  0.12477496914E+02  0.25500000000E-02 0. -1.
    5000001    1    1    2    0    0 -0.10375048576E+03  0.54840991474E+02  0.11433333996E+04  0.11519166464E+04  0.77000000000E+02 0.  0.
   -5000001    1    1    2    0    0  0.10375048576E+03 -0.54840991474E+02  0.59348168026E+03  0.60985342702E+03  0.77000000000E+02 0.  0.
<mgrwt>
<rscale>  0 0.29547787E+03</rscale>
<asrwt>0</asrwt>
<pdfrwt beam="1">  1        2 0.26912196E+00 0.29547787E+03</pdfrwt>
<pdfrwt beam="2">  1       -2 0.19196147E-02 0.29547787E+03</pdfrwt>
<totfact> 0.82734708E+03</totfact>
</mgrwt>
</event>
<event>
 4    1  0.6148427E-004  0.1820519E+03  0.7818608E-02  0.1165832E+00
          2   -1    0    0  501    0  0.00000000000E+00  0.00000000000E+00  0.42099044063E+03  0.42099044063E+03  0.25500000000E-02 0.  1.
         -2   -1    0    0    0  501 -0.00000000000E+00 -0.00000000000E+00 -0.19681504182E+02  0.19681504347E+02  0.25500000000E-02 0. -1.
    5000001    1    1    2    0    0  0.23015622859E+02 -0.42494341079E+02  0.18949947924E+03  0.21017740258E+03  0.77000000000E+02 0.  0.
   -5000001    1    1    2    0    0 -0.23015622859E+02  0.42494341079E+02  0.21180945720E+03  0.23049454240E+03  0.77000000000E+02 0.  0.
<mgrwt>
<rscale>  0 0.18205192E+03</rscale>
<asrwt>0</asrwt>
<pdfrwt beam="1">  1        2 0.64767759E-01 0.18205192E+03</pdfrwt>
<pdfrwt beam="2">  1       -2 0.30279238E-02 0.18205192E+03</pdfrwt>
<totfact> 0.30205560E+04</totfact>
</mgrwt>
</event>
<event>
 4    1  0.6148427E-004  0.3102149E+03  0.7818608E-02  0.1080243E+00
         -2   -1    0    0    0  501 -0.00000000000E+00  0.00000000000E+00  0.16221849353E+03  0.16221849355E+03  0.25500000000E-02 0.  1.
          2   -1    0    0  501    0  0.00000000000E+00 -0.00000000000E+00 -0.14830808214E+03  0.14830808217E+03  0.25500000000E-02 0. -1.
    5000001    1    1    2    0    0  0.12841190694E+03 -0.40490438618E+02  0.64854739145E+01  0.15524224566E+03  0.77000000000E+02 0.  0.
   -5000001    1    1    2    0    0 -0.12841190694E+03  0.40490438618E+02  0.74249374673E+01  0.15528433006E+03  0.77000000000E+02 0.  0.
<mgrwt>
<rscale>  0 0.31021485E+03</rscale>
<asrwt>0</asrwt>
<pdfrwt beam="1">  1        2 0.22816628E-01 0.31021485E+03</pdfrwt>
<pdfrwt beam="2">  1       -2 0.24956692E-01 0.31021485E+03</pdfrwt>
<totfact> 0.34022484E+03</totfact>
</mgrwt>
</event>
<event>
 4    1  0.6148427E-004  0.2827560E+03  0.7818608E-02  0.1094193E+00
          2   -1    0    0  501    0  0.00000000000E+00  0.00000000000E+00  0.18378319485E+03  0.18378319486E+03  0.25500000000E-02 0.  1.
         -2   -1    0    0    0  501 -0.00000000000E+00 -0.00000000000E+00 -0.10875714428E+03  0.10875714431E+03  0.25500000000E-02 0. -1.
    5000001    1    1    2    0    0  0.74150815347E+02 -0.64920896293E+02  0.10571584079E+03  0.16376173297E+03  0.77000000000E+02 0.  0.
   -5000001    1    1    2    0    0 -0.74150815347E+02  0.64920896293E+02 -0.30689790224E+02  0.12877860621E+03  0.77000000000E+02 0.  0.
<mgrwt>
<rscale>  0 0.28275598E+03</rscale>
<asrwt>0</asrwt>
<pdfrwt beam="1">  1        2 0.28274338E-01 0.28275598E+03</pdfrwt>
<pdfrwt beam="2">  1       -2 0.16731868E-01 0.28275598E+03</pdfrwt>
<totfact> 0.53088833E+03</totfact>
</mgrwt>
</event>
<event>
 4    1  0.6148427E-004  0.2065448E+03  0.7818608E-02  0.1144332E+00
         -2   -1    0    0    0  501 -0.00000000000E+00  0.00000000000E+00  0.60789118823E+02  0.60789118877E+02  0.25500000000E-02 0. -1.
          2   -1    0    0  501    0  0.00000000000E+00 -0.00000000000E+00 -0.17544576949E+03  0.17544576951E+03  0.25500000000E-02 0.  1.
    5000001    1    1    2    0    0  0.32614764003E+02 -0.53006356024E+02 -0.90924049883E+02  0.13442313587E+03  0.77000000000E+02 0.  0.
   -5000001    1    1    2    0    0 -0.32614764003E+02  0.53006356024E+02 -0.23732600782E+02  0.10181175251E+03  0.77000000000E+02 0.  0.
<mgrwt>
<rscale>  0 0.20654485E+03</rscale>
<asrwt>0</asrwt>
<pdfrwt beam="1">  1        2 0.26991657E-01 0.20654485E+03</pdfrwt>
<pdfrwt beam="2">  1       -2 0.93521722E-02 0.20654485E+03</pdfrwt>
<totfact> 0.14118585E+04</totfact>
</mgrwt>
</event>
<event>
 4    1  0.6148427E-004  0.2141788E+03  0.7818608E-02  0.1138299E+00
         -2   -1    0    0    0  501 -0.00000000000E+00  0.00000000000E+00  0.20190815157E+02  0.20190815318E+02  0.25500000000E-02 0. -1.
          2   -1    0    0  501    0  0.00000000000E+00 -0.00000000000E+00 -0.56798810342E+03  0.56798810342E+03  0.25500000000E-02 0.  1.
    5000001    1    1    2    0    0  0.54269788340E+02 -0.50337144306E+02 -0.29518922983E+03  0.31391833243E+03  0.77000000000E+02 0.  0.
   -5000001    1    1    2    0    0 -0.54269788340E+02  0.50337144306E+02 -0.25260805843E+03  0.27426058631E+03  0.77000000000E+02 0.  0.
<mgrwt>
<rscale>  0 0.21417883E+03</rscale>
<asrwt>0</asrwt>
<pdfrwt beam="1">  1        2 0.87382773E-01 0.21417883E+03</pdfrwt>
<pdfrwt beam="2">  1       -2 0.31062797E-02 0.21417883E+03</pdfrwt>
<totfact> 0.21130767E+04</totfact>
</mgrwt>
</event>
<event>
 4    1  0.6148427E-004  0.2143863E+03  0.7818608E-02  0.1138139E+00
         -2   -1    0    0    0  501 -0.00000000000E+00  0.00000000000E+00  0.41899928445E+01  0.41899936205E+01  0.25500000000E-02 0. -1.
          2   -1    0    0  501    0  0.00000000000E+00 -0.00000000000E+00 -0.27423373756E+04  0.27423373756E+04  0.25500000000E-02 0.  1.
    5000001    1    1    2    0    0 -0.59098732256E+02  0.42720078460E+01 -0.19491872244E+04  0.19516072212E+04  0.77000000000E+02 0.  0.
   -5000001    1    1    2    0    0  0.59098732256E+02 -0.42720078460E+01 -0.78896015832E+03  0.79492014795E+03  0.77000000000E+02 0.  0.
<mgrwt>
<rscale>  0 0.21438633E+03</rscale>
<asrwt>0</asrwt>
<pdfrwt beam="1">  1        2 0.42189662E+00 0.21438633E+03</pdfrwt>
<pdfrwt beam="2">  1       -2 0.64461653E-03 0.21438633E+03</pdfrwt>
<totfact> 0.11810220E+04</totfact>
</mgrwt>
</event>
<event>
 4    1  0.6148427E-004  0.2131125E+03  0.7818608E-02  0.1139125E+00
          2   -1    0    0  501    0  0.00000000000E+00  0.00000000000E+00  0.36622592453E+03  0.36622592453E+03  0.25500000000E-02 0.  1.
         -2   -1    0    0    0  501 -0.00000000000E+00 -0.00000000000E+00 -0.31003371218E+02  0.31003371323E+02  0.25500000000E-02 0. -1.
    5000001    1    1    2    0    0 -0.41369494405E+02  0.58511049640E+02  0.19936729922E+03  0.22541361537E+03  0.77000000000E+02 0.  0.
   -5000001    1    1    2    0    0  0.41369494405E+02 -0.58511049640E+02  0.13585525409E+03  0.17181568049E+03  0.77000000000E+02 0.  0.
<mgrwt>
<rscale>  0 0.21311254E+03</rscale>
<asrwt>0</asrwt>
<pdfrwt beam="1">  1        2 0.56342448E-01 0.21311254E+03</pdfrwt>
<pdfrwt beam="2">  1       -2 0.47697496E-02 0.21311254E+03</pdfrwt>
<totfact> 0.18021608E+04</totfact>
</mgrwt>
</event>
<event>
 4    1  0.6148427E-004  0.2562947E+03  0.7818608E-02  0.1109390E+00
         -2   -1    0    0    0  501 -0.00000000000E+00  0.00000000000E+00  0.28597376436E+02  0.28597376549E+02  0.25500000000E-02 0. -1.
          2   -1    0    0  501    0  0.00000000000E+00 -0.00000000000E+00 -0.57423932248E+03  0.57423932249E+03  0.25500000000E-02 0.  1.
    5000001    1    1    2    0    0 -0.66699096814E+02 -0.56181915928E+02 -0.14642719261E+03  0.18701630925E+03  0.77000000000E+02 0.  0.
   -5000001    1    1    2    0    0  0.66699096814E+02  0.56181915928E+02 -0.39921475344E+03  0.41582038978E+03  0.77000000000E+02 0.  0.
<mgrwt>
<rscale>  0 0.25629466E+03</rscale>
<asrwt>0</asrwt>
<pdfrwt beam="1">  1        2 0.88344502E-01 0.25629466E+03</pdfrwt>
<pdfrwt beam="2">  1       -2 0.43995968E-02 0.25629466E+03</pdfrwt>
<totfact> 0.12521085E+04</totfact>
</mgrwt>
</event>
<event>
 4    1  0.6148427E-004  0.3171342E+03  0.7818608E-02  0.1076976E+00
         -2   -1    0    0    0  501 -0.00000000000E+00  0.00000000000E+00  0.12995780632E+02  0.12995780882E+02  0.25500000000E-02 0. -1.
          2   -1    0    0  501    0  0.00000000000E+00 -0.00000000000E+00 -0.19347450237E+04  0.19347450237E+04  0.25500000000E-02 0.  1.
    5000001    1    1    2    0    0 -0.52638652210E+02  0.11612149595E+03 -0.62675903137E+03  0.64421340636E+03  0.77000000000E+02 0.  0.
   -5000001    1    1    2    0    0  0.52638652210E+02 -0.11612149595E+03 -0.12949902117E+04  0.13035273982E+04  0.77000000000E+02 0.  0.
<mgrwt>
<rscale>  0 0.31713418E+03</rscale>
<asrwt>0</asrwt>
<pdfrwt beam="1">  1        2 0.29765285E+00 0.31713418E+03</pdfrwt>
<pdfrwt beam="2">  1       -2 0.19993524E-02 0.31713418E+03</pdfrwt>
<totfact> 0.62229323E+03</totfact>
</mgrwt>
</event>
<event>
 4    1  0.6148427E-004  0.1996140E+03  0.7818608E-02  0.1150065E+00
          2   -1    0    0  501    0  0.00000000000E+00  0.00000000000E+00  0.95724640674E+03  0.95724640674E+03  0.25500000000E-02 0.  1.
         -2   -1    0    0    0  501 -0.00000000000E+00 -0.00000000000E+00 -0.10406343122E+02  0.10406343434E+02  0.25500000000E-02 0. -1.
    5000001    1    1    2    0    0  0.60066163374E+02 -0.18511479544E+02  0.42957227980E+03  0.44092171916E+03  0.77000000000E+02 0.  0.
   -5000001    1    1    2    0    0 -0.60066163374E+02  0.18511479544E+02  0.51726778382E+03  0.52673103101E+03  0.77000000000E+02 0.  0.
<mgrwt>
<rscale>  0 0.19961397E+03</rscale>
<asrwt>0</asrwt>
<pdfrwt beam="1">  1        2 0.14726871E+00 0.19961397E+03</pdfrwt>
<pdfrwt beam="2">  1       -2 0.16009755E-02 0.19961397E+03</pdfrwt>
<totfact> 0.29229358E+04</totfact>
</mgrwt>
</event>
<event>
 4    1  0.6148427E-004  0.2004218E+03  0.7818608E-02  0.1149384E+00
          2   -1    0    0  501    0  0.00000000000E+00  0.00000000000E+00  0.21557444486E+04  0.21557444486E+04  0.25500000000E-02 0.  1.
         -2   -1    0    0    0  501 -0.00000000000E+00 -0.00000000000E+00 -0.46583569583E+01  0.46583576562E+01  0.25500000000E-02 0. -1.
    5000001    1    1    2    0    0  0.95743688501E+01 -0.35204714523E+02  0.16441116747E+04  0.16463180857E+04  0.77000000000E+02 0.  0.
   -5000001    1    1    2    0    0 -0.95743688501E+01  0.35204714523E+02  0.50697441695E+03  0.51408472056E+03  0.77000000000E+02 0.  0.
<mgrwt>
<rscale>  0 0.20042183E+03</rscale>
<asrwt>0</asrwt>
<pdfrwt beam="1">  1        2 0.33165282E+00 0.20042183E+03</pdfrwt>
<pdfrwt beam="2">  1       -2 0.71667072E-03 0.20042183E+03</pdfrwt>
<totfact> 0.21019660E+04</totfact>
</mgrwt>
</event>
<event>
 4    1  0.6148427E-004  0.2305809E+03  0.7818608E-02  0.1126232E+00
          2   -1    0    0  501    0  0.00000000000E+00  0.00000000000E+00  0.11988281096E+04  0.11988281096E+04  0.25500000000E-02 0.  1.
         -2   -1    0    0    0  501 -0.00000000000E+00 -0.00000000000E+00 -0.11087405452E+02  0.11087405746E+02  0.25500000000E-02 0. -1.
    5000001    1    1    2    0    0 -0.19883024347E+02  0.56087320325E+02  0.91825774960E+03  0.92339992249E+03  0.77000000000E+02 0.  0.
   -5000001    1    1    2    0    0  0.19883024347E+02 -0.56087320325E+02  0.26948295456E+03  0.28651559287E+03  0.77000000000E+02 0.  0.
<mgrwt>
<rscale>  0 0.23058095E+03</rscale>
<asrwt>0</asrwt>
<pdfrwt beam="1">  1        2 0.18443506E+00 0.23058095E+03</pdfrwt>
<pdfrwt beam="2">  1       -2 0.17057550E-02 0.23058095E+03</pdfrwt>
<totfact> 0.19361429E+04</totfact>
</mgrwt>
</event>
<event>
 4    1  0.6148427E-004  0.3788827E+03  0.7818608E-02  0.1051347E+00
          2   -1    0    0  501    0  0.00000000000E+00  0.00000000000E+00  0.21836333454E+03  0.21836333455E+03  0.25500000000E-02 0.  1.
         -2   -1    0    0    0  501 -0.00000000000E+00 -0.00000000000E+00 -0.16435008408E+03  0.16435008410E+03  0.25500000000E-02 0. -1.
    5000001    1    1    2    0    0  0.15740974247E+03  0.31173527863E+02  0.92542608714E+02  0.20060595776E+03  0.77000000000E+02 0.  0.
   -5000001    1    1    2    0    0 -0.15740974247E+03 -0.31173527863E+02 -0.38529358255E+02  0.18210746089E+03  0.77000000000E+02 0.  0.
<mgrwt>
<rscale>  0 0.37888274E+03</rscale>
<asrwt>0</asrwt>
<pdfrwt beam="1">  1        2 0.33594359E-01 0.37888274E+03</pdfrwt>
<pdfrwt beam="2">  1       -2 0.25284628E-01 0.37888274E+03</pdfrwt>
<totfact> 0.21683958E+03</totfact>
</mgrwt>
</event>
<event>
 4    1  0.6148427E-004  0.4054599E+03  0.7818608E-02  0.1041905E+00
          2   -1    0    0  501    0  0.00000000000E+00  0.00000000000E+00  0.15977022293E+04  0.15977022293E+04  0.25500000000E-02 0.  1.
         -2   -1    0    0    0  501 -0.00000000000E+00 -0.00000000000E+00 -0.25724084963E+02  0.25724085089E+02  0.25500000000E-02 0. -1.
    5000001    1    1    2    0    0  0.97673335193E+02  0.15803271723E+03  0.68343823197E+03  0.71241226620E+03  0.77000000000E+02 0.  0.
   -5000001    1    1    2    0    0 -0.97673335193E+02 -0.15803271723E+03  0.88853991234E+03  0.91101404815E+03  0.77000000000E+02 0.  0.
<mgrwt>
<rscale>  0 0.40545988E+03</rscale>
<asrwt>0</asrwt>
<pdfrwt beam="1">  1        2 0.24580028E+00 0.40545988E+03</pdfrwt>
<pdfrwt beam="2">  1       -2 0.39575525E-02 0.40545988E+03</pdfrwt>
<totfact> 0.33786263E+03</totfact>
</mgrwt>
</event>
<event>
 4    1  0.6148427E-004  0.8053377E+03  0.7818608E-02  0.9552323E-01
         -2   -1    0    0    0  501 -0.00000000000E+00  0.00000000000E+00  0.36489022028E+03  0.36489022028E+03  0.25500000000E-02 0. -1.
          2   -1    0    0  501    0  0.00000000000E+00 -0.00000000000E+00 -0.44435891329E+03  0.44435891330E+03  0.25500000000E-02 0.  1.
    5000001    1    1    2    0    0  0.30709737594E+03 -0.21060180476E+03  0.93390424273E+02  0.39155164388E+03  0.77000000000E+02 0.  0.
   -5000001    1    1    2    0    0 -0.30709737594E+03  0.21060180476E+03 -0.17285911729E+03  0.41769748971E+03  0.77000000000E+02 0.  0.
<mgrwt>
<rscale>  0 0.80533775E+03</rscale>
<asrwt>0</asrwt>
<pdfrwt beam="1">  1        2 0.68362910E-01 0.80533775E+03</pdfrwt>
<pdfrwt beam="2">  1       -2 0.56136957E-01 0.80533775E+03</pdfrwt>
<totfact> 0.21174128E+02</totfact>
</mgrwt>
</event>
<event>
 4    1  0.6148427E-004  0.4580363E+03  0.7818608E-02  0.1025352E+00
          2   -1    0    0  501    0  0.00000000000E+00  0.00000000000E+00  0.28983580947E+03  0.28983580948E+03  0.25500000000E-02 0.  1.
         -2   -1    0    0    0  501 -0.00000000000E+00 -0.00000000000E+00 -0.18096215729E+03  0.18096215731E+03  0.25500000000E-02 0. -1.
    5000001    1    1    2    0    0 -0.69408541240E+02  0.43888158487E+02  0.25943429257E+03  0.28280535394E+03  0.77000000000E+02 0.  0.
   -5000001    1    1    2    0    0  0.69408541240E+02 -0.43888158487E+02 -0.15056064039E+03  0.18799261286E+03  0.77000000000E+02 0.  0.
<mgrwt>
<rscale>  0 0.45803630E+03</rscale>
<asrwt>0</asrwt>
<pdfrwt beam="1">  1        2 0.44590124E-01 0.45803630E+03</pdfrwt>
<pdfrwt beam="2">  1       -2 0.27840332E-01 0.45803630E+03</pdfrwt>
<totfact> 0.13394350E+03</totfact>
</mgrwt>
</event>
<event>
 4    1  0.6148427E-004  0.2465526E+03  0.7818608E-02  0.1115503E+00
          2   -1    0    0  501    0  0.00000000000E+00  0.00000000000E+00  0.60970439038E+03  0.60970439038E+03  0.25500000000E-02 0.  1.
         -2   -1    0    0    0  501 -0.00000000000E+00 -0.00000000000E+00 -0.24925270647E+02  0.24925270778E+02  0.25500000000E-02 0. -1.
    5000001    1    1    2    0    0 -0.47717571117E+02  0.79784701339E+02  0.22801443041E+03  0.25799640625E+03  0.77000000000E+02 0.  0.
   -5000001    1    1    2    0    0  0.47717571117E+02 -0.79784701339E+02  0.35676468932E+03  0.37663325491E+03  0.77000000000E+02 0.  0.
<mgrwt>
<rscale>  0 0.24655261E+03</rscale>
<asrwt>0</asrwt>
<pdfrwt beam="1">  1        2 0.93800672E-01 0.24655261E+03</pdfrwt>
<pdfrwt beam="2">  1       -2 0.38346572E-02 0.24655261E+03</pdfrwt>
<totfact> 0.14340163E+04</totfact>
</mgrwt>
</event>
<event>
 4    1  0.6148427E-004  0.3022588E+03  0.7818608E-02  0.1084117E+00
          2   -1    0    0  501    0  0.00000000000E+00  0.00000000000E+00  0.26489395044E+04  0.26489395044E+04  0.25500000000E-02 0.  1.
         -2   -1    0    0    0  501 -0.00000000000E+00 -0.00000000000E+00 -0.86223556881E+01  0.86223560651E+01  0.25500000000E-02 0. -1.
    5000001    1    1    2    0    0 -0.96872899951E+02  0.85594963370E+02  0.14445764092E+04  0.14523914275E+04  0.77000000000E+02 0.  0.
   -5000001    1    1    2    0    0  0.96872899951E+02 -0.85594963370E+02  0.11957407395E+04  0.12051704330E+04  0.77000000000E+02 0.  0.
<mgrwt>
<rscale>  0 0.30225882E+03</rscale>
<asrwt>0</asrwt>
<pdfrwt beam="1">  1        2 0.40752947E+00 0.30225882E+03</pdfrwt>
<pdfrwt beam="2">  1       -2 0.13265153E-02 0.30225882E+03</pdfrwt>
<totfact> 0.46794046E+03</totfact>
</mgrwt>
</event>
<event>
 4    1  0.6148427E-004  0.2943439E+03  0.7818608E-02  0.1088103E+00
          2   -1    0    0  501    0  0.00000000000E+00  0.00000000000E+00  0.28237496799E+04  0.28237496799E+04  0.25500000000E-02 0.  1.
         -2   -1    0    0    0  501 -0.00000000000E+00 -0.00000000000E+00 -0.76705038452E+01  0.76705042691E+01  0.25500000000E-02 0. -1.
    5000001    1    1    2    0    0 -0.83526697100E+02  0.86944843446E+02  0.17404974594E+04  0.17463666629E+04  0.77000000000E+02 0.  0.
   -5000001    1    1    2    0    0  0.83526697100E+02 -0.86944843446E+02  0.10755817166E+04  0.10850535213E+04  0.77000000000E+02 0.  0.
<mgrwt>
<rscale>  0 0.29434390E+03</rscale>
<asrwt>0</asrwt>
<pdfrwt beam="1">  1        2 0.43442369E+00 0.29434390E+03</pdfrwt>
<pdfrwt beam="2">  1       -2 0.11800758E-02 0.29434390E+03</pdfrwt>
<totfact> 0.44187456E+03</totfact>
</mgrwt>
</event>
<event>
 4    1  0.6148427E-004  0.2724716E+03  0.7818608E-02  0.1099873E+00
          2   -1    0    0  501    0  0.00000000000E+00  0.00000000000E+00  0.53744747194E+03  0.53744747195E+03  0.25500000000E-02 0.  1.
         -2   -1    0    0    0  501 -0.00000000000E+00 -0.00000000000E+00 -0.34533978975E+02  0.34533979069E+02  0.25500000000E-02 0. -1.
    5000001    1    1    2    0    0  0.96336980044E+02 -0.55470555339E+02  0.21674610382E+03  0.25547146564E+03  0.77000000000E+02 0.  0.
   -5000001    1    1    2    0    0 -0.96336980044E+02  0.55470555339E+02  0.28616738915E+03  0.31650998538E+03  0.77000000000E+02 0.  0.
<mgrwt>
<rscale>  0 0.27247165E+03</rscale>
<asrwt>0</asrwt>
<pdfrwt beam="1">  1        2 0.82684224E-01 0.27247165E+03</pdfrwt>
<pdfrwt beam="2">  1       -2 0.53129200E-02 0.27247165E+03</pdfrwt>
<totfact> 0.10170083E+04</totfact>
</mgrwt>
</event>
<event>
 4    1  0.6148427E-004  0.2797454E+03  0.7818608E-02  0.1095828E+00
          2   -1    0    0  501    0  0.00000000000E+00  0.00000000000E+00  0.22152447850E+04  0.22152447850E+04  0.25500000000E-02 0.  1.
         -2   -1    0    0    0  501 -0.00000000000E+00 -0.00000000000E+00 -0.88316995770E+01  0.88316999451E+01  0.25500000000E-02 0. -1.
    5000001    1    1    2    0    0  0.34720041571E+02 -0.94843663882E+02  0.63727381848E+03  0.64980591071E+03  0.77000000000E+02 0.  0.
   -5000001    1    1    2    0    0 -0.34720041571E+02  0.94843663882E+02  0.15691392670E+04  0.15742705743E+04  0.77000000000E+02 0.  0.
<mgrwt>
<rscale>  0 0.27974543E+03</rscale>
<asrwt>0</asrwt>
<pdfrwt beam="1">  1        2 0.34080654E+00 0.27974543E+03</pdfrwt>
<pdfrwt beam="2">  1       -2 0.13587245E-02 0.27974543E+03</pdfrwt>
<totfact> 0.77935613E+03</totfact>
</mgrwt>
</event>
<event>
 4    1  0.6148427E-004  0.3649382E+03  0.7818608E-02  0.1056645E+00
          2   -1    0    0  501    0  0.00000000000E+00  0.00000000000E+00  0.27865162178E+04  0.27865162178E+04  0.25500000000E-02 0.  1.
         -2   -1    0    0    0  501 -0.00000000000E+00 -0.00000000000E+00 -0.11948603428E+02  0.11948603700E+02  0.25500000000E-02 0. -1.
    5000001    1    1    2    0    0 -0.75900432290E+02 -0.83172835471E+02  0.45794798142E+03  0.47783255422E+03  0.77000000000E+02 0.  0.
   -5000001    1    1    2    0    0  0.75900432290E+02  0.83172835471E+02  0.23166196330E+04  0.23206322673E+04  0.77000000000E+02 0.  0.
<mgrwt>
<rscale>  0 0.36493823E+03</rscale>
<asrwt>0</asrwt>
<pdfrwt beam="1">  1        2 0.42869541E+00 0.36493823E+03</pdfrwt>
<pdfrwt beam="2">  1       -2 0.18382441E-02 0.36493823E+03</pdfrwt>
<totfact> 0.24067699E+03</totfact>
</mgrwt>
</event>
<event>
 4    1  0.6148427E-004  0.2227818E+03  0.7818608E-02  0.1131826E+00
         -2   -1    0    0    0  501 -0.00000000000E+00  0.00000000000E+00  0.42042225608E+01  0.42042233341E+01  0.25500000000E-02 0. -1.
          2   -1    0    0  501    0  0.00000000000E+00 -0.00000000000E+00 -0.29513034043E+04  0.29513034043E+04  0.25500000000E-02 0.  1.
    5000001    1    1    2    0    0 -0.43192835001E+02 -0.67767561781E+02 -0.14129379679E+04  0.14173146315E+04  0.77000000000E+02 0.  0.
   -5000001    1    1    2    0    0  0.43192835001E+02  0.67767561781E+02 -0.15341612138E+04  0.15381929962E+04  0.77000000000E+02 0.  0.
<mgrwt>
<rscale>  0 0.22278184E+03</rscale>
<asrwt>0</asrwt>
<pdfrwt beam="1">  1        2 0.45404502E+00 0.22278184E+03</pdfrwt>
<pdfrwt beam="2">  1       -2 0.64680589E-03 0.22278184E+03</pdfrwt>
<totfact> 0.89248710E+03</totfact>
</mgrwt>
</event>
<event>
 4    1  0.6148427E-004  0.2167346E+03  0.7818608E-02  0.1136341E+00
         -2   -1    0    0    0  501 -0.00000000000E+00  0.00000000000E+00  0.24838717561E+02  0.24838717692E+02  0.25500000000E-02 0. -1.
          2   -1    0    0  501    0  0.00000000000E+00 -0.00000000000E+00 -0.47278910462E+03  0.47278910463E+03  0.25500000000E-02 0.  1.
    5000001    1    1    2    0    0 -0.56177757358E+02 -0.14670633429E+02 -0.11048316016E+03  0.14665161638E+03  0.77000000000E+02 0.  0.
   -5000001    1    1    2    0    0  0.56177757358E+02  0.14670633429E+02 -0.33746722689E+03  0.35097620594E+03  0.77000000000E+02 0.  0.
<mgrwt>
<rscale>  0 0.21673463E+03</rscale>
<asrwt>0</asrwt>
<pdfrwt beam="1">  1        2 0.72736779E-01 0.21673463E+03</pdfrwt>
<pdfrwt beam="2">  1       -2 0.38213415E-02 0.21673463E+03</pdfrwt>
<totfact> 0.19073834E+04</totfact>
</mgrwt>
</event>
<event>
 4    1  0.6148427E-004  0.2226535E+03  0.7818608E-02  0.1131920E+00
          2   -1    0    0  501    0  0.00000000000E+00  0.00000000000E+00  0.39350529973E+04  0.39350529973E+04  0.25500000000E-02 0.  1.
         -2   -1    0    0    0  501 -0.00000000000E+00 -0.00000000000E+00 -0.31495503743E+01  0.31495514066E+01  0.25500000000E-02 0. -1.
    5000001    1    1    2    0    0  0.49594789313E+02 -0.63003468664E+02  0.20714407366E+04  0.20744215593E+04  0.77000000000E+02 0.  0.
   -5000001    1    1    2    0    0 -0.49594789313E+02  0.63003468664E+02  0.18604627103E+04  0.18637809895E+04  0.77000000000E+02 0.  0.
<mgrwt>
<rscale>  0 0.22265354E+03</rscale>
<asrwt>0</asrwt>
<pdfrwt beam="1">  1        2 0.60539630E+00 0.22265354E+03</pdfrwt>
<pdfrwt beam="2">  1       -2 0.48454347E-03 0.22265354E+03</pdfrwt>
<totfact> 0.30699349E+03</totfact>
</mgrwt>
</event>
<event>
 4    1  0.6148427E-004  0.2269754E+03  0.7818608E-02  0.1128787E+00
          2   -1    0    0  501    0  0.00000000000E+00  0.00000000000E+00  0.23304366661E+04  0.23304366661E+04  0.25500000000E-02 0.  1.
         -2   -1    0    0    0  501 -0.00000000000E+00 -0.00000000000E+00 -0.55266272802E+01  0.55266278685E+01  0.25500000000E-02 0. -1.
    5000001    1    1    2    0    0 -0.40275631556E+02  0.61202464612E+02  0.75303307714E+03  0.76049699765E+03  0.77000000000E+02 0.  0.
   -5000001    1    1    2    0    0  0.40275631556E+02 -0.61202464612E+02  0.15718769617E+04  0.15754662963E+04  0.77000000000E+02 0.  0.
<mgrwt>
<rscale>  0 0.22697538E+03</rscale>
<asrwt>0</asrwt>
<pdfrwt beam="1">  1        2 0.35852875E+00 0.22697538E+03</pdfrwt>
<pdfrwt beam="2">  1       -2 0.85025031E-03 0.22697538E+03</pdfrwt>
<totfact> 0.13330564E+04</totfact>
</mgrwt>
</event>
<event>
 4    1  0.6148427E-004  0.3206323E+03  0.7818608E-02  0.1075359E+00
          2   -1    0    0  501    0  0.00000000000E+00  0.00000000000E+00  0.16154891576E+04  0.16154891576E+04  0.25500000000E-02 0.  1.
         -2   -1    0    0    0  501 -0.00000000000E+00 -0.00000000000E+00 -0.15909274723E+02  0.15909274928E+02  0.25500000000E-02 0. -1.
    5000001    1    1    2    0    0 -0.49529556917E+02  0.12731227001E+03  0.96935849971E+03  0.98196053488E+03  0.77000000000E+02 0.  0.
   -5000001    1    1    2    0    0  0.49529556917E+02 -0.12731227001E+03  0.63022138319E+03  0.64943789767E+03  0.77000000000E+02 0.  0.
<mgrwt>
<rscale>  0 0.32063226E+03</rscale>
<asrwt>0</asrwt>
<pdfrwt beam="1">  1        2 0.24853682E+00 0.32063226E+03</pdfrwt>
<pdfrwt beam="2">  1       -2 0.24475805E-02 0.32063226E+03</pdfrwt>
<totfact> 0.68037885E+03</totfact>
</mgrwt>
</event>
<event>
 4    1  0.6148427E-004  0.3035626E+03  0.7818608E-02  0.1083473E+00
          2   -1    0    0  501    0  0.00000000000E+00  0.00000000000E+00  0.21485287823E+04  0.21485287823E+04  0.25500000000E-02 0.  1.
         -2   -1    0    0    0  501 -0.00000000000E+00 -0.00000000000E+00 -0.10722486016E+02  0.10722486319E+02  0.25500000000E-02 0. -1.
    5000001    1    1    2    0    0  0.50965765908E+02  0.11405147492E+03  0.13446946301E+04  0.13526780461E+04  0.77000000000E+02 0.  0.
   -5000001    1    1    2    0    0 -0.50965765908E+02 -0.11405147492E+03  0.79311166626E+03  0.80657322257E+03  0.77000000000E+02 0.  0.
<mgrwt>
<rscale>  0 0.30356265E+03</rscale>
<asrwt>0</asrwt>
<pdfrwt beam="1">  1        2 0.33054285E+00 0.30356265E+03</pdfrwt>
<pdfrwt beam="2">  1       -2 0.16496134E-02 0.30356265E+03</pdfrwt>
<totfact> 0.63655805E+03</totfact>
</mgrwt>
</event>
<event>
 4    1  0.6148427E-004  0.1929431E+03  0.7818608E-02  0.1155833E+00
         -2   -1    0    0    0  501 -0.00000000000E+00  0.00000000000E+00  0.45488564592E+01  0.45488571739E+01  0.25500000000E-02 0. -1.
          2   -1    0    0  501    0  0.00000000000E+00 -0.00000000000E+00 -0.20459551310E+04  0.20459551310E+04  0.25500000000E-02 0.  1.
    5000001    1    1    2    0    0  0.41365867135E+02  0.22298545525E+02 -0.13841261268E+04  0.13870625418E+04  0.77000000000E+02 0.  0.
   -5000001    1    1    2    0    0 -0.41365867135E+02 -0.22298545525E+02 -0.65728014776E+03  0.66344144635E+03  0.77000000000E+02 0.  0.
<mgrwt>
<rscale>  0 0.19294307E+03</rscale>
<asrwt>0</asrwt>
<pdfrwt beam="1">  1        2 0.31476159E+00 0.19294307E+03</pdfrwt>
<pdfrwt beam="2">  1       -2 0.69982576E-03 0.19294307E+03</pdfrwt>
<totfact> 0.24780573E+04</totfact>
</mgrwt>
</event>
<event>
 4    1  0.6148427E-004  0.3634660E+03  0.7818608E-02  0.1057220E+00
         -2   -1    0    0    0  501 -0.00000000000E+00  0.00000000000E+00  0.10396197283E+02  0.10396197596E+02  0.25500000000E-02 0. -1.
          2   -1    0    0  501    0  0.00000000000E+00 -0.00000000000E+00 -0.31768229932E+04  0.31768229932E+04  0.25500000000E-02 0.  1.
    5000001    1    1    2    0    0 -0.64924792078E+02  0.13550609854E+03 -0.99361906169E+03  0.10078615833E+04  0.77000000000E+02 0.  0.
   -5000001    1    1    2    0    0  0.64924792078E+02 -0.13550609854E+03 -0.21728077343E+04  0.21793576075E+04  0.77000000000E+02 0.  0.
<mgrwt>
<rscale>  0 0.36346598E+03</rscale>
<asrwt>0</asrwt>
<pdfrwt beam="1">  1        2 0.48874122E+00 0.36346598E+03</pdfrwt>
<pdfrwt beam="2">  1       -2 0.15994175E-02 0.36346598E+03</pdfrwt>
<totfact> 0.17292985E+03</totfact>
</mgrwt>
</event>
<event>
 4    1  0.6148427E-004  0.5362564E+03  0.7818608E-02  0.1004726E+00
          2   -1    0    0  501    0  0.00000000000E+00  0.00000000000E+00  0.47877943458E+03  0.47877943459E+03  0.25500000000E-02 0.  1.
         -2   -1    0    0    0  501 -0.00000000000E+00 -0.00000000000E+00 -0.15015833121E+03  0.15015833123E+03  0.25500000000E-02 0. -1.
    5000001    1    1    2    0    0 -0.24681583919E+03 -0.47692498302E+02  0.22604966398E+03  0.34672767910E+03  0.77000000000E+02 0.  0.
   -5000001    1    1    2    0    0  0.24681583919E+03  0.47692498302E+02  0.10257143940E+03  0.28221008672E+03  0.77000000000E+02 0.  0.
<mgrwt>
<rscale>  0 0.53625636E+03</rscale>
<asrwt>0</asrwt>
<pdfrwt beam="1">  1        2 0.73658373E-01 0.53625636E+03</pdfrwt>
<pdfrwt beam="2">  1       -2 0.23101282E-01 0.53625636E+03</pdfrwt>
<totfact> 0.10724102E+03</totfact>
</mgrwt>
</event>
<event>
 4    1  0.6148427E-004  0.3220237E+03  0.7818608E-02  0.1074722E+00
         -2   -1    0    0    0  501 -0.00000000000E+00  0.00000000000E+00  0.25305047430E+02  0.25305047559E+02  0.25500000000E-02 0. -1.
          2   -1    0    0  501    0  0.00000000000E+00 -0.00000000000E+00 -0.10244919893E+04  0.10244919894E+04  0.25500000000E-02 0.  1.
    5000001    1    1    2    0    0 -0.51267055024E+02 -0.13142418256E+03 -0.46778687731E+03  0.49462530190E+03  0.77000000000E+02 0.  0.
   -5000001    1    1    2    0    0  0.51267055024E+02  0.13142418256E+03 -0.53140006461E+03  0.55517173501E+03  0.77000000000E+02 0.  0.
<mgrwt>
<rscale>  0 0.32202372E+03</rscale>
<asrwt>0</asrwt>
<pdfrwt beam="1">  1        2 0.15761412E+00 0.32202372E+03</pdfrwt>
<pdfrwt beam="2">  1       -2 0.38930850E-02 0.32202372E+03</pdfrwt>
<totfact> 0.72821191E+03</totfact>
</mgrwt>
</event>
<event>
 4    1  0.6148427E-004  0.2068600E+03  0.7818608E-02  0.1144077E+00
          2   -1    0    0  501    0  0.00000000000E+00  0.00000000000E+00  0.51175495213E+02  0.51175495276E+02  0.25500000000E-02 0.  1.
         -2   -1    0    0    0  501 -0.00000000000E+00 -0.00000000000E+00 -0.20904083664E+03  0.20904083665E+03  0.25500000000E-02 0. -1.
    5000001    1    1    2    0    0  0.27948760202E+02  0.62787240062E+02 -0.70456990400E+02  0.12496622827E+03  0.77000000000E+02 0.  0.
   -5000001    1    1    2    0    0 -0.27948760202E+02 -0.62787240062E+02 -0.87408351026E+02  0.13525010366E+03  0.77000000000E+02 0.  0.
<mgrwt>
<rscale>  0 0.20686003E+03</rscale>
<asrwt>0</asrwt>
<pdfrwt beam="1">  1        2 0.78731533E-02 0.20686003E+03</pdfrwt>
<pdfrwt beam="2">  1       -2 0.32160128E-01 0.20686003E+03</pdfrwt>
<totfact> 0.76035538E+03</totfact>
</mgrwt>
</event>
<event>
 4    1  0.6148427E-004  0.8911427E+03  0.7818608E-02  0.9436722E-01
          2   -1    0    0  501    0  0.00000000000E+00  0.00000000000E+00  0.51014465422E+03  0.51014465422E+03  0.25500000000E-02 0.  1.
         -2   -1    0    0    0  501 -0.00000000000E+00 -0.00000000000E+00 -0.38917162365E+03  0.38917162366E+03  0.25500000000E-02 0. -1.
    5000001    1    1    2    0    0  0.33894602372E+03 -0.27878100926E+03  0.59223934676E+02  0.44948830080E+03  0.77000000000E+02 0.  0.
   -5000001    1    1    2    0    0 -0.33894602372E+03  0.27878100926E+03  0.61749095890E+02  0.44982797708E+03  0.77000000000E+02 0.  0.
<mgrwt>
<rscale>  0 0.89114269E+03</rscale>
<asrwt>0</asrwt>
<pdfrwt beam="1">  1        2 0.78483793E-01 0.89114269E+03</pdfrwt>
<pdfrwt beam="2">  1       -2 0.59872558E-01 0.89114269E+03</pdfrwt>
<totfact> 0.15716208E+02</totfact>
</mgrwt>
</event>
<event>
 4    1  0.6148427E-004  0.3312317E+03  0.7818608E-02  0.1070593E+00
         -2   -1    0    0    0  501 -0.00000000000E+00  0.00000000000E+00  0.49659142998E+03  0.49659142999E+03  0.25500000000E-02 0. -1.
          2   -1    0    0  501    0  0.00000000000E+00 -0.00000000000E+00 -0.55233752391E+02  0.55233752450E+02  0.25500000000E-02 0.  1.
    5000001    1    1    2    0    0  0.95903470216E+02 -0.15266807628E+02  0.37655570686E+02  0.12952796230E+03  0.77000000000E+02 0.  0.
   -5000001    1    1    2    0    0 -0.95903470216E+02  0.15266807628E+02  0.40370210691E+03  0.42229722014E+03  0.77000000000E+02 0.  0.
<mgrwt>
<rscale>  0 0.33123169E+03</rscale>
<asrwt>0</asrwt>
<pdfrwt beam="1">  1        2 0.84975007E-02 0.33123169E+03</pdfrwt>
<pdfrwt beam="2">  1       -2 0.76398679E-01 0.33123169E+03</pdfrwt>
<totfact> 0.12467899E+03</totfact>
</mgrwt>
</event>
<event>
 4    1  0.6148427E-004  0.2063160E+03  0.7818608E-02  0.1144517E+00
          2   -1    0    0  501    0  0.00000000000E+00  0.00000000000E+00  0.20272151684E+04  0.20272151684E+04  0.25500000000E-02 0.  1.
         -2   -1    0    0    0  501 -0.00000000000E+00 -0.00000000000E+00 -0.52493547073E+01  0.52493553266E+01  0.25500000000E-02 0. -1.
    5000001    1    1    2    0    0  0.37713472114E+02 -0.34221174473E+01  0.15750507416E+04  0.15773864002E+04  0.77000000000E+02 0.  0.
   -5000001    1    1    2    0    0 -0.37713472114E+02  0.34221174473E+01  0.44691507214E+03  0.45507812359E+03  0.77000000000E+02 0.  0.
<mgrwt>
<rscale>  0 0.20631599E+03</rscale>
<asrwt>0</asrwt>
<pdfrwt beam="1">  1        2 0.31187952E+00 0.20631599E+03</pdfrwt>
<pdfrwt beam="2">  1       -2 0.80759241E-03 0.20631599E+03</pdfrwt>
<totfact> 0.20687361E+04</totfact>
</mgrwt>
</event>
<event>
 4    1  0.6148427E-004  0.3417476E+03  0.7818608E-02  0.1066054E+00
         -2   -1    0    0    0  501 -0.00000000000E+00  0.00000000000E+00  0.38498967054E+02  0.38498967138E+02  0.25500000000E-02 0. -1.
          2   -1    0    0  501    0  0.00000000000E+00 -0.00000000000E+00 -0.75840638916E+03  0.75840638916E+03  0.25500000000E-02 0.  1.
    5000001    1    1    2    0    0 -0.80052958625E+02  0.11472749855E+03 -0.50175622821E+03  0.52655406907E+03  0.77000000000E+02 0.  0.
   -5000001    1    1    2    0    0  0.80052958625E+02 -0.11472749855E+03 -0.21815119389E+03  0.27035128723E+03  0.77000000000E+02 0.  0.
<mgrwt>
<rscale>  0 0.34174764E+03</rscale>
<asrwt>0</asrwt>
<pdfrwt beam="1">  1        2 0.11667789E+00 0.34174764E+03</pdfrwt>
<pdfrwt beam="2">  1       -2 0.59229186E-02 0.34174764E+03</pdfrwt>
<totfact> 0.57542641E+03</totfact>
</mgrwt>
</event>
<event>
 4    1  0.6148427E-004  0.3457841E+03  0.7818608E-02  0.1064359E+00
         -2   -1    0    0    0  501 -0.00000000000E+00  0.00000000000E+00  0.60488106348E+02  0.60488106402E+02  0.25500000000E-02 0. -1.
          2   -1    0    0  501    0  0.00000000000E+00 -0.00000000000E+00 -0.49417426016E+03  0.49417426017E+03  0.25500000000E-02 0.  1.
    5000001    1    1    2    0    0  0.71129180495E+02 -0.13647463307E+03 -0.24358729959E+03  0.29824228123E+03  0.77000000000E+02 0.  0.
   -5000001    1    1    2    0    0 -0.71129180495E+02  0.13647463307E+03 -0.19009885423E+03  0.25642008534E+03  0.77000000000E+02 0.  0.
<mgrwt>
<rscale>  0 0.34578412E+03</rscale>
<asrwt>0</asrwt>
<pdfrwt beam="1">  1        2 0.76026806E-01 0.34578412E+03</pdfrwt>
<pdfrwt beam="2">  1       -2 0.93058629E-02 0.34578412E+03</pdfrwt>
<totfact> 0.47115581E+03</totfact>
</mgrwt>
</event>
<event>
 4    1  0.6148427E-004  0.2923955E+03  0.7818608E-02  0.1089105E+00
         -2   -1    0    0    0  501 -0.00000000000E+00  0.00000000000E+00  0.12209872917E+02  0.12209873183E+02  0.25500000000E-02 0. -1.
          2   -1    0    0  501    0  0.00000000000E+00 -0.00000000000E+00 -0.17505325414E+04  0.17505325414E+04  0.25500000000E-02 0.  1.
    5000001    1    1    2    0    0 -0.99468431964E+02 -0.74449989012E+02 -0.85209885606E+03  0.86454510022E+03  0.77000000000E+02 0.  0.
   -5000001    1    1    2    0    0  0.99468431964E+02  0.74449989012E+02 -0.88622381241E+03  0.89819731435E+03  0.77000000000E+02 0.  0.
<mgrwt>
<rscale>  0 0.29239549E+03</rscale>
<asrwt>0</asrwt>
<pdfrwt beam="1">  1        2 0.26931250E+00 0.29239549E+03</pdfrwt>
<pdfrwt beam="2">  1       -2 0.18784434E-02 0.29239549E+03</pdfrwt>
<totfact> 0.85281008E+03</totfact>
</mgrwt>
</event>
<event>
 4    1  0.6148427E-004  0.2445530E+03  0.7818608E-02  0.1116796E+00
         -2   -1    0    0    0  501 -0.00000000000E+00  0.00000000000E+00  0.43145612842E+02  0.43145612917E+02  0.25500000000E-02 0.  1.
          2   -1    0    0  501    0  0.00000000000E+00 -0.00000000000E+00 -0.34653691187E+03  0.34653691188E+03  0.25500000000E-02 0. -1.
    5000001    1    1    2    0    0 -0.69876195698E+02  0.59070722912E+02 -0.19233683124E+03  0.22648286841E+03  0.77000000000E+02 0.  0.
   -5000001    1    1    2    0    0  0.69876195698E+02 -0.59070722912E+02 -0.11105446779E+03  0.16319965640E+03  0.77000000000E+02 0.  0.
<mgrwt>
<rscale>  0 0.24455304E+03</rscale>
<asrwt>0</asrwt>
<pdfrwt beam="1">  1        2 0.53313369E-01 0.24455304E+03</pdfrwt>
<pdfrwt beam="2">  1       -2 0.66377868E-02 0.24455304E+03</pdfrwt>
<totfact> 0.11648992E+04</totfact>
</mgrwt>
</event>
<event>
 4    1  0.6148427E-004  0.1990786E+03  0.7818608E-02  0.1150519E+00
         -2   -1    0    0    0  501 -0.00000000000E+00  0.00000000000E+00  0.47985963746E+01  0.47985970521E+01  0.25500000000E-02 0. -1.
          2   -1    0    0  501    0  0.00000000000E+00 -0.00000000000E+00 -0.20647861934E+04  0.20647861934E+04  0.25500000000E-02 0.  1.
    5000001    1    1    2    0    0  0.10478277823E+02  0.44717813357E+02 -0.14794970157E+04  0.14822111512E+04  0.77000000000E+02 0.  0.
   -5000001    1    1    2    0    0 -0.10478277823E+02 -0.44717813357E+02 -0.58049058132E+03  0.58737363929E+03  0.77000000000E+02 0.  0.
<mgrwt>
<rscale>  0 0.19907864E+03</rscale>
<asrwt>0</asrwt>
<pdfrwt beam="1">  1        2 0.31765871E+00 0.19907864E+03</pdfrwt>
<pdfrwt beam="2">  1       -2 0.73824730E-03 0.19907864E+03</pdfrwt>
<totfact> 0.22468144E+04</totfact>
</mgrwt>
</event>
<event>
 4    1  0.6148427E-004  0.2661087E+03  0.7818608E-02  0.1103528E+00
          2   -1    0    0  501    0  0.00000000000E+00  0.00000000000E+00  0.20896517106E+04  0.20896517106E+04  0.25500000000E-02 0.  1.
         -2   -1    0    0    0  501 -0.00000000000E+00 -0.00000000000E+00 -0.84719684596E+01  0.84719688433E+01  0.25500000000E-02 0. -1.
    5000001    1    1    2    0    0  0.80009155131E+02  0.73273945542E+02  0.10562158050E+04  0.10645615824E+04  0.77000000000E+02 0.  0.
   -5000001    1    1    2    0    0 -0.80009155131E+02 -0.73273945542E+02  0.10249639371E+04  0.10335620970E+04  0.77000000000E+02 0.  0.
<mgrwt>
<rscale>  0 0.26610873E+03</rscale>
<asrwt>0</asrwt>
<pdfrwt beam="1">  1        2 0.32148551E+00 0.26610873E+03</pdfrwt>
<pdfrwt beam="2">  1       -2 0.13033772E-02 0.26610873E+03</pdfrwt>
<totfact> 0.96502276E+03</totfact>
</mgrwt>
</event>
<event>
 4    1  0.6148427E-004  0.2260260E+03  0.7818608E-02  0.1129469E+00
         -2   -1    0    0    0  501 -0.00000000000E+00  0.00000000000E+00  0.26540673761E+02  0.26540673883E+02  0.25500000000E-02 0. -1.
          2   -1    0    0  501    0  0.00000000000E+00 -0.00000000000E+00 -0.48122133177E+03  0.48122133178E+03  0.25500000000E-02 0.  1.
    5000001    1    1    2    0    0  0.62513963709E+02  0.34737557392E+02 -0.32073120168E+03  0.33750881067E+03  0.77000000000E+02 0.  0.
   -5000001    1    1    2    0    0 -0.62513963709E+02 -0.34737557392E+02 -0.13394945633E+03  0.17025319499E+03  0.77000000000E+02 0.  0.
<mgrwt>
<rscale>  0 0.22602600E+03</rscale>
<asrwt>0</asrwt>
<pdfrwt beam="1">  1        2 0.74034045E-01 0.22602600E+03</pdfrwt>
<pdfrwt beam="2">  1       -2 0.40831809E-02 0.22602600E+03</pdfrwt>
<totfact> 0.16981632E+04</totfact>
</mgrwt>
</event>
<event>
 4    1  0.6148427E-004  0.2425348E+03  0.7818608E-02  0.1118116E+00
         -2   -1    0    0    0  501 -0.00000000000E+00  0.00000000000E+00  0.71508178896E+01  0.71508183443E+01  0.25500000000E-02 0. -1.
          2   -1    0    0  501    0  0.00000000000E+00 -0.00000000000E+00 -0.20565182728E+04  0.20565182728E+04  0.25500000000E-02 0.  1.
    5000001    1    1    2    0    0 -0.10144357139E+02  0.92594669613E+02 -0.93955055967E+03  0.94729136753E+03  0.77000000000E+02 0.  0.
   -5000001    1    1    2    0    0  0.10144357139E+02 -0.92594669613E+02 -0.11098168952E+04  0.11163777236E+04  0.77000000000E+02 0.  0.
<mgrwt>
<rscale>  0 0.24253485E+03</rscale>
<asrwt>0</asrwt>
<pdfrwt beam="1">  1        2 0.31638695E+00 0.24253485E+03</pdfrwt>
<pdfrwt beam="2">  1       -2 0.11001275E-02 0.24253485E+03</pdfrwt>
<totfact> 0.12836083E+04</totfact>
</mgrwt>
</event>
<event>
 4    1  0.6148427E-004  0.2061583E+03  0.7818608E-02  0.1144645E+00
          2   -1    0    0  501    0  0.00000000000E+00  0.00000000000E+00  0.18074123458E+02  0.18074123638E+02  0.25500000000E-02 0.  1.
         -2   -1    0    0    0  501 -0.00000000000E+00 -0.00000000000E+00 -0.58787445035E+03  0.58787445036E+03  0.25500000000E-02 0. -1.
    5000001    1    1    2    0    0 -0.66563407032E+02  0.99654732054E+01 -0.24699450809E+03  0.26732991759E+03  0.77000000000E+02 0.  0.
   -5000001    1    1    2    0    0  0.66563407032E+02 -0.99654732054E+01 -0.32280581881E+03  0.33861865641E+03  0.77000000000E+02 0.  0.
<mgrwt>
<rscale>  0 0.20615834E+03</rscale>
<asrwt>0</asrwt>
<pdfrwt beam="1">  1        2 0.27806348E-02 0.20615834E+03</pdfrwt>
<pdfrwt beam="2">  1       -2 0.90442208E-01 0.20615834E+03</pdfrwt>
<totfact> 0.36861341E+03</totfact>
</mgrwt>
</event>
<event>
 4    1  0.6148427E-004  0.5405639E+03  0.7818608E-02  0.1003702E+00
          2   -1    0    0  501    0  0.00000000000E+00  0.00000000000E+00  0.19465292344E+04  0.19465292344E+04  0.25500000000E-02 0.  1.
         -2   -1    0    0    0  501 -0.00000000000E+00 -0.00000000000E+00 -0.37529535145E+02  0.37529535232E+02  0.25500000000E-02 0. -1.
    5000001    1    1    2    0    0  0.71387726911E+02  0.15365208744E+03  0.16739087260E+04  0.16842222521E+04  0.77000000000E+02 0.  0.
   -5000001    1    1    2    0    0 -0.71387726911E+02 -0.15365208744E+03  0.23509097320E+03  0.29983651747E+03  0.77000000000E+02 0.  0.
<mgrwt>
<rscale>  0 0.54056392E+03</rscale>
<asrwt>0</asrwt>
<pdfrwt beam="1">  1        2 0.29946597E+00 0.54056392E+03</pdfrwt>
<pdfrwt beam="2">  1       -2 0.57737759E-02 0.54056392E+03</pdfrwt>
<totfact> 0.12198441E+03</totfact>
</mgrwt>
</event>
<event>
 4    1  0.6148427E-004  0.3329914E+03  0.7818608E-02  0.1069821E+00
          2   -1    0    0  501    0  0.00000000000E+00  0.00000000000E+00  0.35488277919E+03  0.35488277920E+03  0.25500000000E-02 0.  1.
         -2   -1    0    0    0  501 -0.00000000000E+00 -0.00000000000E+00 -0.78112613396E+02  0.78112613437E+02  0.25500000000E-02 0. -1.
    5000001    1    1    2    0    0  0.47822459406E+02  0.46787027106E+02  0.30949359352E+03  0.32587006300E+03  0.77000000000E+02 0.  0.
   -5000001    1    1    2    0    0 -0.47822459406E+02 -0.46787027106E+02 -0.32723427721E+02  0.10712532964E+03  0.77000000000E+02 0.  0.
<mgrwt>
<rscale>  0 0.33299142E+03</rscale>
<asrwt>0</asrwt>
<pdfrwt beam="1">  1        2 0.54597351E-01 0.33299142E+03</pdfrwt>
<pdfrwt beam="2">  1       -2 0.12017325E-01 0.33299142E+03</pdfrwt>
<totfact> 0.44981357E+03</totfact>
</mgrwt>
</event>
<event>
 4    1  0.6148427E-004  0.5805235E+03  0.7818608E-02  0.9946658E-01
          2   -1    0    0  501    0  0.00000000000E+00  0.00000000000E+00  0.19094594031E+04  0.19094594031E+04  0.25500000000E-02 0.  1.
         -2   -1    0    0    0  501 -0.00000000000E+00 -0.00000000000E+00 -0.44123428277E+02  0.44123428350E+02  0.25500000000E-02 0. -1.
    5000001    1    1    2    0    0  0.16659526413E+03  0.22325393290E+03  0.10233785898E+04  0.10634044568E+04  0.77000000000E+02 0.  0.
   -5000001    1    1    2    0    0 -0.16659526413E+03 -0.22325393290E+03  0.84195738503E+03  0.89017837471E+03  0.77000000000E+02 0.  0.
<mgrwt>
<rscale>  0 0.58052354E+03</rscale>
<asrwt>0</asrwt>
<pdfrwt beam="1">  1        2 0.29376289E+00 0.58052354E+03</pdfrwt>
<pdfrwt beam="2">  1       -2 0.67882218E-02 0.58052354E+03</pdfrwt>
<totfact> 0.98862493E+02</totfact>
</mgrwt>
</event>
<event>
 4    1  0.6148427E-004  0.2482478E+03  0.7818608E-02  0.1114417E+00
         -2   -1    0    0    0  501 -0.00000000000E+00  0.00000000000E+00  0.18972493365E+02  0.18972493537E+02  0.25500000000E-02 0. -1.
          2   -1    0    0  501    0  0.00000000000E+00 -0.00000000000E+00 -0.81205652040E+03  0.81205652041E+03  0.25500000000E-02 0.  1.
    5000001    1    1    2    0    0  0.55774432954E+02 -0.16415410896E+02 -0.65794237784E+03  0.66497926708E+03  0.77000000000E+02 0.  0.
   -5000001    1    1    2    0    0 -0.55774432954E+02  0.16415410896E+02 -0.13514164920E+03  0.16604974687E+03  0.77000000000E+02 0.  0.
<mgrwt>
<rscale>  0 0.24824776E+03</rscale>
<asrwt>0</asrwt>
<pdfrwt beam="1">  1        2 0.12493175E+00 0.24824776E+03</pdfrwt>
<pdfrwt beam="2">  1       -2 0.29188458E-02 0.24824776E+03</pdfrwt>
<totfact> 0.15215077E+04</totfact>
</mgrwt>
</event>
<event>
 4    1  0.6148427E-004  0.1755591E+03  0.7818608E-02  0.1172172E+00
          2   -1    0    0  501    0  0.00000000000E+00  0.00000000000E+00  0.28659864151E+04  0.28659864151E+04  0.25500000000E-02 0.  1.
         -2   -1    0    0    0  501 -0.00000000000E+00 -0.00000000000E+00 -0.26885141066E+01  0.26885153159E+01  0.25500000000E-02 0. -1.
    5000001    1    1    2    0    0 -0.28956040353E+02 -0.26536843237E+02  0.16813874461E+04  0.16836078523E+04  0.77000000000E+02 0.  0.
   -5000001    1    1    2    0    0  0.28956040353E+02  0.26536843237E+02  0.11819104548E+04  0.11850670781E+04  0.77000000000E+02 0.  0.
<mgrwt>
<rscale>  0 0.17555907E+03</rscale>
<asrwt>0</asrwt>
<pdfrwt beam="1">  1        2 0.44092232E+00 0.17555907E+03</pdfrwt>
<pdfrwt beam="2">  1       -2 0.41361640E-03 0.17555907E+03</pdfrwt>
<totfact> 0.18879063E+04</totfact>
</mgrwt>
</event>
<event>
 4    1  0.6148427E-004  0.2253327E+03  0.7818608E-02  0.1129969E+00
         -2   -1    0    0    0  501 -0.00000000000E+00  0.00000000000E+00  0.10101829777E+02  0.10101830098E+02  0.25500000000E-02 0. -1.
          2   -1    0    0  501    0  0.00000000000E+00 -0.00000000000E+00 -0.12565752959E+04  0.12565752959E+04  0.25500000000E-02 0.  1.
    5000001    1    1    2    0    0  0.58090708213E+02 -0.30429722519E+02 -0.90228584309E+03  0.90793680454E+03  0.77000000000E+02 0.  0.
   -5000001    1    1    2    0    0 -0.58090708213E+02  0.30429722519E+02 -0.34418762300E+03  0.35874032143E+03  0.77000000000E+02 0.  0.
<mgrwt>
<rscale>  0 0.22533273E+03</rscale>
<asrwt>0</asrwt>
<pdfrwt beam="1">  1        2 0.19331915E+00 0.22533273E+03</pdfrwt>
<pdfrwt beam="2">  1       -2 0.15541287E-02 0.22533273E+03</pdfrwt>
<totfact> 0.20563631E+04</totfact>
</mgrwt>
</event>
<event>
 4    1  0.6148427E-004  0.2536091E+03  0.7818608E-02  0.1111045E+00
          2   -1    0    0  501    0  0.00000000000E+00  0.00000000000E+00  0.54428238738E+02  0.54428238798E+02  0.25500000000E-02 0.  1.
         -2   -1    0    0    0  501 -0.00000000000E+00 -0.00000000000E+00 -0.29542373337E+03  0.29542373338E+03  0.25500000000E-02 0. -1.
    5000001    1    1    2    0    0 -0.50586206316E+02 -0.59163125917E+02 -0.32262440486E+02  0.11414510416E+03  0.77000000000E+02 0.  0.
   -5000001    1    1    2    0    0  0.50586206316E+02  0.59163125917E+02 -0.20873305414E+03  0.23570686801E+03  0.77000000000E+02 0.  0.
<mgrwt>
<rscale>  0 0.25360910E+03</rscale>
<asrwt>0</asrwt>
<pdfrwt beam="1">  1        2 0.83735754E-02 0.25360910E+03</pdfrwt>
<pdfrwt beam="2">  1       -2 0.45449804E-01 0.25360910E+03</pdfrwt>
<totfact> 0.36938314E+03</totfact>
</mgrwt>
</event>
<event>
 4    1  0.6148427E-004  0.1913427E+03  0.7818608E-02  0.1157256E+00
          2   -1    0    0  501    0  0.00000000000E+00  0.00000000000E+00  0.15050701749E+04  0.15050701749E+04  0.25500000000E-02 0.  1.
         -2   -1    0    0    0  501 -0.00000000000E+00 -0.00000000000E+00 -0.60814476970E+01  0.60814482316E+01  0.25500000000E-02 0. -1.
    5000001    1    1    2    0    0  0.56376552405E+01 -0.52766148993E+02  0.90900990625E+03  0.91380745198E+03  0.77000000000E+02 0.  0.
   -5000001    1    1    2    0    0 -0.56376552405E+01  0.52766148993E+02  0.58997882092E+03  0.59734417112E+03  0.77000000000E+02 0.  0.
<mgrwt>
<rscale>  0 0.19134269E+03</rscale>
<asrwt>0</asrwt>
<pdfrwt beam="1">  1        2 0.23154940E+00 0.19134269E+03</pdfrwt>
<pdfrwt beam="2">  1       -2 0.93560679E-03 0.19134269E+03</pdfrwt>
<totfact> 0.31203302E+04</totfact>
</mgrwt>
</event>
<event>
 4    1  0.6148427E-004  0.3371541E+03  0.7818608E-02  0.1068015E+00
         -2   -1    0    0    0  501 -0.00000000000E+00  0.00000000000E+00  0.31178763254E+02  0.31178763359E+02  0.25500000000E-02 0. -1.
          2   -1    0    0  501    0  0.00000000000E+00 -0.00000000000E+00 -0.91146071883E+03  0.91146071884E+03  0.25500000000E-02 0.  1.
    5000001    1    1    2    0    0  0.63136707049E+02  0.11744141059E+03 -0.24825191519E+03  0.29212453182E+03  0.77000000000E+02 0.  0.
   -5000001    1    1    2    0    0 -0.63136707049E+02 -0.11744141059E+03 -0.63203004039E+03  0.65051495037E+03  0.77000000000E+02 0.  0.
<mgrwt>
<rscale>  0 0.33715408E+03</rscale>
<asrwt>0</asrwt>
<pdfrwt beam="1">  1        2 0.14022471E+00 0.33715408E+03</pdfrwt>
<pdfrwt beam="2">  1       -2 0.47967335E-02 0.33715408E+03</pdfrwt>
<totfact> 0.62525852E+03</totfact>
</mgrwt>
</event>
<event>
 4    1  0.6148427E-004  0.3362204E+03  0.7818608E-02  0.1068417E+00
         -2   -1    0    0    0  501 -0.00000000000E+00  0.00000000000E+00  0.19414941016E+02  0.19414941183E+02  0.25500000000E-02 0. -1.
          2   -1    0    0  501    0  0.00000000000E+00 -0.00000000000E+00 -0.14556335361E+04  0.14556335361E+04  0.25500000000E-02 0.  1.
    5000001    1    1    2    0    0  0.37000991163E+02 -0.97242916955E+02 -0.24750145638E+03  0.27930490357E+03  0.77000000000E+02 0.  0.
   -5000001    1    1    2    0    0 -0.37000991163E+02  0.97242916955E+02 -0.11887171387E+04  0.11957435737E+04  0.77000000000E+02 0.  0.
<mgrwt>
<rscale>  0 0.33622040E+03</rscale>
<asrwt>0</asrwt>
<pdfrwt beam="1">  1        2 0.22394353E+00 0.33622040E+03</pdfrwt>
<pdfrwt beam="2">  1       -2 0.29869152E-02 0.33622040E+03</pdfrwt>
<totfact> 0.61636947E+03</totfact>
</mgrwt>
</event>
<event>
 4    1  0.6148427E-004  0.2276272E+03  0.7818608E-02  0.1128321E+00
         -2   -1    0    0    0  501 -0.00000000000E+00  0.00000000000E+00  0.56826263788E+03  0.56826263789E+03  0.25500000000E-02 0. -1.
          2   -1    0    0  501    0  0.00000000000E+00 -0.00000000000E+00 -0.22794974871E+02  0.22794975014E+02  0.25500000000E-02 0.  1.
    5000001    1    1    2    0    0 -0.69404791345E+02 -0.46651222275E+02  0.25823673501E+03  0.28214991212E+03  0.77000000000E+02 0.  0.
   -5000001    1    1    2    0    0  0.69404791345E+02  0.46651222275E+02  0.28723092800E+03  0.30890770078E+03  0.77000000000E+02 0.  0.
<mgrwt>
<rscale>  0 0.22762717E+03</rscale>
<asrwt>0</asrwt>
<pdfrwt beam="1">  1        2 0.35069196E-02 0.22762717E+03</pdfrwt>
<pdfrwt beam="2">  1       -2 0.87425012E-01 0.22762717E+03</pdfrwt>
<totfact> 0.29220106E+03</totfact>
</mgrwt>
</event>
<event>
 4    1  0.6148427E-004  0.3137652E+03  0.7818608E-02  0.1078555E+00
         -2   -1    0    0    0  501 -0.00000000000E+00  0.00000000000E+00  0.30750584973E+02  0.30750585079E+02  0.25500000000E-02 0. -1.
          2   -1    0    0  501    0  0.00000000000E+00 -0.00000000000E+00 -0.80037965119E+03  0.80037965119E+03  0.25500000000E-02 0.  1.
    5000001    1    1    2    0    0 -0.93210903598E+02  0.60734313332E+02 -0.17446153859E+03  0.22077762073E+03  0.77000000000E+02 0.  0.
   -5000001    1    1    2    0    0  0.93210903598E+02 -0.60734313332E+02 -0.59516752762E+03  0.61035261554E+03  0.77000000000E+02 0.  0.
<mgrwt>
<rscale>  0 0.31376515E+03</rscale>
<asrwt>0</asrwt>
<pdfrwt beam="1">  1        2 0.12313532E+00 0.31376515E+03</pdfrwt>
<pdfrwt beam="2">  1       -2 0.47308598E-02 0.31376515E+03</pdfrwt>
<totfact> 0.75666500E+03</totfact>
</mgrwt>
</event>
<event>
 4    1  0.6148427E-004  0.3042933E+03  0.7818608E-02  0.1083114E+00
          2   -1    0    0  501    0  0.00000000000E+00  0.00000000000E+00  0.24807341654E+02  0.24807341785E+02  0.25500000000E-02 0.  1.
         -2   -1    0    0    0  501 -0.00000000000E+00 -0.00000000000E+00 -0.93313512519E+03  0.93313512519E+03  0.25500000000E-02 0. -1.
    5000001    1    1    2    0    0  0.10551404571E+03  0.31449223181E+02 -0.22940410459E+03  0.26585242275E+03  0.77000000000E+02 0.  0.
   -5000001    1    1    2    0    0 -0.10551404571E+03 -0.31449223181E+02 -0.67892367895E+03  0.69209004423E+03  0.77000000000E+02 0.  0.
<mgrwt>
<rscale>  0 0.30429329E+03</rscale>
<asrwt>0</asrwt>
<pdfrwt beam="1">  1        2 0.38165148E-02 0.30429329E+03</pdfrwt>
<pdfrwt beam="2">  1       -2 0.14355922E+00 0.30429329E+03</pdfrwt>
<totfact> 0.80413758E+02</totfact>
</mgrwt>
</event>
<event>
 4    1  0.6148427E-004  0.2511286E+03  0.7818608E-02  0.1112594E+00
         -2   -1    0    0    0  501 -0.00000000000E+00  0.00000000000E+00  0.48410934535E+02  0.48410934602E+02  0.25500000000E-02 0. -1.
          2   -1    0    0  501    0  0.00000000000E+00 -0.00000000000E+00 -0.32567846090E+03  0.32567846091E+03  0.25500000000E-02 0.  1.
    5000001    1    1    2    0    0 -0.90870488610E+02 -0.39598938051E+02 -0.13350002403E+03  0.18323967368E+03  0.77000000000E+02 0.  0.
   -5000001    1    1    2    0    0  0.90870488610E+02  0.39598938051E+02 -0.14376750233E+03  0.19084972183E+03  0.77000000000E+02 0.  0.
<mgrwt>
<rscale>  0 0.25112864E+03</rscale>
<asrwt>0</asrwt>
<pdfrwt beam="1">  1        2 0.50104377E-01 0.25112864E+03</pdfrwt>
<pdfrwt beam="2">  1       -2 0.74478363E-02 0.25112864E+03</pdfrwt>
<totfact> 0.10435174E+04</totfact>
</mgrwt>
</event>
<event>
 4    1  0.6148427E-004  0.1692229E+03  0.7818608E-02  0.1178661E+00
         -2   -1    0    0    0  501 -0.00000000000E+00  0.00000000000E+00  0.10517574654E+02  0.10517574963E+02  0.25500000000E-02 0. -1.
          2   -1    0    0  501    0  0.00000000000E+00 -0.00000000000E+00 -0.68067916012E+03  0.68067916013E+03  0.25500000000E-02 0.  1.
    5000001    1    1    2    0    0 -0.33202962126E+02  0.57896086917E+01 -0.37471083227E+03  0.38402234842E+03  0.77000000000E+02 0.  0.
   -5000001    1    1    2    0    0  0.33202962126E+02 -0.57896086917E+01 -0.29545075319E+03  0.30717438667E+03  0.77000000000E+02 0.  0.
<mgrwt>
<rscale>  0 0.16922286E+03</rscale>
<asrwt>0</asrwt>
<pdfrwt beam="1">  1        2 0.10471984E+00 0.16922286E+03</pdfrwt>
<pdfrwt beam="2">  1       -2 0.16180890E-02 0.16922286E+03</pdfrwt>
<totfact> 0.43743683E+04</totfact>
</mgrwt>
</event>
<event>
 4    1  0.6148427E-004  0.2834125E+03  0.7818608E-02  0.1093840E+00
         -2   -1    0    0    0  501 -0.00000000000E+00  0.00000000000E+00  0.10854451113E+02  0.10854451412E+02  0.25500000000E-02 0. -1.
          2   -1    0    0  501    0  0.00000000000E+00 -0.00000000000E+00 -0.18499932230E+04  0.18499932230E+04  0.25500000000E-02 0.  1.
    5000001    1    1    2    0    0 -0.41391652508E+02  0.11151781165E+03 -0.92924165330E+03  0.93998326657E+03  0.77000000000E+02 0.  0.
   -5000001    1    1    2    0    0  0.41391652508E+02 -0.11151781165E+03 -0.90989711862E+03  0.92086440787E+03  0.77000000000E+02 0.  0.
<mgrwt>
<rscale>  0 0.28341250E+03</rscale>
<asrwt>0</asrwt>
<pdfrwt beam="1">  1        2 0.28461409E+00 0.28341250E+03</pdfrwt>
<pdfrwt beam="2">  1       -2 0.16699171E-02 0.28341250E+03</pdfrwt>
<totfact> 0.89841015E+03</totfact>
</mgrwt>
</event>
<event>
 4    1  0.6148427E-004  0.2673971E+03  0.7818608E-02  0.1102779E+00
          2   -1    0    0  501    0  0.00000000000E+00  0.00000000000E+00  0.17459935789E+03  0.17459935791E+03  0.25500000000E-02 0.  1.
         -2   -1    0    0    0  501 -0.00000000000E+00 -0.00000000000E+00 -0.10237899294E+03  0.10237899297E+03  0.25500000000E-02 0. -1.
    5000001    1    1    2    0    0  0.88464111334E+02  0.52046923769E+02  0.75026648426E+02  0.14863639945E+03  0.77000000000E+02 0.  0.
   -5000001    1    1    2    0    0 -0.88464111334E+02 -0.52046923769E+02 -0.28062834757E+01  0.12834195142E+03  0.77000000000E+02 0.  0.
<mgrwt>
<rscale>  0 0.26739713E+03</rscale>
<asrwt>0</asrwt>
<pdfrwt beam="1">  1        2 0.26861439E-01 0.26739713E+03</pdfrwt>
<pdfrwt beam="2">  1       -2 0.15750614E-01 0.26739713E+03</pdfrwt>
<totfact> 0.62016152E+03</totfact>
</mgrwt>
</event>
<event>
 4    1  0.6148427E-004  0.1958326E+03  0.7818608E-02  0.1153303E+00
          2   -1    0    0  501    0  0.00000000000E+00  0.00000000000E+00  0.17727958281E+04  0.17727958281E+04  0.25500000000E-02 0.  1.
         -2   -1    0    0    0  501 -0.00000000000E+00 -0.00000000000E+00 -0.54081795740E+01  0.54081801752E+01  0.25500000000E-02 0. -1.
    5000001    1    1    2    0    0 -0.57031468556E+02 -0.68661048134E+01  0.10557076596E+04  0.10600695233E+04  0.77000000000E+02 0.  0.
   -5000001    1    1    2    0    0  0.57031468556E+02  0.68661048134E+01  0.71167998892E+03  0.71813448491E+03  0.77000000000E+02 0.  0.
<mgrwt>
<rscale>  0 0.19583257E+03</rscale>
<asrwt>0</asrwt>
<pdfrwt beam="1">  1        2 0.27273777E+00 0.19583257E+03</pdfrwt>
<pdfrwt beam="2">  1       -2 0.83202781E-03 0.19583257E+03</pdfrwt>
<totfact> 0.26805327E+04</totfact>
</mgrwt>
</event>
<event>
 4    1  0.6148427E-004  0.2174936E+03  0.7818608E-02  0.1135766E+00
          2   -1    0    0  501    0  0.00000000000E+00  0.00000000000E+00  0.55434013789E+03  0.55434013789E+03  0.25500000000E-02 0.  1.
         -2   -1    0    0    0  501 -0.00000000000E+00 -0.00000000000E+00 -0.21333228805E+02  0.21333228957E+02  0.25500000000E-02 0. -1.
    5000001    1    1    2    0    0 -0.56921709100E+02 -0.79358818591E+01  0.13170080890E+03  0.16302503566E+03  0.77000000000E+02 0.  0.
   -5000001    1    1    2    0    0  0.56921709100E+02  0.79358818591E+01  0.40130610019E+03  0.41264833119E+03  0.77000000000E+02 0.  0.
<mgrwt>
<rscale>  0 0.21749359E+03</rscale>
<asrwt>0</asrwt>
<pdfrwt beam="1">  1        2 0.85283084E-01 0.21749359E+03</pdfrwt>
<pdfrwt beam="2">  1       -2 0.32820358E-02 0.21749359E+03</pdfrwt>
<totfact> 0.20037505E+04</totfact>
</mgrwt>
</event>
<event>
 4    1  0.6148427E-004  0.1980833E+03  0.7818608E-02  0.1151366E+00
          2   -1    0    0  501    0  0.00000000000E+00  0.00000000000E+00  0.71658182884E+02  0.71658182929E+02  0.25500000000E-02 0.  1.
         -2   -1    0    0    0  501 -0.00000000000E+00 -0.00000000000E+00 -0.13688942645E+03  0.13688942648E+03  0.25500000000E-02 0. -1.
    5000001    1    1    2    0    0  0.50604942805E+01  0.60553347122E+02 -0.18182618336E+02  0.99759330689E+02  0.77000000000E+02 0.  0.
   -5000001    1    1    2    0    0 -0.50604942805E+01 -0.60553347122E+02 -0.47048625235E+02  0.10878827872E+03  0.77000000000E+02 0.  0.
<mgrwt>
<rscale>  0 0.19808329E+03</rscale>
<asrwt>0</asrwt>
<pdfrwt beam="1">  1        2 0.11024336E-01 0.19808329E+03</pdfrwt>
<pdfrwt beam="2">  1       -2 0.21059912E-01 0.19808329E+03</pdfrwt>
<totfact> 0.10545259E+04</totfact>
</mgrwt>
</event>
<event>
 4    1  0.6148427E-004  0.2989974E+03  0.7818608E-02  0.1085743E+00
         -2   -1    0    0    0  501 -0.00000000000E+00  0.00000000000E+00  0.56277513384E+02  0.56277513442E+02  0.25500000000E-02 0. -1.
          2   -1    0    0  501    0  0.00000000000E+00 -0.00000000000E+00 -0.39713674615E+03  0.39713674615E+03  0.25500000000E-02 0.  1.
    5000001    1    1    2    0    0 -0.57836886771E+02 -0.79905325805E+02 -0.46387254696E+02  0.13345689927E+03  0.77000000000E+02 0.  0.
   -5000001    1    1    2    0    0  0.57836886771E+02  0.79905325805E+02 -0.29447197807E+03  0.31995736033E+03  0.77000000000E+02 0.  0.
<mgrwt>
<rscale>  0 0.29899745E+03</rscale>
<asrwt>0</asrwt>
<pdfrwt beam="1">  1        2 0.61097959E-01 0.29899745E+03</pdfrwt>
<pdfrwt beam="2">  1       -2 0.86580792E-02 0.29899745E+03</pdfrwt>
<totfact> 0.67002326E+03</totfact>
</mgrwt>
</event>
<event>
 4    1  0.6148427E-004  0.3244085E+03  0.7818608E-02  0.1073638E+00
          2   -1    0    0  501    0  0.00000000000E+00  0.00000000000E+00  0.14087006662E+04  0.14087006662E+04  0.25500000000E-02 0.  1.
         -2   -1    0    0    0  501 -0.00000000000E+00 -0.00000000000E+00 -0.18676940472E+02  0.18676940646E+02  0.25500000000E-02 0. -1.
    5000001    1    1    2    0    0 -0.89170951868E+02 -0.28560062215E+02  0.22083635928E+03  0.25192227648E+03  0.77000000000E+02 0.  0.
   -5000001    1    1    2    0    0  0.89170951868E+02  0.28560062215E+02  0.11691873665E+04  0.11754553304E+04  0.77000000000E+02 0.  0.
<mgrwt>
<rscale>  0 0.32440850E+03</rscale>
<asrwt>0</asrwt>
<pdfrwt beam="1">  1        2 0.21672324E+00 0.32440850E+03</pdfrwt>
<pdfrwt beam="2">  1       -2 0.28733747E-02 0.32440850E+03</pdfrwt>
<totfact> 0.69248737E+03</totfact>
</mgrwt>
</event>
<event>
 4    1  0.6148427E-004  0.2566643E+03  0.7818608E-02  0.1109164E+00
          2   -1    0    0  501    0  0.00000000000E+00  0.00000000000E+00  0.77876417273E+03  0.77876417274E+03  0.25500000000E-02 0.  1.
         -2   -1    0    0    0  501 -0.00000000000E+00 -0.00000000000E+00 -0.21147788745E+02  0.21147788899E+02  0.25500000000E-02 0. -1.
    5000001    1    1    2    0    0 -0.94384200343E+02 -0.23489127893E+02  0.27638615531E+03  0.30294953912E+03  0.77000000000E+02 0.  0.
   -5000001    1    1    2    0    0  0.94384200343E+02  0.23489127893E+02  0.48123022867E+03  0.49696242252E+03  0.77000000000E+02 0.  0.
<mgrwt>
<rscale>  0 0.25666430E+03</rscale>
<asrwt>0</asrwt>
<pdfrwt beam="1">  1        2 0.11980985E+00 0.25666430E+03</pdfrwt>
<pdfrwt beam="2">  1       -2 0.32535066E-02 0.25666430E+03</pdfrwt>
<totfact> 0.13671444E+04</totfact>
</mgrwt>
</event>
<event>
 4    1  0.6148427E-004  0.3279580E+03  0.7818608E-02  0.1072044E+00
          2   -1    0    0  501    0  0.00000000000E+00  0.00000000000E+00  0.22447314872E+04  0.22447314873E+04  0.25500000000E-02 0. -1.
         -2   -1    0    0    0  501 -0.00000000000E+00 -0.00000000000E+00 -0.11978767663E+02  0.11978767935E+02  0.25500000000E-02 0.  1.
    5000001    1    1    2    0    0  0.13523612053E+03  0.32543398054E+02  0.13926706241E+04  0.14017162153E+04  0.77000000000E+02 0.  0.
   -5000001    1    1    2    0    0 -0.13523612053E+03 -0.32543398054E+02  0.84008209551E+03  0.85499403990E+03  0.77000000000E+02 0.  0.
<mgrwt>
<rscale>  0 0.32795803E+03</rscale>
<asrwt>0</asrwt>
<pdfrwt beam="1">  1        2 0.34534316E+00 0.32795803E+03</pdfrwt>
<pdfrwt beam="2">  1       -2 0.18428881E-02 0.32795803E+03</pdfrwt>
<totfact> 0.48009957E+03</totfact>
</mgrwt>
</event>
<event>
 4    1  0.6148427E-004  0.2045984E+03  0.7818608E-02  0.1145916E+00
          2   -1    0    0  501    0  0.00000000000E+00  0.00000000000E+00  0.87675612285E+03  0.87675612285E+03  0.25500000000E-02 0.  1.
         -2   -1    0    0    0  501 -0.00000000000E+00 -0.00000000000E+00 -0.11936183920E+02  0.11936184192E+02  0.25500000000E-02 0. -1.
    5000001    1    1    2    0    0  0.60324583579E+02 -0.29223142311E+02  0.40390227805E+03  0.41660424583E+03  0.77000000000E+02 0.  0.
   -5000001    1    1    2    0    0 -0.60324583579E+02  0.29223142311E+02  0.46091766088E+03  0.47208806121E+03  0.77000000000E+02 0.  0.
<mgrwt>
<rscale>  0 0.20459836E+03</rscale>
<asrwt>0</asrwt>
<pdfrwt beam="1">  1        2 0.13488555E+00 0.20459836E+03</pdfrwt>
<pdfrwt beam="2">  1       -2 0.18363362E-02 0.20459836E+03</pdfrwt>
<totfact> 0.26960032E+04</totfact>
</mgrwt>
</event>
<event>
 4    1  0.6148427E-004  0.1850240E+03  0.7818608E-02  0.1163027E+00
          2   -1    0    0  501    0  0.00000000000E+00  0.00000000000E+00  0.21483694652E+04  0.21483694652E+04  0.25500000000E-02 0.  1.
         -2   -1    0    0    0  501 -0.00000000000E+00 -0.00000000000E+00 -0.39837048463E+01  0.39837056624E+01  0.25500000000E-02 0. -1.
    5000001    1    1    2    0    0 -0.50114939229E+02  0.10589372844E+02  0.10441078920E+04  0.10481955601E+04  0.77000000000E+02 0.  0.
   -5000001    1    1    2    0    0  0.50114939229E+02 -0.10589372844E+02  0.11002778683E+04  0.11041576108E+04  0.77000000000E+02 0.  0.
<mgrwt>
<rscale>  0 0.18502401E+03</rscale>
<asrwt>0</asrwt>
<pdfrwt beam="1">  1        2 0.33051886E+00 0.18502401E+03</pdfrwt>
<pdfrwt beam="2">  1       -2 0.61287684E-03 0.18502401E+03</pdfrwt>
<totfact> 0.26451164E+04</totfact>
</mgrwt>
</event>
<event>
 4    1  0.6148427E-004  0.3688382E+03  0.7818608E-02  0.1055138E+00
          2   -1    0    0  501    0  0.00000000000E+00  0.00000000000E+00  0.11922137366E+03  0.11922137368E+03  0.25500000000E-02 0.  1.
         -2   -1    0    0    0  501 -0.00000000000E+00 -0.00000000000E+00 -0.28527105435E+03  0.28527105436E+03  0.25500000000E-02 0. -1.
    5000001    1    1    2    0    0 -0.82478089388E+02  0.14586733051E+03 -0.81684558354E+02  0.20169600991E+03  0.77000000000E+02 0.  0.
   -5000001    1    1    2    0    0  0.82478089388E+02 -0.14586733051E+03 -0.84365122339E+02  0.20279641813E+03  0.77000000000E+02 0.  0.
<mgrwt>
<rscale>  0 0.36883821E+03</rscale>
<asrwt>0</asrwt>
<pdfrwt beam="1">  1        2 0.18341750E-01 0.36883821E+03</pdfrwt>
<pdfrwt beam="2">  1       -2 0.43887854E-01 0.36883821E+03</pdfrwt>
<totfact> 0.15373529E+03</totfact>
</mgrwt>
</event>
<event>
 4    1  0.6148427E-004  0.1918561E+03  0.7818608E-02  0.1156798E+00
          2   -1    0    0  501    0  0.00000000000E+00  0.00000000000E+00  0.30785861447E+03  0.30785861448E+03  0.25500000000E-02 0.  1.
         -2   -1    0    0    0  501 -0.00000000000E+00 -0.00000000000E+00 -0.29890968232E+02  0.29890968341E+02  0.25500000000E-02 0. -1.
    5000001    1    1    2    0    0 -0.21373491746E+02  0.47687179998E+02  0.97988104843E+02  0.13513534688E+03  0.77000000000E+02 0.  0.
   -5000001    1    1    2    0    0  0.21373491746E+02 -0.47687179998E+02  0.17997954139E+03  0.20261423594E+03  0.77000000000E+02 0.  0.
<mgrwt>
<rscale>  0 0.19185611E+03</rscale>
<asrwt>0</asrwt>
<pdfrwt beam="1">  1        2 0.47362865E-01 0.19185611E+03</pdfrwt>
<pdfrwt beam="2">  1       -2 0.45986104E-02 0.19185611E+03</pdfrwt>
<totfact> 0.22762499E+04</totfact>
</mgrwt>
</event>
<event>
 4    1  0.6148427E-004  0.2421128E+03  0.7818608E-02  0.1118393E+00
         -2   -1    0    0    0  501 -0.00000000000E+00  0.00000000000E+00  0.18599920476E+02  0.18599920651E+02  0.25500000000E-02 0. -1.
          2   -1    0    0  501    0  0.00000000000E+00 -0.00000000000E+00 -0.78788810027E+03  0.78788810027E+03  0.25500000000E-02 0.  1.
    5000001    1    1    2    0    0  0.20845687382E+02 -0.58086967263E+02 -0.61822158290E+03  0.62604757328E+03  0.77000000000E+02 0.  0.
   -5000001    1    1    2    0    0 -0.20845687382E+02  0.58086967263E+02 -0.15106659689E+03  0.18044044764E+03  0.77000000000E+02 0.  0.
<mgrwt>
<rscale>  0 0.24211283E+03</rscale>
<asrwt>0</asrwt>
<pdfrwt beam="1">  1        2 0.12121353E+00 0.24211283E+03</pdfrwt>
<pdfrwt beam="2">  1       -2 0.28615268E-02 0.24211283E+03</pdfrwt>
<totfact> 0.16262683E+04</totfact>
</mgrwt>
</event>
<event>
 4    1  0.6148427E-004  0.2448687E+03  0.7818608E-02  0.1116591E+00
          2   -1    0    0  501    0  0.00000000000E+00  0.00000000000E+00  0.10196127015E+04  0.10196127015E+04  0.25500000000E-02 0.  1.
         -2   -1    0    0    0  501 -0.00000000000E+00 -0.00000000000E+00 -0.14701827956E+02  0.14701828177E+02  0.25500000000E-02 0. -1.
    5000001    1    1    2    0    0  0.42266192273E+02 -0.80182992811E+02  0.37963872298E+03  0.39783200390E+03  0.77000000000E+02 0.  0.
   -5000001    1    1    2    0    0 -0.42266192273E+02  0.80182992811E+02  0.62527215057E+03  0.63648252578E+03  0.77000000000E+02 0.  0.
<mgrwt>
<rscale>  0 0.24486870E+03</rscale>
<asrwt>0</asrwt>
<pdfrwt beam="1">  1        2 0.15686357E+00 0.24486870E+03</pdfrwt>
<pdfrwt beam="2">  1       -2 0.22618186E-02 0.24486870E+03</pdfrwt>
<totfact> 0.16327762E+04</totfact>
</mgrwt>
</event>
<event>
 4    1  0.6148427E-004  0.1766049E+03  0.7818608E-02  0.1171130E+00
          2   -1    0    0  501    0  0.00000000000E+00  0.00000000000E+00  0.10763037469E+04  0.10763037469E+04  0.25500000000E-02 0.  1.
         -2   -1    0    0    0  501 -0.00000000000E+00 -0.00000000000E+00 -0.72445335413E+01  0.72445339901E+01  0.25500000000E-02 0. -1.
    5000001    1    1    2    0    0  0.39797941615E+02  0.99169878094E+01  0.61822743437E+03  0.62435277161E+03  0.77000000000E+02 0.  0.
   -5000001    1    1    2    0    0 -0.39797941615E+02 -0.99169878094E+01  0.45083177901E+03  0.45919550931E+03  0.77000000000E+02 0.  0.
<mgrwt>
<rscale>  0 0.17660486E+03</rscale>
<asrwt>0</asrwt>
<pdfrwt beam="1">  1        2 0.16558524E+00 0.17660486E+03</pdfrwt>
<pdfrwt beam="2">  1       -2 0.11145433E-02 0.17660486E+03</pdfrwt>
<totfact> 0.41510125E+04</totfact>
</mgrwt>
</event>
<event>
 4    1  0.6148427E-004  0.5954873E+03  0.7818608E-02  0.9914813E-01
         -2   -1    0    0    0  501 -0.00000000000E+00  0.00000000000E+00  0.12107259932E+03  0.12107259934E+03  0.25500000000E-02 0. -1.
          2   -1    0    0  501    0  0.00000000000E+00 -0.00000000000E+00 -0.73221591405E+03  0.73221591406E+03  0.25500000000E-02 0.  1.
    5000001    1    1    2    0    0 -0.43454730949E+02  0.41065785040E+02  0.97555620528E+02  0.13791595789E+03  0.77000000000E+02 0.  0.
   -5000001    1    1    2    0    0  0.43454730949E+02 -0.41065785040E+02 -0.70869893526E+03  0.71537255552E+03  0.77000000000E+02 0.  0.
<mgrwt>
<rscale>  0 0.59548731E+03</rscale>
<asrwt>0</asrwt>
<pdfrwt beam="1">  1        2 0.11264860E+00 0.59548731E+03</pdfrwt>
<pdfrwt beam="2">  1       -2 0.18626554E-01 0.59548731E+03</pdfrwt>
<totfact> 0.93930173E+02</totfact>
</mgrwt>
</event>
<event>
 4    1  0.6148427E-004  0.1952874E+03  0.7818608E-02  0.1153777E+00
          2   -1    0    0  501    0  0.00000000000E+00  0.00000000000E+00  0.78985118298E+02  0.78985118340E+02  0.25500000000E-02 0.  1.
         -2   -1    0    0    0  501 -0.00000000000E+00 -0.00000000000E+00 -0.12070996314E+03  0.12070996317E+03  0.25500000000E-02 0. -1.
    5000001    1    1    2    0    0  0.13209948301E+02  0.50073490423E+02  0.10211494590E+02  0.93354870248E+02  0.77000000000E+02 0.  0.
   -5000001    1    1    2    0    0 -0.13209948301E+02 -0.50073490423E+02 -0.51936339433E+02  0.10634021126E+03  0.77000000000E+02 0.  0.
<mgrwt>
<rscale>  0 0.19528739E+03</rscale>
<asrwt>0</asrwt>
<pdfrwt beam="1">  1        2 0.12151557E-01 0.19528739E+03</pdfrwt>
<pdfrwt beam="2">  1       -2 0.18570764E-01 0.19528739E+03</pdfrwt>
<totfact> 0.11590422E+04</totfact>
</mgrwt>
</event>
<event>
 4    1  0.6148427E-004  0.2866907E+03  0.7818608E-02  0.1092090E+00
          2   -1    0    0  501    0  0.00000000000E+00  0.00000000000E+00  0.35743332656E+03  0.35743332657E+03  0.25500000000E-02 0.  1.
         -2   -1    0    0    0  501 -0.00000000000E+00 -0.00000000000E+00 -0.57487320653E+02  0.57487320709E+02  0.25500000000E-02 0. -1.
    5000001    1    1    2    0    0 -0.11872191950E+03 -0.83819266921E+01  0.11914453997E+03  0.18517443741E+03  0.77000000000E+02 0.  0.
   -5000001    1    1    2    0    0  0.11872191950E+03  0.83819266921E+01  0.18080146593E+03  0.22974620987E+03  0.77000000000E+02 0.  0.
<mgrwt>
<rscale>  0 0.28669066E+03</rscale>
<asrwt>0</asrwt>
<pdfrwt beam="1">  1        2 0.54989741E-01 0.28669066E+03</pdfrwt>
<pdfrwt beam="2">  1       -2 0.88442034E-02 0.28669066E+03</pdfrwt>
<totfact> 0.72544126E+03</totfact>
</mgrwt>
</event>
<event>
 4    1  0.6148427E-004  0.1824169E+03  0.7818608E-02  0.1165484E+00
          2   -1    0    0  501    0  0.00000000000E+00  0.00000000000E+00  0.18239478379E+04  0.18239478379E+04  0.25500000000E-02 0.  1.
         -2   -1    0    0    0  501 -0.00000000000E+00 -0.00000000000E+00 -0.45609745157E+01  0.45609752286E+01  0.25500000000E-02 0. -1.
    5000001    1    1    2    0    0 -0.22483575973E+02 -0.29842329360E+02  0.12257059835E+04  0.12286904548E+04  0.77000000000E+02 0.  0.
   -5000001    1    1    2    0    0  0.22483575973E+02  0.29842329360E+02  0.59368087988E+03  0.59981835829E+03  0.77000000000E+02 0.  0.
<mgrwt>
<rscale>  0 0.18241689E+03</rscale>
<asrwt>0</asrwt>
<pdfrwt beam="1">  1        2 0.28060732E+00 0.18241689E+03</pdfrwt>
<pdfrwt beam="2">  1       -2 0.70168853E-03 0.18241689E+03</pdfrwt>
<totfact> 0.32084464E+04</totfact>
</mgrwt>
</event>
<event>
 4    1  0.6148427E-004  0.1136868E+04  0.7818608E-02  0.9169985E-01
          2   -1    0    0  501    0  0.00000000000E+00  0.00000000000E+00  0.14806478849E+04  0.14806478849E+04  0.25500000000E-02 0. -1.
         -2   -1    0    0    0  501 -0.00000000000E+00 -0.00000000000E+00 -0.21822686395E+03  0.21822686397E+03  0.25500000000E-02 0.  1.
    5000001    1    1    2    0    0 -0.29811607688E+03  0.47307285392E+03  0.53077724797E+03  0.77480617406E+03  0.77000000000E+02 0.  0.
   -5000001    1    1    2    0    0  0.29811607688E+03 -0.47307285392E+03  0.73164377301E+03  0.92406857483E+03  0.77000000000E+02 0.  0.
<mgrwt>
<rscale>  0 0.11368679E+04</rscale>
<asrwt>0</asrwt>
<pdfrwt beam="1">  1        2 0.22779198E+00 0.11368679E+04</pdfrwt>
<pdfrwt beam="2">  1       -2 0.33573364E-01 0.11368679E+04</pdfrwt>
<totfact> 0.10688954E+02</totfact>
</mgrwt>
</event>
<event>
 4    1  0.6148427E-004  0.4310835E+03  0.7818608E-02  0.1033518E+00
         -2   -1    0    0    0  501 -0.00000000000E+00  0.00000000000E+00  0.18257151125E+02  0.18257151303E+02  0.25500000000E-02 0. -1.
          2   -1    0    0  501    0  0.00000000000E+00 -0.00000000000E+00 -0.25446599736E+04  0.25446599736E+04  0.25500000000E-02 0.  1.
    5000001    1    1    2    0    0 -0.10640662888E+03 -0.16312931650E+03 -0.15661020639E+04  0.15800437396E+04  0.77000000000E+02 0.  0.
   -5000001    1    1    2    0    0  0.10640662888E+03  0.16312931650E+03 -0.96030075859E+03  0.98287338530E+03  0.77000000000E+02 0.  0.
<mgrwt>
<rscale>  0 0.43108348E+03</rscale>
<asrwt>0</asrwt>
<pdfrwt beam="1">  1        2 0.39148587E+00 0.43108348E+03</pdfrwt>
<pdfrwt beam="2">  1       -2 0.28087945E-02 0.43108348E+03</pdfrwt>
<totfact> 0.17439856E+03</totfact>
</mgrwt>
</event>
<event>
 4    1  0.6148427E-004  0.1987158E+03  0.7818608E-02  0.1150827E+00
         -2   -1    0    0    0  501 -0.00000000000E+00  0.00000000000E+00  0.14506705681E+03  0.14506705684E+03  0.25500000000E-02 0. -1.
          2   -1    0    0  501    0  0.00000000000E+00 -0.00000000000E+00 -0.68051229284E+02  0.68051229332E+02  0.25500000000E-02 0.  1.
    5000001    1    1    2    0    0 -0.81825681425E+01 -0.31436646870E+02  0.96140745692E+02  0.12738626366E+03  0.77000000000E+02 0.  0.
   -5000001    1    1    2    0    0  0.81825681425E+01  0.31436646870E+02 -0.19124918163E+02  0.85732022504E+02  0.77000000000E+02 0.  0.
<mgrwt>
<rscale>  0 0.19871579E+03</rscale>
<asrwt>0</asrwt>
<pdfrwt beam="1">  1        2 0.10469420E-01 0.19871579E+03</pdfrwt>
<pdfrwt beam="2">  1       -2 0.22318009E-01 0.19871579E+03</pdfrwt>
<totfact> 0.10169095E+04</totfact>
</mgrwt>
</event>
<event>
 4    1  0.6148427E-004  0.1948489E+03  0.7818608E-02  0.1154159E+00
         -2   -1    0    0    0  501 -0.00000000000E+00  0.00000000000E+00  0.46482396503E+02  0.46482396573E+02  0.25500000000E-02 0. -1.
          2   -1    0    0  501    0  0.00000000000E+00 -0.00000000000E+00 -0.20419618929E+03  0.20419618930E+03  0.25500000000E-02 0.  1.
    5000001    1    1    2    0    0 -0.13916798809E+02  0.56454458150E+02 -0.96200947216E+02  0.13625125827E+03  0.77000000000E+02 0.  0.
   -5000001    1    1    2    0    0  0.13916798809E+02 -0.56454458150E+02 -0.61512845570E+02  0.11442732761E+03  0.77000000000E+02 0.  0.
<mgrwt>
<rscale>  0 0.19484895E+03</rscale>
<asrwt>0</asrwt>
<pdfrwt beam="1">  1        2 0.31414798E-01 0.19484895E+03</pdfrwt>
<pdfrwt beam="2">  1       -2 0.71511380E-02 0.19484895E+03</pdfrwt>
<totfact> 0.18088268E+04</totfact>
</mgrwt>
</event>
<event>
 4    1  0.6148427E-004  0.5954049E+03  0.7818608E-02  0.9914985E-01
         -2   -1    0    0    0  501 -0.00000000000E+00  0.00000000000E+00  0.16087191628E+03  0.16087191630E+03  0.25500000000E-02 0. -1.
          2   -1    0    0  501    0  0.00000000000E+00 -0.00000000000E+00 -0.55091506374E+03  0.55091506375E+03  0.25500000000E-02 0.  1.
    5000001    1    1    2    0    0  0.22814988006E+02 -0.28576263428E+03 -0.22220248743E+03  0.37078801525E+03  0.77000000000E+02 0.  0.
   -5000001    1    1    2    0    0 -0.22814988006E+02  0.28576263428E+03 -0.16784066003E+03  0.34099896480E+03  0.77000000000E+02 0.  0.
<mgrwt>
<rscale>  0 0.59540494E+03</rscale>
<asrwt>0</asrwt>
<pdfrwt beam="1">  1        2 0.84756163E-01 0.59540494E+03</pdfrwt>
<pdfrwt beam="2">  1       -2 0.24749526E-01 0.59540494E+03</pdfrwt>
<totfact> 0.80578385E+02</totfact>
</mgrwt>
</event>
<event>
 4    1  0.6148427E-004  0.2777268E+03  0.7818608E-02  0.1096937E+00
          2   -1    0    0  501    0  0.00000000000E+00  0.00000000000E+00  0.12961618512E+04  0.12961618512E+04  0.25500000000E-02 0.  1.
         -2   -1    0    0    0  501 -0.00000000000E+00 -0.00000000000E+00 -0.14877039148E+02  0.14877039366E+02  0.25500000000E-02 0. -1.
    5000001    1    1    2    0    0  0.71785406780E+02 -0.69945455279E+01  0.21442682198E+03  0.23897684046E+03  0.77000000000E+02 0.  0.
   -5000001    1    1    2    0    0 -0.71785406780E+02  0.69945455279E+01  0.10668579901E+04  0.10720620501E+04  0.77000000000E+02 0.  0.
<mgrwt>
<rscale>  0 0.27772685E+03</rscale>
<asrwt>0</asrwt>
<pdfrwt beam="1">  1        2 0.19940946E+00 0.27772685E+03</pdfrwt>
<pdfrwt beam="2">  1       -2 0.22887759E-02 0.27772685E+03</pdfrwt>
<totfact> 0.11163602E+04</totfact>
</mgrwt>
</event>
<event>
 4    1  0.6148427E-004  0.2075217E+03  0.7818608E-02  0.1143544E+00
          2   -1    0    0  501    0  0.00000000000E+00  0.00000000000E+00  0.24652929788E+04  0.24652929788E+04  0.25500000000E-02 0.  1.
         -2   -1    0    0    0  501 -0.00000000000E+00 -0.00000000000E+00 -0.43671531370E+01  0.43671538815E+01  0.25500000000E-02 0. -1.
    5000001    1    1    2    0    0 -0.45393295248E+02  0.16338349722E+02  0.63425878100E+03  0.64073449587E+03  0.77000000000E+02 0.  0.
   -5000001    1    1    2    0    0  0.45393295248E+02 -0.16338349722E+02  0.18266670447E+04  0.18289256368E+04  0.77000000000E+02 0.  0.
<mgrwt>
<rscale>  0 0.20752169E+03</rscale>
<asrwt>0</asrwt>
<pdfrwt beam="1">  1        2 0.37927552E+00 0.20752169E+03</pdfrwt>
<pdfrwt beam="2">  1       -2 0.67187034E-03 0.20752169E+03</pdfrwt>
<totfact> 0.15804209E+04</totfact>
</mgrwt>
</event>
<event>
 4    1  0.6148427E-004  0.2219375E+03  0.7818608E-02  0.1132447E+00
         -2   -1    0    0    0  501 -0.00000000000E+00  0.00000000000E+00  0.80872118957E+01  0.80872122977E+01  0.25500000000E-02 0. -1.
          2   -1    0    0  501    0  0.00000000000E+00 -0.00000000000E+00 -0.15226583264E+04  0.15226583264E+04  0.25500000000E-02 0.  1.
    5000001    1    1    2    0    0 -0.48819265488E+01 -0.79410542476E+02 -0.70604476439E+03  0.71467340568E+03  0.77000000000E+02 0.  0.
   -5000001    1    1    2    0    0  0.48819265488E+01  0.79410542476E+02 -0.80852635014E+03  0.81607213304E+03  0.77000000000E+02 0.  0.
<mgrwt>
<rscale>  0 0.22193748E+03</rscale>
<asrwt>0</asrwt>
<pdfrwt beam="1">  1        2 0.23425490E+00 0.22193748E+03</pdfrwt>
<pdfrwt beam="2">  1       -2 0.12441877E-02 0.22193748E+03</pdfrwt>
<totfact> 0.20384566E+04</totfact>
</mgrwt>
</event>
<event>
 4    1  0.6148427E-004  0.1660451E+03  0.7818608E-02  0.1182036E+00
         -2   -1    0    0    0  501 -0.00000000000E+00  0.00000000000E+00  0.63696204927E+01  0.63696210032E+01  0.25500000000E-02 0. -1.
          2   -1    0    0  501    0  0.00000000000E+00 -0.00000000000E+00 -0.10821279581E+04  0.10821279581E+04  0.25500000000E-02 0.  1.
    5000001    1    1    2    0    0  0.13877487313E+01 -0.25900598463E+02 -0.42605611704E+03  0.43373445991E+03  0.77000000000E+02 0.  0.
   -5000001    1    1    2    0    0 -0.13877487313E+01  0.25900598463E+02 -0.64970222052E+03  0.65476311915E+03  0.77000000000E+02 0.  0.
<mgrwt>
<rscale>  0 0.16604511E+03</rscale>
<asrwt>0</asrwt>
<pdfrwt beam="1">  1        2 0.16648108E+00 0.16604511E+03</pdfrwt>
<pdfrwt beam="2">  1       -2 0.97994251E-03 0.16604511E+03</pdfrwt>
<totfact> 0.49316361E+04</totfact>
</mgrwt>
</event>
<event>
 4    1  0.6148427E-004  0.6181760E+03  0.7818608E-02  0.9868398E-01
         -2   -1    0    0    0  501 -0.00000000000E+00  0.00000000000E+00  0.65612190415E+02  0.65612190464E+02  0.25500000000E-02 0. -1.
          2   -1    0    0  501    0  0.00000000000E+00 -0.00000000000E+00 -0.14560616045E+04  0.14560616045E+04  0.25500000000E-02 0.  1.
    5000001    1    1    2    0    0  0.22200784795E+03 -0.19660082517E+03 -0.59472145275E+03  0.66900072897E+03  0.77000000000E+02 0.  0.
   -5000001    1    1    2    0    0 -0.22200784795E+03  0.19660082517E+03 -0.79572796130E+03  0.85267306595E+03  0.77000000000E+02 0.  0.
<mgrwt>
<rscale>  0 0.61817600E+03</rscale>
<asrwt>0</asrwt>
<pdfrwt beam="1">  1        2 0.22400945E+00 0.61817600E+03</pdfrwt>
<pdfrwt beam="2">  1       -2 0.10094184E-01 0.61817600E+03</pdfrwt>
<totfact> 0.92430021E+02</totfact>
</mgrwt>
</event>
<event>
 4    1  0.6148427E-004  0.2262379E+03  0.7818608E-02  0.1129316E+00
          2   -1    0    0  501    0  0.00000000000E+00  0.00000000000E+00  0.11994558409E+04  0.11994558409E+04  0.25500000000E-02 0.  1.
         -2   -1    0    0    0  501 -0.00000000000E+00 -0.00000000000E+00 -0.10668084072E+02  0.10668084377E+02  0.25500000000E-02 0. -1.
    5000001    1    1    2    0    0  0.77269684880E+02 -0.29668360119E+02  0.57294475938E+03  0.58399102142E+03  0.77000000000E+02 0.  0.
   -5000001    1    1    2    0    0 -0.77269684880E+02  0.29668360119E+02  0.61584299740E+03  0.62613290382E+03  0.77000000000E+02 0.  0.
<mgrwt>
<rscale>  0 0.22623789E+03</rscale>
<asrwt>0</asrwt>
<pdfrwt beam="1">  1        2 0.18453167E+00 0.22623789E+03</pdfrwt>
<pdfrwt beam="2">  1       -2 0.16412437E-02 0.22623789E+03</pdfrwt>
<totfact> 0.20447243E+04</totfact>
</mgrwt>
</event>
<event>
 4    1  0.6148427E-004  0.3342921E+03  0.7818608E-02  0.1069253E+00
         -2   -1    0    0    0  501 -0.00000000000E+00  0.00000000000E+00  0.46662119855E+02  0.46662119925E+02  0.25500000000E-02 0. -1.
          2   -1    0    0  501    0  0.00000000000E+00 -0.00000000000E+00 -0.59872567828E+03  0.59872567828E+03  0.25500000000E-02 0.  1.
    5000001    1    1    2    0    0 -0.12345685709E+03 -0.49563899354E+02 -0.14927676750E+03  0.21426789073E+03  0.77000000000E+02 0.  0.
   -5000001    1    1    2    0    0  0.12345685709E+03  0.49563899354E+02 -0.40278679092E+03  0.43111990748E+03  0.77000000000E+02 0.  0.
<mgrwt>
<rscale>  0 0.33429214E+03</rscale>
<asrwt>0</asrwt>
<pdfrwt beam="1">  1        2 0.92111637E-01 0.33429214E+03</pdfrwt>
<pdfrwt beam="2">  1       -2 0.71787881E-02 0.33429214E+03</pdfrwt>
<totfact> 0.56837802E+03</totfact>
</mgrwt>
</event>
<event>
 4    1  0.6148427E-004  0.3103276E+03  0.7818608E-02  0.1080189E+00
         -2   -1    0    0    0  501 -0.00000000000E+00  0.00000000000E+00  0.25467055489E+02  0.25467055617E+02  0.25500000000E-02 0. -1.
          2   -1    0    0  501    0  0.00000000000E+00 -0.00000000000E+00 -0.94537047614E+03  0.94537047615E+03  0.25500000000E-02 0.  1.
    5000001    1    1    2    0    0  0.14793599479E+02  0.13320817493E+03 -0.41756942004E+03  0.44526002404E+03  0.77000000000E+02 0.  0.
   -5000001    1    1    2    0    0 -0.14793599479E+02 -0.13320817493E+03 -0.50233400061E+03  0.52557750772E+03  0.77000000000E+02 0.  0.
<mgrwt>
<rscale>  0 0.31032758E+03</rscale>
<asrwt>0</asrwt>
<pdfrwt beam="1">  1        2 0.14544158E+00 0.31032758E+03</pdfrwt>
<pdfrwt beam="2">  1       -2 0.39180093E-02 0.31032758E+03</pdfrwt>
<totfact> 0.80697747E+03</totfact>
</mgrwt>
</event>
<event>
 4    1  0.6148427E-004  0.2695833E+03  0.7818608E-02  0.1101518E+00
         -2   -1    0    0    0  501 -0.00000000000E+00  0.00000000000E+00  0.87236437236E+01  0.87236440963E+01  0.25500000000E-02 0.  1.
          2   -1    0    0  501    0  0.00000000000E+00 -0.00000000000E+00 -0.20827066526E+04  0.20827066526E+04  0.25500000000E-02 0. -1.
    5000001    1    1    2    0    0  0.34089123861E+02  0.77577003941E+02 -0.15888217825E+04  0.15929419062E+04  0.77000000000E+02 0.  0.
   -5000001    1    1    2    0    0 -0.34089123861E+02 -0.77577003941E+02 -0.48516122638E+03  0.49848839053E+03  0.77000000000E+02 0.  0.
<mgrwt>
<rscale>  0 0.26958332E+03</rscale>
<asrwt>0</asrwt>
<pdfrwt beam="1">  1        2 0.32041601E+00 0.26958332E+03</pdfrwt>
<pdfrwt beam="2">  1       -2 0.13421007E-02 0.26958332E+03</pdfrwt>
<totfact> 0.93264207E+03</totfact>
</mgrwt>
</event>
<event>
 4    1  0.6148427E-004  0.2337824E+03  0.7818608E-02  0.1124006E+00
         -2   -1    0    0    0  501 -0.00000000000E+00  0.00000000000E+00  0.11828180362E+02  0.11828180637E+02  0.25500000000E-02 0. -1.
          2   -1    0    0  501    0  0.00000000000E+00 -0.00000000000E+00 -0.11551692224E+04  0.11551692224E+04  0.25500000000E-02 0.  1.
    5000001    1    1    2    0    0 -0.15234458457E+02 -0.72153516747E+02 -0.81087835404E+03  0.81785752045E+03  0.77000000000E+02 0.  0.
   -5000001    1    1    2    0    0  0.15234458457E+02  0.72153516747E+02 -0.33246268795E+03  0.34913988254E+03  0.77000000000E+02 0.  0.
<mgrwt>
<rscale>  0 0.23378238E+03</rscale>
<asrwt>0</asrwt>
<pdfrwt beam="1">  1        2 0.17771825E+00 0.23378238E+03</pdfrwt>
<pdfrwt beam="2">  1       -2 0.18197210E-02 0.23378238E+03</pdfrwt>
<totfact> 0.18663302E+04</totfact>
</mgrwt>
</event>
<event>
 4    1  0.6148427E-004  0.4147839E+03  0.7818608E-02  0.1038777E+00
         -2   -1    0    0    0  501 -0.00000000000E+00  0.00000000000E+00  0.27052756531E+02  0.27052756651E+02  0.25500000000E-02 0. -1.
          2   -1    0    0  501    0  0.00000000000E+00 -0.00000000000E+00 -0.15899092282E+04  0.15899092282E+04  0.25500000000E-02 0.  1.
    5000001    1    1    2    0    0  0.16833349329E+03  0.48972792111E+02 -0.10920228233E+04  0.11086827075E+04  0.77000000000E+02 0.  0.
   -5000001    1    1    2    0    0 -0.16833349329E+03 -0.48972792111E+02 -0.47083364831E+03  0.50827927728E+03  0.77000000000E+02 0.  0.
<mgrwt>
<rscale>  0 0.41478393E+03</rscale>
<asrwt>0</asrwt>
<pdfrwt beam="1">  1        2 0.24460135E+00 0.41478393E+03</pdfrwt>
<pdfrwt beam="2">  1       -2 0.41619638E-02 0.41478393E+03</pdfrwt>
<totfact> 0.31591324E+03</totfact>
</mgrwt>
</event>
<event>
 4    1  0.6148427E-004  0.2439772E+03  0.7818608E-02  0.1117171E+00
         -2   -1    0    0    0  501 -0.00000000000E+00  0.00000000000E+00  0.56354531720E+01  0.56354537490E+01  0.25500000000E-02 0. -1.
          2   -1    0    0  501    0  0.00000000000E+00 -0.00000000000E+00 -0.26406421449E+04  0.26406421449E+04  0.25500000000E-02 0.  1.
    5000001    1    1    2    0    0  0.50001412548E+02 -0.62826311508E+02 -0.77464823990E+03  0.78259579749E+03  0.77000000000E+02 0.  0.
   -5000001    1    1    2    0    0 -0.50001412548E+02  0.62826311508E+02 -0.18603584518E+04  0.18636818011E+04  0.77000000000E+02 0.  0.
<mgrwt>
<rscale>  0 0.24397718E+03</rscale>
<asrwt>0</asrwt>
<pdfrwt beam="1">  1        2 0.40625165E+00 0.24397718E+03</pdfrwt>
<pdfrwt beam="2">  1       -2 0.86699495E-03 0.24397718E+03</pdfrwt>
<totfact> 0.87911609E+03</totfact>
</mgrwt>
</event>
<event>
 4    1  0.6148427E-004  0.2807257E+03  0.7818608E-02  0.1095293E+00
          2   -1    0    0  501    0  0.00000000000E+00  0.00000000000E+00  0.12852022704E+03  0.12852022707E+03  0.25500000000E-02 0.  1.
         -2   -1    0    0    0  501 -0.00000000000E+00 -0.00000000000E+00 -0.15329677514E+03  0.15329677517E+03  0.25500000000E-02 0. -1.
    5000001    1    1    2    0    0  0.63076336885E+02 -0.47640277940E+02  0.74692890549E+02  0.13325257317E+03  0.77000000000E+02 0.  0.
   -5000001    1    1    2    0    0 -0.63076336885E+02  0.47640277940E+02 -0.99469438653E+02  0.14856442906E+03  0.77000000000E+02 0.  0.
<mgrwt>
<rscale>  0 0.28072575E+03</rscale>
<asrwt>0</asrwt>
<pdfrwt beam="1">  1        2 0.19772343E-01 0.28072575E+03</pdfrwt>
<pdfrwt beam="2">  1       -2 0.23584119E-01 0.28072575E+03</pdfrwt>
<totfact> 0.44124822E+03</totfact>
</mgrwt>
</event>
<event>
 4    1  0.6148427E-004  0.2266152E+03  0.7818608E-02  0.1129045E+00
         -2   -1    0    0    0  501 -0.00000000000E+00  0.00000000000E+00  0.15678094455E+03  0.15678094457E+03  0.25500000000E-02 0. -1.
          2   -1    0    0  501    0  0.00000000000E+00 -0.00000000000E+00 -0.81888857663E+02  0.81888857703E+02  0.25500000000E-02 0.  1.
    5000001    1    1    2    0    0 -0.52013013697E+02 -0.50250667285E+02 -0.57108825804E+01  0.10579270928E+03  0.77000000000E+02 0.  0.
   -5000001    1    1    2    0    0  0.52013013697E+02  0.50250667285E+02  0.80602969469E+02  0.13287709300E+03  0.77000000000E+02 0.  0.
<mgrwt>
<rscale>  0 0.22661520E+03</rscale>
<asrwt>0</asrwt>
<pdfrwt beam="1">  1        2 0.12598286E-01 0.22661520E+03</pdfrwt>
<pdfrwt beam="2">  1       -2 0.24120145E-01 0.22661520E+03</pdfrwt>
<totfact> 0.71464037E+03</totfact>
</mgrwt>
</event>
<event>
 4    1  0.6148427E-004  0.5826107E+03  0.7818608E-02  0.9942155E-01
         -2   -1    0    0    0  501 -0.00000000000E+00  0.00000000000E+00  0.44915053642E+02  0.44915053715E+02  0.25500000000E-02 0. -1.
          2   -1    0    0  501    0  0.00000000000E+00 -0.00000000000E+00 -0.18893178542E+04  0.18893178542E+04  0.25500000000E-02 0.  1.
    5000001    1    1    2    0    0  0.15531657379E+03  0.23315950608E+03 -0.99209537085E+03  0.10337643920E+04  0.77000000000E+02 0.  0.
   -5000001    1    1    2    0    0 -0.15531657379E+03 -0.23315950608E+03 -0.85230742973E+03  0.90046851591E+03  0.77000000000E+02 0.  0.
<mgrwt>
<rscale>  0 0.58261072E+03</rscale>
<asrwt>0</asrwt>
<pdfrwt beam="1">  1        2 0.29066422E+00 0.58261072E+03</pdfrwt>
<pdfrwt beam="2">  1       -2 0.69100097E-02 0.58261072E+03</pdfrwt>
<totfact> 0.98553786E+02</totfact>
</mgrwt>
</event>
<event>
 4    1  0.6148427E-004  0.2792435E+03  0.7818608E-02  0.1096103E+00
         -2   -1    0    0    0  501 -0.00000000000E+00  0.00000000000E+00  0.12663164806E+03  0.12663164809E+03  0.25500000000E-02 0. -1.
          2   -1    0    0  501    0  0.00000000000E+00 -0.00000000000E+00 -0.15394438561E+03  0.15394438564E+03  0.25500000000E-02 0.  1.
    5000001    1    1    2    0    0  0.14933258402E+02 -0.11489461974E+03 -0.25606627554E+02  0.14145131751E+03  0.77000000000E+02 0.  0.
   -5000001    1    1    2    0    0 -0.14933258402E+02  0.11489461974E+03 -0.17061099974E+01  0.13912471622E+03  0.77000000000E+02 0.  0.
<mgrwt>
<rscale>  0 0.27924349E+03</rscale>
<asrwt>0</asrwt>
<pdfrwt beam="1">  1        2 0.23683752E-01 0.27924349E+03</pdfrwt>
<pdfrwt beam="2">  1       -2 0.19481792E-01 0.27924349E+03</pdfrwt>
<totfact> 0.49997033E+03</totfact>
</mgrwt>
</event>
<event>
 4    1  0.6148427E-004  0.2085861E+03  0.7818608E-02  0.1142691E+00
         -2   -1    0    0    0  501 -0.00000000000E+00  0.00000000000E+00  0.61617162219E+01  0.61617167495E+01  0.25500000000E-02 0. -1.
          2   -1    0    0  501    0  0.00000000000E+00 -0.00000000000E+00 -0.17652608349E+04  0.17652608349E+04  0.25500000000E-02 0.  1.
    5000001    1    1    2    0    0 -0.67098666932E+02  0.12430082528E+02 -0.10244955393E+04  0.10296488956E+04  0.77000000000E+02 0.  0.
   -5000001    1    1    2    0    0  0.67098666932E+02 -0.12430082528E+02 -0.73460357941E+03  0.74177365614E+03  0.77000000000E+02 0.  0.
<mgrwt>
<rscale>  0 0.20858607E+03</rscale>
<asrwt>0</asrwt>
<pdfrwt beam="1">  1        2 0.27157819E+00 0.20858607E+03</pdfrwt>
<pdfrwt beam="2">  1       -2 0.94795779E-03 0.20858607E+03</pdfrwt>
<totfact> 0.22481927E+04</totfact>
</mgrwt>
</event>
<event>
 4    1  0.6148427E-004  0.1986065E+03  0.7818608E-02  0.1150920E+00
          2   -1    0    0  501    0  0.00000000000E+00  0.00000000000E+00  0.14017621375E+04  0.14017621375E+04  0.25500000000E-02 0.  1.
         -2   -1    0    0    0  501 -0.00000000000E+00 -0.00000000000E+00 -0.70348119041E+01  0.70348123663E+01  0.25500000000E-02 0. -1.
    5000001    1    1    2    0    0 -0.16994328383E+02 -0.55485851035E+02  0.52880802313E+03  0.53752619674E+03  0.77000000000E+02 0.  0.
   -5000001    1    1    2    0    0  0.16994328383E+02  0.55485851035E+02  0.86591930244E+03  0.87127075310E+03  0.77000000000E+02 0.  0.
<mgrwt>
<rscale>  0 0.19860648E+03</rscale>
<asrwt>0</asrwt>
<pdfrwt beam="1">  1        2 0.21565567E+00 0.19860648E+03</pdfrwt>
<pdfrwt beam="2">  1       -2 0.10822790E-02 0.19860648E+03</pdfrwt>
<totfact> 0.28769559E+04</totfact>
</mgrwt>
</event>
<event>
 4    1  0.6148427E-004  0.2349088E+03  0.7818608E-02  0.1123232E+00
          2   -1    0    0  501    0  0.00000000000E+00  0.00000000000E+00  0.98885917886E+03  0.98885917886E+03  0.25500000000E-02 0.  1.
         -2   -1    0    0    0  501 -0.00000000000E+00 -0.00000000000E+00 -0.13950961016E+02  0.13950961249E+02  0.25500000000E-02 0. -1.
    5000001    1    1    2    0    0 -0.39140693619E+02  0.78965934453E+02  0.52991300200E+03  0.54268259820E+03  0.77000000000E+02 0.  0.
   -5000001    1    1    2    0    0  0.39140693619E+02 -0.78965934453E+02  0.44499521585E+03  0.46012754191E+03  0.77000000000E+02 0.  0.
<mgrwt>
<rscale>  0 0.23490880E+03</rscale>
<asrwt>0</asrwt>
<pdfrwt beam="1">  1        2 0.15213210E+00 0.23490880E+03</pdfrwt>
<pdfrwt beam="2">  1       -2 0.21463028E-02 0.23490880E+03</pdfrwt>
<totfact> 0.18379048E+04</totfact>
</mgrwt>
</event>
<event>
 4    1  0.6148427E-004  0.3364174E+03  0.7818608E-02  0.1068332E+00
         -2   -1    0    0    0  501 -0.00000000000E+00  0.00000000000E+00  0.40434091783E+02  0.40434091864E+02  0.25500000000E-02 0. -1.
          2   -1    0    0  501    0  0.00000000000E+00 -0.00000000000E+00 -0.69976001878E+03  0.69976001878E+03  0.25500000000E-02 0.  1.
    5000001    1    1    2    0    0  0.10870597510E+03 -0.90933690319E+02 -0.22462123746E+03  0.27653141842E+03  0.77000000000E+02 0.  0.
   -5000001    1    1    2    0    0 -0.10870597510E+03  0.90933690319E+02 -0.43470468954E+03  0.46366269223E+03  0.77000000000E+02 0.  0.
<mgrwt>
<rscale>  0 0.33641736E+03</rscale>
<asrwt>0</asrwt>
<pdfrwt beam="1">  1        2 0.10765538E+00 0.33641736E+03</pdfrwt>
<pdfrwt beam="2">  1       -2 0.62206300E-02 0.33641736E+03</pdfrwt>
<totfact> 0.58928944E+03</totfact>
</mgrwt>
</event>
<event>
 4    1  0.6148427E-004  0.2399044E+03  0.7818608E-02  0.1119857E+00
         -2   -1    0    0    0  501 -0.00000000000E+00  0.00000000000E+00  0.31504176433E+02  0.31504176536E+02  0.25500000000E-02 0. -1.
          2   -1    0    0  501    0  0.00000000000E+00 -0.00000000000E+00 -0.45671828196E+03  0.45671828197E+03  0.25500000000E-02 0.  1.
    5000001    1    1    2    0    0  0.72045725297E+02 -0.27845282209E+02 -0.11098411074E+03  0.15560340328E+03  0.77000000000E+02 0.  0.
   -5000001    1    1    2    0    0 -0.72045725297E+02  0.27845282209E+02 -0.31422999479E+03  0.33261905523E+03  0.77000000000E+02 0.  0.
<mgrwt>
<rscale>  0 0.23990443E+03</rscale>
<asrwt>0</asrwt>
<pdfrwt beam="1">  1        2 0.70264346E-01 0.23990443E+03</pdfrwt>
<pdfrwt beam="2">  1       -2 0.48467967E-02 0.23990443E+03</pdfrwt>
<totfact> 0.13939440E+04</totfact>
</mgrwt>
</event>
<event>
 4    1  0.6148427E-004  0.2279173E+03  0.7818608E-02  0.1128114E+00
          2   -1    0    0  501    0  0.00000000000E+00  0.00000000000E+00  0.39179024173E+03  0.39179024174E+03  0.25500000000E-02 0.  1.
         -2   -1    0    0    0  501 -0.00000000000E+00 -0.00000000000E+00 -0.33146757760E+02  0.33146757858E+02  0.25500000000E-02 0. -1.
    5000001    1    1    2    0    0 -0.61512529305E+02  0.56552584305E+02  0.16311185533E+03  0.19878748301E+03  0.77000000000E+02 0.  0.
   -5000001    1    1    2    0    0  0.61512529305E+02 -0.56552584305E+02  0.19553162865E+03  0.22614951659E+03  0.77000000000E+02 0.  0.
<mgrwt>
<rscale>  0 0.22791732E+03</rscale>
<asrwt>0</asrwt>
<pdfrwt beam="1">  1        2 0.60275423E-01 0.22791732E+03</pdfrwt>
<pdfrwt beam="2">  1       -2 0.50995011E-02 0.22791732E+03</pdfrwt>
<totfact> 0.15209590E+04</totfact>
</mgrwt>
</event>
<event>
 4    1  0.6148427E-004  0.1886585E+03  0.7818608E-02  0.1159677E+00
          2   -1    0    0  501    0  0.00000000000E+00  0.00000000000E+00  0.42826749432E+02  0.42826749508E+02  0.25500000000E-02 0.  1.
         -2   -1    0    0    0  501 -0.00000000000E+00 -0.00000000000E+00 -0.20776759277E+03  0.20776759279E+03  0.25500000000E-02 0. -1.
    5000001    1    1    2    0    0  0.37136257354E+02 -0.28161873256E+02 -0.11996550774E+03  0.14997638402E+03  0.77000000000E+02 0.  0.
   -5000001    1    1    2    0    0 -0.37136257354E+02  0.28161873256E+02 -0.44975335597E+02  0.10061795828E+03  0.77000000000E+02 0.  0.
<mgrwt>
<rscale>  0 0.18865853E+03</rscale>
<asrwt>0</asrwt>
<pdfrwt beam="1">  1        2 0.65887308E-02 0.18865853E+03</pdfrwt>
<pdfrwt beam="2">  1       -2 0.31964244E-01 0.18865853E+03</pdfrwt>
<totfact> 0.95936982E+03</totfact>
</mgrwt>
</event>
<event>
 4    1  0.6148427E-004  0.2127818E+03  0.7818608E-02  0.1139382E+00
         -2   -1    0    0    0  501 -0.00000000000E+00  0.00000000000E+00  0.60029798695E+02  0.60029798749E+02  0.25500000000E-02 0. -1.
          2   -1    0    0  501    0  0.00000000000E+00 -0.00000000000E+00 -0.18855670743E+03  0.18855670745E+03  0.25500000000E-02 0.  1.
    5000001    1    1    2    0    0  0.17684913126E+01  0.72220507199E+02 -0.48982237451E+02  0.11639239154E+03  0.77000000000E+02 0.  0.
   -5000001    1    1    2    0    0 -0.17684913126E+01 -0.72220507199E+02 -0.79544671286E+02  0.13219411466E+03  0.77000000000E+02 0.  0.
<mgrwt>
<rscale>  0 0.21278178E+03</rscale>
<asrwt>0</asrwt>
<pdfrwt beam="1">  1        2 0.29008724E-01 0.21278178E+03</pdfrwt>
<pdfrwt beam="2">  1       -2 0.92353537E-02 0.21278178E+03</pdfrwt>
<totfact> 0.13329749E+04</totfact>
</mgrwt>
</event>
<event>
 4    1  0.6148427E-004  0.2093962E+03  0.7818608E-02  0.1142045E+00
          2   -1    0    0  501    0  0.00000000000E+00  0.00000000000E+00  0.11257049589E+04  0.11257049589E+04  0.25500000000E-02 0.  1.
         -2   -1    0    0    0  501 -0.00000000000E+00 -0.00000000000E+00 -0.97376262794E+01  0.97376266133E+01  0.25500000000E-02 0. -1.
    5000001    1    1    2    0    0  0.21666772786E+02 -0.25546315387E+02  0.21888993311E+03  0.23444373758E+03  0.77000000000E+02 0.  0.
   -5000001    1    1    2    0    0 -0.21666772786E+02  0.25546315387E+02  0.89707739947E+03  0.90099884789E+03  0.77000000000E+02 0.  0.
<mgrwt>
<rscale>  0 0.20939622E+03</rscale>
<asrwt>0</asrwt>
<pdfrwt beam="1">  1        2 0.17318526E+00 0.20939622E+03</pdfrwt>
<pdfrwt beam="2">  1       -2 0.14980974E-02 0.20939622E+03</pdfrwt>
<totfact> 0.25623283E+04</totfact>
</mgrwt>
</event>
<event>
 4    1  0.6148427E-004  0.3546041E+03  0.7818608E-02  0.1060741E+00
         -2   -1    0    0    0  501 -0.00000000000E+00  0.00000000000E+00  0.13224880938E+02  0.13224881184E+02  0.25500000000E-02 0. -1.
          2   -1    0    0  501    0  0.00000000000E+00 -0.00000000000E+00 -0.23770362270E+04  0.23770362270E+04  0.25500000000E-02 0.  1.
    5000001    1    1    2    0    0 -0.17816239848E+02  0.15820883523E+03 -0.12670535248E+04  0.12793361906E+04  0.77000000000E+02 0.  0.
   -5000001    1    1    2    0    0  0.17816239848E+02 -0.15820883523E+03 -0.10967578214E+04  0.11109249176E+04  0.77000000000E+02 0.  0.
<mgrwt>
<rscale>  0 0.35460413E+03</rscale>
<asrwt>0</asrwt>
<pdfrwt beam="1">  1        2 0.36569754E+00 0.35460413E+03</pdfrwt>
<pdfrwt beam="2">  1       -2 0.20345990E-02 0.35460413E+03</pdfrwt>
<totfact> 0.35126868E+03</totfact>
</mgrwt>
</event>
<event>
 4    1  0.6148427E-004  0.2985985E+03  0.7818608E-02  0.1085943E+00
          2   -1    0    0  501    0  0.00000000000E+00  0.00000000000E+00  0.18038054378E+03  0.18038054379E+03  0.25500000000E-02 0.  1.
         -2   -1    0    0    0  501 -0.00000000000E+00 -0.00000000000E+00 -0.12357355134E+03  0.12357355137E+03  0.25500000000E-02 0. -1.
    5000001    1    1    2    0    0 -0.42273502228E+02  0.43255974136E+01 -0.94406587236E+02  0.12902466236E+03  0.77000000000E+02 0.  0.
   -5000001    1    1    2    0    0  0.42273502228E+02 -0.43255974136E+01  0.15121357967E+03  0.17492943280E+03  0.77000000000E+02 0.  0.
<mgrwt>
<rscale>  0 0.29859849E+03</rscale>
<asrwt>0</asrwt>
<pdfrwt beam="1">  1        2 0.27750853E-01 0.29859849E+03</pdfrwt>
<pdfrwt beam="2">  1       -2 0.19011316E-01 0.29859849E+03</pdfrwt>
<totfact> 0.43760192E+03</totfact>
</mgrwt>
</event>
<event>
 4    1  0.6148427E-004  0.2265982E+03  0.7818608E-02  0.1129057E+00
         -2   -1    0    0    0  501 -0.00000000000E+00  0.00000000000E+00  0.38724400972E+01  0.38724409368E+01  0.25500000000E-02 0. -1.
          2   -1    0    0  501    0  0.00000000000E+00 -0.00000000000E+00 -0.33148813180E+04  0.33148813180E+04  0.25500000000E-02 0.  1.
    5000001    1    1    2    0    0  0.20221742213E+02 -0.57427497082E+02 -0.24841159257E+04  0.24860546592E+04  0.77000000000E+02 0.  0.
   -5000001    1    1    2    0    0 -0.20221742213E+02  0.57427497082E+02 -0.82689295217E+03  0.83269909969E+03  0.77000000000E+02 0.  0.
<mgrwt>
<rscale>  0 0.22659815E+03</rscale>
<asrwt>0</asrwt>
<pdfrwt beam="1">  1        2 0.50997947E+00 0.22659815E+03</pdfrwt>
<pdfrwt beam="2">  1       -2 0.59576273E-03 0.22659815E+03</pdfrwt>
<totfact> 0.60499181E+03</totfact>
</mgrwt>
</event>
<event>
 4    1  0.6148427E-004  0.2155829E+03  0.7818608E-02  0.1137220E+00
          2   -1    0    0  501    0  0.00000000000E+00  0.00000000000E+00  0.40893720899E+03  0.40893720900E+03  0.25500000000E-02 0.  1.
         -2   -1    0    0    0  501 -0.00000000000E+00 -0.00000000000E+00 -0.28412669317E+02  0.28412669432E+02  0.25500000000E-02 0. -1.
    5000001    1    1    2    0    0 -0.18093891716E+02 -0.73229829919E+02  0.19020453688E+03  0.21862470756E+03  0.77000000000E+02 0.  0.
   -5000001    1    1    2    0    0  0.18093891716E+02  0.73229829919E+02  0.19032000280E+03  0.21872517087E+03  0.77000000000E+02 0.  0.
<mgrwt>
<rscale>  0 0.21558291E+03</rscale>
<asrwt>0</asrwt>
<pdfrwt beam="1">  1        2 0.62913412E-01 0.21558291E+03</pdfrwt>
<pdfrwt beam="2">  1       -2 0.43711802E-02 0.21558291E+03</pdfrwt>
<totfact> 0.18262374E+04</totfact>
</mgrwt>
</event>
<event>
 4    1  0.6148427E-004  0.4484707E+03  0.7818608E-02  0.1028179E+00
          2   -1    0    0  501    0  0.00000000000E+00  0.00000000000E+00  0.98160412011E+02  0.98160412044E+02  0.25500000000E-02 0.  1.
         -2   -1    0    0    0  501 -0.00000000000E+00 -0.00000000000E+00 -0.51223804275E+03  0.51223804276E+03  0.25500000000E-02 0. -1.
    5000001    1    1    2    0    0 -0.83805954159E+02 -0.18853516208E+03 -0.14955809241E+03  0.26620587578E+03  0.77000000000E+02 0.  0.
   -5000001    1    1    2    0    0  0.83805954159E+02  0.18853516208E+03 -0.26451953833E+03  0.34419257902E+03  0.77000000000E+02 0.  0.
<mgrwt>
<rscale>  0 0.44847072E+03</rscale>
<asrwt>0</asrwt>
<pdfrwt beam="1">  1        2 0.15101602E-01 0.44847072E+03</pdfrwt>
<pdfrwt beam="2">  1       -2 0.78805851E-01 0.44847072E+03</pdfrwt>
<totfact> 0.57269721E+02</totfact>
</mgrwt>
</event>
<event>
 4    1  0.6148427E-004  0.2277749E+03  0.7818608E-02  0.1128216E+00
          2   -1    0    0  501    0  0.00000000000E+00  0.00000000000E+00  0.26553812717E+03  0.26553812718E+03  0.25500000000E-02 0.  1.
         -2   -1    0    0    0  501 -0.00000000000E+00 -0.00000000000E+00 -0.48845523733E+02  0.48845523799E+02  0.25500000000E-02 0. -1.
    5000001    1    1    2    0    0 -0.46030349942E+02 -0.70141821507E+02  0.10608647373E+03  0.15563421265E+03  0.77000000000E+02 0.  0.
   -5000001    1    1    2    0    0  0.46030349942E+02  0.70141821507E+02  0.11060612971E+03  0.15874943833E+03  0.77000000000E+02 0.  0.
<mgrwt>
<rscale>  0 0.22777488E+03</rscale>
<asrwt>0</asrwt>
<pdfrwt beam="1">  1        2 0.40852020E-01 0.22777488E+03</pdfrwt>
<pdfrwt beam="2">  1       -2 0.75146958E-02 0.22777488E+03</pdfrwt>
<totfact> 0.12746659E+04</totfact>
</mgrwt>
</event>
<event>
 4    1  0.6148427E-004  0.2403187E+03  0.7818608E-02  0.1119581E+00
         -2   -1    0    0    0  501 -0.00000000000E+00  0.00000000000E+00  0.10196959690E+02  0.10196960009E+02  0.25500000000E-02 0. -1.
          2   -1    0    0  501    0  0.00000000000E+00 -0.00000000000E+00 -0.14159389674E+04  0.14159389674E+04  0.25500000000E-02 0.  1.
    5000001    1    1    2    0    0  0.36282653783E+02  0.78651464677E+02 -0.51457438486E+03  0.52746400959E+03  0.77000000000E+02 0.  0.
   -5000001    1    1    2    0    0 -0.36282653783E+02 -0.78651464677E+02 -0.89116762286E+03  0.89867191783E+03  0.77000000000E+02 0.  0.
<mgrwt>
<rscale>  0 0.24031873E+03</rscale>
<asrwt>0</asrwt>
<pdfrwt beam="1">  1        2 0.21783661E+00 0.24031873E+03</pdfrwt>
<pdfrwt beam="2">  1       -2 0.15687642E-02 0.24031873E+03</pdfrwt>
<totfact> 0.16642288E+04</totfact>
</mgrwt>
</event>
<event>
 4    1  0.6148427E-004  0.2638504E+03  0.7818608E-02  0.1104852E+00
          2   -1    0    0  501    0  0.00000000000E+00  0.00000000000E+00  0.23067455292E+04  0.23067455292E+04  0.25500000000E-02 0. -1.
         -2   -1    0    0    0  501 -0.00000000000E+00 -0.00000000000E+00 -0.75449412138E+01  0.75449416448E+01  0.25500000000E-02 0.  1.
    5000001    1    1    2    0    0 -0.16411734867E+02 -0.98104934794E+02  0.80080368159E+03  0.81062288379E+03  0.77000000000E+02 0.  0.
   -5000001    1    1    2    0    0  0.16411734867E+02  0.98104934794E+02  0.14983969064E+04  0.15036675870E+04  0.77000000000E+02 0.  0.
<mgrwt>
<rscale>  0 0.26385041E+03</rscale>
<asrwt>0</asrwt>
<pdfrwt beam="1">  1        2 0.35488386E+00 0.26385041E+03</pdfrwt>
<pdfrwt beam="2">  1       -2 0.11607605E-02 0.26385041E+03</pdfrwt>
<totfact> 0.87588922E+03</totfact>
</mgrwt>
</event>
<event>
 4    1  0.6148427E-004  0.6065877E+03  0.7818608E-02  0.9891832E-01
         -2   -1    0    0    0  501 -0.00000000000E+00  0.00000000000E+00  0.61534520118E+02  0.61534520171E+02  0.25500000000E-02 0. -1.
          2   -1    0    0  501    0  0.00000000000E+00 -0.00000000000E+00 -0.14948869812E+04  0.14948869812E+04  0.25500000000E-02 0.  1.
    5000001    1    1    2    0    0 -0.24841010193E+03 -0.14167944419E+03 -0.54886186934E+03  0.62366577208E+03  0.77000000000E+02 0.  0.
   -5000001    1    1    2    0    0  0.24841010193E+03  0.14167944419E+03 -0.88449059171E+03  0.93275572926E+03  0.77000000000E+02 0.  0.
<mgrwt>
<rscale>  0 0.60658768E+03</rscale>
<asrwt>0</asrwt>
<pdfrwt beam="1">  1        2 0.22998259E+00 0.60658768E+03</pdfrwt>
<pdfrwt beam="2">  1       -2 0.94668504E-02 0.60658768E+03</pdfrwt>
<totfact> 0.97640678E+02</totfact>
</mgrwt>
</event>
<event>
 4    1  0.6148427E-004  0.3502000E+03  0.7818608E-02  0.1062533E+00
          2   -1    0    0  501    0  0.00000000000E+00  0.00000000000E+00  0.16574787724E+04  0.16574787724E+04  0.25500000000E-02 0.  1.
         -2   -1    0    0    0  501 -0.00000000000E+00 -0.00000000000E+00 -0.18497975606E+02  0.18497975782E+02  0.25500000000E-02 0. -1.
    5000001    1    1    2    0    0  0.10412530470E+02  0.15356398623E+03  0.97387757145E+03  0.98896756409E+03  0.77000000000E+02 0.  0.
   -5000001    1    1    2    0    0 -0.10412530470E+02 -0.15356398623E+03  0.66510322530E+03  0.68700918405E+03  0.77000000000E+02 0.  0.
<mgrwt>
<rscale>  0 0.35019995E+03</rscale>
<asrwt>0</asrwt>
<pdfrwt beam="1">  1        2 0.25499671E+00 0.35019995E+03</pdfrwt>
<pdfrwt beam="2">  1       -2 0.28458427E-02 0.35019995E+03</pdfrwt>
<totfact> 0.51630479E+03</totfact>
</mgrwt>
</event>
<event>
 4    1  0.6148427E-004  0.3704728E+03  0.7818608E-02  0.1054512E+00
         -2   -1    0    0    0  501 -0.00000000000E+00  0.00000000000E+00  0.14867198070E+02  0.14867198289E+02  0.25500000000E-02 0. -1.
          2   -1    0    0  501    0  0.00000000000E+00 -0.00000000000E+00 -0.23079346219E+04  0.23079346219E+04  0.25500000000E-02 0.  1.
    5000001    1    1    2    0    0 -0.71820782691E+02 -0.13345996619E+03 -0.68521156697E+03  0.70598419169E+03  0.77000000000E+02 0.  0.
   -5000001    1    1    2    0    0  0.71820782691E+02  0.13345996619E+03 -0.16078558569E+04  0.16168176285E+04  0.77000000000E+02 0.  0.
<mgrwt>
<rscale>  0 0.37047279E+03</rscale>
<asrwt>0</asrwt>
<pdfrwt beam="1">  1        2 0.35506658E+00 0.37047279E+03</pdfrwt>
<pdfrwt beam="2">  1       -2 0.22872631E-02 0.37047279E+03</pdfrwt>
<totfact> 0.32159478E+03</totfact>
</mgrwt>
</event>
<event>
 4    1  0.6148427E-004  0.3059460E+03  0.7818608E-02  0.1082305E+00
         -2   -1    0    0    0  501 -0.00000000000E+00  0.00000000000E+00  0.75212156580E+02  0.75212156623E+02  0.25500000000E-02 0. -1.
          2   -1    0    0  501    0  0.00000000000E+00 -0.00000000000E+00 -0.31112975881E+03  0.31112975882E+03  0.25500000000E-02 0.  1.
    5000001    1    1    2    0    0 -0.88769539809E+02  0.62848483242E+02 -0.21280829065E+03  0.25109028578E+03  0.77000000000E+02 0.  0.
   -5000001    1    1    2    0    0  0.88769539809E+02 -0.62848483242E+02 -0.23109311574E+02  0.13525162966E+03  0.77000000000E+02 0.  0.
<mgrwt>
<rscale>  0 0.30594601E+03</rscale>
<asrwt>0</asrwt>
<pdfrwt beam="1">  1        2 0.47866116E-01 0.30594601E+03</pdfrwt>
<pdfrwt beam="2">  1       -2 0.11571101E-01 0.30594601E+03</pdfrwt>
<totfact> 0.55020327E+03</totfact>
</mgrwt>
</event>
<event>
 4    1  0.6148427E-004  0.2695714E+03  0.7818608E-02  0.1101525E+00
         -2   -1    0    0    0  501 -0.00000000000E+00  0.00000000000E+00  0.16829266061E+02  0.16829266255E+02  0.25500000000E-02 0. -1.
          2   -1    0    0  501    0  0.00000000000E+00 -0.00000000000E+00 -0.10794992867E+04  0.10794992867E+04  0.25500000000E-02 0.  1.
    5000001    1    1    2    0    0 -0.70595807573E+02  0.84109498104E+02 -0.47677061304E+03  0.49527506820E+03  0.77000000000E+02 0.  0.
   -5000001    1    1    2    0    0  0.70595807573E+02 -0.84109498104E+02 -0.58589940755E+03  0.60105348471E+03  0.77000000000E+02 0.  0.
<mgrwt>
<rscale>  0 0.26957137E+03</rscale>
<asrwt>0</asrwt>
<pdfrwt beam="1">  1        2 0.16607676E+00 0.26957137E+03</pdfrwt>
<pdfrwt beam="2">  1       -2 0.25891187E-02 0.26957137E+03</pdfrwt>
<totfact> 0.12359624E+04</totfact>
</mgrwt>
</event>
<event>
 4    1  0.6148427E-004  0.3641649E+03  0.7818608E-02  0.1056947E+00
         -2   -1    0    0    0  501 -0.00000000000E+00  0.00000000000E+00  0.22288274610E+02  0.22288274756E+02  0.25500000000E-02 0. -1.
          2   -1    0    0  501    0  0.00000000000E+00 -0.00000000000E+00 -0.14875094277E+04  0.14875094277E+04  0.25500000000E-02 0.  1.
    5000001    1    1    2    0    0 -0.44160304171E+02  0.82429014837E+02 -0.16900445937E+03  0.20793311963E+03  0.77000000000E+02 0.  0.
   -5000001    1    1    2    0    0  0.44160304171E+02 -0.82429014837E+02 -0.12962166937E+04  0.13018645828E+04  0.77000000000E+02 0.  0.
<mgrwt>
<rscale>  0 0.36416490E+03</rscale>
<asrwt>0</asrwt>
<pdfrwt beam="1">  1        2 0.22884753E+00 0.36416490E+03</pdfrwt>
<pdfrwt beam="2">  1       -2 0.34289665E-02 0.36416490E+03</pdfrwt>
<totfact> 0.48157450E+03</totfact>
</mgrwt>
</event>
<event>
 4    1  0.6148427E-004  0.1950934E+03  0.7818608E-02  0.1153946E+00
          2   -1    0    0  501    0  0.00000000000E+00  0.00000000000E+00  0.27026021142E+04  0.27026021142E+04  0.25500000000E-02 0.  1.
         -2   -1    0    0    0  501 -0.00000000000E+00 -0.00000000000E+00 -0.35208146013E+01  0.35208155248E+01  0.25500000000E-02 0. -1.
    5000001    1    1    2    0    0  0.50151231110E+02 -0.31533246972E+02  0.14711550409E+04  0.14743594019E+04  0.77000000000E+02 0.  0.
   -5000001    1    1    2    0    0 -0.50151231110E+02  0.31533246972E+02  0.12279262587E+04  0.12317635278E+04  0.77000000000E+02 0.  0.
<mgrwt>
<rscale>  0 0.19509344E+03</rscale>
<asrwt>0</asrwt>
<pdfrwt beam="1">  1        2 0.41578332E+00 0.19509344E+03</pdfrwt>
<pdfrwt beam="2">  1       -2 0.54166597E-03 0.19509344E+03</pdfrwt>
<totfact> 0.15924267E+04</totfact>
</mgrwt>
</event>
<event>
 4    1  0.6148427E-004  0.2622309E+03  0.7818608E-02  0.1105810E+00
          2   -1    0    0  501    0  0.00000000000E+00  0.00000000000E+00  0.88111334609E+03  0.88111334609E+03  0.25500000000E-02 0.  1.
         -2   -1    0    0    0  501 -0.00000000000E+00 -0.00000000000E+00 -0.19510837244E+02  0.19510837410E+02  0.25500000000E-02 0. -1.
    5000001    1    1    2    0    0  0.45634014318E+02  0.95088285866E+02  0.47114916152E+03  0.48891183026E+03  0.77000000000E+02 0.  0.
   -5000001    1    1    2    0    0 -0.45634014318E+02 -0.95088285866E+02  0.39045334732E+03  0.41171235324E+03  0.77000000000E+02 0.  0.
<mgrwt>
<rscale>  0 0.26223088E+03</rscale>
<asrwt>0</asrwt>
<pdfrwt beam="1">  1        2 0.13555589E+00 0.26223088E+03</pdfrwt>
<pdfrwt beam="2">  1       -2 0.30016674E-02 0.26223088E+03</pdfrwt>
<totfact> 0.13156622E+04</totfact>
</mgrwt>
</event>
<event>
 4    1  0.6148427E-004  0.2925444E+03  0.7818608E-02  0.1089028E+00
          2   -1    0    0  501    0  0.00000000000E+00  0.00000000000E+00  0.36054402740E+03  0.36054402741E+03  0.25500000000E-02 0.  1.
         -2   -1    0    0    0  501 -0.00000000000E+00 -0.00000000000E+00 -0.59342406947E+02  0.59342407002E+02  0.25500000000E-02 0. -1.
    5000001    1    1    2    0    0  0.96529326567E+02 -0.65029772551E+02  0.87713283678E+02  0.16483143614E+03  0.77000000000E+02 0.  0.
   -5000001    1    1    2    0    0 -0.96529326567E+02  0.65029772551E+02  0.21348833677E+03  0.25505499827E+03  0.77000000000E+02 0.  0.
<mgrwt>
<rscale>  0 0.29254436E+03</rscale>
<asrwt>0</asrwt>
<pdfrwt beam="1">  1        2 0.55468312E-01 0.29254436E+03</pdfrwt>
<pdfrwt beam="2">  1       -2 0.91296011E-02 0.29254436E+03</pdfrwt>
<totfact> 0.68398960E+03</totfact>
</mgrwt>
</event>
<event>
 4    1  0.6148427E-004  0.1697053E+03  0.7818608E-02  0.1178156E+00
         -2   -1    0    0    0  501 -0.00000000000E+00  0.00000000000E+00  0.39924333139E+02  0.39924333221E+02  0.25500000000E-02 0. -1.
          2   -1    0    0  501    0  0.00000000000E+00 -0.00000000000E+00 -0.18034038020E+03  0.18034038022E+03  0.25500000000E-02 0.  1.
    5000001    1    1    2    0    0  0.88356545005E+01 -0.28199610988E+02 -0.44324828221E+02  0.93632137897E+02  0.77000000000E+02 0.  0.
   -5000001    1    1    2    0    0 -0.88356545005E+01  0.28199610988E+02 -0.96091218839E+02  0.12663257554E+03  0.77000000000E+02 0.  0.
<mgrwt>
<rscale>  0 0.16970527E+03</rscale>
<asrwt>0</asrwt>
<pdfrwt beam="1">  1        2 0.27744673E-01 0.16970527E+03</pdfrwt>
<pdfrwt beam="2">  1       -2 0.61422052E-02 0.16970527E+03</pdfrwt>
<totfact> 0.25855977E+04</totfact>
</mgrwt>
</event>
<event>
 4    1  0.6148427E-004  0.2278301E+03  0.7818608E-02  0.1128176E+00
         -2   -1    0    0    0  501 -0.00000000000E+00  0.00000000000E+00  0.23344658545E+02  0.23344658684E+02  0.25500000000E-02 0. -1.
          2   -1    0    0  501    0  0.00000000000E+00 -0.00000000000E+00 -0.55587191185E+03  0.55587191186E+03  0.25500000000E-02 0.  1.
    5000001    1    1    2    0    0  0.59874753377E+02  0.50294253906E+02 -0.18860249569E+03  0.21820723968E+03  0.77000000000E+02 0.  0.
   -5000001    1    1    2    0    0 -0.59874753377E+02 -0.50294253906E+02 -0.34392475762E+03  0.36100933087E+03  0.77000000000E+02 0.  0.
<mgrwt>
<rscale>  0 0.22783011E+03</rscale>
<asrwt>0</asrwt>
<pdfrwt beam="1">  1        2 0.85518746E-01 0.22783011E+03</pdfrwt>
<pdfrwt beam="2">  1       -2 0.35914863E-02 0.22783011E+03</pdfrwt>
<totfact> 0.17515252E+04</totfact>
</mgrwt>
</event>
<event>
 4    1  0.6148427E-004  0.5076395E+03  0.7818608E-02  0.1011804E+00
         -2   -1    0    0    0  501 -0.00000000000E+00  0.00000000000E+00  0.24991480801E+02  0.24991480931E+02  0.25500000000E-02 0. -1.
          2   -1    0    0  501    0  0.00000000000E+00 -0.00000000000E+00 -0.25778565945E+04  0.25778565945E+04  0.25500000000E-02 0.  1.
    5000001    1    1    2    0    0  0.10664498881E+03 -0.15498146412E+03 -0.20557745395E+04  0.20658001755E+04  0.77000000000E+02 0.  0.
   -5000001    1    1    2    0    0 -0.10664498881E+03  0.15498146412E+03 -0.49709057417E+03  0.53704789990E+03  0.77000000000E+02 0.  0.
<mgrwt>
<rscale>  0 0.50763945E+03</rscale>
<asrwt>0</asrwt>
<pdfrwt beam="1">  1        2 0.39659311E+00 0.50763945E+03</pdfrwt>
<pdfrwt beam="2">  1       -2 0.38448452E-02 0.50763945E+03</pdfrwt>
<totfact> 0.10309588E+03</totfact>
</mgrwt>
</event>
<event>
 4    1  0.6148427E-004  0.2983140E+03  0.7818608E-02  0.1086086E+00
         -2   -1    0    0    0  501 -0.00000000000E+00  0.00000000000E+00  0.80341105106E+03  0.80341105106E+03  0.25500000000E-02 0. -1.
          2   -1    0    0  501    0  0.00000000000E+00 -0.00000000000E+00 -0.27691693343E+02  0.27691693461E+02  0.25500000000E-02 0.  1.
    5000001    1    1    2    0    0  0.76863264265E+02  0.10076197563E+03  0.43259865104E+03  0.45730900933E+03  0.77000000000E+02 0.  0.
   -5000001    1    1    2    0    0 -0.76863264265E+02 -0.10076197563E+03  0.34312070667E+03  0.37379373520E+03  0.77000000000E+02 0.  0.
<mgrwt>
<rscale>  0 0.29831401E+03</rscale>
<asrwt>0</asrwt>
<pdfrwt beam="1">  1        2 0.42602609E-02 0.29831401E+03</pdfrwt>
<pdfrwt beam="2">  1       -2 0.12360169E+00 0.29831401E+03</pdfrwt>
<totfact> 0.10082463E+03</totfact>
</mgrwt>
</event>
<event>
 4    1  0.6148427E-004  0.2620772E+03  0.7818608E-02  0.1105902E+00
         -2   -1    0    0    0  501 -0.00000000000E+00  0.00000000000E+00  0.88094541263E+01  0.88094544954E+01  0.25500000000E-02 0. -1.
          2   -1    0    0  501    0  0.00000000000E+00 -0.00000000000E+00 -0.19491683309E+04  0.19491683309E+04  0.25500000000E-02 0.  1.
    5000001    1    1    2    0    0 -0.94583231477E+02 -0.39792584363E+02 -0.77073432114E+03  0.78133848698E+03  0.77000000000E+02 0.  0.
   -5000001    1    1    2    0    0  0.94583231477E+02  0.39792584363E+02 -0.11696245556E+04  0.11766392984E+04  0.77000000000E+02 0.  0.
<mgrwt>
<rscale>  0 0.26207716E+03</rscale>
<asrwt>0</asrwt>
<pdfrwt beam="1">  1        2 0.29987171E+00 0.26207716E+03</pdfrwt>
<pdfrwt beam="2">  1       -2 0.13553022E-02 0.26207716E+03</pdfrwt>
<totfact> 0.10804102E+04</totfact>
</mgrwt>
</event>
<event>
 4    1  0.6148427E-004  0.3299146E+03  0.7818608E-02  0.1071175E+00
         -2   -1    0    0    0  501 -0.00000000000E+00  0.00000000000E+00  0.20207699929E+03  0.20207699931E+03  0.25500000000E-02 0. -1.
          2   -1    0    0  501    0  0.00000000000E+00 -0.00000000000E+00 -0.13465615310E+03  0.13465615313E+03  0.25500000000E-02 0.  1.
    5000001    1    1    2    0    0 -0.11881693005E+03 -0.58268070006E+02 -0.28952920790E+02  0.15582009649E+03  0.77000000000E+02 0.  0.
   -5000001    1    1    2    0    0  0.11881693005E+03  0.58268070006E+02  0.96373766980E+02  0.18091305594E+03  0.77000000000E+02 0.  0.
<mgrwt>
<rscale>  0 0.32991460E+03</rscale>
<asrwt>0</asrwt>
<pdfrwt beam="1">  1        2 0.20716331E-01 0.32991460E+03</pdfrwt>
<pdfrwt beam="2">  1       -2 0.31088769E-01 0.32991460E+03</pdfrwt>
<totfact> 0.25605443E+03</totfact>
</mgrwt>
</event>
<event>
 4    1  0.6148427E-004  0.2683066E+03  0.7818608E-02  0.1102253E+00
          2   -1    0    0  501    0  0.00000000000E+00  0.00000000000E+00  0.45051614987E+03  0.45051614987E+03  0.25500000000E-02 0. -1.
         -2   -1    0    0    0  501 -0.00000000000E+00 -0.00000000000E+00 -0.39947746348E+02  0.39947746429E+02  0.25500000000E-02 0.  1.
    5000001    1    1    2    0    0 -0.98935979516E+01 -0.10838185999E+03  0.17795003480E+03  0.22235045703E+03  0.77000000000E+02 0.  0.
   -5000001    1    1    2    0    0  0.98935979516E+01  0.10838185999E+03  0.23261836872E+03  0.26811343928E+03  0.77000000000E+02 0.  0.
<mgrwt>
<rscale>  0 0.26830658E+03</rscale>
<asrwt>0</asrwt>
<pdfrwt beam="1">  1        2 0.69310176E-01 0.26830658E+03</pdfrwt>
<pdfrwt beam="2">  1       -2 0.61458072E-02 0.26830658E+03</pdfrwt>
<totfact> 0.99042329E+03</totfact>
</mgrwt>
</event>
<event>
 4    1  0.6148427E-004  0.1993621E+03  0.7818608E-02  0.1150278E+00
         -2   -1    0    0    0  501 -0.00000000000E+00  0.00000000000E+00  0.42247485918E+01  0.42247493614E+01  0.25500000000E-02 0. -1.
          2   -1    0    0  501    0  0.00000000000E+00 -0.00000000000E+00 -0.23519283863E+04  0.23519283863E+04  0.25500000000E-02 0.  1.
    5000001    1    1    2    0    0 -0.27120486578E+02 -0.56665110896E+02 -0.10816591215E+04  0.10862144865E+04  0.77000000000E+02 0.  0.
   -5000001    1    1    2    0    0  0.27120486578E+02  0.56665110896E+02 -0.12660445162E+04  0.12699386491E+04  0.77000000000E+02 0.  0.
<mgrwt>
<rscale>  0 0.19936205E+03</rscale>
<asrwt>0</asrwt>
<pdfrwt beam="1">  1        2 0.36183409E+00 0.19936205E+03</pdfrwt>
<pdfrwt beam="2">  1       -2 0.64996326E-03 0.19936205E+03</pdfrwt>
<totfact> 0.19044858E+04</totfact>
</mgrwt>
</event>
<event>
 4    1  0.6148427E-004  0.2210250E+03  0.7818608E-02  0.1133121E+00
         -2   -1    0    0    0  501 -0.00000000000E+00  0.00000000000E+00  0.17519770432E+03  0.17519770433E+03  0.25500000000E-02 0. -1.
          2   -1    0    0  501    0  0.00000000000E+00 -0.00000000000E+00 -0.69709916926E+02  0.69709916973E+02  0.25500000000E-02 0.  1.
    5000001    1    1    2    0    0  0.62913552885E+02 -0.28451157870E+02  0.95893074862E+02  0.14103923329E+03  0.77000000000E+02 0.  0.
   -5000001    1    1    2    0    0 -0.62913552885E+02  0.28451157870E+02  0.95947125281E+01  0.10386838802E+03  0.77000000000E+02 0.  0.
<mgrwt>
<rscale>  0 0.22102504E+03</rscale>
<asrwt>0</asrwt>
<pdfrwt beam="1">  1        2 0.10724603E-01 0.22102504E+03</pdfrwt>
<pdfrwt beam="2">  1       -2 0.26953493E-01 0.22102504E+03</pdfrwt>
<totfact> 0.71374130E+03</totfact>
</mgrwt>
</event>
<event>
 4    1  0.6148427E-004  0.2160346E+03  0.7818608E-02  0.1136874E+00
          2   -1    0    0  501    0  0.00000000000E+00  0.00000000000E+00  0.20655813815E+02  0.20655813973E+02  0.25500000000E-02 0.  1.
         -2   -1    0    0    0  501 -0.00000000000E+00 -0.00000000000E+00 -0.56486476869E+03  0.56486476869E+03  0.25500000000E-02 0. -1.
    5000001    1    1    2    0    0 -0.61379712282E+02 -0.44367096223E+02 -0.26754242836E+03  0.28852011937E+03  0.77000000000E+02 0.  0.
   -5000001    1    1    2    0    0  0.61379712282E+02  0.44367096223E+02 -0.27666652651E+03  0.29700046329E+03  0.77000000000E+02 0.  0.
<mgrwt>
<rscale>  0 0.21603464E+03</rscale>
<asrwt>0</asrwt>
<pdfrwt beam="1">  1        2 0.31778180E-02 0.21603464E+03</pdfrwt>
<pdfrwt beam="2">  1       -2 0.86902260E-01 0.21603464E+03</pdfrwt>
<totfact> 0.33736754E+03</totfact>
</mgrwt>
</event>
<event>
 4    1  0.6148427E-004  0.1920360E+03  0.7818608E-02  0.1156638E+00
         -2   -1    0    0    0  501 -0.00000000000E+00  0.00000000000E+00  0.98904424163E+01  0.98904427450E+01  0.25500000000E-02 0. -1.
          2   -1    0    0  501    0  0.00000000000E+00 -0.00000000000E+00 -0.93215837053E+03  0.93215837053E+03  0.25500000000E-02 0.  1.
    5000001    1    1    2    0    0 -0.13600583839E+02 -0.54521781747E+02 -0.51767776576E+03  0.52638091694E+03  0.77000000000E+02 0.  0.
   -5000001    1    1    2    0    0  0.13600583839E+02  0.54521781747E+02 -0.40459016235E+03  0.41566789633E+03  0.77000000000E+02 0.  0.
<mgrwt>
<rscale>  0 0.19203603E+03</rscale>
<asrwt>0</asrwt>
<pdfrwt beam="1">  1        2 0.14340891E+00 0.19203603E+03</pdfrwt>
<pdfrwt beam="2">  1       -2 0.15216073E-02 0.19203603E+03</pdfrwt>
<totfact> 0.32537458E+04</totfact>
</mgrwt>
</event>
<event>
 4    1  0.6148427E-004  0.3290194E+03  0.7818608E-02  0.1071572E+00
          2   -1    0    0  501    0  0.00000000000E+00  0.00000000000E+00  0.65217059020E+03  0.65217059020E+03  0.25500000000E-02 0.  1.
         -2   -1    0    0    0  501 -0.00000000000E+00 -0.00000000000E+00 -0.41497495889E+02  0.41497495967E+02  0.25500000000E-02 0. -1.
    5000001    1    1    2    0    0 -0.85063072707E+02  0.11084263364E+03  0.39000032081E+03  0.42136808850E+03  0.77000000000E+02 0.  0.
   -5000001    1    1    2    0    0  0.85063072707E+02 -0.11084263364E+03  0.22067277350E+03  0.27229999767E+03  0.77000000000E+02 0.  0.
<mgrwt>
<rscale>  0 0.32901943E+03</rscale>
<asrwt>0</asrwt>
<pdfrwt beam="1">  1        2 0.10033393E+00 0.32901943E+03</pdfrwt>
<pdfrwt beam="2">  1       -2 0.63842303E-02 0.32901943E+03</pdfrwt>
<totfact> 0.61612636E+03</totfact>
</mgrwt>
</event>
<event>
 4    1  0.6148427E-004  0.2182998E+03  0.7818608E-02  0.1135157E+00
         -2   -1    0    0    0  501 -0.00000000000E+00  0.00000000000E+00  0.29524904166E+02  0.29524904277E+02  0.25500000000E-02 0. -1.
          2   -1    0    0  501    0  0.00000000000E+00 -0.00000000000E+00 -0.40351349885E+03  0.40351349885E+03  0.25500000000E-02 0.  1.
    5000001    1    1    2    0    0 -0.30284619894E+02 -0.59086497053E+02 -0.26575254160E+03  0.28453784581E+03  0.77000000000E+02 0.  0.
   -5000001    1    1    2    0    0  0.30284619894E+02  0.59086497053E+02 -0.10823605308E+03  0.14850055732E+03  0.77000000000E+02 0.  0.
<mgrwt>
<rscale>  0 0.21829977E+03</rscale>
<asrwt>0</asrwt>
<pdfrwt beam="1">  1        2 0.62078996E-01 0.21829977E+03</pdfrwt>
<pdfrwt beam="2">  1       -2 0.45422932E-02 0.21829977E+03</pdfrwt>
<totfact> 0.17501658E+04</totfact>
</mgrwt>
</event>
<event>
 4    1  0.6148427E-004  0.4200991E+03  0.7818608E-02  0.1037034E+00
         -2   -1    0    0    0  501 -0.00000000000E+00  0.00000000000E+00  0.45882250860E+02  0.45882250931E+02  0.25500000000E-02 0. -1.
          2   -1    0    0  501    0  0.00000000000E+00 -0.00000000000E+00 -0.96160975239E+03  0.96160975239E+03  0.25500000000E-02 0.  1.
    5000001    1    1    2    0    0 -0.93634021179E+01  0.19319173361E+03 -0.39083774564E+03  0.44282486680E+03  0.77000000000E+02 0.  0.
   -5000001    1    1    2    0    0  0.93634021179E+01 -0.19319173361E+03 -0.52488975588E+03  0.56466713652E+03  0.77000000000E+02 0.  0.
<mgrwt>
<rscale>  0 0.42009913E+03</rscale>
<asrwt>0</asrwt>
<pdfrwt beam="1">  1        2 0.14793995E+00 0.42009913E+03</pdfrwt>
<pdfrwt beam="2">  1       -2 0.70588086E-02 0.42009913E+03</pdfrwt>
<totfact> 0.32037003E+03</totfact>
</mgrwt>
</event>
<event>
 4    1  0.6148427E-004  0.2344150E+03  0.7818608E-02  0.1123570E+00
          2   -1    0    0  501    0  0.00000000000E+00  0.00000000000E+00  0.37196443882E+03  0.37196443882E+03  0.25500000000E-02 0.  1.
         -2   -1    0    0    0  501 -0.00000000000E+00 -0.00000000000E+00 -0.36932554661E+02  0.36932554749E+02  0.25500000000E-02 0. -1.
    5000001    1    1    2    0    0 -0.39152580847E+02 -0.76432628182E+02  0.13118838954E+03  0.17468332716E+03  0.77000000000E+02 0.  0.
   -5000001    1    1    2    0    0  0.39152580847E+02  0.76432628182E+02  0.20384349461E+03  0.23421366641E+03  0.77000000000E+02 0.  0.
<mgrwt>
<rscale>  0 0.23441499E+03</rscale>
<asrwt>0</asrwt>
<pdfrwt beam="1">  1        2 0.57225297E-01 0.23441499E+03</pdfrwt>
<pdfrwt beam="2">  1       -2 0.56819316E-02 0.23441499E+03</pdfrwt>
<totfact> 0.13668350E+04</totfact>
</mgrwt>
</event>
<event>
 4    1  0.6148427E-004  0.3526724E+03  0.7818608E-02  0.1061523E+00
          2   -1    0    0  501    0  0.00000000000E+00  0.00000000000E+00  0.28746312521E+03  0.28746312522E+03  0.25500000000E-02 0.  1.
         -2   -1    0    0    0  501 -0.00000000000E+00 -0.00000000000E+00 -0.10816851936E+03  0.10816851939E+03  0.25500000000E-02 0. -1.
    5000001    1    1    2    0    0  0.15039140080E+02 -0.13218528181E+03 -0.72860603890E+01  0.15388700770E+03  0.77000000000E+02 0.  0.
   -5000001    1    1    2    0    0 -0.15039140080E+02  0.13218528181E+03  0.18658066624E+03  0.24174463691E+03  0.77000000000E+02 0.  0.
<mgrwt>
<rscale>  0 0.35267243E+03</rscale>
<asrwt>0</asrwt>
<pdfrwt beam="1">  1        2 0.44225096E-01 0.35267243E+03</pdfrwt>
<pdfrwt beam="2">  1       -2 0.16641311E-01 0.35267243E+03</pdfrwt>
<totfact> 0.33068058E+03</totfact>
</mgrwt>
</event>
<event>
 4    1  0.6148427E-004  0.1897847E+03  0.7818608E-02  0.1158656E+00
         -2   -1    0    0    0  501 -0.00000000000E+00  0.00000000000E+00  0.40186066251E+02  0.40186066332E+02  0.25500000000E-02 0. -1.
          2   -1    0    0  501    0  0.00000000000E+00 -0.00000000000E+00 -0.22407169100E+03  0.22407169102E+03  0.25500000000E-02 0.  1.
    5000001    1    1    2    0    0  0.35691663573E+02  0.39689351233E+02 -0.11289475350E+03  0.14670843472E+03  0.77000000000E+02 0.  0.
   -5000001    1    1    2    0    0 -0.35691663573E+02 -0.39689351233E+02 -0.70990871257E+02  0.11754932263E+03  0.77000000000E+02 0.  0.
<mgrwt>
<rscale>  0 0.18978472E+03</rscale>
<asrwt>0</asrwt>
<pdfrwt beam="1">  1        2 0.34472567E-01 0.18978472E+03</pdfrwt>
<pdfrwt beam="2">  1       -2 0.61824719E-02 0.18978472E+03</pdfrwt>
<totfact> 0.20410758E+04</totfact>
</mgrwt>
</event>
<event>
 4    1  0.6148427E-004  0.3355142E+03  0.7818608E-02  0.1068723E+00
         -2   -1    0    0    0  501 -0.00000000000E+00  0.00000000000E+00  0.42461245226E+02  0.42461245302E+02  0.25500000000E-02 0. -1.
          2   -1    0    0  501    0  0.00000000000E+00 -0.00000000000E+00 -0.66277973502E+03  0.66277973502E+03  0.25500000000E-02 0.  1.
    5000001    1    1    2    0    0  0.12841243357E+03  0.75979298991E+01 -0.46838010984E+03  0.49178898821E+03  0.77000000000E+02 0.  0.
   -5000001    1    1    2    0    0 -0.12841243357E+03 -0.75979298991E+01 -0.15193837995E+03  0.21345199211E+03  0.77000000000E+02 0.  0.
<mgrwt>
<rscale>  0 0.33551425E+03</rscale>
<asrwt>0</asrwt>
<pdfrwt beam="1">  1        2 0.10196611E+00 0.33551425E+03</pdfrwt>
<pdfrwt beam="2">  1       -2 0.65324998E-02 0.33551425E+03</pdfrwt>
<totfact> 0.58346945E+03</totfact>
</mgrwt>
</event>
<event>
 4    1  0.6148427E-004  0.2361547E+03  0.7818608E-02  0.1122381E+00
          2   -1    0    0  501    0  0.00000000000E+00  0.00000000000E+00  0.29591697793E+03  0.29591697794E+03  0.25500000000E-02 0.  1.
         -2   -1    0    0    0  501 -0.00000000000E+00 -0.00000000000E+00 -0.47115460157E+02  0.47115460226E+02  0.25500000000E-02 0. -1.
    5000001    1    1    2    0    0 -0.67853804877E+02  0.55307210174E+02  0.97216322710E+02  0.15179934036E+03  0.77000000000E+02 0.  0.
   -5000001    1    1    2    0    0  0.67853804877E+02 -0.55307210174E+02  0.15158519506E+03  0.19123309780E+03  0.77000000000E+02 0.  0.
<mgrwt>
<rscale>  0 0.23615473E+03</rscale>
<asrwt>0</asrwt>
<pdfrwt beam="1">  1        2 0.45525689E-01 0.23615473E+03</pdfrwt>
<pdfrwt beam="2">  1       -2 0.72485323E-02 0.23615473E+03</pdfrwt>
<totfact> 0.12025453E+04</totfact>
</mgrwt>
</event>
<event>
 4    1  0.6148427E-004  0.3247581E+03  0.7818608E-02  0.1073480E+00
         -2   -1    0    0    0  501 -0.00000000000E+00  0.00000000000E+00  0.18607357460E+02  0.18607357635E+02  0.25500000000E-02 0. -1.
          2   -1    0    0  501    0  0.00000000000E+00 -0.00000000000E+00 -0.14170179448E+04  0.14170179448E+04  0.25500000000E-02 0.  1.
    5000001    1    1    2    0    0 -0.34820038230E+02 -0.68395351806E+02 -0.12323888690E+04  0.12371748800E+04  0.77000000000E+02 0.  0.
   -5000001    1    1    2    0    0  0.34820038230E+02  0.68395351806E+02 -0.16602171829E+03  0.19845042241E+03  0.77000000000E+02 0.  0.
<mgrwt>
<rscale>  0 0.32475812E+03</rscale>
<asrwt>0</asrwt>
<pdfrwt beam="1">  1        2 0.21800268E+00 0.32475812E+03</pdfrwt>
<pdfrwt beam="2">  1       -2 0.28626715E-02 0.32475812E+03</pdfrwt>
<totfact> 0.68912599E+03</totfact>
</mgrwt>
</event>
<event>
 4    1  0.6148427E-004  0.1769732E+03  0.7818608E-02  0.1170765E+00
          2   -1    0    0  501    0  0.00000000000E+00  0.00000000000E+00  0.18691432901E+04  0.18691432901E+04  0.25500000000E-02 0.  1.
         -2   -1    0    0    0  501 -0.00000000000E+00 -0.00000000000E+00 -0.41890205587E+01  0.41890213348E+01  0.25500000000E-02 0. -1.
    5000001    1    1    2    0    0  0.39513340295E+02 -0.12757097446E+02  0.10732401877E+04  0.10767996788E+04  0.77000000000E+02 0.  0.
   -5000001    1    1    2    0    0 -0.39513340295E+02  0.12757097446E+02  0.79171408176E+03  0.79653263263E+03  0.77000000000E+02 0.  0.
<mgrwt>
<rscale>  0 0.17697322E+03</rscale>
<asrwt>0</asrwt>
<pdfrwt beam="1">  1        2 0.28756038E+00 0.17697322E+03</pdfrwt>
<pdfrwt beam="2">  1       -2 0.64446504E-03 0.17697322E+03</pdfrwt>
<totfact> 0.34282395E+04</totfact>
</mgrwt>
</event>
<event>
 4    1  0.6148427E-004  0.4453791E+03  0.7818608E-02  0.1029109E+00
          2   -1    0    0  501    0  0.00000000000E+00  0.00000000000E+00  0.17351670927E+04  0.17351670927E+04  0.25500000000E-02 0.  1.
         -2   -1    0    0    0  501 -0.00000000000E+00 -0.00000000000E+00 -0.28579743309E+02  0.28579743423E+02  0.25500000000E-02 0. -1.
    5000001    1    1    2    0    0  0.12158869612E+03  0.14081944903E+03  0.12299762938E+04  0.12463485113E+04  0.77000000000E+02 0.  0.
   -5000001    1    1    2    0    0 -0.12158869612E+03 -0.14081944903E+03  0.47661105560E+03  0.51739832486E+03  0.77000000000E+02 0.  0.
<mgrwt>
<rscale>  0 0.44537908E+03</rscale>
<asrwt>0</asrwt>
<pdfrwt beam="1">  1        2 0.26694877E+00 0.44537908E+03</pdfrwt>
<pdfrwt beam="2">  1       -2 0.43968838E-02 0.44537908E+03</pdfrwt>
<totfact> 0.24248037E+03</totfact>
</mgrwt>
</event>
<event>
 4    1  0.6148427E-004  0.3422866E+03  0.7818608E-02  0.1065826E+00
         -2   -1    0    0    0  501 -0.00000000000E+00  0.00000000000E+00  0.39621616979E+03  0.39621616980E+03  0.25500000000E-02 0. -1.
          2   -1    0    0  501    0  0.00000000000E+00 -0.00000000000E+00 -0.73924358211E+02  0.73924358255E+02  0.25500000000E-02 0.  1.
    5000001    1    1    2    0    0  0.30248393914E+02  0.11774489596E+03  0.28838985424E+03  0.32229882700E+03  0.77000000000E+02 0.  0.
   -5000001    1    1    2    0    0 -0.30248393914E+02 -0.11774489596E+03  0.33901957343E+02  0.14784170105E+03  0.77000000000E+02 0.  0.
<mgrwt>
<rscale>  0 0.34228658E+03</rscale>
<asrwt>0</asrwt>
<pdfrwt beam="1">  1        2 0.11372978E-01 0.34228658E+03</pdfrwt>
<pdfrwt beam="2">  1       -2 0.60956335E-01 0.34228658E+03</pdfrwt>
<totfact> 0.14035878E+03</totfact>
</mgrwt>
</event>
<event>
 4    1  0.6148427E-004  0.1706655E+03  0.7818608E-02  0.1177156E+00
          2   -1    0    0  501    0  0.00000000000E+00  0.00000000000E+00  0.20306720455E+02  0.20306720615E+02  0.25500000000E-02 0.  1.
         -2   -1    0    0    0  501 -0.00000000000E+00 -0.00000000000E+00 -0.35858449692E+03  0.35858449693E+03  0.25500000000E-02 0. -1.
    5000001    1    1    2    0    0 -0.10203850419E+02  0.16635474240E+02 -0.99930095556E+02  0.12765532329E+03  0.77000000000E+02 0.  0.
   -5000001    1    1    2    0    0  0.10203850419E+02 -0.16635474240E+02 -0.23834768091E+03  0.25123589425E+03  0.77000000000E+02 0.  0.
<mgrwt>
<rscale>  0 0.17066546E+03</rscale>
<asrwt>0</asrwt>
<pdfrwt beam="1">  1        2 0.31241111E-02 0.17066546E+03</pdfrwt>
<pdfrwt beam="2">  1       -2 0.55166841E-01 0.17066546E+03</pdfrwt>
<totfact> 0.89381261E+03</totfact>
</mgrwt>
</event>
<event>
 4    1  0.6148427E-004  0.1634423E+03  0.7818608E-02  0.1184864E+00
         -2   -1    0    0    0  501 -0.00000000000E+00  0.00000000000E+00  0.10240978317E+02  0.10240978634E+02  0.25500000000E-02 0. -1.
          2   -1    0    0  501    0  0.00000000000E+00 -0.00000000000E+00 -0.65212025773E+03  0.65212025774E+03  0.25500000000E-02 0.  1.
    5000001    1    1    2    0    0  0.71600205865E+01  0.23001292267E+02 -0.37362679685E+03  0.38223854943E+03  0.77000000000E+02 0.  0.
   -5000001    1    1    2    0    0 -0.71600205865E+01 -0.23001292267E+02 -0.26825248256E+03  0.28012268695E+03  0.77000000000E+02 0.  0.
<mgrwt>
<rscale>  0 0.16344234E+03</rscale>
<asrwt>0</asrwt>
<pdfrwt beam="1">  1        2 0.10032616E+00 0.16344234E+03</pdfrwt>
<pdfrwt beam="2">  1       -2 0.15755357E-02 0.16344234E+03</pdfrwt>
<totfact> 0.47667442E+04</totfact>
</mgrwt>
</event>
<event>
 4    1  0.6148427E-004  0.1979343E+03  0.7818608E-02  0.1151494E+00
          2   -1    0    0  501    0  0.00000000000E+00  0.00000000000E+00  0.11516946807E+03  0.11516946810E+03  0.25500000000E-02 0.  1.
         -2   -1    0    0    0  501 -0.00000000000E+00 -0.00000000000E+00 -0.85044238334E+02  0.85044238372E+02  0.25500000000E-02 0. -1.
    5000001    1    1    2    0    0 -0.40251677818E+02  0.26944248744E+02  0.54489804436E+02  0.10603927996E+03  0.77000000000E+02 0.  0.
   -5000001    1    1    2    0    0  0.40251677818E+02 -0.26944248744E+02 -0.24364574701E+02  0.94174426507E+02  0.77000000000E+02 0.  0.
<mgrwt>
<rscale>  0 0.19793433E+03</rscale>
<asrwt>0</asrwt>
<pdfrwt beam="1">  1        2 0.17718379E-01 0.19793433E+03</pdfrwt>
<pdfrwt beam="2">  1       -2 0.13083729E-01 0.19793433E+03</pdfrwt>
<totfact> 0.13245603E+04</totfact>
</mgrwt>
</event>
<event>
 4    1  0.6148427E-004  0.2653754E+03  0.7818608E-02  0.1103956E+00
          2   -1    0    0  501    0  0.00000000000E+00  0.00000000000E+00  0.65078932403E+03  0.65078932403E+03  0.25500000000E-02 0.  1.
         -2   -1    0    0    0  501 -0.00000000000E+00 -0.00000000000E+00 -0.27053333219E+02  0.27053333339E+02  0.25500000000E-02 0. -1.
    5000001    1    1    2    0    0  0.10489701486E+02 -0.10594143243E+03  0.35920144456E+03  0.38247653355E+03  0.77000000000E+02 0.  0.
   -5000001    1    1    2    0    0 -0.10489701486E+02  0.10594143243E+03  0.26453454624E+03  0.29536612382E+03  0.77000000000E+02 0.  0.
<mgrwt>
<rscale>  0 0.26537536E+03</rscale>
<asrwt>0</asrwt>
<pdfrwt beam="1">  1        2 0.10012144E+00 0.26537536E+03</pdfrwt>
<pdfrwt beam="2">  1       -2 0.41620511E-02 0.26537536E+03</pdfrwt>
<totfact> 0.11783298E+04</totfact>
</mgrwt>
</event>
<event>
 4    1  0.6148427E-004  0.2188610E+03  0.7818608E-02  0.1134735E+00
         -2   -1    0    0    0  501 -0.00000000000E+00  0.00000000000E+00  0.30450597006E+03  0.30450597007E+03  0.25500000000E-02 0. -1.
          2   -1    0    0  501    0  0.00000000000E+00 -0.00000000000E+00 -0.39326103293E+02  0.39326103375E+02  0.25500000000E-02 0.  1.
    5000001    1    1    2    0    0  0.47101814059E+02  0.59375618728E+02  0.15989058777E+03  0.19297161720E+03  0.77000000000E+02 0.  0.
   -5000001    1    1    2    0    0 -0.47101814059E+02 -0.59375618728E+02  0.10528927899E+03  0.15086045624E+03  0.77000000000E+02 0.  0.
<mgrwt>
<rscale>  0 0.21886099E+03</rscale>
<asrwt>0</asrwt>
<pdfrwt beam="1">  1        2 0.60501696E-02 0.21886099E+03</pdfrwt>
<pdfrwt beam="2">  1       -2 0.46847073E-01 0.21886099E+03</pdfrwt>
<totfact> 0.52445509E+03</totfact>
</mgrwt>
</event>
<event>
 4    1  0.6148427E-004  0.4515134E+03  0.7818608E-02  0.1027272E+00
          2   -1    0    0  501    0  0.00000000000E+00  0.00000000000E+00  0.77336121996E+03  0.77336121997E+03  0.25500000000E-02 0.  1.
         -2   -1    0    0    0  501 -0.00000000000E+00 -0.00000000000E+00 -0.65902060427E+02  0.65902060477E+02  0.25500000000E-02 0. -1.
    5000001    1    1    2    0    0 -0.87251447290E+02 -0.13234326394E+03  0.91453801941E+02  0.19854559289E+03  0.77000000000E+02 0.  0.
   -5000001    1    1    2    0    0  0.87251447290E+02  0.13234326394E+03  0.61600535759E+03  0.64071768756E+03  0.77000000000E+02 0.  0.
<mgrwt>
<rscale>  0 0.45151345E+03</rscale>
<asrwt>0</asrwt>
<pdfrwt beam="1">  1        2 0.11897864E+00 0.45151345E+03</pdfrwt>
<pdfrwt beam="2">  1       -2 0.10138779E-01 0.45151345E+03</pdfrwt>
<totfact> 0.24146653E+03</totfact>
</mgrwt>
</event>
<event>
 4    1  0.6148427E-004  0.7274248E+03  0.7818608E-02  0.9671448E-01
         -2   -1    0    0    0  501 -0.00000000000E+00  0.00000000000E+00  0.24334406869E+03  0.24334406870E+03  0.25500000000E-02 0. -1.
          2   -1    0    0  501    0  0.00000000000E+00 -0.00000000000E+00 -0.54361997016E+03  0.54361997016E+03  0.25500000000E-02 0.  1.
    5000001    1    1    2    0    0 -0.12832149746E+01  0.30958973401E+03  0.38830654528E+02  0.32137870150E+03  0.77000000000E+02 0.  0.
   -5000001    1    1    2    0    0  0.12832149746E+01 -0.30958973401E+03 -0.33910655600E+03  0.46558533736E+03  0.77000000000E+02 0.  0.
<mgrwt>
<rscale>  0 0.72742476E+03</rscale>
<asrwt>0</asrwt>
<pdfrwt beam="1">  1        2 0.83633841E-01 0.72742476E+03</pdfrwt>
<pdfrwt beam="2">  1       -2 0.37437549E-01 0.72742476E+03</pdfrwt>
<totfact> 0.37828977E+02</totfact>
</mgrwt>
</event>
<event>
 4    1  0.6148427E-004  0.4048257E+03  0.7818608E-02  0.1042121E+00
         -2   -1    0    0    0  501 -0.00000000000E+00  0.00000000000E+00  0.57149070554E+03  0.57149070555E+03  0.25500000000E-02 0. -1.
          2   -1    0    0  501    0  0.00000000000E+00 -0.00000000000E+00 -0.71691378368E+02  0.71691378413E+02  0.25500000000E-02 0.  1.
    5000001    1    1    2    0    0 -0.41460569486E+02 -0.17985457875E+03  0.29951738403E+03  0.36014762481E+03  0.77000000000E+02 0.  0.
   -5000001    1    1    2    0    0  0.41460569486E+02  0.17985457875E+03  0.20028194315E+03  0.28303445915E+03  0.77000000000E+02 0.  0.
<mgrwt>
<rscale>  0 0.40482567E+03</rscale>
<asrwt>0</asrwt>
<pdfrwt beam="1">  1        2 0.11029443E-01 0.40482567E+03</pdfrwt>
<pdfrwt beam="2">  1       -2 0.87921647E-01 0.40482567E+03</pdfrwt>
<totfact> 0.65783470E+02</totfact>
</mgrwt>
</event>
<event>
 4    1  0.6148427E-004  0.5234609E+03  0.7818608E-02  0.1007830E+00
          2   -1    0    0  501    0  0.00000000000E+00  0.00000000000E+00  0.76545357821E+03  0.76545357822E+03  0.25500000000E-02 0.  1.
         -2   -1    0    0    0  501 -0.00000000000E+00 -0.00000000000E+00 -0.89493124168E+02  0.89493124204E+02  0.25500000000E-02 0. -1.
    5000001    1    1    2    0    0  0.10396432880E+03  0.22516264501E+03  0.39133138667E+03  0.46965524862E+03  0.77000000000E+02 0.  0.
   -5000001    1    1    2    0    0 -0.10396432880E+03 -0.22516264501E+03  0.28462906738E+03  0.38529145380E+03  0.77000000000E+02 0.  0.
<mgrwt>
<rscale>  0 0.52346091E+03</rscale>
<asrwt>0</asrwt>
<pdfrwt beam="1">  1        2 0.11776209E+00 0.52346091E+03</pdfrwt>
<pdfrwt beam="2">  1       -2 0.13768173E-01 0.52346091E+03</pdfrwt>
<totfact> 0.14824524E+03</totfact>
</mgrwt>
</event>
<event>
 4    1  0.6148427E-004  0.2954489E+03  0.7818608E-02  0.1087538E+00
          2   -1    0    0  501    0  0.00000000000E+00  0.00000000000E+00  0.13537139428E+04  0.13537139428E+04  0.25500000000E-02 0.  1.
         -2   -1    0    0    0  501 -0.00000000000E+00 -0.00000000000E+00 -0.16120480836E+02  0.16120481037E+02  0.25500000000E-02 0. -1.
    5000001    1    1    2    0    0  0.70463195373E+02  0.10413267998E+03  0.62609029742E+03  0.64321593378E+03  0.77000000000E+02 0.  0.
   -5000001    1    1    2    0    0 -0.70463195373E+02 -0.10413267998E+03  0.71150316453E+03  0.72661849005E+03  0.77000000000E+02 0.  0.
<mgrwt>
<rscale>  0 0.29544895E+03</rscale>
<asrwt>0</asrwt>
<pdfrwt beam="1">  1        2 0.20826365E+00 0.29544895E+03</pdfrwt>
<pdfrwt beam="2">  1       -2 0.24800744E-02 0.29544895E+03</pdfrwt>
<totfact> 0.92264848E+03</totfact>
</mgrwt>
</event>
<event>
 4    1  0.6148427E-004  0.2570343E+03  0.7818608E-02  0.1108938E+00
          2   -1    0    0  501    0  0.00000000000E+00  0.00000000000E+00  0.26323475872E+04  0.26323475872E+04  0.25500000000E-02 0.  1.
         -2   -1    0    0    0  501 -0.00000000000E+00 -0.00000000000E+00 -0.62744966430E+01  0.62744971612E+01  0.25500000000E-02 0. -1.
    5000001    1    1    2    0    0  0.15155232555E+02  0.52752002582E+02  0.41955984334E+03  0.43008361628E+03  0.77000000000E+02 0.  0.
   -5000001    1    1    2    0    0 -0.15155232555E+02 -0.52752002582E+02  0.22065132472E+04  0.22085384681E+04  0.77000000000E+02 0.  0.
<mgrwt>
<rscale>  0 0.25703429E+03</rscale>
<asrwt>0</asrwt>
<pdfrwt beam="1">  1        2 0.40497567E+00 0.25703429E+03</pdfrwt>
<pdfrwt beam="2">  1       -2 0.96530931E-03 0.25703429E+03</pdfrwt>
<totfact> 0.76057455E+03</totfact>
</mgrwt>
</event>
<event>
 4    1  0.6148427E-004  0.2195098E+03  0.7818608E-02  0.1134249E+00
          2   -1    0    0  501    0  0.00000000000E+00  0.00000000000E+00  0.10638094628E+03  0.10638094631E+03  0.25500000000E-02 0.  1.
         -2   -1    0    0    0  501 -0.00000000000E+00 -0.00000000000E+00 -0.11323588408E+03  0.11323588411E+03  0.25500000000E-02 0. -1.
    5000001    1    1    2    0    0  0.27947161755E+02 -0.72975786077E+02 -0.16531128858E+00  0.10970659293E+03  0.77000000000E+02 0.  0.
   -5000001    1    1    2    0    0 -0.27947161755E+02  0.72975786077E+02 -0.66896265100E+01  0.10991023750E+03  0.77000000000E+02 0.  0.
<mgrwt>
<rscale>  0 0.21950982E+03</rscale>
<asrwt>0</asrwt>
<pdfrwt beam="1">  1        2 0.16366299E-01 0.21950982E+03</pdfrwt>
<pdfrwt beam="2">  1       -2 0.17420905E-01 0.21950982E+03</pdfrwt>
<totfact> 0.91242057E+03</totfact>
</mgrwt>
</event>
<event>
 4    1  0.6148427E-004  0.2887167E+03  0.7818608E-02  0.1091021E+00
          2   -1    0    0  501    0  0.00000000000E+00  0.00000000000E+00  0.83753067040E+03  0.83753067040E+03  0.25500000000E-02 0.  1.
         -2   -1    0    0    0  501 -0.00000000000E+00 -0.00000000000E+00 -0.24881883095E+02  0.24881883226E+02  0.25500000000E-02 0. -1.
    5000001    1    1    2    0    0 -0.69140149576E+02 -0.10059688995E+03  0.39676314335E+03  0.42219673906E+03  0.77000000000E+02 0.  0.
   -5000001    1    1    2    0    0  0.69140149576E+02  0.10059688995E+03  0.41588564395E+03  0.44021581457E+03  0.77000000000E+02 0.  0.
<mgrwt>
<rscale>  0 0.28871675E+03</rscale>
<asrwt>0</asrwt>
<pdfrwt beam="1">  1        2 0.12885086E+00 0.28871675E+03</pdfrwt>
<pdfrwt beam="2">  1       -2 0.38279825E-02 0.28871675E+03</pdfrwt>
<totfact> 0.98078988E+03</totfact>
</mgrwt>
</event>
<event>
 4    1  0.6148427E-004  0.2377486E+03  0.7818608E-02  0.1121302E+00
          2   -1    0    0  501    0  0.00000000000E+00  0.00000000000E+00  0.48560155112E+03  0.48560155113E+03  0.25500000000E-02 0.  1.
         -2   -1    0    0    0  501 -0.00000000000E+00 -0.00000000000E+00 -0.29100186634E+02  0.29100186746E+02  0.25500000000E-02 0. -1.
    5000001    1    1    2    0    0 -0.23583759589E+02  0.63249447445E+02  0.97540061246E+02  0.14142047188E+03  0.77000000000E+02 0.  0.
   -5000001    1    1    2    0    0  0.23583759589E+02 -0.63249447445E+02  0.35896130324E+03  0.37328126599E+03  0.77000000000E+02 0.  0.
<mgrwt>
<rscale>  0 0.23774857E+03</rscale>
<asrwt>0</asrwt>
<pdfrwt beam="1">  1        2 0.74707927E-01 0.23774857E+03</pdfrwt>
<pdfrwt beam="2">  1       -2 0.44769520E-02 0.23774857E+03</pdfrwt>
<totfact> 0.14679574E+04</totfact>
</mgrwt>
</event>
<event>
 4    1  0.6148427E-004  0.4439741E+03  0.7818608E-02  0.1029534E+00
         -2   -1    0    0    0  501 -0.00000000000E+00  0.00000000000E+00  0.19665974870E+02  0.19665975035E+02  0.25500000000E-02 0. -1.
          2   -1    0    0  501    0  0.00000000000E+00 -0.00000000000E+00 -0.25057614747E+04  0.25057614747E+04  0.25500000000E-02 0.  1.
    5000001    1    1    2    0    0 -0.12204277171E+03 -0.98368390813E+01 -0.28515825972E+03  0.31974276320E+03  0.77000000000E+02 0.  0.
   -5000001    1    1    2    0    0  0.12204277171E+03  0.98368390813E+01 -0.22009372401E+04  0.22056846865E+04  0.77000000000E+02 0.  0.
<mgrwt>
<rscale>  0 0.44397406E+03</rscale>
<asrwt>0</asrwt>
<pdfrwt beam="1">  1        2 0.38550151E+00 0.44397406E+03</pdfrwt>
<pdfrwt beam="2">  1       -2 0.30255366E-02 0.44397406E+03</pdfrwt>
<totfact> 0.16374883E+03</totfact>
</mgrwt>
</event>
<event>
 4    1  0.6148427E-004  0.2175056E+03  0.7818608E-02  0.1135756E+00
         -2   -1    0    0    0  501 -0.00000000000E+00  0.00000000000E+00  0.11126194348E+02  0.11126194640E+02  0.25500000000E-02 0. -1.
          2   -1    0    0  501    0  0.00000000000E+00 -0.00000000000E+00 -0.10630027375E+04  0.10630027376E+04  0.25500000000E-02 0.  1.
    5000001    1    1    2    0    0 -0.23139319525E+02  0.57370849049E+02 -0.75069403796E+03  0.75716403841E+03  0.77000000000E+02 0.  0.
   -5000001    1    1    2    0    0  0.23139319525E+02 -0.57370849049E+02 -0.30118250524E+03  0.31696489378E+03  0.77000000000E+02 0.  0.
<mgrwt>
<rscale>  0 0.21750563E+03</rscale>
<asrwt>0</asrwt>
<pdfrwt beam="1">  1        2 0.16353880E+00 0.21750563E+03</pdfrwt>
<pdfrwt beam="2">  1       -2 0.17117231E-02 0.21750563E+03</pdfrwt>
<totfact> 0.23006041E+04</totfact>
</mgrwt>
</event>
<event>
 4    1  0.6148427E-004  0.1989690E+03  0.7818608E-02  0.1150612E+00
         -2   -1    0    0    0  501 -0.00000000000E+00  0.00000000000E+00  0.17308110546E+02  0.17308110734E+02  0.25500000000E-02 0. -1.
          2   -1    0    0  501    0  0.00000000000E+00 -0.00000000000E+00 -0.57182264082E+03  0.57182264082E+03  0.25500000000E-02 0.  1.
    5000001    1    1    2    0    0  0.51367353591E+02  0.26576018175E+02 -0.20333628593E+03  0.22498785508E+03  0.77000000000E+02 0.  0.
   -5000001    1    1    2    0    0 -0.51367353591E+02 -0.26576018175E+02 -0.35117824434E+03  0.36414289647E+03  0.77000000000E+02 0.  0.
<mgrwt>
<rscale>  0 0.19896904E+03</rscale>
<asrwt>0</asrwt>
<pdfrwt beam="1">  1        2 0.87972699E-01 0.19896904E+03</pdfrwt>
<pdfrwt beam="2">  1       -2 0.26627867E-02 0.19896904E+03</pdfrwt>
<totfact> 0.26201399E+04</totfact>
</mgrwt>
</event>
<event>
 4    1  0.6148427E-004  0.4800099E+03  0.7818608E-02  0.1019132E+00
          2   -1    0    0  501    0  0.00000000000E+00  0.00000000000E+00  0.11173878437E+04  0.11173878437E+04  0.25500000000E-02 0.  1.
         -2   -1    0    0    0  501 -0.00000000000E+00 -0.00000000000E+00 -0.51550926284E+02  0.51550926347E+02  0.25500000000E-02 0. -1.
    5000001    1    1    2    0    0 -0.21236273052E+03 -0.39730666248E+01  0.33568420053E+03  0.40463143360E+03  0.77000000000E+02 0.  0.
   -5000001    1    1    2    0    0  0.21236273052E+03  0.39730666248E+01  0.73015271685E+03  0.76430733641E+03  0.77000000000E+02 0.  0.
<mgrwt>
<rscale>  0 0.48000991E+03</rscale>
<asrwt>0</asrwt>
<pdfrwt beam="1">  1        2 0.17190580E+00 0.48000991E+03</pdfrwt>
<pdfrwt beam="2">  1       -2 0.79309125E-02 0.48000991E+03</pdfrwt>
<totfact> 0.21378850E+03</totfact>
</mgrwt>
</event>
<event>
 4    1  0.6148427E-004  0.2661070E+03  0.7818608E-02  0.1103529E+00
         -2   -1    0    0    0  501 -0.00000000000E+00  0.00000000000E+00  0.13451540796E+02  0.13451541038E+02  0.25500000000E-02 0. -1.
          2   -1    0    0  501    0  0.00000000000E+00 -0.00000000000E+00 -0.13160749782E+04  0.13160749782E+04  0.25500000000E-02 0.  1.
    5000001    1    1    2    0    0 -0.15700994704E+02  0.90700435343E+02 -0.93837196582E+03  0.94601481830E+03  0.77000000000E+02 0.  0.
   -5000001    1    1    2    0    0  0.15700994704E+02 -0.90700435343E+02 -0.36425147157E+03  0.38351170092E+03  0.77000000000E+02 0.  0.
<mgrwt>
<rscale>  0 0.26610702E+03</rscale>
<asrwt>0</asrwt>
<pdfrwt beam="1">  1        2 0.20247297E+00 0.26610702E+03</pdfrwt>
<pdfrwt beam="2">  1       -2 0.20694689E-02 0.26610702E+03</pdfrwt>
<totfact> 0.12612151E+04</totfact>
</mgrwt>
</event>
<event>
 4    1  0.6148427E-004  0.2591133E+03  0.7818608E-02  0.1107677E+00
          2   -1    0    0  501    0  0.00000000000E+00  0.00000000000E+00  0.15633104548E+04  0.15633104548E+04  0.25500000000E-02 0.  1.
         -2   -1    0    0    0  501 -0.00000000000E+00 -0.00000000000E+00 -0.10736786267E+02  0.10736786570E+02  0.25500000000E-02 0. -1.
    5000001    1    1    2    0    0  0.16092952062E+02  0.99080666054E+02  0.60663183707E+03  0.61968310227E+03  0.77000000000E+02 0.  0.
   -5000001    1    1    2    0    0 -0.16092952062E+02 -0.99080666054E+02  0.94594183142E+03  0.95436413906E+03  0.77000000000E+02 0.  0.
<mgrwt>
<rscale>  0 0.25911334E+03</rscale>
<asrwt>0</asrwt>
<pdfrwt beam="1">  1        2 0.24050928E+00 0.25911334E+03</pdfrwt>
<pdfrwt beam="2">  1       -2 0.16518135E-02 0.25911334E+03</pdfrwt>
<totfact> 0.12904459E+04</totfact>
</mgrwt>
</event>
<event>
 4    1  0.6148427E-004  0.2248995E+03  0.7818608E-02  0.1130282E+00
         -2   -1    0    0    0  501 -0.00000000000E+00  0.00000000000E+00  0.19558411937E+02  0.19558412103E+02  0.25500000000E-02 0. -1.
          2   -1    0    0  501    0  0.00000000000E+00 -0.00000000000E+00 -0.64652221709E+03  0.64652221710E+03  0.25500000000E-02 0.  1.
    5000001    1    1    2    0    0 -0.18398643413E+02 -0.75997830221E+02 -0.38613475942E+03  0.40142649727E+03  0.77000000000E+02 0.  0.
   -5000001    1    1    2    0    0  0.18398643413E+02  0.75997830221E+02 -0.24082904573E+03  0.26465413193E+03  0.77000000000E+02 0.  0.
<mgrwt>
<rscale>  0 0.22489951E+03</rscale>
<asrwt>0</asrwt>
<pdfrwt beam="1">  1        2 0.99464940E-01 0.22489951E+03</pdfrwt>
<pdfrwt beam="2">  1       -2 0.30089870E-02 0.22489951E+03</pdfrwt>
<totfact> 0.19125727E+04</totfact>
</mgrwt>
</event>
<event>
 4    1  0.6148427E-004  0.2159696E+03  0.7818608E-02  0.1136924E+00
          2   -1    0    0  501    0  0.00000000000E+00  0.00000000000E+00  0.12518142835E+02  0.12518143095E+02  0.25500000000E-02 0.  1.
         -2   -1    0    0    0  501 -0.00000000000E+00 -0.00000000000E+00 -0.93150518726E+03  0.93150518726E+03  0.25500000000E-02 0. -1.
    5000001    1    1    2    0    0  0.31250835420E+01  0.62690008672E+02 -0.64452620729E+03  0.65213712915E+03  0.77000000000E+02 0.  0.
   -5000001    1    1    2    0    0 -0.31250835420E+01 -0.62690008672E+02 -0.27446083713E+03  0.29188620120E+03  0.77000000000E+02 0.  0.
<mgrwt>
<rscale>  0 0.21596958E+03</rscale>
<asrwt>0</asrwt>
<pdfrwt beam="1">  1        2 0.19258689E-02 0.21596958E+03</pdfrwt>
<pdfrwt beam="2">  1       -2 0.14330844E+00 0.21596958E+03</pdfrwt>
<totfact> 0.20328694E+03</totfact>
</mgrwt>
</event>
<event>
 4    1  0.6148427E-004  0.2001480E+03  0.7818608E-02  0.1149614E+00
          2   -1    0    0  501    0  0.00000000000E+00  0.00000000000E+00  0.50758997128E+02  0.50758997192E+02  0.25500000000E-02 0.  1.
         -2   -1    0    0    0  501 -0.00000000000E+00 -0.00000000000E+00 -0.19730102151E+03  0.19730102152E+03  0.25500000000E-02 0. -1.
    5000001    1    1    2    0    0 -0.55817273421E+02  0.28044925102E+02 -0.56472173105E+02  0.11410605668E+03  0.77000000000E+02 0.  0.
   -5000001    1    1    2    0    0  0.55817273421E+02 -0.28044925102E+02 -0.90069851273E+02  0.13395396203E+03  0.77000000000E+02 0.  0.
<mgrwt>
<rscale>  0 0.20014797E+03</rscale>
<asrwt>0</asrwt>
<pdfrwt beam="1">  1        2 0.78090766E-02 0.20014797E+03</pdfrwt>
<pdfrwt beam="2">  1       -2 0.30354003E-01 0.20014797E+03</pdfrwt>
<totfact> 0.85179630E+03</totfact>
</mgrwt>
</event>
<event>
 4    1  0.6148427E-004  0.2280364E+03  0.7818608E-02  0.1128030E+00
          2   -1    0    0  501    0  0.00000000000E+00  0.00000000000E+00  0.15925094593E+04  0.15925094593E+04  0.25500000000E-02 0.  1.
         -2   -1    0    0    0  501 -0.00000000000E+00 -0.00000000000E+00 -0.81633101857E+01  0.81633105840E+01  0.25500000000E-02 0. -1.
    5000001    1    1    2    0    0 -0.32029806437E+02  0.54186934025E+02  0.40078289644E+03  0.41293832760E+03  0.77000000000E+02 0.  0.
   -5000001    1    1    2    0    0  0.32029806437E+02 -0.54186934025E+02  0.11835632526E+04  0.11877344422E+04  0.77000000000E+02 0.  0.
<mgrwt>
<rscale>  0 0.22803639E+03</rscale>
<asrwt>0</asrwt>
<pdfrwt beam="1">  1        2 0.24500131E+00 0.22803639E+03</pdfrwt>
<pdfrwt beam="2">  1       -2 0.12558947E-02 0.22803639E+03</pdfrwt>
<totfact> 0.18491828E+04</totfact>
</mgrwt>
</event>
<event>
 4    1  0.6148427E-004  0.3795907E+03  0.7818608E-02  0.1051085E+00
          2   -1    0    0  501    0  0.00000000000E+00  0.00000000000E+00  0.16053808037E+03  0.16053808039E+03  0.25500000000E-02 0.  1.
         -2   -1    0    0    0  501 -0.00000000000E+00 -0.00000000000E+00 -0.22438458030E+03  0.22438458032E+03  0.25500000000E-02 0. -1.
    5000001    1    1    2    0    0 -0.10688969679E+03 -0.13658228454E+03 -0.35599370231E+02  0.19307108249E+03  0.77000000000E+02 0.  0.
   -5000001    1    1    2    0    0  0.10688969679E+03  0.13658228454E+03 -0.28247129700E+02  0.19185157823E+03  0.77000000000E+02 0.  0.
<mgrwt>
<rscale>  0 0.37959067E+03</rscale>
<asrwt>0</asrwt>
<pdfrwt beam="1">  1        2 0.24698166E-01 0.37959067E+03</pdfrwt>
<pdfrwt beam="2">  1       -2 0.34520705E-01 0.37959067E+03</pdfrwt>
<totfact> 0.17301897E+03</totfact>
</mgrwt>
</event>
<event>
 4    1  0.6148427E-004  0.2474840E+03  0.7818608E-02  0.1114905E+00
         -2   -1    0    0    0  501 -0.00000000000E+00  0.00000000000E+00  0.67572127298E+02  0.67572127346E+02  0.25500000000E-02 0. -1.
          2   -1    0    0  501    0  0.00000000000E+00 -0.00000000000E+00 -0.22660347224E+03  0.22660347225E+03  0.25500000000E-02 0.  1.
    5000001    1    1    2    0    0 -0.56971883764E+02 -0.60671720376E+02 -0.20605039034E+02  0.11524070820E+03  0.77000000000E+02 0.  0.
   -5000001    1    1    2    0    0  0.56971883764E+02  0.60671720376E+02 -0.13842630591E+03  0.17893489140E+03  0.77000000000E+02 0.  0.
<mgrwt>
<rscale>  0 0.24748397E+03</rscale>
<asrwt>0</asrwt>
<pdfrwt beam="1">  1        2 0.34862072E-01 0.24748397E+03</pdfrwt>
<pdfrwt beam="2">  1       -2 0.10395712E-01 0.24748397E+03</pdfrwt>
<totfact> 0.91238394E+03</totfact>
</mgrwt>
</event>
<event>
 4    1  0.6148427E-004  0.2166795E+03  0.7818608E-02  0.1136383E+00
         -2   -1    0    0    0  501 -0.00000000000E+00  0.00000000000E+00  0.35318518583E+01  0.35318527788E+01  0.25500000000E-02 0. -1.
          2   -1    0    0  501    0  0.00000000000E+00 -0.00000000000E+00 -0.33233287275E+04  0.33233287275E+04  0.25500000000E-02 0.  1.
    5000001    1    1    2    0    0 -0.31309655869E+02 -0.46598943641E+02 -0.24512911484E+04  0.24531426885E+04  0.77000000000E+02 0.  0.
   -5000001    1    1    2    0    0  0.31309655869E+02  0.46598943641E+02 -0.86850572720E+03  0.87371789170E+03  0.77000000000E+02 0.  0.
<mgrwt>
<rscale>  0 0.21667954E+03</rscale>
<asrwt>0</asrwt>
<pdfrwt beam="1">  1        2 0.51127884E+00 0.21667954E+03</pdfrwt>
<pdfrwt beam="2">  1       -2 0.54336455E-03 0.21667954E+03</pdfrwt>
<totfact> 0.68241739E+03</totfact>
</mgrwt>
</event>
<event>
 4    1  0.6148427E-004  0.2017950E+03  0.7818608E-02  0.1148233E+00
         -2   -1    0    0    0  501 -0.00000000000E+00  0.00000000000E+00  0.47773163029E+02  0.47773163097E+02  0.25500000000E-02 0. -1.
          2   -1    0    0  501    0  0.00000000000E+00 -0.00000000000E+00 -0.21309673872E+03  0.21309673874E+03  0.25500000000E-02 0.  1.
    5000001    1    1    2    0    0  0.43461428233E+02 -0.39996725276E+02 -0.46960627603E+02  0.10780971349E+03  0.77000000000E+02 0.  0.
   -5000001    1    1    2    0    0 -0.43461428233E+02  0.39996725276E+02 -0.11836294809E+03  0.15306018835E+03  0.77000000000E+02 0.  0.
<mgrwt>
<rscale>  0 0.20179500E+03</rscale>
<asrwt>0</asrwt>
<pdfrwt beam="1">  1        2 0.32784113E-01 0.20179500E+03</pdfrwt>
<pdfrwt beam="2">  1       -2 0.73497175E-02 0.20179500E+03</pdfrwt>
<totfact> 0.16595805E+04</totfact>
</mgrwt>
</event>
<event>
 4    1  0.6148427E-004  0.6361335E+03  0.7818608E-02  0.9833152E-01
          2   -1    0    0  501    0  0.00000000000E+00  0.00000000000E+00  0.14193547328E+04  0.14193547328E+04  0.25500000000E-02 0.  1.
         -2   -1    0    0    0  501 -0.00000000000E+00 -0.00000000000E+00 -0.71276382219E+02  0.71276382265E+02  0.25500000000E-02 0. -1.
    5000001    1    1    2    0    0 -0.17032416257E+03  0.22045751153E+03  0.98513507175E+03  0.10266605789E+04  0.77000000000E+02 0.  0.
   -5000001    1    1    2    0    0  0.17032416257E+03 -0.22045751153E+03  0.36294327880E+03  0.46397053610E+03  0.77000000000E+02 0.  0.
<mgrwt>
<rscale>  0 0.63613354E+03</rscale>
<asrwt>0</asrwt>
<pdfrwt beam="1">  1        2 0.21836225E+00 0.63613354E+03</pdfrwt>
<pdfrwt beam="2">  1       -2 0.10965598E-01 0.63613354E+03</pdfrwt>
<totfact> 0.84593515E+02</totfact>
</mgrwt>
</event>
<event>
 4    1  0.6148427E-004  0.1689337E+03  0.7818608E-02  0.1178964E+00
          2   -1    0    0  501    0  0.00000000000E+00  0.00000000000E+00  0.74432589013E+03  0.74432589014E+03  0.25500000000E-02 0.  1.
         -2   -1    0    0    0  501 -0.00000000000E+00 -0.00000000000E+00 -0.95853795618E+01  0.95853799010E+01  0.25500000000E-02 0. -1.
    5000001    1    1    2    0    0 -0.18135984826E+02  0.24531275610E+02  0.29337055007E+03  0.30483762412E+03  0.77000000000E+02 0.  0.
   -5000001    1    1    2    0    0  0.18135984826E+02 -0.24531275610E+02  0.44136996050E+03  0.44907364592E+03  0.77000000000E+02 0.  0.
<mgrwt>
<rscale>  0 0.16893367E+03</rscale>
<asrwt>0</asrwt>
<pdfrwt beam="1">  1        2 0.11451170E+00 0.16893367E+03</pdfrwt>
<pdfrwt beam="2">  1       -2 0.14746735E-02 0.16893367E+03</pdfrwt>
<totfact> 0.44932697E+04</totfact>
</mgrwt>
</event>
<event>
 4    1  0.6148427E-004  0.1673507E+03  0.7818608E-02  0.1180639E+00
          2   -1    0    0  501    0  0.00000000000E+00  0.00000000000E+00  0.37534266199E+04  0.37534266199E+04  0.25500000000E-02 0.  1.
         -2   -1    0    0    0  501 -0.00000000000E+00 -0.00000000000E+00 -0.18653785601E+01  0.18653803030E+01  0.25500000000E-02 0. -1.
    5000001    1    1    2    0    0  0.14088192279E+02 -0.18698362922E+02  0.23896726495E+04  0.23910274941E+04  0.77000000000E+02 0.  0.
   -5000001    1    1    2    0    0 -0.14088192279E+02  0.18698362922E+02  0.13618885918E+04  0.13642645061E+04  0.77000000000E+02 0.  0.
<mgrwt>
<rscale>  0 0.16735071E+03</rscale>
<asrwt>0</asrwt>
<pdfrwt beam="1">  1        2 0.57744457E+00 0.16735071E+03</pdfrwt>
<pdfrwt beam="2">  1       -2 0.28698427E-03 0.16735071E+03</pdfrwt>
<totfact> 0.88026741E+03</totfact>
</mgrwt>
</event>
<event>
 4    1  0.6148427E-004  0.2127987E+03  0.7818608E-02  0.1139369E+00
          2   -1    0    0  501    0  0.00000000000E+00  0.00000000000E+00  0.31933113471E+03  0.31933113472E+03  0.25500000000E-02 0.  1.
         -2   -1    0    0    0  501 -0.00000000000E+00 -0.00000000000E+00 -0.35451684434E+02  0.35451684525E+02  0.25500000000E-02 0. -1.
    5000001    1    1    2    0    0 -0.57885131639E+02 -0.11545272418E+02  0.69117315956E+02  0.11912256354E+03  0.77000000000E+02 0.  0.
   -5000001    1    1    2    0    0  0.57885131639E+02  0.11545272418E+02  0.21476213432E+03  0.23566025570E+03  0.77000000000E+02 0.  0.
<mgrwt>
<rscale>  0 0.21279875E+03</rscale>
<asrwt>0</asrwt>
<pdfrwt beam="1">  1        2 0.49127870E-01 0.21279875E+03</pdfrwt>
<pdfrwt beam="2">  1       -2 0.54541050E-02 0.21279875E+03</pdfrwt>
<totfact> 0.17037006E+04</totfact>
</mgrwt>
</event>
<event>
 4    1  0.6148427E-004  0.2700915E+03  0.7818608E-02  0.1101227E+00
          2   -1    0    0  501    0  0.00000000000E+00  0.00000000000E+00  0.59987241753E+03  0.59987241754E+03  0.25500000000E-02 0.  1.
         -2   -1    0    0    0  501 -0.00000000000E+00 -0.00000000000E+00 -0.30402064694E+02  0.30402064801E+02  0.25500000000E-02 0. -1.
    5000001    1    1    2    0    0  0.78041555717E+01  0.76339805662E+02  0.97763532151E+02  0.14620321129E+03  0.77000000000E+02 0.  0.
   -5000001    1    1    2    0    0 -0.78041555717E+01 -0.76339805662E+02  0.47170682069E+03  0.48407127105E+03  0.77000000000E+02 0.  0.
<mgrwt>
<rscale>  0 0.27009154E+03</rscale>
<asrwt>0</asrwt>
<pdfrwt beam="1">  1        2 0.92288061E-01 0.27009154E+03</pdfrwt>
<pdfrwt beam="2">  1       -2 0.46772409E-02 0.27009154E+03</pdfrwt>
<totfact> 0.10877783E+04</totfact>
</mgrwt>
</event>
<event>
 4    1  0.6148427E-004  0.2367111E+03  0.7818608E-02  0.1122003E+00
          2   -1    0    0  501    0  0.00000000000E+00  0.00000000000E+00  0.15760378354E+03  0.15760378356E+03  0.25500000000E-02 0.  1.
         -2   -1    0    0    0  501 -0.00000000000E+00 -0.00000000000E+00 -0.88881363734E+02  0.88881363770E+02  0.25500000000E-02 0. -1.
    5000001    1    1    2    0    0 -0.11360341776E+02  0.83465160457E+02  0.67017741002E+02  0.13234752731E+03  0.77000000000E+02 0.  0.
   -5000001    1    1    2    0    0  0.11360341776E+02 -0.83465160457E+02  0.17046788071E+01  0.11413762003E+03  0.77000000000E+02 0.  0.
<mgrwt>
<rscale>  0 0.23671113E+03</rscale>
<asrwt>0</asrwt>
<pdfrwt beam="1">  1        2 0.24246736E-01 0.23671113E+03</pdfrwt>
<pdfrwt beam="2">  1       -2 0.13674056E-01 0.23671113E+03</pdfrwt>
<totfact> 0.87254512E+03</totfact>
</mgrwt>
</event>
<event>
 4    1  0.6148427E-004  0.5559056E+03  0.7818608E-02  0.1000136E+00
          2   -1    0    0  501    0  0.00000000000E+00  0.00000000000E+00  0.14125075055E+04  0.14125075055E+04  0.25500000000E-02 0.  1.
         -2   -1    0    0    0  501 -0.00000000000E+00 -0.00000000000E+00 -0.54695458701E+02  0.54695458760E+02  0.25500000000E-02 0. -1.
    5000001    1    1    2    0    0  0.17530524480E+03 -0.19734480280E+03  0.78617495429E+03  0.83287271465E+03  0.77000000000E+02 0.  0.
   -5000001    1    1    2    0    0 -0.17530524480E+03  0.19734480280E+03  0.57163709253E+03  0.63433024964E+03  0.77000000000E+02 0.  0.
<mgrwt>
<rscale>  0 0.55590555E+03</rscale>
<asrwt>0</asrwt>
<pdfrwt beam="1">  1        2 0.21730882E+00 0.55590555E+03</pdfrwt>
<pdfrwt beam="2">  1       -2 0.84146870E-02 0.55590555E+03</pdfrwt>
<totfact> 0.13137099E+03</totfact>
</mgrwt>
</event>
<event>
 4    1  0.6148427E-004  0.3813027E+03  0.7818608E-02  0.1050453E+00
          2   -1    0    0  501    0  0.00000000000E+00  0.00000000000E+00  0.64647165823E+03  0.64647165824E+03  0.25500000000E-02 0.  1.
         -2   -1    0    0    0  501 -0.00000000000E+00 -0.00000000000E+00 -0.56225120265E+02  0.56225120323E+02  0.25500000000E-02 0. -1.
    5000001    1    1    2    0    0  0.29532122273E+02 -0.16809599270E+03  0.36132713960E+03  0.40695787352E+03  0.77000000000E+02 0.  0.
   -5000001    1    1    2    0    0 -0.29532122273E+02  0.16809599270E+03  0.22891939837E+03  0.29573890504E+03  0.77000000000E+02 0.  0.
<mgrwt>
<rscale>  0 0.38130275E+03</rscale>
<asrwt>0</asrwt>
<pdfrwt beam="1">  1        2 0.99457183E-01 0.38130275E+03</pdfrwt>
<pdfrwt beam="2">  1       -2 0.86500181E-02 0.38130275E+03</pdfrwt>
<totfact> 0.38810254E+03</totfact>
</mgrwt>
</event>
<event>
 4    1  0.6148427E-004  0.2435963E+03  0.7818608E-02  0.1117420E+00
         -2   -1    0    0    0  501 -0.00000000000E+00  0.00000000000E+00  0.10298643036E+02  0.10298643351E+02  0.25500000000E-02 0. -1.
          2   -1    0    0  501    0  0.00000000000E+00 -0.00000000000E+00 -0.14404607660E+04  0.14404607660E+04  0.25500000000E-02 0.  1.
    5000001    1    1    2    0    0  0.34141723913E+02 -0.62361353044E+02 -0.10846729892E+04  0.10897243180E+04  0.77000000000E+02 0.  0.
   -5000001    1    1    2    0    0 -0.34141723913E+02  0.62361353044E+02 -0.34548913379E+03  0.36103509141E+03  0.77000000000E+02 0.  0.
<mgrwt>
<rscale>  0 0.24359632E+03</rscale>
<asrwt>0</asrwt>
<pdfrwt beam="1">  1        2 0.22160919E+00 0.24359632E+03</pdfrwt>
<pdfrwt beam="2">  1       -2 0.15844078E-02 0.24359632E+03</pdfrwt>
<totfact> 0.15919701E+04</totfact>
</mgrwt>
</event>
<event>
 4    1  0.6148427E-004  0.2421614E+03  0.7818608E-02  0.1118361E+00
          2   -1    0    0  501    0  0.00000000000E+00  0.00000000000E+00  0.22548807762E+03  0.22548807764E+03  0.25500000000E-02 0.  1.
         -2   -1    0    0    0  501 -0.00000000000E+00 -0.00000000000E+00 -0.65016914954E+02  0.65016915004E+02  0.25500000000E-02 0. -1.
    5000001    1    1    2    0    0  0.34817405560E+02 -0.70795415329E+02  0.14030473190E+03  0.17843391032E+03  0.77000000000E+02 0.  0.
   -5000001    1    1    2    0    0 -0.34817405560E+02  0.70795415329E+02  0.20166430773E+02  0.11207108232E+03  0.77000000000E+02 0.  0.
<mgrwt>
<rscale>  0 0.24216143E+03</rscale>
<asrwt>0</asrwt>
<pdfrwt beam="1">  1        2 0.34690473E-01 0.24216143E+03</pdfrwt>
<pdfrwt beam="2">  1       -2 0.10002603E-01 0.24216143E+03</pdfrwt>
<totfact> 0.97420828E+03</totfact>
</mgrwt>
</event>
<event>
 4    1  0.6148427E-004  0.2862876E+03  0.7818608E-02  0.1092304E+00
         -2   -1    0    0    0  501 -0.00000000000E+00  0.00000000000E+00  0.69342744922E+03  0.69342744922E+03  0.25500000000E-02 0. -1.
          2   -1    0    0  501    0  0.00000000000E+00 -0.00000000000E+00 -0.29549083627E+02  0.29549083737E+02  0.25500000000E-02 0.  1.
    5000001    1    1    2    0    0 -0.81478418232E+02 -0.64954638983E+02  0.17825945021E+03  0.22037075430E+03  0.77000000000E+02 0.  0.
   -5000001    1    1    2    0    0  0.81478418232E+02  0.64954638983E+02  0.48561891538E+03  0.50260577866E+03  0.77000000000E+02 0.  0.
<mgrwt>
<rscale>  0 0.28628759E+03</rscale>
<asrwt>0</asrwt>
<pdfrwt beam="1">  1        2 0.45460132E-02 0.28628759E+03</pdfrwt>
<pdfrwt beam="2">  1       -2 0.10668114E+00 0.28628759E+03</pdfrwt>
<totfact> 0.13156305E+03</totfact>
</mgrwt>
</event>
<event>
 4    1  0.6148427E-004  0.4397125E+03  0.7818608E-02  0.1030835E+00
         -2   -1    0    0    0  501 -0.00000000000E+00  0.00000000000E+00  0.55874384170E+02  0.55874384228E+02  0.25500000000E-02 0. -1.
          2   -1    0    0  501    0  0.00000000000E+00 -0.00000000000E+00 -0.86509722943E+03  0.86509722943E+03  0.25500000000E-02 0.  1.
    5000001    1    1    2    0    0 -0.86380313958E+02  0.15976340682E+03 -0.20130740028E+03  0.28185026913E+03  0.77000000000E+02 0.  0.
   -5000001    1    1    2    0    0  0.86380313958E+02 -0.15976340682E+03 -0.60791544497E+03  0.63912134453E+03  0.77000000000E+02 0.  0.
<mgrwt>
<rscale>  0 0.43971252E+03</rscale>
<asrwt>0</asrwt>
<pdfrwt beam="1">  1        2 0.13309187E+00 0.43971252E+03</pdfrwt>
<pdfrwt beam="2">  1       -2 0.85960597E-02 0.43971252E+03</pdfrwt>
<totfact> 0.27148786E+03</totfact>
</mgrwt>
</event>
<event>
 4    1  0.6148427E-004  0.3393581E+03  0.7818608E-02  0.1067070E+00
         -2   -1    0    0    0  501 -0.00000000000E+00  0.00000000000E+00  0.11454056668E+02  0.11454056952E+02  0.25500000000E-02 0. -1.
          2   -1    0    0  501    0  0.00000000000E+00 -0.00000000000E+00 -0.25136058362E+04  0.25136058362E+04  0.25500000000E-02 0.  1.
    5000001    1    1    2    0    0  0.26714044152E+02 -0.14526302839E+03 -0.14918368371E+04  0.15011066372E+04  0.77000000000E+02 0.  0.
   -5000001    1    1    2    0    0 -0.26714044152E+02  0.14526302839E+03 -0.10103149424E+04  0.10239532559E+04  0.77000000000E+02 0.  0.
<mgrwt>
<rscale>  0 0.33935812E+03</rscale>
<asrwt>0</asrwt>
<pdfrwt beam="1">  1        2 0.38670815E+00 0.33935812E+03</pdfrwt>
<pdfrwt beam="2">  1       -2 0.17621646E-02 0.33935812E+03</pdfrwt>
<totfact> 0.36590764E+03</totfact>
</mgrwt>
</event>
<event>
 4    1  0.6148427E-004  0.2059323E+03  0.7818608E-02  0.1144828E+00
         -2   -1    0    0    0  501 -0.00000000000E+00  0.00000000000E+00  0.81934666239E+01  0.81934670207E+01  0.25500000000E-02 0. -1.
          2   -1    0    0  501    0  0.00000000000E+00 -0.00000000000E+00 -0.12939609704E+04  0.12939609704E+04  0.25500000000E-02 0.  1.
    5000001    1    1    2    0    0 -0.40088250200E+02  0.42921113606E+02 -0.86408216950E+03  0.86949196974E+03  0.77000000000E+02 0.  0.
   -5000001    1    1    2    0    0  0.40088250200E+02 -0.42921113606E+02 -0.42168533429E+03  0.43266246770E+03  0.77000000000E+02 0.  0.
<mgrwt>
<rscale>  0 0.20593228E+03</rscale>
<asrwt>0</asrwt>
<pdfrwt beam="1">  1        2 0.19907076E+00 0.20593228E+03</pdfrwt>
<pdfrwt beam="2">  1       -2 0.12605344E-02 0.20593228E+03</pdfrwt>
<totfact> 0.26457129E+04</totfact>
</mgrwt>
</event>
<event>
 4    1  0.6148427E-004  0.3814037E+03  0.7818608E-02  0.1050416E+00
          2   -1    0    0  501    0  0.00000000000E+00  0.00000000000E+00  0.14484940024E+03  0.14484940027E+03  0.25500000000E-02 0.  1.
         -2   -1    0    0    0  501 -0.00000000000E+00 -0.00000000000E+00 -0.25106896201E+03  0.25106896202E+03  0.25500000000E-02 0. -1.
    5000001    1    1    2    0    0  0.13017460504E+03 -0.87490070650E+02 -0.13242601129E+03  0.21923865701E+03  0.77000000000E+02 0.  0.
   -5000001    1    1    2    0    0 -0.13017460504E+03  0.87490070650E+02  0.26206449530E+02  0.17667970528E+03  0.77000000000E+02 0.  0.
<mgrwt>
<rscale>  0 0.38140366E+03</rscale>
<asrwt>0</asrwt>
<pdfrwt beam="1">  1        2 0.22284523E-01 0.38140366E+03</pdfrwt>
<pdfrwt beam="2">  1       -2 0.38625994E-01 0.38140366E+03</pdfrwt>
<totfact> 0.15723268E+03</totfact>
</mgrwt>
</event>
<event>
 4    1  0.6148427E-004  0.2622862E+03  0.7818608E-02  0.1105777E+00
         -2   -1    0    0    0  501 -0.00000000000E+00  0.00000000000E+00  0.16808751389E+02  0.16808751583E+02  0.25500000000E-02 0. -1.
          2   -1    0    0  501    0  0.00000000000E+00 -0.00000000000E+00 -0.10231878072E+04  0.10231878072E+04  0.25500000000E-02 0.  1.
    5000001    1    1    2    0    0  0.80101495894E+02 -0.43732789096E+02 -0.71821112803E+03  0.72806938606E+03  0.77000000000E+02 0.  0.
   -5000001    1    1    2    0    0 -0.80101495894E+02  0.43732789096E+02 -0.28816792780E+03  0.31192717275E+03  0.77000000000E+02 0.  0.
<mgrwt>
<rscale>  0 0.26228618E+03</rscale>
<asrwt>0</asrwt>
<pdfrwt beam="1">  1        2 0.15741346E+00 0.26228618E+03</pdfrwt>
<pdfrwt beam="2">  1       -2 0.25859626E-02 0.26228618E+03</pdfrwt>
<totfact> 0.13368123E+04</totfact>
</mgrwt>
</event>
<event>
 4    1  0.6148427E-004  0.2164808E+03  0.7818608E-02  0.1136534E+00
         -2   -1    0    0    0  501 -0.00000000000E+00  0.00000000000E+00  0.29619308451E+01  0.29619319428E+01  0.25500000000E-02 0. -1.
          2   -1    0    0  501    0  0.00000000000E+00 -0.00000000000E+00 -0.39555202073E+04  0.39555202073E+04  0.25500000000E-02 0.  1.
    5000001    1    1    2    0    0 -0.41969852329E+02  0.39767184655E+02 -0.10722815340E+04  0.10765962965E+04  0.77000000000E+02 0.  0.
   -5000001    1    1    2    0    0  0.41969852329E+02 -0.39767184655E+02 -0.28802767424E+04  0.28818858427E+04  0.77000000000E+02 0.  0.
<mgrwt>
<rscale>  0 0.21648076E+03</rscale>
<asrwt>0</asrwt>
<pdfrwt beam="1">  1        2 0.60853734E+00 0.21648076E+03</pdfrwt>
<pdfrwt beam="2">  1       -2 0.45568492E-03 0.21648076E+03</pdfrwt>
<totfact> 0.32395499E+03</totfact>
</mgrwt>
</event>
<event>
 4    1  0.6148427E-004  0.2640906E+03  0.7818608E-02  0.1104710E+00
          2   -1    0    0  501    0  0.00000000000E+00  0.00000000000E+00  0.29080796840E+03  0.29080796841E+03  0.25500000000E-02 0.  1.
         -2   -1    0    0    0  501 -0.00000000000E+00 -0.00000000000E+00 -0.59956959518E+02  0.59956959573E+02  0.25500000000E-02 0. -1.
    5000001    1    1    2    0    0 -0.39993594319E+02  0.99416540172E+02  0.12190863431E+03  0.17964924483E+03  0.77000000000E+02 0.  0.
   -5000001    1    1    2    0    0  0.39993594319E+02 -0.99416540172E+02  0.10894237457E+03  0.17111568316E+03  0.77000000000E+02 0.  0.
<mgrwt>
<rscale>  0 0.26409060E+03</rscale>
<asrwt>0</asrwt>
<pdfrwt beam="1">  1        2 0.44739688E-01 0.26409060E+03</pdfrwt>
<pdfrwt beam="2">  1       -2 0.92241474E-02 0.26409060E+03</pdfrwt>
<totfact> 0.84515629E+03</totfact>
</mgrwt>
</event>
<event>
 4    1  0.6148427E-004  0.1804524E+03  0.7818608E-02  0.1167366E+00
         -2   -1    0    0    0  501 -0.00000000000E+00  0.00000000000E+00  0.18138522864E+03  0.18138522866E+03  0.25500000000E-02 0. -1.
          2   -1    0    0  501    0  0.00000000000E+00 -0.00000000000E+00 -0.44881111407E+02  0.44881111480E+02  0.25500000000E-02 0.  1.
    5000001    1    1    2    0    0 -0.93651965098E+01  0.43727740383E+02  0.49997457427E+02  0.10212036004E+03  0.77000000000E+02 0.  0.
   -5000001    1    1    2    0    0  0.93651965098E+01 -0.43727740383E+02  0.86506659805E+02  0.12414598010E+03  0.77000000000E+02 0.  0.
<mgrwt>
<rscale>  0 0.18045244E+03</rscale>
<asrwt>0</asrwt>
<pdfrwt beam="1">  1        2 0.69047864E-02 0.18045244E+03</pdfrwt>
<pdfrwt beam="2">  1       -2 0.27905420E-01 0.18045244E+03</pdfrwt>
<totfact> 0.11504991E+04</totfact>
</mgrwt>
</event>
<event>
 4    1  0.6148427E-004  0.1924336E+03  0.7818608E-02  0.1156285E+00
          2   -1    0    0  501    0  0.00000000000E+00  0.00000000000E+00  0.71688640278E+03  0.71688640279E+03  0.25500000000E-02 0.  1.
         -2   -1    0    0    0  501 -0.00000000000E+00 -0.00000000000E+00 -0.12913721785E+02  0.12913722037E+02  0.25500000000E-02 0. -1.
    5000001    1    1    2    0    0  0.95237466021E+01 -0.51451278093E+02  0.44416273728E+03  0.45381435957E+03  0.77000000000E+02 0.  0.
   -5000001    1    1    2    0    0 -0.95237466021E+01  0.51451278093E+02  0.25980994372E+03  0.27598576525E+03  0.77000000000E+02 0.  0.
<mgrwt>
<rscale>  0 0.19243359E+03</rscale>
<asrwt>0</asrwt>
<pdfrwt beam="1">  1        2 0.11029022E+00 0.19243359E+03</pdfrwt>
<pdfrwt beam="2">  1       -2 0.19867264E-02 0.19243359E+03</pdfrwt>
<totfact> 0.30821942E+04</totfact>
</mgrwt>
</event>
<event>
 4    1  0.6148427E-004  0.1772589E+03  0.7818608E-02  0.1170483E+00
         -2   -1    0    0    0  501 -0.00000000000E+00  0.00000000000E+00  0.80334793723E+02  0.80334793764E+02  0.25500000000E-02 0. -1.
          2   -1    0    0  501    0  0.00000000000E+00 -0.00000000000E+00 -0.97780521498E+02  0.97780521532E+02  0.25500000000E-02 0.  1.
    5000001    1    1    2    0    0  0.38969839110E+02  0.14789892430E+02  0.50835634311E+01  0.87705369821E+02  0.77000000000E+02 0.  0.
   -5000001    1    1    2    0    0 -0.38969839110E+02 -0.14789892430E+02 -0.22529291206E+02  0.90409945474E+02  0.77000000000E+02 0.  0.
<mgrwt>
<rscale>  0 0.17725888E+03</rscale>
<asrwt>0</asrwt>
<pdfrwt beam="1">  1        2 0.15043157E-01 0.17725888E+03</pdfrwt>
<pdfrwt beam="2">  1       -2 0.12359199E-01 0.17725888E+03</pdfrwt>
<totfact> 0.17427819E+04</totfact>
</mgrwt>
</event>
<event>
 4    1  0.6148427E-004  0.3478505E+03  0.7818608E-02  0.1063501E+00
         -2   -1    0    0    0  501 -0.00000000000E+00  0.00000000000E+00  0.45490904411E+02  0.45490904482E+02  0.25500000000E-02 0. -1.
          2   -1    0    0  501    0  0.00000000000E+00 -0.00000000000E+00 -0.66496803472E+03  0.66496803473E+03  0.25500000000E-02 0.  1.
    5000001    1    1    2    0    0 -0.14142862461E+03  0.59072901835E+02 -0.36855666422E+03  0.40651528671E+03  0.77000000000E+02 0.  0.
   -5000001    1    1    2    0    0  0.14142862461E+03 -0.59072901835E+02 -0.25092046609E+03  0.30394365250E+03  0.77000000000E+02 0.  0.
<mgrwt>
<rscale>  0 0.34785053E+03</rscale>
<asrwt>0</asrwt>
<pdfrwt beam="1">  1        2 0.10230277E+00 0.34785053E+03</pdfrwt>
<pdfrwt beam="2">  1       -2 0.69986012E-02 0.34785053E+03</pdfrwt>
<totfact> 0.52250827E+03</totfact>
</mgrwt>
</event>
<event>
 4    1  0.6148427E-004  0.3614622E+03  0.7818608E-02  0.1058006E+00
          2   -1    0    0  501    0  0.00000000000E+00  0.00000000000E+00  0.19886958139E+04  0.19886958139E+04  0.25500000000E-02 0.  1.
         -2   -1    0    0    0  501 -0.00000000000E+00 -0.00000000000E+00 -0.16424694773E+02  0.16424694971E+02  0.25500000000E-02 0. -1.
    5000001    1    1    2    0    0  0.54073006430E+02 -0.13859466742E+03  0.13624643752E+04  0.13727237688E+04  0.77000000000E+02 0.  0.
   -5000001    1    1    2    0    0 -0.54073006430E+02  0.13859466742E+03  0.60980674393E+03  0.63239674003E+03  0.77000000000E+02 0.  0.
<mgrwt>
<rscale>  0 0.36146215E+03</rscale>
<asrwt>0</asrwt>
<pdfrwt beam="1">  1        2 0.30595296E+00 0.36146215E+03</pdfrwt>
<pdfrwt beam="2">  1       -2 0.25268781E-02 0.36146215E+03</pdfrwt>
<totfact> 0.41127118E+03</totfact>
</mgrwt>
</event>
<event>
 4    1  0.6148427E-004  0.2148179E+03  0.7818608E-02  0.1137807E+00
         -2   -1    0    0    0  501 -0.00000000000E+00  0.00000000000E+00  0.12714647752E+02  0.12714648008E+02  0.25500000000E-02 0. -1.
          2   -1    0    0  501    0  0.00000000000E+00 -0.00000000000E+00 -0.90735409610E+03  0.90735409610E+03  0.25500000000E-02 0.  1.
    5000001    1    1    2    0    0  0.10639022861E+02 -0.72945594062E+02 -0.50372549178E+03  0.51488117034E+03  0.77000000000E+02 0.  0.
   -5000001    1    1    2    0    0 -0.10639022861E+02  0.72945594062E+02 -0.39091395657E+03  0.40518757377E+03  0.77000000000E+02 0.  0.
<mgrwt>
<rscale>  0 0.21481795E+03</rscale>
<asrwt>0</asrwt>
<pdfrwt beam="1">  1        2 0.13959289E+00 0.21481795E+03</pdfrwt>
<pdfrwt beam="2">  1       -2 0.19561004E-02 0.21481795E+03</pdfrwt>
<totfact> 0.23563929E+04</totfact>
</mgrwt>
</event>
<event>
 4    1  0.6148427E-004  0.2193691E+03  0.7818608E-02  0.1134354E+00
         -2   -1    0    0    0  501 -0.00000000000E+00  0.00000000000E+00  0.26079414782E+02  0.26079414906E+02  0.25500000000E-02 0. -1.
          2   -1    0    0  501    0  0.00000000000E+00 -0.00000000000E+00 -0.46131018714E+03  0.46131018714E+03  0.25500000000E-02 0.  1.
    5000001    1    1    2    0    0  0.32609064595E+02 -0.62036040698E+02 -0.29425478569E+03  0.31213250446E+03  0.77000000000E+02 0.  0.
   -5000001    1    1    2    0    0 -0.32609064595E+02  0.62036040698E+02 -0.14097598666E+03  0.17525709759E+03  0.77000000000E+02 0.  0.
<mgrwt>
<rscale>  0 0.21936909E+03</rscale>
<asrwt>0</asrwt>
<pdfrwt beam="1">  1        2 0.70970792E-01 0.21936909E+03</pdfrwt>
<pdfrwt beam="2">  1       -2 0.40122180E-02 0.21936909E+03</pdfrwt>
<totfact> 0.18231936E+04</totfact>
</mgrwt>
</event>
<event>
 4    1  0.6148427E-004  0.1835587E+03  0.7818608E-02  0.1164403E+00
         -2   -1    0    0    0  501 -0.00000000000E+00  0.00000000000E+00  0.22657620015E+02  0.22657620158E+02  0.25500000000E-02 0. -1.
          2   -1    0    0  501    0  0.00000000000E+00 -0.00000000000E+00 -0.37177133249E+03  0.37177133250E+03  0.25500000000E-02 0.  1.
    5000001    1    1    2    0    0 -0.19710860231E+02  0.15725613432E+01 -0.76005841760E+02  0.10998581246E+03  0.77000000000E+02 0.  0.
   -5000001    1    1    2    0    0  0.19710860231E+02 -0.15725613432E+01 -0.27310787072E+03  0.28444314020E+03  0.77000000000E+02 0.  0.
<mgrwt>
<rscale>  0 0.18355875E+03</rscale>
<asrwt>0</asrwt>
<pdfrwt beam="1">  1        2 0.57195585E-01 0.18355875E+03</pdfrwt>
<pdfrwt beam="2">  1       -2 0.34857880E-02 0.18355875E+03</pdfrwt>
<totfact> 0.28046256E+04</totfact>
</mgrwt>
</event>
<event>
 4    1  0.6148427E-004  0.3899624E+03  0.7818608E-02  0.1047312E+00
          2   -1    0    0  501    0  0.00000000000E+00  0.00000000000E+00  0.50511939923E+03  0.50511939923E+03  0.25500000000E-02 0.  1.
         -2   -1    0    0    0  501 -0.00000000000E+00 -0.00000000000E+00 -0.75264724764E+02  0.75264724807E+02  0.25500000000E-02 0. -1.
    5000001    1    1    2    0    0 -0.16550227460E+03 -0.16469132665E+02  0.31394665414E+03  0.36352955433E+03  0.77000000000E+02 0.  0.
   -5000001    1    1    2    0    0  0.16550227460E+03  0.16469132665E+02  0.11590802032E+03  0.21685456971E+03  0.77000000000E+02 0.  0.
<mgrwt>
<rscale>  0 0.38996242E+03</rscale>
<asrwt>0</asrwt>
<pdfrwt beam="1">  1        2 0.77710674E-01 0.38996242E+03</pdfrwt>
<pdfrwt beam="2">  1       -2 0.11579189E-01 0.38996242E+03</pdfrwt>
<totfact> 0.32421377E+03</totfact>
</mgrwt>
</event>
<event>
 4    1  0.6148427E-004  0.3483848E+03  0.7818608E-02  0.1063280E+00
          2   -1    0    0  501    0  0.00000000000E+00  0.00000000000E+00  0.10849092297E+03  0.10849092300E+03  0.25500000000E-02 0.  1.
         -2   -1    0    0    0  501 -0.00000000000E+00 -0.00000000000E+00 -0.27968237624E+03  0.27968237625E+03  0.25500000000E-02 0. -1.
    5000001    1    1    2    0    0 -0.34917571554E+02  0.11803186973E+03  0.21642067127E+02  0.14679284092E+03  0.77000000000E+02 0.  0.
   -5000001    1    1    2    0    0  0.34917571554E+02 -0.11803186973E+03 -0.19283352040E+03  0.24138045833E+03  0.77000000000E+02 0.  0.
<mgrwt>
<rscale>  0 0.34838484E+03</rscale>
<asrwt>0</asrwt>
<pdfrwt beam="1">  1        2 0.16690911E-01 0.34838484E+03</pdfrwt>
<pdfrwt beam="2">  1       -2 0.43028058E-01 0.34838484E+03</pdfrwt>
<totfact> 0.17835134E+03</totfact>
</mgrwt>
</event>
<event>
 4    1  0.6148427E-004  0.2541734E+03  0.7818608E-02  0.1110695E+00
          2   -1    0    0  501    0  0.00000000000E+00  0.00000000000E+00  0.30168901822E+04  0.30168901822E+04  0.25500000000E-02 0.  1.
         -2   -1    0    0    0  501 -0.00000000000E+00 -0.00000000000E+00 -0.53535374095E+01  0.53535380168E+01  0.25500000000E-02 0. -1.
    5000001    1    1    2    0    0  0.80032974102E+02  0.49341556935E+02  0.19478269869E+04  0.19516144181E+04  0.77000000000E+02 0.  0.
   -5000001    1    1    2    0    0 -0.80032974102E+02 -0.49341556935E+02  0.10637096579E+04  0.10706293020E+04  0.77000000000E+02 0.  0.
<mgrwt>
<rscale>  0 0.25417345E+03</rscale>
<asrwt>0</asrwt>
<pdfrwt beam="1">  1        2 0.46413676E+00 0.25417345E+03</pdfrwt>
<pdfrwt beam="2">  1       -2 0.82362152E-03 0.25417345E+03</pdfrwt>
<totfact> 0.57591952E+03</totfact>
</mgrwt>
</event>
<event>
 4    1  0.6148427E-004  0.1933123E+03  0.7818608E-02  0.1155507E+00
          2   -1    0    0  501    0  0.00000000000E+00  0.00000000000E+00  0.71207308773E+03  0.71207308774E+03  0.25500000000E-02 0.  1.
         -2   -1    0    0    0  501 -0.00000000000E+00 -0.00000000000E+00 -0.13120014033E+02  0.13120014281E+02  0.25500000000E-02 0. -1.
    5000001    1    1    2    0    0 -0.43648480629E+02 -0.18896558969E+02  0.22219712754E+03  0.23992255686E+03  0.77000000000E+02 0.  0.
   -5000001    1    1    2    0    0  0.43648480629E+02  0.18896558969E+02  0.47675594616E+03  0.48527054516E+03  0.77000000000E+02 0.  0.
<mgrwt>
<rscale>  0 0.19331228E+03</rscale>
<asrwt>0</asrwt>
<pdfrwt beam="1">  1        2 0.10954973E+00 0.19331228E+03</pdfrwt>
<pdfrwt beam="2">  1       -2 0.20184633E-02 0.19331228E+03</pdfrwt>
<totfact> 0.30373047E+04</totfact>
</mgrwt>
</event>
<event>
 4    1  0.6148427E-004  0.1976175E+03  0.7818608E-02  0.1151765E+00
         -2   -1    0    0    0  501 -0.00000000000E+00  0.00000000000E+00  0.15977102193E+02  0.15977102397E+02  0.25500000000E-02 0. -1.
          2   -1    0    0  501    0  0.00000000000E+00 -0.00000000000E+00 -0.61107271368E+03  0.61107271369E+03  0.25500000000E-02 0.  1.
    5000001    1    1    2    0    0  0.17482225424E+02 -0.53879857636E+02 -0.37690597480E+03  0.38883901695E+03  0.77000000000E+02 0.  0.
   -5000001    1    1    2    0    0 -0.17482225424E+02  0.53879857636E+02 -0.21818963669E+03  0.23821079913E+03  0.77000000000E+02 0.  0.
<mgrwt>
<rscale>  0 0.19761752E+03</rscale>
<asrwt>0</asrwt>
<pdfrwt beam="1">  1        2 0.94011168E-01 0.19761752E+03</pdfrwt>
<pdfrwt beam="2">  1       -2 0.24580162E-02 0.19761752E+03</pdfrwt>
<totfact> 0.27302023E+04</totfact>
</mgrwt>
</event>
<event>
 4    1  0.6148427E-004  0.2808132E+03  0.7818608E-02  0.1095246E+00
         -2   -1    0    0    0  501 -0.00000000000E+00  0.00000000000E+00  0.41070308175E+02  0.41070308254E+02  0.25500000000E-02 0. -1.
          2   -1    0    0  501    0  0.00000000000E+00 -0.00000000000E+00 -0.48000638164E+03  0.48000638164E+03  0.25500000000E-02 0.  1.
    5000001    1    1    2    0    0 -0.21027631723E+02  0.47274888515E+02 -0.23898682381E+02  0.95797825651E+02  0.77000000000E+02 0.  0.
   -5000001    1    1    2    0    0  0.21027631723E+02 -0.47274888515E+02 -0.41503739108E+03  0.42527886425E+03  0.77000000000E+02 0.  0.
<mgrwt>
<rscale>  0 0.28081318E+03</rscale>
<asrwt>0</asrwt>
<pdfrwt beam="1">  1        2 0.73847132E-01 0.28081318E+03</pdfrwt>
<pdfrwt beam="2">  1       -2 0.63185093E-02 0.28081318E+03</pdfrwt>
<totfact> 0.88638240E+03</totfact>
</mgrwt>
</event>
<event>
 4    1  0.6148427E-004  0.2153453E+03  0.7818608E-02  0.1137402E+00
         -2   -1    0    0    0  501 -0.00000000000E+00  0.00000000000E+00  0.15857186496E+02  0.15857186702E+02  0.25500000000E-02 0. -1.
          2   -1    0    0  501    0  0.00000000000E+00 -0.00000000000E+00 -0.73111327394E+03  0.73111327395E+03  0.25500000000E-02 0.  1.
    5000001    1    1    2    0    0 -0.30413996107E+02  0.66540383373E+02 -0.29638140074E+03  0.31483895642E+03  0.77000000000E+02 0.  0.
   -5000001    1    1    2    0    0  0.30413996107E+02 -0.66540383373E+02 -0.41887468671E+03  0.43213150423E+03  0.77000000000E+02 0.  0.
<mgrwt>
<rscale>  0 0.21534530E+03</rscale>
<asrwt>0</asrwt>
<pdfrwt beam="1">  1        2 0.11247894E+00 0.21534530E+03</pdfrwt>
<pdfrwt beam="2">  1       -2 0.24395677E-02 0.21534530E+03</pdfrwt>
<totfact> 0.22440557E+04</totfact>
</mgrwt>
</event>
<event>
 4    1  0.6148427E-004  0.3291423E+03  0.7818608E-02  0.1071517E+00
         -2   -1    0    0    0  501 -0.00000000000E+00  0.00000000000E+00  0.26847869393E+02  0.26847869514E+02  0.25500000000E-02 0. -1.
          2   -1    0    0  501    0  0.00000000000E+00 -0.00000000000E+00 -0.10087827798E+04  0.10087827798E+04  0.25500000000E-02 0.  1.
    5000001    1    1    2    0    0 -0.10891161922E+03  0.35183757974E+02 -0.77336099474E+03  0.78556722552E+03  0.77000000000E+02 0.  0.
   -5000001    1    1    2    0    0  0.10891161922E+03 -0.35183757974E+02 -0.20857391570E+03  0.25006342383E+03  0.77000000000E+02 0.  0.
<mgrwt>
<rscale>  0 0.32914233E+03</rscale>
<asrwt>0</asrwt>
<pdfrwt beam="1">  1        2 0.15519732E+00 0.32914233E+03</pdfrwt>
<pdfrwt beam="2">  1       -2 0.41304422E-02 0.32914233E+03</pdfrwt>
<totfact> 0.68109749E+03</totfact>
</mgrwt>
</event>
<event>
 4    1  0.6148427E-004  0.2421900E+03  0.7818608E-02  0.1118342E+00
         -2   -1    0    0    0  501 -0.00000000000E+00  0.00000000000E+00  0.62314846791E+01  0.62314852009E+01  0.25500000000E-02 0. -1.
          2   -1    0    0  501    0  0.00000000000E+00 -0.00000000000E+00 -0.23532106499E+04  0.23532106499E+04  0.25500000000E-02 0.  1.
    5000001    1    1    2    0    0  0.76194601973E+02  0.16928767716E+01 -0.17005111952E+04  0.17039588635E+04  0.77000000000E+02 0.  0.
   -5000001    1    1    2    0    0 -0.76194601973E+02 -0.16928767716E+01 -0.64646796999E+03  0.65548327166E+03  0.77000000000E+02 0.  0.
<mgrwt>
<rscale>  0 0.24218998E+03</rscale>
<asrwt>0</asrwt>
<pdfrwt beam="1">  1        2 0.36203170E+00 0.24218998E+03</pdfrwt>
<pdfrwt beam="2">  1       -2 0.95869187E-03 0.24218998E+03</pdfrwt>
<totfact> 0.10908089E+04</totfact>
</mgrwt>
</event>
<event>
 4    1  0.6148427E-004  0.8701378E+03  0.7818608E-02  0.9463700E-01
          2   -1    0    0  501    0  0.00000000000E+00  0.00000000000E+00  0.34157241954E+04  0.34157241954E+04  0.25500000000E-02 0.  1.
         -2   -1    0    0    0  501 -0.00000000000E+00 -0.00000000000E+00 -0.55415753211E+02  0.55415753270E+02  0.25500000000E-02 0. -1.
    5000001    1    1    2    0    0 -0.25484397140E+03  0.16395907108E+03  0.28870252565E+04  0.29039063102E+04  0.77000000000E+02 0.  0.
   -5000001    1    1    2    0    0  0.25484397140E+03 -0.16395907108E+03  0.47328318563E+03  0.56723363842E+03  0.77000000000E+02 0.  0.
<mgrwt>
<rscale>  0 0.87013776E+03</rscale>
<asrwt>0</asrwt>
<pdfrwt beam="1">  1        2 0.52549605E+00 0.87013776E+03</pdfrwt>
<pdfrwt beam="2">  1       -2 0.85255002E-02 0.87013776E+03</pdfrwt>
<totfact> 0.87227890E+01</totfact>
</mgrwt>
</event>
<event>
 4    1  0.6148427E-004  0.2885756E+03  0.7818608E-02  0.1091095E+00
          2   -1    0    0  501    0  0.00000000000E+00  0.00000000000E+00  0.23490787806E+03  0.23490787808E+03  0.25500000000E-02 0.  1.
         -2   -1    0    0    0  501 -0.00000000000E+00 -0.00000000000E+00 -0.88626120840E+02  0.88626120877E+02  0.25500000000E-02 0. -1.
    5000001    1    1    2    0    0 -0.67544907477E+02 -0.10128601098E+03  0.63841254882E+02  0.15756229362E+03  0.77000000000E+02 0.  0.
   -5000001    1    1    2    0    0  0.67544907477E+02  0.10128601098E+03  0.82440502342E+02  0.16597170534E+03  0.77000000000E+02 0.  0.
<mgrwt>
<rscale>  0 0.28857563E+03</rscale>
<asrwt>0</asrwt>
<pdfrwt beam="1">  1        2 0.36139673E-01 0.28857563E+03</pdfrwt>
<pdfrwt beam="2">  1       -2 0.13634788E-01 0.28857563E+03</pdfrwt>
<totfact> 0.56990526E+03</totfact>
</mgrwt>
</event>
<event>
 4    1  0.6148427E-004  0.4069469E+03  0.7818608E-02  0.1041400E+00
         -2   -1    0    0    0  501 -0.00000000000E+00  0.00000000000E+00  0.40073979509E+03  0.40073979510E+03  0.25500000000E-02 0. -1.
          2   -1    0    0  501    0  0.00000000000E+00 -0.00000000000E+00 -0.10331253461E+03  0.10331253465E+03  0.25500000000E-02 0.  1.
    5000001    1    1    2    0    0  0.13033993637E+03  0.12459560893E+03  0.81326823193E+02  0.21226308428E+03  0.77000000000E+02 0.  0.
   -5000001    1    1    2    0    0 -0.13033993637E+03 -0.12459560893E+03  0.21610043728E+03  0.29178924547E+03  0.77000000000E+02 0.  0.
<mgrwt>
<rscale>  0 0.40694690E+03</rscale>
<asrwt>0</asrwt>
<pdfrwt beam="1">  1        2 0.15894236E-01 0.40694690E+03</pdfrwt>
<pdfrwt beam="2">  1       -2 0.61652276E-01 0.40694690E+03</pdfrwt>
<totfact> 0.91501509E+02</totfact>
</mgrwt>
</event>
<event>
 4    1  0.6148427E-004  0.2983833E+03  0.7818608E-02  0.1086052E+00
         -2   -1    0    0    0  501 -0.00000000000E+00  0.00000000000E+00  0.88375282133E+01  0.88375285812E+01  0.25500000000E-02 0. -1.
          2   -1    0    0  501    0  0.00000000000E+00 -0.00000000000E+00 -0.25185950870E+04  0.25185950870E+04  0.25500000000E-02 0.  1.
    5000001    1    1    2    0    0 -0.60303924689E+02  0.83999166477E+02 -0.18908225358E+04  0.18952127282E+04  0.77000000000E+02 0.  0.
   -5000001    1    1    2    0    0  0.60303924689E+02 -0.83999166477E+02 -0.61893502296E+03  0.63221988734E+03  0.77000000000E+02 0.  0.
<mgrwt>
<rscale>  0 0.29838335E+03</rscale>
<asrwt>0</asrwt>
<pdfrwt beam="1">  1        2 0.38747560E+00 0.29838335E+03</pdfrwt>
<pdfrwt beam="2">  1       -2 0.13596218E-02 0.29838335E+03</pdfrwt>
<totfact> 0.53338854E+03</totfact>
</mgrwt>
</event>
<event>
 4    1  0.6148427E-004  0.2320487E+03  0.7818608E-02  0.1125206E+00
          2   -1    0    0  501    0  0.00000000000E+00  0.00000000000E+00  0.12707115146E+04  0.12707115146E+04  0.25500000000E-02 0.  1.
         -2   -1    0    0    0  501 -0.00000000000E+00 -0.00000000000E+00 -0.10593785318E+02  0.10593785625E+02  0.25500000000E-02 0. -1.
    5000001    1    1    2    0    0 -0.21335354718E+02 -0.83109867315E+02  0.70209501605E+03  0.71149761698E+03  0.77000000000E+02 0.  0.
   -5000001    1    1    2    0    0  0.21335354718E+02  0.83109867315E+02  0.55802271324E+03  0.56980768326E+03  0.77000000000E+02 0.  0.
<mgrwt>
<rscale>  0 0.23204866E+03</rscale>
<asrwt>0</asrwt>
<pdfrwt beam="1">  1        2 0.19549409E+00 0.23204866E+03</pdfrwt>
<pdfrwt beam="2">  1       -2 0.16298131E-02 0.23204866E+03</pdfrwt>
<totfact> 0.18867774E+04</totfact>
</mgrwt>
</event>
<event>
 4    1  0.6148427E-004  0.6890717E+03  0.7818608E-02  0.9736106E-01
         -2   -1    0    0    0  501 -0.00000000000E+00  0.00000000000E+00  0.19018542133E+03  0.19018542135E+03  0.25500000000E-02 0. -1.
          2   -1    0    0  501    0  0.00000000000E+00 -0.00000000000E+00 -0.62415379715E+03  0.62415379716E+03  0.25500000000E-02 0.  1.
    5000001    1    1    2    0    0  0.17265361987E+03 -0.28696976475E+03 -0.18767588336E+03  0.39155096160E+03  0.77000000000E+02 0.  0.
   -5000001    1    1    2    0    0 -0.17265361987E+03  0.28696976475E+03 -0.24629249246E+03  0.42278825691E+03  0.77000000000E+02 0.  0.
<mgrwt>
<rscale>  0 0.68907170E+03</rscale>
<asrwt>0</asrwt>
<pdfrwt beam="1">  1        2 0.96023660E-01 0.68907170E+03</pdfrwt>
<pdfrwt beam="2">  1       -2 0.29259296E-01 0.68907170E+03</pdfrwt>
<totfact> 0.51081592E+02</totfact>
</mgrwt>
</event>
<event>
 4    1  0.6148427E-004  0.4497625E+03  0.7818608E-02  0.1027793E+00
         -2   -1    0    0    0  501 -0.00000000000E+00  0.00000000000E+00  0.13842311614E+03  0.13842311616E+03  0.25500000000E-02 0. -1.
          2   -1    0    0  501    0  0.00000000000E+00 -0.00000000000E+00 -0.36534051635E+03  0.36534051636E+03  0.25500000000E-02 0.  1.
    5000001    1    1    2    0    0  0.19944053510E+03 -0.55062593591E+01 -0.19134740178E+03  0.28696632921E+03  0.77000000000E+02 0.  0.
   -5000001    1    1    2    0    0 -0.19944053510E+03  0.55062593591E+01 -0.35569998432E+02  0.21679730331E+03  0.77000000000E+02 0.  0.
<mgrwt>
<rscale>  0 0.44976248E+03</rscale>
<asrwt>0</asrwt>
<pdfrwt beam="1">  1        2 0.56206233E-01 0.44976248E+03</pdfrwt>
<pdfrwt beam="2">  1       -2 0.21295864E-01 0.44976248E+03</pdfrwt>
<totfact> 0.16735818E+03</totfact>
</mgrwt>
</event>
<event>
 4    1  0.6148427E-004  0.6644941E+03  0.7818608E-02  0.9779956E-01
          2   -1    0    0  501    0  0.00000000000E+00  0.00000000000E+00  0.14733039838E+03  0.14733039841E+03  0.25500000000E-02 0.  1.
         -2   -1    0    0    0  501 -0.00000000000E+00 -0.00000000000E+00 -0.74925540846E+03  0.74925540846E+03  0.25500000000E-02 0. -1.
    5000001    1    1    2    0    0  0.85575408889E+02 -0.29754130132E+03 -0.42612644792E+03  0.53232201365E+03  0.77000000000E+02 0.  0.
   -5000001    1    1    2    0    0 -0.85575408889E+02  0.29754130132E+03 -0.17579856215E+03  0.36426379322E+03  0.77000000000E+02 0.  0.
<mgrwt>
<rscale>  0 0.66449409E+03</rscale>
<asrwt>0</asrwt>
<pdfrwt beam="1">  1        2 0.22666215E-01 0.66449409E+03</pdfrwt>
<pdfrwt beam="2">  1       -2 0.11527006E+00 0.66449409E+03</pdfrwt>
<totfact> 0.14560638E+02</totfact>
</mgrwt>
</event>
<event>
 4    1  0.6148427E-004  0.2240770E+03  0.7818608E-02  0.1130879E+00
         -2   -1    0    0    0  501 -0.00000000000E+00  0.00000000000E+00  0.94633536189E+02  0.94633536223E+02  0.25500000000E-02 0. -1.
          2   -1    0    0  501    0  0.00000000000E+00 -0.00000000000E+00 -0.13264463673E+03  0.13264463676E+03  0.25500000000E-02 0.  1.
    5000001    1    1    2    0    0 -0.90486685934E+01  0.79551403481E+02 -0.41911832415E+01  0.11116146012E+03  0.77000000000E+02 0.  0.
   -5000001    1    1    2    0    0  0.90486685934E+01 -0.79551403481E+02 -0.33819917303E+02  0.11611671286E+03  0.77000000000E+02 0.  0.
<mgrwt>
<rscale>  0 0.22407705E+03</rscale>
<asrwt>0</asrwt>
<pdfrwt beam="1">  1        2 0.20406867E-01 0.22407705E+03</pdfrwt>
<pdfrwt beam="2">  1       -2 0.14559006E-01 0.22407705E+03</pdfrwt>
<totfact> 0.95364525E+03</totfact>
</mgrwt>
</event>
<event>
 4    1  0.6148427E-004  0.2585512E+03  0.7818608E-02  0.1108017E+00
          2   -1    0    0  501    0  0.00000000000E+00  0.00000000000E+00  0.36444153101E+04  0.36444153101E+04  0.25500000000E-02 0.  1.
         -2   -1    0    0    0  501 -0.00000000000E+00 -0.00000000000E+00 -0.45856949063E+01  0.45856956153E+01  0.25500000000E-02 0. -1.
    5000001    1    1    2    0    0  0.99035667559E+02  0.31249215764E+01  0.13814146697E+04  0.13871024902E+04  0.77000000000E+02 0.  0.
   -5000001    1    1    2    0    0 -0.99035667559E+02 -0.31249215764E+01  0.22584149455E+04  0.22618985156E+04  0.77000000000E+02 0.  0.
<mgrwt>
<rscale>  0 0.25855118E+03</rscale>
<asrwt>0</asrwt>
<pdfrwt beam="1">  1        2 0.56067756E+00 0.25855118E+03</pdfrwt>
<pdfrwt beam="2">  1       -2 0.70549374E-03 0.25855118E+03</pdfrwt>
<totfact> 0.28712471E+03</totfact>
</mgrwt>
</event>
<event>
 4    1  0.6148427E-004  0.7250485E+03  0.7818608E-02  0.9675329E-01
         -2   -1    0    0    0  501 -0.00000000000E+00  0.00000000000E+00  0.25299133343E+03  0.25299133344E+03  0.25500000000E-02 0.  1.
          2   -1    0    0  501    0  0.00000000000E+00 -0.00000000000E+00 -0.51947962842E+03  0.51947962843E+03  0.25500000000E-02 0. -1.
    5000001    1    1    2    0    0 -0.34618445756E+03 -0.13113901071E+02 -0.54381146796E+02  0.35902919406E+03  0.77000000000E+02 0.  0.
   -5000001    1    1    2    0    0  0.34618445756E+03  0.13113901071E+02 -0.21210714819E+03  0.41344176782E+03  0.77000000000E+02 0.  0.
<mgrwt>
<rscale>  0 0.72504853E+03</rscale>
<asrwt>0</asrwt>
<pdfrwt beam="1">  1        2 0.79919943E-01 0.72504853E+03</pdfrwt>
<pdfrwt beam="2">  1       -2 0.38921744E-01 0.72504853E+03</pdfrwt>
<totfact> 0.37014918E+02</totfact>
</mgrwt>
</event>
<event>
 4    1  0.6148427E-004  0.4716281E+03  0.7818608E-02  0.1021462E+00
          2   -1    0    0  501    0  0.00000000000E+00  0.00000000000E+00  0.15458480303E+03  0.15458480305E+03  0.25500000000E-02 0. -1.
         -2   -1    0    0    0  501 -0.00000000000E+00 -0.00000000000E+00 -0.35972661779E+03  0.35972661780E+03  0.25500000000E-02 0.  1.
    5000001    1    1    2    0    0  0.15215902465E+03  0.16247419180E+03 -0.90183428965E+02  0.25221475501E+03  0.77000000000E+02 0.  0.
   -5000001    1    1    2    0    0 -0.15215902465E+03 -0.16247419180E+03 -0.11495838579E+03  0.26209666584E+03  0.77000000000E+02 0.  0.
<mgrwt>
<rscale>  0 0.47162811E+03</rscale>
<asrwt>0</asrwt>
<pdfrwt beam="1">  1        2 0.23782277E-01 0.47162811E+03</pdfrwt>
<pdfrwt beam="2">  1       -2 0.55342556E-01 0.47162811E+03</pdfrwt>
<totfact> 0.71610352E+02</totfact>
</mgrwt>
</event>
<event>
 4    1  0.6148427E-004  0.2612884E+03  0.7818608E-02  0.1106372E+00
         -2   -1    0    0    0  501 -0.00000000000E+00  0.00000000000E+00  0.42327192017E+02  0.42327192094E+02  0.25500000000E-02 0. -1.
          2   -1    0    0  501    0  0.00000000000E+00 -0.00000000000E+00 -0.40323740147E+03  0.40323740148E+03  0.25500000000E-02 0.  1.
    5000001    1    1    2    0    0 -0.18599332785E+02  0.94364902661E+02 -0.25455520312E+03  0.28280385689E+03  0.77000000000E+02 0.  0.
   -5000001    1    1    2    0    0  0.18599332785E+02 -0.94364902661E+02 -0.10635500633E+03  0.16276073668E+03  0.77000000000E+02 0.  0.
<mgrwt>
<rscale>  0 0.26128840E+03</rscale>
<asrwt>0</asrwt>
<pdfrwt beam="1">  1        2 0.62036521E-01 0.26128840E+03</pdfrwt>
<pdfrwt beam="2">  1       -2 0.65118760E-02 0.26128840E+03</pdfrwt>
<totfact> 0.10216902E+04</totfact>
</mgrwt>
</event>
<event>
 4    1  0.6148427E-004  0.2513870E+03  0.7818608E-02  0.1112431E+00
         -2   -1    0    0    0  501 -0.00000000000E+00  0.00000000000E+00  0.24886080844E+02  0.24886080975E+02  0.25500000000E-02 0. -1.
          2   -1    0    0  501    0  0.00000000000E+00 -0.00000000000E+00 -0.63484704836E+03  0.63484704836E+03  0.25500000000E-02 0.  1.
    5000001    1    1    2    0    0 -0.58390798462E+02  0.73316657793E+02 -0.39142706779E+03  0.40979137016E+03  0.77000000000E+02 0.  0.
   -5000001    1    1    2    0    0  0.58390798462E+02 -0.73316657793E+02 -0.21853389972E+03  0.24994175918E+03  0.77000000000E+02 0.  0.
<mgrwt>
<rscale>  0 0.25138699E+03</rscale>
<asrwt>0</asrwt>
<pdfrwt beam="1">  1        2 0.97668764E-01 0.25138699E+03</pdfrwt>
<pdfrwt beam="2">  1       -2 0.38286283E-02 0.25138699E+03</pdfrwt>
<totfact> 0.13723177E+04</totfact>
</mgrwt>
</event>
<event>
 4    1  0.6148427E-004  0.1884582E+03  0.7818608E-02  0.1159859E+00
         -2   -1    0    0    0  501 -0.00000000000E+00  0.00000000000E+00  0.38052897179E+02  0.38052897264E+02  0.25500000000E-02 0. -1.
          2   -1    0    0  501    0  0.00000000000E+00 -0.00000000000E+00 -0.23333628186E+03  0.23333628187E+03  0.25500000000E-02 0.  1.
    5000001    1    1    2    0    0  0.50078882715E+02  0.20879781911E+02 -0.94038179831E+02  0.13310161176E+03  0.77000000000E+02 0.  0.
   -5000001    1    1    2    0    0 -0.50078882715E+02 -0.20879781911E+02 -0.10124520485E+03  0.13828756738E+03  0.77000000000E+02 0.  0.
<mgrwt>
<rscale>  0 0.18845818E+03</rscale>
<asrwt>0</asrwt>
<pdfrwt beam="1">  1        2 0.35897889E-01 0.18845818E+03</pdfrwt>
<pdfrwt beam="2">  1       -2 0.58542920E-02 0.18845818E+03</pdfrwt>
<totfact> 0.21221328E+04</totfact>
</mgrwt>
</event>
<event>
 4    1  0.6148427E-004  0.2349425E+03  0.7818608E-02  0.1123209E+00
         -2   -1    0    0    0  501 -0.00000000000E+00  0.00000000000E+00  0.43322789120E+02  0.43322789195E+02  0.25500000000E-02 0. -1.
          2   -1    0    0  501    0  0.00000000000E+00 -0.00000000000E+00 -0.31852732732E+03  0.31852732733E+03  0.25500000000E-02 0.  1.
    5000001    1    1    2    0    0 -0.35712240381E+02  0.81127071096E+02 -0.13193779784E+03  0.17661695354E+03  0.77000000000E+02 0.  0.
   -5000001    1    1    2    0    0  0.35712240381E+02 -0.81127071096E+02 -0.14326674035E+03  0.18523316298E+03  0.77000000000E+02 0.  0.
<mgrwt>
<rscale>  0 0.23494248E+03</rscale>
<asrwt>0</asrwt>
<pdfrwt beam="1">  1        2 0.49004203E-01 0.23494248E+03</pdfrwt>
<pdfrwt beam="2">  1       -2 0.66650447E-02 0.23494248E+03</pdfrwt>
<totfact> 0.12646666E+04</totfact>
</mgrwt>
</event>
<event>
 4    1  0.6148427E-004  0.2641325E+03  0.7818608E-02  0.1104685E+00
          2   -1    0    0  501    0  0.00000000000E+00  0.00000000000E+00  0.31648630824E+04  0.31648630824E+04  0.25500000000E-02 0.  1.
         -2   -1    0    0    0  501 -0.00000000000E+00 -0.00000000000E+00 -0.55109790188E+01  0.55109796088E+01  0.25500000000E-02 0. -1.
    5000001    1    1    2    0    0 -0.63275344639E+02  0.82026881028E+02  0.12443833806E+04  0.12510600211E+04  0.77000000000E+02 0.  0.
   -5000001    1    1    2    0    0  0.63275344639E+02 -0.82026881028E+02  0.19149687228E+04  0.19193140409E+04  0.77000000000E+02 0.  0.
<mgrwt>
<rscale>  0 0.26413250E+03</rscale>
<asrwt>0</asrwt>
<pdfrwt beam="1">  1        2 0.48690346E+00 0.26413250E+03</pdfrwt>
<pdfrwt beam="2">  1       -2 0.84784046E-03 0.26413250E+03</pdfrwt>
<totfact> 0.44947386E+03</totfact>
</mgrwt>
</event>
<event>
 4    1  0.6148427E-004  0.1816194E+03  0.7818608E-02  0.1166245E+00
          2   -1    0    0  501    0  0.00000000000E+00  0.00000000000E+00  0.38008232591E+03  0.38008232592E+03  0.25500000000E-02 0.  1.
         -2   -1    0    0    0  501 -0.00000000000E+00 -0.00000000000E+00 -0.21696353582E+02  0.21696353732E+02  0.25500000000E-02 0. -1.
    5000001    1    1    2    0    0 -0.11824722540E+02  0.43890870572E+02  0.21425257485E+03  0.23216243971E+03  0.77000000000E+02 0.  0.
   -5000001    1    1    2    0    0  0.11824722540E+02 -0.43890870572E+02  0.14413339748E+03  0.16961623994E+03  0.77000000000E+02 0.  0.
<mgrwt>
<rscale>  0 0.18161939E+03</rscale>
<asrwt>0</asrwt>
<pdfrwt beam="1">  1        2 0.58474202E-01 0.18161939E+03</pdfrwt>
<pdfrwt beam="2">  1       -2 0.33379007E-02 0.18161939E+03</pdfrwt>
<totfact> 0.29183608E+04</totfact>
</mgrwt>
</event>
<event>
 4    1  0.6148427E-004  0.1982875E+03  0.7818608E-02  0.1151192E+00
          2   -1    0    0  501    0  0.00000000000E+00  0.00000000000E+00  0.13500675822E+04  0.13500675822E+04  0.25500000000E-02 0.  1.
         -2   -1    0    0    0  501 -0.00000000000E+00 -0.00000000000E+00 -0.72807324429E+01  0.72807328894E+01  0.25500000000E-02 0. -1.
    5000001    1    1    2    0    0  0.44799234307E+02 -0.41437009078E+02  0.58045472781E+03  0.58871103961E+03  0.77000000000E+02 0.  0.
   -5000001    1    1    2    0    0 -0.44799234307E+02  0.41437009078E+02  0.76233212197E+03  0.76863727551E+03  0.77000000000E+02 0.  0.
<mgrwt>
<rscale>  0 0.19828748E+03</rscale>
<asrwt>0</asrwt>
<pdfrwt beam="1">  1        2 0.20770286E+00 0.19828748E+03</pdfrwt>
<pdfrwt beam="2">  1       -2 0.11201119E-02 0.19828748E+03</pdfrwt>
<totfact> 0.29188229E+04</totfact>
</mgrwt>
</event>
<event>
 4    1  0.6148427E-004  0.2142907E+03  0.7818608E-02  0.1138213E+00
         -2   -1    0    0    0  501 -0.00000000000E+00  0.00000000000E+00  0.92713434040E+02  0.92713434075E+02  0.25500000000E-02 0. -1.
          2   -1    0    0  501    0  0.00000000000E+00 -0.00000000000E+00 -0.12382372207E+03  0.12382372210E+03  0.25500000000E-02 0.  1.
    5000001    1    1    2    0    0  0.50162259303E+02 -0.23946058579E+02  0.34578036305E+02  0.10106585266E+03  0.77000000000E+02 0.  0.
   -5000001    1    1    2    0    0 -0.50162259303E+02  0.23946058579E+02 -0.65688324336E+02  0.11547130351E+03  0.77000000000E+02 0.  0.
<mgrwt>
<rscale>  0 0.21429067E+03</rscale>
<asrwt>0</asrwt>
<pdfrwt beam="1">  1        2 0.19049803E-01 0.21429067E+03</pdfrwt>
<pdfrwt beam="2">  1       -2 0.14263605E-01 0.21429067E+03</pdfrwt>
<totfact> 0.10641060E+04</totfact>
</mgrwt>
</event>
<event>
 4    1  0.6148427E-004  0.2100045E+03  0.7818608E-02  0.1141562E+00
          2   -1    0    0  501    0  0.00000000000E+00  0.00000000000E+00  0.20188107100E+04  0.20188107100E+04  0.25500000000E-02 0.  1.
         -2   -1    0    0    0  501 -0.00000000000E+00 -0.00000000000E+00 -0.54613689062E+01  0.54613695015E+01  0.25500000000E-02 0. -1.
    5000001    1    1    2    0    0  0.58703518409E+02 -0.30756228017E+02  0.12625077973E+04  0.12665887205E+04  0.77000000000E+02 0.  0.
   -5000001    1    1    2    0    0 -0.58703518409E+02  0.30756228017E+02  0.75084154383E+03  0.75768335904E+03  0.77000000000E+02 0.  0.
<mgrwt>
<rscale>  0 0.21000448E+03</rscale>
<asrwt>0</asrwt>
<pdfrwt beam="1">  1        2 0.31058731E+00 0.21000448E+03</pdfrwt>
<pdfrwt beam="2">  1       -2 0.84020782E-03 0.21000448E+03</pdfrwt>
<totfact> 0.19752062E+04</totfact>
</mgrwt>
</event>
<event>
 4    1  0.6148427E-004  0.3980781E+03  0.7818608E-02  0.1044447E+00
          2   -1    0    0  501    0  0.00000000000E+00  0.00000000000E+00  0.12678629395E+03  0.12678629397E+03  0.25500000000E-02 0.  1.
         -2   -1    0    0    0  501 -0.00000000000E+00 -0.00000000000E+00 -0.31246705310E+03  0.31246705311E+03  0.25500000000E-02 0. -1.
    5000001    1    1    2    0    0  0.40229416120E+02 -0.17865557373E+03 -0.10641396422E+03  0.22536448640E+03  0.77000000000E+02 0.  0.
   -5000001    1    1    2    0    0 -0.40229416120E+02  0.17865557373E+03 -0.79266794930E+02  0.21388886069E+03  0.77000000000E+02 0.  0.
<mgrwt>
<rscale>  0 0.39807808E+03</rscale>
<asrwt>0</asrwt>
<pdfrwt beam="1">  1        2 0.19505584E-01 0.39807808E+03</pdfrwt>
<pdfrwt beam="2">  1       -2 0.48071854E-01 0.39807808E+03</pdfrwt>
<totfact> 0.11964019E+03</totfact>
</mgrwt>
</event>
<event>
 4    1  0.6148427E-004  0.1613237E+03  0.7818608E-02  0.1187210E+00
         -2   -1    0    0    0  501 -0.00000000000E+00  0.00000000000E+00  0.52124900553E+01  0.52124906790E+01  0.25500000000E-02 0. -1.
          2   -1    0    0  501    0  0.00000000000E+00 -0.00000000000E+00 -0.12482195872E+04  0.12482195872E+04  0.25500000000E-02 0.  1.
    5000001    1    1    2    0    0 -0.72048174834E+01 -0.12547095097E+02 -0.77055039962E+03  0.77452324519E+03  0.77000000000E+02 0.  0.
   -5000001    1    1    2    0    0  0.72048174834E+01  0.12547095097E+02 -0.47245669749E+03  0.47890883265E+03  0.77000000000E+02 0.  0.
<mgrwt>
<rscale>  0 0.16132368E+03</rscale>
<asrwt>0</asrwt>
<pdfrwt beam="1">  1        2 0.19203354E+00 0.16132368E+03</pdfrwt>
<pdfrwt beam="2">  1       -2 0.80192259E-03 0.16132368E+03</pdfrwt>
<totfact> 0.52844517E+04</totfact>
</mgrwt>
</event>
<event>
 4    1  0.6148427E-004  0.4308637E+03  0.7818608E-02  0.1033587E+00
         -2   -1    0    0    0  501 -0.00000000000E+00  0.00000000000E+00  0.72005851912E+02  0.72005851958E+02  0.25500000000E-02 0. -1.
          2   -1    0    0  501    0  0.00000000000E+00 -0.00000000000E+00 -0.64454333856E+03  0.64454333857E+03  0.25500000000E-02 0.  1.
    5000001    1    1    2    0    0  0.11411965219E+03 -0.53694253085E+02 -0.25558885982E+02  0.14996207682E+03  0.77000000000E+02 0.  0.
   -5000001    1    1    2    0    0 -0.11411965219E+03  0.53694253085E+02 -0.54697860067E+03  0.56658711371E+03  0.77000000000E+02 0.  0.
<mgrwt>
<rscale>  0 0.43086375E+03</rscale>
<asrwt>0</asrwt>
<pdfrwt beam="1">  1        2 0.99160510E-01 0.43086375E+03</pdfrwt>
<pdfrwt beam="2">  1       -2 0.11077824E-01 0.43086375E+03</pdfrwt>
<totfact> 0.26233204E+03</totfact>
</mgrwt>
</event>
<event>
 4    1  0.6148427E-004  0.1651697E+03  0.7818608E-02  0.1182981E+00
         -2   -1    0    0    0  501 -0.00000000000E+00  0.00000000000E+00  0.29704862282E+01  0.29704873227E+01  0.25500000000E-02 0. -1.
          2   -1    0    0  501    0  0.00000000000E+00 -0.00000000000E+00 -0.22960066568E+04  0.22960066568E+04  0.25500000000E-02 0.  1.
    5000001    1    1    2    0    0  0.20639049083E+02 -0.19761409116E+02 -0.10261589851E+04  0.10294405016E+04  0.77000000000E+02 0.  0.
   -5000001    1    1    2    0    0 -0.20639049083E+02  0.19761409116E+02 -0.12668771855E+04  0.12695366425E+04  0.77000000000E+02 0.  0.
<mgrwt>
<rscale>  0 0.16516970E+03</rscale>
<asrwt>0</asrwt>
<pdfrwt beam="1">  1        2 0.35323037E+00 0.16516970E+03</pdfrwt>
<pdfrwt beam="2">  1       -2 0.45699980E-03 0.16516970E+03</pdfrwt>
<totfact> 0.33451695E+04</totfact>
</mgrwt>
</event>
<event>
 4    1  0.6148427E-004  0.1933916E+03  0.7818608E-02  0.1155437E+00
         -2   -1    0    0    0  501 -0.00000000000E+00  0.00000000000E+00  0.61774521260E+03  0.61774521261E+03  0.25500000000E-02 0. -1.
          2   -1    0    0  501    0  0.00000000000E+00 -0.00000000000E+00 -0.15135813144E+02  0.15135813359E+02  0.25500000000E-02 0.  1.
    5000001    1    1    2    0    0 -0.25042465971E+02  0.24841229445E+02  0.14861835673E+03  0.17105738142E+03  0.77000000000E+02 0.  0.
   -5000001    1    1    2    0    0  0.25042465971E+02 -0.24841229445E+02  0.45399104273E+03  0.46182364454E+03  0.77000000000E+02 0.  0.
<mgrwt>
<rscale>  0 0.19339158E+03</rscale>
<asrwt>0</asrwt>
<pdfrwt beam="1">  1        2 0.23285863E-02 0.19339158E+03</pdfrwt>
<pdfrwt beam="2">  1       -2 0.95037739E-01 0.19339158E+03</pdfrwt>
<totfact> 0.41782060E+03</totfact>
</mgrwt>
</event>
<event>
 4    1  0.6148427E-004  0.2432952E+03  0.7818608E-02  0.1117617E+00
          2   -1    0    0  501    0  0.00000000000E+00  0.00000000000E+00  0.60026495581E+03  0.60026495581E+03  0.25500000000E-02 0.  1.
         -2   -1    0    0    0  501 -0.00000000000E+00 -0.00000000000E+00 -0.24652672604E+02  0.24652672736E+02  0.25500000000E-02 0. -1.
    5000001    1    1    2    0    0  0.77092608814E+02  0.53968854952E+02  0.27846427473E+03  0.30385401090E+03  0.77000000000E+02 0.  0.
   -5000001    1    1    2    0    0 -0.77092608814E+02 -0.53968854952E+02  0.29714800848E+03  0.32106361765E+03  0.77000000000E+02 0.  0.
<mgrwt>
<rscale>  0 0.24329517E+03</rscale>
<asrwt>0</asrwt>
<pdfrwt beam="1">  1        2 0.92348459E-01 0.24329517E+03</pdfrwt>
<pdfrwt beam="2">  1       -2 0.37927187E-02 0.24329517E+03</pdfrwt>
<totfact> 0.14835110E+04</totfact>
</mgrwt>
</event>
<event>
 4    1  0.6148427E-004  0.2177970E+03  0.7818608E-02  0.1135536E+00
         -2   -1    0    0    0  501 -0.00000000000E+00  0.00000000000E+00  0.37429649859E+02  0.37429649946E+02  0.25500000000E-02 0. -1.
          2   -1    0    0  501    0  0.00000000000E+00 -0.00000000000E+00 -0.31683123388E+03  0.31683123389E+03  0.25500000000E-02 0.  1.
    5000001    1    1    2    0    0  0.15971693257E+02  0.60400148180E+02 -0.66476304169E+02  0.11937910999E+03  0.77000000000E+02 0.  0.
   -5000001    1    1    2    0    0 -0.15971693257E+02 -0.60400148180E+02 -0.21292527985E+03  0.23488177385E+03  0.77000000000E+02 0.  0.
<mgrwt>
<rscale>  0 0.21779699E+03</rscale>
<asrwt>0</asrwt>
<pdfrwt beam="1">  1        2 0.48743265E-01 0.21779699E+03</pdfrwt>
<pdfrwt beam="2">  1       -2 0.57584079E-02 0.21779699E+03</pdfrwt>
<totfact> 0.15841840E+04</totfact>
</mgrwt>
</event>
<event>
 4    1  0.6148427E-004  0.2417063E+03  0.7818608E-02  0.1118661E+00
         -2   -1    0    0    0  501 -0.00000000000E+00  0.00000000000E+00  0.24004092148E+02  0.24004092283E+02  0.25500000000E-02 0. -1.
          2   -1    0    0  501    0  0.00000000000E+00 -0.00000000000E+00 -0.60845798358E+03  0.60845798358E+03  0.25500000000E-02 0.  1.
    5000001    1    1    2    0    0  0.69368702617E+02  0.57673688188E+02 -0.35293168121E+03  0.37232787005E+03  0.77000000000E+02 0.  0.
   -5000001    1    1    2    0    0 -0.69368702617E+02 -0.57673688188E+02 -0.23152221022E+03  0.26013420582E+03  0.77000000000E+02 0.  0.
<mgrwt>
<rscale>  0 0.24170628E+03</rscale>
<asrwt>0</asrwt>
<pdfrwt beam="1">  1        2 0.93608909E-01 0.24170628E+03</pdfrwt>
<pdfrwt beam="2">  1       -2 0.36929377E-02 0.24170628E+03</pdfrwt>
<totfact> 0.15193381E+04</totfact>
</mgrwt>
</event>
<event>
 4    1  0.6148427E-004  0.3532276E+03  0.7818608E-02  0.1061298E+00
          2   -1    0    0  501    0  0.00000000000E+00  0.00000000000E+00  0.22471706340E+03  0.22471706342E+03  0.25500000000E-02 0.  1.
         -2   -1    0    0    0  501 -0.00000000000E+00 -0.00000000000E+00 -0.13880756894E+03  0.13880756896E+03  0.25500000000E-02 0. -1.
    5000001    1    1    2    0    0  0.14819815190E+03  0.49347302649E+02  0.12676338376E+02  0.17460680989E+03  0.77000000000E+02 0.  0.
   -5000001    1    1    2    0    0 -0.14819815190E+03 -0.49347302649E+02  0.73233156088E+02  0.18891782249E+03  0.77000000000E+02 0.  0.
<mgrwt>
<rscale>  0 0.35322757E+03</rscale>
<asrwt>0</asrwt>
<pdfrwt beam="1">  1        2 0.34571855E-01 0.35322757E+03</pdfrwt>
<pdfrwt beam="2">  1       -2 0.21355011E-01 0.35322757E+03</pdfrwt>
<totfact> 0.28243567E+03</totfact>
</mgrwt>
</event>
<event>
 4    1  0.6148427E-004  0.3412335E+03  0.7818608E-02  0.1066272E+00
          2   -1    0    0  501    0  0.00000000000E+00  0.00000000000E+00  0.25508925040E+03  0.25508925041E+03  0.25500000000E-02 0.  1.
         -2   -1    0    0    0  501 -0.00000000000E+00 -0.00000000000E+00 -0.11411722415E+03  0.11411722418E+03  0.25500000000E-02 0. -1.
    5000001    1    1    2    0    0  0.90186108110E+02  0.12261542166E+03  0.74387350498E+02  0.18609286294E+03  0.77000000000E+02 0.  0.
   -5000001    1    1    2    0    0 -0.90186108110E+02 -0.12261542166E+03  0.66584675755E+02  0.18311361165E+03  0.77000000000E+02 0.  0.
<mgrwt>
<rscale>  0 0.34123351E+03</rscale>
<asrwt>0</asrwt>
<pdfrwt beam="1">  1        2 0.39244500E-01 0.34123351E+03</pdfrwt>
<pdfrwt beam="2">  1       -2 0.17556496E-01 0.34123351E+03</pdfrwt>
<totfact> 0.34374738E+03</totfact>
</mgrwt>
</event>
<event>
 4    1  0.6148427E-004  0.1968447E+03  0.7818608E-02  0.1152429E+00
         -2   -1    0    0    0  501 -0.00000000000E+00  0.00000000000E+00  0.15596046002E+02  0.15596046210E+02  0.25500000000E-02 0. -1.
          2   -1    0    0  501    0  0.00000000000E+00 -0.00000000000E+00 -0.62111646788E+03  0.62111646789E+03  0.25500000000E-02 0.  1.
    5000001    1    1    2    0    0  0.16677341839E+02  0.57522812856E+02 -0.34505222936E+03  0.35857641964E+03  0.77000000000E+02 0.  0.
   -5000001    1    1    2    0    0 -0.16677341839E+02 -0.57522812856E+02 -0.26046819252E+03  0.27813609447E+03  0.77000000000E+02 0.  0.
<mgrwt>
<rscale>  0 0.19684472E+03</rscale>
<asrwt>0</asrwt>
<pdfrwt beam="1">  1        2 0.95556361E-01 0.19684472E+03</pdfrwt>
<pdfrwt beam="2">  1       -2 0.23993922E-02 0.19684472E+03</pdfrwt>
<totfact> 0.27750779E+04</totfact>
</mgrwt>
</event>
<event>
 4    1  0.6148427E-004  0.3077231E+03  0.7818608E-02  0.1081442E+00
         -2   -1    0    0    0  501 -0.00000000000E+00  0.00000000000E+00  0.17450674834E+02  0.17450675020E+02  0.25500000000E-02 0. -1.
          2   -1    0    0  501    0  0.00000000000E+00 -0.00000000000E+00 -0.13565883193E+04  0.13565883193E+04  0.25500000000E-02 0.  1.
    5000001    1    1    2    0    0  0.41388209547E+02 -0.76655734959E+02 -0.11195405303E+04  0.11255616751E+04  0.77000000000E+02 0.  0.
   -5000001    1    1    2    0    0 -0.41388209547E+02  0.76655734959E+02 -0.21959711418E+03  0.24847731918E+03  0.77000000000E+02 0.  0.
<mgrwt>
<rscale>  0 0.30772313E+03</rscale>
<asrwt>0</asrwt>
<pdfrwt beam="1">  1        2 0.20870581E+00 0.30772313E+03</pdfrwt>
<pdfrwt beam="2">  1       -2 0.26847203E-02 0.30772313E+03</pdfrwt>
<totfact> 0.81774428E+03</totfact>
</mgrwt>
</event>
<event>
 4    1  0.6148427E-004  0.2792660E+03  0.7818608E-02  0.1096091E+00
         -2   -1    0    0    0  501 -0.00000000000E+00  0.00000000000E+00  0.27456457763E+02  0.27456457881E+02  0.25500000000E-02 0. -1.
          2   -1    0    0  501    0  0.00000000000E+00 -0.00000000000E+00 -0.71011990896E+03  0.71011990896E+03  0.25500000000E-02 0.  1.
    5000001    1    1    2    0    0 -0.45429721227E+02 -0.61785568549E+02 -0.57289467386E+03  0.58311115869E+03  0.77000000000E+02 0.  0.
   -5000001    1    1    2    0    0  0.45429721227E+02  0.61785568549E+02 -0.10976877733E+03  0.15446520815E+03  0.77000000000E+02 0.  0.
<mgrwt>
<rscale>  0 0.27926602E+03</rscale>
<asrwt>0</asrwt>
<pdfrwt beam="1">  1        2 0.10924920E+00 0.27926602E+03</pdfrwt>
<pdfrwt beam="2">  1       -2 0.42240710E-02 0.27926602E+03</pdfrwt>
<totfact> 0.10395975E+04</totfact>
</mgrwt>
</event>
<event>
 4    1  0.6148427E-004  0.2375309E+03  0.7818608E-02  0.1121449E+00
         -2   -1    0    0    0  501 -0.00000000000E+00  0.00000000000E+00  0.16732424681E+02  0.16732424875E+02  0.25500000000E-02 0. -1.
          2   -1    0    0  501    0  0.00000000000E+00 -0.00000000000E+00 -0.84298826453E+03  0.84298826454E+03  0.25500000000E-02 0.  1.
    5000001    1    1    2    0    0 -0.63334986363E+02  0.64471650320E+02 -0.42357009806E+03  0.43989605836E+03  0.77000000000E+02 0.  0.
   -5000001    1    1    2    0    0  0.63334986363E+02 -0.64471650320E+02 -0.40268574179E+03  0.41982463105E+03  0.77000000000E+02 0.  0.
<mgrwt>
<rscale>  0 0.23753095E+03</rscale>
<asrwt>0</asrwt>
<pdfrwt beam="1">  1        2 0.12969047E+00 0.23753095E+03</pdfrwt>
<pdfrwt beam="2">  1       -2 0.25742198E-02 0.23753095E+03</pdfrwt>
<totfact> 0.17429807E+04</totfact>
</mgrwt>
</event>
<event>
 4    1  0.6148427E-004  0.3358465E+03  0.7818608E-02  0.1068579E+00
         -2   -1    0    0    0  501 -0.00000000000E+00  0.00000000000E+00  0.83708142756E+02  0.83708142795E+02  0.25500000000E-02 0. -1.
          2   -1    0    0  501    0  0.00000000000E+00 -0.00000000000E+00 -0.33686353243E+03  0.33686353244E+03  0.25500000000E-02 0.  1.
    5000001    1    1    2    0    0 -0.91067472075E+02  0.74906269942E+02 -0.12044386541E+02  0.14134461785E+03  0.77000000000E+02 0.  0.
   -5000001    1    1    2    0    0  0.91067472075E+02 -0.74906269942E+02 -0.24111100313E+03  0.27922705739E+03  0.77000000000E+02 0.  0.
<mgrwt>
<rscale>  0 0.33584652E+03</rscale>
<asrwt>0</asrwt>
<pdfrwt beam="1">  1        2 0.51825158E-01 0.33584652E+03</pdfrwt>
<pdfrwt beam="2">  1       -2 0.12878176E-01 0.33584652E+03</pdfrwt>
<totfact> 0.42539116E+03</totfact>
</mgrwt>
</event>
<event>
 4    1  0.6148427E-004  0.1975541E+03  0.7818608E-02  0.1151819E+00
          2   -1    0    0  501    0  0.00000000000E+00  0.00000000000E+00  0.74842160665E+03  0.74842160665E+03  0.25500000000E-02 0.  1.
         -2   -1    0    0    0  501 -0.00000000000E+00 -0.00000000000E+00 -0.13036645234E+02  0.13036645484E+02  0.25500000000E-02 0. -1.
    5000001    1    1    2    0    0  0.44840618353E+02 -0.41529446374E+02  0.33061554150E+03  0.34492174801E+03  0.77000000000E+02 0.  0.
   -5000001    1    1    2    0    0 -0.44840618353E+02  0.41529446374E+02  0.40476941991E+03  0.41653650412E+03  0.77000000000E+02 0.  0.
<mgrwt>
<rscale>  0 0.19755411E+03</rscale>
<asrwt>0</asrwt>
<pdfrwt beam="1">  1        2 0.11514184E+00 0.19755411E+03</pdfrwt>
<pdfrwt beam="2">  1       -2 0.20056368E-02 0.19755411E+03</pdfrwt>
<totfact> 0.28898669E+04</totfact>
</mgrwt>
</event>
<event>
 4    1  0.6148427E-004  0.4549724E+03  0.7818608E-02  0.1026250E+00
         -2   -1    0    0    0  501 -0.00000000000E+00  0.00000000000E+00  0.19439640856E+03  0.19439640857E+03  0.25500000000E-02 0. -1.
          2   -1    0    0  501    0  0.00000000000E+00 -0.00000000000E+00 -0.26620846418E+03  0.26620846419E+03  0.25500000000E-02 0.  1.
    5000001    1    1    2    0    0  0.19196322813E+03  0.90044252166E+02 -0.61633996098E+01  0.22566531811E+03  0.77000000000E+02 0.  0.
   -5000001    1    1    2    0    0 -0.19196322813E+03 -0.90044252166E+02 -0.65648656013E+02  0.23493955465E+03  0.77000000000E+02 0.  0.
<mgrwt>
<rscale>  0 0.45497239E+03</rscale>
<asrwt>0</asrwt>
<pdfrwt beam="1">  1        2 0.40955148E-01 0.45497239E+03</pdfrwt>
<pdfrwt beam="2">  1       -2 0.29907140E-01 0.45497239E+03</pdfrwt>
<totfact> 0.12899203E+03</totfact>
</mgrwt>
</event>
<event>
 4    1  0.6148427E-004  0.4349940E+03  0.7818608E-02  0.1032294E+00
          2   -1    0    0  501    0  0.00000000000E+00  0.00000000000E+00  0.20519744144E+04  0.20519744144E+04  0.25500000000E-02 0.  1.
         -2   -1    0    0    0  501 -0.00000000000E+00 -0.00000000000E+00 -0.23053379128E+02  0.23053379269E+02  0.25500000000E-02 0. -1.
    5000001    1    1    2    0    0  0.24667479738E+02  0.14670979711E+03  0.16761967115E+04  0.16845464271E+04  0.77000000000E+02 0.  0.
   -5000001    1    1    2    0    0 -0.24667479738E+02 -0.14670979711E+03  0.35272432376E+03  0.39048136664E+03  0.77000000000E+02 0.  0.
<mgrwt>
<rscale>  0 0.43499400E+03</rscale>
<asrwt>0</asrwt>
<pdfrwt beam="1">  1        2 0.31568839E+00 0.43499400E+03</pdfrwt>
<pdfrwt beam="2">  1       -2 0.35466735E-02 0.43499400E+03</pdfrwt>
<totfact> 0.22778747E+03</totfact>
</mgrwt>
</event>
<event>
 4    1  0.6148427E-004  0.2541170E+03  0.7818608E-02  0.1110730E+00
          2   -1    0    0  501    0  0.00000000000E+00  0.00000000000E+00  0.19697324122E+03  0.19697324124E+03  0.25500000000E-02 0.  1.
         -2   -1    0    0    0  501 -0.00000000000E+00 -0.00000000000E+00 -0.81959700528E+02  0.81959700567E+02  0.25500000000E-02 0. -1.
    5000001    1    1    2    0    0 -0.41880172378E+02  0.99843181400E+01 -0.42862591369E+02  0.98080768686E+02  0.77000000000E+02 0.  0.
   -5000001    1    1    2    0    0  0.41880172378E+02 -0.99843181400E+01  0.15787613207E+03  0.18085217312E+03  0.77000000000E+02 0.  0.
<mgrwt>
<rscale>  0 0.25411704E+03</rscale>
<asrwt>0</asrwt>
<pdfrwt beam="1">  1        2 0.30303575E-01 0.25411704E+03</pdfrwt>
<pdfrwt beam="2">  1       -2 0.12609185E-01 0.25411704E+03</pdfrwt>
<totfact> 0.78050175E+03</totfact>
</mgrwt>
</event>
<event>
 4    1  0.6148427E-004  0.3562891E+03  0.7818608E-02  0.1060063E+00
          2   -1    0    0  501    0  0.00000000000E+00  0.00000000000E+00  0.12227719608E+04  0.12227719608E+04  0.25500000000E-02 0.  1.
         -2   -1    0    0    0  501 -0.00000000000E+00 -0.00000000000E+00 -0.25953722741E+02  0.25953722866E+02  0.25500000000E-02 0. -1.
    5000001    1    1    2    0    0  0.12261290480E+03  0.48779562801E+02  0.27731965722E+03  0.31662053384E+03  0.77000000000E+02 0.  0.
   -5000001    1    1    2    0    0 -0.12261290480E+03 -0.48779562801E+02  0.91949858084E+03  0.93210514983E+03  0.77000000000E+02 0.  0.
<mgrwt>
<rscale>  0 0.35628912E+03</rscale>
<asrwt>0</asrwt>
<pdfrwt beam="1">  1        2 0.18811872E+00 0.35628912E+03</pdfrwt>
<pdfrwt beam="2">  1       -2 0.39928813E-02 0.35628912E+03</pdfrwt>
<totfact> 0.53648355E+03</totfact>
</mgrwt>
</event>
<event>
 4    1  0.6148427E-004  0.2766983E+03  0.7818608E-02  0.1097506E+00
         -2   -1    0    0    0  501 -0.00000000000E+00  0.00000000000E+00  0.53537138077E+02  0.53537138138E+02  0.25500000000E-02 0. -1.
          2   -1    0    0  501    0  0.00000000000E+00 -0.00000000000E+00 -0.35751781771E+03  0.35751781772E+03  0.25500000000E-02 0.  1.
    5000001    1    1    2    0    0 -0.10612331249E+03 -0.30800949650E+02 -0.19898290039E+03  0.24027910979E+03  0.77000000000E+02 0.  0.
   -5000001    1    1    2    0    0  0.10612331249E+03  0.30800949650E+02 -0.10499777924E+03  0.17077584607E+03  0.77000000000E+02 0.  0.
<mgrwt>
<rscale>  0 0.27669825E+03</rscale>
<asrwt>0</asrwt>
<pdfrwt beam="1">  1        2 0.55002740E-01 0.27669825E+03</pdfrwt>
<pdfrwt beam="2">  1       -2 0.82364830E-02 0.27669825E+03</pdfrwt>
<totfact> 0.81002002E+03</totfact>
</mgrwt>
</event>
<event>
 4    1  0.6148427E-004  0.2550886E+03  0.7818608E-02  0.1110131E+00
         -2   -1    0    0    0  501 -0.00000000000E+00  0.00000000000E+00  0.23044269399E+02  0.23044269540E+02  0.25500000000E-02 0. -1.
          2   -1    0    0  501    0  0.00000000000E+00 -0.00000000000E+00 -0.70592585899E+03  0.70592585900E+03  0.25500000000E-02 0.  1.
    5000001    1    1    2    0    0  0.12002226976E+02 -0.76916941021E+02 -0.15452192738E+03  0.18938398905E+03  0.77000000000E+02 0.  0.
   -5000001    1    1    2    0    0 -0.12002226976E+02  0.76916941021E+02 -0.52835966221E+03  0.53958613948E+03  0.77000000000E+02 0.  0.
<mgrwt>
<rscale>  0 0.25508858E+03</rscale>
<asrwt>0</asrwt>
<pdfrwt beam="1">  1        2 0.10860396E+00 0.25508858E+03</pdfrwt>
<pdfrwt beam="2">  1       -2 0.35452728E-02 0.25508858E+03</pdfrwt>
<totfact> 0.13573242E+04</totfact>
</mgrwt>
</event>
<event>
 4    1  0.6148427E-004  0.3028708E+03  0.7818608E-02  0.1083814E+00
          2   -1    0    0  501    0  0.00000000000E+00  0.00000000000E+00  0.29850218264E+02  0.29850218373E+02  0.25500000000E-02 0.  1.
         -2   -1    0    0    0  501 -0.00000000000E+00 -0.00000000000E+00 -0.76825816037E+03  0.76825816037E+03  0.25500000000E-02 0. -1.
    5000001    1    1    2    0    0 -0.81842580030E+02 -0.10051442388E+03 -0.33172219345E+03  0.36437613937E+03  0.77000000000E+02 0.  0.
   -5000001    1    1    2    0    0  0.81842580030E+02  0.10051442388E+03 -0.40668574866E+03  0.43373223938E+03  0.77000000000E+02 0.  0.
<mgrwt>
<rscale>  0 0.30287076E+03</rscale>
<asrwt>0</asrwt>
<pdfrwt beam="1">  1        2 0.45923418E-02 0.30287076E+03</pdfrwt>
<pdfrwt beam="2">  1       -2 0.11819355E+00 0.30287076E+03</pdfrwt>
<totfact> 0.10175134E+03</totfact>
</mgrwt>
</event>
<event>
 4    1  0.6148427E-004  0.2511203E+03  0.7818608E-02  0.1112599E+00
         -2   -1    0    0    0  501 -0.00000000000E+00  0.00000000000E+00  0.42912663272E+02  0.42912663347E+02  0.25500000000E-02 0. -1.
          2   -1    0    0  501    0  0.00000000000E+00 -0.00000000000E+00 -0.36738212403E+03  0.36738212404E+03  0.25500000000E-02 0.  1.
    5000001    1    1    2    0    0 -0.69239283555E+01 -0.83351830211E+02 -0.75150308057E+02  0.13627926175E+03  0.77000000000E+02 0.  0.
   -5000001    1    1    2    0    0  0.69239283555E+01  0.83351830211E+02 -0.24931915270E+03  0.27401552563E+03  0.77000000000E+02 0.  0.
<mgrwt>
<rscale>  0 0.25112025E+03</rscale>
<asrwt>0</asrwt>
<pdfrwt beam="1">  1        2 0.56520325E-01 0.25112025E+03</pdfrwt>
<pdfrwt beam="2">  1       -2 0.66019484E-02 0.25112025E+03</pdfrwt>
<totfact> 0.11043777E+04</totfact>
</mgrwt>
</event>
<event>
 4    1  0.6148427E-004  0.7505620E+03  0.7818608E-02  0.9634469E-01
          2   -1    0    0  501    0  0.00000000000E+00  0.00000000000E+00  0.95240888178E+03  0.95240888178E+03  0.25500000000E-02 0.  1.
         -2   -1    0    0    0  501 -0.00000000000E+00 -0.00000000000E+00 -0.14787328192E+03  0.14787328194E+03  0.25500000000E-02 0. -1.
    5000001    1    1    2    0    0 -0.14050705175E+01 -0.27005487821E+03  0.76721205052E+03  0.81699139648E+03  0.77000000000E+02 0.  0.
   -5000001    1    1    2    0    0  0.14050705175E+01  0.27005487821E+03  0.37323549339E+02  0.28329076724E+03  0.77000000000E+02 0.  0.
<mgrwt>
<rscale>  0 0.75056200E+03</rscale>
<asrwt>0</asrwt>
<pdfrwt beam="1">  1        2 0.14652445E+00 0.75056200E+03</pdfrwt>
<pdfrwt beam="2">  1       -2 0.22749735E-01 0.75056200E+03</pdfrwt>
<totfact> 0.46210577E+02</totfact>
</mgrwt>
</event>
<event>
 4    1  0.6148427E-004  0.7969529E+03  0.7818608E-02  0.9564438E-01
          2   -1    0    0  501    0  0.00000000000E+00  0.00000000000E+00  0.23197277904E+04  0.23197277904E+04  0.25500000000E-02 0.  1.
         -2   -1    0    0    0  501 -0.00000000000E+00 -0.00000000000E+00 -0.68449189213E+02  0.68449189260E+02  0.25500000000E-02 0. -1.
    5000001    1    1    2    0    0 -0.37241039603E+03  0.11875320867E+03  0.11493598696E+04  0.12164493156E+04  0.77000000000E+02 0.  0.
   -5000001    1    1    2    0    0  0.37241039603E+03 -0.11875320867E+03  0.11019187316E+04  0.11717276641E+04  0.77000000000E+02 0.  0.
<mgrwt>
<rscale>  0 0.79695291E+03</rscale>
<asrwt>0</asrwt>
<pdfrwt beam="1">  1        2 0.35688118E+00 0.79695291E+03</pdfrwt>
<pdfrwt beam="2">  1       -2 0.10530645E-01 0.79695291E+03</pdfrwt>
<totfact> 0.28658251E+02</totfact>
</mgrwt>
</event>
<event>
 4    1  0.6148427E-004  0.2352272E+03  0.7818608E-02  0.1123014E+00
         -2   -1    0    0    0  501 -0.00000000000E+00  0.00000000000E+00  0.77568359169E+01  0.77568363361E+01  0.25500000000E-02 0. -1.
          2   -1    0    0  501    0  0.00000000000E+00 -0.00000000000E+00 -0.17833250038E+04  0.17833250038E+04  0.25500000000E-02 0.  1.
    5000001    1    1    2    0    0  0.79103459862E+02  0.36867043144E+02 -0.75869513079E+03  0.76757008652E+03  0.77000000000E+02 0.  0.
   -5000001    1    1    2    0    0 -0.79103459862E+02 -0.36867043144E+02 -0.10168730371E+04  0.10235117537E+04  0.77000000000E+02 0.  0.
<mgrwt>
<rscale>  0 0.23522721E+03</rscale>
<asrwt>0</asrwt>
<pdfrwt beam="1">  1        2 0.27435737E+00 0.23522721E+03</pdfrwt>
<pdfrwt beam="2">  1       -2 0.11933608E-02 0.23522721E+03</pdfrwt>
<totfact> 0.15836401E+04</totfact>
</mgrwt>
</event>
<event>
 4    1  0.6148427E-004  0.5019878E+03  0.7818608E-02  0.1013261E+00
          2   -1    0    0  501    0  0.00000000000E+00  0.00000000000E+00  0.42394863724E+03  0.42394863725E+03  0.25500000000E-02 0.  1.
         -2   -1    0    0    0  501 -0.00000000000E+00 -0.00000000000E+00 -0.14859802214E+03  0.14859802217E+03  0.25500000000E-02 0. -1.
    5000001    1    1    2    0    0 -0.20589222369E+03  0.39646853885E+02  0.26824539414E+03  0.34906743227E+03  0.77000000000E+02 0.  0.
   -5000001    1    1    2    0    0  0.20589222369E+03 -0.39646853885E+02  0.71052209580E+01  0.22347922714E+03  0.77000000000E+02 0.  0.
<mgrwt>
<rscale>  0 0.50198776E+03</rscale>
<asrwt>0</asrwt>
<pdfrwt beam="1">  1        2 0.65222868E-01 0.50198776E+03</pdfrwt>
<pdfrwt beam="2">  1       -2 0.22861234E-01 0.50198776E+03</pdfrwt>
<totfact> 0.12533549E+03</totfact>
</mgrwt>
</event>
<event>
 4    1  0.6148427E-004  0.1930371E+03  0.7818608E-02  0.1155750E+00
         -2   -1    0    0    0  501 -0.00000000000E+00  0.00000000000E+00  0.25191459701E+03  0.25191459703E+03  0.25500000000E-02 0. -1.
          2   -1    0    0  501    0  0.00000000000E+00 -0.00000000000E+00 -0.36980130480E+02  0.36980130568E+02  0.25500000000E-02 0.  1.
    5000001    1    1    2    0    0  0.20615796768E+02 -0.34135499950E+02  0.17090141962E+03  0.19164169343E+03  0.77000000000E+02 0.  0.
   -5000001    1    1    2    0    0 -0.20615796768E+02  0.34135499950E+02  0.44033046911E+02  0.97253034161E+02  0.77000000000E+02 0.  0.
<mgrwt>
<rscale>  0 0.19303714E+03</rscale>
<asrwt>0</asrwt>
<pdfrwt beam="1">  1        2 0.56892510E-02 0.19303714E+03</pdfrwt>
<pdfrwt beam="2">  1       -2 0.38756091E-01 0.19303714E+03</pdfrwt>
<totfact> 0.81238673E+03</totfact>
</mgrwt>
</event>
<event>
 4    1  0.6148427E-004  0.1672560E+03  0.7818608E-02  0.1180740E+00
         -2   -1    0    0    0  501 -0.00000000000E+00  0.00000000000E+00  0.16378444023E+02  0.16378444221E+02  0.25500000000E-02 0. -1.
          2   -1    0    0  501    0  0.00000000000E+00 -0.00000000000E+00 -0.42700288936E+03  0.42700288936E+03  0.25500000000E-02 0.  1.
    5000001    1    1    2    0    0  0.27406146380E+02 -0.11598140787E+02 -0.16984251069E+03  0.18884144716E+03  0.77000000000E+02 0.  0.
   -5000001    1    1    2    0    0 -0.27406146380E+02  0.11598140787E+02 -0.24078193464E+03  0.25453988642E+03  0.77000000000E+02 0.  0.
<mgrwt>
<rscale>  0 0.16725601E+03</rscale>
<asrwt>0</asrwt>
<pdfrwt beam="1">  1        2 0.65692744E-01 0.16725601E+03</pdfrwt>
<pdfrwt beam="2">  1       -2 0.25197610E-02 0.16725601E+03</pdfrwt>
<totfact> 0.38690618E+04</totfact>
</mgrwt>
</event>
<event>
 4    1  0.6148427E-004  0.2244151E+03  0.7818608E-02  0.1130634E+00
         -2   -1    0    0    0  501 -0.00000000000E+00  0.00000000000E+00  0.18535599695E+03  0.18535599697E+03  0.25500000000E-02 0. -1.
          2   -1    0    0  501    0  0.00000000000E+00 -0.00000000000E+00 -0.67926244994E+02  0.67926245042E+02  0.25500000000E-02 0.  1.
    5000001    1    1    2    0    0  0.49497965112E+02  0.23394801986E+02 -0.96039699240E+01  0.94966317969E+02  0.77000000000E+02 0.  0.
   -5000001    1    1    2    0    0 -0.49497965112E+02 -0.23394801986E+02  0.12703372188E+03  0.15831592404E+03  0.77000000000E+02 0.  0.
<mgrwt>
<rscale>  0 0.22441512E+03</rscale>
<asrwt>0</asrwt>
<pdfrwt beam="1">  1        2 0.10450191E-01 0.22441512E+03</pdfrwt>
<pdfrwt beam="2">  1       -2 0.28516307E-01 0.22441512E+03</pdfrwt>
<totfact> 0.66678108E+03</totfact>
</mgrwt>
</event>
<event>
 4    1  0.6148427E-004  0.1777048E+03  0.7818608E-02  0.1170043E+00
         -2   -1    0    0    0  501 -0.00000000000E+00  0.00000000000E+00  0.72809166345E+01  0.72809170811E+01  0.25500000000E-02 0. -1.
          2   -1    0    0  501    0  0.00000000000E+00 -0.00000000000E+00 -0.10843074456E+04  0.10843074456E+04  0.25500000000E-02 0.  1.
    5000001    1    1    2    0    0 -0.18402232795E+02 -0.38102814435E+02 -0.45718660800E+03  0.46555242581E+03  0.77000000000E+02 0.  0.
   -5000001    1    1    2    0    0  0.18402232795E+02  0.38102814435E+02 -0.61983992095E+03  0.62603593687E+03  0.77000000000E+02 0.  0.
<mgrwt>
<rscale>  0 0.17770484E+03</rscale>
<asrwt>0</asrwt>
<pdfrwt beam="1">  1        2 0.16681640E+00 0.17770484E+03</pdfrwt>
<pdfrwt beam="2">  1       -2 0.11201419E-02 0.17770484E+03</pdfrwt>
<totfact> 0.40790927E+04</totfact>
</mgrwt>
</event>
<event>
 4    1  0.6148427E-004  0.3224775E+03  0.7818608E-02  0.1074515E+00
          2   -1    0    0  501    0  0.00000000000E+00  0.00000000000E+00  0.11992480653E+04  0.11992480653E+04  0.25500000000E-02 0.  1.
         -2   -1    0    0    0  501 -0.00000000000E+00 -0.00000000000E+00 -0.21678526936E+02  0.21678527086E+02  0.25500000000E-02 0. -1.
    5000001    1    1    2    0    0  0.13985304759E+03 -0.12800835628E+02  0.51833968029E+03  0.54251982496E+03  0.77000000000E+02 0.  0.
   -5000001    1    1    2    0    0 -0.13985304759E+03  0.12800835628E+02  0.65922985806E+03  0.67840676742E+03  0.77000000000E+02 0.  0.
<mgrwt>
<rscale>  0 0.32247748E+03</rscale>
<asrwt>0</asrwt>
<pdfrwt beam="1">  1        2 0.18449968E+00 0.32247748E+03</pdfrwt>
<pdfrwt beam="2">  1       -2 0.33351584E-02 0.32247748E+03</pdfrwt>
<totfact> 0.72498480E+03</totfact>
</mgrwt>
</event>
<event>
 4    1  0.6148427E-004  0.2304957E+03  0.7818608E-02  0.1126291E+00
         -2   -1    0    0    0  501 -0.00000000000E+00  0.00000000000E+00  0.28429943798E+03  0.28429943800E+03  0.25500000000E-02 0. -1.
          2   -1    0    0  501    0  0.00000000000E+00 -0.00000000000E+00 -0.46718576224E+02  0.46718576294E+02  0.25500000000E-02 0.  1.
    5000001    1    1    2    0    0  0.57715321286E+01  0.83990348219E+02  0.14218523922E+03  0.18230011363E+03  0.77000000000E+02 0.  0.
   -5000001    1    1    2    0    0 -0.57715321286E+01 -0.83990348219E+02  0.95395622539E+02  0.14871790066E+03  0.77000000000E+02 0.  0.
<mgrwt>
<rscale>  0 0.23049568E+03</rscale>
<asrwt>0</asrwt>
<pdfrwt beam="1">  1        2 0.71874734E-02 0.23049568E+03</pdfrwt>
<pdfrwt beam="2">  1       -2 0.43738374E-01 0.23049568E+03</pdfrwt>
<totfact> 0.48148648E+03</totfact>
</mgrwt>
</event>
<event>
 4    1  0.6148427E-004  0.1753354E+03  0.7818608E-02  0.1172395E+00
         -2   -1    0    0    0  501 -0.00000000000E+00  0.00000000000E+00  0.89804132220E+02  0.89804132256E+02  0.25500000000E-02 0. -1.
          2   -1    0    0  501    0  0.00000000000E+00 -0.00000000000E+00 -0.85582075767E+02  0.85582075805E+02  0.25500000000E-02 0.  1.
    5000001    1    1    2    0    0 -0.40713575442E+02  0.92061043434E+01  0.58905453922E+01  0.87784088008E+02  0.77000000000E+02 0.  0.
   -5000001    1    1    2    0    0  0.40713575442E+02 -0.92061043434E+01 -0.16684889399E+01  0.87602120053E+02  0.77000000000E+02 0.  0.
<mgrwt>
<rscale>  0 0.17533538E+03</rscale>
<asrwt>0</asrwt>
<pdfrwt beam="1">  1        2 0.13166473E-01 0.17533538E+03</pdfrwt>
<pdfrwt beam="2">  1       -2 0.13816020E-01 0.17533538E+03</pdfrwt>
<totfact> 0.17028886E+04</totfact>
</mgrwt>
</event>
<event>
 4    1  0.6148427E-004  0.2189572E+03  0.7818608E-02  0.1134663E+00
          2   -1    0    0  501    0  0.00000000000E+00  0.00000000000E+00  0.62552514954E+03  0.62552514954E+03  0.25500000000E-02 0.  1.
         -2   -1    0    0    0  501 -0.00000000000E+00 -0.00000000000E+00 -0.19160800036E+02  0.19160800206E+02  0.25500000000E-02 0. -1.
    5000001    1    1    2    0    0  0.11829120745E+02 -0.72410472881E+02  0.37958543865E+03  0.39420465487E+03  0.77000000000E+02 0.  0.
   -5000001    1    1    2    0    0 -0.11829120745E+02  0.72410472881E+02  0.22677891085E+03  0.25048129488E+03  0.77000000000E+02 0.  0.
<mgrwt>
<rscale>  0 0.21895719E+03</rscale>
<asrwt>0</asrwt>
<pdfrwt beam="1">  1        2 0.96234613E-01 0.21895719E+03</pdfrwt>
<pdfrwt beam="2">  1       -2 0.29478162E-02 0.21895719E+03</pdfrwt>
<totfact> 0.20461927E+04</totfact>
</mgrwt>
</event>
<event>
 4    1  0.6148427E-004  0.2576625E+03  0.7818608E-02  0.1108556E+00
         -2   -1    0    0    0  501 -0.00000000000E+00  0.00000000000E+00  0.69990437780E+02  0.69990437826E+02  0.25500000000E-02 0. -1.
          2   -1    0    0  501    0  0.00000000000E+00 -0.00000000000E+00 -0.23713947261E+03  0.23713947262E+03  0.25500000000E-02 0.  1.
    5000001    1    1    2    0    0  0.80012384711E+01 -0.95684532863E+02 -0.12894745707E+03  0.17825822935E+03  0.77000000000E+02 0.  0.
   -5000001    1    1    2    0    0 -0.80012384711E+01  0.95684532863E+02 -0.38201577763E+02  0.12887168110E+03  0.77000000000E+02 0.  0.
<mgrwt>
<rscale>  0 0.25766254E+03</rscale>
<asrwt>0</asrwt>
<pdfrwt beam="1">  1        2 0.36482995E-01 0.25766254E+03</pdfrwt>
<pdfrwt beam="2">  1       -2 0.10767760E-01 0.25766254E+03</pdfrwt>
<totfact> 0.82268975E+03</totfact>
</mgrwt>
</event>
<event>
 4    1  0.6148427E-004  0.2448074E+03  0.7818608E-02  0.1116631E+00
         -2   -1    0    0    0  501 -0.00000000000E+00  0.00000000000E+00  0.21503790391E+03  0.21503790392E+03  0.25500000000E-02 0. -1.
          2   -1    0    0  501    0  0.00000000000E+00 -0.00000000000E+00 -0.69674539777E+02  0.69674539824E+02  0.25500000000E-02 0.  1.
    5000001    1    1    2    0    0 -0.52250090563E+02 -0.38154548339E+02  0.15382436988E+03  0.18378459753E+03  0.77000000000E+02 0.  0.
   -5000001    1    1    2    0    0  0.52250090563E+02  0.38154548339E+02 -0.84610057462E+01  0.10092784621E+03  0.77000000000E+02 0.  0.
<mgrwt>
<rscale>  0 0.24480741E+03</rscale>
<asrwt>0</asrwt>
<pdfrwt beam="1">  1        2 0.10719160E-01 0.24480741E+03</pdfrwt>
<pdfrwt beam="2">  1       -2 0.33082754E-01 0.24480741E+03</pdfrwt>
<totfact> 0.49522974E+03</totfact>
</mgrwt>
</event>
<event>
 4    1  0.6148427E-004  0.1694179E+03  0.7818608E-02  0.1178456E+00
         -2   -1    0    0    0  501 -0.00000000000E+00  0.00000000000E+00  0.33408811934E+01  0.33408821665E+01  0.25500000000E-02 0. -1.
          2   -1    0    0  501    0  0.00000000000E+00 -0.00000000000E+00 -0.21478185029E+04  0.21478185029E+04  0.25500000000E-02 0.  1.
    5000001    1    1    2    0    0 -0.33033473248E+02 -0.10550203810E+02 -0.11565499510E+04  0.11596289520E+04  0.77000000000E+02 0.  0.
   -5000001    1    1    2    0    0  0.33033473248E+02  0.10550203810E+02 -0.98792767075E+03  0.99153043311E+03  0.77000000000E+02 0.  0.
<mgrwt>
<rscale>  0 0.16941792E+03</rscale>
<asrwt>0</asrwt>
<pdfrwt beam="1">  1        2 0.33043251E+00 0.16941792E+03</pdfrwt>
<pdfrwt beam="2">  1       -2 0.51398351E-03 0.16941792E+03</pdfrwt>
<totfact> 0.33879645E+04</totfact>
</mgrwt>
</event>
<event>
 4    1  0.6148427E-004  0.5479420E+03  0.7818608E-02  0.1001971E+00
          2   -1    0    0  501    0  0.00000000000E+00  0.00000000000E+00  0.20399281346E+04  0.20399281346E+04  0.25500000000E-02 0.  1.
         -2   -1    0    0    0  501 -0.00000000000E+00 -0.00000000000E+00 -0.36795468261E+02  0.36795468349E+02  0.25500000000E-02 0. -1.
    5000001    1    1    2    0    0  0.19746576174E+03  0.16890331610E+03  0.84948906861E+03  0.89167355851E+03  0.77000000000E+02 0.  0.
   -5000001    1    1    2    0    0 -0.19746576174E+03 -0.16890331610E+03  0.11536435977E+04  0.11850500444E+04  0.77000000000E+02 0.  0.
<mgrwt>
<rscale>  0 0.54794201E+03</rscale>
<asrwt>0</asrwt>
<pdfrwt beam="1">  1        2 0.31383515E+00 0.54794201E+03</pdfrwt>
<pdfrwt beam="2">  1       -2 0.56608403E-02 0.54794201E+03</pdfrwt>
<totfact> 0.11195724E+03</totfact>
</mgrwt>
</event>
<event>
 4    1  0.6148427E-004  0.3370358E+03  0.7818608E-02  0.1068065E+00
          2   -1    0    0  501    0  0.00000000000E+00  0.00000000000E+00  0.72740304405E+03  0.72740304406E+03  0.25500000000E-02 0. -1.
         -2   -1    0    0    0  501 -0.00000000000E+00 -0.00000000000E+00 -0.39040653133E+02  0.39040653216E+02  0.25500000000E-02 0.  1.
    5000001    1    1    2    0    0 -0.38054147087E+02  0.13106183055E+03  0.48517306613E+03  0.50985019921E+03  0.77000000000E+02 0.  0.
   -5000001    1    1    2    0    0  0.38054147087E+02 -0.13106183055E+03  0.20318932479E+03  0.25659349806E+03  0.77000000000E+02 0.  0.
<mgrwt>
<rscale>  0 0.33703584E+03</rscale>
<asrwt>0</asrwt>
<pdfrwt beam="1">  1        2 0.11190815E+00 0.33703584E+03</pdfrwt>
<pdfrwt beam="2">  1       -2 0.60062549E-02 0.33703584E+03</pdfrwt>
<totfact> 0.59312592E+03</totfact>
</mgrwt>
</event>
<event>
 4    1  0.6148427E-004  0.4686388E+03  0.7818608E-02  0.1022305E+00
          2   -1    0    0  501    0  0.00000000000E+00  0.00000000000E+00  0.33793131833E+03  0.33793131834E+03  0.25500000000E-02 0. -1.
         -2   -1    0    0    0  501 -0.00000000000E+00 -0.00000000000E+00 -0.16247553299E+03  0.16247553301E+03  0.25500000000E-02 0.  1.
    5000001    1    1    2    0    0 -0.17288746258E+03 -0.12035419885E+03  0.15296255594E+02  0.22480699129E+03  0.77000000000E+02 0.  0.
   -5000001    1    1    2    0    0  0.17288746258E+03  0.12035419885E+03  0.16015952974E+03  0.27559986006E+03  0.77000000000E+02 0.  0.
<mgrwt>
<rscale>  0 0.46863876E+03</rscale>
<asrwt>0</asrwt>
<pdfrwt beam="1">  1        2 0.51989433E-01 0.46863876E+03</pdfrwt>
<pdfrwt beam="2">  1       -2 0.24996236E-01 0.46863876E+03</pdfrwt>
<totfact> 0.13744950E+03</totfact>
</mgrwt>
</event>
<event>
 4    1  0.6148427E-004  0.2299012E+03  0.7818608E-02  0.1126709E+00
         -2   -1    0    0    0  501 -0.00000000000E+00  0.00000000000E+00  0.62114787283E+02  0.62114787336E+02  0.25500000000E-02 0. -1.
          2   -1    0    0  501    0  0.00000000000E+00 -0.00000000000E+00 -0.21272929883E+03  0.21272929884E+03  0.25500000000E-02 0.  1.
    5000001    1    1    2    0    0 -0.50017841393E+02 -0.21185390149E+02  0.33957282726E+01  0.94292821487E+02  0.77000000000E+02 0.  0.
   -5000001    1    1    2    0    0  0.50017841393E+02  0.21185390149E+02 -0.15401023982E+03  0.18055126469E+03  0.77000000000E+02 0.  0.
<mgrwt>
<rscale>  0 0.22990115E+03</rscale>
<asrwt>0</asrwt>
<pdfrwt beam="1">  1        2 0.32727584E-01 0.22990115E+03</pdfrwt>
<pdfrwt beam="2">  1       -2 0.95561212E-02 0.22990115E+03</pdfrwt>
<totfact> 0.11125554E+04</totfact>
</mgrwt>
</event>
<event>
 4    1  0.6148427E-004  0.1782412E+03  0.7818608E-02  0.1169516E+00
         -2   -1    0    0    0  501 -0.00000000000E+00  0.00000000000E+00  0.22174462377E+02  0.22174462523E+02  0.25500000000E-02 0. -1.
          2   -1    0    0  501    0  0.00000000000E+00 -0.00000000000E+00 -0.35818158907E+03  0.35818158908E+03  0.25500000000E-02 0.  1.
    5000001    1    1    2    0    0 -0.35295631932E+02  0.33885820969E+01 -0.10932138094E+03  0.13833809473E+03  0.77000000000E+02 0.  0.
   -5000001    1    1    2    0    0  0.35295631932E+02 -0.33885820969E+01 -0.22668574575E+03  0.24201795688E+03  0.77000000000E+02 0.  0.
<mgrwt>
<rscale>  0 0.17824123E+03</rscale>
<asrwt>0</asrwt>
<pdfrwt beam="1">  1        2 0.55104856E-01 0.17824123E+03</pdfrwt>
<pdfrwt beam="2">  1       -2 0.34114560E-02 0.17824123E+03</pdfrwt>
<totfact> 0.30061876E+04</totfact>
</mgrwt>
</event>
<event>
 4    1  0.6148427E-004  0.4989548E+03  0.7818608E-02  0.1014052E+00
          2   -1    0    0  501    0  0.00000000000E+00  0.00000000000E+00  0.18384121638E+04  0.18384121638E+04  0.25500000000E-02 0.  1.
         -2   -1    0    0    0  501 -0.00000000000E+00 -0.00000000000E+00 -0.33854737957E+02  0.33854738053E+02  0.25500000000E-02 0. -1.
    5000001    1    1    2    0    0 -0.70653934508E+02 -0.21191861257E+03  0.12026678965E+04  0.12256592292E+04  0.77000000000E+02 0.  0.
   -5000001    1    1    2    0    0  0.70653934508E+02  0.21191861257E+03  0.60188952928E+03  0.64660767261E+03  0.77000000000E+02 0.  0.
<mgrwt>
<rscale>  0 0.49895476E+03</rscale>
<asrwt>0</asrwt>
<pdfrwt beam="1">  1        2 0.28283267E+00 0.49895476E+03</pdfrwt>
<pdfrwt beam="2">  1       -2 0.52084207E-02 0.49895476E+03</pdfrwt>
<totfact> 0.16405979E+03</totfact>
</mgrwt>
</event>
<event>
 4    1  0.6148427E-004  0.2064197E+03  0.7818608E-02  0.1144433E+00
         -2   -1    0    0    0  501 -0.00000000000E+00  0.00000000000E+00  0.67598495920E+02  0.67598495968E+02  0.25500000000E-02 0. -1.
          2   -1    0    0  501    0  0.00000000000E+00 -0.00000000000E+00 -0.15758147078E+03  0.15758147080E+03  0.25500000000E-02 0.  1.
    5000001    1    1    2    0    0  0.52027821965E+02  0.44808225655E+02 -0.48190415509E+02  0.11386829011E+03  0.77000000000E+02 0.  0.
   -5000001    1    1    2    0    0 -0.52027821965E+02 -0.44808225655E+02 -0.41792559355E+02  0.11131167667E+03  0.77000000000E+02 0.  0.
<mgrwt>
<rscale>  0 0.20641967E+03</rscale>
<asrwt>0</asrwt>
<pdfrwt beam="1">  1        2 0.24243303E-01 0.20641967E+03</pdfrwt>
<pdfrwt beam="2">  1       -2 0.10399769E-01 0.20641967E+03</pdfrwt>
<totfact> 0.13447216E+04</totfact>
</mgrwt>
</event>
<event>
 4    1  0.6148427E-004  0.3124497E+03  0.7818608E-02  0.1079178E+00
         -2   -1    0    0    0  501 -0.00000000000E+00  0.00000000000E+00  0.14471933180E+02  0.14471933405E+02  0.25500000000E-02 0. -1.
          2   -1    0    0  501    0  0.00000000000E+00 -0.00000000000E+00 -0.16864505346E+04  0.16864505346E+04  0.25500000000E-02 0.  1.
    5000001    1    1    2    0    0 -0.98986418757E+01  0.10544415080E+03 -0.37212055458E+03  0.39448594296E+03  0.77000000000E+02 0.  0.
   -5000001    1    1    2    0    0  0.98986418757E+01 -0.10544415080E+03 -0.12998580468E+04  0.13064365250E+04  0.77000000000E+02 0.  0.
<mgrwt>
<rscale>  0 0.31244967E+03</rscale>
<asrwt>0</asrwt>
<pdfrwt beam="1">  1        2 0.25945377E+00 0.31244967E+03</pdfrwt>
<pdfrwt beam="2">  1       -2 0.22264526E-02 0.31244967E+03</pdfrwt>
<totfact> 0.71776729E+03</totfact>
</mgrwt>
</event>
<event>
 4    1  0.6148427E-004  0.2802996E+03  0.7818608E-02  0.1095525E+00
         -2   -1    0    0    0  501 -0.00000000000E+00  0.00000000000E+00  0.27994292309E+02  0.27994292425E+02  0.25500000000E-02 0. -1.
          2   -1    0    0  501    0  0.00000000000E+00 -0.00000000000E+00 -0.70164164953E+03  0.70164164953E+03  0.25500000000E-02 0.  1.
    5000001    1    1    2    0    0  0.95801214634E+02 -0.65837630794E+02 -0.29996534449E+03  0.33078795965E+03  0.77000000000E+02 0.  0.
   -5000001    1    1    2    0    0 -0.95801214634E+02  0.65837630794E+02 -0.37368201273E+03  0.39884798231E+03  0.77000000000E+02 0.  0.
<mgrwt>
<rscale>  0 0.28029956E+03</rscale>
<asrwt>0</asrwt>
<pdfrwt beam="1">  1        2 0.10794486E+00 0.28029956E+03</pdfrwt>
<pdfrwt beam="2">  1       -2 0.43068147E-02 0.28029956E+03</pdfrwt>
<totfact> 0.10246091E+04</totfact>
</mgrwt>
</event>
<event>
 4    1  0.6148427E-004  0.2664080E+03  0.7818608E-02  0.1103353E+00
         -2   -1    0    0    0  501 -0.00000000000E+00  0.00000000000E+00  0.44693485924E+03  0.44693485924E+03  0.25500000000E-02 0. -1.
          2   -1    0    0  501    0  0.00000000000E+00 -0.00000000000E+00 -0.39699973351E+02  0.39699973433E+02  0.25500000000E-02 0.  1.
    5000001    1    1    2    0    0 -0.91175375919E+02  0.31748108962E+02  0.29482962792E+03  0.31964730735E+03  0.77000000000E+02 0.  0.
   -5000001    1    1    2    0    0  0.91175375919E+02 -0.31748108962E+02  0.11240525796E+03  0.16698752533E+03  0.77000000000E+02 0.  0.
<mgrwt>
<rscale>  0 0.26640797E+03</rscale>
<asrwt>0</asrwt>
<pdfrwt beam="1">  1        2 0.61076880E-02 0.26640797E+03</pdfrwt>
<pdfrwt beam="2">  1       -2 0.68759212E-01 0.26640797E+03</pdfrwt>
<totfact> 0.23827913E+03</totfact>
</mgrwt>
</event>
<event>
 4    1  0.6148427E-004  0.4328994E+03  0.7818608E-02  0.1032948E+00
         -2   -1    0    0    0  501 -0.00000000000E+00  0.00000000000E+00  0.33646702462E+02  0.33646702559E+02  0.25500000000E-02 0. -1.
          2   -1    0    0  501    0  0.00000000000E+00 -0.00000000000E+00 -0.13924236615E+04  0.13924236615E+04  0.25500000000E-02 0.  1.
    5000001    1    1    2    0    0  0.13702756510E+03  0.46093758376E+02 -0.21327781066E+03  0.26891934233E+03  0.77000000000E+02 0.  0.
   -5000001    1    1    2    0    0 -0.13702756510E+03 -0.46093758376E+02 -0.11454991484E+04  0.11571510217E+04  0.77000000000E+02 0.  0.
<mgrwt>
<rscale>  0 0.43289936E+03</rscale>
<asrwt>0</asrwt>
<pdfrwt beam="1">  1        2 0.21421898E+00 0.43289936E+03</pdfrwt>
<pdfrwt beam="2">  1       -2 0.51764169E-02 0.43289936E+03</pdfrwt>
<totfact> 0.28976839E+03</totfact>
</mgrwt>
</event>
<event>
 4    1  0.6148427E-004  0.2433357E+03  0.7818608E-02  0.1117590E+00
         -2   -1    0    0    0  501 -0.00000000000E+00  0.00000000000E+00  0.43197630518E+01  0.43197638045E+01  0.25500000000E-02 0. -1.
          2   -1    0    0  501    0  0.00000000000E+00 -0.00000000000E+00 -0.34268223790E+04  0.34268223790E+04  0.25500000000E-02 0.  1.
    5000001    1    1    2    0    0  0.61433724296E+02  0.69988523985E+02 -0.15110616690E+04  0.15158855048E+04  0.77000000000E+02 0.  0.
   -5000001    1    1    2    0    0 -0.61433724296E+02 -0.69988523985E+02 -0.19114409469E+04  0.19152566381E+04  0.77000000000E+02 0.  0.
<mgrwt>
<rscale>  0 0.24333567E+03</rscale>
<asrwt>0</asrwt>
<pdfrwt beam="1">  1        2 0.52720127E+00 0.24333567E+03</pdfrwt>
<pdfrwt beam="2">  1       -2 0.66458173E-03 0.24333567E+03</pdfrwt>
<totfact> 0.43793203E+03</totfact>
</mgrwt>
</event>
<event>
 4    1  0.6148427E-004  0.1861772E+03  0.7818608E-02  0.1161955E+00
          2   -1    0    0  501    0  0.00000000000E+00  0.00000000000E+00  0.31805281150E+04  0.31805281150E+04  0.25500000000E-02 0.  1.
         -2   -1    0    0    0  501 -0.00000000000E+00 -0.00000000000E+00 -0.27245438628E+01  0.27245450562E+01  0.25500000000E-02 0. -1.
    5000001    1    1    2    0    0  0.42808650193E+02  0.29959590021E+02  0.16319285528E+04  0.16345794441E+04  0.77000000000E+02 0.  0.
   -5000001    1    1    2    0    0 -0.42808650193E+02 -0.29959590021E+02  0.15458750183E+04  0.15486732159E+04  0.77000000000E+02 0.  0.
<mgrwt>
<rscale>  0 0.18617723E+03</rscale>
<asrwt>0</asrwt>
<pdfrwt beam="1">  1        2 0.48931321E+00 0.18617723E+03</pdfrwt>
<pdfrwt beam="2">  1       -2 0.41915967E-03 0.18617723E+03</pdfrwt>
<totfact> 0.12115543E+04</totfact>
</mgrwt>
</event>
<event>
 4    1  0.6148427E-004  0.2055240E+03  0.7818608E-02  0.1145160E+00
         -2   -1    0    0    0  501 -0.00000000000E+00  0.00000000000E+00  0.15062286046E+02  0.15062286262E+02  0.25500000000E-02 0. -1.
          2   -1    0    0  501    0  0.00000000000E+00 -0.00000000000E+00 -0.70109072767E+03  0.70109072767E+03  0.25500000000E-02 0.  1.
    5000001    1    1    2    0    0 -0.22827756908E+02 -0.51489805629E+02 -0.20992906283E+03  0.23058950104E+03  0.77000000000E+02 0.  0.
   -5000001    1    1    2    0    0  0.22827756908E+02  0.51489805629E+02 -0.47609937880E+03  0.48556351290E+03  0.77000000000E+02 0.  0.
<mgrwt>
<rscale>  0 0.20552401E+03</rscale>
<asrwt>0</asrwt>
<pdfrwt beam="1">  1        2 0.10786009E+00 0.20552401E+03</pdfrwt>
<pdfrwt beam="2">  1       -2 0.23172753E-02 0.20552401E+03</pdfrwt>
<totfact> 0.25389292E+04</totfact>
</mgrwt>
</event>
<event>
 4    1  0.6148427E-004  0.1784892E+03  0.7818608E-02  0.1169273E+00
         -2   -1    0    0    0  501 -0.00000000000E+00  0.00000000000E+00  0.22556145781E+03  0.22556145782E+03  0.25500000000E-02 0. -1.
          2   -1    0    0  501    0  0.00000000000E+00 -0.00000000000E+00 -0.35310098870E+02  0.35310098962E+02  0.25500000000E-02 0.  1.
    5000001    1    1    2    0    0 -0.18850589228E+02 -0.13179828817E+02  0.38396585896E+02  0.89063743523E+02  0.77000000000E+02 0.  0.
   -5000001    1    1    2    0    0  0.18850589228E+02  0.13179828817E+02  0.15185477304E+03  0.17180781326E+03  0.77000000000E+02 0.  0.
<mgrwt>
<rscale>  0 0.17848919E+03</rscale>
<asrwt>0</asrwt>
<pdfrwt beam="1">  1        2 0.54323229E-02 0.17848919E+03</pdfrwt>
<pdfrwt beam="2">  1       -2 0.34701763E-01 0.17848919E+03</pdfrwt>
<totfact> 0.10547155E+04</totfact>
</mgrwt>
</event>
<event>
 4    1  0.6148427E-004  0.6492118E+03  0.7818608E-02  0.9808259E-01
         -2   -1    0    0    0  501 -0.00000000000E+00  0.00000000000E+00  0.21577154681E+03  0.21577154682E+03  0.25500000000E-02 0. -1.
          2   -1    0    0  501    0  0.00000000000E+00 -0.00000000000E+00 -0.48833585574E+03  0.48833585574E+03  0.25500000000E-02 0.  1.
    5000001    1    1    2    0    0  0.28711504251E+03 -0.45787336500E+02 -0.38575019673E+01  0.30079130330E+03  0.77000000000E+02 0.  0.
   -5000001    1    1    2    0    0 -0.28711504251E+03  0.45787336500E+02 -0.26870680696E+03  0.40331609927E+03  0.77000000000E+02 0.  0.
<mgrwt>
<rscale>  0 0.64921178E+03</rscale>
<asrwt>0</asrwt>
<pdfrwt beam="1">  1        2 0.75128593E-01 0.64921178E+03</pdfrwt>
<pdfrwt beam="2">  1       -2 0.33195623E-01 0.64921178E+03</pdfrwt>
<totfact> 0.54000514E+02</totfact>
</mgrwt>
</event>
<event>
 4    1  0.6148427E-004  0.3051322E+03  0.7818608E-02  0.1082703E+00
         -2   -1    0    0    0  501 -0.00000000000E+00  0.00000000000E+00  0.13912611800E+02  0.13912612034E+02  0.25500000000E-02 0. -1.
          2   -1    0    0  501    0  0.00000000000E+00 -0.00000000000E+00 -0.16730443047E+04  0.16730443047E+04  0.25500000000E-02 0.  1.
    5000001    1    1    2    0    0  0.53239100224E+02 -0.11034462166E+03 -0.56229436669E+03  0.58061544256E+03  0.77000000000E+02 0.  0.
   -5000001    1    1    2    0    0 -0.53239100224E+02  0.11034462166E+03 -0.10968373262E+04  0.11063414741E+04  0.77000000000E+02 0.  0.
<mgrwt>
<rscale>  0 0.30513221E+03</rscale>
<asrwt>0</asrwt>
<pdfrwt beam="1">  1        2 0.25739127E+00 0.30513221E+03</pdfrwt>
<pdfrwt beam="2">  1       -2 0.21404032E-02 0.30513221E+03</pdfrwt>
<totfact> 0.77326424E+03</totfact>
</mgrwt>
</event>
<event>
 4    1  0.6148427E-004  0.2515065E+03  0.7818608E-02  0.1112356E+00
         -2   -1    0    0    0  501 -0.00000000000E+00  0.00000000000E+00  0.37233744674E+02  0.37233744761E+02  0.25500000000E-02 0. -1.
          2   -1    0    0  501    0  0.00000000000E+00 -0.00000000000E+00 -0.42471907486E+03  0.42471907487E+03  0.25500000000E-02 0.  1.
    5000001    1    1    2    0    0 -0.42917021724E+02 -0.77022921537E+02 -0.27812257326E+03  0.30175414985E+03  0.77000000000E+02 0.  0.
   -5000001    1    1    2    0    0  0.42917021724E+02  0.77022921537E+02 -0.10936275693E+03  0.16019866978E+03  0.77000000000E+02 0.  0.
<mgrwt>
<rscale>  0 0.25150651E+03</rscale>
<asrwt>0</asrwt>
<pdfrwt beam="1">  1        2 0.65341393E-01 0.25150651E+03</pdfrwt>
<pdfrwt beam="2">  1       -2 0.57282687E-02 0.25150651E+03</pdfrwt>
<totfact> 0.11734111E+04</totfact>
</mgrwt>
</event>
<event>
 4    1  0.6148427E-004  0.1930212E+03  0.7818608E-02  0.1155764E+00
         -2   -1    0    0    0  501 -0.00000000000E+00  0.00000000000E+00  0.13263109988E+02  0.13263110233E+02  0.25500000000E-02 0. -1.
          2   -1    0    0  501    0  0.00000000000E+00 -0.00000000000E+00 -0.70227051563E+03  0.70227051564E+03  0.25500000000E-02 0.  1.
    5000001    1    1    2    0    0 -0.30225837125E+02 -0.44554519289E+02 -0.26273174451E+03  0.27902629983E+03  0.77000000000E+02 0.  0.
   -5000001    1    1    2    0    0  0.30225837125E+02  0.44554519289E+02 -0.42627566113E+03  0.43650732605E+03  0.77000000000E+02 0.  0.
<mgrwt>
<rscale>  0 0.19302115E+03</rscale>
<asrwt>0</asrwt>
<pdfrwt beam="1">  1        2 0.10804159E+00 0.19302115E+03</pdfrwt>
<pdfrwt beam="2">  1       -2 0.20404790E-02 0.19302115E+03</pdfrwt>
<totfact> 0.30395281E+04</totfact>
</mgrwt>
</event>
<event>
 4    1  0.6148427E-004  0.1831647E+03  0.7818608E-02  0.1164775E+00
         -2   -1    0    0    0  501 -0.00000000000E+00  0.00000000000E+00  0.12627136207E+02  0.12627136465E+02  0.25500000000E-02 0. -1.
          2   -1    0    0  501    0  0.00000000000E+00 -0.00000000000E+00 -0.66422996329E+03  0.66422996329E+03  0.25500000000E-02 0.  1.
    5000001    1    1    2    0    0 -0.39516567354E+02  0.29591180402E+02 -0.30881677502E+03  0.32207762665E+03  0.77000000000E+02 0.  0.
   -5000001    1    1    2    0    0  0.39516567354E+02 -0.29591180402E+02 -0.34278605206E+03  0.35477947311E+03  0.77000000000E+02 0.  0.
<mgrwt>
<rscale>  0 0.18316465E+03</rscale>
<asrwt>0</asrwt>
<pdfrwt beam="1">  1        2 0.10218920E+00 0.18316465E+03</pdfrwt>
<pdfrwt beam="2">  1       -2 0.19426369E-02 0.18316465E+03</pdfrwt>
<totfact> 0.34751619E+04</totfact>
</mgrwt>
</event>
<event>
 4    1  0.6148427E-004  0.3867858E+03  0.7818608E-02  0.1048454E+00
          2   -1    0    0  501    0  0.00000000000E+00  0.00000000000E+00  0.45183238503E+03  0.45183238504E+03  0.25500000000E-02 0.  1.
         -2   -1    0    0    0  501 -0.00000000000E+00 -0.00000000000E+00 -0.82775878391E+02  0.82775878431E+02  0.25500000000E-02 0. -1.
    5000001    1    1    2    0    0 -0.14399567095E+03 -0.44862109092E+02  0.55425832838E+02  0.17818076504E+03  0.77000000000E+02 0.  0.
   -5000001    1    1    2    0    0  0.14399567095E+03  0.44862109092E+02  0.31363067380E+03  0.35642749843E+03  0.77000000000E+02 0.  0.
<mgrwt>
<rscale>  0 0.38678585E+03</rscale>
<asrwt>0</asrwt>
<pdfrwt beam="1">  1        2 0.69512675E-01 0.38678585E+03</pdfrwt>
<pdfrwt beam="2">  1       -2 0.12734750E-01 0.38678585E+03</pdfrwt>
<totfact> 0.31470785E+03</totfact>
</mgrwt>
</event>
<event>
 4    1  0.6148427E-004  0.4686890E+03  0.7818608E-02  0.1022291E+00
          2   -1    0    0  501    0  0.00000000000E+00  0.00000000000E+00  0.51777724817E+03  0.51777724818E+03  0.25500000000E-02 0.  1.
         -2   -1    0    0    0  501 -0.00000000000E+00 -0.00000000000E+00 -0.10606363311E+03  0.10606363314E+03  0.25500000000E-02 0. -1.
    5000001    1    1    2    0    0 -0.89766043916E+02 -0.20097587853E+03  0.17495245693E+03  0.29152462774E+03  0.77000000000E+02 0.  0.
   -5000001    1    1    2    0    0  0.89766043916E+02  0.20097587853E+03  0.23676115813E+03  0.33231625357E+03  0.77000000000E+02 0.  0.
<mgrwt>
<rscale>  0 0.46868896E+03</rscale>
<asrwt>0</asrwt>
<pdfrwt beam="1">  1        2 0.79658038E-01 0.46868896E+03</pdfrwt>
<pdfrwt beam="2">  1       -2 0.16317482E-01 0.46868896E+03</pdfrwt>
<totfact> 0.17888188E+03</totfact>
</mgrwt>
</event>
<event>
 4    1  0.6148427E-004  0.2411671E+03  0.7818608E-02  0.1119018E+00
         -2   -1    0    0    0  501 -0.00000000000E+00  0.00000000000E+00  0.16259236429E+02  0.16259236629E+02  0.25500000000E-02 0. -1.
          2   -1    0    0  501    0  0.00000000000E+00 -0.00000000000E+00 -0.89428528833E+03  0.89428528833E+03  0.25500000000E-02 0.  1.
    5000001    1    1    2    0    0 -0.46511237915E+02 -0.70663072599E+02 -0.29500412375E+03  0.31640638127E+03  0.77000000000E+02 0.  0.
   -5000001    1    1    2    0    0  0.46511237915E+02  0.70663072599E+02 -0.58302192815E+03  0.59413814369E+03  0.77000000000E+02 0.  0.
<mgrwt>
<rscale>  0 0.24116713E+03</rscale>
<asrwt>0</asrwt>
<pdfrwt beam="1">  1        2 0.13758231E+00 0.24116713E+03</pdfrwt>
<pdfrwt beam="2">  1       -2 0.25014217E-02 0.24116713E+03</pdfrwt>
<totfact> 0.16840462E+04</totfact>
</mgrwt>
</event>
<event>
 4    1  0.6148427E-004  0.2544227E+03  0.7818608E-02  0.1110541E+00
         -2   -1    0    0    0  501 -0.00000000000E+00  0.00000000000E+00  0.89803610107E+01  0.89803613727E+01  0.25500000000E-02 0. -1.
          2   -1    0    0  501    0  0.00000000000E+00 -0.00000000000E+00 -0.18020124282E+04  0.18020124282E+04  0.25500000000E-02 0.  1.
    5000001    1    1    2    0    0 -0.77233476761E+02  0.48195213909E+02 -0.12121221335E+04  0.12179724361E+04  0.77000000000E+02 0.  0.
   -5000001    1    1    2    0    0  0.77233476761E+02 -0.48195213909E+02 -0.58090993364E+03  0.59302035343E+03  0.77000000000E+02 0.  0.
<mgrwt>
<rscale>  0 0.25442266E+03</rscale>
<asrwt>0</asrwt>
<pdfrwt beam="1">  1        2 0.27723239E+00 0.25442266E+03</pdfrwt>
<pdfrwt beam="2">  1       -2 0.13815955E-02 0.25442266E+03</pdfrwt>
<totfact> 0.12538811E+04</totfact>
</mgrwt>
</event>
<event>
 4    1  0.6148427E-004  0.8976855E+03  0.7818608E-02  0.9428479E-01
         -2   -1    0    0    0  501 -0.00000000000E+00  0.00000000000E+00  0.40771562819E+03  0.40771562819E+03  0.25500000000E-02 0. -1.
          2   -1    0    0  501    0  0.00000000000E+00 -0.00000000000E+00 -0.49411844717E+03  0.49411844718E+03  0.25500000000E-02 0.  1.
    5000001    1    1    2    0    0  0.19871575926E+03 -0.28546053755E+03  0.23110833248E+03  0.42463600038E+03  0.77000000000E+02 0.  0.
   -5000001    1    1    2    0    0 -0.19871575926E+03  0.28546053755E+03 -0.31751115146E+03  0.47719807500E+03  0.77000000000E+02 0.  0.
<mgrwt>
<rscale>  0 0.89768550E+03</rscale>
<asrwt>0</asrwt>
<pdfrwt beam="1">  1        2 0.76018222E-01 0.89768550E+03</pdfrwt>
<pdfrwt beam="2">  1       -2 0.62725481E-01 0.89768550E+03</pdfrwt>
<totfact> 0.14771886E+02</totfact>
</mgrwt>
</event>
<event>
 4    1  0.6148427E-004  0.2753861E+03  0.7818608E-02  0.1098236E+00
         -2   -1    0    0    0  501 -0.00000000000E+00  0.00000000000E+00  0.76663724314E+01  0.76663728555E+01  0.25500000000E-02 0. -1.
          2   -1    0    0  501    0  0.00000000000E+00 -0.00000000000E+00 -0.24730569571E+04  0.24730569571E+04  0.25500000000E-02 0.  1.
    5000001    1    1    2    0    0 -0.10316049029E+03  0.45080924322E+02 -0.14026609332E+04  0.14092767897E+04  0.77000000000E+02 0.  0.
   -5000001    1    1    2    0    0  0.10316049029E+03 -0.45080924322E+02 -0.10627296515E+04  0.10714465403E+04  0.77000000000E+02 0.  0.
<mgrwt>
<rscale>  0 0.27538610E+03</rscale>
<asrwt>0</asrwt>
<pdfrwt beam="1">  1        2 0.38046966E+00 0.27538610E+03</pdfrwt>
<pdfrwt beam="2">  1       -2 0.11794439E-02 0.27538610E+03</pdfrwt>
<totfact> 0.69566632E+03</totfact>
</mgrwt>
</event>
<event>
 4    1  0.6148427E-004  0.4250056E+03  0.7818608E-02  0.1035449E+00
          2   -1    0    0  501    0  0.00000000000E+00  0.00000000000E+00  0.40154327214E+03  0.40154327215E+03  0.25500000000E-02 0.  1.
         -2   -1    0    0    0  501 -0.00000000000E+00 -0.00000000000E+00 -0.11245973244E+03  0.11245973247E+03  0.25500000000E-02 0. -1.
    5000001    1    1    2    0    0 -0.31327618716E+01 -0.19552206408E+03  0.18259007364E+03  0.27840047905E+03  0.77000000000E+02 0.  0.
   -5000001    1    1    2    0    0  0.31327618716E+01  0.19552206408E+03  0.10649346606E+03  0.23560252557E+03  0.77000000000E+02 0.  0.
<mgrwt>
<rscale>  0 0.42500564E+03</rscale>
<asrwt>0</asrwt>
<pdfrwt beam="1">  1        2 0.61775888E-01 0.42500564E+03</pdfrwt>
<pdfrwt beam="2">  1       -2 0.17301497E-01 0.42500564E+03</pdfrwt>
<totfact> 0.21550345E+03</totfact>
</mgrwt>
</event>
<event>
 4    1  0.6148427E-004  0.2928730E+03  0.7818608E-02  0.1088859E+00
         -2   -1    0    0    0  501 -0.00000000000E+00  0.00000000000E+00  0.29638958518E+02  0.29638958627E+02  0.25500000000E-02 0. -1.
          2   -1    0    0  501    0  0.00000000000E+00 -0.00000000000E+00 -0.72349514793E+03  0.72349514793E+03  0.25500000000E-02 0.  1.
    5000001    1    1    2    0    0  0.65490889434E+02 -0.34020522188E+02 -0.88898961163E+02  0.13884695828E+03  0.77000000000E+02 0.  0.
   -5000001    1    1    2    0    0 -0.65490889434E+02  0.34020522188E+02 -0.60495722825E+03  0.61428714828E+03  0.77000000000E+02 0.  0.
<mgrwt>
<rscale>  0 0.29287296E+03</rscale>
<asrwt>0</asrwt>
<pdfrwt beam="1">  1        2 0.11130693E+00 0.29287296E+03</pdfrwt>
<pdfrwt beam="2">  1       -2 0.45598403E-02 0.29287296E+03</pdfrwt>
<totfact> 0.90650739E+03</totfact>
</mgrwt>
</event>
<event>
 4    1  0.6148427E-004  0.2255947E+03  0.7818608E-02  0.1129779E+00
          2   -1    0    0  501    0  0.00000000000E+00  0.00000000000E+00  0.92425860193E+03  0.92425860193E+03  0.25500000000E-02 0.  1.
         -2   -1    0    0    0  501 -0.00000000000E+00 -0.00000000000E+00 -0.13765885067E+02  0.13765885303E+02  0.25500000000E-02 0. -1.
    5000001    1    1    2    0    0  0.62686961318E+02 -0.23266757401E+02  0.25483032624E+03  0.27447858257E+03  0.77000000000E+02 0.  0.
   -5000001    1    1    2    0    0 -0.62686961318E+02  0.23266757401E+02  0.65566239062E+03  0.66354590467E+03  0.77000000000E+02 0.  0.
<mgrwt>
<rscale>  0 0.22559466E+03</rscale>
<asrwt>0</asrwt>
<pdfrwt beam="1">  1        2 0.14219363E+00 0.22559466E+03</pdfrwt>
<pdfrwt beam="2">  1       -2 0.21178285E-02 0.22559466E+03</pdfrwt>
<totfact> 0.20518886E+04</totfact>
</mgrwt>
</event>
<event>
 4    1  0.6148427E-004  0.4608678E+03  0.7818608E-02  0.1024530E+00
          2   -1    0    0  501    0  0.00000000000E+00  0.00000000000E+00  0.73528121943E+03  0.73528121944E+03  0.25500000000E-02 0.  1.
         -2   -1    0    0    0  501 -0.00000000000E+00 -0.00000000000E+00 -0.72216969117E+02  0.72216969162E+02  0.25500000000E-02 0. -1.
    5000001    1    1    2    0    0  0.14282454995E+03  0.16026332298E+03  0.27374926019E+03  0.35630161692E+03  0.77000000000E+02 0.  0.
   -5000001    1    1    2    0    0 -0.14282454995E+03 -0.16026332298E+03  0.38931499012E+03  0.45119657168E+03  0.77000000000E+02 0.  0.
<mgrwt>
<rscale>  0 0.46086780E+03</rscale>
<asrwt>0</asrwt>
<pdfrwt beam="1">  1        2 0.11312018E+00 0.46086780E+03</pdfrwt>
<pdfrwt beam="2">  1       -2 0.11110304E-01 0.46086780E+03</pdfrwt>
<totfact> 0.22204506E+03</totfact>
</mgrwt>
</event>
<event>
 4    1  0.6148427E-004  0.2263039E+03  0.7818608E-02  0.1129269E+00
         -2   -1    0    0    0  501 -0.00000000000E+00  0.00000000000E+00  0.12083032321E+02  0.12083032590E+02  0.25500000000E-02 0.  1.
          2   -1    0    0  501    0  0.00000000000E+00 -0.00000000000E+00 -0.10596146825E+04  0.10596146825E+04  0.25500000000E-02 0. -1.
    5000001    1    1    2    0    0 -0.78270357236E+02 -0.42642244648E+00 -0.65327789200E+03  0.66244051419E+03  0.77000000000E+02 0.  0.
   -5000001    1    1    2    0    0  0.78270357236E+02  0.42642244648E+00 -0.39425375822E+03  0.40925720095E+03  0.77000000000E+02 0.  0.
<mgrwt>
<rscale>  0 0.22630385E+03</rscale>
<asrwt>0</asrwt>
<pdfrwt beam="1">  1        2 0.16301757E+00 0.22630385E+03</pdfrwt>
<pdfrwt beam="2">  1       -2 0.18589289E-02 0.22630385E+03</pdfrwt>
<totfact> 0.20531345E+04</totfact>
</mgrwt>
</event>
<event>
 4    1  0.6148427E-004  0.4539261E+03  0.7818608E-02  0.1026558E+00
          2   -1    0    0  501    0  0.00000000000E+00  0.00000000000E+00  0.80755615896E+03  0.80755615896E+03  0.25500000000E-02 0.  1.
         -2   -1    0    0    0  501 -0.00000000000E+00 -0.00000000000E+00 -0.63787791355E+02  0.63787791406E+02  0.25500000000E-02 0. -1.
    5000001    1    1    2    0    0 -0.73162830354E+02  0.71219949829E+02  0.11954687991E+02  0.12844063050E+03  0.77000000000E+02 0.  0.
   -5000001    1    1    2    0    0  0.73162830354E+02 -0.71219949829E+02  0.73181367961E+03  0.74290331986E+03  0.77000000000E+02 0.  0.
<mgrwt>
<rscale>  0 0.45392609E+03</rscale>
<asrwt>0</asrwt>
<pdfrwt beam="1">  1        2 0.12423941E+00 0.45392609E+03</pdfrwt>
<pdfrwt beam="2">  1       -2 0.98135062E-02 0.45392609E+03</pdfrwt>
<totfact> 0.24062938E+03</totfact>
</mgrwt>
</event>
<event>
 4    1  0.6148427E-004  0.2942549E+03  0.7818608E-02  0.1088148E+00
          2   -1    0    0  501    0  0.00000000000E+00  0.00000000000E+00  0.92876939898E+03  0.92876939898E+03  0.25500000000E-02 0.  1.
         -2   -1    0    0    0  501 -0.00000000000E+00 -0.00000000000E+00 -0.23306635642E+02  0.23306635782E+02  0.25500000000E-02 0. -1.
    5000001    1    1    2    0    0 -0.11604520481E+02 -0.99081917780E+02  0.69841155002E+03  0.70968978048E+03  0.77000000000E+02 0.  0.
   -5000001    1    1    2    0    0  0.11604520481E+02  0.99081917780E+02  0.20705121332E+03  0.24238625428E+03  0.77000000000E+02 0.  0.
<mgrwt>
<rscale>  0 0.29425492E+03</rscale>
<asrwt>0</asrwt>
<pdfrwt beam="1">  1        2 0.14288761E+00 0.29425492E+03</pdfrwt>
<pdfrwt beam="2">  1       -2 0.35856359E-02 0.29425492E+03</pdfrwt>
<totfact> 0.94348881E+03</totfact>
</mgrwt>
</event>
<event>
 4    1  0.6148427E-004  0.7117256E+03  0.7818608E-02  0.9697387E-01
         -2   -1    0    0    0  501 -0.00000000000E+00  0.00000000000E+00  0.89763679841E+02  0.89763679877E+02  0.25500000000E-02 0.  1.
          2   -1    0    0  501    0  0.00000000000E+00 -0.00000000000E+00 -0.14107971776E+04  0.14107971776E+04  0.25500000000E-02 0. -1.
    5000001    1    1    2    0    0  0.31079842238E+03 -0.68602978562E+02 -0.95423015232E+03  0.10088539099E+04  0.77000000000E+02 0.  0.
   -5000001    1    1    2    0    0 -0.31079842238E+03  0.68602978562E+02 -0.36680334542E+03  0.49170694751E+03  0.77000000000E+02 0.  0.
<mgrwt>
<rscale>  0 0.71172564E+03</rscale>
<asrwt>0</asrwt>
<pdfrwt beam="1">  1        2 0.21704570E+00 0.71172564E+03</pdfrwt>
<pdfrwt beam="2">  1       -2 0.13809798E-01 0.71172564E+03</pdfrwt>
<totfact> 0.58180740E+02</totfact>
</mgrwt>
</event>
<event>
 4    1  0.6148427E-004  0.1992095E+03  0.7818608E-02  0.1150408E+00
          2   -1    0    0  501    0  0.00000000000E+00  0.00000000000E+00  0.66104963544E+03  0.66104963545E+03  0.25500000000E-02 0.  1.
         -2   -1    0    0    0  501 -0.00000000000E+00 -0.00000000000E+00 -0.15008115965E+02  0.15008116181E+02  0.25500000000E-02 0. -1.
    5000001    1    1    2    0    0 -0.22149743446E+02 -0.59173448481E+02  0.32288834698E+03  0.33790234204E+03  0.77000000000E+02 0.  0.
   -5000001    1    1    2    0    0  0.22149743446E+02  0.59173448481E+02  0.32315317250E+03  0.33815540959E+03  0.77000000000E+02 0.  0.
<mgrwt>
<rscale>  0 0.19920953E+03</rscale>
<asrwt>0</asrwt>
<pdfrwt beam="1">  1        2 0.10169991E+00 0.19920953E+03</pdfrwt>
<pdfrwt beam="2">  1       -2 0.23089417E-02 0.19920953E+03</pdfrwt>
<totfact> 0.27318999E+04</totfact>
</mgrwt>
</event>
<event>
 4    1  0.6148427E-004  0.2751038E+03  0.7818608E-02  0.1098394E+00
         -2   -1    0    0    0  501 -0.00000000000E+00  0.00000000000E+00  0.99328795065E+01  0.99328798338E+01  0.25500000000E-02 0. -1.
          2   -1    0    0  501    0  0.00000000000E+00 -0.00000000000E+00 -0.19048377962E+04  0.19048377962E+04  0.25500000000E-02 0.  1.
    5000001    1    1    2    0    0  0.11384180156E+03 -0.25658103530E+01 -0.91266170281E+03  0.92295553681E+03  0.77000000000E+02 0.  0.
   -5000001    1    1    2    0    0 -0.11384180156E+03  0.25658103530E+01 -0.98224321390E+03  0.99181513924E+03  0.77000000000E+02 0.  0.
<mgrwt>
<rscale>  0 0.27510380E+03</rscale>
<asrwt>0</asrwt>
<pdfrwt beam="1">  1        2 0.29305168E+00 0.27510380E+03</pdfrwt>
<pdfrwt beam="2">  1       -2 0.15281369E-02 0.27510380E+03</pdfrwt>
<totfact> 0.95715947E+03</totfact>
</mgrwt>
</event>
<event>
 4    1  0.6148427E-004  0.2519008E+03  0.7818608E-02  0.1112109E+00
          2   -1    0    0  501    0  0.00000000000E+00  0.00000000000E+00  0.33992893597E+03  0.33992893598E+03  0.25500000000E-02 0.  1.
         -2   -1    0    0    0  501 -0.00000000000E+00 -0.00000000000E+00 -0.46667104176E+02  0.46667104246E+02  0.25500000000E-02 0. -1.
    5000001    1    1    2    0    0  0.82140341207E+02  0.16739135436E+01  0.60022609389E+02  0.12759918212E+03  0.77000000000E+02 0.  0.
   -5000001    1    1    2    0    0 -0.82140341207E+02 -0.16739135436E+01  0.23323922241E+03  0.25899685811E+03  0.77000000000E+02 0.  0.
<mgrwt>
<rscale>  0 0.25190077E+03</rscale>
<asrwt>0</asrwt>
<pdfrwt beam="1">  1        2 0.52296758E-01 0.25190077E+03</pdfrwt>
<pdfrwt beam="2">  1       -2 0.71795546E-02 0.25190077E+03</pdfrwt>
<totfact> 0.10550398E+04</totfact>
</mgrwt>
</event>
<event>
 4    1  0.6148427E-004  0.3019560E+03  0.7818608E-02  0.1084267E+00
          2   -1    0    0  501    0  0.00000000000E+00  0.00000000000E+00  0.51120997749E+03  0.51120997749E+03  0.25500000000E-02 0.  1.
         -2   -1    0    0    0  501 -0.00000000000E+00 -0.00000000000E+00 -0.44589017010E+02  0.44589017083E+02  0.25500000000E-02 0. -1.
    5000001    1    1    2    0    0 -0.10921060802E+03  0.68417555919E+02  0.20377765266E+03  0.25310521643E+03  0.77000000000E+02 0.  0.
   -5000001    1    1    2    0    0  0.10921060802E+03 -0.68417555919E+02  0.26284330782E+03  0.30269377814E+03  0.77000000000E+02 0.  0.
<mgrwt>
<rscale>  0 0.30195596E+03</rscale>
<asrwt>0</asrwt>
<pdfrwt beam="1">  1        2 0.78647689E-01 0.30195596E+03</pdfrwt>
<pdfrwt beam="2">  1       -2 0.68598488E-02 0.30195596E+03</pdfrwt>
<totfact> 0.72922708E+03</totfact>
</mgrwt>
</event>
<event>
 4    1  0.6148427E-004  0.3428493E+03  0.7818608E-02  0.1065589E+00
         -2   -1    0    0    0  501 -0.00000000000E+00  0.00000000000E+00  0.72351198954E+02  0.72351198999E+02  0.25500000000E-02 0. -1.
          2   -1    0    0  501    0  0.00000000000E+00 -0.00000000000E+00 -0.40616345152E+03  0.40616345153E+03  0.25500000000E-02 0.  1.
    5000001    1    1    2    0    0 -0.96472370620E+02 -0.11001897125E+03 -0.23004237444E+03  0.28330122902E+03  0.77000000000E+02 0.  0.
   -5000001    1    1    2    0    0  0.96472370620E+02  0.11001897125E+03 -0.10376987813E+03  0.19521342150E+03  0.77000000000E+02 0.  0.
<mgrwt>
<rscale>  0 0.34284931E+03</rscale>
<asrwt>0</asrwt>
<pdfrwt beam="1">  1        2 0.62486683E-01 0.34284931E+03</pdfrwt>
<pdfrwt beam="2">  1       -2 0.11130954E-01 0.34284931E+03</pdfrwt>
<totfact> 0.43971375E+03</totfact>
</mgrwt>
</event>
<event>
 4    1  0.6148427E-004  0.1884685E+03  0.7818608E-02  0.1159850E+00
          2   -1    0    0  501    0  0.00000000000E+00  0.00000000000E+00  0.81169582134E+01  0.81169586139E+01  0.25500000000E-02 0.  1.
         -2   -1    0    0    0  501 -0.00000000000E+00 -0.00000000000E+00 -0.10940178673E+04  0.10940178673E+04  0.25500000000E-02 0. -1.
    5000001    1    1    2    0    0 -0.98343590329E+00 -0.23288857503E+02 -0.82989793462E+03  0.83378829442E+03  0.77000000000E+02 0.  0.
   -5000001    1    1    2    0    0  0.98343590329E+00  0.23288857503E+02 -0.25600297450E+03  0.26834653153E+03  0.77000000000E+02 0.  0.
<mgrwt>
<rscale>  0 0.18846854E+03</rscale>
<asrwt>0</asrwt>
<pdfrwt beam="1">  1        2 0.12487637E-02 0.18846854E+03</pdfrwt>
<pdfrwt beam="2">  1       -2 0.16831032E+00 0.18846854E+03</pdfrwt>
<totfact> 0.24166241E+03</totfact>
</mgrwt>
</event>
<event>
 4    1  0.6148427E-004  0.2476436E+03  0.7818608E-02  0.1114803E+00
         -2   -1    0    0    0  501 -0.00000000000E+00  0.00000000000E+00  0.57143914995E+01  0.57143920685E+01  0.25500000000E-02 0. -1.
          2   -1    0    0  501    0  0.00000000000E+00 -0.00000000000E+00 -0.26830216138E+04  0.26830216138E+04  0.25500000000E-02 0.  1.
    5000001    1    1    2    0    0  0.76815289387E+02 -0.24145558999E+02 -0.19252724061E+04  0.19284933068E+04  0.77000000000E+02 0.  0.
   -5000001    1    1    2    0    0 -0.76815289387E+02  0.24145558999E+02 -0.75203481620E+03  0.76024269907E+03  0.77000000000E+02 0.  0.
<mgrwt>
<rscale>  0 0.24764359E+03</rscale>
<asrwt>0</asrwt>
<pdfrwt beam="1">  1        2 0.41277155E+00 0.24764359E+03</pdfrwt>
<pdfrwt beam="2">  1       -2 0.87913934E-03 0.24764359E+03</pdfrwt>
<totfact> 0.81597052E+03</totfact>
</mgrwt>
</event>
<event>
 4    1  0.6148427E-004  0.1869153E+03  0.7818608E-02  0.1161273E+00
         -2   -1    0    0    0  501 -0.00000000000E+00  0.00000000000E+00  0.37902570054E+03  0.37902570055E+03  0.25500000000E-02 0. -1.
          2   -1    0    0  501    0  0.00000000000E+00 -0.00000000000E+00 -0.23044159960E+02  0.23044160101E+02  0.25500000000E-02 0.  1.
    5000001    1    1    2    0    0 -0.27743523680E+02  0.43647161326E+02  0.20256879790E+03  0.22279563658E+03  0.77000000000E+02 0.  0.
   -5000001    1    1    2    0    0  0.27743523680E+02 -0.43647161326E+02  0.15341274268E+03  0.17927422407E+03  0.77000000000E+02 0.  0.
<mgrwt>
<rscale>  0 0.18691526E+03</rscale>
<asrwt>0</asrwt>
<pdfrwt beam="1">  1        2 0.35452555E-02 0.18691526E+03</pdfrwt>
<pdfrwt beam="2">  1       -2 0.58311644E-01 0.18691526E+03</pdfrwt>
<totfact> 0.67831861E+03</totfact>
</mgrwt>
</event>
<event>
 4    1  0.6148427E-004  0.1912633E+04  0.7818608E-02  0.8648594E-01
         -2   -1    0    0    0  501 -0.00000000000E+00  0.00000000000E+00  0.42672714306E+03  0.42672714307E+03  0.25500000000E-02 0. -1.
          2   -1    0    0  501    0  0.00000000000E+00 -0.00000000000E+00 -0.21431525219E+04  0.21431525219E+04  0.25500000000E-02 0.  1.
    5000001    1    1    2    0    0  0.89006741125E+03 -0.31877715675E+03 -0.10215263568E+04  0.13940172058E+04  0.77000000000E+02 0.  0.
   -5000001    1    1    2    0    0 -0.89006741125E+03  0.31877715675E+03 -0.69489902205E+03  0.11758624593E+04  0.77000000000E+02 0.  0.
<mgrwt>
<rscale>  0 0.19126331E+04</rscale>
<asrwt>0</asrwt>
<pdfrwt beam="1">  1        2 0.32971577E+00 0.19126331E+04</pdfrwt>
<pdfrwt beam="2">  1       -2 0.65650331E-01 0.19126331E+04</pdfrwt>
<totfact> 0.11112079E+01</totfact>
</mgrwt>
</event>
<event>
 4    1  0.6148427E-004  0.3751859E+03  0.7818608E-02  0.1052728E+00
          2   -1    0    0  501    0  0.00000000000E+00  0.00000000000E+00  0.13466815985E+04  0.13466815985E+04  0.25500000000E-02 0.  1.
         -2   -1    0    0    0  501 -0.00000000000E+00 -0.00000000000E+00 -0.26131732610E+02  0.26131732734E+02  0.25500000000E-02 0. -1.
    5000001    1    1    2    0    0  0.16540063045E+03 -0.15158736064E+02  0.81002538564E+03  0.83045606820E+03  0.77000000000E+02 0.  0.
   -5000001    1    1    2    0    0 -0.16540063045E+03  0.15158736064E+02  0.51052448022E+03  0.54235726300E+03  0.77000000000E+02 0.  0.
<mgrwt>
<rscale>  0 0.37518595E+03</rscale>
<asrwt>0</asrwt>
<pdfrwt beam="1">  1        2 0.20718177E+00 0.37518595E+03</pdfrwt>
<pdfrwt beam="2">  1       -2 0.40202669E-02 0.37518595E+03</pdfrwt>
<totfact> 0.45232226E+03</totfact>
</mgrwt>
</event>
<event>
 4    1  0.6148427E-004  0.2274092E+03  0.7818608E-02  0.1128477E+00
          2   -1    0    0  501    0  0.00000000000E+00  0.00000000000E+00  0.13781106668E+04  0.13781106668E+04  0.25500000000E-02 0.  1.
         -2   -1    0    0    0  501 -0.00000000000E+00 -0.00000000000E+00 -0.93814937823E+01  0.93814941289E+01  0.25500000000E-02 0. -1.
    5000001    1    1    2    0    0  0.73484185747E+02 -0.18154876127E+02  0.46691400810E+03  0.47923607548E+03  0.77000000000E+02 0.  0.
   -5000001    1    1    2    0    0 -0.73484185747E+02  0.18154876127E+02  0.90181516487E+03  0.90825608541E+03  0.77000000000E+02 0.  0.
<mgrwt>
<rscale>  0 0.22740921E+03</rscale>
<asrwt>0</asrwt>
<pdfrwt beam="1">  1        2 0.21201682E+00 0.22740921E+03</pdfrwt>
<pdfrwt beam="2">  1       -2 0.14433081E-02 0.22740921E+03</pdfrwt>
<totfact> 0.19653739E+04</totfact>
</mgrwt>
</event>
<event>
 4    1  0.6148427E-004  0.3200692E+03  0.7818608E-02  0.1075617E+00
          2   -1    0    0  501    0  0.00000000000E+00  0.00000000000E+00  0.55079988180E+03  0.55079988181E+03  0.25500000000E-02 0.  1.
         -2   -1    0    0    0  501 -0.00000000000E+00 -0.00000000000E+00 -0.46497978364E+02  0.46497978434E+02  0.25500000000E-02 0. -1.
    5000001    1    1    2    0    0  0.22946239555E+01 -0.11988824558E+03  0.38805530979E+03  0.41339373505E+03  0.77000000000E+02 0.  0.
   -5000001    1    1    2    0    0 -0.22946239555E+01  0.11988824558E+03  0.11624659365E+03  0.18390412519E+03  0.77000000000E+02 0.  0.
<mgrwt>
<rscale>  0 0.32006925E+03</rscale>
<asrwt>0</asrwt>
<pdfrwt beam="1">  1        2 0.84738439E-01 0.32006925E+03</pdfrwt>
<pdfrwt beam="2">  1       -2 0.71535355E-02 0.32006925E+03</pdfrwt>
<totfact> 0.62876245E+03</totfact>
</mgrwt>
</event>
<event>
 4    1  0.6148427E-004  0.2841872E+03  0.7818608E-02  0.1093424E+00
          2   -1    0    0  501    0  0.00000000000E+00  0.00000000000E+00  0.48248961956E+03  0.48248961957E+03  0.25500000000E-02 0.  1.
         -2   -1    0    0    0  501 -0.00000000000E+00 -0.00000000000E+00 -0.41846685858E+02  0.41846685936E+02  0.25500000000E-02 0. -1.
    5000001    1    1    2    0    0  0.22483208548E+02  0.90412382099E+02  0.82477239913E+02  0.14632630866E+03  0.77000000000E+02 0.  0.
   -5000001    1    1    2    0    0 -0.22483208548E+02 -0.90412382099E+02  0.35816569379E+03  0.37800999684E+03  0.77000000000E+02 0.  0.
<mgrwt>
<rscale>  0 0.28418720E+03</rscale>
<asrwt>0</asrwt>
<pdfrwt beam="1">  1        2 0.74229172E-01 0.28418720E+03</pdfrwt>
<pdfrwt beam="2">  1       -2 0.64379517E-02 0.28418720E+03</pdfrwt>
<totfact> 0.85659118E+03</totfact>
</mgrwt>
</event>
<event>
 4    1  0.6148427E-004  0.4734334E+03  0.7818608E-02  0.1020956E+00
         -2   -1    0    0    0  501 -0.00000000000E+00  0.00000000000E+00  0.18874040631E+03  0.18874040633E+03  0.25500000000E-02 0. -1.
          2   -1    0    0  501    0  0.00000000000E+00 -0.00000000000E+00 -0.29688823006E+03  0.29688823007E+03  0.25500000000E-02 0.  1.
    5000001    1    1    2    0    0  0.25743317865E+02 -0.12529769500E+03 -0.24249994349E+03  0.28477614609E+03  0.77000000000E+02 0.  0.
   -5000001    1    1    2    0    0 -0.25743317865E+02  0.12529769500E+03  0.13435211974E+03  0.20085249032E+03  0.77000000000E+02 0.  0.
<mgrwt>
<rscale>  0 0.47343344E+03</rscale>
<asrwt>0</asrwt>
<pdfrwt beam="1">  1        2 0.45675112E-01 0.47343344E+03</pdfrwt>
<pdfrwt beam="2">  1       -2 0.29036986E-01 0.47343344E+03</pdfrwt>
<totfact> 0.12084437E+03</totfact>
</mgrwt>
</event>
<event>
 4    1  0.6148427E-004  0.1980995E+03  0.7818608E-02  0.1151352E+00
          2   -1    0    0  501    0  0.00000000000E+00  0.00000000000E+00  0.31856850919E+04  0.31856850919E+04  0.25500000000E-02 0.  1.
         -2   -1    0    0    0  501 -0.00000000000E+00 -0.00000000000E+00 -0.30796681118E+01  0.30796691675E+01  0.25500000000E-02 0. -1.
    5000001    1    1    2    0    0  0.39452256267E+01  0.62053688914E+02  0.15276657094E+04  0.15308682977E+04  0.77000000000E+02 0.  0.
   -5000001    1    1    2    0    0 -0.39452256267E+01 -0.62053688914E+02  0.16549397143E+04  0.16578964634E+04  0.77000000000E+02 0.  0.
<mgrwt>
<rscale>  0 0.19809952E+03</rscale>
<asrwt>0</asrwt>
<pdfrwt beam="1">  1        2 0.49010392E+00 0.19809952E+03</pdfrwt>
<pdfrwt beam="2">  1       -2 0.47379661E-03 0.19809952E+03</pdfrwt>
<totfact> 0.10104063E+04</totfact>
</mgrwt>
</event>
<event>
 4    1  0.6148427E-004  0.4020525E+03  0.7818608E-02  0.1043071E+00
         -2   -1    0    0    0  501 -0.00000000000E+00  0.00000000000E+00  0.39694687111E+02  0.39694687193E+02  0.25500000000E-02 0. -1.
          2   -1    0    0  501    0  0.00000000000E+00 -0.00000000000E+00 -0.10180596747E+04  0.10180596747E+04  0.25500000000E-02 0.  1.
    5000001    1    1    2    0    0  0.13803461332E+03 -0.63171226122E+02 -0.77055696890E+03  0.78913319573E+03  0.77000000000E+02 0.  0.
   -5000001    1    1    2    0    0 -0.13803461332E+03  0.63171226122E+02 -0.20780801871E+03  0.26862116619E+03  0.77000000000E+02 0.  0.
<mgrwt>
<rscale>  0 0.40205254E+03</rscale>
<asrwt>0</asrwt>
<pdfrwt beam="1">  1        2 0.15662455E+00 0.40205254E+03</pdfrwt>
<pdfrwt beam="2">  1       -2 0.61068757E-02 0.40205254E+03</pdfrwt>
<totfact> 0.37010203E+03</totfact>
</mgrwt>
</event>
<event>
 4    1  0.6148427E-004  0.2422367E+03  0.7818608E-02  0.1118312E+00
         -2   -1    0    0    0  501 -0.00000000000E+00  0.00000000000E+00  0.11127923342E+03  0.11127923345E+03  0.25500000000E-02 0. -1.
          2   -1    0    0  501    0  0.00000000000E+00 -0.00000000000E+00 -0.13182739744E+03  0.13182739747E+03  0.25500000000E-02 0.  1.
    5000001    1    1    2    0    0 -0.35387602672E+02 -0.28618437832E+02  0.71685324121E+02  0.11462583959E+03  0.77000000000E+02 0.  0.
   -5000001    1    1    2    0    0  0.35387602672E+02  0.28618437832E+02 -0.92233488140E+02  0.12848079133E+03  0.77000000000E+02 0.  0.
<mgrwt>
<rscale>  0 0.24223668E+03</rscale>
<asrwt>0</asrwt>
<pdfrwt beam="1">  1        2 0.20281138E-01 0.24223668E+03</pdfrwt>
<pdfrwt beam="2">  1       -2 0.17119882E-01 0.24223668E+03</pdfrwt>
<totfact> 0.73713811E+03</totfact>
</mgrwt>
</event>
<event>
 4    1  0.6148427E-004  0.3229609E+03  0.7818608E-02  0.1074295E+00
         -2   -1    0    0    0  501 -0.00000000000E+00  0.00000000000E+00  0.29303624323E+02  0.29303624434E+02  0.25500000000E-02 0. -1.
          2   -1    0    0  501    0  0.00000000000E+00 -0.00000000000E+00 -0.88985375688E+03  0.88985375689E+03  0.25500000000E-02 0.  1.
    5000001    1    1    2    0    0  0.14050560075E+03 -0.16440484651E+02 -0.39722836478E+03  0.42863911064E+03  0.77000000000E+02 0.  0.
   -5000001    1    1    2    0    0 -0.14050560075E+03  0.16440484651E+02 -0.46332176778E+03  0.49051827068E+03  0.77000000000E+02 0.  0.
<mgrwt>
<rscale>  0 0.32296093E+03</rscale>
<asrwt>0</asrwt>
<pdfrwt beam="1">  1        2 0.13690056E+00 0.32296093E+03</pdfrwt>
<pdfrwt beam="2">  1       -2 0.45082506E-02 0.32296093E+03</pdfrwt>
<totfact> 0.70915645E+03</totfact>
</mgrwt>
</event>
<event>
 4    1  0.6148427E-004  0.3929686E+03  0.7818608E-02  0.1046242E+00
          2   -1    0    0  501    0  0.00000000000E+00  0.00000000000E+00  0.10925653838E+03  0.10925653841E+03  0.25500000000E-02 0.  1.
         -2   -1    0    0    0  501 -0.00000000000E+00 -0.00000000000E+00 -0.35335254287E+03  0.35335254288E+03  0.25500000000E-02 0. -1.
    5000001    1    1    2    0    0 -0.12954926574E+03 -0.68904705940E+02  0.22373195335E+01  0.16572530390E+03  0.77000000000E+02 0.  0.
   -5000001    1    1    2    0    0  0.12954926574E+03  0.68904705940E+02 -0.24633332402E+03  0.29688377739E+03  0.77000000000E+02 0.  0.
<mgrwt>
<rscale>  0 0.39296858E+03</rscale>
<asrwt>0</asrwt>
<pdfrwt beam="1">  1        2 0.16808698E-01 0.39296858E+03</pdfrwt>
<pdfrwt beam="2">  1       -2 0.54361929E-01 0.39296858E+03</pdfrwt>
<totfact> 0.11110119E+03</totfact>
</mgrwt>
</event>
<event>
 4    1  0.6148427E-004  0.2267164E+03  0.7818608E-02  0.1128973E+00
         -2   -1    0    0    0  501 -0.00000000000E+00  0.00000000000E+00  0.11205818395E+02  0.11205818685E+02  0.25500000000E-02 0. -1.
          2   -1    0    0  501    0  0.00000000000E+00 -0.00000000000E+00 -0.11467326104E+04  0.11467326104E+04  0.25500000000E-02 0.  1.
    5000001    1    1    2    0    0 -0.79863632496E+02 -0.71258605125E+01 -0.68106321620E+03  0.69007614228E+03  0.77000000000E+02 0.  0.
   -5000001    1    1    2    0    0  0.79863632496E+02  0.71258605125E+01 -0.45446357583E+03  0.46786228683E+03  0.77000000000E+02 0.  0.
<mgrwt>
<rscale>  0 0.22671637E+03</rscale>
<asrwt>0</asrwt>
<pdfrwt beam="1">  1        2 0.17642031E+00 0.22671637E+03</pdfrwt>
<pdfrwt beam="2">  1       -2 0.17239730E-02 0.22671637E+03</pdfrwt>
<totfact> 0.20394376E+04</totfact>
</mgrwt>
</event>
<event>
 4    1  0.6148427E-004  0.2794817E+03  0.7818608E-02  0.1095972E+00
         -2   -1    0    0    0  501 -0.00000000000E+00  0.00000000000E+00  0.10904427320E+03  0.10904427323E+03  0.25500000000E-02 0. -1.
          2   -1    0    0  501    0  0.00000000000E+00 -0.00000000000E+00 -0.17907871513E+03  0.17907871515E+03  0.25500000000E-02 0.  1.
    5000001    1    1    2    0    0  0.11049556090E+03 -0.12054953141E+02 -0.71376920239E+02  0.15289949515E+03  0.77000000000E+02 0.  0.
   -5000001    1    1    2    0    0 -0.11049556090E+03  0.12054953141E+02  0.13424783086E+01  0.13522349323E+03  0.77000000000E+02 0.  0.
<mgrwt>
<rscale>  0 0.27948172E+03</rscale>
<asrwt>0</asrwt>
<pdfrwt beam="1">  1        2 0.27550572E-01 0.27948172E+03</pdfrwt>
<pdfrwt beam="2">  1       -2 0.16776042E-01 0.27948172E+03</pdfrwt>
<totfact> 0.54370659E+03</totfact>
</mgrwt>
</event>
<event>
 4    1  0.6148427E-004  0.2701213E+03  0.7818608E-02  0.1101210E+00
         -2   -1    0    0    0  501 -0.00000000000E+00  0.00000000000E+00  0.41898640418E+02  0.41898640495E+02  0.25500000000E-02 0. -1.
          2   -1    0    0  501    0  0.00000000000E+00 -0.00000000000E+00 -0.43536920892E+03  0.43536920893E+03  0.25500000000E-02 0.  1.
    5000001    1    1    2    0    0 -0.66297376074E+02  0.85348237181E+02 -0.15229189360E+03  0.20199377347E+03  0.77000000000E+02 0.  0.
   -5000001    1    1    2    0    0  0.66297376074E+02 -0.85348237181E+02 -0.24117867491E+03  0.27527407596E+03  0.77000000000E+02 0.  0.
<mgrwt>
<rscale>  0 0.27012129E+03</rscale>
<asrwt>0</asrwt>
<pdfrwt beam="1">  1        2 0.66979875E-01 0.27012129E+03</pdfrwt>
<pdfrwt beam="2">  1       -2 0.64459450E-02 0.27012129E+03</pdfrwt>
<totfact> 0.95587605E+03</totfact>
</mgrwt>
</event>
<event>
 4    1  0.6148427E-004  0.2735464E+03  0.7818608E-02  0.1099267E+00
          2   -1    0    0  501    0  0.00000000000E+00  0.00000000000E+00  0.73348883203E+03  0.73348883203E+03  0.25500000000E-02 0.  1.
         -2   -1    0    0    0  501 -0.00000000000E+00 -0.00000000000E+00 -0.25504011651E+02  0.25504011778E+02  0.25500000000E-02 0. -1.
    5000001    1    1    2    0    0 -0.41219181352E+02  0.10517250289E+03  0.36564308841E+03  0.39036411769E+03  0.77000000000E+02 0.  0.
   -5000001    1    1    2    0    0  0.41219181352E+02 -0.10517250289E+03  0.34234173197E+03  0.36862872612E+03  0.77000000000E+02 0.  0.
<mgrwt>
<rscale>  0 0.27354640E+03</rscale>
<asrwt>0</asrwt>
<pdfrwt beam="1">  1        2 0.11284442E+00 0.27354640E+03</pdfrwt>
<pdfrwt beam="2">  1       -2 0.39236947E-02 0.27354640E+03</pdfrwt>
<totfact> 0.11156601E+04</totfact>
</mgrwt>
</event>
<event>
 4    1  0.6148427E-004  0.2499898E+03  0.7818608E-02  0.1113311E+00
         -2   -1    0    0    0  501 -0.00000000000E+00  0.00000000000E+00  0.10659342399E+02  0.10659342704E+02  0.25500000000E-02 0. -1.
          2   -1    0    0  501    0  0.00000000000E+00 -0.00000000000E+00 -0.14657308007E+04  0.14657308007E+04  0.25500000000E-02 0.  1.
    5000001    1    1    2    0    0  0.82788689003E+01  0.97733731486E+02 -0.67662760088E+03  0.68802204341E+03  0.77000000000E+02 0.  0.
   -5000001    1    1    2    0    0 -0.82788689003E+01 -0.97733731486E+02 -0.77844385744E+03  0.78836810002E+03  0.77000000000E+02 0.  0.
<mgrwt>
<rscale>  0 0.24998981E+03</rscale>
<asrwt>0</asrwt>
<pdfrwt beam="1">  1        2 0.22549689E+00 0.24998981E+03</pdfrwt>
<pdfrwt beam="2">  1       -2 0.16399000E-02 0.24998981E+03</pdfrwt>
<totfact> 0.14686033E+04</totfact>
</mgrwt>
</event>
<event>
 4    1  0.6148427E-004  0.1940994E+03  0.7818608E-02  0.1154815E+00
          2   -1    0    0  501    0  0.00000000000E+00  0.00000000000E+00  0.55361762466E+03  0.55361762466E+03  0.25500000000E-02 0.  1.
         -2   -1    0    0    0  501 -0.00000000000E+00 -0.00000000000E+00 -0.17012909628E+02  0.17012909819E+02  0.25500000000E-02 0. -1.
    5000001    1    1    2    0    0 -0.50693766776E+02 -0.13943154728E+02  0.34748184476E+03  0.35977340367E+03  0.77000000000E+02 0.  0.
   -5000001    1    1    2    0    0  0.50693766776E+02  0.13943154728E+02  0.18912287027E+03  0.21085713081E+03  0.77000000000E+02 0.  0.
<mgrwt>
<rscale>  0 0.19409942E+03</rscale>
<asrwt>0</asrwt>
<pdfrwt beam="1">  1        2 0.85171954E-01 0.19409942E+03</pdfrwt>
<pdfrwt beam="2">  1       -2 0.26173704E-02 0.19409942E+03</pdfrwt>
<totfact> 0.27827398E+04</totfact>
</mgrwt>
</event>
<event>
 4    1  0.6148427E-004  0.3792038E+03  0.7818608E-02  0.1051228E+00
         -2   -1    0    0    0  501 -0.00000000000E+00  0.00000000000E+00  0.24406576375E+02  0.24406576508E+02  0.25500000000E-02 0. -1.
          2   -1    0    0  501    0  0.00000000000E+00 -0.00000000000E+00 -0.14729180240E+04  0.14729180240E+04  0.25500000000E-02 0.  1.
    5000001    1    1    2    0    0  0.14817763747E+03 -0.51804334204E+02 -0.43464300338E+03  0.46849102625E+03  0.77000000000E+02 0.  0.
   -5000001    1    1    2    0    0 -0.14817763747E+03  0.51804334204E+02 -0.10138684442E+04  0.10288335742E+04  0.77000000000E+02 0.  0.
<mgrwt>
<rscale>  0 0.37920383E+03</rscale>
<asrwt>0</asrwt>
<pdfrwt beam="1">  1        2 0.22660270E+00 0.37920383E+03</pdfrwt>
<pdfrwt beam="2">  1       -2 0.37548591E-02 0.37920383E+03</pdfrwt>
<totfact> 0.42759549E+03</totfact>
</mgrwt>
</event>
<event>
 4    1  0.6148427E-004  0.1749640E+03  0.7818608E-02  0.1172768E+00
          2   -1    0    0  501    0  0.00000000000E+00  0.00000000000E+00  0.14423575507E+03  0.14423575509E+03  0.25500000000E-02 0.  1.
         -2   -1    0    0    0  501 -0.00000000000E+00 -0.00000000000E+00 -0.53059652974E+02  0.53059653035E+02  0.25500000000E-02 0. -1.
    5000001    1    1    2    0    0  0.30896878092E+01 -0.33969860440E+02  0.72287079119E+02  0.11098612254E+03  0.77000000000E+02 0.  0.
   -5000001    1    1    2    0    0 -0.30896878092E+01  0.33969860440E+02  0.18889022973E+02  0.86309285584E+02  0.77000000000E+02 0.  0.
<mgrwt>
<rscale>  0 0.17496399E+03</rscale>
<asrwt>0</asrwt>
<pdfrwt beam="1">  1        2 0.22190116E-01 0.17496399E+03</pdfrwt>
<pdfrwt beam="2">  1       -2 0.81630237E-02 0.17496399E+03</pdfrwt>
<totfact> 0.21444315E+04</totfact>
</mgrwt>
</event>
<event>
 4    1  0.6148427E-004  0.2172075E+03  0.7818608E-02  0.1135982E+00
          2   -1    0    0  501    0  0.00000000000E+00  0.00000000000E+00  0.16872154348E+04  0.16872154348E+04  0.25500000000E-02 0.  1.
         -2   -1    0    0    0  501 -0.00000000000E+00 -0.00000000000E+00 -0.69906773496E+01  0.69906778147E+01  0.25500000000E-02 0. -1.
    5000001    1    1    2    0    0  0.59829497690E+02 -0.57514084062E+00  0.12130343855E+04  0.12169475420E+04  0.77000000000E+02 0.  0.
   -5000001    1    1    2    0    0 -0.59829497690E+02  0.57514084062E+00  0.46719037193E+03  0.47725857059E+03  0.77000000000E+02 0.  0.
<mgrwt>
<rscale>  0 0.21720754E+03</rscale>
<asrwt>0</asrwt>
<pdfrwt beam="1">  1        2 0.25957188E+00 0.21720754E+03</pdfrwt>
<pdfrwt beam="2">  1       -2 0.10754877E-02 0.21720754E+03</pdfrwt>
<totfact> 0.20609478E+04</totfact>
</mgrwt>
</event>
<event>
 4    1  0.6148427E-004  0.2428680E+03  0.7818608E-02  0.1117897E+00
         -2   -1    0    0    0  501 -0.00000000000E+00  0.00000000000E+00  0.39853049902E+01  0.39853058060E+01  0.25500000000E-02 0. -1.
          2   -1    0    0  501    0  0.00000000000E+00 -0.00000000000E+00 -0.37001476298E+04  0.37001476298E+04  0.25500000000E-02 0.  1.
    5000001    1    1    2    0    0 -0.66845070753E+02 -0.64717729624E+02 -0.16548180953E+04  0.16592192672E+04  0.77000000000E+02 0.  0.
   -5000001    1    1    2    0    0  0.66845070753E+02  0.64717729624E+02 -0.20413442295E+04  0.20449136684E+04  0.77000000000E+02 0.  0.
<mgrwt>
<rscale>  0 0.24286802E+03</rscale>
<asrwt>0</asrwt>
<pdfrwt beam="1">  1        2 0.56925074E+00 0.24286802E+03</pdfrwt>
<pdfrwt beam="2">  1       -2 0.61312687E-03 0.24286802E+03</pdfrwt>
<totfact> 0.32233585E+03</totfact>
</mgrwt>
</event>
<event>
 4    1  0.6148427E-004  0.2619578E+03  0.7818608E-02  0.1105973E+00
          2   -1    0    0  501    0  0.00000000000E+00  0.00000000000E+00  0.25220939112E+03  0.25220939113E+03  0.25500000000E-02 0.  1.
         -2   -1    0    0    0  501 -0.00000000000E+00 -0.00000000000E+00 -0.68020751253E+02  0.68020751301E+02  0.25500000000E-02 0. -1.
    5000001    1    1    2    0    0  0.97908018980E+02 -0.40435320677E+02  0.89233441675E+02  0.15846956317E+03  0.77000000000E+02 0.  0.
   -5000001    1    1    2    0    0 -0.97908018980E+02  0.40435320677E+02  0.94955198187E+02  0.16176057926E+03  0.77000000000E+02 0.  0.
<mgrwt>
<rscale>  0 0.26195780E+03</rscale>
<asrwt>0</asrwt>
<pdfrwt beam="1">  1        2 0.38801446E-01 0.26195780E+03</pdfrwt>
<pdfrwt beam="2">  1       -2 0.10464731E-01 0.26195780E+03</pdfrwt>
<totfact> 0.80613515E+03</totfact>
</mgrwt>
</event>
<event>
 4    1  0.6148427E-004  0.1727373E+03  0.7818608E-02  0.1175023E+00
          2   -1    0    0  501    0  0.00000000000E+00  0.00000000000E+00  0.95648649264E+03  0.95648649264E+03  0.25500000000E-02 0.  1.
         -2   -1    0    0    0  501 -0.00000000000E+00 -0.00000000000E+00 -0.77989007668E+01  0.77989011837E+01  0.25500000000E-02 0. -1.
    5000001    1    1    2    0    0  0.11436902175E+01 -0.24898174387E+02  0.30600781120E+03  0.31652963152E+03  0.77000000000E+02 0.  0.
   -5000001    1    1    2    0    0 -0.11436902175E+01  0.24898174387E+02  0.64267978067E+03  0.64775576231E+03  0.77000000000E+02 0.  0.
<mgrwt>
<rscale>  0 0.17273730E+03</rscale>
<asrwt>0</asrwt>
<pdfrwt beam="1">  1        2 0.14715174E+00 0.17273730E+03</pdfrwt>
<pdfrwt beam="2">  1       -2 0.11998311E-02 0.17273730E+03</pdfrwt>
<totfact> 0.43953164E+04</totfact>
</mgrwt>
</event>
<event>
 4    1  0.6148427E-004  0.1718132E+03  0.7818608E-02  0.1175970E+00
          2   -1    0    0  501    0  0.00000000000E+00  0.00000000000E+00  0.15241711176E+04  0.15241711176E+04  0.25500000000E-02 0.  1.
         -2   -1    0    0    0  501 -0.00000000000E+00 -0.00000000000E+00 -0.48419381763E+01  0.48419388477E+01  0.25500000000E-02 0. -1.
    5000001    1    1    2    0    0 -0.51378172084E+01  0.11520677357E+02  0.43980774787E+03  0.44667547308E+03  0.77000000000E+02 0.  0.
   -5000001    1    1    2    0    0  0.51378172084E+01 -0.11520677357E+02  0.10795214316E+04  0.10823375834E+04  0.77000000000E+02 0.  0.
<mgrwt>
<rscale>  0 0.17181319E+03</rscale>
<asrwt>0</asrwt>
<pdfrwt beam="1">  1        2 0.23448830E+00 0.17181319E+03</pdfrwt>
<pdfrwt beam="2">  1       -2 0.74491224E-03 0.17181319E+03</pdfrwt>
<totfact> 0.41995906E+04</totfact>
</mgrwt>
</event>
<event>
 4    1  0.6148427E-004  0.3354679E+03  0.7818608E-02  0.1068743E+00
         -2   -1    0    0    0  501 -0.00000000000E+00  0.00000000000E+00  0.10318215644E+02  0.10318215959E+02  0.25500000000E-02 0. -1.
          2   -1    0    0  501    0  0.00000000000E+00 -0.00000000000E+00 -0.27266995936E+04  0.27266995936E+04  0.25500000000E-02 0.  1.
    5000001    1    1    2    0    0  0.10571584132E+03  0.10004700833E+03 -0.16188172547E+04  0.16271704112E+04  0.77000000000E+02 0.  0.
   -5000001    1    1    2    0    0 -0.10571584132E+03 -0.10004700833E+03 -0.10975641233E+04  0.11098473984E+04  0.77000000000E+02 0.  0.
<mgrwt>
<rscale>  0 0.33546788E+03</rscale>
<asrwt>0</asrwt>
<pdfrwt beam="1">  1        2 0.41949167E+00 0.33546788E+03</pdfrwt>
<pdfrwt beam="2">  1       -2 0.15874200E-02 0.33546788E+03</pdfrwt>
<totfact> 0.32420978E+03</totfact>
</mgrwt>
</event>
<event>
 4    1  0.6148427E-004  0.2779120E+03  0.7818608E-02  0.1096835E+00
         -2   -1    0    0    0  501 -0.00000000000E+00  0.00000000000E+00  0.16468343333E+02  0.16468343530E+02  0.25500000000E-02 0. -1.
          2   -1    0    0  501    0  0.00000000000E+00 -0.00000000000E+00 -0.11724780841E+04  0.11724780841E+04  0.25500000000E-02 0.  1.
    5000001    1    1    2    0    0 -0.11171297148E+03  0.19662073592E+02 -0.67493911707E+03  0.68872214781E+03  0.77000000000E+02 0.  0.
   -5000001    1    1    2    0    0  0.11171297148E+03 -0.19662073592E+02 -0.48107062366E+03  0.50022427978E+03  0.77000000000E+02 0.  0.
<mgrwt>
<rscale>  0 0.27791201E+03</rscale>
<asrwt>0</asrwt>
<pdfrwt beam="1">  1        2 0.18038118E+00 0.27791201E+03</pdfrwt>
<pdfrwt beam="2">  1       -2 0.25335922E-02 0.27791201E+03</pdfrwt>
<totfact> 0.11277822E+04</totfact>
</mgrwt>
</event>
<event>
 4    1  0.6148427E-004  0.2532141E+03  0.7818608E-02  0.1111290E+00
          2   -1    0    0  501    0  0.00000000000E+00  0.00000000000E+00  0.20358949722E+04  0.20358949722E+04  0.25500000000E-02 0.  1.
         -2   -1    0    0    0  501 -0.00000000000E+00 -0.00000000000E+00 -0.78733649860E+01  0.78733653989E+01  0.25500000000E-02 0. -1.
    5000001    1    1    2    0    0  0.85606095964E+02 -0.43273593148E+02  0.77196083053E+03  0.78169913100E+03  0.77000000000E+02 0.  0.
   -5000001    1    1    2    0    0 -0.85606095964E+02  0.43273593148E+02  0.12560607766E+04  0.12620692066E+04  0.77000000000E+02 0.  0.
<mgrwt>
<rscale>  0 0.25321410E+03</rscale>
<asrwt>0</asrwt>
<pdfrwt beam="1">  1        2 0.31321490E+00 0.25321410E+03</pdfrwt>
<pdfrwt beam="2">  1       -2 0.12112858E-02 0.25321410E+03</pdfrwt>
<totfact> 0.11452145E+04</totfact>
</mgrwt>
</event>
<event>
 4    1  0.6148427E-004  0.1705600E+03  0.7818608E-02  0.1177265E+00
          2   -1    0    0  501    0  0.00000000000E+00  0.00000000000E+00  0.54092462362E+03  0.54092462362E+03  0.25500000000E-02 0.  1.
         -2   -1    0    0    0  501 -0.00000000000E+00 -0.00000000000E+00 -0.13444905862E+02  0.13444906104E+02  0.25500000000E-02 0. -1.
    5000001    1    1    2    0    0 -0.20781157058E+02  0.41133400671E+01  0.36097214105E+03  0.36970077451E+03  0.77000000000E+02 0.  0.
   -5000001    1    1    2    0    0  0.20781157058E+02 -0.41133400671E+01  0.16650757670E+03  0.18466875522E+03  0.77000000000E+02 0.  0.
<mgrwt>
<rscale>  0 0.17056003E+03</rscale>
<asrwt>0</asrwt>
<pdfrwt beam="1">  1        2 0.83219182E-01 0.17056003E+03</pdfrwt>
<pdfrwt beam="2">  1       -2 0.20684468E-02 0.17056003E+03</pdfrwt>
<totfact> 0.39894527E+04</totfact>
</mgrwt>
</event>
<event>
 4    1  0.6148427E-004  0.3430716E+03  0.7818608E-02  0.1065495E+00
          2   -1    0    0  501    0  0.00000000000E+00  0.00000000000E+00  0.25956002688E+04  0.25956002688E+04  0.25500000000E-02 0.  1.
         -2   -1    0    0    0  501 -0.00000000000E+00 -0.00000000000E+00 -0.11336311867E+02  0.11336312154E+02  0.25500000000E-02 0. -1.
    5000001    1    1    2    0    0 -0.92990755522E+02 -0.12059794870E+03  0.11595575065E+04  0.11720468236E+04  0.77000000000E+02 0.  0.
   -5000001    1    1    2    0    0  0.92990755522E+02  0.12059794870E+03  0.14247064505E+04  0.14348897574E+04  0.77000000000E+02 0.  0.
<mgrwt>
<rscale>  0 0.34307162E+03</rscale>
<asrwt>0</asrwt>
<pdfrwt beam="1">  1        2 0.39932297E+00 0.34307162E+03</pdfrwt>
<pdfrwt beam="2">  1       -2 0.17440486E-02 0.34307162E+03</pdfrwt>
<totfact> 0.33442697E+03</totfact>
</mgrwt>
</event>
<event>
 4    1  0.6148427E-004  0.4395031E+03  0.7818608E-02  0.1030899E+00
          2   -1    0    0  501    0  0.00000000000E+00  0.00000000000E+00  0.71536500463E+03  0.71536500464E+03  0.25500000000E-02 0.  1.
         -2   -1    0    0    0  501 -0.00000000000E+00 -0.00000000000E+00 -0.67505028372E+02  0.67505028420E+02  0.25500000000E-02 0. -1.
    5000001    1    1    2    0    0  0.18142738050E+03  0.13354624668E+02  0.49540819597E+03  0.53334090508E+03  0.77000000000E+02 0.  0.
   -5000001    1    1    2    0    0 -0.18142738050E+03 -0.13354624668E+02  0.15245178029E+03  0.24952912798E+03  0.77000000000E+02 0.  0.
<mgrwt>
<rscale>  0 0.43950306E+03</rscale>
<asrwt>0</asrwt>
<pdfrwt beam="1">  1        2 0.11005615E+00 0.43950306E+03</pdfrwt>
<pdfrwt beam="2">  1       -2 0.10385389E-01 0.43950306E+03</pdfrwt>
<totfact> 0.25631326E+03</totfact>
</mgrwt>
</event>
<event>
 4    1  0.6148427E-004  0.2426934E+03  0.7818608E-02  0.1118011E+00
          2   -1    0    0  501    0  0.00000000000E+00  0.00000000000E+00  0.25233996346E+03  0.25233996347E+03  0.25500000000E-02 0.  1.
         -2   -1    0    0    0  501 -0.00000000000E+00 -0.00000000000E+00 -0.58353882203E+02  0.58353882258E+02  0.25500000000E-02 0. -1.
    5000001    1    1    2    0    0  0.58909821545E+02 -0.72921057942E+02  0.93334124149E+02  0.15306242680E+03  0.77000000000E+02 0.  0.
   -5000001    1    1    2    0    0 -0.58909821545E+02  0.72921057942E+02  0.10065195711E+03  0.15763141894E+03  0.77000000000E+02 0.  0.
<mgrwt>
<rscale>  0 0.24269336E+03</rscale>
<asrwt>0</asrwt>
<pdfrwt beam="1">  1        2 0.38821534E-01 0.24269336E+03</pdfrwt>
<pdfrwt beam="2">  1       -2 0.89775202E-02 0.24269336E+03</pdfrwt>
<totfact> 0.10234267E+04</totfact>
</mgrwt>
</event>
<event>
 4    1  0.6148427E-004  0.2309560E+03  0.7818608E-02  0.1125969E+00
          2   -1    0    0  501    0  0.00000000000E+00  0.00000000000E+00  0.27868234287E+04  0.27868234287E+04  0.25500000000E-02 0.  1.
         -2   -1    0    0    0  501 -0.00000000000E+00 -0.00000000000E+00 -0.47850799226E+01  0.47850806021E+01  0.25500000000E-02 0. -1.
    5000001    1    1    2    0    0 -0.83046071127E+02 -0.19389786616E+02  0.15307085690E+04  0.15350147677E+04  0.77000000000E+02 0.  0.
   -5000001    1    1    2    0    0  0.83046071127E+02  0.19389786616E+02  0.12513297798E+04  0.12565937416E+04  0.77000000000E+02 0.  0.
<mgrwt>
<rscale>  0 0.23095605E+03</rscale>
<asrwt>0</asrwt>
<pdfrwt beam="1">  1        2 0.42874236E+00 0.23095605E+03</pdfrwt>
<pdfrwt beam="2">  1       -2 0.73616569E-03 0.23095605E+03</pdfrwt>
<totfact> 0.92121668E+03</totfact>
</mgrwt>
</event>
<event>
 4    1  0.6148427E-004  0.1962657E+03  0.7818608E-02  0.1152928E+00
         -2   -1    0    0    0  501 -0.00000000000E+00  0.00000000000E+00  0.17691711981E+02  0.17691712164E+02  0.25500000000E-02 0. -1.
          2   -1    0    0  501    0  0.00000000000E+00 -0.00000000000E+00 -0.54432609679E+03  0.54432609679E+03  0.25500000000E-02 0.  1.
    5000001    1    1    2    0    0 -0.34720872607E+02 -0.17466438032E+02 -0.39733785523E+03  0.40659191661E+03  0.77000000000E+02 0.  0.
   -5000001    1    1    2    0    0  0.34720872607E+02  0.17466438032E+02 -0.12929652958E+03  0.15542589235E+03  0.77000000000E+02 0.  0.
<mgrwt>
<rscale>  0 0.19626574E+03</rscale>
<asrwt>0</asrwt>
<pdfrwt beam="1">  1        2 0.83742464E-01 0.19626574E+03</pdfrwt>
<pdfrwt beam="2">  1       -2 0.27218023E-02 0.19626574E+03</pdfrwt>
<totfact> 0.26796836E+04</totfact>
</mgrwt>
</event>
<event>
 4    1  0.6148427E-004  0.5599378E+03  0.7818608E-02  0.9992195E-01
         -2   -1    0    0    0  501 -0.00000000000E+00  0.00000000000E+00  0.73086926203E+02  0.73086926248E+02  0.25500000000E-02 0. -1.
          2   -1    0    0  501    0  0.00000000000E+00 -0.00000000000E+00 -0.10724571523E+04  0.10724571523E+04  0.25500000000E-02 0.  1.
    5000001    1    1    2    0    0  0.24454771846E+03  0.64649834935E+02 -0.31139644803E+03  0.40850940700E+03  0.77000000000E+02 0.  0.
   -5000001    1    1    2    0    0 -0.24454771846E+03 -0.64649834935E+02 -0.68797377802E+03  0.73703467150E+03  0.77000000000E+02 0.  0.
<mgrwt>
<rscale>  0 0.55993784E+03</rscale>
<asrwt>0</asrwt>
<pdfrwt beam="1">  1        2 0.16499340E+00 0.55993784E+03</pdfrwt>
<pdfrwt beam="2">  1       -2 0.11244143E-01 0.55993784E+03</pdfrwt>
<totfact> 0.12957540E+03</totfact>
</mgrwt>
</event>
<event>
 4    1  0.6148427E-004  0.2659983E+03  0.7818608E-02  0.1103592E+00
         -2   -1    0    0    0  501 -0.00000000000E+00  0.00000000000E+00  0.61068557647E+01  0.61068562971E+01  0.25500000000E-02 0. -1.
          2   -1    0    0  501    0  0.00000000000E+00 -0.00000000000E+00 -0.28965442304E+04  0.28965442304E+04  0.25500000000E-02 0.  1.
    5000001    1    1    2    0    0 -0.26435502189E+02 -0.10442023798E+03 -0.15821045438E+04  0.15876354145E+04  0.77000000000E+02 0.  0.
   -5000001    1    1    2    0    0  0.26435502189E+02  0.10442023798E+03 -0.13083328309E+04  0.13150156723E+04  0.77000000000E+02 0.  0.
<mgrwt>
<rscale>  0 0.26599834E+03</rscale>
<asrwt>0</asrwt>
<pdfrwt beam="1">  1        2 0.44562109E+00 0.26599834E+03</pdfrwt>
<pdfrwt beam="2">  1       -2 0.93951863E-03 0.26599834E+03</pdfrwt>
<totfact> 0.55968737E+03</totfact>
</mgrwt>
</event>
<event>
 4    1  0.6148427E-004  0.3759687E+03  0.7818608E-02  0.1052434E+00
          2   -1    0    0  501    0  0.00000000000E+00  0.00000000000E+00  0.19067605068E+03  0.19067605069E+03  0.25500000000E-02 0.  1.
         -2   -1    0    0    0  501 -0.00000000000E+00 -0.00000000000E+00 -0.18533066764E+03  0.18533066766E+03  0.25500000000E-02 0. -1.
    5000001    1    1    2    0    0 -0.13253414847E+02 -0.16536302133E+03  0.46134395392E+02  0.18862121903E+03  0.77000000000E+02 0.  0.
   -5000001    1    1    2    0    0  0.13253414847E+02  0.16536302133E+03 -0.40789012356E+02  0.18738549933E+03  0.77000000000E+02 0.  0.
<mgrwt>
<rscale>  0 0.37596872E+03</rscale>
<asrwt>0</asrwt>
<pdfrwt beam="1">  1        2 0.29334777E-01 0.37596872E+03</pdfrwt>
<pdfrwt beam="2">  1       -2 0.28512411E-01 0.37596872E+03</pdfrwt>
<totfact> 0.20295581E+03</totfact>
</mgrwt>
</event>
<event>
 4    1  0.6148427E-004  0.2623058E+03  0.7818608E-02  0.1105766E+00
         -2   -1    0    0    0  501 -0.00000000000E+00  0.00000000000E+00  0.12116285078E+03  0.12116285081E+03  0.25500000000E-02 0. -1.
          2   -1    0    0  501    0  0.00000000000E+00 -0.00000000000E+00 -0.14196665455E+03  0.14196665457E+03  0.25500000000E-02 0.  1.
    5000001    1    1    2    0    0 -0.88064398884E+02  0.16111169230E+02  0.46848993311E+02  0.12703832610E+03  0.77000000000E+02 0.  0.
   -5000001    1    1    2    0    0  0.88064398884E+02 -0.16111169230E+02 -0.67652797082E+02  0.13609117928E+03  0.77000000000E+02 0.  0.
<mgrwt>
<rscale>  0 0.26230581E+03</rscale>
<asrwt>0</asrwt>
<pdfrwt beam="1">  1        2 0.21841024E-01 0.26230581E+03</pdfrwt>
<pdfrwt beam="2">  1       -2 0.18640439E-01 0.26230581E+03</pdfrwt>
<totfact> 0.58915502E+03</totfact>
</mgrwt>
</event>
<event>
 4    1  0.6148427E-004  0.2559709E+03  0.7818608E-02  0.1109588E+00
          2   -1    0    0  501    0  0.00000000000E+00  0.00000000000E+00  0.47948736539E+02  0.47948736607E+02  0.25500000000E-02 0.  1.
         -2   -1    0    0    0  501 -0.00000000000E+00 -0.00000000000E+00 -0.34162065170E+03  0.34162065171E+03  0.25500000000E-02 0. -1.
    5000001    1    1    2    0    0 -0.34087043833E+02 -0.83586564451E+02 -0.73804990832E+02  0.13973123125E+03  0.77000000000E+02 0.  0.
   -5000001    1    1    2    0    0  0.34087043833E+02  0.83586564451E+02 -0.21986692433E+03  0.24983815707E+03  0.77000000000E+02 0.  0.
<mgrwt>
<rscale>  0 0.25597093E+03</rscale>
<asrwt>0</asrwt>
<pdfrwt beam="1">  1        2 0.73767289E-02 0.25597093E+03</pdfrwt>
<pdfrwt beam="2">  1       -2 0.52557022E-01 0.25597093E+03</pdfrwt>
<totfact> 0.32541057E+03</totfact>
</mgrwt>
</event>
<event>
 4    1  0.6148427E-004  0.5060169E+03  0.7818608E-02  0.1012220E+00
          2   -1    0    0  501    0  0.00000000000E+00  0.00000000000E+00  0.12439480147E+04  0.12439480147E+04  0.25500000000E-02 0.  1.
         -2   -1    0    0    0  501 -0.00000000000E+00 -0.00000000000E+00 -0.51459764976E+02  0.51459765039E+02  0.25500000000E-02 0. -1.
    5000001    1    1    2    0    0  0.75861762983E+02  0.12548980560E+03  0.10858793849E+04  0.10984378621E+04  0.77000000000E+02 0.  0.
   -5000001    1    1    2    0    0 -0.75861762983E+02 -0.12548980560E+03  0.10660886485E+03  0.19696991765E+03  0.77000000000E+02 0.  0.
<mgrwt>
<rscale>  0 0.50601689E+03</rscale>
<asrwt>0</asrwt>
<pdfrwt beam="1">  1        2 0.19137661E+00 0.50601689E+03</pdfrwt>
<pdfrwt beam="2">  1       -2 0.79168871E-02 0.50601689E+03</pdfrwt>
<totfact> 0.18062994E+03</totfact>
</mgrwt>
</event>
<event>
 4    1  0.6148427E-004  0.2064109E+03  0.7818608E-02  0.1144440E+00
          2   -1    0    0  501    0  0.00000000000E+00  0.00000000000E+00  0.10594888129E+02  0.10594888436E+02  0.25500000000E-02 0.  1.
         -2   -1    0    0    0  501 -0.00000000000E+00 -0.00000000000E+00 -0.10053304383E+04  0.10053304383E+04  0.25500000000E-02 0. -1.
    5000001    1    1    2    0    0  0.54949525490E+02 -0.19887104555E+02 -0.67533341055E+03  0.68221636061E+03  0.77000000000E+02 0.  0.
   -5000001    1    1    2    0    0 -0.54949525490E+02  0.19887104555E+02 -0.31940213960E+03  0.33370896610E+03  0.77000000000E+02 0.  0.
<mgrwt>
<rscale>  0 0.20641089E+03</rscale>
<asrwt>0</asrwt>
<pdfrwt beam="1">  1        2 0.16299836E-02 0.20641089E+03</pdfrwt>
<pdfrwt beam="2">  1       -2 0.15466615E+00 0.20641089E+03</pdfrwt>
<totfact> 0.20991890E+03</totfact>
</mgrwt>
</event>
<event>
 4    1  0.6148427E-004  0.1999897E+03  0.7818608E-02  0.1149748E+00
          2   -1    0    0  501    0  0.00000000000E+00  0.00000000000E+00  0.80042685492E+02  0.80042685533E+02  0.25500000000E-02 0.  1.
         -2   -1    0    0    0  501 -0.00000000000E+00 -0.00000000000E+00 -0.12492051651E+03  0.12492051653E+03  0.25500000000E-02 0. -1.
    5000001    1    1    2    0    0  0.78636245737E+01 -0.59343745550E+02  0.16534852277E+00  0.97532271928E+02  0.77000000000E+02 0.  0.
   -5000001    1    1    2    0    0 -0.78636245737E+01  0.59343745550E+02 -0.45043179536E+02  0.10743093014E+03  0.77000000000E+02 0.  0.
<mgrwt>
<rscale>  0 0.19998974E+03</rscale>
<asrwt>0</asrwt>
<pdfrwt beam="1">  1        2 0.12314259E-01 0.19998974E+03</pdfrwt>
<pdfrwt beam="2">  1       -2 0.19218541E-01 0.19998974E+03</pdfrwt>
<totfact> 0.10780760E+04</totfact>
</mgrwt>
</event>
<event>
 4    1  0.6148427E-004  0.4130474E+03  0.7818608E-02  0.1039353E+00
         -2   -1    0    0    0  501 -0.00000000000E+00  0.00000000000E+00  0.50558468102E+02  0.50558468166E+02  0.25500000000E-02 0. -1.
          2   -1    0    0  501    0  0.00000000000E+00 -0.00000000000E+00 -0.84361826092E+03  0.84361826092E+03  0.25500000000E-02 0.  1.
    5000001    1    1    2    0    0 -0.14856360155E+03  0.10022289063E+03 -0.24958804172E+03  0.31676325873E+03  0.77000000000E+02 0.  0.
   -5000001    1    1    2    0    0  0.14856360155E+03 -0.10022289063E+03 -0.54347175109E+03  0.57741347036E+03  0.77000000000E+02 0.  0.
<mgrwt>
<rscale>  0 0.41304744E+03</rscale>
<asrwt>0</asrwt>
<pdfrwt beam="1">  1        2 0.12978741E+00 0.41304744E+03</pdfrwt>
<pdfrwt beam="2">  1       -2 0.77782265E-02 0.41304744E+03</pdfrwt>
<totfact> 0.32878891E+03</totfact>
</mgrwt>
</event>
<event>
 4    1  0.6148427E-004  0.2204951E+03  0.7818608E-02  0.1133514E+00
          2   -1    0    0  501    0  0.00000000000E+00  0.00000000000E+00  0.60606669387E+02  0.60606669441E+02  0.25500000000E-02 0.  1.
         -2   -1    0    0    0  501 -0.00000000000E+00 -0.00000000000E+00 -0.20054762529E+03  0.20054762531E+03  0.25500000000E-02 0. -1.
    5000001    1    1    2    0    0 -0.60269112465E+02  0.30620172591E+02 -0.11816204272E+03  0.15640086070E+03  0.77000000000E+02 0.  0.
   -5000001    1    1    2    0    0  0.60269112465E+02 -0.30620172591E+02 -0.21778913190E+02  0.10475343406E+03  0.77000000000E+02 0.  0.
<mgrwt>
<rscale>  0 0.22049511E+03</rscale>
<asrwt>0</asrwt>
<pdfrwt beam="1">  1        2 0.93241031E-02 0.22049511E+03</pdfrwt>
<pdfrwt beam="2">  1       -2 0.30853481E-01 0.22049511E+03</pdfrwt>
<totfact> 0.66545543E+03</totfact>
</mgrwt>
</event>
<event>
 4    1  0.6148427E-004  0.2198673E+03  0.7818608E-02  0.1133982E+00
         -2   -1    0    0    0  501 -0.00000000000E+00  0.00000000000E+00  0.49799894549E+02  0.49799894614E+02  0.25500000000E-02 0. -1.
          2   -1    0    0  501    0  0.00000000000E+00 -0.00000000000E+00 -0.24267935064E+03  0.24267935065E+03  0.25500000000E-02 0.  1.
    5000001    1    1    2    0    0  0.74244096525E+02  0.73735055582E+01 -0.12874741198E+03  0.16754536862E+03  0.77000000000E+02 0.  0.
   -5000001    1    1    2    0    0 -0.74244096525E+02 -0.73735055582E+01 -0.64132044109E+02  0.12493387665E+03  0.77000000000E+02 0.  0.
<mgrwt>
<rscale>  0 0.21986729E+03</rscale>
<asrwt>0</asrwt>
<pdfrwt beam="1">  1        2 0.37335284E-01 0.21986729E+03</pdfrwt>
<pdfrwt beam="2">  1       -2 0.76615224E-02 0.21986729E+03</pdfrwt>
<totfact> 0.13598056E+04</totfact>
</mgrwt>
</event>
<event>
 4    1  0.6148427E-004  0.3071061E+03  0.7818608E-02  0.1081741E+00
          2   -1    0    0  501    0  0.00000000000E+00  0.00000000000E+00  0.82960598383E+03  0.82960598384E+03  0.25500000000E-02 0.  1.
         -2   -1    0    0    0  501 -0.00000000000E+00 -0.00000000000E+00 -0.28421367940E+02  0.28421368054E+02  0.25500000000E-02 0. -1.
    5000001    1    1    2    0    0  0.30203340425E+02 -0.12937038984E+03  0.39843280819E+03  0.42699723908E+03  0.77000000000E+02 0.  0.
   -5000001    1    1    2    0    0 -0.30203340425E+02  0.12937038984E+03  0.40275180770E+03  0.43103011281E+03  0.77000000000E+02 0.  0.
<mgrwt>
<rscale>  0 0.30710609E+03</rscale>
<asrwt>0</asrwt>
<pdfrwt beam="1">  1        2 0.12763170E+00 0.30710609E+03</pdfrwt>
<pdfrwt beam="2">  1       -2 0.43725177E-02 0.30710609E+03</pdfrwt>
<totfact> 0.81379816E+03</totfact>
</mgrwt>
</event>
<event>
 4    1  0.6148427E-004  0.1994001E+03  0.7818608E-02  0.1150246E+00
          2   -1    0    0  501    0  0.00000000000E+00  0.00000000000E+00  0.58767143895E+02  0.58767143950E+02  0.25500000000E-02 0.  1.
         -2   -1    0    0    0  501 -0.00000000000E+00 -0.00000000000E+00 -0.16914376542E+03  0.16914376544E+03  0.25500000000E-02 0. -1.
    5000001    1    1    2    0    0 -0.37339939090E+02 -0.17213118084E+01 -0.11362440220E+03  0.14225589176E+03  0.77000000000E+02 0.  0.
   -5000001    1    1    2    0    0  0.37339939090E+02  0.17213118084E+01  0.32477806747E+01  0.85655017628E+02  0.77000000000E+02 0.  0.
<mgrwt>
<rscale>  0 0.19940006E+03</rscale>
<asrwt>0</asrwt>
<pdfrwt beam="1">  1        2 0.90410991E-02 0.19940006E+03</pdfrwt>
<pdfrwt beam="2">  1       -2 0.26022118E-01 0.19940006E+03</pdfrwt>
<totfact> 0.93287057E+03</totfact>
</mgrwt>
</event>
<event>
 4    1  0.6148427E-004  0.2406838E+03  0.7818608E-02  0.1119338E+00
         -2   -1    0    0    0  501 -0.00000000000E+00  0.00000000000E+00  0.37524020510E+02  0.37524020597E+02  0.25500000000E-02 0. -1.
          2   -1    0    0  501    0  0.00000000000E+00 -0.00000000000E+00 -0.38594421124E+03  0.38594421125E+03  0.25500000000E-02 0.  1.
    5000001    1    1    2    0    0 -0.32370168550E+02  0.56336793711E+02 -0.29000617924E+03  0.30700854408E+03  0.77000000000E+02 0.  0.
   -5000001    1    1    2    0    0  0.32370168550E+02 -0.56336793711E+02 -0.58414011492E+02  0.11645968777E+03  0.77000000000E+02 0.  0.
<mgrwt>
<rscale>  0 0.24068385E+03</rscale>
<asrwt>0</asrwt>
<pdfrwt beam="1">  1        2 0.59376030E-01 0.24068385E+03</pdfrwt>
<pdfrwt beam="2">  1       -2 0.57729265E-02 0.24068385E+03</pdfrwt>
<totfact> 0.12837962E+04</totfact>
</mgrwt>
</event>
<event>
 4    1  0.6148427E-004  0.2082150E+03  0.7818608E-02  0.1142987E+00
         -2   -1    0    0    0  501 -0.00000000000E+00  0.00000000000E+00  0.11934662307E+02  0.11934662579E+02  0.25500000000E-02 0. -1.
          2   -1    0    0  501    0  0.00000000000E+00 -0.00000000000E+00 -0.90814195126E+03  0.90814195126E+03  0.25500000000E-02 0.  1.
    5000001    1    1    2    0    0  0.59399855055E+02 -0.36971876449E+02 -0.46469958549E+03  0.47620370346E+03  0.77000000000E+02 0.  0.
   -5000001    1    1    2    0    0 -0.59399855055E+02  0.36971876449E+02 -0.43150770346E+03  0.44387291038E+03  0.77000000000E+02 0.  0.
<mgrwt>
<rscale>  0 0.20821496E+03</rscale>
<asrwt>0</asrwt>
<pdfrwt beam="1">  1        2 0.13971409E+00 0.20821496E+03</pdfrwt>
<pdfrwt beam="2">  1       -2 0.18361026E-02 0.20821496E+03</pdfrwt>
<totfact> 0.25769440E+04</totfact>
</mgrwt>
</event>
<event>
 4    1  0.6148427E-004  0.1909753E+03  0.7818608E-02  0.1157585E+00
         -2   -1    0    0    0  501 -0.00000000000E+00  0.00000000000E+00  0.10138395306E+02  0.10138395626E+02  0.25500000000E-02 0. -1.
          2   -1    0    0  501    0  0.00000000000E+00 -0.00000000000E+00 -0.89934249474E+03  0.89934249474E+03  0.25500000000E-02 0.  1.
    5000001    1    1    2    0    0 -0.49962745469E+02  0.26295349610E+02 -0.43945407956E+03  0.44970724854E+03  0.77000000000E+02 0.  0.
   -5000001    1    1    2    0    0  0.49962745469E+02 -0.26295349610E+02 -0.44975001987E+03  0.45977364183E+03  0.77000000000E+02 0.  0.
<mgrwt>
<rscale>  0 0.19097529E+03</rscale>
<asrwt>0</asrwt>
<pdfrwt beam="1">  1        2 0.13836032E+00 0.19097529E+03</pdfrwt>
<pdfrwt beam="2">  1       -2 0.15597539E-02 0.19097529E+03</pdfrwt>
<totfact> 0.32911785E+04</totfact>
</mgrwt>
</event>
<event>
 4    1  0.6148427E-004  0.2450096E+03  0.7818608E-02  0.1116500E+00
         -2   -1    0    0    0  501 -0.00000000000E+00  0.00000000000E+00  0.81831185257E+01  0.81831189230E+01  0.25500000000E-02 0. -1.
          2   -1    0    0  501    0  0.00000000000E+00 -0.00000000000E+00 -0.18339497041E+04  0.18339497041E+04  0.25500000000E-02 0.  1.
    5000001    1    1    2    0    0 -0.17955728335E+02 -0.90896243713E+02 -0.10799747262E+04  0.10866733385E+04  0.77000000000E+02 0.  0.
   -5000001    1    1    2    0    0  0.17955728335E+02  0.90896243713E+02 -0.74579185936E+03  0.75545948454E+03  0.77000000000E+02 0.  0.
<mgrwt>
<rscale>  0 0.24500962E+03</rscale>
<asrwt>0</asrwt>
<pdfrwt beam="1">  1        2 0.28214578E+00 0.24500962E+03</pdfrwt>
<pdfrwt beam="2">  1       -2 0.12589428E-02 0.24500962E+03</pdfrwt>
<totfact> 0.13802117E+04</totfact>
</mgrwt>
</event>
<event>
 4    1  0.6148427E-004  0.1795159E+03  0.7818608E-02  0.1168272E+00
          2   -1    0    0  501    0  0.00000000000E+00  0.00000000000E+00  0.14386906742E+03  0.14386906744E+03  0.25500000000E-02 0.  1.
         -2   -1    0    0    0  501 -0.00000000000E+00 -0.00000000000E+00 -0.55998743375E+02  0.55998743433E+02  0.25500000000E-02 0. -1.
    5000001    1    1    2    0    0 -0.12300907657E+02  0.43299241035E+02  0.32726527235E+02  0.95006116583E+02  0.77000000000E+02 0.  0.
   -5000001    1    1    2    0    0  0.12300907657E+02 -0.43299241035E+02  0.55143796811E+02  0.10486169429E+03  0.77000000000E+02 0.  0.
<mgrwt>
<rscale>  0 0.17951587E+03</rscale>
<asrwt>0</asrwt>
<pdfrwt beam="1">  1        2 0.22133702E-01 0.17951587E+03</pdfrwt>
<pdfrwt beam="2">  1       -2 0.86151914E-02 0.17951587E+03</pdfrwt>
<totfact> 0.19817364E+04</totfact>
</mgrwt>
</event>
<event>
 4    1  0.6148427E-004  0.4034998E+03  0.7818608E-02  0.1042575E+00
         -2   -1    0    0    0  501 -0.00000000000E+00  0.00000000000E+00  0.49853542434E+02  0.49853542499E+02  0.25500000000E-02 0. -1.
          2   -1    0    0  501    0  0.00000000000E+00 -0.00000000000E+00 -0.81645188707E+03  0.81645188708E+03  0.25500000000E-02 0.  1.
    5000001    1    1    2    0    0 -0.27323787165E+02 -0.18094327975E+03 -0.46032033767E+03  0.50130915921E+03  0.77000000000E+02 0.  0.
   -5000001    1    1    2    0    0  0.27323787165E+02  0.18094327975E+03 -0.30627800697E+03  0.36499627037E+03  0.77000000000E+02 0.  0.
<mgrwt>
<rscale>  0 0.40349978E+03</rscale>
<asrwt>0</asrwt>
<pdfrwt beam="1">  1        2 0.12560797E+00 0.40349978E+03</pdfrwt>
<pdfrwt beam="2">  1       -2 0.76697764E-02 0.40349978E+03</pdfrwt>
<totfact> 0.35084883E+03</totfact>
</mgrwt>
</event>
<event>
 4    1  0.6148427E-004  0.2622401E+03  0.7818608E-02  0.1105805E+00
          2   -1    0    0  501    0  0.00000000000E+00  0.00000000000E+00  0.25834969494E+02  0.25834969620E+02  0.25500000000E-02 0.  1.
         -2   -1    0    0    0  501 -0.00000000000E+00 -0.00000000000E+00 -0.66547267007E+03  0.66547267008E+03  0.25500000000E-02 0. -1.
    5000001    1    1    2    0    0  0.19691740417E+02  0.79164680724E+02 -0.49878024843E+03  0.51123922731E+03  0.77000000000E+02 0.  0.
   -5000001    1    1    2    0    0 -0.19691740417E+02 -0.79164680724E+02 -0.14085745215E+03  0.18006841239E+03  0.77000000000E+02 0.  0.
<mgrwt>
<rscale>  0 0.26224009E+03</rscale>
<asrwt>0</asrwt>
<pdfrwt beam="1">  1        2 0.39746112E-02 0.26224009E+03</pdfrwt>
<pdfrwt beam="2">  1       -2 0.10238040E+00 0.26224009E+03</pdfrwt>
<totfact> 0.17301627E+03</totfact>
</mgrwt>
</event>
<event>
 4    1  0.6148427E-004  0.3286254E+03  0.7818608E-02  0.1071747E+00
         -2   -1    0    0    0  501 -0.00000000000E+00  0.00000000000E+00  0.99122655631E+02  0.99122655664E+02  0.25500000000E-02 0. -1.
          2   -1    0    0  501    0  0.00000000000E+00 -0.00000000000E+00 -0.27237626732E+03  0.27237626733E+03  0.25500000000E-02 0.  1.
    5000001    1    1    2    0    0  0.17841050311E+02 -0.13741356487E+03 -0.37756417645E+02  0.16295808651E+03  0.77000000000E+02 0.  0.
   -5000001    1    1    2    0    0 -0.17841050311E+02  0.13741356487E+03 -0.13549719404E+03  0.20854083648E+03  0.77000000000E+02 0.  0.
<mgrwt>
<rscale>  0 0.32862537E+03</rscale>
<asrwt>0</asrwt>
<pdfrwt beam="1">  1        2 0.41904041E-01 0.32862537E+03</pdfrwt>
<pdfrwt beam="2">  1       -2 0.15249639E-01 0.32862537E+03</pdfrwt>
<totfact> 0.40506397E+03</totfact>
</mgrwt>
</event>
<event>
 4    1  0.6148427E-004  0.2992903E+03  0.7818608E-02  0.1085596E+00
         -2   -1    0    0    0  501 -0.00000000000E+00  0.00000000000E+00  0.88811243716E+02  0.88811243753E+02  0.25500000000E-02 0. -1.
          2   -1    0    0  501    0  0.00000000000E+00 -0.00000000000E+00 -0.25214913593E+03  0.25214913595E+03  0.25500000000E-02 0.  1.
    5000001    1    1    2    0    0  0.12335322496E+03 -0.27537991119E+02 -0.56442811995E+02  0.15839554946E+03  0.77000000000E+02 0.  0.
   -5000001    1    1    2    0    0 -0.12335322496E+03  0.27537991119E+02 -0.10689508022E+03  0.18256483024E+03  0.77000000000E+02 0.  0.
<mgrwt>
<rscale>  0 0.29929035E+03</rscale>
<asrwt>0</asrwt>
<pdfrwt beam="1">  1        2 0.38792174E-01 0.29929035E+03</pdfrwt>
<pdfrwt beam="2">  1       -2 0.13663268E-01 0.29929035E+03</pdfrwt>
<totfact> 0.52655203E+03</totfact>
</mgrwt>
</event>
<event>
 4    1  0.6148427E-004  0.2762184E+03  0.7818608E-02  0.1097772E+00
          2   -1    0    0  501    0  0.00000000000E+00  0.00000000000E+00  0.10381971840E+03  0.10381971843E+03  0.25500000000E-02 0.  1.
         -2   -1    0    0    0  501 -0.00000000000E+00 -0.00000000000E+00 -0.18372382458E+03  0.18372382460E+03  0.25500000000E-02 0. -1.
    5000001    1    1    2    0    0 -0.10543967845E+03  0.39968159540E+02 -0.61543121648E+02  0.14977161076E+03  0.77000000000E+02 0.  0.
   -5000001    1    1    2    0    0  0.10543967845E+03 -0.39968159540E+02 -0.18360984533E+02  0.13777193227E+03  0.77000000000E+02 0.  0.
<mgrwt>
<rscale>  0 0.27621843E+03</rscale>
<asrwt>0</asrwt>
<pdfrwt beam="1">  1        2 0.15972264E-01 0.27621843E+03</pdfrwt>
<pdfrwt beam="2">  1       -2 0.28265204E-01 0.27621843E+03</pdfrwt>
<totfact> 0.40990383E+03</totfact>
</mgrwt>
</event>
<event>
 4    1  0.6148427E-004  0.2402574E+03  0.7818608E-02  0.1119621E+00
         -2   -1    0    0    0  501 -0.00000000000E+00  0.00000000000E+00  0.95016303189E+02  0.95016303223E+02  0.25500000000E-02 0. -1.
          2   -1    0    0  501    0  0.00000000000E+00 -0.00000000000E+00 -0.15187814619E+03  0.15187814621E+03  0.25500000000E-02 0.  1.
    5000001    1    1    2    0    0 -0.71687226083E+02  0.45625470349E+02 -0.65212975676E+02  0.13191843739E+03  0.77000000000E+02 0.  0.
   -5000001    1    1    2    0    0  0.71687226083E+02 -0.45625470349E+02  0.83511326734E+01  0.11497601204E+03  0.77000000000E+02 0.  0.
<mgrwt>
<rscale>  0 0.24025736E+03</rscale>
<asrwt>0</asrwt>
<pdfrwt beam="1">  1        2 0.23365869E-01 0.24025736E+03</pdfrwt>
<pdfrwt beam="2">  1       -2 0.14617893E-01 0.24025736E+03</pdfrwt>
<totfact> 0.81586110E+03</totfact>
</mgrwt>
</event>
<event>
 4    1  0.6148427E-004  0.2217117E+03  0.7818608E-02  0.1132613E+00
          2   -1    0    0  501    0  0.00000000000E+00  0.00000000000E+00  0.42228087081E+02  0.42228087158E+02  0.25500000000E-02 0.  1.
         -2   -1    0    0    0  501 -0.00000000000E+00 -0.00000000000E+00 -0.29101522548E+03  0.29101522549E+03  0.25500000000E-02 0. -1.
    5000001    1    1    2    0    0 -0.59347291305E+02 -0.53253783727E+02 -0.12229476750E+03  0.16505476856E+03  0.77000000000E+02 0.  0.
   -5000001    1    1    2    0    0  0.59347291305E+02  0.53253783727E+02 -0.12649237090E+03  0.16818854409E+03  0.77000000000E+02 0.  0.
<mgrwt>
<rscale>  0 0.22171167E+03</rscale>
<asrwt>0</asrwt>
<pdfrwt beam="1">  1        2 0.64966290E-02 0.22171167E+03</pdfrwt>
<pdfrwt beam="2">  1       -2 0.44771572E-01 0.22171167E+03</pdfrwt>
<totfact> 0.52294037E+03</totfact>
</mgrwt>
</event>
<event>
 4    1  0.6148427E-004  0.7279871E+03  0.7818608E-02  0.9670532E-01
          2   -1    0    0  501    0  0.00000000000E+00  0.00000000000E+00  0.87358362838E+03  0.87358362838E+03  0.25500000000E-02 0.  1.
         -2   -1    0    0    0  501 -0.00000000000E+00 -0.00000000000E+00 -0.15166411996E+03  0.15166411999E+03  0.25500000000E-02 0. -1.
    5000001    1    1    2    0    0 -0.22288320914E+03 -0.23941149425E+03  0.55796276937E+03  0.65134187682E+03  0.77000000000E+02 0.  0.
   -5000001    1    1    2    0    0  0.22288320914E+03  0.23941149425E+03  0.16395673905E+03  0.37390587155E+03  0.77000000000E+02 0.  0.
<mgrwt>
<rscale>  0 0.72798707E+03</rscale>
<asrwt>0</asrwt>
<pdfrwt beam="1">  1        2 0.13439748E+00 0.72798707E+03</pdfrwt>
<pdfrwt beam="2">  1       -2 0.23332942E-01 0.72798707E+03</pdfrwt>
<totfact> 0.49905219E+02</totfact>
</mgrwt>
</event>
<event>
 4    1  0.6148427E-004  0.2339578E+03  0.7818608E-02  0.1123885E+00
          2   -1    0    0  501    0  0.00000000000E+00  0.00000000000E+00  0.11126502327E+03  0.11126502330E+03  0.25500000000E-02 0.  1.
         -2   -1    0    0    0  501 -0.00000000000E+00 -0.00000000000E+00 -0.12298620142E+03  0.12298620144E+03  0.25500000000E-02 0. -1.
    5000001    1    1    2    0    0  0.85491947923E+02  0.38224658415E+01  0.14939925601E+02  0.11608482150E+03  0.77000000000E+02 0.  0.
   -5000001    1    1    2    0    0 -0.85491947923E+02 -0.38224658415E+01 -0.26661103743E+02  0.11816640325E+03  0.77000000000E+02 0.  0.
<mgrwt>
<rscale>  0 0.23395780E+03</rscale>
<asrwt>0</asrwt>
<pdfrwt beam="1">  1        2 0.17117696E-01 0.23395780E+03</pdfrwt>
<pdfrwt beam="2">  1       -2 0.18920954E-01 0.23395780E+03</pdfrwt>
<totfact> 0.75605427E+03</totfact>
</mgrwt>
</event>
<event>
 4    1  0.6148427E-004  0.4543228E+03  0.7818608E-02  0.1026441E+00
         -2   -1    0    0    0  501 -0.00000000000E+00  0.00000000000E+00  0.32338035174E+03  0.32338035175E+03  0.25500000000E-02 0. -1.
          2   -1    0    0  501    0  0.00000000000E+00 -0.00000000000E+00 -0.15957156658E+03  0.15957156660E+03  0.25500000000E-02 0.  1.
    5000001    1    1    2    0    0  0.20848232342E+03  0.11882213008E+02  0.33572353969E+02  0.22508258288E+03  0.77000000000E+02 0.  0.
   -5000001    1    1    2    0    0 -0.20848232342E+03 -0.11882213008E+02  0.13023643120E+03  0.25786933547E+03  0.77000000000E+02 0.  0.
<mgrwt>
<rscale>  0 0.45432283E+03</rscale>
<asrwt>0</asrwt>
<pdfrwt beam="1">  1        2 0.24549472E-01 0.45432283E+03</pdfrwt>
<pdfrwt beam="2">  1       -2 0.49750823E-01 0.45432283E+03</pdfrwt>
<totfact> 0.85796956E+02</totfact>
</mgrwt>
</event>
<event>
 4    1  0.6148427E-004  0.3571279E+03  0.7818608E-02  0.1059727E+00
         -2   -1    0    0    0  501 -0.00000000000E+00  0.00000000000E+00  0.78423809983E+02  0.78423810025E+02  0.25500000000E-02 0. -1.
          2   -1    0    0  501    0  0.00000000000E+00 -0.00000000000E+00 -0.40657404373E+03  0.40657404373E+03  0.25500000000E-02 0.  1.
    5000001    1    1    2    0    0  0.51565742608E+02  0.14572346962E+03 -0.22573915181E+03  0.28422090013E+03  0.77000000000E+02 0.  0.
   -5000001    1    1    2    0    0 -0.51565742608E+02 -0.14572346962E+03 -0.10241108193E+03  0.20077695363E+03  0.77000000000E+02 0.  0.
<mgrwt>
<rscale>  0 0.35712791E+03</rscale>
<asrwt>0</asrwt>
<pdfrwt beam="1">  1        2 0.62549852E-01 0.35712791E+03</pdfrwt>
<pdfrwt beam="2">  1       -2 0.12065202E-01 0.35712791E+03</pdfrwt>
<totfact> 0.38579552E+03</totfact>
</mgrwt>
</event>
<event>
 4    1  0.6148427E-004  0.6118207E+03  0.7818608E-02  0.9881181E-01
         -2   -1    0    0    0  501 -0.00000000000E+00  0.00000000000E+00  0.93694202698E+03  0.93694202699E+03  0.25500000000E-02 0. -1.
          2   -1    0    0  501    0  0.00000000000E+00 -0.00000000000E+00 -0.99879343204E+02  0.99879343237E+02  0.25500000000E-02 0.  1.
    5000001    1    1    2    0    0 -0.29230017365E+03  0.46371367386E+02  0.43192433009E+03  0.52922331974E+03  0.77000000000E+02 0.  0.
   -5000001    1    1    2    0    0  0.29230017365E+03 -0.46371367386E+02  0.40513835369E+03  0.50759805049E+03  0.77000000000E+02 0.  0.
<mgrwt>
<rscale>  0 0.61182074E+03</rscale>
<asrwt>0</asrwt>
<pdfrwt beam="1">  1        2 0.15366052E-01 0.61182074E+03</pdfrwt>
<pdfrwt beam="2">  1       -2 0.14414493E+00 0.61182074E+03</pdfrwt>
<totfact> 0.13162800E+02</totfact>
</mgrwt>
</event>
<event>
 4    1  0.6148427E-004  0.1826715E+03  0.7818608E-02  0.1165242E+00
         -2   -1    0    0    0  501 -0.00000000000E+00  0.00000000000E+00  0.10820897294E+03  0.10820897297E+03  0.25500000000E-02 0. -1.
          2   -1    0    0  501    0  0.00000000000E+00 -0.00000000000E+00 -0.77093624279E+02  0.77093624321E+02  0.25500000000E-02 0.  1.
    5000001    1    1    2    0    0 -0.10711447010E+01 -0.36602655647E+02  0.48775628151E+02  0.98229138512E+02  0.77000000000E+02 0.  0.
   -5000001    1    1    2    0    0  0.10711447010E+01  0.36602655647E+02 -0.17660279493E+02  0.87073458776E+02  0.77000000000E+02 0.  0.
<mgrwt>
<rscale>  0 0.18267153E+03</rscale>
<asrwt>0</asrwt>
<pdfrwt beam="1">  1        2 0.11860558E-01 0.18267153E+03</pdfrwt>
<pdfrwt beam="2">  1       -2 0.16647534E-01 0.18267153E+03</pdfrwt>
<totfact> 0.14259763E+04</totfact>
</mgrwt>
</event>
<event>
 4    1  0.6148427E-004  0.2736436E+03  0.7818608E-02  0.1099212E+00
         -2   -1    0    0    0  501 -0.00000000000E+00  0.00000000000E+00  0.10652313720E+04  0.10652313720E+04  0.25500000000E-02 0. -1.
          2   -1    0    0  501    0  0.00000000000E+00 -0.00000000000E+00 -0.17573838931E+02  0.17573839116E+02  0.25500000000E-02 0.  1.
    5000001    1    1    2    0    0  0.87469993167E+02 -0.39555093439E+02  0.28721528736E+03  0.31246956078E+03  0.77000000000E+02 0.  0.
   -5000001    1    1    2    0    0 -0.87469993167E+02  0.39555093439E+02  0.76044224568E+03  0.77033565031E+03  0.77000000000E+02 0.  0.
<mgrwt>
<rscale>  0 0.27364360E+03</rscale>
<asrwt>0</asrwt>
<pdfrwt beam="1">  1        2 0.27036673E-02 0.27364360E+03</pdfrwt>
<pdfrwt beam="2">  1       -2 0.16388176E+00 0.27364360E+03</pdfrwt>
<totfact> 0.90759504E+02</totfact>
</mgrwt>
</event>
<event>
 4    1  0.6148427E-004  0.2143341E+03  0.7818608E-02  0.1138179E+00
          2   -1    0    0  501    0  0.00000000000E+00  0.00000000000E+00  0.82781234555E+02  0.82781234594E+02  0.25500000000E-02 0.  1.
         -2   -1    0    0    0  501 -0.00000000000E+00 -0.00000000000E+00 -0.13873641334E+03  0.13873641336E+03  0.25500000000E-02 0. -1.
    5000001    1    1    2    0    0 -0.53140068906E+02 -0.52267573442E+02 -0.28053707106E+02  0.11077805125E+03  0.77000000000E+02 0.  0.
   -5000001    1    1    2    0    0  0.53140068906E+02  0.52267573442E+02 -0.27901471681E+02  0.11073959671E+03  0.77000000000E+02 0.  0.
<mgrwt>
<rscale>  0 0.21433405E+03</rscale>
<asrwt>0</asrwt>
<pdfrwt beam="1">  1        2 0.12735575E-01 0.21433405E+03</pdfrwt>
<pdfrwt beam="2">  1       -2 0.21344064E-01 0.21433405E+03</pdfrwt>
<totfact> 0.86929185E+03</totfact>
</mgrwt>
</event>
<event>
 4    1  0.6148427E-004  0.2468706E+03  0.7818608E-02  0.1115299E+00
         -2   -1    0    0    0  501 -0.00000000000E+00  0.00000000000E+00  0.39628831809E+03  0.39628831809E+03  0.25500000000E-02 0. -1.
          2   -1    0    0  501    0  0.00000000000E+00 -0.00000000000E+00 -0.38447448110E+02  0.38447448195E+02  0.25500000000E-02 0.  1.
    5000001    1    1    2    0    0  0.14930055291E+02 -0.94507926356E+02  0.20067555695E+03  0.23527501748E+03  0.77000000000E+02 0.  0.
   -5000001    1    1    2    0    0 -0.14930055291E+02  0.94507926356E+02  0.15716531303E+03  0.19946074881E+03  0.77000000000E+02 0.  0.
<mgrwt>
<rscale>  0 0.24687061E+03</rscale>
<asrwt>0</asrwt>
<pdfrwt beam="1">  1        2 0.59149919E-02 0.24687061E+03</pdfrwt>
<pdfrwt beam="2">  1       -2 0.60967435E-01 0.24687061E+03</pdfrwt>
<totfact> 0.31910606E+03</totfact>
</mgrwt>
</event>
<event>
 4    1  0.6148427E-004  0.2633010E+03  0.7818608E-02  0.1105176E+00
          2   -1    0    0  501    0  0.00000000000E+00  0.00000000000E+00  0.27561705698E+03  0.27561705699E+03  0.25500000000E-02 0.  1.
         -2   -1    0    0    0  501 -0.00000000000E+00 -0.00000000000E+00 -0.62883806262E+02  0.62883806314E+02  0.25500000000E-02 0. -1.
    5000001    1    1    2    0    0 -0.89513505320E+02 -0.52412874566E+02  0.13896810576E+03  0.18973906154E+03  0.77000000000E+02 0.  0.
   -5000001    1    1    2    0    0  0.89513505320E+02  0.52412874566E+02  0.73765144960E+02  0.14876180177E+03  0.77000000000E+02 0.  0.
<mgrwt>
<rscale>  0 0.26330097E+03</rscale>
<asrwt>0</asrwt>
<pdfrwt beam="1">  1        2 0.42402624E-01 0.26330097E+03</pdfrwt>
<pdfrwt beam="2">  1       -2 0.96744318E-02 0.26330097E+03</pdfrwt>
<totfact> 0.83022454E+03</totfact>
</mgrwt>
</event>
<event>
 4    1  0.6148427E-004  0.1930760E+03  0.7818608E-02  0.1155716E+00
          2   -1    0    0  501    0  0.00000000000E+00  0.00000000000E+00  0.82889752349E+03  0.82889752350E+03  0.25500000000E-02 0.  1.
         -2   -1    0    0    0  501 -0.00000000000E+00 -0.00000000000E+00 -0.11243346832E+02  0.11243347121E+02  0.25500000000E-02 0. -1.
    5000001    1    1    2    0    0  0.15377913324E+02 -0.49840014353E+02  0.52146527944E+03  0.52969382185E+03  0.77000000000E+02 0.  0.
   -5000001    1    1    2    0    0 -0.15377913324E+02  0.49840014353E+02  0.29618889722E+03  0.31044704876E+03  0.77000000000E+02 0.  0.
<mgrwt>
<rscale>  0 0.19307597E+03</rscale>
<asrwt>0</asrwt>
<pdfrwt beam="1">  1        2 0.12752267E+00 0.19307597E+03</pdfrwt>
<pdfrwt beam="2">  1       -2 0.17297461E-02 0.19307597E+03</pdfrwt>
<totfact> 0.31505722E+04</totfact>
</mgrwt>
</event>
<event>
 4    1  0.6148427E-004  0.2721988E+03  0.7818608E-02  0.1100028E+00
          2   -1    0    0  501    0  0.00000000000E+00  0.00000000000E+00  0.10549632350E+04  0.10549632350E+04  0.25500000000E-02 0.  1.
         -2   -1    0    0    0  501 -0.00000000000E+00 -0.00000000000E+00 -0.17558002917E+02  0.17558003102E+02  0.25500000000E-02 0. -1.
    5000001    1    1    2    0    0  0.93529890587E+02 -0.95194752517E+01  0.76017006063E+03  0.76982204562E+03  0.77000000000E+02 0.  0.
   -5000001    1    1    2    0    0 -0.93529890587E+02  0.95194752517E+01  0.27723517147E+03  0.30269919250E+03  0.77000000000E+02 0.  0.
<mgrwt>
<rscale>  0 0.27219881E+03</rscale>
<asrwt>0</asrwt>
<pdfrwt beam="1">  1        2 0.16230204E+00 0.27219881E+03</pdfrwt>
<pdfrwt beam="2">  1       -2 0.27012312E-02 0.27219881E+03</pdfrwt>
<totfact> 0.12007348E+04</totfact>
</mgrwt>
</event>
<event>
 4    1  0.6148427E-004  0.3978171E+03  0.7818608E-02  0.1044538E+00
         -2   -1    0    0    0  501 -0.00000000000E+00  0.00000000000E+00  0.19334427484E+02  0.19334427652E+02  0.25500000000E-02 0. -1.
          2   -1    0    0  501    0  0.00000000000E+00 -0.00000000000E+00 -0.20463300413E+04  0.20463300413E+04  0.25500000000E-02 0.  1.
    5000001    1    1    2    0    0 -0.33298029315E+02  0.17486841127E+03 -0.78432683453E+03  0.80795130013E+03  0.77000000000E+02 0.  0.
   -5000001    1    1    2    0    0  0.33298029315E+02 -0.17486841127E+03 -0.12426687792E+04  0.12577131688E+04  0.77000000000E+02 0.  0.
<mgrwt>
<rscale>  0 0.39781714E+03</rscale>
<asrwt>0</asrwt>
<pdfrwt beam="1">  1        2 0.31481983E+00 0.39781714E+03</pdfrwt>
<pdfrwt beam="2">  1       -2 0.29745289E-02 0.39781714E+03</pdfrwt>
<totfact> 0.29972891E+03</totfact>
</mgrwt>
</event>
<event>
 4    1  0.6148427E-004  0.3304062E+03  0.7818608E-02  0.1070957E+00
         -2   -1    0    0    0  501 -0.00000000000E+00  0.00000000000E+00  0.19465951217E+03  0.19465951218E+03  0.25500000000E-02 0. -1.
          2   -1    0    0  501    0  0.00000000000E+00 -0.00000000000E+00 -0.14020415094E+03  0.14020415097E+03  0.25500000000E-02 0.  1.
    5000001    1    1    2    0    0  0.58630929417E+01  0.13635794371E+03 -0.25777079498E+02  0.15881222403E+03  0.77000000000E+02 0.  0.
   -5000001    1    1    2    0    0 -0.58630929417E+01 -0.13635794371E+03  0.80232440722E+02  0.17605143912E+03  0.77000000000E+02 0.  0.
<mgrwt>
<rscale>  0 0.33040624E+03</rscale>
<asrwt>0</asrwt>
<pdfrwt beam="1">  1        2 0.21569870E-01 0.33040624E+03</pdfrwt>
<pdfrwt beam="2">  1       -2 0.29947617E-01 0.33040624E+03</pdfrwt>
<totfact> 0.26180956E+03</totfact>
</mgrwt>
</event>
<event>
 4    1  0.6148427E-004  0.4080571E+03  0.7818608E-02  0.1041025E+00
         -2   -1    0    0    0  501 -0.00000000000E+00  0.00000000000E+00  0.59017904902E+02  0.59017904957E+02  0.25500000000E-02 0. -1.
          2   -1    0    0  501    0  0.00000000000E+00 -0.00000000000E+00 -0.70533924821E+03  0.70533924821E+03  0.25500000000E-02 0.  1.
    5000001    1    1    2    0    0  0.10828316239E+03  0.64985157332E+02 -0.59914171671E+02  0.15958390238E+03  0.77000000000E+02 0.  0.
   -5000001    1    1    2    0    0 -0.10828316239E+03 -0.64985157332E+02 -0.58640717163E+03  0.60477325079E+03  0.77000000000E+02 0.  0.
<mgrwt>
<rscale>  0 0.40805708E+03</rscale>
<asrwt>0</asrwt>
<pdfrwt beam="1">  1        2 0.10851373E+00 0.40805708E+03</pdfrwt>
<pdfrwt beam="2">  1       -2 0.90796781E-02 0.40805708E+03</pdfrwt>
<totfact> 0.32340254E+03</totfact>
</mgrwt>
</event>
<event>
 4    1  0.6148427E-004  0.1828554E+03  0.7818608E-02  0.1165068E+00
          2   -1    0    0  501    0  0.00000000000E+00  0.00000000000E+00  0.51479292766E+03  0.51479292767E+03  0.25500000000E-02 0.  1.
         -2   -1    0    0    0  501 -0.00000000000E+00 -0.00000000000E+00 -0.16237644147E+02  0.16237644347E+02  0.25500000000E-02 0. -1.
    5000001    1    1    2    0    0  0.32051925591E+02 -0.34555511234E+02  0.29122307033E+03  0.30489553290E+03  0.77000000000E+02 0.  0.
   -5000001    1    1    2    0    0 -0.32051925591E+02  0.34555511234E+02  0.20733221318E+03  0.22613503911E+03  0.77000000000E+02 0.  0.
<mgrwt>
<rscale>  0 0.18285540E+03</rscale>
<asrwt>0</asrwt>
<pdfrwt beam="1">  1        2 0.79198915E-01 0.18285540E+03</pdfrwt>
<pdfrwt beam="2">  1       -2 0.24980990E-02 0.18285540E+03</pdfrwt>
<totfact> 0.32179136E+04</totfact>
</mgrwt>
</event>
<event>
 4    1  0.6148427E-004  0.1887501E+03  0.7818608E-02  0.1159594E+00
         -2   -1    0    0    0  501 -0.00000000000E+00  0.00000000000E+00  0.36859911138E+02  0.36859911226E+02  0.25500000000E-02 0. -1.
          2   -1    0    0  501    0  0.00000000000E+00 -0.00000000000E+00 -0.24163502856E+03  0.24163502857E+03  0.25500000000E-02 0.  1.
    5000001    1    1    2    0    0  0.15513447529E+02 -0.24873304079E+02 -0.34479128763E+02  0.89314940689E+02  0.77000000000E+02 0.  0.
   -5000001    1    1    2    0    0 -0.15513447529E+02  0.24873304079E+02 -0.17029598866E+03  0.18917999911E+03  0.77000000000E+02 0.  0.
<mgrwt>
<rscale>  0 0.18875005E+03</rscale>
<asrwt>0</asrwt>
<pdfrwt beam="1">  1        2 0.37174619E-01 0.18875005E+03</pdfrwt>
<pdfrwt beam="2">  1       -2 0.56707557E-02 0.18875005E+03</pdfrwt>
<totfact> 0.21455711E+04</totfact>
</mgrwt>
</event>
<event>
 4    1  0.6148427E-004  0.2172766E+03  0.7818608E-02  0.1135930E+00
         -2   -1    0    0    0  501 -0.00000000000E+00  0.00000000000E+00  0.71742480762E+01  0.71742485294E+01  0.25500000000E-02 0. -1.
          2   -1    0    0  501    0  0.00000000000E+00 -0.00000000000E+00 -0.16450896634E+04  0.16450896634E+04  0.25500000000E-02 0.  1.
    5000001    1    1    2    0    0  0.65110376484E+02  0.19399543757E+02 -0.10886285248E+04  0.10934609131E+04  0.77000000000E+02 0.  0.
   -5000001    1    1    2    0    0 -0.65110376484E+02 -0.19399543757E+02 -0.54928689046E+03  0.55880299878E+03  0.77000000000E+02 0.  0.
<mgrwt>
<rscale>  0 0.21727661E+03</rscale>
<asrwt>0</asrwt>
<pdfrwt beam="1">  1        2 0.25309042E+00 0.21727661E+03</pdfrwt>
<pdfrwt beam="2">  1       -2 0.11037318E-02 0.21727661E+03</pdfrwt>
<totfact> 0.20884375E+04</totfact>
</mgrwt>
</event>
<event>
 4    1  0.6148427E-004  0.3727353E+03  0.7818608E-02  0.1053652E+00
          2   -1    0    0  501    0  0.00000000000E+00  0.00000000000E+00  0.10687359548E+04  0.10687359548E+04  0.25500000000E-02 0.  1.
         -2   -1    0    0    0  501 -0.00000000000E+00 -0.00000000000E+00 -0.32499052345E+02  0.32499052445E+02  0.25500000000E-02 0. -1.
    5000001    1    1    2    0    0  0.13533123444E+03  0.17810230584E+02  0.81609769420E+03  0.83100914183E+03  0.77000000000E+02 0.  0.
   -5000001    1    1    2    0    0 -0.13533123444E+03 -0.17810230584E+02  0.22013920823E+03  0.27022586539E+03  0.77000000000E+02 0.  0.
<mgrwt>
<rscale>  0 0.37273533E+03</rscale>
<asrwt>0</asrwt>
<pdfrwt beam="1">  1        2 0.16442090E+00 0.37273533E+03</pdfrwt>
<pdfrwt beam="2">  1       -2 0.49998548E-02 0.37273533E+03</pdfrwt>
<totfact> 0.46892656E+03</totfact>
</mgrwt>
</event>
<event>
 4    1  0.6148427E-004  0.2248916E+03  0.7818608E-02  0.1130288E+00
         -2   -1    0    0    0  501 -0.00000000000E+00  0.00000000000E+00  0.75214999923E+01  0.75215004245E+01  0.25500000000E-02 0. -1.
          2   -1    0    0  501    0  0.00000000000E+00 -0.00000000000E+00 -0.16810557568E+04  0.16810557568E+04  0.25500000000E-02 0.  1.
    5000001    1    1    2    0    0 -0.22114121097E+02 -0.77090154535E+02 -0.71042610629E+03  0.71907313869E+03  0.77000000000E+02 0.  0.
   -5000001    1    1    2    0    0  0.22114121097E+02  0.77090154535E+02 -0.96310815053E+03  0.96950411856E+03  0.77000000000E+02 0.  0.
<mgrwt>
<rscale>  0 0.22489163E+03</rscale>
<asrwt>0</asrwt>
<pdfrwt beam="1">  1        2 0.25862366E+00 0.22489163E+03</pdfrwt>
<pdfrwt beam="2">  1       -2 0.11571552E-02 0.22489163E+03</pdfrwt>
<totfact> 0.18700630E+04</totfact>
</mgrwt>
</event>
<event>
 4    1  0.6148427E-004  0.2310127E+03  0.7818608E-02  0.1125929E+00
          2   -1    0    0  501    0  0.00000000000E+00  0.00000000000E+00  0.15522848040E+04  0.15522848040E+04  0.25500000000E-02 0.  1.
         -2   -1    0    0    0  501 -0.00000000000E+00 -0.00000000000E+00 -0.85948887745E+01  0.85948891527E+01  0.25500000000E-02 0. -1.
    5000001    1    1    2    0    0  0.32277875393E+02  0.48696570727E+02  0.34454155169E+03  0.35784228102E+03  0.77000000000E+02 0.  0.
   -5000001    1    1    2    0    0 -0.32277875393E+02 -0.48696570727E+02  0.11991483635E+04  0.12030374122E+04  0.77000000000E+02 0.  0.
<mgrwt>
<rscale>  0 0.23101269E+03</rscale>
<asrwt>0</asrwt>
<pdfrwt beam="1">  1        2 0.23881333E+00 0.23101269E+03</pdfrwt>
<pdfrwt beam="2">  1       -2 0.13222890E-02 0.23101269E+03</pdfrwt>
<totfact> 0.18027110E+04</totfact>
</mgrwt>
</event>
<event>
 4    1  0.6148427E-004  0.2319325E+03  0.7818608E-02  0.1125287E+00
         -2   -1    0    0    0  501 -0.00000000000E+00  0.00000000000E+00  0.95612166303E+01  0.95612169703E+01  0.25500000000E-02 0. -1.
          2   -1    0    0  501    0  0.00000000000E+00 -0.00000000000E+00 -0.14065340236E+04  0.14065340236E+04  0.25500000000E-02 0.  1.
    5000001    1    1    2    0    0 -0.56429852737E+02 -0.65401802201E+02 -0.74476563042E+03  0.75370190942E+03  0.77000000000E+02 0.  0.
   -5000001    1    1    2    0    0  0.56429852737E+02  0.65401802201E+02 -0.65220717659E+03  0.66239333119E+03  0.77000000000E+02 0.  0.
<mgrwt>
<rscale>  0 0.23193255E+03</rscale>
<asrwt>0</asrwt>
<pdfrwt beam="1">  1        2 0.21638969E+00 0.23193255E+03</pdfrwt>
<pdfrwt beam="2">  1       -2 0.14709575E-02 0.23193255E+03</pdfrwt>
<totfact> 0.18469265E+04</totfact>
</mgrwt>
</event>
<event>
 4    1  0.6148427E-004  0.3004124E+03  0.7818608E-02  0.1085035E+00
          2   -1    0    0  501    0  0.00000000000E+00  0.00000000000E+00  0.17217858854E+04  0.17217858854E+04  0.25500000000E-02 0. -1.
         -2   -1    0    0    0  501 -0.00000000000E+00 -0.00000000000E+00 -0.13103780670E+02  0.13103780918E+02  0.25500000000E-02 0.  1.
    5000001    1    1    2    0    0  0.90980629974E+02  0.65222436986E+02  0.12241891667E+04  0.12317059541E+04  0.77000000000E+02 0.  0.
   -5000001    1    1    2    0    0 -0.90980629974E+02 -0.65222436986E+02  0.48449293804E+03  0.50318371230E+03  0.77000000000E+02 0.  0.
<mgrwt>
<rscale>  0 0.30041242E+03</rscale>
<asrwt>0</asrwt>
<pdfrwt beam="1">  1        2 0.26489010E+00 0.30041242E+03</pdfrwt>
<pdfrwt beam="2">  1       -2 0.20159665E-02 0.30041242E+03</pdfrwt>
<totfact> 0.79599954E+03</totfact>
</mgrwt>
</event>
<event>
 4    1  0.6148427E-004  0.5028782E+03  0.7818608E-02  0.1013030E+00
          2   -1    0    0  501    0  0.00000000000E+00  0.00000000000E+00  0.50700821281E+02  0.50700821345E+02  0.25500000000E-02 0.  1.
         -2   -1    0    0    0  501 -0.00000000000E+00 -0.00000000000E+00 -0.12469543455E+04  0.12469543455E+04  0.25500000000E-02 0. -1.
    5000001    1    1    2    0    0 -0.15747249775E+03  0.15312011835E+03 -0.84359926712E+03  0.87511832438E+03  0.77000000000E+02 0.  0.
   -5000001    1    1    2    0    0  0.15747249775E+03 -0.15312011835E+03 -0.35265425710E+03  0.42253684247E+03  0.77000000000E+02 0.  0.
<mgrwt>
<rscale>  0 0.50287815E+03</rscale>
<asrwt>0</asrwt>
<pdfrwt beam="1">  1        2 0.78001273E-02 0.50287815E+03</pdfrwt>
<pdfrwt beam="2">  1       -2 0.19183911E+00 0.50287815E+03</pdfrwt>
<totfact> 0.14165541E+02</totfact>
</mgrwt>
</event>
<event>
 4    1  0.6148427E-004  0.1767083E+03  0.7818608E-02  0.1171027E+00
          2   -1    0    0  501    0  0.00000000000E+00  0.00000000000E+00  0.32038802903E+04  0.32038802903E+04  0.25500000000E-02 0.  1.
         -2   -1    0    0    0  501 -0.00000000000E+00 -0.00000000000E+00 -0.24365629924E+01  0.24365643268E+01  0.25500000000E-02 0. -1.
    5000001    1    1    2    0    0  0.19766406616E+02  0.38194226521E+02  0.15047975250E+04  0.15073798794E+04  0.77000000000E+02 0.  0.
   -5000001    1    1    2    0    0 -0.19766406616E+02 -0.38194226521E+02  0.16966462023E+04  0.16989369752E+04  0.77000000000E+02 0.  0.
<mgrwt>
<rscale>  0 0.17670833E+03</rscale>
<asrwt>0</asrwt>
<pdfrwt beam="1">  1        2 0.49290373E+00 0.17670833E+03</pdfrwt>
<pdfrwt beam="2">  1       -2 0.37485665E-03 0.17670833E+03</pdfrwt>
<totfact> 0.13737918E+04</totfact>
</mgrwt>
</event>
<event>
 4    1  0.6148427E-004  0.3094024E+03  0.7818608E-02  0.1080633E+00
          2   -1    0    0  501    0  0.00000000000E+00  0.00000000000E+00  0.80060253706E+03  0.80060253706E+03  0.25500000000E-02 0.  1.
         -2   -1    0    0    0  501 -0.00000000000E+00 -0.00000000000E+00 -0.29893057840E+02  0.29893057949E+02  0.25500000000E-02 0. -1.
    5000001    1    1    2    0    0  0.11988467887E+03  0.42059807762E+02  0.50118299758E+03  0.52273775521E+03  0.77000000000E+02 0.  0.
   -5000001    1    1    2    0    0 -0.11988467887E+03 -0.42059807762E+02  0.26952648164E+03  0.30775783980E+03  0.77000000000E+02 0.  0.
<mgrwt>
<rscale>  0 0.30940238E+03</rscale>
<asrwt>0</asrwt>
<pdfrwt beam="1">  1        2 0.12316963E+00 0.30940238E+03</pdfrwt>
<pdfrwt beam="2">  1       -2 0.45989318E-02 0.30940238E+03</pdfrwt>
<totfact> 0.78933700E+03</totfact>
</mgrwt>
</event>
<event>
 4    1  0.6148427E-004  0.2062778E+03  0.7818608E-02  0.1144548E+00
         -2   -1    0    0    0  501 -0.00000000000E+00  0.00000000000E+00  0.69965708453E+01  0.69965713100E+01  0.25500000000E-02 0. -1.
          2   -1    0    0  501    0  0.00000000000E+00 -0.00000000000E+00 -0.15204067397E+04  0.15204067397E+04  0.25500000000E-02 0.  1.
    5000001    1    1    2    0    0  0.65883402664E+02  0.70429025245E+01 -0.62457746518E+03  0.63278450932E+03  0.77000000000E+02 0.  0.
   -5000001    1    1    2    0    0 -0.65883402664E+02 -0.70429025245E+01 -0.88883270371E+03  0.89461880173E+03  0.77000000000E+02 0.  0.
<mgrwt>
<rscale>  0 0.20627781E+03</rscale>
<asrwt>0</asrwt>
<pdfrwt beam="1">  1        2 0.23390847E+00 0.20627781E+03</pdfrwt>
<pdfrwt beam="2">  1       -2 0.10763968E-02 0.20627781E+03</pdfrwt>
<totfact> 0.25124227E+04</totfact>
</mgrwt>
</event>
<event>
 4    1  0.6148427E-004  0.2486866E+03  0.7818608E-02  0.1114138E+00
          2   -1    0    0  501    0  0.00000000000E+00  0.00000000000E+00  0.12475808466E+03  0.12475808469E+03  0.25500000000E-02 0.  1.
         -2   -1    0    0    0  501 -0.00000000000E+00 -0.00000000000E+00 -0.12392986763E+03  0.12392986765E+03  0.25500000000E-02 0. -1.
    5000001    1    1    2    0    0  0.33791280473E+02 -0.91072509539E+02 -0.93941207622E+01  0.12431131137E+03  0.77000000000E+02 0.  0.
   -5000001    1    1    2    0    0 -0.33791280473E+02  0.91072509539E+02  0.10222337798E+02  0.12437664097E+03  0.77000000000E+02 0.  0.
<mgrwt>
<rscale>  0 0.24868657E+03</rscale>
<asrwt>0</asrwt>
<pdfrwt beam="1">  1        2 0.19193551E-01 0.24868657E+03</pdfrwt>
<pdfrwt beam="2">  1       -2 0.19066134E-01 0.24868657E+03</pdfrwt>
<totfact> 0.65562113E+03</totfact>
</mgrwt>
</event>
<event>
 4    1  0.6148427E-004  0.2816583E+03  0.7818608E-02  0.1094787E+00
         -2   -1    0    0    0  501 -0.00000000000E+00  0.00000000000E+00  0.39133595959E+02  0.39133596042E+02  0.25500000000E-02 0. -1.
          2   -1    0    0  501    0  0.00000000000E+00 -0.00000000000E+00 -0.50679872332E+03  0.50679872333E+03  0.25500000000E-02 0.  1.
    5000001    1    1    2    0    0  0.15596461485E+02 -0.11575345373E+03 -0.26519106032E+03  0.29982896814E+03  0.77000000000E+02 0.  0.
   -5000001    1    1    2    0    0 -0.15596461485E+02  0.11575345373E+03 -0.20247406705E+03  0.24610335123E+03  0.77000000000E+02 0.  0.
<mgrwt>
<rscale>  0 0.28165835E+03</rscale>
<asrwt>0</asrwt>
<pdfrwt beam="1">  1        2 0.77969030E-01 0.28165835E+03</pdfrwt>
<pdfrwt beam="2">  1       -2 0.60205536E-02 0.28165835E+03</pdfrwt>
<totfact> 0.89860933E+03</totfact>
</mgrwt>
</event>
<event>
 4    1  0.6148427E-004  0.2508335E+03  0.7818608E-02  0.1112779E+00
         -2   -1    0    0    0  501 -0.00000000000E+00  0.00000000000E+00  0.39741023317E+03  0.39741023318E+03  0.25500000000E-02 0. -1.
          2   -1    0    0  501    0  0.00000000000E+00 -0.00000000000E+00 -0.39579656618E+02  0.39579656700E+02  0.25500000000E-02 0.  1.
    5000001    1    1    2    0    0  0.95420398538E+02  0.17517448759E+02  0.21325145512E+03  0.24661122558E+03  0.77000000000E+02 0.  0.
   -5000001    1    1    2    0    0 -0.95420398538E+02 -0.17517448759E+02  0.14457912143E+03  0.19037866430E+03  0.77000000000E+02 0.  0.
<mgrwt>
<rscale>  0 0.25083350E+03</rscale>
<asrwt>0</asrwt>
<pdfrwt beam="1">  1        2 0.60891779E-02 0.25083350E+03</pdfrwt>
<pdfrwt beam="2">  1       -2 0.61140036E-01 0.25083350E+03</pdfrwt>
<totfact> 0.30566062E+03</totfact>
</mgrwt>
</event>
<event>
 4    1  0.6148427E-004  0.2105165E+03  0.7818608E-02  0.1141158E+00
          2   -1    0    0  501    0  0.00000000000E+00  0.00000000000E+00  0.96876822120E+03  0.96876822121E+03  0.25500000000E-02 0.  1.
         -2   -1    0    0    0  501 -0.00000000000E+00 -0.00000000000E+00 -0.11436481858E+02  0.11436482142E+02  0.25500000000E-02 0. -1.
    5000001    1    1    2    0    0  0.62118705991E+02 -0.10153271517E+02  0.63918476063E+03  0.64687555277E+03  0.77000000000E+02 0.  0.
   -5000001    1    1    2    0    0 -0.62118705991E+02  0.10153271517E+02  0.31814697872E+03  0.33332915058E+03  0.77000000000E+02 0.  0.
<mgrwt>
<rscale>  0 0.21051651E+03</rscale>
<asrwt>0</asrwt>
<pdfrwt beam="1">  1        2 0.14904126E+00 0.21051651E+03</pdfrwt>
<pdfrwt beam="2">  1       -2 0.17594588E-02 0.21051651E+03</pdfrwt>
<totfact> 0.25144464E+04</totfact>
</mgrwt>
</event>
<event>
 4    1  0.6148427E-004  0.4139787E+03  0.7818608E-02  0.1039044E+00
         -2   -1    0    0    0  501 -0.00000000000E+00  0.00000000000E+00  0.63560392638E+02  0.63560392690E+02  0.25500000000E-02 0. -1.
          2   -1    0    0  501    0  0.00000000000E+00 -0.00000000000E+00 -0.67407685957E+03  0.67407685958E+03  0.25500000000E-02 0.  1.
    5000001    1    1    2    0    0  0.18239380846E+03 -0.52683865435E+02 -0.25262654768E+03  0.32525722687E+03  0.77000000000E+02 0.  0.
   -5000001    1    1    2    0    0 -0.18239380846E+03  0.52683865435E+02 -0.35788991925E+03  0.41238002539E+03  0.77000000000E+02 0.  0.
<mgrwt>
<rscale>  0 0.41397869E+03</rscale>
<asrwt>0</asrwt>
<pdfrwt beam="1">  1        2 0.10370413E+00 0.41397869E+03</pdfrwt>
<pdfrwt beam="2">  1       -2 0.97785224E-02 0.41397869E+03</pdfrwt>
<totfact> 0.30373743E+03</totfact>
</mgrwt>
</event>
<event>
 4    1  0.6148427E-004  0.3015092E+03  0.7818608E-02  0.1084489E+00
          2   -1    0    0  501    0  0.00000000000E+00  0.00000000000E+00  0.18996790082E+04  0.18996790082E+04  0.25500000000E-02 0.  1.
         -2   -1    0    0    0  501 -0.00000000000E+00 -0.00000000000E+00 -0.11963572361E+02  0.11963572632E+02  0.25500000000E-02 0. -1.
    5000001    1    1    2    0    0 -0.23318211793E+02 -0.10023068940E+03  0.14434119118E+04  0.14491227958E+04  0.77000000000E+02 0.  0.
   -5000001    1    1    2    0    0  0.23318211793E+02  0.10023068940E+03  0.44430352402E+03  0.46251978505E+03  0.77000000000E+02 0.  0.
<mgrwt>
<rscale>  0 0.30150919E+03</rscale>
<asrwt>0</asrwt>
<pdfrwt beam="1">  1        2 0.29225810E+00 0.30150919E+03</pdfrwt>
<pdfrwt beam="2">  1       -2 0.18405509E-02 0.30150919E+03</pdfrwt>
<totfact> 0.73358322E+03</totfact>
</mgrwt>
</event>
<event>
 4    1  0.6148427E-004  0.2234535E+03  0.7818608E-02  0.1131334E+00
         -2   -1    0    0    0  501 -0.00000000000E+00  0.00000000000E+00  0.18175441326E+02  0.18175441505E+02  0.25500000000E-02 0. -1.
          2   -1    0    0  501    0  0.00000000000E+00 -0.00000000000E+00 -0.68679844535E+03  0.68679844535E+03  0.25500000000E-02 0.  1.
    5000001    1    1    2    0    0  0.75359301269E+02 -0.10702555418E+02 -0.24731991927E+03  0.26998094645E+03  0.77000000000E+02 0.  0.
   -5000001    1    1    2    0    0 -0.75359301269E+02  0.10702555418E+02 -0.42130308475E+03  0.43499294041E+03  0.77000000000E+02 0.  0.
<mgrwt>
<rscale>  0 0.22345348E+03</rscale>
<asrwt>0</asrwt>
<pdfrwt beam="1">  1        2 0.10566128E+00 0.22345348E+03</pdfrwt>
<pdfrwt beam="2">  1       -2 0.27962223E-02 0.22345348E+03</pdfrwt>
<totfact> 0.19835074E+04</totfact>
</mgrwt>
</event>
<event>
 4    1  0.6148427E-004  0.1913360E+03  0.7818608E-02  0.1157262E+00
         -2   -1    0    0    0  501 -0.00000000000E+00  0.00000000000E+00  0.13431512784E+02  0.13431513026E+02  0.25500000000E-02 0. -1.
          2   -1    0    0  501    0  0.00000000000E+00 -0.00000000000E+00 -0.68141024256E+03  0.68141024257E+03  0.25500000000E-02 0.  1.
    5000001    1    1    2    0    0 -0.42513772232E+02 -0.37549887531E+02 -0.34285176576E+03  0.35594065259E+03  0.77000000000E+02 0.  0.
   -5000001    1    1    2    0    0  0.42513772232E+02  0.37549887531E+02 -0.32512696402E+03  0.33890110300E+03  0.77000000000E+02 0.  0.
<mgrwt>
<rscale>  0 0.19133604E+03</rscale>
<asrwt>0</asrwt>
<pdfrwt beam="1">  1        2 0.10483232E+00 0.19133604E+03</pdfrwt>
<pdfrwt beam="2">  1       -2 0.20663871E-02 0.19133604E+03</pdfrwt>
<totfact> 0.30914991E+04</totfact>
</mgrwt>
</event>
<event>
 4    1  0.6148427E-004  0.3240291E+03  0.7818608E-02  0.1073810E+00
         -2   -1    0    0    0  501 -0.00000000000E+00  0.00000000000E+00  0.12707654396E+03  0.12707654399E+03  0.25500000000E-02 0. -1.
          2   -1    0    0  501    0  0.00000000000E+00 -0.00000000000E+00 -0.20655828230E+03  0.20655828232E+03  0.25500000000E-02 0.  1.
    5000001    1    1    2    0    0 -0.35966530138E+02 -0.72334726440E+02  0.81187856810E+02  0.13800859405E+03  0.77000000000E+02 0.  0.
   -5000001    1    1    2    0    0  0.35966530138E+02  0.72334726440E+02 -0.16066959515E+03  0.19562623225E+03  0.77000000000E+02 0.  0.
<mgrwt>
<rscale>  0 0.32402909E+03</rscale>
<asrwt>0</asrwt>
<pdfrwt beam="1">  1        2 0.31778197E-01 0.32402909E+03</pdfrwt>
<pdfrwt beam="2">  1       -2 0.19550238E-01 0.32402909E+03</pdfrwt>
<totfact> 0.36006091E+03</totfact>
</mgrwt>
</event>
<event>
 4    1  0.6148427E-004  0.2304532E+03  0.7818608E-02  0.1126321E+00
          2   -1    0    0  501    0  0.00000000000E+00  0.00000000000E+00  0.91629494051E+02  0.91629494086E+02  0.25500000000E-02 0.  1.
         -2   -1    0    0    0  501 -0.00000000000E+00 -0.00000000000E+00 -0.14490057169E+03  0.14490057172E+03  0.25500000000E-02 0. -1.
    5000001    1    1    2    0    0  0.70378477872E+02  0.43444578605E+02 -0.35113554870E+01  0.11305702621E+03  0.77000000000E+02 0.  0.
   -5000001    1    1    2    0    0 -0.70378477872E+02 -0.43444578605E+02 -0.49759722156E+02  0.12347303959E+03  0.77000000000E+02 0.  0.
<mgrwt>
<rscale>  0 0.23045317E+03</rscale>
<asrwt>0</asrwt>
<pdfrwt beam="1">  1        2 0.14096845E-01 0.23045317E+03</pdfrwt>
<pdfrwt beam="2">  1       -2 0.22292396E-01 0.23045317E+03</pdfrwt>
<totfact> 0.71703058E+03</totfact>
</mgrwt>
</event>
<event>
 4    1  0.6148427E-004  0.2435408E+03  0.7818608E-02  0.1117456E+00
          2   -1    0    0  501    0  0.00000000000E+00  0.00000000000E+00  0.42940038561E+03  0.42940038562E+03  0.25500000000E-02 0.  1.
         -2   -1    0    0    0  501 -0.00000000000E+00 -0.00000000000E+00 -0.34531949298E+02  0.34531949392E+02  0.25500000000E-02 0. -1.
    5000001    1    1    2    0    0  0.11925348391E+02  0.90659445834E+02  0.15326230959E+03  0.19436996835E+03  0.77000000000E+02 0.  0.
   -5000001    1    1    2    0    0 -0.11925348391E+02 -0.90659445834E+02  0.24160612672E+03  0.26956236666E+03  0.77000000000E+02 0.  0.
<mgrwt>
<rscale>  0 0.24354082E+03</rscale>
<asrwt>0</asrwt>
<pdfrwt beam="1">  1        2 0.66061601E-01 0.24354082E+03</pdfrwt>
<pdfrwt beam="2">  1       -2 0.53126073E-02 0.24354082E+03</pdfrwt>
<totfact> 0.12985239E+04</totfact>
</mgrwt>
</event>
<event>
 4    1  0.6148427E-004  0.2013848E+03  0.7818608E-02  0.1148576E+00
          2   -1    0    0  501    0  0.00000000000E+00  0.00000000000E+00  0.26184971943E+03  0.26184971944E+03  0.25500000000E-02 0.  1.
         -2   -1    0    0    0  501 -0.00000000000E+00 -0.00000000000E+00 -0.38720530281E+02  0.38720530365E+02  0.25500000000E-02 0. -1.
    5000001    1    1    2    0    0  0.59567680056E+02  0.16888397690E+02  0.14052225271E+03  0.17178192568E+03  0.77000000000E+02 0.  0.
   -5000001    1    1    2    0    0 -0.59567680056E+02 -0.16888397690E+02  0.82606936438E+02  0.12878832413E+03  0.77000000000E+02 0.  0.
<mgrwt>
<rscale>  0 0.20138481E+03</rscale>
<asrwt>0</asrwt>
<pdfrwt beam="1">  1        2 0.40284572E-01 0.20138481E+03</pdfrwt>
<pdfrwt beam="2">  1       -2 0.59570047E-02 0.20138481E+03</pdfrwt>
<totfact> 0.18349910E+04</totfact>
</mgrwt>
</event>
<event>
 4    1  0.6148427E-004  0.3083538E+03  0.7818608E-02  0.1081138E+00
         -2   -1    0    0    0  501 -0.00000000000E+00  0.00000000000E+00  0.18819466071E+02  0.18819466244E+02  0.25500000000E-02 0. -1.
          2   -1    0    0  501    0  0.00000000000E+00 -0.00000000000E+00 -0.12630816053E+04  0.12630816053E+04  0.25500000000E-02 0.  1.
    5000001    1    1    2    0    0 -0.36147354320E+02 -0.89649018293E+02 -0.10053633538E+04  0.10129304274E+04  0.77000000000E+02 0.  0.
   -5000001    1    1    2    0    0  0.36147354320E+02  0.89649018293E+02 -0.23889878548E+03  0.26897064414E+03  0.77000000000E+02 0.  0.
<mgrwt>
<rscale>  0 0.30835383E+03</rscale>
<asrwt>0</asrwt>
<pdfrwt beam="1">  1        2 0.19432018E+00 0.30835383E+03</pdfrwt>
<pdfrwt beam="2">  1       -2 0.28953035E-02 0.30835383E+03</pdfrwt>
<totfact> 0.82360244E+03</totfact>
</mgrwt>
</event>
<event>
 4    1  0.6148427E-004  0.1956206E+03  0.7818608E-02  0.1153487E+00
          2   -1    0    0  501    0  0.00000000000E+00  0.00000000000E+00  0.10406490834E+04  0.10406490834E+04  0.25500000000E-02 0.  1.
         -2   -1    0    0    0  501 -0.00000000000E+00 -0.00000000000E+00 -0.91931601301E+01  0.91931604837E+01  0.25500000000E-02 0. -1.
    5000001    1    1    2    0    0 -0.50746549302E+02  0.27213311697E+02  0.61204198024E+03  0.61954835338E+03  0.77000000000E+02 0.  0.
   -5000001    1    1    2    0    0  0.50746549302E+02 -0.27213311697E+02  0.41941394303E+03  0.43029389050E+03  0.77000000000E+02 0.  0.
<mgrwt>
<rscale>  0 0.19562059E+03</rscale>
<asrwt>0</asrwt>
<pdfrwt beam="1">  1        2 0.16009994E+00 0.19562059E+03</pdfrwt>
<pdfrwt beam="2">  1       -2 0.14143316E-02 0.19562059E+03</pdfrwt>
<totfact> 0.31106600E+04</totfact>
</mgrwt>
</event>
<event>
 4    1  0.6148427E-004  0.3769738E+03  0.7818608E-02  0.1052058E+00
         -2   -1    0    0    0  501 -0.00000000000E+00  0.00000000000E+00  0.50783376337E+02  0.50783376401E+02  0.25500000000E-02 0. -1.
          2   -1    0    0  501    0  0.00000000000E+00 -0.00000000000E+00 -0.69958527599E+03  0.69958527599E+03  0.25500000000E-02 0.  1.
    5000001    1    1    2    0    0 -0.12234002969E+02  0.16340500155E+03 -0.22006656892E+03  0.28497220937E+03  0.77000000000E+02 0.  0.
   -5000001    1    1    2    0    0  0.12234002969E+02 -0.16340500155E+03 -0.42873533073E+03  0.46539644302E+03  0.77000000000E+02 0.  0.
<mgrwt>
<rscale>  0 0.37697375E+03</rscale>
<asrwt>0</asrwt>
<pdfrwt beam="1">  1        2 0.10762850E+00 0.37697375E+03</pdfrwt>
<pdfrwt beam="2">  1       -2 0.78128276E-02 0.37697375E+03</pdfrwt>
<totfact> 0.41401177E+03</totfact>
</mgrwt>
</event>
<event>
 4    1  0.6148427E-004  0.2128892E+03  0.7818608E-02  0.1139298E+00
          2   -1    0    0  501    0  0.00000000000E+00  0.00000000000E+00  0.17084018038E+04  0.17084018038E+04  0.25500000000E-02 0.  1.
         -2   -1    0    0    0  501 -0.00000000000E+00 -0.00000000000E+00 -0.66321937805E+01  0.66321942707E+01  0.25500000000E-02 0. -1.
    5000001    1    1    2    0    0  0.23033763990E+02  0.68750467891E+02  0.75412191769E+03  0.76150249367E+03  0.77000000000E+02 0.  0.
   -5000001    1    1    2    0    0 -0.23033763990E+02 -0.68750467891E+02  0.94764769231E+03  0.95353150439E+03  0.77000000000E+02 0.  0.
<mgrwt>
<rscale>  0 0.21288919E+03</rscale>
<asrwt>0</asrwt>
<pdfrwt beam="1">  1        2 0.26283118E+00 0.21288919E+03</pdfrwt>
<pdfrwt beam="2">  1       -2 0.10203370E-02 0.21288919E+03</pdfrwt>
<totfact> 0.21661776E+04</totfact>
</mgrwt>
</event>
<event>
 4    1  0.6148427E-004  0.4083048E+03  0.7818608E-02  0.1040941E+00
          2   -1    0    0  501    0  0.00000000000E+00  0.00000000000E+00  0.31028939392E+03  0.31028939393E+03  0.25500000000E-02 0.  1.
         -2   -1    0    0    0  501 -0.00000000000E+00 -0.00000000000E+00 -0.13432040324E+03  0.13432040326E+03  0.25500000000E-02 0. -1.
    5000001    1    1    2    0    0  0.81543612827E+02 -0.16785131170E+03  0.12111643044E+03  0.23541795462E+03  0.77000000000E+02 0.  0.
   -5000001    1    1    2    0    0 -0.81543612827E+02  0.16785131170E+03  0.54852560241E+02  0.20919184257E+03  0.77000000000E+02 0.  0.
<mgrwt>
<rscale>  0 0.40830477E+03</rscale>
<asrwt>0</asrwt>
<pdfrwt beam="1">  1        2 0.47736829E-01 0.40830477E+03</pdfrwt>
<pdfrwt beam="2">  1       -2 0.20664678E-01 0.40830477E+03</pdfrwt>
<totfact> 0.21074101E+03</totfact>
</mgrwt>
</event>
<event>
 4    1  0.6148427E-004  0.2103088E+03  0.7818608E-02  0.1141322E+00
          2   -1    0    0  501    0  0.00000000000E+00  0.00000000000E+00  0.44812710371E+04  0.44812710371E+04  0.25500000000E-02 0.  1.
         -2   -1    0    0    0  501 -0.00000000000E+00 -0.00000000000E+00 -0.24674803679E+01  0.24674816855E+01  0.25500000000E-02 0. -1.
    5000001    1    1    2    0    0  0.13460487594E+02  0.70327770264E+02  0.22634399247E+04  0.22658809485E+04  0.77000000000E+02 0.  0.
   -5000001    1    1    2    0    0 -0.13460487594E+02 -0.70327770264E+02  0.22153636320E+04  0.22178575703E+04  0.77000000000E+02 0.  0.
<mgrwt>
<rscale>  0 0.21030883E+03</rscale>
<asrwt>0</asrwt>
<pdfrwt beam="1">  1        2 0.68942778E+00 0.21030883E+03</pdfrwt>
<pdfrwt beam="2">  1       -2 0.37961166E-03 0.21030883E+03</pdfrwt>
<totfact> 0.15503400E+03</totfact>
</mgrwt>
</event>
<event>
 4    1  0.6148427E-004  0.2544022E+03  0.7818608E-02  0.1110554E+00
          2   -1    0    0  501    0  0.00000000000E+00  0.00000000000E+00  0.90170539519E+02  0.90170539555E+02  0.25500000000E-02 0.  1.
         -2   -1    0    0    0  501 -0.00000000000E+00 -0.00000000000E+00 -0.17943909970E+03  0.17943909972E+03  0.25500000000E-02 0. -1.
    5000001    1    1    2    0    0 -0.56952102088E+02  0.59798073492E+02 -0.10671740413E+03  0.15536072821E+03  0.77000000000E+02 0.  0.
   -5000001    1    1    2    0    0  0.56952102088E+02 -0.59798073492E+02  0.17448843942E+02  0.11424891107E+03  0.77000000000E+02 0.  0.
<mgrwt>
<rscale>  0 0.25440220E+03</rscale>
<asrwt>0</asrwt>
<pdfrwt beam="1">  1        2 0.13872391E-01 0.25440220E+03</pdfrwt>
<pdfrwt beam="2">  1       -2 0.27606015E-01 0.25440220E+03</pdfrwt>
<totfact> 0.50394573E+03</totfact>
</mgrwt>
</event>
<event>
 4    1  0.6148427E-004  0.2121656E+03  0.7818608E-02  0.1139862E+00
         -2   -1    0    0    0  501 -0.00000000000E+00  0.00000000000E+00  0.57105881268E+02  0.57105881325E+02  0.25500000000E-02 0. -1.
          2   -1    0    0  501    0  0.00000000000E+00 -0.00000000000E+00 -0.19706486668E+03  0.19706486669E+03  0.25500000000E-02 0.  1.
    5000001    1    1    2    0    0  0.68186289622E+02 -0.22094570835E+02 -0.53596329699E+02  0.11806399413E+03  0.77000000000E+02 0.  0.
   -5000001    1    1    2    0    0 -0.68186289622E+02  0.22094570835E+02 -0.86362655709E+02  0.13610675389E+03  0.77000000000E+02 0.  0.
<mgrwt>
<rscale>  0 0.21216562E+03</rscale>
<asrwt>0</asrwt>
<pdfrwt beam="1">  1        2 0.30317672E-01 0.21216562E+03</pdfrwt>
<pdfrwt beam="2">  1       -2 0.87855203E-02 0.21216562E+03</pdfrwt>
<totfact> 0.13734887E+04</totfact>
</mgrwt>
</event>
<event>
 4    1  0.6148427E-004  0.1964937E+03  0.7818608E-02  0.1152731E+00
         -2   -1    0    0    0  501 -0.00000000000E+00  0.00000000000E+00  0.66215984983E+03  0.66215984983E+03  0.25500000000E-02 0. -1.
          2   -1    0    0  501    0  0.00000000000E+00 -0.00000000000E+00 -0.14577209344E+02  0.14577209567E+02  0.25500000000E-02 0.  1.
    5000001    1    1    2    0    0 -0.29447735650E+02  0.53201745563E+02  0.30628138686E+03  0.32161293942E+03  0.77000000000E+02 0.  0.
   -5000001    1    1    2    0    0  0.29447735650E+02 -0.53201745563E+02  0.34130125362E+03  0.35512411998E+03  0.77000000000E+02 0.  0.
<mgrwt>
<rscale>  0 0.19649369E+03</rscale>
<asrwt>0</asrwt>
<pdfrwt beam="1">  1        2 0.22426474E-02 0.19649369E+03</pdfrwt>
<pdfrwt beam="2">  1       -2 0.10187076E+00 0.19649369E+03</pdfrwt>
<totfact> 0.37523133E+03</totfact>
</mgrwt>
</event>
<event>
 4    1  0.6148427E-004  0.2092567E+03  0.7818608E-02  0.1142156E+00
         -2   -1    0    0    0  501 -0.00000000000E+00  0.00000000000E+00  0.15733253884E+02  0.15733254091E+02  0.25500000000E-02 0. -1.
          2   -1    0    0  501    0  0.00000000000E+00 -0.00000000000E+00 -0.69579317629E+03  0.69579317629E+03  0.25500000000E-02 0.  1.
    5000001    1    1    2    0    0 -0.62406049806E+02  0.69229154219E+01 -0.22851145013E+03  0.24917649297E+03  0.77000000000E+02 0.  0.
   -5000001    1    1    2    0    0  0.62406049806E+02 -0.69229154219E+01 -0.45154847227E+03  0.46234993741E+03  0.77000000000E+02 0.  0.
<mgrwt>
<rscale>  0 0.20925669E+03</rscale>
<asrwt>0</asrwt>
<pdfrwt beam="1">  1        2 0.10704508E+00 0.20925669E+03</pdfrwt>
<pdfrwt beam="2">  1       -2 0.24205012E-02 0.20925669E+03</pdfrwt>
<totfact> 0.24060798E+04</totfact>
</mgrwt>
</event>
<event>
 4    1  0.6148427E-004  0.8896583E+03  0.7818608E-02  0.9438602E-01
          2   -1    0    0  501    0  0.00000000000E+00  0.00000000000E+00  0.11294663664E+04  0.11294663664E+04  0.25500000000E-02 0.  1.
         -2   -1    0    0    0  501 -0.00000000000E+00 -0.00000000000E+00 -0.17519154783E+03  0.17519154785E+03  0.25500000000E-02 0. -1.
    5000001    1    1    2    0    0 -0.35383489974E+03  0.11836671907E+03  0.81389654301E+03  0.89864698251E+03  0.77000000000E+02 0.  0.
   -5000001    1    1    2    0    0  0.35383489974E+03 -0.11836671907E+03  0.14037827560E+03  0.40601093177E+03  0.77000000000E+02 0.  0.
<mgrwt>
<rscale>  0 0.88965827E+03</rscale>
<asrwt>0</asrwt>
<pdfrwt beam="1">  1        2 0.17376405E+00 0.88965827E+03</pdfrwt>
<pdfrwt beam="2">  1       -2 0.26952547E-01 0.88965827E+03</pdfrwt>
<totfact> 0.26167317E+02</totfact>
</mgrwt>
</event>
<event>
 4    1  0.6148427E-004  0.4947667E+03  0.7818608E-02  0.1015154E+00
          2   -1    0    0  501    0  0.00000000000E+00  0.00000000000E+00  0.36236227482E+03  0.36236227483E+03  0.25500000000E-02 0.  1.
         -2   -1    0    0    0  501 -0.00000000000E+00 -0.00000000000E+00 -0.16888770363E+03  0.16888770365E+03  0.25500000000E-02 0. -1.
    5000001    1    1    2    0    0  0.49392173102E+02  0.21367902623E+03  0.18766471906E+03  0.29873961872E+03  0.77000000000E+02 0.  0.
   -5000001    1    1    2    0    0 -0.49392173102E+02 -0.21367902623E+03  0.58098521303E+01  0.23251035976E+03  0.77000000000E+02 0.  0.
<mgrwt>
<rscale>  0 0.49476674E+03</rscale>
<asrwt>0</asrwt>
<pdfrwt beam="1">  1        2 0.55748042E-01 0.49476674E+03</pdfrwt>
<pdfrwt beam="2">  1       -2 0.25982724E-01 0.49476674E+03</pdfrwt>
<totfact> 0.11876032E+03</totfact>
</mgrwt>
</event>
<event>
 4    1  0.6148427E-004  0.1734085E+03  0.7818608E-02  0.1174339E+00
         -2   -1    0    0    0  501 -0.00000000000E+00  0.00000000000E+00  0.72554361452E+01  0.72554365933E+01  0.25500000000E-02 0. -1.
          2   -1    0    0  501    0  0.00000000000E+00 -0.00000000000E+00 -0.10361376572E+04  0.10361376572E+04  0.25500000000E-02 0.  1.
    5000001    1    1    2    0    0 -0.20856912771E+02  0.19604553115E+02 -0.68132719199E+03  0.68626167885E+03  0.77000000000E+02 0.  0.
   -5000001    1    1    2    0    0  0.20856912771E+02 -0.19604553115E+02 -0.34755502906E+03  0.35713141494E+03  0.77000000000E+02 0.  0.
<mgrwt>
<rscale>  0 0.17340854E+03</rscale>
<asrwt>0</asrwt>
<pdfrwt beam="1">  1        2 0.15940568E+00 0.17340854E+03</pdfrwt>
<pdfrwt beam="2">  1       -2 0.11162218E-02 0.17340854E+03</pdfrwt>
<totfact> 0.43672918E+04</totfact>
</mgrwt>
</event>
<event>
 4    1  0.6148427E-004  0.1888209E+03  0.7818608E-02  0.1159529E+00
          2   -1    0    0  501    0  0.00000000000E+00  0.00000000000E+00  0.17053223017E+02  0.17053223207E+02  0.25500000000E-02 0.  1.
         -2   -1    0    0    0  501 -0.00000000000E+00 -0.00000000000E+00 -0.52267709964E+03  0.52267709965E+03  0.25500000000E-02 0. -1.
    5000001    1    1    2    0    0  0.38972751826E+02  0.35542293931E+02 -0.29345781718E+03  0.30794256040E+03  0.77000000000E+02 0.  0.
   -5000001    1    1    2    0    0 -0.38972751826E+02 -0.35542293931E+02 -0.21216605945E+03  0.23178776245E+03  0.77000000000E+02 0.  0.
<mgrwt>
<rscale>  0 0.18882086E+03</rscale>
<asrwt>0</asrwt>
<pdfrwt beam="1">  1        2 0.26235732E-02 0.18882086E+03</pdfrwt>
<pdfrwt beam="2">  1       -2 0.80411849E-01 0.18882086E+03</pdfrwt>
<totfact> 0.51543508E+03</totfact>
</mgrwt>
</event>
<event>
 4    1  0.6148427E-004  0.7700581E+03  0.7818608E-02  0.9604397E-01
          2   -1    0    0  501    0  0.00000000000E+00  0.00000000000E+00  0.12669600439E+04  0.12669600439E+04  0.25500000000E-02 0.  1.
         -2   -1    0    0    0  501 -0.00000000000E+00 -0.00000000000E+00 -0.11701030432E+03  0.11701030435E+03  0.25500000000E-02 0. -1.
    5000001    1    1    2    0    0  0.23615670048E+03  0.18041921375E+03  0.15734716637E+03  0.34497566673E+03  0.77000000000E+02 0.  0.
   -5000001    1    1    2    0    0 -0.23615670048E+03 -0.18041921375E+03  0.99260257325E+03  0.10389946816E+04  0.77000000000E+02 0.  0.
<mgrwt>
<rscale>  0 0.77005813E+03</rscale>
<asrwt>0</asrwt>
<pdfrwt beam="1">  1        2 0.19491693E+00 0.77005813E+03</pdfrwt>
<pdfrwt beam="2">  1       -2 0.18001585E-01 0.77005813E+03</pdfrwt>
<totfact> 0.44666140E+02</totfact>
</mgrwt>
</event>
<event>
 4    1  0.6148427E-004  0.2190327E+03  0.7818608E-02  0.1134606E+00
          2   -1    0    0  501    0  0.00000000000E+00  0.00000000000E+00  0.15030657508E+04  0.15030657508E+04  0.25500000000E-02 0.  1.
         -2   -1    0    0    0  501 -0.00000000000E+00 -0.00000000000E+00 -0.79795775877E+01  0.79795779952E+01  0.25500000000E-02 0. -1.
    5000001    1    1    2    0    0  0.59801849268E+02 -0.13892486378E+02  0.10780751592E+04  0.10825637677E+04  0.77000000000E+02 0.  0.
   -5000001    1    1    2    0    0 -0.59801849268E+02  0.13892486378E+02  0.41701101404E+03  0.42848156108E+03  0.77000000000E+02 0.  0.
<mgrwt>
<rscale>  0 0.21903269E+03</rscale>
<asrwt>0</asrwt>
<pdfrwt beam="1">  1        2 0.23124090E+00 0.21903269E+03</pdfrwt>
<pdfrwt beam="2">  1       -2 0.12276273E-02 0.21903269E+03</pdfrwt>
<totfact> 0.21275481E+04</totfact>
</mgrwt>
</event>
<event>
 4    1  0.6148427E-004  0.2529667E+03  0.7818608E-02  0.1111444E+00
          2   -1    0    0  501    0  0.00000000000E+00  0.00000000000E+00  0.99506090861E+03  0.99506090861E+03  0.25500000000E-02 0.  1.
         -2   -1    0    0    0  501 -0.00000000000E+00 -0.00000000000E+00 -0.16077443861E+02  0.16077444063E+02  0.25500000000E-02 0. -1.
    5000001    1    1    2    0    0 -0.53083805973E+02 -0.84848256914E+02  0.46069058743E+03  0.47768392741E+03  0.77000000000E+02 0.  0.
   -5000001    1    1    2    0    0  0.53083805973E+02  0.84848256914E+02  0.51829287731E+03  0.53345442526E+03  0.77000000000E+02 0.  0.
<mgrwt>
<rscale>  0 0.25296669E+03</rscale>
<asrwt>0</asrwt>
<pdfrwt beam="1">  1        2 0.15308628E+00 0.25296669E+03</pdfrwt>
<pdfrwt beam="2">  1       -2 0.24734531E-02 0.25296669E+03</pdfrwt>
<totfact> 0.14830621E+04</totfact>
</mgrwt>
</event>
<event>
 4    1  0.6148427E-004  0.1792387E+03  0.7818608E-02  0.1168542E+00
         -2   -1    0    0    0  501 -0.00000000000E+00  0.00000000000E+00  0.91320417539E+02  0.91320417574E+02  0.25500000000E-02 0. -1.
          2   -1    0    0  501    0  0.00000000000E+00 -0.00000000000E+00 -0.87949927047E+02  0.87949927084E+02  0.25500000000E-02 0.  1.
    5000001    1    1    2    0    0 -0.34968421880E+02  0.27431189211E+02 -0.96022891803E+01  0.89422953585E+02  0.77000000000E+02 0.  0.
   -5000001    1    1    2    0    0  0.34968421880E+02 -0.27431189211E+02  0.12972779672E+02  0.89847391074E+02  0.77000000000E+02 0.  0.
<mgrwt>
<rscale>  0 0.17923866E+03</rscale>
<asrwt>0</asrwt>
<pdfrwt beam="1">  1        2 0.13530758E-01 0.17923866E+03</pdfrwt>
<pdfrwt beam="2">  1       -2 0.14049295E-01 0.17923866E+03</pdfrwt>
<totfact> 0.16068884E+04</totfact>
</mgrwt>
</event>
<event>
 4    1  0.6148427E-004  0.4879859E+03  0.7818608E-02  0.1016963E+00
          2   -1    0    0  501    0  0.00000000000E+00  0.00000000000E+00  0.16510957158E+04  0.16510957158E+04  0.25500000000E-02 0.  1.
         -2   -1    0    0    0  501 -0.00000000000E+00 -0.00000000000E+00 -0.36056389535E+02  0.36056389626E+02  0.25500000000E-02 0. -1.
    5000001    1    1    2    0    0  0.13866667048E+03  0.18540319450E+03  0.80450493235E+03  0.84069017849E+03  0.77000000000E+02 0.  0.
   -5000001    1    1    2    0    0 -0.13866667048E+03 -0.18540319450E+03  0.81053439391E+03  0.84646192693E+03  0.77000000000E+02 0.  0.
<mgrwt>
<rscale>  0 0.48798586E+03</rscale>
<asrwt>0</asrwt>
<pdfrwt beam="1">  1        2 0.25401470E+00 0.48798586E+03</pdfrwt>
<pdfrwt beam="2">  1       -2 0.55471374E-02 0.48798586E+03</pdfrwt>
<totfact> 0.18778279E+03</totfact>
</mgrwt>
</event>
<event>
 4    1  0.6148427E-004  0.2470143E+03  0.7818608E-02  0.1115206E+00
         -2   -1    0    0    0  501 -0.00000000000E+00  0.00000000000E+00  0.40776250378E+03  0.40776250379E+03  0.25500000000E-02 0. -1.
          2   -1    0    0  501    0  0.00000000000E+00 -0.00000000000E+00 -0.37409058703E+02  0.37409058790E+02  0.25500000000E-02 0.  1.
    5000001    1    1    2    0    0  0.86003969503E+02 -0.32575191635E+02  0.23824822811E+03  0.26673778150E+03  0.77000000000E+02 0.  0.
   -5000001    1    1    2    0    0 -0.86003969503E+02  0.32575191635E+02  0.13210521696E+03  0.17843378107E+03  0.77000000000E+02 0.  0.
<mgrwt>
<rscale>  0 0.24701426E+03</rscale>
<asrwt>0</asrwt>
<pdfrwt beam="1">  1        2 0.57552401E-02 0.24701426E+03</pdfrwt>
<pdfrwt beam="2">  1       -2 0.62732689E-01 0.24701426E+03</pdfrwt>
<totfact> 0.31163909E+03</totfact>
</mgrwt>
</event>
<event>
 4    1  0.6148427E-004  0.1836145E+03  0.7818608E-02  0.1164350E+00
         -2   -1    0    0    0  501 -0.00000000000E+00  0.00000000000E+00  0.42883992597E+02  0.42883992673E+02  0.25500000000E-02 0. -1.
          2   -1    0    0  501    0  0.00000000000E+00 -0.00000000000E+00 -0.19654346713E+03  0.19654346715E+03  0.25500000000E-02 0.  1.
    5000001    1    1    2    0    0  0.42759511314E+02  0.11297211192E+02 -0.10723110455E+03  0.13922468377E+03  0.77000000000E+02 0.  0.
   -5000001    1    1    2    0    0 -0.42759511314E+02 -0.11297211192E+02 -0.46428369987E+02  0.10020277605E+03  0.77000000000E+02 0.  0.
<mgrwt>
<rscale>  0 0.18361447E+03</rscale>
<asrwt>0</asrwt>
<pdfrwt beam="1">  1        2 0.30237456E-01 0.18361447E+03</pdfrwt>
<pdfrwt beam="2">  1       -2 0.65975375E-02 0.18361447E+03</pdfrwt>
<totfact> 0.21243062E+04</totfact>
</mgrwt>
</event>
<event>
 4    1  0.6148427E-004  0.4267965E+03  0.7818608E-02  0.1034877E+00
          2   -1    0    0  501    0  0.00000000000E+00  0.00000000000E+00  0.15921387657E+04  0.15921387657E+04  0.25500000000E-02 0.  1.
         -2   -1    0    0    0  501 -0.00000000000E+00 -0.00000000000E+00 -0.28602292552E+02  0.28602292665E+02  0.25500000000E-02 0. -1.
    5000001    1    1    2    0    0  0.10130804071E+03 -0.12429673934E+03  0.12294304924E+04  0.12422323995E+04  0.77000000000E+02 0.  0.
   -5000001    1    1    2    0    0 -0.10130804071E+03  0.12429673934E+03  0.33410598068E+03  0.37850865888E+03  0.77000000000E+02 0.  0.
<mgrwt>
<rscale>  0 0.42679653E+03</rscale>
<asrwt>0</asrwt>
<pdfrwt beam="1">  1        2 0.24494447E+00 0.42679653E+03</pdfrwt>
<pdfrwt beam="2">  1       -2 0.44003519E-02 0.42679653E+03</pdfrwt>
<totfact> 0.28927529E+03</totfact>
</mgrwt>
</event>
<event>
 4    1  0.6148427E-004  0.2196162E+03  0.7818608E-02  0.1134170E+00
         -2   -1    0    0    0  501 -0.00000000000E+00  0.00000000000E+00  0.62012535512E+03  0.62012535513E+03  0.25500000000E-02 0. -1.
          2   -1    0    0  501    0  0.00000000000E+00 -0.00000000000E+00 -0.19444163865E+02  0.19444164032E+02  0.25500000000E-02 0.  1.
    5000001    1    1    2    0    0 -0.35700675657E+02  0.61678458685E+02  0.20597187349E+03  0.23115402479E+03  0.77000000000E+02 0.  0.
   -5000001    1    1    2    0    0  0.35700675657E+02 -0.61678458685E+02  0.39470931777E+03  0.40841549437E+03  0.77000000000E+02 0.  0.
<mgrwt>
<rscale>  0 0.21961620E+03</rscale>
<asrwt>0</asrwt>
<pdfrwt beam="1">  1        2 0.29914097E-02 0.21961620E+03</pdfrwt>
<pdfrwt beam="2">  1       -2 0.95403906E-01 0.21961620E+03</pdfrwt>
<totfact> 0.29667790E+03</totfact>
</mgrwt>
</event>
<event>
 4    1  0.6148427E-004  0.2250738E+03  0.7818608E-02  0.1130156E+00
         -2   -1    0    0    0  501 -0.00000000000E+00  0.00000000000E+00  0.40046493689E+01  0.40046501808E+01  0.25500000000E-02 0. -1.
          2   -1    0    0  501    0  0.00000000000E+00 -0.00000000000E+00 -0.31624633605E+04  0.31624633605E+04  0.25500000000E-02 0.  1.
    5000001    1    1    2    0    0  0.63232480853E+02  0.46209091977E+02 -0.12340668788E+04  0.12389445864E+04  0.77000000000E+02 0.  0.
   -5000001    1    1    2    0    0 -0.63232480853E+02 -0.46209091977E+02 -0.19243918323E+04  0.19275234243E+04  0.77000000000E+02 0.  0.
<mgrwt>
<rscale>  0 0.22507384E+03</rscale>
<asrwt>0</asrwt>
<pdfrwt beam="1">  1        2 0.48653083E+00 0.22507384E+03</pdfrwt>
<pdfrwt beam="2">  1       -2 0.61610249E-03 0.22507384E+03</pdfrwt>
<totfact> 0.71640652E+03</totfact>
</mgrwt>
</event>
<event>
 4    1  0.6148427E-004  0.2206800E+03  0.7818608E-02  0.1133377E+00
          2   -1    0    0  501    0  0.00000000000E+00  0.00000000000E+00  0.60227868119E+03  0.60227868119E+03  0.25500000000E-02 0.  1.
         -2   -1    0    0    0  501 -0.00000000000E+00 -0.00000000000E+00 -0.20214746788E+02  0.20214746949E+02  0.25500000000E-02 0. -1.
    5000001    1    1    2    0    0  0.37157422045E+02  0.57488696820E+02  0.17960916025E+03  0.20706055810E+03  0.77000000000E+02 0.  0.
   -5000001    1    1    2    0    0 -0.37157422045E+02 -0.57488696820E+02  0.40245477415E+03  0.41543287004E+03  0.77000000000E+02 0.  0.
<mgrwt>
<rscale>  0 0.22067996E+03</rscale>
<asrwt>0</asrwt>
<pdfrwt beam="1">  1        2 0.92658255E-01 0.22067996E+03</pdfrwt>
<pdfrwt beam="2">  1       -2 0.31099612E-02 0.22067996E+03</pdfrwt>
<totfact> 0.19759173E+04</totfact>
</mgrwt>
</event>
<event>
 4    1  0.6148427E-004  0.3315771E+03  0.7818608E-02  0.1070441E+00
          2   -1    0    0  501    0  0.00000000000E+00  0.00000000000E+00  0.10606347592E+04  0.10606347592E+04  0.25500000000E-02 0.  1.
         -2   -1    0    0    0  501 -0.00000000000E+00 -0.00000000000E+00 -0.25914521870E+02  0.25914521996E+02  0.25500000000E-02 0. -1.
    5000001    1    1    2    0    0  0.26298335231E+02  0.91710393689E+02  0.88306190058E+03  0.89153223105E+03  0.77000000000E+02 0.  0.
   -5000001    1    1    2    0    0 -0.26298335231E+02 -0.91710393689E+02  0.15165833679E+03  0.19501705019E+03  0.77000000000E+02 0.  0.
<mgrwt>
<rscale>  0 0.33157710E+03</rscale>
<asrwt>0</asrwt>
<pdfrwt beam="1">  1        2 0.16317457E+00 0.33157710E+03</pdfrwt>
<pdfrwt beam="2">  1       -2 0.39868498E-02 0.33157710E+03</pdfrwt>
<totfact> 0.66833493E+03</totfact>
</mgrwt>
</event>
<event>
 4    1  0.6148427E-004  0.1794836E+03  0.7818608E-02  0.1168304E+00
          2   -1    0    0  501    0  0.00000000000E+00  0.00000000000E+00  0.24130527884E+03  0.24130527886E+03  0.25500000000E-02 0.  1.
         -2   -1    0    0    0  501 -0.00000000000E+00 -0.00000000000E+00 -0.33375104131E+02  0.33375104229E+02  0.25500000000E-02 0. -1.
    5000001    1    1    2    0    0  0.17463445166E+02  0.32865182796E+01  0.16905296077E+03  0.18661103040E+03  0.77000000000E+02 0.  0.
   -5000001    1    1    2    0    0 -0.17463445166E+02 -0.32865182796E+01  0.38877213940E+02  0.88069352690E+02  0.77000000000E+02 0.  0.
<mgrwt>
<rscale>  0 0.17948358E+03</rscale>
<asrwt>0</asrwt>
<pdfrwt beam="1">  1        2 0.37123890E-01 0.17948358E+03</pdfrwt>
<pdfrwt beam="2">  1       -2 0.51346312E-02 0.17948358E+03</pdfrwt>
<totfact> 0.24873154E+04</totfact>
</mgrwt>
</event>
<event>
 4    1  0.6148427E-004  0.3622330E+03  0.7818608E-02  0.1057703E+00
         -2   -1    0    0    0  501 -0.00000000000E+00  0.00000000000E+00  0.27665941615E+02  0.27665941733E+02  0.25500000000E-02 0. -1.
          2   -1    0    0  501    0  0.00000000000E+00 -0.00000000000E+00 -0.11856884516E+04  0.11856884516E+04  0.25500000000E-02 0.  1.
    5000001    1    1    2    0    0 -0.13172821316E+03 -0.74924261439E+01 -0.90490549160E+03  0.91770987099E+03  0.77000000000E+02 0.  0.
   -5000001    1    1    2    0    0  0.13172821316E+03  0.74924261439E+01 -0.25311701837E+03  0.29564452233E+03  0.77000000000E+02 0.  0.
<mgrwt>
<rscale>  0 0.36223301E+03</rscale>
<asrwt>0</asrwt>
<pdfrwt beam="1">  1        2 0.18241357E+00 0.36223301E+03</pdfrwt>
<pdfrwt beam="2">  1       -2 0.42562996E-02 0.36223301E+03</pdfrwt>
<totfact> 0.51145172E+03</totfact>
</mgrwt>
</event>
<event>
 4    1  0.6148427E-004  0.3084737E+03  0.7818608E-02  0.1081080E+00
         -2   -1    0    0    0  501 -0.00000000000E+00  0.00000000000E+00  0.46167083601E+03  0.46167083601E+03  0.25500000000E-02 0. -1.
          2   -1    0    0  501    0  0.00000000000E+00 -0.00000000000E+00 -0.51528057900E+02  0.51528057963E+02  0.25500000000E-02 0.  1.
    5000001    1    1    2    0    0 -0.88017912825E+01 -0.11577240742E+03  0.94976045178E+02  0.16861248769E+03  0.77000000000E+02 0.  0.
   -5000001    1    1    2    0    0  0.88017912825E+01  0.11577240742E+03  0.31516673293E+03  0.34458640628E+03  0.77000000000E+02 0.  0.
<mgrwt>
<rscale>  0 0.30847367E+03</rscale>
<asrwt>0</asrwt>
<pdfrwt beam="1">  1        2 0.79273936E-02 0.30847367E+03</pdfrwt>
<pdfrwt beam="2">  1       -2 0.71026282E-01 0.30847367E+03</pdfrwt>
<totfact> 0.15938757E+03</totfact>
</mgrwt>
</event>
<event>
 4    1  0.6148427E-004  0.2079125E+03  0.7818608E-02  0.1143230E+00
          2   -1    0    0  501    0  0.00000000000E+00  0.00000000000E+00  0.20349707256E+04  0.20349707256E+04  0.25500000000E-02 0.  1.
         -2   -1    0    0    0  501 -0.00000000000E+00 -0.00000000000E+00 -0.53105935743E+01  0.53105941865E+01  0.25500000000E-02 0. -1.
    5000001    1    1    2    0    0  0.40527992909E+01  0.69003171033E+02  0.11129815572E+04  0.11177811993E+04  0.77000000000E+02 0.  0.
   -5000001    1    1    2    0    0 -0.40527992909E+01 -0.69003171033E+02  0.91667857485E+03  0.92250012053E+03  0.77000000000E+02 0.  0.
<mgrwt>
<rscale>  0 0.20791251E+03</rscale>
<asrwt>0</asrwt>
<pdfrwt beam="1">  1        2 0.31307280E+00 0.20791251E+03</pdfrwt>
<pdfrwt beam="2">  1       -2 0.81701344E-03 0.20791251E+03</pdfrwt>
<totfact> 0.20162103E+04</totfact>
</mgrwt>
</event>
<event>
 4    1  0.6148427E-004  0.3665547E+03  0.7818608E-02  0.1056018E+00
          2   -1    0    0  501    0  0.00000000000E+00  0.00000000000E+00  0.52958914114E+03  0.52958914114E+03  0.25500000000E-02 0.  1.
         -2   -1    0    0    0  501 -0.00000000000E+00 -0.00000000000E+00 -0.63427630827E+02  0.63427630878E+02  0.25500000000E-02 0. -1.
    5000001    1    1    2    0    0 -0.16553848517E+03 -0.10905437621E+01  0.20712480976E+03  0.27610481013E+03  0.77000000000E+02 0.  0.
   -5000001    1    1    2    0    0  0.16553848517E+03  0.10905437621E+01  0.25903670055E+03  0.31691196189E+03  0.77000000000E+02 0.  0.
<mgrwt>
<rscale>  0 0.36655469E+03</rscale>
<asrwt>0</asrwt>
<pdfrwt beam="1">  1        2 0.81475249E-01 0.36655469E+03</pdfrwt>
<pdfrwt beam="2">  1       -2 0.97580975E-02 0.36655469E+03</pdfrwt>
<totfact> 0.40428646E+03</totfact>
</mgrwt>
</event>
<event>
 4    1  0.6148427E-004  0.3874422E+03  0.7818608E-02  0.1048217E+00
          2   -1    0    0  501    0  0.00000000000E+00  0.00000000000E+00  0.14502392164E+04  0.14502392164E+04  0.25500000000E-02 0.  1.
         -2   -1    0    0    0  501 -0.00000000000E+00 -0.00000000000E+00 -0.25877022111E+02  0.25877022237E+02  0.25500000000E-02 0. -1.
    5000001    1    1    2    0    0 -0.11970063198E+03 -0.11077122504E+03  0.98159159902E+03  0.99802283183E+03  0.77000000000E+02 0.  0.
   -5000001    1    1    2    0    0  0.11970063198E+03  0.11077122504E+03  0.44277059523E+03  0.47809340677E+03  0.77000000000E+02 0.  0.
<mgrwt>
<rscale>  0 0.38744224E+03</rscale>
<asrwt>0</asrwt>
<pdfrwt beam="1">  1        2 0.22311370E+00 0.38744224E+03</pdfrwt>
<pdfrwt beam="2">  1       -2 0.39810807E-02 0.38744224E+03</pdfrwt>
<totfact> 0.40259612E+03</totfact>
</mgrwt>
</event>
<event>
 4    1  0.6148427E-004  0.3171862E+03  0.7818608E-02  0.1076952E+00
          2   -1    0    0  501    0  0.00000000000E+00  0.00000000000E+00  0.44445875220E+03  0.44445875221E+03  0.25500000000E-02 0.  1.
         -2   -1    0    0    0  501 -0.00000000000E+00 -0.00000000000E+00 -0.56589660191E+02  0.56589660248E+02  0.25500000000E-02 0. -1.
    5000001    1    1    2    0    0 -0.99481700809E+02 -0.95843279978E+02  0.21264053668E+03  0.26500479421E+03  0.77000000000E+02 0.  0.
   -5000001    1    1    2    0    0  0.99481700809E+02  0.95843279978E+02  0.17522855532E+03  0.23604361824E+03  0.77000000000E+02 0.  0.
<mgrwt>
<rscale>  0 0.31718619E+03</rscale>
<asrwt>0</asrwt>
<pdfrwt beam="1">  1        2 0.68378269E-01 0.31718619E+03</pdfrwt>
<pdfrwt beam="2">  1       -2 0.87061016E-02 0.31718619E+03</pdfrwt>
<totfact> 0.58806096E+03</totfact>
</mgrwt>
</event>
<event>
 4    1  0.6148427E-004  0.3193359E+03  0.7818608E-02  0.1075955E+00
          2   -1    0    0  501    0  0.00000000000E+00  0.00000000000E+00  0.91699706414E+02  0.91699706449E+02  0.25500000000E-02 0.  1.
         -2   -1    0    0    0  501 -0.00000000000E+00 -0.00000000000E+00 -0.27801448322E+03  0.27801448323E+03  0.25500000000E-02 0. -1.
    5000001    1    1    2    0    0 -0.10129425443E+03  0.95835637603E+02 -0.10583213900E+03  0.19124444322E+03  0.77000000000E+02 0.  0.
   -5000001    1    1    2    0    0  0.10129425443E+03 -0.95835637603E+02 -0.80482637806E+02  0.17846974647E+03  0.77000000000E+02 0.  0.
<mgrwt>
<rscale>  0 0.31933585E+03</rscale>
<asrwt>0</asrwt>
<pdfrwt beam="1">  1        2 0.14107647E-01 0.31933585E+03</pdfrwt>
<pdfrwt beam="2">  1       -2 0.42771459E-01 0.31933585E+03</pdfrwt>
<totfact> 0.22003266E+03</totfact>
</mgrwt>
</event>
<event>
 4    1  0.6148427E-004  0.2067768E+03  0.7818608E-02  0.1144144E+00
          2   -1    0    0  501    0  0.00000000000E+00  0.00000000000E+00  0.12370395552E+04  0.12370395552E+04  0.25500000000E-02 0.  1.
         -2   -1    0    0    0  501 -0.00000000000E+00 -0.00000000000E+00 -0.86409189117E+01  0.86409192879E+01  0.25500000000E-02 0. -1.
    5000001    1    1    2    0    0  0.14004917370E+02 -0.34207824252E+02  0.96515392677E+03  0.96892590806E+03  0.77000000000E+02 0.  0.
   -5000001    1    1    2    0    0 -0.14004917370E+02  0.34207824252E+02  0.26324470951E+03  0.27675456642E+03  0.77000000000E+02 0.  0.
<mgrwt>
<rscale>  0 0.20677678E+03</rscale>
<asrwt>0</asrwt>
<pdfrwt beam="1">  1        2 0.19031364E+00 0.20677678E+03</pdfrwt>
<pdfrwt beam="2">  1       -2 0.13293731E-02 0.20677678E+03</pdfrwt>
<totfact> 0.26341381E+04</totfact>
</mgrwt>
</event>
<event>
 4    1  0.6148427E-004  0.1904755E+03  0.7818608E-02  0.1158033E+00
         -2   -1    0    0    0  501 -0.00000000000E+00  0.00000000000E+00  0.53566797125E+02  0.53566797185E+02  0.25500000000E-02 0. -1.
          2   -1    0    0  501    0  0.00000000000E+00 -0.00000000000E+00 -0.16932555665E+03  0.16932555667E+03  0.25500000000E-02 0.  1.
    5000001    1    1    2    0    0  0.10239833400E+02 -0.43627372543E+02 -0.18490284744E+02  0.90989518369E+02  0.77000000000E+02 0.  0.
   -5000001    1    1    2    0    0 -0.10239833400E+02  0.43627372543E+02 -0.97268474783E+02  0.13190283549E+03  0.77000000000E+02 0.  0.
<mgrwt>
<rscale>  0 0.19047549E+03</rscale>
<asrwt>0</asrwt>
<pdfrwt beam="1">  1        2 0.26050085E-01 0.19047549E+03</pdfrwt>
<pdfrwt beam="2">  1       -2 0.82410458E-02 0.19047549E+03</pdfrwt>
<totfact> 0.17795200E+04</totfact>
</mgrwt>
</event>
<event>
 4    1  0.6148427E-004  0.2666821E+03  0.7818608E-02  0.1103194E+00
          2   -1    0    0  501    0  0.00000000000E+00  0.00000000000E+00  0.32063045846E+04  0.32063045846E+04  0.25500000000E-02 0.  1.
         -2   -1    0    0    0  501 -0.00000000000E+00 -0.00000000000E+00 -0.55452720709E+01  0.55452726572E+01  0.25500000000E-02 0. -1.
    5000001    1    1    2    0    0 -0.21868674715E+02  0.95323402572E+02  0.21762219136E+04  0.21797787978E+04  0.77000000000E+02 0.  0.
   -5000001    1    1    2    0    0  0.21868674715E+02 -0.95323402572E+02  0.10245373990E+04  0.10320710595E+04  0.77000000000E+02 0.  0.
<mgrwt>
<rscale>  0 0.26668207E+03</rscale>
<asrwt>0</asrwt>
<pdfrwt beam="1">  1        2 0.49327954E+00 0.26668207E+03</pdfrwt>
<pdfrwt beam="2">  1       -2 0.85311552E-03 0.26668207E+03</pdfrwt>
<totfact> 0.41997780E+03</totfact>
</mgrwt>
</event>
<event>
 4    1  0.6148427E-004  0.1889366E+03  0.7818608E-02  0.1159424E+00
         -2   -1    0    0    0  501 -0.00000000000E+00  0.00000000000E+00  0.41271740991E+01  0.41271748869E+01  0.25500000000E-02 0. -1.
          2   -1    0    0  501    0  0.00000000000E+00 -0.00000000000E+00 -0.21623160992E+04  0.21623160992E+04  0.25500000000E-02 0.  1.
    5000001    1    1    2    0    0  0.20656548169E+02 -0.50679757166E+02 -0.10750390619E+04  0.10791816879E+04  0.77000000000E+02 0.  0.
   -5000001    1    1    2    0    0 -0.20656548169E+02  0.50679757166E+02 -0.10831498632E+04  0.10872615862E+04  0.77000000000E+02 0.  0.
<mgrwt>
<rscale>  0 0.18893656E+03</rscale>
<asrwt>0</asrwt>
<pdfrwt beam="1">  1        2 0.33266311E+00 0.18893656E+03</pdfrwt>
<pdfrwt beam="2">  1       -2 0.63495165E-03 0.18893656E+03</pdfrwt>
<totfact> 0.24748849E+04</totfact>
</mgrwt>
</event>
<event>
 4    1  0.6148427E-004  0.2160227E+03  0.7818608E-02  0.1136883E+00
         -2   -1    0    0    0  501 -0.00000000000E+00  0.00000000000E+00  0.50164161192E+01  0.50164167673E+01  0.25500000000E-02 0. -1.
          2   -1    0    0  501    0  0.00000000000E+00 -0.00000000000E+00 -0.23256552193E+04  0.23256552193E+04  0.25500000000E-02 0.  1.
    5000001    1    1    2    0    0  0.35510768762E+02  0.62915059655E+02 -0.91473352981E+03  0.92080711878E+03  0.77000000000E+02 0.  0.
   -5000001    1    1    2    0    0 -0.35510768762E+02 -0.62915059655E+02 -0.14059052733E+04  0.14098645173E+04  0.77000000000E+02 0.  0.
<mgrwt>
<rscale>  0 0.21602273E+03</rscale>
<asrwt>0</asrwt>
<pdfrwt beam="1">  1        2 0.35779225E+00 0.21602273E+03</pdfrwt>
<pdfrwt beam="2">  1       -2 0.77175823E-03 0.21602273E+03</pdfrwt>
<totfact> 0.15402261E+04</totfact>
</mgrwt>
</event>
<event>
 4    1  0.6148427E-004  0.4921902E+03  0.7818608E-02  0.1015838E+00
          2   -1    0    0  501    0  0.00000000000E+00  0.00000000000E+00  0.84346864630E+03  0.84346864630E+03  0.25500000000E-02 0.  1.
         -2   -1    0    0    0  501 -0.00000000000E+00 -0.00000000000E+00 -0.71802066369E+02  0.71802066414E+02  0.25500000000E-02 0. -1.
    5000001    1    1    2    0    0 -0.22527347416E+03 -0.62233829321E+02  0.37923134247E+03  0.45206924114E+03  0.77000000000E+02 0.  0.
   -5000001    1    1    2    0    0  0.22527347416E+03  0.62233829321E+02  0.39243523746E+03  0.46320147158E+03  0.77000000000E+02 0.  0.
<mgrwt>
<rscale>  0 0.49219017E+03</rscale>
<asrwt>0</asrwt>
<pdfrwt beam="1">  1        2 0.12976441E+00 0.49219017E+03</pdfrwt>
<pdfrwt beam="2">  1       -2 0.11046471E-01 0.49219017E+03</pdfrwt>
<totfact> 0.18762057E+03</totfact>
</mgrwt>
</event>
<event>
 4    1  0.6148427E-004  0.2077158E+03  0.7818608E-02  0.1143388E+00
          2   -1    0    0  501    0  0.00000000000E+00  0.00000000000E+00  0.12696597581E+03  0.12696597584E+03  0.25500000000E-02 0.  1.
         -2   -1    0    0    0  501 -0.00000000000E+00 -0.00000000000E+00 -0.84955529991E+02  0.84955530029E+02  0.25500000000E-02 0. -1.
    5000001    1    1    2    0    0  0.11749723778E+02 -0.60406262017E+02 -0.12375573281E+02  0.99343481486E+02  0.77000000000E+02 0.  0.
   -5000001    1    1    2    0    0 -0.11749723778E+02  0.60406262017E+02  0.54386019100E+02  0.11257802438E+03  0.77000000000E+02 0.  0.
<mgrwt>
<rscale>  0 0.20771578E+03</rscale>
<asrwt>0</asrwt>
<pdfrwt beam="1">  1        2 0.19533227E-01 0.20771578E+03</pdfrwt>
<pdfrwt beam="2">  1       -2 0.13070082E-01 0.20771578E+03</pdfrwt>
<totfact> 0.11899261E+04</totfact>
</mgrwt>
</event>
<event>
 4    1  0.6148427E-004  0.2774390E+03  0.7818608E-02  0.1097096E+00
          2   -1    0    0  501    0  0.00000000000E+00  0.00000000000E+00  0.11979682071E+04  0.11979682071E+04  0.25500000000E-02 0.  1.
         -2   -1    0    0    0  501 -0.00000000000E+00 -0.00000000000E+00 -0.16063116744E+02  0.16063116946E+02  0.25500000000E-02 0. -1.
    5000001    1    1    2    0    0  0.10537405811E+03  0.11878317135E+02  0.39189629073E+03  0.41322692220E+03  0.77000000000E+02 0.  0.
   -5000001    1    1    2    0    0 -0.10537405811E+03 -0.11878317135E+02  0.79000879962E+03  0.80080440185E+03  0.77000000000E+02 0.  0.
<mgrwt>
<rscale>  0 0.27743903E+03</rscale>
<asrwt>0</asrwt>
<pdfrwt beam="1">  1        2 0.18430278E+00 0.27743903E+03</pdfrwt>
<pdfrwt beam="2">  1       -2 0.24712491E-02 0.27743903E+03</pdfrwt>
<totfact> 0.11315332E+04</totfact>
</mgrwt>
</event>
<event>
 4    1  0.6148427E-004  0.2318422E+03  0.7818608E-02  0.1125350E+00
         -2   -1    0    0    0  501 -0.00000000000E+00  0.00000000000E+00  0.67851153858E+01  0.67851158649E+01  0.25500000000E-02 0. -1.
          2   -1    0    0  501    0  0.00000000000E+00 -0.00000000000E+00 -0.19804684131E+04  0.19804684131E+04  0.25500000000E-02 0.  1.
    5000001    1    1    2    0    0 -0.56455060788E+02  0.57496336550E+02 -0.71366448074E+03  0.72231502385E+03  0.77000000000E+02 0.  0.
   -5000001    1    1    2    0    0  0.56455060788E+02 -0.57496336550E+02 -0.12600188170E+04  0.12649385051E+04  0.77000000000E+02 0.  0.
<mgrwt>
<rscale>  0 0.23184225E+03</rscale>
<asrwt>0</asrwt>
<pdfrwt beam="1">  1        2 0.30468699E+00 0.23184225E+03</pdfrwt>
<pdfrwt beam="2">  1       -2 0.10438655E-02 0.23184225E+03</pdfrwt>
<totfact> 0.15164883E+04</totfact>
</mgrwt>
</event>
<event>
 4    1  0.6148427E-004  0.3047044E+03  0.7818608E-02  0.1082912E+00
          2   -1    0    0  501    0  0.00000000000E+00  0.00000000000E+00  0.22433819946E+04  0.22433819946E+04  0.25500000000E-02 0.  1.
         -2   -1    0    0    0  501 -0.00000000000E+00 -0.00000000000E+00 -0.10346516519E+02  0.10346516833E+02  0.25500000000E-02 0. -1.
    5000001    1    1    2    0    0  0.89730305018E+02 -0.40225312597E+02  0.17618583675E+04  0.17662795675E+04  0.77000000000E+02 0.  0.
   -5000001    1    1    2    0    0 -0.89730305018E+02  0.40225312597E+02  0.47117711052E+03  0.48744894388E+03  0.77000000000E+02 0.  0.
<mgrwt>
<rscale>  0 0.30470438E+03</rscale>
<asrwt>0</asrwt>
<pdfrwt beam="1">  1        2 0.34513597E+00 0.30470438E+03</pdfrwt>
<pdfrwt beam="2">  1       -2 0.15917705E-02 0.30470438E+03</pdfrwt>
<totfact> 0.59699989E+03</totfact>
</mgrwt>
</event>
<event>
 4    1  0.6148427E-004  0.1969282E+03  0.7818608E-02  0.1152357E+00
          2   -1    0    0  501    0  0.00000000000E+00  0.00000000000E+00  0.12029913148E+04  0.12029913148E+04  0.25500000000E-02 0.  1.
         -2   -1    0    0    0  501 -0.00000000000E+00 -0.00000000000E+00 -0.80592291890E+01  0.80592295924E+01  0.25500000000E-02 0. -1.
    5000001    1    1    2    0    0  0.41027599063E+02  0.40803162011E+02  0.72320022011E+03  0.72958599238E+03  0.77000000000E+02 0.  0.
   -5000001    1    1    2    0    0 -0.41027599063E+02 -0.40803162011E+02  0.47173186551E+03  0.48146455202E+03  0.77000000000E+02 0.  0.
<mgrwt>
<rscale>  0 0.19692824E+03</rscale>
<asrwt>0</asrwt>
<pdfrwt beam="1">  1        2 0.18507554E+00 0.19692824E+03</pdfrwt>
<pdfrwt beam="2">  1       -2 0.12398817E-02 0.19692824E+03</pdfrwt>
<totfact> 0.30355868E+04</totfact>
</mgrwt>
</event>
<event>
 4    1  0.6148427E-004  0.1575333E+03  0.7818608E-02  0.1191510E+00
          2   -1    0    0  501    0  0.00000000000E+00  0.00000000000E+00  0.86693984592E+03  0.86693984592E+03  0.25500000000E-02 0.  1.
         -2   -1    0    0    0  501 -0.00000000000E+00 -0.00000000000E+00 -0.71564198163E+01  0.71564202706E+01  0.25500000000E-02 0. -1.
    5000001    1    1    2    0    0  0.12590844134E+02  0.75921549557E+01  0.47251726300E+03  0.47897571338E+03  0.77000000000E+02 0.  0.
   -5000001    1    1    2    0    0 -0.12590844134E+02 -0.75921549557E+01  0.38726616310E+03  0.39512055281E+03  0.77000000000E+02 0.  0.
<mgrwt>
<rscale>  0 0.15753331E+03</rscale>
<asrwt>0</asrwt>
<pdfrwt beam="1">  1        2 0.13337535E+00 0.15753331E+03</pdfrwt>
<pdfrwt beam="2">  1       -2 0.11009878E-02 0.15753331E+03</pdfrwt>
<totfact> 0.56194172E+04</totfact>
</mgrwt>
</event>
<event>
 4    1  0.6148427E-004  0.4025077E+03  0.7818608E-02  0.1042915E+00
         -2   -1    0    0    0  501 -0.00000000000E+00  0.00000000000E+00  0.48059564489E+02  0.48059564557E+02  0.25500000000E-02 0. -1.
          2   -1    0    0  501    0  0.00000000000E+00 -0.00000000000E+00 -0.84276909718E+03  0.84276909719E+03  0.25500000000E-02 0.  1.
    5000001    1    1    2    0    0 -0.23389637945E+01 -0.18533730701E+03 -0.43008671394E+03  0.47461454848E+03  0.77000000000E+02 0.  0.
   -5000001    1    1    2    0    0  0.23389637945E+01  0.18533730701E+03 -0.36462281875E+03  0.41621411326E+03  0.77000000000E+02 0.  0.
<mgrwt>
<rscale>  0 0.40250772E+03</rscale>
<asrwt>0</asrwt>
<pdfrwt beam="1">  1        2 0.12965677E+00 0.40250772E+03</pdfrwt>
<pdfrwt beam="2">  1       -2 0.73937798E-02 0.40250772E+03</pdfrwt>
<totfact> 0.35648453E+03</totfact>
</mgrwt>
</event>
<event>
 4    1  0.6148427E-004  0.1844013E+03  0.7818608E-02  0.1163610E+00
         -2   -1    0    0    0  501 -0.00000000000E+00  0.00000000000E+00  0.71187951692E+02  0.71187951738E+02  0.25500000000E-02 0. -1.
          2   -1    0    0  501    0  0.00000000000E+00 -0.00000000000E+00 -0.11941570500E+03  0.11941570503E+03  0.25500000000E-02 0.  1.
    5000001    1    1    2    0    0  0.30702683803E+02  0.33107797004E+02 -0.47981190639E+02  0.10134088844E+03  0.77000000000E+02 0.  0.
   -5000001    1    1    2    0    0 -0.30702683803E+02 -0.33107797004E+02 -0.24656266700E+00  0.89262768321E+02  0.77000000000E+02 0.  0.
<mgrwt>
<rscale>  0 0.18440130E+03</rscale>
<asrwt>0</asrwt>
<pdfrwt beam="1">  1        2 0.18371647E-01 0.18440130E+03</pdfrwt>
<pdfrwt beam="2">  1       -2 0.10951993E-01 0.18440130E+03</pdfrwt>
<totfact> 0.16814351E+04</totfact>
</mgrwt>
</event>
<event>
 4    1  0.6148427E-004  0.2219752E+03  0.7818608E-02  0.1132419E+00
          2   -1    0    0  501    0  0.00000000000E+00  0.00000000000E+00  0.12305887832E+02  0.12305888096E+02  0.25500000000E-02 0.  1.
         -2   -1    0    0    0  501 -0.00000000000E+00 -0.00000000000E+00 -0.10010045787E+04  0.10010045787E+04  0.25500000000E-02 0. -1.
    5000001    1    1    2    0    0 -0.37369275231E+02  0.64716889822E+02 -0.62382979202E+03  0.63299079612E+03  0.77000000000E+02 0.  0.
   -5000001    1    1    2    0    0  0.37369275231E+02 -0.64716889822E+02 -0.36486889885E+03  0.38031967069E+03  0.77000000000E+02 0.  0.
<mgrwt>
<rscale>  0 0.22197523E+03</rscale>
<asrwt>0</asrwt>
<pdfrwt beam="1">  1        2 0.18932143E-02 0.22197523E+03</pdfrwt>
<pdfrwt beam="2">  1       -2 0.15400064E+00 0.22197523E+03</pdfrwt>
<totfact> 0.17325738E+03</totfact>
</mgrwt>
</event>
<event>
 4    1  0.6148427E-004  0.2278180E+03  0.7818608E-02  0.1128185E+00
          2   -1    0    0  501    0  0.00000000000E+00  0.00000000000E+00  0.79395447217E+03  0.79395447217E+03  0.25500000000E-02 0.  1.
         -2   -1    0    0    0  501 -0.00000000000E+00 -0.00000000000E+00 -0.16342572311E+02  0.16342572510E+02  0.25500000000E-02 0. -1.
    5000001    1    1    2    0    0  0.16536771906E+02  0.69355656284E+02  0.23123699228E+03  0.25393546125E+03  0.77000000000E+02 0.  0.
   -5000001    1    1    2    0    0 -0.16536771906E+02 -0.69355656284E+02  0.54637490758E+03  0.55636158343E+03  0.77000000000E+02 0.  0.
<mgrwt>
<rscale>  0 0.22781798E+03</rscale>
<asrwt>0</asrwt>
<pdfrwt beam="1">  1        2 0.12214685E+00 0.22781798E+03</pdfrwt>
<pdfrwt beam="2">  1       -2 0.25142417E-02 0.22781798E+03</pdfrwt>
<totfact> 0.19441004E+04</totfact>
</mgrwt>
</event>
<event>
 4    1  0.6148427E-004  0.2482300E+03  0.7818608E-02  0.1114429E+00
          2   -1    0    0  501    0  0.00000000000E+00  0.00000000000E+00  0.59154391300E+03  0.59154391301E+03  0.25500000000E-02 0.  1.
         -2   -1    0    0    0  501 -0.00000000000E+00 -0.00000000000E+00 -0.26041241083E+02  0.26041241207E+02  0.25500000000E-02 0. -1.
    5000001    1    1    2    0    0  0.78693331432E+02  0.53263900616E+02  0.23021752180E+03  0.26068906932E+03  0.77000000000E+02 0.  0.
   -5000001    1    1    2    0    0 -0.78693331432E+02 -0.53263900616E+02  0.33528515012E+03  0.35689608490E+03  0.77000000000E+02 0.  0.
<mgrwt>
<rscale>  0 0.24823004E+03</rscale>
<asrwt>0</asrwt>
<pdfrwt beam="1">  1        2 0.91006759E-01 0.24823004E+03</pdfrwt>
<pdfrwt beam="2">  1       -2 0.40063446E-02 0.24823004E+03</pdfrwt>
<totfact> 0.13911423E+04</totfact>
</mgrwt>
</event>
<event>
 4    1  0.6148427E-004  0.4817664E+03  0.7818608E-02  0.1018651E+00
          2   -1    0    0  501    0  0.00000000000E+00  0.00000000000E+00  0.93175396486E+02  0.93175396521E+02  0.25500000000E-02 0.  1.
         -2   -1    0    0    0  501 -0.00000000000E+00 -0.00000000000E+00 -0.62274716974E+03  0.62274716974E+03  0.25500000000E-02 0. -1.
    5000001    1    1    2    0    0  0.49610541505E+02 -0.17859332497E+03 -0.46270753342E+03  0.50436498989E+03  0.77000000000E+02 0.  0.
   -5000001    1    1    2    0    0 -0.49610541505E+02  0.17859332497E+03 -0.66864239835E+02  0.21155757637E+03  0.77000000000E+02 0.  0.
<mgrwt>
<rscale>  0 0.48176639E+03</rscale>
<asrwt>0</asrwt>
<pdfrwt beam="1">  1        2 0.14334677E-01 0.48176639E+03</pdfrwt>
<pdfrwt beam="2">  1       -2 0.95807254E-01 0.48176639E+03</pdfrwt>
<totfact> 0.39135861E+02</totfact>
</mgrwt>
</event>
<event>
 4    1  0.6148427E-004  0.2144766E+03  0.7818608E-02  0.1138069E+00
          2   -1    0    0  501    0  0.00000000000E+00  0.00000000000E+00  0.14987616941E+04  0.14987616941E+04  0.25500000000E-02 0.  1.
         -2   -1    0    0    0  501 -0.00000000000E+00 -0.00000000000E+00 -0.76730334328E+01  0.76730338565E+01  0.25500000000E-02 0. -1.
    5000001    1    1    2    0    0 -0.67018974763E+02  0.32779813475E+02  0.72985479093E+03  0.73768765409E+03  0.77000000000E+02 0.  0.
   -5000001    1    1    2    0    0  0.67018974763E+02 -0.32779813475E+02  0.76123386969E+03  0.76874707383E+03  0.77000000000E+02 0.  0.
<mgrwt>
<rscale>  0 0.21447656E+03</rscale>
<asrwt>0</asrwt>
<pdfrwt beam="1">  1        2 0.23057874E+00 0.21447656E+03</pdfrwt>
<pdfrwt beam="2">  1       -2 0.11804666E-02 0.21447656E+03</pdfrwt>
<totfact> 0.22615079E+04</totfact>
</mgrwt>
</event>
<event>
 4    1  0.6148427E-004  0.2330883E+03  0.7818608E-02  0.1124485E+00
          2   -1    0    0  501    0  0.00000000000E+00  0.00000000000E+00  0.72623608142E+03  0.72623608143E+03  0.25500000000E-02 0.  1.
         -2   -1    0    0    0  501 -0.00000000000E+00 -0.00000000000E+00 -0.18702649087E+02  0.18702649261E+02  0.25500000000E-02 0. -1.
    5000001    1    1    2    0    0  0.59460617126E+02  0.50509402145E+02  0.22726300794E+03  0.25231773515E+03  0.77000000000E+02 0.  0.
   -5000001    1    1    2    0    0 -0.59460617126E+02 -0.50509402145E+02  0.48027042440E+03  0.49262099554E+03  0.77000000000E+02 0.  0.
<mgrwt>
<rscale>  0 0.23308830E+03</rscale>
<asrwt>0</asrwt>
<pdfrwt beam="1">  1        2 0.11172860E+00 0.23308830E+03</pdfrwt>
<pdfrwt beam="2">  1       -2 0.28773314E-02 0.23308830E+03</pdfrwt>
<totfact> 0.17812980E+04</totfact>
</mgrwt>
</event>
<event>
 4    1  0.6148427E-004  0.5137988E+03  0.7818608E-02  0.1010239E+00
         -2   -1    0    0    0  501 -0.00000000000E+00  0.00000000000E+00  0.24801801913E+02  0.24801802044E+02  0.25500000000E-02 0. -1.
          2   -1    0    0  501    0  0.00000000000E+00 -0.00000000000E+00 -0.26609881435E+04  0.26609881435E+04  0.25500000000E-02 0.  1.
    5000001    1    1    2    0    0 -0.12463229938E+03 -0.20621370401E+03 -0.10836784327E+04  0.11128096187E+04  0.77000000000E+02 0.  0.
   -5000001    1    1    2    0    0  0.12463229938E+03  0.20621370401E+03 -0.15525079088E+04  0.15729803269E+04  0.77000000000E+02 0.  0.
<mgrwt>
<rscale>  0 0.51379880E+03</rscale>
<asrwt>0</asrwt>
<pdfrwt beam="1">  1        2 0.40938256E+00 0.51379880E+03</pdfrwt>
<pdfrwt beam="2">  1       -2 0.38156640E-02 0.51379880E+03</pdfrwt>
<totfact> 0.93490845E+02</totfact>
</mgrwt>
</event>
<event>
 4    1  0.6148427E-004  0.1866984E+03  0.7818608E-02  0.1161473E+00
          2   -1    0    0  501    0  0.00000000000E+00  0.00000000000E+00  0.21111218820E+03  0.21111218821E+03  0.25500000000E-02 0.  1.
         -2   -1    0    0    0  501 -0.00000000000E+00 -0.00000000000E+00 -0.41276995315E+02  0.41276995394E+02  0.25500000000E-02 0. -1.
    5000001    1    1    2    0    0 -0.35904037510E+02 -0.37349010669E+02  0.98505472919E+02  0.13533800908E+03  0.77000000000E+02 0.  0.
   -5000001    1    1    2    0    0  0.35904037510E+02  0.37349010669E+02  0.71329719962E+02  0.11705117452E+03  0.77000000000E+02 0.  0.
<mgrwt>
<rscale>  0 0.18669844E+03</rscale>
<asrwt>0</asrwt>
<pdfrwt beam="1">  1        2 0.32478799E-01 0.18669844E+03</pdfrwt>
<pdfrwt beam="2">  1       -2 0.63503069E-02 0.18669844E+03</pdfrwt>
<totfact> 0.20868059E+04</totfact>
</mgrwt>
</event>
<event>
 4    1  0.6148427E-004  0.2607623E+03  0.7818608E-02  0.1106686E+00
         -2   -1    0    0    0  501 -0.00000000000E+00  0.00000000000E+00  0.34922684109E+02  0.34922684202E+02  0.25500000000E-02 0. -1.
          2   -1    0    0  501    0  0.00000000000E+00 -0.00000000000E+00 -0.48676809211E+03  0.48676809212E+03  0.25500000000E-02 0.  1.
    5000001    1    1    2    0    0  0.45270442659E+02 -0.94804036643E+02 -0.23742071136E+03  0.27080401128E+03  0.77000000000E+02 0.  0.
   -5000001    1    1    2    0    0 -0.45270442659E+02  0.94804036643E+02 -0.21442469664E+03  0.25088676504E+03  0.77000000000E+02 0.  0.
<mgrwt>
<rscale>  0 0.26076233E+03</rscale>
<asrwt>0</asrwt>
<pdfrwt beam="1">  1        2 0.74887394E-01 0.26076233E+03</pdfrwt>
<pdfrwt beam="2">  1       -2 0.53727210E-02 0.26076233E+03</pdfrwt>
<totfact> 0.11153564E+04</totfact>
</mgrwt>
</event>
<event>
 4    1  0.6148427E-004  0.3593655E+03  0.7818608E-02  0.1058835E+00
          2   -1    0    0  501    0  0.00000000000E+00  0.00000000000E+00  0.13182526938E+03  0.13182526940E+03  0.25500000000E-02 0.  1.
         -2   -1    0    0    0  501 -0.00000000000E+00 -0.00000000000E+00 -0.24491421065E+03  0.24491421067E+03  0.25500000000E-02 0. -1.
    5000001    1    1    2    0    0  0.15711781344E+03  0.18562568187E+02 -0.94723651633E+02  0.19983029404E+03  0.77000000000E+02 0.  0.
   -5000001    1    1    2    0    0 -0.15711781344E+03 -0.18562568187E+02 -0.18365289640E+02  0.17690918603E+03  0.77000000000E+02 0.  0.
<mgrwt>
<rscale>  0 0.35936545E+03</rscale>
<asrwt>0</asrwt>
<pdfrwt beam="1">  1        2 0.20280811E-01 0.35936545E+03</pdfrwt>
<pdfrwt beam="2">  1       -2 0.37679109E-01 0.35936545E+03</pdfrwt>
<totfact> 0.18353238E+03</totfact>
</mgrwt>
</event>
<event>
 4    1  0.6148427E-004  0.1662413E+03  0.7818608E-02  0.1181825E+00
          2   -1    0    0  501    0  0.00000000000E+00  0.00000000000E+00  0.35934055922E+03  0.35934055923E+03  0.25500000000E-02 0.  1.
         -2   -1    0    0    0  501 -0.00000000000E+00 -0.00000000000E+00 -0.19227004908E+02  0.19227005077E+02  0.25500000000E-02 0. -1.
    5000001    1    1    2    0    0 -0.23163632167E+02  0.15007547334E+02  0.20369971602E+03  0.21950934978E+03  0.77000000000E+02 0.  0.
   -5000001    1    1    2    0    0  0.23163632167E+02 -0.15007547334E+02  0.13641383829E+03  0.15905821453E+03  0.77000000000E+02 0.  0.
<mgrwt>
<rscale>  0 0.16624130E+03</rscale>
<asrwt>0</asrwt>
<pdfrwt beam="1">  1        2 0.55283161E-01 0.16624130E+03</pdfrwt>
<pdfrwt beam="2">  1       -2 0.29580009E-02 0.16624130E+03</pdfrwt>
<totfact> 0.36760942E+04</totfact>
</mgrwt>
</event>
<event>
 4    1  0.6148427E-004  0.2915657E+03  0.7818608E-02  0.1089535E+00
          2   -1    0    0  501    0  0.00000000000E+00  0.00000000000E+00  0.90471136301E+03  0.90471136302E+03  0.25500000000E-02 0.  1.
         -2   -1    0    0    0  501 -0.00000000000E+00 -0.00000000000E+00 -0.23491066207E+02  0.23491066345E+02  0.25500000000E-02 0. -1.
    5000001    1    1    2    0    0 -0.27944503871E+02 -0.82232354930E+02  0.72141996028E+03  0.73069748500E+03  0.77000000000E+02 0.  0.
   -5000001    1    1    2    0    0  0.27944503871E+02  0.82232354930E+02  0.15980033653E+03  0.19750494436E+03  0.77000000000E+02 0.  0.
<mgrwt>
<rscale>  0 0.29156567E+03</rscale>
<asrwt>0</asrwt>
<pdfrwt beam="1">  1        2 0.13918638E+00 0.29156567E+03</pdfrwt>
<pdfrwt beam="2">  1       -2 0.36140099E-02 0.29156567E+03</pdfrwt>
<totfact> 0.96588075E+03</totfact>
</mgrwt>
</event>
<event>
 4    1  0.6148427E-004  0.3425779E+03  0.7818608E-02  0.1065703E+00
         -2   -1    0    0    0  501 -0.00000000000E+00  0.00000000000E+00  0.35990492622E+03  0.35990492622E+03  0.25500000000E-02 0. -1.
          2   -1    0    0  501    0  0.00000000000E+00 -0.00000000000E+00 -0.81521275133E+02  0.81521275173E+02  0.25500000000E-02 0.  1.
    5000001    1    1    2    0    0 -0.76168999284E+01  0.15100603877E+03  0.10897096881E+03  0.20165443946E+03  0.77000000000E+02 0.  0.
   -5000001    1    1    2    0    0  0.76168999284E+01 -0.15100603877E+03  0.16941268227E+03  0.23977176194E+03  0.77000000000E+02 0.  0.
<mgrwt>
<rscale>  0 0.34257792E+03</rscale>
<asrwt>0</asrwt>
<pdfrwt beam="1">  1        2 0.12541735E-01 0.34257792E+03</pdfrwt>
<pdfrwt beam="2">  1       -2 0.55369989E-01 0.34257792E+03</pdfrwt>
<totfact> 0.15185407E+03</totfact>
</mgrwt>
</event>
<event>
 4    1  0.6148427E-004  0.3197254E+03  0.7818608E-02  0.1075776E+00
          2   -1    0    0  501    0  0.00000000000E+00  0.00000000000E+00  0.26735869019E+03  0.26735869021E+03  0.25500000000E-02 0.  1.
         -2   -1    0    0    0  501 -0.00000000000E+00 -0.00000000000E+00 -0.95587280304E+02  0.95587280338E+02  0.25500000000E-02 0. -1.
    5000001    1    1    2    0    0  0.42641996132E+02  0.51453004693E+02 -0.53890598609E+02  0.11532106548E+03  0.77000000000E+02 0.  0.
   -5000001    1    1    2    0    0 -0.42641996132E+02 -0.51453004693E+02  0.22566200850E+03  0.24762490506E+03  0.77000000000E+02 0.  0.
<mgrwt>
<rscale>  0 0.31972545E+03</rscale>
<asrwt>0</asrwt>
<pdfrwt beam="1">  1        2 0.41132106E-01 0.31972545E+03</pdfrwt>
<pdfrwt beam="2">  1       -2 0.14705736E-01 0.31972545E+03</pdfrwt>
<totfact> 0.43865042E+03</totfact>
</mgrwt>
</event>
<event>
 4    1  0.6148427E-004  0.2228804E+03  0.7818608E-02  0.1131754E+00
          2   -1    0    0  501    0  0.00000000000E+00  0.00000000000E+00  0.19295280109E+02  0.19295280278E+02  0.25500000000E-02 0.  1.
         -2   -1    0    0    0  501 -0.00000000000E+00 -0.00000000000E+00 -0.64362460053E+03  0.64362460053E+03  0.25500000000E-02 0. -1.
    5000001    1    1    2    0    0 -0.37772665989E+01 -0.66653045339E+02 -0.44627433148E+03  0.45776268429E+03  0.77000000000E+02 0.  0.
   -5000001    1    1    2    0    0  0.37772665989E+01  0.66653045339E+02 -0.17805498894E+03  0.20515719652E+03  0.77000000000E+02 0.  0.
<mgrwt>
<rscale>  0 0.22288039E+03</rscale>
<asrwt>0</asrwt>
<pdfrwt beam="1">  1        2 0.29685051E-02 0.22288039E+03</pdfrwt>
<pdfrwt beam="2">  1       -2 0.99019153E-01 0.22288039E+03</pdfrwt>
<totfact> 0.27542898E+03</totfact>
</mgrwt>
</event>
<event>
 4    1  0.6148427E-004  0.2000915E+03  0.7818608E-02  0.1149662E+00
         -2   -1    0    0    0  501 -0.00000000000E+00  0.00000000000E+00  0.78046679276E+03  0.78046679276E+03  0.25500000000E-02 0. -1.
          2   -1    0    0  501    0  0.00000000000E+00 -0.00000000000E+00 -0.12824573590E+02  0.12824573843E+02  0.25500000000E-02 0.  1.
    5000001    1    1    2    0    0  0.41366967997E+02  0.47272039783E+02  0.42976345528E+03  0.44110259496E+03  0.77000000000E+02 0.  0.
   -5000001    1    1    2    0    0 -0.41366967997E+02 -0.47272039783E+02  0.33787876389E+03  0.35218877165E+03  0.77000000000E+02 0.  0.
<mgrwt>
<rscale>  0 0.20009152E+03</rscale>
<asrwt>0</asrwt>
<pdfrwt beam="1">  1        2 0.19730115E-02 0.20009152E+03</pdfrwt>
<pdfrwt beam="2">  1       -2 0.12007180E+00 0.20009152E+03</pdfrwt>
<totfact> 0.30344075E+03</totfact>
</mgrwt>
</event>
<event>
 4    1  0.6148427E-004  0.3111943E+03  0.7818608E-02  0.1079775E+00
         -2   -1    0    0    0  501 -0.00000000000E+00  0.00000000000E+00  0.19788631329E+02  0.19788631493E+02  0.25500000000E-02 0. -1.
          2   -1    0    0  501    0  0.00000000000E+00 -0.00000000000E+00 -0.12234535182E+04  0.12234535182E+04  0.25500000000E-02 0.  1.
    5000001    1    1    2    0    0 -0.72874482252E+02 -0.85482072656E+02 -0.90248869544E+03  0.91270626179E+03  0.77000000000E+02 0.  0.
   -5000001    1    1    2    0    0  0.72874482252E+02  0.85482072656E+02 -0.30117619141E+03  0.33053588788E+03  0.77000000000E+02 0.  0.
<mgrwt>
<rscale>  0 0.31119428E+03</rscale>
<asrwt>0</asrwt>
<pdfrwt beam="1">  1        2 0.18822356E+00 0.31119428E+03</pdfrwt>
<pdfrwt beam="2">  1       -2 0.30444058E-02 0.31119428E+03</pdfrwt>
<totfact> 0.80462707E+03</totfact>
</mgrwt>
</event>
<event>
 4    1  0.6148427E-004  0.4337415E+03  0.7818608E-02  0.1032685E+00
          2   -1    0    0  501    0  0.00000000000E+00  0.00000000000E+00  0.15690452258E+04  0.15690452258E+04  0.25500000000E-02 0.  1.
         -2   -1    0    0    0  501 -0.00000000000E+00 -0.00000000000E+00 -0.29975502006E+02  0.29975502114E+02  0.25500000000E-02 0. -1.
    5000001    1    1    2    0    0 -0.56740524473E+02  0.19443369204E+03  0.73656717029E+03  0.76777870775E+03  0.77000000000E+02 0.  0.
   -5000001    1    1    2    0    0  0.56740524473E+02 -0.19443369204E+03  0.80250255348E+03  0.83124202015E+03  0.77000000000E+02 0.  0.
<mgrwt>
<rscale>  0 0.43374148E+03</rscale>
<asrwt>0</asrwt>
<pdfrwt beam="1">  1        2 0.24139156E+00 0.43374148E+03</pdfrwt>
<pdfrwt beam="2">  1       -2 0.46116160E-02 0.43374148E+03</pdfrwt>
<totfact> 0.27703626E+03</totfact>
</mgrwt>
</event>
<event>
 4    1  0.6148427E-004  0.1794323E+03  0.7818608E-02  0.1168354E+00
          2   -1    0    0  501    0  0.00000000000E+00  0.00000000000E+00  0.20373328759E+03  0.20373328760E+03  0.25500000000E-02 0.  1.
         -2   -1    0    0    0  501 -0.00000000000E+00 -0.00000000000E+00 -0.39507465526E+02  0.39507465608E+02  0.25500000000E-02 0. -1.
    5000001    1    1    2    0    0  0.94112626857E+01  0.44996724510E+02  0.85624123191E+02  0.12399099788E+03  0.77000000000E+02 0.  0.
   -5000001    1    1    2    0    0 -0.94112626857E+01 -0.44996724510E+02  0.78601698869E+02  0.11924975533E+03  0.77000000000E+02 0.  0.
<mgrwt>
<rscale>  0 0.17943228E+03</rscale>
<asrwt>0</asrwt>
<pdfrwt beam="1">  1        2 0.31343583E-01 0.17943228E+03</pdfrwt>
<pdfrwt beam="2">  1       -2 0.60780716E-02 0.17943228E+03</pdfrwt>
<totfact> 0.23113910E+04</totfact>
</mgrwt>
</event>
<event>
 4    1  0.6148427E-004  0.2510100E+03  0.7818608E-02  0.1112668E+00
         -2   -1    0    0    0  501 -0.00000000000E+00  0.00000000000E+00  0.65841854450E+01  0.65841859388E+01  0.25500000000E-02 0. -1.
          2   -1    0    0  501    0  0.00000000000E+00 -0.00000000000E+00 -0.23923240835E+04  0.23923240835E+04  0.25500000000E-02 0.  1.
    5000001    1    1    2    0    0  0.18495758187E+02 -0.64974207187E+02 -0.18859198408E+04  0.18886996549E+04  0.77000000000E+02 0.  0.
   -5000001    1    1    2    0    0 -0.18495758187E+02  0.64974207187E+02 -0.49982005730E+03  0.51020861454E+03  0.77000000000E+02 0.  0.
<mgrwt>
<rscale>  0 0.25101001E+03</rscale>
<asrwt>0</asrwt>
<pdfrwt beam="1">  1        2 0.36804916E+00 0.25101001E+03</pdfrwt>
<pdfrwt beam="2">  1       -2 0.10129536E-02 0.25101001E+03</pdfrwt>
<totfact> 0.95987296E+03</totfact>
</mgrwt>
</event>
<event>
 4    1  0.6148427E-004  0.1744126E+03  0.7818608E-02  0.1173323E+00
         -2   -1    0    0    0  501 -0.00000000000E+00  0.00000000000E+00  0.38040372205E+02  0.38040372290E+02  0.25500000000E-02 0. -1.
          2   -1    0    0  501    0  0.00000000000E+00 -0.00000000000E+00 -0.19991762672E+03  0.19991762674E+03  0.25500000000E-02 0.  1.
    5000001    1    1    2    0    0  0.26097369176E+02  0.20326186011E+02 -0.11384479500E+03  0.14136429487E+03  0.77000000000E+02 0.  0.
   -5000001    1    1    2    0    0 -0.26097369176E+02 -0.20326186011E+02 -0.48032459516E+02  0.96593704157E+02  0.77000000000E+02 0.  0.
<mgrwt>
<rscale>  0 0.17441263E+03</rscale>
<asrwt>0</asrwt>
<pdfrwt beam="1">  1        2 0.30756557E-01 0.17441263E+03</pdfrwt>
<pdfrwt beam="2">  1       -2 0.58523651E-02 0.17441263E+03</pdfrwt>
<totfact> 0.24931716E+04</totfact>
</mgrwt>
</event>
<event>
 4    1  0.6148427E-004  0.3061540E+03  0.7818608E-02  0.1082204E+00
         -2   -1    0    0    0  501 -0.00000000000E+00  0.00000000000E+00  0.26041696669E+02  0.26041696794E+02  0.25500000000E-02 0. -1.
          2   -1    0    0  501    0  0.00000000000E+00 -0.00000000000E+00 -0.89980951809E+03  0.89980951809E+03  0.25500000000E-02 0.  1.
    5000001    1    1    2    0    0  0.11072895872E+03 -0.39997665488E+01 -0.65551587456E+03  0.66925851674E+03  0.77000000000E+02 0.  0.
   -5000001    1    1    2    0    0 -0.11072895872E+03  0.39997665488E+01 -0.21825194686E+03  0.25659269814E+03  0.77000000000E+02 0.  0.
<mgrwt>
<rscale>  0 0.30615399E+03</rscale>
<asrwt>0</asrwt>
<pdfrwt beam="1">  1        2 0.13843221E+00 0.30615399E+03</pdfrwt>
<pdfrwt beam="2">  1       -2 0.40064156E-02 0.30615399E+03</pdfrwt>
<totfact> 0.83425379E+03</totfact>
</mgrwt>
</event>
<event>
 4    1  0.6148427E-004  0.2914638E+03  0.7818608E-02  0.1089587E+00
         -2   -1    0    0    0  501 -0.00000000000E+00  0.00000000000E+00  0.12035548691E+02  0.12035548961E+02  0.25500000000E-02 0. -1.
          2   -1    0    0  501    0  0.00000000000E+00 -0.00000000000E+00 -0.17645884013E+04  0.17645884013E+04  0.25500000000E-02 0.  1.
    5000001    1    1    2    0    0 -0.59166654047E+02  0.10840367940E+03 -0.83036164894E+03  0.84301928726E+03  0.77000000000E+02 0.  0.
   -5000001    1    1    2    0    0  0.59166654047E+02 -0.10840367940E+03 -0.92219120368E+03  0.93360466301E+03  0.77000000000E+02 0.  0.
<mgrwt>
<rscale>  0 0.29146382E+03</rscale>
<asrwt>0</asrwt>
<pdfrwt beam="1">  1        2 0.27147493E+00 0.29146382E+03</pdfrwt>
<pdfrwt beam="2">  1       -2 0.18516243E-02 0.29146382E+03</pdfrwt>
<totfact> 0.85629593E+03</totfact>
</mgrwt>
</event>
<event>
 4    1  0.6148427E-004  0.2349951E+03  0.7818608E-02  0.1123173E+00
          2   -1    0    0  501    0  0.00000000000E+00  0.00000000000E+00  0.15460987882E+03  0.15460987884E+03  0.25500000000E-02 0.  1.
         -2   -1    0    0    0  501 -0.00000000000E+00 -0.00000000000E+00 -0.89293635678E+02  0.89293635715E+02  0.25500000000E-02 0. -1.
    5000001    1    1    2    0    0 -0.86788022886E+02  0.91750628711E+01  0.49404692362E+02  0.12643641217E+03  0.77000000000E+02 0.  0.
   -5000001    1    1    2    0    0  0.86788022886E+02 -0.91750628711E+01  0.15911550784E+02  0.11746710239E+03  0.77000000000E+02 0.  0.
<mgrwt>
<rscale>  0 0.23499513E+03</rscale>
<asrwt>0</asrwt>
<pdfrwt beam="1">  1        2 0.23786135E-01 0.23499513E+03</pdfrwt>
<pdfrwt beam="2">  1       -2 0.13737482E-01 0.23499513E+03</pdfrwt>
<totfact> 0.88444792E+03</totfact>
</mgrwt>
</event>
<event>
 4    1  0.6148427E-004  0.1965023E+03  0.7818608E-02  0.1152724E+00
         -2   -1    0    0    0  501 -0.00000000000E+00  0.00000000000E+00  0.34885397741E+01  0.34885407061E+01  0.25500000000E-02 0. -1.
          2   -1    0    0  501    0  0.00000000000E+00 -0.00000000000E+00 -0.27671413202E+04  0.27671413202E+04  0.25500000000E-02 0.  1.
    5000001    1    1    2    0    0 -0.26836083811E+02  0.54128406799E+02 -0.15033003664E+04  0.15064830074E+04  0.77000000000E+02 0.  0.
   -5000001    1    1    2    0    0  0.26836083811E+02 -0.54128406799E+02 -0.12603524140E+04  0.12641468535E+04  0.77000000000E+02 0.  0.
<mgrwt>
<rscale>  0 0.19650225E+03</rscale>
<asrwt>0</asrwt>
<pdfrwt beam="1">  1        2 0.42571229E+00 0.19650225E+03</pdfrwt>
<pdfrwt beam="2">  1       -2 0.53670071E-03 0.19650225E+03</pdfrwt>
<totfact> 0.14849659E+04</totfact>
</mgrwt>
</event>
<event>
 4    1  0.6148427E-004  0.3205361E+03  0.7818608E-02  0.1075403E+00
         -2   -1    0    0    0  501 -0.00000000000E+00  0.00000000000E+00  0.70664424203E+02  0.70664424249E+02  0.25500000000E-02 0. -1.
          2   -1    0    0  501    0  0.00000000000E+00 -0.00000000000E+00 -0.36349043627E+03  0.36349043628E+03  0.25500000000E-02 0.  1.
    5000001    1    1    2    0    0  0.55368590369E+02  0.53364150118E+02  0.12950767638E+02  0.10959076466E+03  0.77000000000E+02 0.  0.
   -5000001    1    1    2    0    0 -0.55368590369E+02 -0.53364150118E+02 -0.30577677970E+03  0.32456409586E+03  0.77000000000E+02 0.  0.
<mgrwt>
<rscale>  0 0.32053607E+03</rscale>
<asrwt>0</asrwt>
<pdfrwt beam="1">  1        2 0.55921605E-01 0.32053607E+03</pdfrwt>
<pdfrwt beam="2">  1       -2 0.10871450E-01 0.32053607E+03</pdfrwt>
<totfact> 0.51470017E+03</totfact>
</mgrwt>
</event>
<event>
 4    1  0.6148427E-004  0.2922179E+03  0.7818608E-02  0.1089197E+00
          2   -1    0    0  501    0  0.00000000000E+00  0.00000000000E+00  0.51347383298E+03  0.51347383299E+03  0.25500000000E-02 0.  1.
         -2   -1    0    0    0  501 -0.00000000000E+00 -0.00000000000E+00 -0.41575282197E+02  0.41575282276E+02  0.25500000000E-02 0. -1.
    5000001    1    1    2    0    0 -0.48655600429E+02 -0.79994421857E+02  0.81027657028E+02  0.14581137193E+03  0.77000000000E+02 0.  0.
   -5000001    1    1    2    0    0  0.48655600429E+02  0.79994421857E+02  0.39087089376E+03  0.40923774333E+03  0.77000000000E+02 0.  0.
<mgrwt>
<rscale>  0 0.29221786E+03</rscale>
<asrwt>0</asrwt>
<pdfrwt beam="1">  1        2 0.78995977E-01 0.29221786E+03</pdfrwt>
<pdfrwt beam="2">  1       -2 0.63961970E-02 0.29221786E+03</pdfrwt>
<totfact> 0.80771569E+03</totfact>
</mgrwt>
</event>
<event>
 4    1  0.6148427E-004  0.1850229E+03  0.7818608E-02  0.1163028E+00
          2   -1    0    0  501    0  0.00000000000E+00  0.00000000000E+00  0.43955108246E+03  0.43955108246E+03  0.25500000000E-02 0.  1.
         -2   -1    0    0    0  501 -0.00000000000E+00 -0.00000000000E+00 -0.19470705595E+02  0.19470705762E+02  0.25500000000E-02 0. -1.
    5000001    1    1    2    0    0 -0.38473142851E+02  0.30043876115E+02  0.17108524937E+03  0.19386072260E+03  0.77000000000E+02 0.  0.
   -5000001    1    1    2    0    0  0.38473142851E+02 -0.30043876115E+02  0.24899512749E+03  0.26516106563E+03  0.77000000000E+02 0.  0.
<mgrwt>
<rscale>  0 0.18502291E+03</rscale>
<asrwt>0</asrwt>
<pdfrwt beam="1">  1        2 0.67623245E-01 0.18502291E+03</pdfrwt>
<pdfrwt beam="2">  1       -2 0.29954931E-02 0.18502291E+03</pdfrwt>
<totfact> 0.29326916E+04</totfact>
</mgrwt>
</event>
<event>
 4    1  0.6148427E-004  0.2068060E+03  0.7818608E-02  0.1144121E+00
          2   -1    0    0  501    0  0.00000000000E+00  0.00000000000E+00  0.12281948843E+04  0.12281948843E+04  0.25500000000E-02 0.  1.
         -2   -1    0    0    0  501 -0.00000000000E+00 -0.00000000000E+00 -0.87056071257E+01  0.87056074992E+01  0.25500000000E-02 0. -1.
    5000001    1    1    2    0    0  0.46586192835E+02  0.40668280934E+02  0.79302011968E+03  0.79914585193E+03  0.77000000000E+02 0.  0.
   -5000001    1    1    2    0    0 -0.46586192835E+02 -0.40668280934E+02  0.42646915750E+03  0.43775463988E+03  0.77000000000E+02 0.  0.
<mgrwt>
<rscale>  0 0.20680602E+03</rscale>
<asrwt>0</asrwt>
<pdfrwt beam="1">  1        2 0.18895321E+00 0.20680602E+03</pdfrwt>
<pdfrwt beam="2">  1       -2 0.13393232E-02 0.20680602E+03</pdfrwt>
<totfact> 0.26355763E+04</totfact>
</mgrwt>
</event>
<event>
 4    1  0.6148427E-004  0.1870343E+03  0.7818608E-02  0.1161164E+00
         -2   -1    0    0    0  501 -0.00000000000E+00  0.00000000000E+00  0.56093675011E+02  0.56093675069E+02  0.25500000000E-02 0. -1.
          2   -1    0    0  501    0  0.00000000000E+00 -0.00000000000E+00 -0.15590812312E+03  0.15590812314E+03  0.25500000000E-02 0.  1.
    5000001    1    1    2    0    0 -0.26331945403E+02 -0.27263698067E+02 -0.92011189265E+02  0.12582424063E+03  0.77000000000E+02 0.  0.
   -5000001    1    1    2    0    0  0.26331945403E+02  0.27263698067E+02 -0.78032588420E+01  0.86177557575E+02  0.77000000000E+02 0.  0.
<mgrwt>
<rscale>  0 0.18703432E+03</rscale>
<asrwt>0</asrwt>
<pdfrwt beam="1">  1        2 0.23985865E-01 0.18703432E+03</pdfrwt>
<pdfrwt beam="2">  1       -2 0.86297962E-02 0.18703432E+03</pdfrwt>
<totfact> 0.18125150E+04</totfact>
</mgrwt>
</event>
<event>
 4    1  0.6148427E-004  0.2275401E+03  0.7818608E-02  0.1128383E+00
         -2   -1    0    0    0  501 -0.00000000000E+00  0.00000000000E+00  0.46131869196E+01  0.46131876244E+01  0.25500000000E-02 0. -1.
          2   -1    0    0  501    0  0.00000000000E+00 -0.00000000000E+00 -0.28057868905E+04  0.28057868905E+04  0.25500000000E-02 0.  1.
    5000001    1    1    2    0    0  0.35820138594E+02 -0.31425064038E+02 -0.54987444750E+03  0.55728047246E+03  0.77000000000E+02 0.  0.
   -5000001    1    1    2    0    0 -0.35820138594E+02  0.31425064038E+02 -0.22512992561E+04  0.22531196057E+04  0.77000000000E+02 0.  0.
<mgrwt>
<rscale>  0 0.22754007E+03</rscale>
<asrwt>0</asrwt>
<pdfrwt beam="1">  1        2 0.43165816E+00 0.22754007E+03</pdfrwt>
<pdfrwt beam="2">  1       -2 0.70972336E-03 0.22754007E+03</pdfrwt>
<totfact> 0.94723435E+03</totfact>
</mgrwt>
</event>
<event>
 4    1  0.6148427E-004  0.2769807E+03  0.7818608E-02  0.1097350E+00
         -2   -1    0    0    0  501 -0.00000000000E+00  0.00000000000E+00  0.17972744905E+02  0.17972745086E+02  0.25500000000E-02 0. -1.
          2   -1    0    0  501    0  0.00000000000E+00 -0.00000000000E+00 -0.10671482042E+04  0.10671482042E+04  0.25500000000E-02 0.  1.
    5000001    1    1    2    0    0 -0.89463998168E+02  0.68973385444E+02 -0.43791515146E+03  0.45875899419E+03  0.77000000000E+02 0.  0.
   -5000001    1    1    2    0    0  0.89463998168E+02 -0.68973385444E+02 -0.61126030786E+03  0.62636195513E+03  0.77000000000E+02 0.  0.
<mgrwt>
<rscale>  0 0.27698074E+03</rscale>
<asrwt>0</asrwt>
<pdfrwt beam="1">  1        2 0.16417660E+00 0.27698074E+03</pdfrwt>
<pdfrwt beam="2">  1       -2 0.27650385E-02 0.27698074E+03</pdfrwt>
<totfact> 0.11412174E+04</totfact>
</mgrwt>
</event>
<event>
 4    1  0.6148427E-004  0.2033572E+03  0.7818608E-02  0.1146937E+00
         -2   -1    0    0    0  501 -0.00000000000E+00  0.00000000000E+00  0.17688591454E+02  0.17688591638E+02  0.25500000000E-02 0. -1.
          2   -1    0    0  501    0  0.00000000000E+00 -0.00000000000E+00 -0.58447469025E+03  0.58447469026E+03  0.25500000000E-02 0.  1.
    5000001    1    1    2    0    0 -0.34642589765E+02  0.42816459489E+02 -0.39324094900E+03  0.40447595998E+03  0.77000000000E+02 0.  0.
   -5000001    1    1    2    0    0  0.34642589765E+02 -0.42816459489E+02 -0.17354514979E+03  0.19768732191E+03  0.77000000000E+02 0.  0.
<mgrwt>
<rscale>  0 0.20335716E+03</rscale>
<asrwt>0</asrwt>
<pdfrwt beam="1">  1        2 0.89919168E-01 0.20335716E+03</pdfrwt>
<pdfrwt beam="2">  1       -2 0.27213222E-02 0.20335716E+03</pdfrwt>
<totfact> 0.24786872E+04</totfact>
</mgrwt>
</event>
<event>
 4    1  0.6148427E-004  0.2268370E+03  0.7818608E-02  0.1128886E+00
          2   -1    0    0  501    0  0.00000000000E+00  0.00000000000E+00  0.38641996998E+02  0.38641997082E+02  0.25500000000E-02 0.  1.
         -2   -1    0    0    0  501 -0.00000000000E+00 -0.00000000000E+00 -0.33289580833E+03  0.33289580834E+03  0.25500000000E-02 0. -1.
    5000001    1    1    2    0    0 -0.68183957622E+02 -0.41468918582E+01 -0.69115262569E+02  0.12398454867E+03  0.77000000000E+02 0.  0.
   -5000001    1    1    2    0    0  0.68183957622E+02  0.41468918582E+01 -0.22513854876E+03  0.24755325675E+03  0.77000000000E+02 0.  0.
<mgrwt>
<rscale>  0 0.22683702E+03</rscale>
<asrwt>0</asrwt>
<pdfrwt beam="1">  1        2 0.59449228E-02 0.22683702E+03</pdfrwt>
<pdfrwt beam="2">  1       -2 0.51214738E-01 0.22683702E+03</pdfrwt>
<totfact> 0.45051282E+03</totfact>
</mgrwt>
</event>
<event>
 4    1  0.6148427E-004  0.3258484E+03  0.7818608E-02  0.1072989E+00
          2   -1    0    0  501    0  0.00000000000E+00  0.00000000000E+00  0.11149321619E+04  0.11149321619E+04  0.25500000000E-02 0.  1.
         -2   -1    0    0    0  501 -0.00000000000E+00 -0.00000000000E+00 -0.23807989653E+02  0.23807989789E+02  0.25500000000E-02 0. -1.
    5000001    1    1    2    0    0 -0.12837105199E+02 -0.14269884692E+03  0.57825965618E+03  0.60070040965E+03  0.77000000000E+02 0.  0.
   -5000001    1    1    2    0    0  0.12837105199E+02  0.14269884692E+03  0.51286451611E+03  0.53803974209E+03  0.77000000000E+02 0.  0.
<mgrwt>
<rscale>  0 0.32584839E+03</rscale>
<asrwt>0</asrwt>
<pdfrwt beam="1">  1        2 0.17152807E+00 0.32584839E+03</pdfrwt>
<pdfrwt beam="2">  1       -2 0.36627667E-02 0.32584839E+03</pdfrwt>
<totfact> 0.70491183E+03</totfact>
</mgrwt>
</event>
<event>
 4    1  0.6148427E-004  0.3158063E+03  0.7818608E-02  0.1077596E+00
         -2   -1    0    0    0  501 -0.00000000000E+00  0.00000000000E+00  0.18381325817E+02  0.18381325993E+02  0.25500000000E-02 0. -1.
          2   -1    0    0  501    0  0.00000000000E+00 -0.00000000000E+00 -0.13564526696E+04  0.13564526696E+04  0.25500000000E-02 0.  1.
    5000001    1    1    2    0    0  0.11871689743E+03 -0.58523105593E+02 -0.83683930873E+03  0.85073361533E+03  0.77000000000E+02 0.  0.
   -5000001    1    1    2    0    0 -0.11871689743E+03  0.58523105593E+02 -0.50123203503E+03  0.52410038024E+03  0.77000000000E+02 0.  0.
<mgrwt>
<rscale>  0 0.31580626E+03</rscale>
<asrwt>0</asrwt>
<pdfrwt beam="1">  1        2 0.20868495E+00 0.31580626E+03</pdfrwt>
<pdfrwt beam="2">  1       -2 0.28278974E-02 0.31580626E+03</pdfrwt>
<totfact> 0.75726745E+03</totfact>
</mgrwt>
</event>
<event>
 4    1  0.6148427E-004  0.2606323E+03  0.7818608E-02  0.1106764E+00
          2   -1    0    0  501    0  0.00000000000E+00  0.00000000000E+00  0.39855234583E+04  0.39855234583E+04  0.25500000000E-02 0.  1.
         -2   -1    0    0    0  501 -0.00000000000E+00 -0.00000000000E+00 -0.42609960134E+01  0.42609967764E+01  0.25500000000E-02 0. -1.
    5000001    1    1    2    0    0  0.10397846499E+03  0.15402994589E+02  0.19580581802E+04  0.19623887511E+04  0.77000000000E+02 0.  0.
   -5000001    1    1    2    0    0 -0.10397846499E+03 -0.15402994589E+02  0.20232042820E+04  0.20273957039E+04  0.77000000000E+02 0.  0.
<mgrwt>
<rscale>  0 0.26063232E+03</rscale>
<asrwt>0</asrwt>
<pdfrwt beam="1">  1        2 0.61315637E+00 0.26063232E+03</pdfrwt>
<pdfrwt beam="2">  1       -2 0.65553906E-03 0.26063232E+03</pdfrwt>
<totfact> 0.18089103E+03</totfact>
</mgrwt>
</event>
<event>
 4    1  0.6148427E-004  0.2663869E+03  0.7818608E-02  0.1103365E+00
         -2   -1    0    0    0  501 -0.00000000000E+00  0.00000000000E+00  0.86214944332E+01  0.86214948103E+01  0.25500000000E-02 0. -1.
          2   -1    0    0  501    0  0.00000000000E+00 -0.00000000000E+00 -0.20577050960E+04  0.20577050960E+04  0.25500000000E-02 0.  1.
    5000001    1    1    2    0    0  0.74831955357E+01  0.67618444183E+02 -0.16819669999E+04  0.16851024423E+04  0.77000000000E+02 0.  0.
   -5000001    1    1    2    0    0 -0.74831955357E+01 -0.67618444183E+02 -0.36711660170E+03  0.38122414857E+03  0.77000000000E+02 0.  0.
<mgrwt>
<rscale>  0 0.26638689E+03</rscale>
<asrwt>0</asrwt>
<pdfrwt beam="1">  1        2 0.31656962E+00 0.26638689E+03</pdfrwt>
<pdfrwt beam="2">  1       -2 0.13263854E-02 0.26638689E+03</pdfrwt>
<totfact> 0.97792647E+03</totfact>
</mgrwt>
</event>
<event>
 4    1  0.6148427E-004  0.2805504E+03  0.7818608E-02  0.1095389E+00
          2   -1    0    0  501    0  0.00000000000E+00  0.00000000000E+00  0.33500018834E+03  0.33500018835E+03  0.25500000000E-02 0.  1.
         -2   -1    0    0    0  501 -0.00000000000E+00 -0.00000000000E+00 -0.58737683191E+02  0.58737683247E+02  0.25500000000E-02 0. -1.
    5000001    1    1    2    0    0  0.24840667666E+01 -0.11722312475E+03  0.13930829314E+03  0.19769479533E+03  0.77000000000E+02 0.  0.
   -5000001    1    1    2    0    0 -0.24840667666E+01  0.11722312475E+03  0.13695421201E+03  0.19604307626E+03  0.77000000000E+02 0.  0.
<mgrwt>
<rscale>  0 0.28055042E+03</rscale>
<asrwt>0</asrwt>
<pdfrwt beam="1">  1        2 0.51538490E-01 0.28055042E+03</pdfrwt>
<pdfrwt beam="2">  1       -2 0.90365668E-02 0.28055042E+03</pdfrwt>
<totfact> 0.75154285E+03</totfact>
</mgrwt>
</event>
<event>
 4    1  0.6148427E-004  0.9515809E+03  0.7818608E-02  0.9363305E-01
         -2   -1    0    0    0  501 -0.00000000000E+00  0.00000000000E+00  0.10700664835E+03  0.10700664838E+03  0.25500000000E-02 0. -1.
          2   -1    0    0  501    0  0.00000000000E+00 -0.00000000000E+00 -0.21155374786E+04  0.21155374786E+04  0.25500000000E-02 0.  1.
    5000001    1    1    2    0    0 -0.27576877210E+03 -0.29444282058E+03 -0.15653163472E+04  0.16182982596E+04  0.77000000000E+02 0.  0.
   -5000001    1    1    2    0    0  0.27576877210E+03  0.29444282058E+03 -0.44321448306E+03  0.60424586738E+03  0.77000000000E+02 0.  0.
<mgrwt>
<rscale>  0 0.95158095E+03</rscale>
<asrwt>0</asrwt>
<pdfrwt beam="1">  1        2 0.32546727E+00 0.95158095E+03</pdfrwt>
<pdfrwt beam="2">  1       -2 0.16462563E-01 0.95158095E+03</pdfrwt>
<totfact> 0.17389521E+02</totfact>
</mgrwt>
</event>
<event>
 4    1  0.6148427E-004  0.2253331E+03  0.7818608E-02  0.1129968E+00
          2   -1    0    0  501    0  0.00000000000E+00  0.00000000000E+00  0.27126953456E+03  0.27126953457E+03  0.25500000000E-02 0.  1.
         -2   -1    0    0    0  501 -0.00000000000E+00 -0.00000000000E+00 -0.46793873111E+02  0.46793873180E+02  0.25500000000E-02 0. -1.
    5000001    1    1    2    0    0  0.51061497623E+02 -0.50246228497E+02  0.16927450037E+03  0.19928576591E+03  0.77000000000E+02 0.  0.
   -5000001    1    1    2    0    0 -0.51061497623E+02  0.50246228497E+02  0.55201161077E+02  0.11877764184E+03  0.77000000000E+02 0.  0.
<mgrwt>
<rscale>  0 0.22533311E+03</rscale>
<asrwt>0</asrwt>
<pdfrwt beam="1">  1        2 0.41733774E-01 0.22533311E+03</pdfrwt>
<pdfrwt beam="2">  1       -2 0.71990575E-02 0.22533311E+03</pdfrwt>
<totfact> 0.13305582E+04</totfact>
</mgrwt>
</event>
<event>
 4    1  0.6148427E-004  0.3511661E+03  0.7818608E-02  0.1062137E+00
          2   -1    0    0  501    0  0.00000000000E+00  0.00000000000E+00  0.74174068831E+03  0.74174068831E+03  0.25500000000E-02 0.  1.
         -2   -1    0    0    0  501 -0.00000000000E+00 -0.00000000000E+00 -0.41563588345E+02  0.41563588424E+02  0.25500000000E-02 0. -1.
    5000001    1    1    2    0    0 -0.47497055522E+02 -0.14933539603E+03  0.39142199030E+03  0.42859911955E+03  0.77000000000E+02 0.  0.
   -5000001    1    1    2    0    0  0.47497055522E+02  0.14933539603E+03  0.30875510966E+03  0.35470515718E+03  0.77000000000E+02 0.  0.
<mgrwt>
<rscale>  0 0.35116608E+03</rscale>
<asrwt>0</asrwt>
<pdfrwt beam="1">  1        2 0.11411395E+00 0.35116608E+03</pdfrwt>
<pdfrwt beam="2">  1       -2 0.63943985E-02 0.35116608E+03</pdfrwt>
<totfact> 0.52586837E+03</totfact>
</mgrwt>
</event>
<event>
 4    1  0.6148427E-004  0.2400237E+03  0.7818608E-02  0.1119777E+00
         -2   -1    0    0    0  501 -0.00000000000E+00  0.00000000000E+00  0.13068546816E+02  0.13068547065E+02  0.25500000000E-02 0. -1.
          2   -1    0    0  501    0  0.00000000000E+00 -0.00000000000E+00 -0.11020997926E+04  0.11020997926E+04  0.25500000000E-02 0.  1.
    5000001    1    1    2    0    0 -0.56119394679E+02 -0.72445854906E+02 -0.58503370218E+03  0.59715259443E+03  0.77000000000E+02 0.  0.
   -5000001    1    1    2    0    0  0.56119394679E+02  0.72445854906E+02 -0.50399754362E+03  0.51801574525E+03  0.77000000000E+02 0.  0.
<mgrwt>
<rscale>  0 0.24002369E+03</rscale>
<asrwt>0</asrwt>
<pdfrwt beam="1">  1        2 0.16955374E+00 0.24002369E+03</pdfrwt>
<pdfrwt beam="2">  1       -2 0.20105466E-02 0.24002369E+03</pdfrwt>
<totfact> 0.17327379E+04</totfact>
</mgrwt>
</event>
<event>
 4    1  0.6148427E-004  0.2581086E+03  0.7818608E-02  0.1108285E+00
          2   -1    0    0  501    0  0.00000000000E+00  0.00000000000E+00  0.26192051342E+03  0.26192051343E+03  0.25500000000E-02 0.  1.
         -2   -1    0    0    0  501 -0.00000000000E+00 -0.00000000000E+00 -0.63588016829E+02  0.63588016880E+02  0.25500000000E-02 0. -1.
    5000001    1    1    2    0    0  0.96483742780E+02 -0.16401669174E+02  0.14189379635E+03  0.18878817975E+03  0.77000000000E+02 0.  0.
   -5000001    1    1    2    0    0 -0.96483742780E+02  0.16401669174E+02  0.56438700247E+02  0.13672035056E+03  0.77000000000E+02 0.  0.
<mgrwt>
<rscale>  0 0.25810855E+03</rscale>
<asrwt>0</asrwt>
<pdfrwt beam="1">  1        2 0.40295463E-01 0.25810855E+03</pdfrwt>
<pdfrwt beam="2">  1       -2 0.97827719E-02 0.25810855E+03</pdfrwt>
<totfact> 0.86093386E+03</totfact>
</mgrwt>
</event>
<event>
 4    1  0.6148427E-004  0.1934742E+03  0.7818608E-02  0.1155365E+00
         -2   -1    0    0    0  501 -0.00000000000E+00  0.00000000000E+00  0.40956564661E+02  0.40956564741E+02  0.25500000000E-02 0. -1.
          2   -1    0    0  501    0  0.00000000000E+00 -0.00000000000E+00 -0.22848768914E+03  0.22848768915E+03  0.25500000000E-02 0.  1.
    5000001    1    1    2    0    0 -0.56092288786E+02  0.15567310794E+02 -0.84915328558E+02  0.12856243250E+03  0.77000000000E+02 0.  0.
   -5000001    1    1    2    0    0  0.56092288786E+02 -0.15567310794E+02 -0.10261579592E+03  0.14088182139E+03  0.77000000000E+02 0.  0.
<mgrwt>
<rscale>  0 0.19347424E+03</rscale>
<asrwt>0</asrwt>
<pdfrwt beam="1">  1        2 0.35151952E-01 0.19347424E+03</pdfrwt>
<pdfrwt beam="2">  1       -2 0.63010101E-02 0.19347424E+03</pdfrwt>
<totfact> 0.19442661E+04</totfact>
</mgrwt>
</event>
<event>
 4    1  0.6148427E-004  0.2084491E+03  0.7818608E-02  0.1142800E+00
          2   -1    0    0  501    0  0.00000000000E+00  0.00000000000E+00  0.10298137786E+02  0.10298138101E+02  0.25500000000E-02 0.  1.
         -2   -1    0    0    0  501 -0.00000000000E+00 -0.00000000000E+00 -0.10548270292E+04  0.10548270292E+04  0.25500000000E-02 0. -1.
    5000001    1    1    2    0    0 -0.27776768147E+02  0.64513888127E+02 -0.52433151000E+03  0.53458967721E+03  0.77000000000E+02 0.  0.
   -5000001    1    1    2    0    0  0.27776768147E+02 -0.64513888127E+02 -0.52019738142E+03  0.53053549009E+03  0.77000000000E+02 0.  0.
<mgrwt>
<rscale>  0 0.20844908E+03</rscale>
<asrwt>0</asrwt>
<pdfrwt beam="1">  1        2 0.15843297E-02 0.20844908E+03</pdfrwt>
<pdfrwt beam="2">  1       -2 0.16228100E+00 0.20844908E+03</pdfrwt>
<totfact> 0.19255479E+03</totfact>
</mgrwt>
</event>
<event>
 4    1  0.6148427E-004  0.3030259E+03  0.7818608E-02  0.1083738E+00
          2   -1    0    0  501    0  0.00000000000E+00  0.00000000000E+00  0.38584074379E+03  0.38584074380E+03  0.25500000000E-02 0.  1.
         -2   -1    0    0    0  501 -0.00000000000E+00 -0.00000000000E+00 -0.59496499673E+02  0.59496499727E+02  0.25500000000E-02 0. -1.
    5000001    1    1    2    0    0 -0.74956439950E+02  0.10018215864E+03  0.10873132815E+03  0.18277427204E+03  0.77000000000E+02 0.  0.
   -5000001    1    1    2    0    0  0.74956439950E+02 -0.10018215864E+03  0.21761291597E+03  0.26256297149E+03  0.77000000000E+02 0.  0.
<mgrwt>
<rscale>  0 0.30302590E+03</rscale>
<asrwt>0</asrwt>
<pdfrwt beam="1">  1        2 0.59360112E-01 0.30302590E+03</pdfrwt>
<pdfrwt beam="2">  1       -2 0.91533080E-02 0.30302590E+03</pdfrwt>
<totfact> 0.63355455E+03</totfact>
</mgrwt>
</event>
<event>
 4    1  0.6148427E-004  0.2592049E+03  0.7818608E-02  0.1107622E+00
          2   -1    0    0  501    0  0.00000000000E+00  0.00000000000E+00  0.38855109721E+03  0.38855109722E+03  0.25500000000E-02 0.  1.
         -2   -1    0    0    0  501 -0.00000000000E+00 -0.00000000000E+00 -0.43229315645E+02  0.43229315720E+02  0.25500000000E-02 0. -1.
    5000001    1    1    2    0    0  0.92692987875E+02 -0.46541815632E+02  0.15521639007E+03  0.20193874901E+03  0.77000000000E+02 0.  0.
   -5000001    1    1    2    0    0 -0.92692987875E+02  0.46541815632E+02  0.19010539149E+03  0.22984166393E+03  0.77000000000E+02 0.  0.
<mgrwt>
<rscale>  0 0.25920492E+03</rscale>
<asrwt>0</asrwt>
<pdfrwt beam="1">  1        2 0.59777091E-01 0.25920492E+03</pdfrwt>
<pdfrwt beam="2">  1       -2 0.66506640E-02 0.25920492E+03</pdfrwt>
<totfact> 0.10292638E+04</totfact>
</mgrwt>
</event>
<event>
 4    1  0.6148427E-004  0.1943004E+03  0.7818608E-02  0.1154639E+00
          2   -1    0    0  501    0  0.00000000000E+00  0.00000000000E+00  0.13916553408E+04  0.13916553408E+04  0.25500000000E-02 0.  1.
         -2   -1    0    0    0  501 -0.00000000000E+00 -0.00000000000E+00 -0.67819689325E+01  0.67819694119E+01  0.25500000000E-02 0. -1.
    5000001    1    1    2    0    0 -0.33589699195E+02 -0.28832200396E+02  0.97575787294E+03  0.97979180966E+03  0.77000000000E+02 0.  0.
   -5000001    1    1    2    0    0  0.33589699195E+02  0.28832200396E+02  0.40911549892E+03  0.41864550055E+03  0.77000000000E+02 0.  0.
<mgrwt>
<rscale>  0 0.19430042E+03</rscale>
<asrwt>0</asrwt>
<pdfrwt beam="1">  1        2 0.21410094E+00 0.19430042E+03</pdfrwt>
<pdfrwt beam="2">  1       -2 0.10433793E-02 0.19430042E+03</pdfrwt>
<totfact> 0.30671842E+04</totfact>
</mgrwt>
</event>
<event>
 4    1  0.6148427E-004  0.2580920E+03  0.7818608E-02  0.1108295E+00
          2   -1    0    0  501    0  0.00000000000E+00  0.00000000000E+00  0.10313288570E+04  0.10313288570E+04  0.25500000000E-02 0.  1.
         -2   -1    0    0    0  501 -0.00000000000E+00 -0.00000000000E+00 -0.16147002446E+02  0.16147002648E+02  0.25500000000E-02 0. -1.
    5000001    1    1    2    0    0 -0.18324397411E+02 -0.81674409194E+02  0.75504111683E+03  0.76355915342E+03  0.77000000000E+02 0.  0.
   -5000001    1    1    2    0    0  0.18324397411E+02  0.81674409194E+02  0.26014073773E+03  0.28391670624E+03  0.77000000000E+02 0.  0.
<mgrwt>
<rscale>  0 0.25809200E+03</rscale>
<asrwt>0</asrwt>
<pdfrwt beam="1">  1        2 0.15866600E+00 0.25809200E+03</pdfrwt>
<pdfrwt beam="2">  1       -2 0.24841539E-02 0.25809200E+03</pdfrwt>
<totfact> 0.14018320E+04</totfact>
</mgrwt>
</event>
<event>
 4    1  0.6148427E-004  0.2501327E+03  0.7818608E-02  0.1113221E+00
          2   -1    0    0  501    0  0.00000000000E+00  0.00000000000E+00  0.64729969599E+03  0.64729969599E+03  0.25500000000E-02 0.  1.
         -2   -1    0    0    0  501 -0.00000000000E+00 -0.00000000000E+00 -0.24164371286E+02  0.24164371420E+02  0.25500000000E-02 0. -1.
    5000001    1    1    2    0    0  0.77104965952E+02  0.15511112630E+02  0.15214723576E+03  0.18778591997E+03  0.77000000000E+02 0.  0.
   -5000001    1    1    2    0    0 -0.77104965952E+02 -0.15511112630E+02  0.47098808894E+03  0.48367814744E+03  0.77000000000E+02 0.  0.
<mgrwt>
<rscale>  0 0.25013269E+03</rscale>
<asrwt>0</asrwt>
<pdfrwt beam="1">  1        2 0.99584571E-01 0.25013269E+03</pdfrwt>
<pdfrwt beam="2">  1       -2 0.37175955E-02 0.25013269E+03</pdfrwt>
<totfact> 0.14013864E+04</totfact>
</mgrwt>
</event>
<event>
 4    1  0.6148427E-004  0.3565945E+03  0.7818608E-02  0.1059940E+00
         -2   -1    0    0    0  501 -0.00000000000E+00  0.00000000000E+00  0.10104548074E+03  0.10104548078E+03  0.25500000000E-02 0. -1.
          2   -1    0    0  501    0  0.00000000000E+00 -0.00000000000E+00 -0.31460985096E+03  0.31460985097E+03  0.25500000000E-02 0.  1.
    5000001    1    1    2    0    0 -0.72791659794E+02  0.13881599240E+03 -0.14868632400E+03  0.22935807905E+03  0.77000000000E+02 0.  0.
   -5000001    1    1    2    0    0  0.72791659794E+02 -0.13881599240E+03 -0.64878046217E+02  0.18629725270E+03  0.77000000000E+02 0.  0.
<mgrwt>
<rscale>  0 0.35659447E+03</rscale>
<asrwt>0</asrwt>
<pdfrwt beam="1">  1        2 0.48401515E-01 0.35659447E+03</pdfrwt>
<pdfrwt beam="2">  1       -2 0.15545459E-01 0.35659447E+03</pdfrwt>
<totfact> 0.33615416E+03</totfact>
</mgrwt>
</event>
<event>
 4    1  0.6148427E-004  0.2068245E+03  0.7818608E-02  0.1144106E+00
          2   -1    0    0  501    0  0.00000000000E+00  0.00000000000E+00  0.52341531202E+02  0.52341531264E+02  0.25500000000E-02 0.  1.
         -2   -1    0    0    0  501 -0.00000000000E+00 -0.00000000000E+00 -0.20431363977E+03  0.20431363978E+03  0.25500000000E-02 0. -1.
    5000001    1    1    2    0    0  0.20829607467E+02 -0.63309163123E+02 -0.98294073749E+02  0.14153673593E+03  0.77000000000E+02 0.  0.
   -5000001    1    1    2    0    0 -0.20829607467E+02  0.63309163123E+02 -0.53678034815E+02  0.11511843512E+03  0.77000000000E+02 0.  0.
<mgrwt>
<rscale>  0 0.20682445E+03</rscale>
<asrwt>0</asrwt>
<pdfrwt beam="1">  1        2 0.80525433E-02 0.20682445E+03</pdfrwt>
<pdfrwt beam="2">  1       -2 0.31432867E-01 0.20682445E+03</pdfrwt>
<totfact> 0.77050040E+03</totfact>
</mgrwt>
</event>
<event>
 4    1  0.6148427E-004  0.2844712E+03  0.7818608E-02  0.1093272E+00
         -2   -1    0    0    0  501 -0.00000000000E+00  0.00000000000E+00  0.88240759436E+01  0.88240763120E+01  0.25500000000E-02 0. -1.
          2   -1    0    0  501    0  0.00000000000E+00 -0.00000000000E+00 -0.22927010205E+04  0.22927010205E+04  0.25500000000E-02 0.  1.
    5000001    1    1    2    0    0  0.64593724601E+02 -0.72468714245E+02 -0.57687916502E+03  0.59003613011E+03  0.77000000000E+02 0.  0.
   -5000001    1    1    2    0    0 -0.64593724601E+02  0.72468714245E+02 -0.17069977795E+04  0.17114889667E+04  0.77000000000E+02 0.  0.
<mgrwt>
<rscale>  0 0.28447122E+03</rscale>
<asrwt>0</asrwt>
<pdfrwt beam="1">  1        2 0.35272276E+00 0.28447122E+03</pdfrwt>
<pdfrwt beam="2">  1       -2 0.13575520E-02 0.28447122E+03</pdfrwt>
<totfact> 0.70937065E+03</totfact>
</mgrwt>
</event>
<event>
 4    1  0.6148427E-004  0.2493556E+03  0.7818608E-02  0.1113713E+00
         -2   -1    0    0    0  501 -0.00000000000E+00  0.00000000000E+00  0.13515653754E+02  0.13515653995E+02  0.25500000000E-02 0. -1.
          2   -1    0    0  501    0  0.00000000000E+00 -0.00000000000E+00 -0.11501144983E+04  0.11501144983E+04  0.25500000000E-02 0.  1.
    5000001    1    1    2    0    0  0.64345251615E+02  0.20236517726E+02 -0.23616296237E+03  0.25739419739E+03  0.77000000000E+02 0.  0.
   -5000001    1    1    2    0    0 -0.64345251615E+02 -0.20236517726E+02 -0.90043588217E+03  0.90623595490E+03  0.77000000000E+02 0.  0.
<mgrwt>
<rscale>  0 0.24935557E+03</rscale>
<asrwt>0</asrwt>
<pdfrwt beam="1">  1        2 0.17694062E+00 0.24935557E+03</pdfrwt>
<pdfrwt beam="2">  1       -2 0.20793323E-02 0.24935557E+03</pdfrwt>
<totfact> 0.15492437E+04</totfact>
</mgrwt>
</event>
<event>
 4    1  0.6148427E-004  0.2112125E+03  0.7818608E-02  0.1140609E+00
          2   -1    0    0  501    0  0.00000000000E+00  0.00000000000E+00  0.21972043303E+04  0.21972043303E+04  0.25500000000E-02 0.  1.
         -2   -1    0    0    0  501 -0.00000000000E+00 -0.00000000000E+00 -0.50758499700E+01  0.50758506105E+01  0.25500000000E-02 0. -1.
    5000001    1    1    2    0    0  0.56352323865E+02  0.34151995121E+02  0.78644887999E+03  0.79295194307E+03  0.77000000000E+02 0.  0.
   -5000001    1    1    2    0    0 -0.56352323865E+02 -0.34151995121E+02  0.14056796003E+04  0.14093282378E+04  0.77000000000E+02 0.  0.
<mgrwt>
<rscale>  0 0.21121250E+03</rscale>
<asrwt>0</asrwt>
<pdfrwt beam="1">  1        2 0.33803167E+00 0.21121250E+03</pdfrwt>
<pdfrwt beam="2">  1       -2 0.78089951E-03 0.21121250E+03</pdfrwt>
<totfact> 0.17701821E+04</totfact>
</mgrwt>
</event>
<event>
 4    1  0.6148427E-004  0.2754725E+03  0.7818608E-02  0.1098188E+00
          2   -1    0    0  501    0  0.00000000000E+00  0.00000000000E+00  0.77993354048E+03  0.77993354048E+03  0.25500000000E-02 0.  1.
         -2   -1    0    0    0  501 -0.00000000000E+00 -0.00000000000E+00 -0.24324215721E+02  0.24324215854E+02  0.25500000000E-02 0. -1.
    5000001    1    1    2    0    0 -0.10419223811E+03  0.42724244968E+02  0.32234166310E+03  0.35002075847E+03  0.77000000000E+02 0.  0.
   -5000001    1    1    2    0    0  0.10419223811E+03 -0.42724244968E+02  0.43326766166E+03  0.45423699786E+03  0.77000000000E+02 0.  0.
<mgrwt>
<rscale>  0 0.27547248E+03</rscale>
<asrwt>0</asrwt>
<pdfrwt beam="1">  1        2 0.11998975E+00 0.27547248E+03</pdfrwt>
<pdfrwt beam="2">  1       -2 0.37421877E-02 0.27547248E+03</pdfrwt>
<totfact> 0.11099442E+04</totfact>
</mgrwt>
</event>
<event>
 4    1  0.6148427E-004  0.3032162E+03  0.7818608E-02  0.1083644E+00
          2   -1    0    0  501    0  0.00000000000E+00  0.00000000000E+00  0.60865102416E+02  0.60865102469E+02  0.25500000000E-02 0.  1.
         -2   -1    0    0    0  501 -0.00000000000E+00 -0.00000000000E+00 -0.37763858459E+03  0.37763858460E+03  0.25500000000E-02 0. -1.
    5000001    1    1    2    0    0  0.57510930973E+02  0.11499543475E+03 -0.12526478528E+03  0.19532466211E+03  0.77000000000E+02 0.  0.
   -5000001    1    1    2    0    0 -0.57510930973E+02 -0.11499543475E+03 -0.19150869690E+03  0.24317902496E+03  0.77000000000E+02 0.  0.
<mgrwt>
<rscale>  0 0.30321617E+03</rscale>
<asrwt>0</asrwt>
<pdfrwt beam="1">  1        2 0.93638621E-02 0.30321617E+03</pdfrwt>
<pdfrwt beam="2">  1       -2 0.58098242E-01 0.30321617E+03</pdfrwt>
<totfact> 0.19703628E+03</totfact>
</mgrwt>
</event>
<event>
 4    1  0.6148427E-004  0.2384344E+03  0.7818608E-02  0.1120840E+00
         -2   -1    0    0    0  501 -0.00000000000E+00  0.00000000000E+00  0.48150119267E+03  0.48150119268E+03  0.25500000000E-02 0. -1.
          2   -1    0    0  501    0  0.00000000000E+00 -0.00000000000E+00 -0.29517562344E+02  0.29517562454E+02  0.25500000000E-02 0.  1.
    5000001    1    1    2    0    0 -0.27252687189E+02  0.75391594598E+02  0.13363047234E+03  0.17381802160E+03  0.77000000000E+02 0.  0.
   -5000001    1    1    2    0    0  0.27252687189E+02 -0.75391594598E+02  0.31835315799E+03  0.33720073353E+03  0.77000000000E+02 0.  0.
<mgrwt>
<rscale>  0 0.23843441E+03</rscale>
<asrwt>0</asrwt>
<pdfrwt beam="1">  1        2 0.45411636E-02 0.23843441E+03</pdfrwt>
<pdfrwt beam="2">  1       -2 0.74077104E-01 0.23843441E+03</pdfrwt>
<totfact> 0.29859031E+03</totfact>
</mgrwt>
</event>
<event>
 4    1  0.6148427E-004  0.2036481E+03  0.7818608E-02  0.1146697E+00
         -2   -1    0    0    0  501 -0.00000000000E+00  0.00000000000E+00  0.42852331978E+01  0.42852339565E+01  0.25500000000E-02 0. -1.
          2   -1    0    0  501    0  0.00000000000E+00 -0.00000000000E+00 -0.24195041146E+04  0.24195041146E+04  0.25500000000E-02 0.  1.
    5000001    1    1    2    0    0  0.62355817891E+02  0.13106580519E+02 -0.14393472776E+04  0.14428130912E+04  0.77000000000E+02 0.  0.
   -5000001    1    1    2    0    0 -0.62355817891E+02 -0.13106580519E+02 -0.97587160376E+03  0.98097625736E+03  0.77000000000E+02 0.  0.
<mgrwt>
<rscale>  0 0.20364813E+03</rscale>
<asrwt>0</asrwt>
<pdfrwt beam="1">  1        2 0.37223031E+00 0.20364813E+03</pdfrwt>
<pdfrwt beam="2">  1       -2 0.65926864E-03 0.20364813E+03</pdfrwt>
<totfact> 0.17180657E+04</totfact>
</mgrwt>
</event>
<event>
 4    1  0.6148427E-004  0.2161708E+03  0.7818608E-02  0.1136771E+00
          2   -1    0    0  501    0  0.00000000000E+00  0.00000000000E+00  0.12137921097E+04  0.12137921097E+04  0.25500000000E-02 0. -1.
         -2   -1    0    0    0  501 -0.00000000000E+00 -0.00000000000E+00 -0.96247521522E+01  0.96247524900E+01  0.25500000000E-02 0.  1.
    5000001    1    1    2    0    0 -0.71207894280E+02 -0.10975836053E+02  0.73630022889E+03  0.74381318908E+03  0.77000000000E+02 0.  0.
   -5000001    1    1    2    0    0  0.71207894280E+02  0.10975836053E+02  0.46786712864E+03  0.47960367309E+03  0.77000000000E+02 0.  0.
<mgrwt>
<rscale>  0 0.21617075E+03</rscale>
<asrwt>0</asrwt>
<pdfrwt beam="1">  1        2 0.18673718E+00 0.21617075E+03</pdfrwt>
<pdfrwt beam="2">  1       -2 0.14807317E-02 0.21617075E+03</pdfrwt>
<totfact> 0.23263717E+04</totfact>
</mgrwt>
</event>
<event>
 4    1  0.6148427E-004  0.2064432E+03  0.7818608E-02  0.1144414E+00
         -2   -1    0    0    0  501 -0.00000000000E+00  0.00000000000E+00  0.63179175248E+01  0.63179180394E+01  0.25500000000E-02 0. -1.
          2   -1    0    0  501    0  0.00000000000E+00 -0.00000000000E+00 -0.16864256596E+04  0.16864256596E+04  0.25500000000E-02 0.  1.
    5000001    1    1    2    0    0 -0.33463033493E+02  0.56109783266E+02 -0.66464913100E+03  0.67227639385E+03  0.77000000000E+02 0.  0.
   -5000001    1    1    2    0    0  0.33463033493E+02 -0.56109783266E+02 -0.10154586111E+04  0.10204671838E+04  0.77000000000E+02 0.  0.
<mgrwt>
<rscale>  0 0.20644320E+03</rscale>
<asrwt>0</asrwt>
<pdfrwt beam="1">  1        2 0.25944974E+00 0.20644320E+03</pdfrwt>
<pdfrwt beam="2">  1       -2 0.97198870E-03 0.20644320E+03</pdfrwt>
<totfact> 0.23823278E+04</totfact>
</mgrwt>
</event>
<event>
 4    1  0.6148427E-004  0.2493232E+03  0.7818608E-02  0.1113733E+00
          2   -1    0    0  501    0  0.00000000000E+00  0.00000000000E+00  0.92486897723E+03  0.92486897723E+03  0.25500000000E-02 0.  1.
         -2   -1    0    0    0  501 -0.00000000000E+00 -0.00000000000E+00 -0.16802939531E+02  0.16802939725E+02  0.25500000000E-02 0. -1.
    5000001    1    1    2    0    0  0.27588200944E+02  0.83798159102E+02  0.29253845197E+03  0.31510472257E+03  0.77000000000E+02 0.  0.
   -5000001    1    1    2    0    0 -0.27588200944E+02 -0.83798159102E+02  0.61552758573E+03  0.62656719439E+03  0.77000000000E+02 0.  0.
<mgrwt>
<rscale>  0 0.24932322E+03</rscale>
<asrwt>0</asrwt>
<pdfrwt beam="1">  1        2 0.14228757E+00 0.24932322E+03</pdfrwt>
<pdfrwt beam="2">  1       -2 0.25850670E-02 0.24932322E+03</pdfrwt>
<totfact> 0.15357298E+04</totfact>
</mgrwt>
</event>
<event>
 4    1  0.6148427E-004  0.1899148E+03  0.7818608E-02  0.1158538E+00
          2   -1    0    0  501    0  0.00000000000E+00  0.00000000000E+00  0.24726734680E+03  0.24726734681E+03  0.25500000000E-02 0.  1.
         -2   -1    0    0    0  501 -0.00000000000E+00 -0.00000000000E+00 -0.36466215613E+02  0.36466215702E+02  0.25500000000E-02 0. -1.
    5000001    1    1    2    0    0  0.23956069291E+02 -0.29854711709E+02  0.45217808219E+02  0.97153729971E+02  0.77000000000E+02 0.  0.
   -5000001    1    1    2    0    0 -0.23956069291E+02  0.29854711709E+02  0.16558332297E+03  0.18657983254E+03  0.77000000000E+02 0.  0.
<mgrwt>
<rscale>  0 0.18991476E+03</rscale>
<asrwt>0</asrwt>
<pdfrwt beam="1">  1        2 0.38041130E-01 0.18991476E+03</pdfrwt>
<pdfrwt beam="2">  1       -2 0.56101871E-02 0.18991476E+03</pdfrwt>
<totfact> 0.21285923E+04</totfact>
</mgrwt>
</event>
<event>
 4    1  0.6148427E-004  0.2434515E+03  0.7818608E-02  0.1117515E+00
         -2   -1    0    0    0  501 -0.00000000000E+00  0.00000000000E+00  0.16937315922E+02  0.16937316114E+02  0.25500000000E-02 0. -1.
          2   -1    0    0  501    0  0.00000000000E+00 -0.00000000000E+00 -0.87482291572E+03  0.87482291573E+03  0.25500000000E-02 0.  1.
    5000001    1    1    2    0    0 -0.25205240288E+02 -0.87357480823E+02 -0.33762345290E+03  0.35802964897E+03  0.77000000000E+02 0.  0.
   -5000001    1    1    2    0    0  0.25205240288E+02  0.87357480823E+02 -0.52026214690E+03  0.53373058287E+03  0.77000000000E+02 0.  0.
<mgrwt>
<rscale>  0 0.24345145E+03</rscale>
<asrwt>0</asrwt>
<pdfrwt beam="1">  1        2 0.13458811E+00 0.24345145E+03</pdfrwt>
<pdfrwt beam="2">  1       -2 0.26057416E-02 0.24345145E+03</pdfrwt>
<totfact> 0.16329425E+04</totfact>
</mgrwt>
</event>
<event>
 4    1  0.6148427E-004  0.2776734E+03  0.7818608E-02  0.1096966E+00
         -2   -1    0    0    0  501 -0.00000000000E+00  0.00000000000E+00  0.24047406241E+02  0.24047406376E+02  0.25500000000E-02 0.  1.
          2   -1    0    0  501    0  0.00000000000E+00 -0.00000000000E+00 -0.80156797304E+03  0.80156797304E+03  0.25500000000E-02 0. -1.
    5000001    1    1    2    0    0  0.35857238555E+02  0.10976473579E+03 -0.37820937024E+03  0.40287140196E+03  0.77000000000E+02 0.  0.
   -5000001    1    1    2    0    0 -0.35857238555E+02 -0.10976473579E+03 -0.39931119655E+03  0.42274397746E+03  0.77000000000E+02 0.  0.
<mgrwt>
<rscale>  0 0.27767341E+03</rscale>
<asrwt>0</asrwt>
<pdfrwt beam="1">  1        2 0.12331813E+00 0.27767341E+03</pdfrwt>
<pdfrwt beam="2">  1       -2 0.36996016E-02 0.27767341E+03</pdfrwt>
<totfact> 0.10909798E+04</totfact>
</mgrwt>
</event>
<event>
 4    1  0.6148427E-004  0.2589783E+03  0.7818608E-02  0.1107759E+00
          2   -1    0    0  501    0  0.00000000000E+00  0.00000000000E+00  0.81349219050E+03  0.81349219050E+03  0.25500000000E-02 0.  1.
         -2   -1    0    0    0  501 -0.00000000000E+00 -0.00000000000E+00 -0.20611678403E+02  0.20611678560E+02  0.25500000000E-02 0. -1.
    5000001    1    1    2    0    0 -0.15173788219E+02  0.81833678695E+02  0.59787081671E+03  0.60852732748E+03  0.77000000000E+02 0.  0.
   -5000001    1    1    2    0    0  0.15173788219E+02 -0.81833678695E+02  0.19500969539E+03  0.22557654158E+03  0.77000000000E+02 0.  0.
<mgrwt>
<rscale>  0 0.25897830E+03</rscale>
<asrwt>0</asrwt>
<pdfrwt beam="1">  1        2 0.12515262E+00 0.25897830E+03</pdfrwt>
<pdfrwt beam="2">  1       -2 0.31710280E-02 0.25897830E+03</pdfrwt>
<totfact> 0.13445194E+04</totfact>
</mgrwt>
</event>
<event>
 4    1  0.6148427E-004  0.3459257E+03  0.7818608E-02  0.1064300E+00
         -2   -1    0    0    0  501 -0.00000000000E+00  0.00000000000E+00  0.77028699967E+02  0.77028700010E+02  0.25500000000E-02 0. -1.
          2   -1    0    0  501    0  0.00000000000E+00 -0.00000000000E+00 -0.38837670685E+03  0.38837670686E+03  0.25500000000E-02 0.  1.
    5000001    1    1    2    0    0  0.25976060053E+02 -0.14389240071E+03 -0.22437297500E+03  0.27866110348E+03  0.77000000000E+02 0.  0.
   -5000001    1    1    2    0    0 -0.25976060053E+02  0.14389240071E+03 -0.86975031883E+02  0.18674430339E+03  0.77000000000E+02 0.  0.
<mgrwt>
<rscale>  0 0.34592573E+03</rscale>
<asrwt>0</asrwt>
<pdfrwt beam="1">  1        2 0.59750261E-01 0.34592573E+03</pdfrwt>
<pdfrwt beam="2">  1       -2 0.11850569E-01 0.34592573E+03</pdfrwt>
<totfact> 0.41739529E+03</totfact>
</mgrwt>
</event>
<event>
 4    1  0.6148427E-004  0.3308262E+03  0.7818608E-02  0.1070772E+00
         -2   -1    0    0    0  501 -0.00000000000E+00  0.00000000000E+00  0.37053870733E+02  0.37053870821E+02  0.25500000000E-02 0. -1.
          2   -1    0    0  501    0  0.00000000000E+00 -0.00000000000E+00 -0.73842457621E+03  0.73842457621E+03  0.25500000000E-02 0.  1.
    5000001    1    1    2    0    0 -0.91758922377E+02 -0.55300389545E+01 -0.83603641850E+02  0.14618088144E+03  0.77000000000E+02 0.  0.
   -5000001    1    1    2    0    0  0.91758922377E+02  0.55300389545E+01 -0.61776706362E+03  0.62929756560E+03  0.77000000000E+02 0.  0.
<mgrwt>
<rscale>  0 0.33082617E+03</rscale>
<asrwt>0</asrwt>
<pdfrwt beam="1">  1        2 0.11360377E+00 0.33082617E+03</pdfrwt>
<pdfrwt beam="2">  1       -2 0.57005961E-02 0.33082617E+03</pdfrwt>
<totfact> 0.63064821E+03</totfact>
</mgrwt>
</event>
<event>
 4    1  0.6148427E-004  0.2556872E+03  0.7818608E-02  0.1109762E+00
         -2   -1    0    0    0  501 -0.00000000000E+00  0.00000000000E+00  0.69649055721E+02  0.69649055767E+02  0.25500000000E-02 0. -1.
          2   -1    0    0  501    0  0.00000000000E+00 -0.00000000000E+00 -0.23466205012E+03  0.23466205013E+03  0.25500000000E-02 0.  1.
    5000001    1    1    2    0    0  0.62711430480E+02 -0.49951415186E+02 -0.15765815528E+03  0.19290661294E+03  0.77000000000E+02 0.  0.
   -5000001    1    1    2    0    0 -0.62711430480E+02  0.49951415186E+02 -0.73548391185E+01  0.11140449295E+03  0.77000000000E+02 0.  0.
<mgrwt>
<rscale>  0 0.25568723E+03</rscale>
<asrwt>0</asrwt>
<pdfrwt beam="1">  1        2 0.36101853E-01 0.25568723E+03</pdfrwt>
<pdfrwt beam="2">  1       -2 0.10715239E-01 0.25568723E+03</pdfrwt>
<totfact> 0.83833695E+03</totfact>
</mgrwt>
</event>
<event>
 4    1  0.6148427E-004  0.2092666E+03  0.7818608E-02  0.1142148E+00
          2   -1    0    0  501    0  0.00000000000E+00  0.00000000000E+00  0.13253462743E+04  0.13253462743E+04  0.25500000000E-02 0.  1.
         -2   -1    0    0    0  501 -0.00000000000E+00 -0.00000000000E+00 -0.82605764622E+01  0.82605768558E+01  0.25500000000E-02 0. -1.
    5000001    1    1    2    0    0  0.39682433602E+02  0.15546239077E+02  0.29789027833E+03  0.31061873577E+03  0.77000000000E+02 0.  0.
   -5000001    1    1    2    0    0 -0.39682433602E+02 -0.15546239077E+02  0.10191954195E+04  0.10229881154E+04  0.77000000000E+02 0.  0.
<mgrwt>
<rscale>  0 0.20926657E+03</rscale>
<asrwt>0</asrwt>
<pdfrwt beam="1">  1        2 0.20389942E+00 0.20926657E+03</pdfrwt>
<pdfrwt beam="2">  1       -2 0.12708580E-02 0.20926657E+03</pdfrwt>
<totfact> 0.25154671E+04</totfact>
</mgrwt>
</event>
<event>
 4    1  0.6148427E-004  0.2338984E+03  0.7818608E-02  0.1123926E+00
          2   -1    0    0  501    0  0.00000000000E+00  0.00000000000E+00  0.68448301126E+03  0.68448301126E+03  0.25500000000E-02 0.  1.
         -2   -1    0    0    0  501 -0.00000000000E+00 -0.00000000000E+00 -0.19981674698E+02  0.19981674861E+02  0.25500000000E-02 0. -1.
    5000001    1    1    2    0    0  0.19768131888E+02 -0.52220092770E+02  0.12730384212E+03  0.15891187918E+03  0.77000000000E+02 0.  0.
   -5000001    1    1    2    0    0 -0.19768131888E+02  0.52220092770E+02  0.53719749444E+03  0.54555280694E+03  0.77000000000E+02 0.  0.
<mgrwt>
<rscale>  0 0.23389841E+03</rscale>
<asrwt>0</asrwt>
<pdfrwt beam="1">  1        2 0.10530505E+00 0.23389841E+03</pdfrwt>
<pdfrwt beam="2">  1       -2 0.30741047E-02 0.23389841E+03</pdfrwt>
<totfact> 0.17351170E+04</totfact>
</mgrwt>
</event>
<event>
 4    1  0.6148427E-004  0.1801596E+03  0.7818608E-02  0.1167649E+00
          2   -1    0    0  501    0  0.00000000000E+00  0.00000000000E+00  0.81918856729E+03  0.81918856729E+03  0.25500000000E-02 0.  1.
         -2   -1    0    0    0  501 -0.00000000000E+00 -0.00000000000E+00 -0.99053801600E+01  0.99053804882E+01  0.25500000000E-02 0. -1.
    5000001    1    1    2    0    0  0.30318437733E+02 -0.31688963233E+02  0.47912803061E+03  0.48725359698E+03  0.77000000000E+02 0.  0.
   -5000001    1    1    2    0    0 -0.30318437733E+02  0.31688963233E+02  0.33015515652E+03  0.34184035080E+03  0.77000000000E+02 0.  0.
<mgrwt>
<rscale>  0 0.18015964E+03</rscale>
<asrwt>0</asrwt>
<pdfrwt beam="1">  1        2 0.12602905E+00 0.18015964E+03</pdfrwt>
<pdfrwt beam="2">  1       -2 0.15239041E-02 0.18015964E+03</pdfrwt>
<totfact> 0.38240803E+04</totfact>
</mgrwt>
</event>
<event>
 4    1  0.6148427E-004  0.1760147E+03  0.7818608E-02  0.1171717E+00
         -2   -1    0    0    0  501 -0.00000000000E+00  0.00000000000E+00  0.13967777288E+02  0.13967777521E+02  0.25500000000E-02 0. -1.
          2   -1    0    0  501    0  0.00000000000E+00 -0.00000000000E+00 -0.55451157581E+03  0.55451157582E+03  0.25500000000E-02 0.  1.
    5000001    1    1    2    0    0 -0.30712094583E+02  0.11014671305E+01 -0.17490751773E+03  0.19356158127E+03  0.77000000000E+02 0.  0.
   -5000001    1    1    2    0    0  0.30712094583E+02 -0.11014671305E+01 -0.36563628079E+03  0.37491777207E+03  0.77000000000E+02 0.  0.
<mgrwt>
<rscale>  0 0.17601471E+03</rscale>
<asrwt>0</asrwt>
<pdfrwt beam="1">  1        2 0.85309456E-01 0.17601471E+03</pdfrwt>
<pdfrwt beam="2">  1       -2 0.21488893E-02 0.17601471E+03</pdfrwt>
<totfact> 0.36798562E+04</totfact>
</mgrwt>
</event>
<event>
 4    1  0.6148427E-004  0.2011816E+03  0.7818608E-02  0.1148746E+00
          2   -1    0    0  501    0  0.00000000000E+00  0.00000000000E+00  0.19678555576E+04  0.19678555576E+04  0.25500000000E-02 0.  1.
         -2   -1    0    0    0  501 -0.00000000000E+00 -0.00000000000E+00 -0.51418984348E+01  0.51418990671E+01  0.25500000000E-02 0. -1.
    5000001    1    1    2    0    0  0.47604177936E+02 -0.37415390440E+02  0.12057313932E+04  0.12097037909E+04  0.77000000000E+02 0.  0.
   -5000001    1    1    2    0    0 -0.47604177936E+02  0.37415390440E+02  0.75698226599E+03  0.76329366578E+03  0.77000000000E+02 0.  0.
<mgrwt>
<rscale>  0 0.20118165E+03</rscale>
<asrwt>0</asrwt>
<pdfrwt beam="1">  1        2 0.30274673E+00 0.20118165E+03</pdfrwt>
<pdfrwt beam="2">  1       -2 0.79106208E-03 0.20118165E+03</pdfrwt>
<totfact> 0.22860273E+04</totfact>
</mgrwt>
</event>
<event>
 4    1  0.6148427E-004  0.4095347E+03  0.7818608E-02  0.1040527E+00
          2   -1    0    0  501    0  0.00000000000E+00  0.00000000000E+00  0.49992649601E+03  0.49992649602E+03  0.25500000000E-02 0.  1.
         -2   -1    0    0    0  501 -0.00000000000E+00 -0.00000000000E+00 -0.83871644558E+02  0.83871644597E+02  0.25500000000E-02 0. -1.
    5000001    1    1    2    0    0  0.12152128814E+03  0.13960076186E+03  0.14848143863E+03  0.24946248976E+03  0.77000000000E+02 0.  0.
   -5000001    1    1    2    0    0 -0.12152128814E+03 -0.13960076186E+03  0.26757341282E+03  0.33433565085E+03  0.77000000000E+02 0.  0.
<mgrwt>
<rscale>  0 0.40953465E+03</rscale>
<asrwt>0</asrwt>
<pdfrwt beam="1">  1        2 0.76911767E-01 0.40953465E+03</pdfrwt>
<pdfrwt beam="2">  1       -2 0.12903330E-01 0.40953465E+03</pdfrwt>
<totfact> 0.27505463E+03</totfact>
</mgrwt>
</event>
<event>
 4    1  0.6148427E-004  0.2021475E+03  0.7818608E-02  0.1147940E+00
          2   -1    0    0  501    0  0.00000000000E+00  0.00000000000E+00  0.13834546789E+04  0.13834546789E+04  0.25500000000E-02 0.  1.
         -2   -1    0    0    0  501 -0.00000000000E+00 -0.00000000000E+00 -0.73843449479E+01  0.73843453881E+01  0.25500000000E-02 0. -1.
    5000001    1    1    2    0    0 -0.77687330276E+01  0.35818248042E+02  0.31474349085E+03  0.32609165144E+03  0.77000000000E+02 0.  0.
   -5000001    1    1    2    0    0  0.77687330276E+01 -0.35818248042E+02  0.10613268431E+04  0.10647473729E+04  0.77000000000E+02 0.  0.
<mgrwt>
<rscale>  0 0.20214754E+03</rscale>
<asrwt>0</asrwt>
<pdfrwt beam="1">  1        2 0.21283924E+00 0.20214754E+03</pdfrwt>
<pdfrwt beam="2">  1       -2 0.11360528E-02 0.20214754E+03</pdfrwt>
<totfact> 0.27465445E+04</totfact>
</mgrwt>
</event>
<event>
 4    1  0.6148427E-004  0.2529466E+03  0.7818608E-02  0.1111457E+00
          2   -1    0    0  501    0  0.00000000000E+00  0.00000000000E+00  0.40225230047E+02  0.40225230128E+02  0.25500000000E-02 0.  1.
         -2   -1    0    0    0  501 -0.00000000000E+00 -0.00000000000E+00 -0.39764822131E+03  0.39764822132E+03  0.25500000000E-02 0. -1.
    5000001    1    1    2    0    0 -0.61823430843E+02  0.73354343573E+02 -0.22958008693E+03  0.26045923411E+03  0.77000000000E+02 0.  0.
   -5000001    1    1    2    0    0  0.61823430843E+02 -0.73354343573E+02 -0.12784290433E+03  0.17741421733E+03  0.77000000000E+02 0.  0.
<mgrwt>
<rscale>  0 0.25294657E+03</rscale>
<asrwt>0</asrwt>
<pdfrwt beam="1">  1        2 0.61884972E-02 0.25294657E+03</pdfrwt>
<pdfrwt beam="2">  1       -2 0.61176647E-01 0.25294657E+03</pdfrwt>
<totfact> 0.29902051E+03</totfact>
</mgrwt>
</event>
<event>
 4    1  0.6148427E-004  0.2291279E+03  0.7818608E-02  0.1127255E+00
          2   -1    0    0  501    0  0.00000000000E+00  0.00000000000E+00  0.26163100479E+04  0.26163100479E+04  0.25500000000E-02 0.  1.
         -2   -1    0    0    0  501 -0.00000000000E+00 -0.00000000000E+00 -0.50165696858E+01  0.50165703339E+01  0.25500000000E-02 0. -1.
    5000001    1    1    2    0    0 -0.31996923759E+02 -0.15758695416E+01  0.40703483661E+03  0.41549084792E+03  0.77000000000E+02 0.  0.
   -5000001    1    1    2    0    0  0.31996923759E+02  0.15758695416E+01  0.22042586416E+04  0.22058357703E+04  0.77000000000E+02 0.  0.
<mgrwt>
<rscale>  0 0.22912793E+03</rscale>
<asrwt>0</asrwt>
<pdfrwt beam="1">  1        2 0.40250999E+00 0.22912793E+03</pdfrwt>
<pdfrwt beam="2">  1       -2 0.77177856E-03 0.22912793E+03</pdfrwt>
<totfact> 0.10722469E+04</totfact>
</mgrwt>
</event>
<event>
 4    1  0.6148427E-004  0.3331593E+03  0.7818608E-02  0.1069747E+00
         -2   -1    0    0    0  501 -0.00000000000E+00  0.00000000000E+00  0.90974766010E+02  0.90974766046E+02  0.25500000000E-02 0. -1.
          2   -1    0    0  501    0  0.00000000000E+00 -0.00000000000E+00 -0.30501628366E+03  0.30501628367E+03  0.25500000000E-02 0.  1.
    5000001    1    1    2    0    0  0.14602960698E+03 -0.22210088216E+02 -0.10863781912E+03  0.19886958007E+03  0.77000000000E+02 0.  0.
   -5000001    1    1    2    0    0 -0.14602960698E+03  0.22210088216E+02 -0.10540369852E+03  0.19712146965E+03  0.77000000000E+02 0.  0.
<mgrwt>
<rscale>  0 0.33315933E+03</rscale>
<asrwt>0</asrwt>
<pdfrwt beam="1">  1        2 0.46925582E-01 0.33315933E+03</pdfrwt>
<pdfrwt beam="2">  1       -2 0.13996118E-01 0.33315933E+03</pdfrwt>
<totfact> 0.41315959E+03</totfact>
</mgrwt>
</event>
<event>
 4    1  0.6148427E-004  0.2227017E+03  0.7818608E-02  0.1131885E+00
          2   -1    0    0  501    0  0.00000000000E+00  0.00000000000E+00  0.16525431576E+03  0.16525431578E+03  0.25500000000E-02 0.  1.
         -2   -1    0    0    0  501 -0.00000000000E+00 -0.00000000000E+00 -0.75029871784E+02  0.75029871828E+02  0.25500000000E-02 0. -1.
    5000001    1    1    2    0    0  0.59103424190E+02 -0.51977557054E+01 -0.13487614986E+02  0.98138408248E+02  0.77000000000E+02 0.  0.
   -5000001    1    1    2    0    0 -0.59103424190E+02  0.51977557054E+01  0.10371205896E+03  0.14214577936E+03  0.77000000000E+02 0.  0.
<mgrwt>
<rscale>  0 0.22270169E+03</rscale>
<asrwt>0</asrwt>
<pdfrwt beam="1">  1        2 0.25423741E-01 0.22270169E+03</pdfrwt>
<pdfrwt beam="2">  1       -2 0.11543057E-01 0.22270169E+03</pdfrwt>
<totfact> 0.10849677E+04</totfact>
</mgrwt>
</event>
<event>
 4    1  0.6148427E-004  0.2165227E+03  0.7818608E-02  0.1136502E+00
          2   -1    0    0  501    0  0.00000000000E+00  0.00000000000E+00  0.16370154017E+03  0.16370154019E+03  0.25500000000E-02 0.  1.
         -2   -1    0    0    0  501 -0.00000000000E+00 -0.00000000000E+00 -0.71596903133E+02  0.71596903178E+02  0.25500000000E-02 0. -1.
    5000001    1    1    2    0    0  0.72686784425E+02 -0.13687538817E+02  0.26588108617E+02  0.11003019980E+03  0.77000000000E+02 0.  0.
   -5000001    1    1    2    0    0 -0.72686784425E+02  0.13687538817E+02  0.65516528417E+02  0.12526824356E+03  0.77000000000E+02 0.  0.
<mgrwt>
<rscale>  0 0.21652273E+03</rscale>
<asrwt>0</asrwt>
<pdfrwt beam="1">  1        2 0.25184852E-01 0.21652273E+03</pdfrwt>
<pdfrwt beam="2">  1       -2 0.11014908E-01 0.21652273E+03</pdfrwt>
<totfact> 0.11797490E+04</totfact>
</mgrwt>
</event>
<event>
 4    1  0.6148427E-004  0.2389252E+03  0.7818608E-02  0.1120511E+00
         -2   -1    0    0    0  501 -0.00000000000E+00  0.00000000000E+00  0.16204575986E+04  0.16204575986E+04  0.25500000000E-02 0. -1.
          2   -1    0    0  501    0  0.00000000000E+00 -0.00000000000E+00 -0.88069667163E+01  0.88069670855E+01  0.25500000000E-02 0.  1.
    5000001    1    1    2    0    0  0.61477225605E+01  0.88354481496E+02  0.65364882691E+03  0.66410096960E+03  0.77000000000E+02 0.  0.
   -5000001    1    1    2    0    0 -0.61477225605E+01 -0.88354481496E+02  0.95800180493E+03  0.96516359605E+03  0.77000000000E+02 0.  0.
<mgrwt>
<rscale>  0 0.23892523E+03</rscale>
<asrwt>0</asrwt>
<pdfrwt beam="1">  1        2 0.13549181E-02 0.23892523E+03</pdfrwt>
<pdfrwt beam="2">  1       -2 0.24930115E+00 0.23892523E+03</pdfrwt>
<totfact> 0.68028529E+02</totfact>
</mgrwt>
</event>
<event>
 4    1  0.6148427E-004  0.2267912E+03  0.7818608E-02  0.1128919E+00
          2   -1    0    0  501    0  0.00000000000E+00  0.00000000000E+00  0.30071863413E+02  0.30071863521E+02  0.25500000000E-02 0.  1.
         -2   -1    0    0    0  501 -0.00000000000E+00 -0.00000000000E+00 -0.42759437806E+03  0.42759437807E+03  0.25500000000E-02 0. -1.
    5000001    1    1    2    0    0 -0.75893549069E+02 -0.18298381397E+02 -0.14045173494E+03  0.17818628286E+03  0.77000000000E+02 0.  0.
   -5000001    1    1    2    0    0  0.75893549069E+02  0.18298381397E+02 -0.25707077971E+03  0.27947995873E+03  0.77000000000E+02 0.  0.
<mgrwt>
<rscale>  0 0.22679118E+03</rscale>
<asrwt>0</asrwt>
<pdfrwt beam="1">  1        2 0.46264409E-02 0.22679118E+03</pdfrwt>
<pdfrwt beam="2">  1       -2 0.65783746E-01 0.22679118E+03</pdfrwt>
<totfact> 0.37455736E+03</totfact>
</mgrwt>
</event>
<event>
 4    1  0.6148427E-004  0.3451570E+03  0.7818608E-02  0.1064621E+00
          2   -1    0    0  501    0  0.00000000000E+00  0.00000000000E+00  0.14590914726E+03  0.14590914728E+03  0.25500000000E-02 0.  1.
         -2   -1    0    0    0  501 -0.00000000000E+00 -0.00000000000E+00 -0.20412250398E+03  0.20412250399E+03  0.25500000000E-02 0. -1.
    5000001    1    1    2    0    0 -0.26501978338E+02 -0.14375947039E+03 -0.79662516859E+02  0.18342370832E+03  0.77000000000E+02 0.  0.
   -5000001    1    1    2    0    0  0.26501978338E+02  0.14375947039E+03  0.21449160138E+02  0.16660794295E+03  0.77000000000E+02 0.  0.
<mgrwt>
<rscale>  0 0.34515701E+03</rscale>
<asrwt>0</asrwt>
<pdfrwt beam="1">  1        2 0.22447561E-01 0.34515701E+03</pdfrwt>
<pdfrwt beam="2">  1       -2 0.31403462E-01 0.34515701E+03</pdfrwt>
<totfact> 0.22953628E+03</totfact>
</mgrwt>
</event>
<event>
 4    1  0.6148427E-004  0.2878575E+03  0.7818608E-02  0.1091473E+00
          2   -1    0    0  501    0  0.00000000000E+00  0.00000000000E+00  0.11627551042E+03  0.11627551045E+03  0.25500000000E-02 0.  1.
         -2   -1    0    0    0  501 -0.00000000000E+00 -0.00000000000E+00 -0.17815867055E+03  0.17815867057E+03  0.25500000000E-02 0. -1.
    5000001    1    1    2    0    0 -0.10966446875E+03 -0.51455094310E+02 -0.20089376078E+02  0.14493621172E+03  0.77000000000E+02 0.  0.
   -5000001    1    1    2    0    0  0.10966446875E+03  0.51455094310E+02 -0.41793784048E+02  0.14949796929E+03  0.77000000000E+02 0.  0.
<mgrwt>
<rscale>  0 0.28785754E+03</rscale>
<asrwt>0</asrwt>
<pdfrwt beam="1">  1        2 0.17888540E-01 0.28785754E+03</pdfrwt>
<pdfrwt beam="2">  1       -2 0.27409026E-01 0.28785754E+03</pdfrwt>
<totfact> 0.37988399E+03</totfact>
</mgrwt>
</event>
<event>
 4    1  0.6148427E-004  0.2219606E+03  0.7818608E-02  0.1132430E+00
          2   -1    0    0  501    0  0.00000000000E+00  0.00000000000E+00  0.31392857659E+03  0.31392857660E+03  0.25500000000E-02 0.  1.
         -2   -1    0    0    0  501 -0.00000000000E+00 -0.00000000000E+00 -0.39233851634E+02  0.39233851717E+02  0.25500000000E-02 0. -1.
    5000001    1    1    2    0    0 -0.23063628984E+02  0.61809831185E+02  0.65566855427E+02  0.12074932192E+03  0.77000000000E+02 0.  0.
   -5000001    1    1    2    0    0  0.23063628984E+02 -0.61809831185E+02  0.20912786953E+03  0.23241310640E+03  0.77000000000E+02 0.  0.
<mgrwt>
<rscale>  0 0.22196060E+03</rscale>
<asrwt>0</asrwt>
<pdfrwt beam="1">  1        2 0.48296703E-01 0.22196060E+03</pdfrwt>
<pdfrwt beam="2">  1       -2 0.60359774E-02 0.22196060E+03</pdfrwt>
<totfact> 0.14906677E+04</totfact>
</mgrwt>
</event>
<event>
 4    1  0.6148427E-004  0.1896002E+03  0.7818608E-02  0.1158822E+00
          2   -1    0    0  501    0  0.00000000000E+00  0.00000000000E+00  0.29427989798E+03  0.29427989800E+03  0.25500000000E-02 0.  1.
         -2   -1    0    0    0  501 -0.00000000000E+00 -0.00000000000E+00 -0.30539144760E+02  0.30539144866E+02  0.25500000000E-02 0. -1.
    5000001    1    1    2    0    0  0.15100509610E+02 -0.51984013687E+02  0.15122955402E+03  0.17812843984E+03  0.77000000000E+02 0.  0.
   -5000001    1    1    2    0    0 -0.15100509610E+02  0.51984013687E+02  0.11251119920E+03  0.14669060302E+03  0.77000000000E+02 0.  0.
<mgrwt>
<rscale>  0 0.18960017E+03</rscale>
<asrwt>0</asrwt>
<pdfrwt beam="1">  1        2 0.45273829E-01 0.18960017E+03</pdfrwt>
<pdfrwt beam="2">  1       -2 0.46983301E-02 0.18960017E+03</pdfrwt>
<totfact> 0.23104565E+04</totfact>
</mgrwt>
</event>
<event>
 4    1  0.6148427E-004  0.2979106E+03  0.7818608E-02  0.1086290E+00
          2   -1    0    0  501    0  0.00000000000E+00  0.00000000000E+00  0.82878822343E+02  0.82878822383E+02  0.25500000000E-02 0.  1.
         -2   -1    0    0    0  501 -0.00000000000E+00 -0.00000000000E+00 -0.26771236277E+03  0.26771236278E+03  0.25500000000E-02 0. -1.
    5000001    1    1    2    0    0 -0.74054638961E+02  0.10142845108E+03 -0.66449916615E+02  0.16160572904E+03  0.77000000000E+02 0.  0.
   -5000001    1    1    2    0    0  0.74054638961E+02 -0.10142845108E+03 -0.11838362381E+03  0.18898545612E+03  0.77000000000E+02 0.  0.
<mgrwt>
<rscale>  0 0.29791063E+03</rscale>
<asrwt>0</asrwt>
<pdfrwt beam="1">  1        2 0.12750588E-01 0.29791063E+03</pdfrwt>
<pdfrwt beam="2">  1       -2 0.41186517E-01 0.29791063E+03</pdfrwt>
<totfact> 0.26696540E+03</totfact>
</mgrwt>
</event>
<event>
 4    1  0.6148427E-004  0.2707840E+03  0.7818608E-02  0.1100832E+00
          2   -1    0    0  501    0  0.00000000000E+00  0.00000000000E+00  0.13635967424E+04  0.13635967424E+04  0.25500000000E-02 0.  1.
         -2   -1    0    0    0  501 -0.00000000000E+00 -0.00000000000E+00 -0.13443117381E+02  0.13443117623E+02  0.25500000000E-02 0. -1.
    5000001    1    1    2    0    0 -0.29679091049E+02  0.42860692303E+02  0.17463537838E+03  0.19784944471E+03  0.77000000000E+02 0.  0.
   -5000001    1    1    2    0    0  0.29679091049E+02 -0.42860692303E+02  0.11755182467E+04  0.11791904153E+04  0.77000000000E+02 0.  0.
<mgrwt>
<rscale>  0 0.27078398E+03</rscale>
<asrwt>0</asrwt>
<pdfrwt beam="1">  1        2 0.20978414E+00 0.27078398E+03</pdfrwt>
<pdfrwt beam="2">  1       -2 0.20681717E-02 0.27078398E+03</pdfrwt>
<totfact> 0.11893704E+04</totfact>
</mgrwt>
</event>
<event>
 4    1  0.6148427E-004  0.4814521E+03  0.7818608E-02  0.1018737E+00
          2   -1    0    0  501    0  0.00000000000E+00  0.00000000000E+00  0.38730617366E+03  0.38730617367E+03  0.25500000000E-02 0.  1.
         -2   -1    0    0    0  501 -0.00000000000E+00 -0.00000000000E+00 -0.14962071906E+03  0.14962071909E+03  0.25500000000E-02 0. -1.
    5000001    1    1    2    0    0 -0.19746965577E+03  0.18351713899E+02  0.24446753274E+03  0.32407472120E+03  0.77000000000E+02 0.  0.
   -5000001    1    1    2    0    0  0.19746965577E+03 -0.18351713899E+02 -0.67820781462E+01  0.21285217156E+03  0.77000000000E+02 0.  0.
<mgrwt>
<rscale>  0 0.48145209E+03</rscale>
<asrwt>0</asrwt>
<pdfrwt beam="1">  1        2 0.59585565E-01 0.48145209E+03</pdfrwt>
<pdfrwt beam="2">  1       -2 0.23018572E-01 0.48145209E+03</pdfrwt>
<totfact> 0.13691913E+03</totfact>
</mgrwt>
</event>
<event>
 4    1  0.6148427E-004  0.2483646E+03  0.7818608E-02  0.1114343E+00
         -2   -1    0    0    0  501 -0.00000000000E+00  0.00000000000E+00  0.64924907073E+02  0.64924907123E+02  0.25500000000E-02 0. -1.
          2   -1    0    0  501    0  0.00000000000E+00 -0.00000000000E+00 -0.23752436821E+03  0.23752436823E+03  0.25500000000E-02 0.  1.
    5000001    1    1    2    0    0 -0.56649152604E+02 -0.78147484514E+02 -0.70140068959E+02  0.14200276441E+03  0.77000000000E+02 0.  0.
   -5000001    1    1    2    0    0  0.56649152604E+02  0.78147484514E+02 -0.10245939218E+03  0.16044651094E+03  0.77000000000E+02 0.  0.
<mgrwt>
<rscale>  0 0.24836463E+03</rscale>
<asrwt>0</asrwt>
<pdfrwt beam="1">  1        2 0.36542210E-01 0.24836463E+03</pdfrwt>
<pdfrwt beam="2">  1       -2 0.99884474E-02 0.24836463E+03</pdfrwt>
<totfact> 0.92406448E+03</totfact>
</mgrwt>
</event>
<event>
 4    1  0.6148427E-004  0.2586835E+03  0.7818608E-02  0.1107937E+00
          2   -1    0    0  501    0  0.00000000000E+00  0.00000000000E+00  0.10908714130E+04  0.10908714130E+04  0.25500000000E-02 0.  1.
         -2   -1    0    0    0  501 -0.00000000000E+00 -0.00000000000E+00 -0.15335706450E+02  0.15335706662E+02  0.25500000000E-02 0. -1.
    5000001    1    1    2    0    0 -0.75788618626E+02  0.57859351462E+02  0.36100288831E+03  0.38123969446E+03  0.77000000000E+02 0.  0.
   -5000001    1    1    2    0    0  0.75788618626E+02 -0.57859351462E+02  0.71453281824E+03  0.72496742520E+03  0.77000000000E+02 0.  0.
<mgrwt>
<rscale>  0 0.25868347E+03</rscale>
<asrwt>0</asrwt>
<pdfrwt beam="1">  1        2 0.16782636E+00 0.25868347E+03</pdfrwt>
<pdfrwt beam="2">  1       -2 0.23593397E-02 0.25868347E+03</pdfrwt>
<totfact> 0.13942950E+04</totfact>
</mgrwt>
</event>
<event>
 4    1  0.6148427E-004  0.3922054E+03  0.7818608E-02  0.1046513E+00
          2   -1    0    0  501    0  0.00000000000E+00  0.00000000000E+00  0.24648583581E+03  0.24648583583E+03  0.25500000000E-02 0. -1.
         -2   -1    0    0    0  501 -0.00000000000E+00 -0.00000000000E+00 -0.15601819481E+03  0.15601819483E+03  0.25500000000E-02 0.  1.
    5000001    1    1    2    0    0  0.11360294654E+03 -0.13844696050E+03  0.23365011975E+02  0.19633673655E+03  0.77000000000E+02 0.  0.
   -5000001    1    1    2    0    0 -0.11360294654E+03  0.13844696050E+03  0.67102629033E+02  0.20616729410E+03  0.77000000000E+02 0.  0.
<mgrwt>
<rscale>  0 0.39220543E+03</rscale>
<asrwt>0</asrwt>
<pdfrwt beam="1">  1        2 0.37920898E-01 0.39220543E+03</pdfrwt>
<pdfrwt beam="2">  1       -2 0.24002799E-01 0.39220543E+03</pdfrwt>
<totfact> 0.20831244E+03</totfact>
</mgrwt>
</event>
<event>
 4    1  0.6148427E-004  0.4716751E+03  0.7818608E-02  0.1021449E+00
          2   -1    0    0  501    0  0.00000000000E+00  0.00000000000E+00  0.78878913444E+02  0.78878913485E+02  0.25500000000E-02 0.  1.
         -2   -1    0    0    0  501 -0.00000000000E+00 -0.00000000000E+00 -0.70512303583E+03  0.70512303584E+03  0.25500000000E-02 0. -1.
    5000001    1    1    2    0    0 -0.59612539895E+02 -0.21479302616E+03 -0.31445171806E+03  0.39306307635E+03  0.77000000000E+02 0.  0.
   -5000001    1    1    2    0    0  0.59612539895E+02  0.21479302616E+03 -0.31179240433E+03  0.39093887297E+03  0.77000000000E+02 0.  0.
<mgrwt>
<rscale>  0 0.47167505E+03</rscale>
<asrwt>0</asrwt>
<pdfrwt beam="1">  1        2 0.12135218E-01 0.47167505E+03</pdfrwt>
<pdfrwt beam="2">  1       -2 0.10848046E+00 0.47167505E+03</pdfrwt>
<totfact> 0.35791043E+02</totfact>
</mgrwt>
</event>
<event>
 4    1  0.6148427E-004  0.4334401E+03  0.7818608E-02  0.1032779E+00
         -2   -1    0    0    0  501 -0.00000000000E+00  0.00000000000E+00  0.78818413902E+02  0.78818413943E+02  0.25500000000E-02 0. -1.
          2   -1    0    0  501    0  0.00000000000E+00 -0.00000000000E+00 -0.59589591806E+03  0.59589591807E+03  0.25500000000E-02 0.  1.
    5000001    1    1    2    0    0  0.19142902901E+03 -0.37823308234E+02 -0.34327106157E+03  0.40229304928E+03  0.77000000000E+02 0.  0.
   -5000001    1    1    2    0    0 -0.19142902901E+03  0.37823308234E+02 -0.17380644259E+03  0.27242128272E+03  0.77000000000E+02 0.  0.
<mgrwt>
<rscale>  0 0.43344006E+03</rscale>
<asrwt>0</asrwt>
<pdfrwt beam="1">  1        2 0.91676292E-01 0.43344006E+03</pdfrwt>
<pdfrwt beam="2">  1       -2 0.12125910E-01 0.43344006E+03</pdfrwt>
<totfact> 0.24865611E+03</totfact>
</mgrwt>
</event>
<event>
 4    1  0.6148427E-004  0.2415094E+03  0.7818608E-02  0.1118791E+00
          2   -1    0    0  501    0  0.00000000000E+00  0.00000000000E+00  0.22487006656E+03  0.22487006657E+03  0.25500000000E-02 0.  1.
         -2   -1    0    0    0  501 -0.00000000000E+00 -0.00000000000E+00 -0.64845018379E+02  0.64845018429E+02  0.25500000000E-02 0. -1.
    5000001    1    1    2    0    0  0.76641917521E+02  0.28691904683E+02  0.13306007041E+03  0.17415852335E+03  0.77000000000E+02 0.  0.
   -5000001    1    1    2    0    0 -0.76641917521E+02 -0.28691904683E+02  0.26964977763E+02  0.11555656165E+03  0.77000000000E+02 0.  0.
<mgrwt>
<rscale>  0 0.24150945E+03</rscale>
<asrwt>0</asrwt>
<pdfrwt beam="1">  1        2 0.34595395E-01 0.24150945E+03</pdfrwt>
<pdfrwt beam="2">  1       -2 0.99761566E-02 0.24150945E+03</pdfrwt>
<totfact> 0.98109286E+03</totfact>
</mgrwt>
</event>
<event>
 4    1  0.6148427E-004  0.2110978E+03  0.7818608E-02  0.1140700E+00
         -2   -1    0    0    0  501 -0.00000000000E+00  0.00000000000E+00  0.13946806080E+02  0.13946806313E+02  0.25500000000E-02 0. -1.
          2   -1    0    0  501    0  0.00000000000E+00 -0.00000000000E+00 -0.79878969170E+03  0.79878969171E+03  0.25500000000E-02 0.  1.
    5000001    1    1    2    0    0  0.47511689999E+02 -0.54317373793E+02 -0.39995342310E+03  0.41364172714E+03  0.77000000000E+02 0.  0.
   -5000001    1    1    2    0    0 -0.47511689999E+02  0.54317373793E+02 -0.38488946252E+03  0.39909477088E+03  0.77000000000E+02 0.  0.
<mgrwt>
<rscale>  0 0.21109775E+03</rscale>
<asrwt>0</asrwt>
<pdfrwt beam="1">  1        2 0.12289069E+00 0.21109775E+03</pdfrwt>
<pdfrwt beam="2">  1       -2 0.21456631E-02 0.21109775E+03</pdfrwt>
<totfact> 0.24247778E+04</totfact>
</mgrwt>
</event>
<event>
 4    1  0.6148427E-004  0.1615256E+03  0.7818608E-02  0.1186985E+00
         -2   -1    0    0    0  501 -0.00000000000E+00  0.00000000000E+00  0.32832303371E+01  0.32832313273E+01  0.25500000000E-02 0. -1.
          2   -1    0    0  501    0  0.00000000000E+00 -0.00000000000E+00 -0.19866506034E+04  0.19866506034E+04  0.25500000000E-02 0.  1.
    5000001    1    1    2    0    0  0.18120850737E+02 -0.65491271370E+01 -0.11753973072E+04  0.11780743126E+04  0.77000000000E+02 0.  0.
   -5000001    1    1    2    0    0 -0.18120850737E+02  0.65491271370E+01 -0.80797006585E+03  0.81185952209E+03  0.77000000000E+02 0.  0.
<mgrwt>
<rscale>  0 0.16152563E+03</rscale>
<asrwt>0</asrwt>
<pdfrwt beam="1">  1        2 0.30563759E+00 0.16152563E+03</pdfrwt>
<pdfrwt beam="2">  1       -2 0.50511402E-03 0.16152563E+03</pdfrwt>
<totfact> 0.41969816E+04</totfact>
</mgrwt>
</event>
<event>
 4    1  0.6148427E-004  0.3473844E+03  0.7818608E-02  0.1063694E+00
          2   -1    0    0  501    0  0.00000000000E+00  0.00000000000E+00  0.38827591520E+03  0.38827591521E+03  0.25500000000E-02 0.  1.
         -2   -1    0    0    0  501 -0.00000000000E+00 -0.00000000000E+00 -0.77699836471E+02  0.77699836513E+02  0.25500000000E-02 0. -1.
    5000001    1    1    2    0    0 -0.12763584978E+03  0.83955711001E+02  0.19554080853E+03  0.25981662641E+03  0.77000000000E+02 0.  0.
   -5000001    1    1    2    0    0  0.12763584978E+03 -0.83955711001E+02  0.11503527020E+03  0.20615912531E+03  0.77000000000E+02 0.  0.
<mgrwt>
<rscale>  0 0.34738437E+03</rscale>
<asrwt>0</asrwt>
<pdfrwt beam="1">  1        2 0.59734756E-01 0.34738437E+03</pdfrwt>
<pdfrwt beam="2">  1       -2 0.11953821E-01 0.34738437E+03</pdfrwt>
<totfact> 0.41171203E+03</totfact>
</mgrwt>
</event>
<event>
 4    1  0.6148427E-004  0.2884103E+03  0.7818608E-02  0.1091182E+00
         -2   -1    0    0    0  501 -0.00000000000E+00  0.00000000000E+00  0.16398940680E+03  0.16398940682E+03  0.25500000000E-02 0. -1.
          2   -1    0    0  501    0  0.00000000000E+00 -0.00000000000E+00 -0.12680774123E+03  0.12680774125E+03  0.25500000000E-02 0.  1.
    5000001    1    1    2    0    0  0.37788596834E+02 -0.11285643061E+03 -0.81156193986E+01  0.14198385563E+03  0.77000000000E+02 0.  0.
   -5000001    1    1    2    0    0 -0.37788596834E+02  0.11285643061E+03  0.45297284971E+02  0.14881329244E+03  0.77000000000E+02 0.  0.
<mgrwt>
<rscale>  0 0.28841031E+03</rscale>
<asrwt>0</asrwt>
<pdfrwt beam="1">  1        2 0.19508883E-01 0.28841031E+03</pdfrwt>
<pdfrwt beam="2">  1       -2 0.25229139E-01 0.28841031E+03</pdfrwt>
<totfact> 0.39828585E+03</totfact>
</mgrwt>
</event>
<event>
 4    1  0.6148427E-004  0.2070764E+03  0.7818608E-02  0.1143902E+00
          2   -1    0    0  501    0  0.00000000000E+00  0.00000000000E+00  0.51920366947E+03  0.51920366947E+03  0.25500000000E-02 0.  1.
         -2   -1    0    0    0  501 -0.00000000000E+00 -0.00000000000E+00 -0.20647314501E+02  0.20647314658E+02  0.25500000000E-02 0. -1.
    5000001    1    1    2    0    0 -0.10357334221E+02 -0.43098603618E+02  0.38787710103E+03  0.39792261749E+03  0.77000000000E+02 0.  0.
   -5000001    1    1    2    0    0  0.10357334221E+02  0.43098603618E+02  0.11067925394E+03  0.14192836664E+03  0.77000000000E+02 0.  0.
<mgrwt>
<rscale>  0 0.20707643E+03</rscale>
<asrwt>0</asrwt>
<pdfrwt beam="1">  1        2 0.79877496E-01 0.20707643E+03</pdfrwt>
<pdfrwt beam="2">  1       -2 0.31765096E-02 0.20707643E+03</pdfrwt>
<totfact> 0.22569919E+04</totfact>
</mgrwt>
</event>
<event>
 4    1  0.6148427E-004  0.1913367E+03  0.7818608E-02  0.1157261E+00
          2   -1    0    0  501    0  0.00000000000E+00  0.00000000000E+00  0.83308449386E+03  0.83308449386E+03  0.25500000000E-02 0.  1.
         -2   -1    0    0    0  501 -0.00000000000E+00 -0.00000000000E+00 -0.10986197798E+02  0.10986198094E+02  0.25500000000E-02 0. -1.
    5000001    1    1    2    0    0 -0.14390380557E+02 -0.52627311001E+02  0.34175800902E+03  0.35454795677E+03  0.77000000000E+02 0.  0.
   -5000001    1    1    2    0    0  0.14390380557E+02  0.52627311001E+02  0.48034028704E+03  0.48952273519E+03  0.77000000000E+02 0.  0.
<mgrwt>
<rscale>  0 0.19133668E+03</rscale>
<asrwt>0</asrwt>
<pdfrwt beam="1">  1        2 0.12816686E+00 0.19133668E+03</pdfrwt>
<pdfrwt beam="2">  1       -2 0.16901841E-02 0.19133668E+03</pdfrwt>
<totfact> 0.32353924E+04</totfact>
</mgrwt>
</event>
<event>
 4    1  0.6148427E-004  0.2982898E+03  0.7818608E-02  0.1086099E+00
         -2   -1    0    0    0  501 -0.00000000000E+00  0.00000000000E+00  0.21092369979E+02  0.21092370133E+02  0.25500000000E-02 0. -1.
          2   -1    0    0  501    0  0.00000000000E+00 -0.00000000000E+00 -0.10546088758E+04  0.10546088758E+04  0.25500000000E-02 0.  1.
    5000001    1    1    2    0    0  0.33053730377E+02 -0.10242184301E+03 -0.76483999723E+03  0.77620358436E+03  0.77000000000E+02 0.  0.
   -5000001    1    1    2    0    0 -0.33053730377E+02  0.10242184301E+03 -0.26867650860E+03  0.29949766158E+03  0.77000000000E+02 0.  0.
<mgrwt>
<rscale>  0 0.29828980E+03</rscale>
<asrwt>0</asrwt>
<pdfrwt beam="1">  1        2 0.16224748E+00 0.29828980E+03</pdfrwt>
<pdfrwt beam="2">  1       -2 0.32449808E-02 0.29828980E+03</pdfrwt>
<totfact> 0.91649446E+03</totfact>
</mgrwt>
</event>
<event>
 4    1  0.6148427E-004  0.4312719E+03  0.7818608E-02  0.1033459E+00
          2   -1    0    0  501    0  0.00000000000E+00  0.00000000000E+00  0.10715976683E+04  0.10715976683E+04  0.25500000000E-02 0.  1.
         -2   -1    0    0    0  501 -0.00000000000E+00 -0.00000000000E+00 -0.43392088212E+02  0.43392088287E+02  0.25500000000E-02 0. -1.
    5000001    1    1    2    0    0 -0.15335113816E+03 -0.79839408835E+02  0.24693496078E+03  0.31112180514E+03  0.77000000000E+02 0.  0.
   -5000001    1    1    2    0    0  0.15335113816E+03  0.79839408835E+02  0.78127061932E+03  0.80386795147E+03  0.77000000000E+02 0.  0.
<mgrwt>
<rscale>  0 0.43127189E+03</rscale>
<asrwt>0</asrwt>
<pdfrwt beam="1">  1        2 0.16486116E+00 0.43127189E+03</pdfrwt>
<pdfrwt beam="2">  1       -2 0.66757065E-02 0.43127189E+03</pdfrwt>
<totfact> 0.29883603E+03</totfact>
</mgrwt>
</event>
<event>
 4    1  0.6148427E-004  0.2627897E+03  0.7818608E-02  0.1105479E+00
          2   -1    0    0  501    0  0.00000000000E+00  0.00000000000E+00  0.14620040469E+03  0.14620040471E+03  0.25500000000E-02 0.  1.
         -2   -1    0    0    0  501 -0.00000000000E+00 -0.00000000000E+00 -0.11808865622E+03  0.11808865625E+03  0.25500000000E-02 0. -1.
    5000001    1    1    2    0    0 -0.67977865372E+02 -0.81916433090E+02  0.11966245580E+02  0.13192226205E+03  0.77000000000E+02 0.  0.
   -5000001    1    1    2    0    0  0.67977865372E+02  0.81916433090E+02  0.16145502888E+02  0.13236679891E+03  0.77000000000E+02 0.  0.
<mgrwt>
<rscale>  0 0.26278972E+03</rscale>
<asrwt>0</asrwt>
<pdfrwt beam="1">  1        2 0.22492370E-01 0.26278972E+03</pdfrwt>
<pdfrwt beam="2">  1       -2 0.18167486E-01 0.26278972E+03</pdfrwt>
<totfact> 0.59524523E+03</totfact>
</mgrwt>
</event>
<event>
 4    1  0.6148427E-004  0.2167860E+03  0.7818608E-02  0.1136302E+00
         -2   -1    0    0    0  501 -0.00000000000E+00  0.00000000000E+00  0.10035631012E+03  0.10035631015E+03  0.25500000000E-02 0. -1.
          2   -1    0    0  501    0  0.00000000000E+00 -0.00000000000E+00 -0.11707331824E+03  0.11707331827E+03  0.25500000000E-02 0.  1.
    5000001    1    1    2    0    0  0.31311639487E+02  0.64137660813E+02 -0.35382659097E+02  0.11079255781E+03  0.77000000000E+02 0.  0.
   -5000001    1    1    2    0    0 -0.31311639487E+02 -0.64137660813E+02  0.18665650968E+02  0.10663707061E+03  0.77000000000E+02 0.  0.
<mgrwt>
<rscale>  0 0.21678603E+03</rscale>
<asrwt>0</asrwt>
<pdfrwt beam="1">  1        2 0.18011280E-01 0.21678603E+03</pdfrwt>
<pdfrwt beam="2">  1       -2 0.15439432E-01 0.21678603E+03</pdfrwt>
<totfact> 0.99712019E+03</totfact>
</mgrwt>
</event>
<event>
 4    1  0.6148427E-004  0.2411149E+03  0.7818608E-02  0.1119052E+00
          2   -1    0    0  501    0  0.00000000000E+00  0.00000000000E+00  0.43011104676E+03  0.43011104677E+03  0.25500000000E-02 0.  1.
         -2   -1    0    0    0  501 -0.00000000000E+00 -0.00000000000E+00 -0.33791516418E+02  0.33791516515E+02  0.25500000000E-02 0. -1.
    5000001    1    1    2    0    0 -0.87834451882E+02  0.24461869446E+02  0.16529216481E+03  0.20387195428E+03  0.77000000000E+02 0.  0.
   -5000001    1    1    2    0    0  0.87834451882E+02 -0.24461869446E+02  0.23102736553E+03  0.26003060900E+03  0.77000000000E+02 0.  0.
<mgrwt>
<rscale>  0 0.24111495E+03</rscale>
<asrwt>0</asrwt>
<pdfrwt beam="1">  1        2 0.66170929E-01 0.24111495E+03</pdfrwt>
<pdfrwt beam="2">  1       -2 0.51986950E-02 0.24111495E+03</pdfrwt>
<totfact> 0.13389237E+04</totfact>
</mgrwt>
</event>
<event>
 4    1  0.6148427E-004  0.2401374E+03  0.7818608E-02  0.1119701E+00
         -2   -1    0    0    0  501 -0.00000000000E+00  0.00000000000E+00  0.38587879454E+02  0.38587879538E+02  0.25500000000E-02 0. -1.
          2   -1    0    0  501    0  0.00000000000E+00 -0.00000000000E+00 -0.37360146822E+03  0.37360146823E+03  0.25500000000E-02 0.  1.
    5000001    1    1    2    0    0  0.41016202500E+02 -0.74692625680E+02 -0.10740151957E+03  0.15724313532E+03  0.77000000000E+02 0.  0.
   -5000001    1    1    2    0    0 -0.41016202500E+02  0.74692625680E+02 -0.22761206919E+03  0.25494621245E+03  0.77000000000E+02 0.  0.
<mgrwt>
<rscale>  0 0.24013736E+03</rscale>
<asrwt>0</asrwt>
<pdfrwt beam="1">  1        2 0.57477146E-01 0.24013736E+03</pdfrwt>
<pdfrwt beam="2">  1       -2 0.59365971E-02 0.24013736E+03</pdfrwt>
<totfact> 0.12738595E+04</totfact>
</mgrwt>
</event>
<event>
 4    1  0.6148427E-004  0.2655891E+03  0.7818608E-02  0.1103831E+00
          2   -1    0    0  501    0  0.00000000000E+00  0.00000000000E+00  0.11247967878E+04  0.11247967878E+04  0.25500000000E-02 0.  1.
         -2   -1    0    0    0  501 -0.00000000000E+00 -0.00000000000E+00 -0.15677844024E+02  0.15677844232E+02  0.25500000000E-02 0. -1.
    5000001    1    1    2    0    0  0.40743801126E+02 -0.93592560581E+02  0.40058239932E+03  0.42049361870E+03  0.77000000000E+02 0.  0.
   -5000001    1    1    2    0    0 -0.40743801126E+02  0.93592560581E+02  0.70853654444E+03  0.71998101331E+03  0.77000000000E+02 0.  0.
<mgrwt>
<rscale>  0 0.26558907E+03</rscale>
<asrwt>0</asrwt>
<pdfrwt beam="1">  1        2 0.17304571E+00 0.26558907E+03</pdfrwt>
<pdfrwt beam="2">  1       -2 0.24119753E-02 0.26558907E+03</pdfrwt>
<totfact> 0.12904997E+04</totfact>
</mgrwt>
</event>
<event>
 4    1  0.6148427E-004  0.2564780E+03  0.7818608E-02  0.1109278E+00
         -2   -1    0    0    0  501 -0.00000000000E+00  0.00000000000E+00  0.10224911197E+02  0.10224911515E+02  0.25500000000E-02 0. -1.
          2   -1    0    0  501    0  0.00000000000E+00 -0.00000000000E+00 -0.16083506164E+04  0.16083506164E+04  0.25500000000E-02 0.  1.
    5000001    1    1    2    0    0  0.10240286711E+03  0.50591338120E+01 -0.81214985500E+03  0.82220941919E+03  0.77000000000E+02 0.  0.
   -5000001    1    1    2    0    0 -0.10240286711E+03 -0.50591338120E+01 -0.78597585024E+03  0.79636610877E+03  0.77000000000E+02 0.  0.
<mgrwt>
<rscale>  0 0.25647801E+03</rscale>
<asrwt>0</asrwt>
<pdfrwt beam="1">  1        2 0.24743836E+00 0.25647801E+03</pdfrwt>
<pdfrwt beam="2">  1       -2 0.15730646E-02 0.25647801E+03</pdfrwt>
<totfact> 0.13116198E+04</totfact>
</mgrwt>
</event>
<event>
 4    1  0.6148427E-004  0.2021557E+03  0.7818608E-02  0.1147933E+00
         -2   -1    0    0    0  501 -0.00000000000E+00  0.00000000000E+00  0.77214480886E+01  0.77214485097E+01  0.25500000000E-02 0. -1.
          2   -1    0    0  501    0  0.00000000000E+00 -0.00000000000E+00 -0.13231624908E+04  0.13231624908E+04  0.25500000000E-02 0.  1.
    5000001    1    1    2    0    0  0.38297860571E+02 -0.47222392705E+02 -0.49766656121E+03  0.50724519381E+03  0.77000000000E+02 0.  0.
   -5000001    1    1    2    0    0 -0.38297860571E+02  0.47222392705E+02 -0.81777448152E+03  0.82363874552E+03  0.77000000000E+02 0.  0.
<mgrwt>
<rscale>  0 0.20215569E+03</rscale>
<asrwt>0</asrwt>
<pdfrwt beam="1">  1        2 0.20356328E+00 0.20215569E+03</pdfrwt>
<pdfrwt beam="2">  1       -2 0.11879162E-02 0.20215569E+03</pdfrwt>
<totfact> 0.27759882E+04</totfact>
</mgrwt>
</event>
<event>
 4    1  0.6148427E-004  0.2150260E+03  0.7818608E-02  0.1137647E+00
         -2   -1    0    0    0  501 -0.00000000000E+00  0.00000000000E+00  0.10051838060E+04  0.10051838060E+04  0.25500000000E-02 0. -1.
          2   -1    0    0  501    0  0.00000000000E+00 -0.00000000000E+00 -0.11499430385E+02  0.11499430668E+02  0.25500000000E-02 0.  1.
    5000001    1    1    2    0    0  0.74052297853E+02 -0.70478317077E+01  0.54331972434E+03  0.55376776505E+03  0.77000000000E+02 0.  0.
   -5000001    1    1    2    0    0 -0.74052297853E+02  0.70478317077E+01  0.45036465123E+03  0.46291547158E+03  0.77000000000E+02 0.  0.
<mgrwt>
<rscale>  0 0.21502596E+03</rscale>
<asrwt>0</asrwt>
<pdfrwt beam="1">  1        2 0.17691437E-02 0.21502596E+03</pdfrwt>
<pdfrwt beam="2">  1       -2 0.15464362E+00 0.21502596E+03</pdfrwt>
<totfact> 0.18791534E+03</totfact>
</mgrwt>
</event>
<event>
 4    1  0.6148427E-004  0.3541436E+03  0.7818608E-02  0.1060927E+00
         -2   -1    0    0    0  501 -0.00000000000E+00  0.00000000000E+00  0.16663211377E+02  0.16663211573E+02  0.25500000000E-02 0. -1.
          2   -1    0    0  501    0  0.00000000000E+00 -0.00000000000E+00 -0.18816553677E+04  0.18816553677E+04  0.25500000000E-02 0.  1.
    5000001    1    1    2    0    0  0.29108017390E+02  0.11795533050E+03 -0.37893733224E+03  0.40531868750E+03  0.77000000000E+02 0.  0.
   -5000001    1    1    2    0    0 -0.29108017390E+02 -0.11795533050E+03 -0.14860548240E+04  0.14929998917E+04  0.77000000000E+02 0.  0.
<mgrwt>
<rscale>  0 0.35414359E+03</rscale>
<asrwt>0</asrwt>
<pdfrwt beam="1">  1        2 0.28948527E+00 0.35414359E+03</pdfrwt>
<pdfrwt beam="2">  1       -2 0.25635725E-02 0.35414359E+03</pdfrwt>
<totfact> 0.45883330E+03</totfact>
</mgrwt>
</event>
<event>
 4    1  0.6148427E-004  0.7048326E+03  0.7818608E-02  0.9709003E-01
         -2   -1    0    0    0  501 -0.00000000000E+00  0.00000000000E+00  0.42609426787E+02  0.42609426863E+02  0.25500000000E-02 0. -1.
          2   -1    0    0  501    0  0.00000000000E+00 -0.00000000000E+00 -0.29147831531E+04  0.29147831531E+04  0.25500000000E-02 0.  1.
    5000001    1    1    2    0    0  0.26018361228E+01 -0.27265991370E+03 -0.23154018872E+04  0.23326733799E+04  0.77000000000E+02 0.  0.
   -5000001    1    1    2    0    0 -0.26018361228E+01  0.27265991370E+03 -0.55677183911E+03  0.62471920005E+03  0.77000000000E+02 0.  0.
<mgrwt>
<rscale>  0 0.70483257E+03</rscale>
<asrwt>0</asrwt>
<pdfrwt beam="1">  1        2 0.44842802E+00 0.70483257E+03</pdfrwt>
<pdfrwt beam="2">  1       -2 0.65552987E-02 0.70483257E+03</pdfrwt>
<totfact> 0.28090261E+02</totfact>
</mgrwt>
</event>
<event>
 4    1  0.6148427E-004  0.1866183E+03  0.7818608E-02  0.1161547E+00
         -2   -1    0    0    0  501 -0.00000000000E+00  0.00000000000E+00  0.16839333669E+02  0.16839333862E+02  0.25500000000E-02 0. -1.
          2   -1    0    0  501    0  0.00000000000E+00 -0.00000000000E+00 -0.51703955488E+03  0.51703955489E+03  0.25500000000E-02 0.  1.
    5000001    1    1    2    0    0  0.44726696034E+02 -0.27843472054E+02 -0.24619286985E+03  0.26327868398E+03  0.77000000000E+02 0.  0.
   -5000001    1    1    2    0    0 -0.44726696034E+02  0.27843472054E+02 -0.25400735136E+03  0.27060020477E+03  0.77000000000E+02 0.  0.
<mgrwt>
<rscale>  0 0.18661834E+03</rscale>
<asrwt>0</asrwt>
<pdfrwt beam="1">  1        2 0.79544535E-01 0.18661834E+03</pdfrwt>
<pdfrwt beam="2">  1       -2 0.25906671E-02 0.18661834E+03</pdfrwt>
<totfact> 0.30407070E+04</totfact>
</mgrwt>
</event>
<event>
 4    1  0.6148427E-004  0.3891228E+03  0.7818608E-02  0.1047613E+00
          2   -1    0    0  501    0  0.00000000000E+00  0.00000000000E+00  0.12864756821E+04  0.12864756821E+04  0.25500000000E-02 0.  1.
         -2   -1    0    0    0  501 -0.00000000000E+00 -0.00000000000E+00 -0.29424674836E+02  0.29424674946E+02  0.25500000000E-02 0. -1.
    5000001    1    1    2    0    0 -0.11016167652E+02  0.17659677573E+03  0.54450163852E+03  0.57768400661E+03  0.77000000000E+02 0.  0.
   -5000001    1    1    2    0    0  0.11016167652E+02 -0.17659677573E+03  0.71254936871E+03  0.73821635039E+03  0.77000000000E+02 0.  0.
<mgrwt>
<rscale>  0 0.38912275E+03</rscale>
<asrwt>0</asrwt>
<pdfrwt beam="1">  1        2 0.19791931E+00 0.38912275E+03</pdfrwt>
<pdfrwt beam="2">  1       -2 0.45268736E-02 0.38912275E+03</pdfrwt>
<totfact> 0.40804222E+03</totfact>
</mgrwt>
</event>
<event>
 4    1  0.6148427E-004  0.1600645E+03  0.7818608E-02  0.1188624E+00
          2   -1    0    0  501    0  0.00000000000E+00  0.00000000000E+00  0.10720269007E+02  0.10720269310E+02  0.25500000000E-02 0.  1.
         -2   -1    0    0    0  501 -0.00000000000E+00 -0.00000000000E+00 -0.59748161624E+03  0.59748161624E+03  0.25500000000E-02 0. -1.
    5000001    1    1    2    0    0  0.10642337670E+02  0.14796633569E+02 -0.24778961814E+03  0.26011707859E+03  0.77000000000E+02 0.  0.
   -5000001    1    1    2    0    0 -0.10642337670E+02 -0.14796633569E+02 -0.33897172910E+03  0.34808480697E+03  0.77000000000E+02 0.  0.
<mgrwt>
<rscale>  0 0.16006453E+03</rscale>
<asrwt>0</asrwt>
<pdfrwt beam="1">  1        2 0.16492726E-02 0.16006453E+03</pdfrwt>
<pdfrwt beam="2">  1       -2 0.91920223E-01 0.16006453E+03</pdfrwt>
<totfact> 0.71271730E+03</totfact>
</mgrwt>
</event>
<event>
 4    1  0.6148427E-004  0.4189300E+03  0.7818608E-02  0.1037415E+00
         -2   -1    0    0    0  501 -0.00000000000E+00  0.00000000000E+00  0.18857873037E+02  0.18857873209E+02  0.25500000000E-02 0. -1.
          2   -1    0    0  501    0  0.00000000000E+00 -0.00000000000E+00 -0.23266454317E+04  0.23266454317E+04  0.25500000000E-02 0.  1.
    5000001    1    1    2    0    0  0.56491866659E+02 -0.13003207362E+03 -0.40593760383E+03  0.43682262919E+03  0.77000000000E+02 0.  0.
   -5000001    1    1    2    0    0 -0.56491866659E+02  0.13003207362E+03 -0.19018499548E+04  0.19086806757E+04  0.77000000000E+02 0.  0.
<mgrwt>
<rscale>  0 0.41892999E+03</rscale>
<asrwt>0</asrwt>
<pdfrwt beam="1">  1        2 0.35794522E+00 0.41892999E+03</pdfrwt>
<pdfrwt beam="2">  1       -2 0.29012131E-02 0.41892999E+03</pdfrwt>
<totfact> 0.21941007E+03</totfact>
</mgrwt>
</event>
<event>
 4    1  0.6148427E-004  0.1784648E+03  0.7818608E-02  0.1169297E+00
          2   -1    0    0  501    0  0.00000000000E+00  0.00000000000E+00  0.77134895402E+03  0.77134895402E+03  0.25500000000E-02 0.  1.
         -2   -1    0    0    0  501 -0.00000000000E+00 -0.00000000000E+00 -0.10322727269E+02  0.10322727583E+02  0.25500000000E-02 0. -1.
    5000001    1    1    2    0    0 -0.13841950912E+01 -0.43999477761E+02  0.42332834896E+03  0.43252024354E+03  0.77000000000E+02 0.  0.
   -5000001    1    1    2    0    0  0.13841950912E+01  0.43999477761E+02  0.33769787779E+03  0.34915143806E+03  0.77000000000E+02 0.  0.
<mgrwt>
<rscale>  0 0.17846484E+03</rscale>
<asrwt>0</asrwt>
<pdfrwt beam="1">  1        2 0.11866906E+00 0.17846484E+03</pdfrwt>
<pdfrwt beam="2">  1       -2 0.15881120E-02 0.17846484E+03</pdfrwt>
<totfact> 0.38809008E+04</totfact>
</mgrwt>
</event>
<event>
 4    1  0.6148427E-004  0.2888466E+03  0.7818608E-02  0.1090953E+00
         -2   -1    0    0    0  501 -0.00000000000E+00  0.00000000000E+00  0.12774277986E+02  0.12774278240E+02  0.25500000000E-02 0. -1.
          2   -1    0    0  501    0  0.00000000000E+00 -0.00000000000E+00 -0.16328195863E+04  0.16328195863E+04  0.25500000000E-02 0.  1.
    5000001    1    1    2    0    0 -0.87716645312E+02 -0.16552739120E+02 -0.12853444368E+04  0.12907391387E+04  0.77000000000E+02 0.  0.
   -5000001    1    1    2    0    0  0.87716645312E+02  0.16552739120E+02 -0.33470087148E+03  0.35485472578E+03  0.77000000000E+02 0.  0.
<mgrwt>
<rscale>  0 0.28884661E+03</rscale>
<asrwt>0</asrwt>
<pdfrwt beam="1">  1        2 0.25120285E+00 0.28884661E+03</pdfrwt>
<pdfrwt beam="2">  1       -2 0.19652749E-02 0.28884661E+03</pdfrwt>
<totfact> 0.92056950E+03</totfact>
</mgrwt>
</event>
<event>
 4    1  0.6148427E-004  0.2497004E+03  0.7818608E-02  0.1113494E+00
         -2   -1    0    0    0  501 -0.00000000000E+00  0.00000000000E+00  0.92244261769E+01  0.92244265294E+01  0.25500000000E-02 0. -1.
          2   -1    0    0  501    0  0.00000000000E+00 -0.00000000000E+00 -0.16898150723E+04  0.16898150723E+04  0.25500000000E-02 0.  1.
    5000001    1    1    2    0    0 -0.65757164331E+02  0.72918501112E+02 -0.81186158438E+03  0.82139475568E+03  0.77000000000E+02 0.  0.
   -5000001    1    1    2    0    0  0.65757164331E+02 -0.72918501112E+02 -0.86872906173E+03  0.87764474314E+03  0.77000000000E+02 0.  0.
<mgrwt>
<rscale>  0 0.24970042E+03</rscale>
<asrwt>0</asrwt>
<pdfrwt beam="1">  1        2 0.25997130E+00 0.24970042E+03</pdfrwt>
<pdfrwt beam="2">  1       -2 0.14191439E-02 0.24970042E+03</pdfrwt>
<totfact> 0.13800296E+04</totfact>
</mgrwt>
</event>
<event>
 4    1  0.6148427E-004  0.3710277E+03  0.7818608E-02  0.1054301E+00
          2   -1    0    0  501    0  0.00000000000E+00  0.00000000000E+00  0.37639671308E+03  0.37639671309E+03  0.25500000000E-02 0. -1.
         -2   -1    0    0    0  501 -0.00000000000E+00 -0.00000000000E+00 -0.91433826059E+02  0.91433826095E+02  0.25500000000E-02 0.  1.
    5000001    1    1    2    0    0  0.19647631583E+02  0.16061221628E+03  0.20300588888E+03  0.27078165441E+03  0.77000000000E+02 0.  0.
   -5000001    1    1    2    0    0 -0.19647631583E+02 -0.16061221628E+03  0.81956998144E+02  0.19704888477E+03  0.77000000000E+02 0.  0.
<mgrwt>
<rscale>  0 0.37102772E+03</rscale>
<asrwt>0</asrwt>
<pdfrwt beam="1">  1        2 0.57907185E-01 0.37102772E+03</pdfrwt>
<pdfrwt beam="2">  1       -2 0.14066743E-01 0.37102772E+03</pdfrwt>
<totfact> 0.32665486E+03</totfact>
</mgrwt>
</event>
<event>
 4    1  0.6148427E-004  0.4779699E+03  0.7818608E-02  0.1019695E+00
         -2   -1    0    0    0  501 -0.00000000000E+00  0.00000000000E+00  0.59098238962E+02  0.59098239017E+02  0.25500000000E-02 0. -1.
          2   -1    0    0  501    0  0.00000000000E+00 -0.00000000000E+00 -0.96642140014E+03  0.96642140014E+03  0.25500000000E-02 0.  1.
    5000001    1    1    2    0    0 -0.99929783191E+02  0.20117970492E+03 -0.51145553326E+03  0.56389271829E+03  0.77000000000E+02 0.  0.
   -5000001    1    1    2    0    0  0.99929783191E+02 -0.20117970492E+03 -0.39586762792E+03  0.46162692087E+03  0.77000000000E+02 0.  0.
<mgrwt>
<rscale>  0 0.47796989E+03</rscale>
<asrwt>0</asrwt>
<pdfrwt beam="1">  1        2 0.14868020E+00 0.47796989E+03</pdfrwt>
<pdfrwt beam="2">  1       -2 0.90920375E-02 0.47796989E+03</pdfrwt>
<totfact> 0.21308045E+03</totfact>
</mgrwt>
</event>
<event>
 4    1  0.6148427E-004  0.3875974E+03  0.7818608E-02  0.1048161E+00
          2   -1    0    0  501    0  0.00000000000E+00  0.00000000000E+00  0.21443683686E+04  0.21443683686E+04  0.25500000000E-02 0.  1.
         -2   -1    0    0    0  501 -0.00000000000E+00 -0.00000000000E+00 -0.17514686773E+02  0.17514686958E+02  0.25500000000E-02 0. -1.
    5000001    1    1    2    0    0  0.74380100207E+02 -0.15148195074E+03  0.75039390470E+03  0.77298071962E+03  0.77000000000E+02 0.  0.
   -5000001    1    1    2    0    0 -0.74380100207E+02  0.15148195074E+03  0.13764597771E+04  0.13889023359E+04  0.77000000000E+02 0.  0.
<mgrwt>
<rscale>  0 0.38759742E+03</rscale>
<asrwt>0</asrwt>
<pdfrwt beam="1">  1        2 0.32990277E+00 0.38759742E+03</pdfrwt>
<pdfrwt beam="2">  1       -2 0.26945677E-02 0.38759742E+03</pdfrwt>
<totfact> 0.30822111E+03</totfact>
</mgrwt>
</event>
<event>
 4    1  0.6148427E-004  0.2614974E+03  0.7818608E-02  0.1106247E+00
         -2   -1    0    0    0  501 -0.00000000000E+00  0.00000000000E+00  0.10853855983E+03  0.10853855986E+03  0.25500000000E-02 0. -1.
          2   -1    0    0  501    0  0.00000000000E+00 -0.00000000000E+00 -0.15750363392E+03  0.15750363394E+03  0.25500000000E-02 0.  1.
    5000001    1    1    2    0    0  0.92450728016E+02  0.45627152893E+01 -0.76341602843E+02  0.14256575959E+03  0.77000000000E+02 0.  0.
   -5000001    1    1    2    0    0 -0.92450728016E+02 -0.45627152893E+01  0.27376528752E+02  0.12347643422E+03  0.77000000000E+02 0.  0.
<mgrwt>
<rscale>  0 0.26149736E+03</rscale>
<asrwt>0</asrwt>
<pdfrwt beam="1">  1        2 0.24231328E-01 0.26149736E+03</pdfrwt>
<pdfrwt beam="2">  1       -2 0.16698240E-01 0.26149736E+03</pdfrwt>
<totfact> 0.63058134E+03</totfact>
</mgrwt>
</event>
<event>
 4    1  0.6148427E-004  0.6011446E+03  0.7818608E-02  0.9903034E-01
         -2   -1    0    0    0  501 -0.00000000000E+00  0.00000000000E+00  0.34094838636E+03  0.34094838637E+03  0.25500000000E-02 0. -1.
          2   -1    0    0  501    0  0.00000000000E+00 -0.00000000000E+00 -0.26497768878E+03  0.26497768880E+03  0.25500000000E-02 0.  1.
    5000001    1    1    2    0    0  0.26357535351E+03 -0.55312734419E+02 -0.71892029184E+02  0.28918666882E+03  0.77000000000E+02 0.  0.
   -5000001    1    1    2    0    0 -0.26357535351E+03  0.55312734419E+02  0.14786272676E+03  0.31673940634E+03  0.77000000000E+02 0.  0.
<mgrwt>
<rscale>  0 0.60114463E+03</rscale>
<asrwt>0</asrwt>
<pdfrwt beam="1">  1        2 0.40765798E-01 0.60114463E+03</pdfrwt>
<pdfrwt beam="2">  1       -2 0.52453598E-01 0.60114463E+03</pdfrwt>
<totfact> 0.43645067E+02</totfact>
</mgrwt>
</event>
<event>
 4    1  0.6148427E-004  0.2381930E+03  0.7818608E-02  0.1121002E+00
         -2   -1    0    0    0  501 -0.00000000000E+00  0.00000000000E+00  0.12568545192E+02  0.12568545451E+02  0.25500000000E-02 0. -1.
          2   -1    0    0  501    0  0.00000000000E+00 -0.00000000000E+00 -0.11285295120E+04  0.11285295120E+04  0.25500000000E-02 0.  1.
    5000001    1    1    2    0    0 -0.23959537900E+01  0.87788953604E+02 -0.66954527499E+03  0.67965617501E+03  0.77000000000E+02 0.  0.
   -5000001    1    1    2    0    0  0.23959537900E+01 -0.87788953604E+02 -0.44641569179E+03  0.46144188241E+03  0.77000000000E+02 0.  0.
<mgrwt>
<rscale>  0 0.23819298E+03</rscale>
<asrwt>0</asrwt>
<pdfrwt beam="1">  1        2 0.17361985E+00 0.23819298E+03</pdfrwt>
<pdfrwt beam="2">  1       -2 0.19336232E-02 0.23819298E+03</pdfrwt>
<totfact> 0.17703951E+04</totfact>
</mgrwt>
</event>
<event>
 4    1  0.6148427E-004  0.2621091E+03  0.7818608E-02  0.1105883E+00
          2   -1    0    0  501    0  0.00000000000E+00  0.00000000000E+00  0.51397429882E+03  0.51397429883E+03  0.25500000000E-02 0.  1.
         -2   -1    0    0    0  501 -0.00000000000E+00 -0.00000000000E+00 -0.33416654451E+02  0.33416654548E+02  0.25500000000E-02 0. -1.
    5000001    1    1    2    0    0 -0.40475715440E+02 -0.97858635226E+02  0.22851948042E+03  0.26337188339E+03  0.77000000000E+02 0.  0.
   -5000001    1    1    2    0    0  0.40475715440E+02  0.97858635226E+02  0.25203816395E+03  0.28401906999E+03  0.77000000000E+02 0.  0.
<mgrwt>
<rscale>  0 0.26210915E+03</rscale>
<asrwt>0</asrwt>
<pdfrwt beam="1">  1        2 0.79072967E-01 0.26210915E+03</pdfrwt>
<pdfrwt beam="2">  1       -2 0.51410239E-02 0.26210915E+03</pdfrwt>
<totfact> 0.11226779E+04</totfact>
</mgrwt>
</event>
<event>
 4    1  0.6148427E-004  0.2858665E+03  0.7818608E-02  0.1092527E+00
          2   -1    0    0  501    0  0.00000000000E+00  0.00000000000E+00  0.50397688031E+02  0.50397688096E+02  0.25500000000E-02 0.  1.
         -2   -1    0    0    0  501 -0.00000000000E+00 -0.00000000000E+00 -0.40537406431E+03  0.40537406432E+03  0.25500000000E-02 0. -1.
    5000001    1    1    2    0    0 -0.87402656407E+02 -0.80853891823E+02 -0.20620154894E+03  0.25024918572E+03  0.77000000000E+02 0.  0.
   -5000001    1    1    2    0    0  0.87402656407E+02  0.80853891823E+02 -0.14877482735E+03  0.20552256670E+03  0.77000000000E+02 0.  0.
<mgrwt>
<rscale>  0 0.28586651E+03</rscale>
<asrwt>0</asrwt>
<pdfrwt beam="1">  1        2 0.77534907E-02 0.28586651E+03</pdfrwt>
<pdfrwt beam="2">  1       -2 0.62365239E-01 0.28586651E+03</pdfrwt>
<totfact> 0.21569097E+03</totfact>
</mgrwt>
</event>
<event>
 4    1  0.6148427E-004  0.2508976E+03  0.7818608E-02  0.1112739E+00
         -2   -1    0    0    0  501 -0.00000000000E+00  0.00000000000E+00  0.15605626349E+03  0.15605626351E+03  0.25500000000E-02 0. -1.
          2   -1    0    0  501    0  0.00000000000E+00 -0.00000000000E+00 -0.10084443227E+03  0.10084443230E+03  0.25500000000E-02 0.  1.
    5000001    1    1    2    0    0  0.44828728959E+02  0.52330016178E+02  0.10044415121E+03  0.14410438247E+03  0.77000000000E+02 0.  0.
   -5000001    1    1    2    0    0 -0.44828728959E+02 -0.52330016178E+02 -0.45232319991E+02  0.11279631335E+03  0.77000000000E+02 0.  0.
<mgrwt>
<rscale>  0 0.25089763E+03</rscale>
<asrwt>0</asrwt>
<pdfrwt beam="1">  1        2 0.15514528E-01 0.25089763E+03</pdfrwt>
<pdfrwt beam="2">  1       -2 0.24008656E-01 0.25089763E+03</pdfrwt>
<totfact> 0.56469081E+03</totfact>
</mgrwt>
</event>
<event>
 4    1  0.6148427E-004  0.2487093E+03  0.7818608E-02  0.1114123E+00
          2   -1    0    0  501    0  0.00000000000E+00  0.00000000000E+00  0.18430279964E+04  0.18430279964E+04  0.25500000000E-02 0.  1.
         -2   -1    0    0    0  501 -0.00000000000E+00 -0.00000000000E+00 -0.83905854299E+01  0.83905858174E+01  0.25500000000E-02 0. -1.
    5000001    1    1    2    0    0  0.22505035806E+02 -0.94849079621E+02  0.95959943719E+03  0.96760679224E+03  0.77000000000E+02 0.  0.
   -5000001    1    1    2    0    0 -0.22505035806E+02  0.94849079621E+02  0.87503797376E+03  0.88381178996E+03  0.77000000000E+02 0.  0.
<mgrwt>
<rscale>  0 0.24870934E+03</rscale>
<asrwt>0</asrwt>
<pdfrwt beam="1">  1        2 0.28354283E+00 0.24870934E+03</pdfrwt>
<pdfrwt beam="2">  1       -2 0.12908590E-02 0.24870934E+03</pdfrwt>
<totfact> 0.13168590E+04</totfact>
</mgrwt>
</event>
<event>
 4    1  0.6148427E-004  0.2603422E+03  0.7818608E-02  0.1106938E+00
          2   -1    0    0  501    0  0.00000000000E+00  0.00000000000E+00  0.18265787175E+03  0.18265787177E+03  0.25500000000E-02 0.  1.
         -2   -1    0    0    0  501 -0.00000000000E+00 -0.00000000000E+00 -0.92766403465E+02  0.92766403500E+02  0.25500000000E-02 0. -1.
    5000001    1    1    2    0    0 -0.55137840613E+02  0.72013067053E+01  0.13911636277E+03  0.16844703226E+03  0.77000000000E+02 0.  0.
   -5000001    1    1    2    0    0  0.55137840613E+02 -0.72013067053E+01 -0.49224894484E+02  0.10697724301E+03  0.77000000000E+02 0.  0.
<mgrwt>
<rscale>  0 0.26034219E+03</rscale>
<asrwt>0</asrwt>
<pdfrwt beam="1">  1        2 0.28101211E-01 0.26034219E+03</pdfrwt>
<pdfrwt beam="2">  1       -2 0.14271754E-01 0.26034219E+03</pdfrwt>
<totfact> 0.69355127E+03</totfact>
</mgrwt>
</event>
<event>
 4    1  0.6148427E-004  0.2402072E+03  0.7818608E-02  0.1119655E+00
         -2   -1    0    0    0  501 -0.00000000000E+00  0.00000000000E+00  0.12220460476E+03  0.12220460478E+03  0.25500000000E-02 0. -1.
          2   -1    0    0  501    0  0.00000000000E+00 -0.00000000000E+00 -0.11803871645E+03  0.11803871647E+03  0.25500000000E-02 0.  1.
    5000001    1    1    2    0    0 -0.28039655042E+02  0.60654913596E+02  0.65579764669E+02  0.12122271376E+03  0.77000000000E+02 0.  0.
   -5000001    1    1    2    0    0  0.28039655042E+02 -0.60654913596E+02 -0.61413876360E+02  0.11902060749E+03  0.77000000000E+02 0.  0.
<mgrwt>
<rscale>  0 0.24020720E+03</rscale>
<asrwt>0</asrwt>
<pdfrwt beam="1">  1        2 0.18159803E-01 0.24020720E+03</pdfrwt>
<pdfrwt beam="2">  1       -2 0.18800708E-01 0.24020720E+03</pdfrwt>
<totfact> 0.71451564E+03</totfact>
</mgrwt>
</event>
<event>
 4    1  0.6148427E-004  0.3876411E+03  0.7818608E-02  0.1048145E+00
         -2   -1    0    0    0  501 -0.00000000000E+00  0.00000000000E+00  0.13714272059E+02  0.13714272296E+02  0.25500000000E-02 0. -1.
          2   -1    0    0  501    0  0.00000000000E+00 -0.00000000000E+00 -0.27392199761E+04  0.27392199761E+04  0.25500000000E-02 0.  1.
    5000001    1    1    2    0    0  0.76506255342E+02  0.26746948447E+01 -0.25029569282E+04  0.25053109080E+04  0.77000000000E+02 0.  0.
   -5000001    1    1    2    0    0 -0.76506255342E+02 -0.26746948447E+01 -0.22254877577E+03  0.24762334037E+03  0.77000000000E+02 0.  0.
<mgrwt>
<rscale>  0 0.38764111E+03</rscale>
<asrwt>0</asrwt>
<pdfrwt beam="1">  1        2 0.42141802E+00 0.38764111E+03</pdfrwt>
<pdfrwt beam="2">  1       -2 0.21098902E-02 0.38764111E+03</pdfrwt>
<totfact> 0.20839677E+03</totfact>
</mgrwt>
</event>
<event>
 4    1  0.6148427E-004  0.1816596E+03  0.7818608E-02  0.1166206E+00
         -2   -1    0    0    0  501 -0.00000000000E+00  0.00000000000E+00  0.64633165184E+02  0.64633165234E+02  0.25500000000E-02 0. -1.
          2   -1    0    0  501    0  0.00000000000E+00 -0.00000000000E+00 -0.12764427984E+03  0.12764427986E+03  0.25500000000E-02 0.  1.
    5000001    1    1    2    0    0  0.51488271164E+01  0.46217287797E+02 -0.18179783935E+02  0.91771742143E+02  0.77000000000E+02 0.  0.
   -5000001    1    1    2    0    0 -0.51488271164E+01 -0.46217287797E+02 -0.44831330716E+02  0.10050570295E+03  0.77000000000E+02 0.  0.
<mgrwt>
<rscale>  0 0.18165961E+03</rscale>
<asrwt>0</asrwt>
<pdfrwt beam="1">  1        2 0.19637581E-01 0.18165961E+03</pdfrwt>
<pdfrwt beam="2">  1       -2 0.99435639E-02 0.18165961E+03</pdfrwt>
<totfact> 0.18135844E+04</totfact>
</mgrwt>
</event>
<event>
 4    1  0.6148427E-004  0.2013328E+03  0.7818608E-02  0.1148619E+00
          2   -1    0    0  501    0  0.00000000000E+00  0.00000000000E+00  0.48711383355E+03  0.48711383356E+03  0.25500000000E-02 0.  1.
         -2   -1    0    0    0  501 -0.00000000000E+00 -0.00000000000E+00 -0.20803605694E+02  0.20803605850E+02  0.25500000000E-02 0. -1.
    5000001    1    1    2    0    0  0.43108886102E+02  0.12170182603E+01  0.35531755268E+03  0.36611394461E+03  0.77000000000E+02 0.  0.
   -5000001    1    1    2    0    0 -0.43108886102E+02 -0.12170182603E+01  0.11099267518E+03  0.14180349480E+03  0.77000000000E+02 0.  0.
<mgrwt>
<rscale>  0 0.20133280E+03</rscale>
<asrwt>0</asrwt>
<pdfrwt beam="1">  1        2 0.74940588E-01 0.20133280E+03</pdfrwt>
<pdfrwt beam="2">  1       -2 0.32005548E-02 0.20133280E+03</pdfrwt>
<totfact> 0.23912023E+04</totfact>
</mgrwt>
</event>
<event>
 4    1  0.6148427E-004  0.2677837E+03  0.7818608E-02  0.1102555E+00
          2   -1    0    0  501    0  0.00000000000E+00  0.00000000000E+00  0.16527341285E+04  0.16527341285E+04  0.25500000000E-02 0.  1.
         -2   -1    0    0    0  501 -0.00000000000E+00 -0.00000000000E+00 -0.10846892219E+02  0.10846892519E+02  0.25500000000E-02 0. -1.
    5000001    1    1    2    0    0 -0.31430354335E+01 -0.92841177147E+02  0.46037427523E+03  0.47592314100E+03  0.77000000000E+02 0.  0.
   -5000001    1    1    2    0    0  0.31430354335E+01  0.92841177147E+02  0.11815129611E+04  0.11876578800E+04  0.77000000000E+02 0.  0.
<mgrwt>
<rscale>  0 0.26778371E+03</rscale>
<asrwt>0</asrwt>
<pdfrwt beam="1">  1        2 0.25426677E+00 0.26778371E+03</pdfrwt>
<pdfrwt beam="2">  1       -2 0.16687528E-02 0.26778371E+03</pdfrwt>
<totfact> 0.11410029E+04</totfact>
</mgrwt>
</event>
<event>
 4    1  0.6148427E-004  0.1992225E+03  0.7818608E-02  0.1150397E+00
          2   -1    0    0  501    0  0.00000000000E+00  0.00000000000E+00  0.50132994616E+03  0.50132994616E+03  0.25500000000E-02 0.  1.
         -2   -1    0    0    0  501 -0.00000000000E+00 -0.00000000000E+00 -0.19792152443E+02  0.19792152607E+02  0.25500000000E-02 0. -1.
    5000001    1    1    2    0    0 -0.70049080146E+01 -0.60630568329E+02  0.19792563533E+03  0.22097215135E+03  0.77000000000E+02 0.  0.
   -5000001    1    1    2    0    0  0.70049080146E+01  0.60630568329E+02  0.28361215839E+03  0.30014994742E+03  0.77000000000E+02 0.  0.
<mgrwt>
<rscale>  0 0.19922248E+03</rscale>
<asrwt>0</asrwt>
<pdfrwt beam="1">  1        2 0.77127687E-01 0.19922248E+03</pdfrwt>
<pdfrwt beam="2">  1       -2 0.30449464E-02 0.19922248E+03</pdfrwt>
<totfact> 0.24918770E+04</totfact>
</mgrwt>
</event>
<event>
 4    1  0.6148427E-004  0.2156450E+03  0.7818608E-02  0.1137172E+00
          2   -1    0    0  501    0  0.00000000000E+00  0.00000000000E+00  0.57791733328E+02  0.57791733384E+02  0.25500000000E-02 0.  1.
         -2   -1    0    0    0  501 -0.00000000000E+00 -0.00000000000E+00 -0.20116523556E+03  0.20116523558E+03  0.25500000000E-02 0. -1.
    5000001    1    1    2    0    0  0.55007353762E+02 -0.72522208714E+01 -0.10240321006E+02  0.95458199489E+02  0.77000000000E+02 0.  0.
   -5000001    1    1    2    0    0 -0.55007353762E+02  0.72522208714E+01 -0.13313318123E+03  0.16349876947E+03  0.77000000000E+02 0.  0.
<mgrwt>
<rscale>  0 0.21564496E+03</rscale>
<asrwt>0</asrwt>
<pdfrwt beam="1">  1        2 0.88910360E-02 0.21564496E+03</pdfrwt>
<pdfrwt beam="2">  1       -2 0.30948498E-01 0.21564496E+03</pdfrwt>
<totfact> 0.70140571E+03</totfact>
</mgrwt>
</event>
<event>
 4    1  0.6148427E-004  0.3009118E+03  0.7818608E-02  0.1084786E+00
         -2   -1    0    0    0  501 -0.00000000000E+00  0.00000000000E+00  0.34016695573E+02  0.34016695668E+02  0.25500000000E-02 0. -1.
          2   -1    0    0  501    0  0.00000000000E+00 -0.00000000000E+00 -0.66546663445E+03  0.66546663446E+03  0.25500000000E-02 0.  1.
    5000001    1    1    2    0    0 -0.62550733312E+02 -0.10376744870E+03 -0.42039921457E+03  0.44423504731E+03  0.77000000000E+02 0.  0.
   -5000001    1    1    2    0    0  0.62550733312E+02  0.10376744870E+03 -0.21105072431E+03  0.25524828282E+03  0.77000000000E+02 0.  0.
<mgrwt>
<rscale>  0 0.30091179E+03</rscale>
<asrwt>0</asrwt>
<pdfrwt beam="1">  1        2 0.10237947E+00 0.30091179E+03</pdfrwt>
<pdfrwt beam="2">  1       -2 0.52333383E-02 0.30091179E+03</pdfrwt>
<totfact> 0.81432736E+03</totfact>
</mgrwt>
</event>
<event>
 4    1  0.6148427E-004  0.8831281E+03  0.7818608E-02  0.9446921E-01
          2   -1    0    0  501    0  0.00000000000E+00  0.00000000000E+00  0.26539759830E+03  0.26539759831E+03  0.25500000000E-02 0.  1.
         -2   -1    0    0    0  501 -0.00000000000E+00 -0.00000000000E+00 -0.73466689111E+03  0.73466689112E+03  0.25500000000E-02 0. -1.
    5000001    1    1    2    0    0 -0.46764492982E+02  0.31981294760E+03 -0.56397486563E+03  0.65457153034E+03  0.77000000000E+02 0.  0.
   -5000001    1    1    2    0    0  0.46764492982E+02 -0.31981294760E+03  0.94705572818E+02  0.34549295909E+03  0.77000000000E+02 0.  0.
<mgrwt>
<rscale>  0 0.88312814E+03</rscale>
<asrwt>0</asrwt>
<pdfrwt beam="1">  1        2 0.40830400E-01 0.88312814E+03</pdfrwt>
<pdfrwt beam="2">  1       -2 0.11302567E+00 0.88312814E+03</pdfrwt>
<totfact> 0.77718521E+01</totfact>
</mgrwt>
</event>
<event>
 4    1  0.6148427E-004  0.2170571E+03  0.7818608E-02  0.1136096E+00
         -2   -1    0    0    0  501 -0.00000000000E+00  0.00000000000E+00  0.13460301295E+04  0.13460301295E+04  0.25500000000E-02 0. -1.
          2   -1    0    0  501    0  0.00000000000E+00 -0.00000000000E+00 -0.87505057772E+01  0.87505061488E+01  0.25500000000E-02 0.  1.
    5000001    1    1    2    0    0 -0.74907582145E+02  0.14830591903E+02  0.64190107039E+03  0.65099698654E+03  0.77000000000E+02 0.  0.
   -5000001    1    1    2    0    0  0.74907582145E+02 -0.14830591903E+02  0.69537855338E+03  0.70378364915E+03  0.77000000000E+02 0.  0.
<mgrwt>
<rscale>  0 0.21705709E+03</rscale>
<asrwt>0</asrwt>
<pdfrwt beam="1">  1        2 0.13462315E-02 0.21705709E+03</pdfrwt>
<pdfrwt beam="2">  1       -2 0.20708159E+00 0.21705709E+03</pdfrwt>
<totfact> 0.12262660E+03</totfact>
</mgrwt>
</event>
<event>
 4    1  0.6148427E-004  0.2269368E+03  0.7818608E-02  0.1128815E+00
          2   -1    0    0  501    0  0.00000000000E+00  0.00000000000E+00  0.21568435176E+04  0.21568435176E+04  0.25500000000E-02 0.  1.
         -2   -1    0    0    0  501 -0.00000000000E+00 -0.00000000000E+00 -0.59694051195E+01  0.59694056642E+01  0.25500000000E-02 0. -1.
    5000001    1    1    2    0    0  0.81395785015E+02 -0.91489619349E+01  0.12221864183E+04  0.12273457616E+04  0.77000000000E+02 0.  0.
   -5000001    1    1    2    0    0 -0.81395785015E+02  0.91489619349E+01  0.92868769418E+03  0.93546716172E+03  0.77000000000E+02 0.  0.
<mgrwt>
<rscale>  0 0.22693676E+03</rscale>
<asrwt>0</asrwt>
<pdfrwt beam="1">  1        2 0.33182203E+00 0.22693676E+03</pdfrwt>
<pdfrwt beam="2">  1       -2 0.91837020E-03 0.22693676E+03</pdfrwt>
<totfact> 0.14742705E+04</totfact>
</mgrwt>
</event>
<event>
 4    1  0.6148427E-004  0.3286655E+03  0.7818608E-02  0.1071729E+00
          2   -1    0    0  501    0  0.00000000000E+00  0.00000000000E+00  0.40635865622E+04  0.40635865622E+04  0.25500000000E-02 0.  1.
         -2   -1    0    0    0  501 -0.00000000000E+00 -0.00000000000E+00 -0.66456695386E+01  0.66456700279E+01  0.25500000000E-02 0. -1.
    5000001    1    1    2    0    0 -0.78435638722E+02 -0.11980339014E+03  0.23244619175E+04  0.23301410274E+04  0.77000000000E+02 0.  0.
   -5000001    1    1    2    0    0  0.78435638722E+02  0.11980339014E+03  0.17324789753E+04  0.17400912049E+04  0.77000000000E+02 0.  0.
<mgrwt>
<rscale>  0 0.32866551E+03</rscale>
<asrwt>0</asrwt>
<pdfrwt beam="1">  1        2 0.62516603E+00 0.32866551E+03</pdfrwt>
<pdfrwt beam="2">  1       -2 0.10224126E-02 0.32866551E+03</pdfrwt>
<totfact> 0.81388146E+02</totfact>
</mgrwt>
</event>
<event>
 4    1  0.6148427E-004  0.2553704E+03  0.7818608E-02  0.1109957E+00
          2   -1    0    0  501    0  0.00000000000E+00  0.00000000000E+00  0.56960565950E+03  0.56960565951E+03  0.25500000000E-02 0.  1.
         -2   -1    0    0    0  501 -0.00000000000E+00 -0.00000000000E+00 -0.28622457657E+02  0.28622457771E+02  0.25500000000E-02 0. -1.
    5000001    1    1    2    0    0 -0.49395307005E+02 -0.52153643804E+02  0.43965536535E+03  0.45209041042E+03  0.77000000000E+02 0.  0.
   -5000001    1    1    2    0    0  0.49395307005E+02  0.52153643804E+02  0.10132783650E+03  0.14613770686E+03  0.77000000000E+02 0.  0.
<mgrwt>
<rscale>  0 0.25537043E+03</rscale>
<asrwt>0</asrwt>
<pdfrwt beam="1">  1        2 0.87631631E-01 0.25537043E+03</pdfrwt>
<pdfrwt beam="2">  1       -2 0.44034555E-02 0.25537043E+03</pdfrwt>
<totfact> 0.12619144E+04</totfact>
</mgrwt>
</event>
<event>
 4    1  0.6148427E-004  0.2092219E+03  0.7818608E-02  0.1142184E+00
         -2   -1    0    0    0  501 -0.00000000000E+00  0.00000000000E+00  0.13298625144E+03  0.13298625146E+03  0.25500000000E-02 0. -1.
          2   -1    0    0  501    0  0.00000000000E+00 -0.00000000000E+00 -0.82290074605E+02  0.82290074645E+02  0.25500000000E-02 0.  1.
    5000001    1    1    2    0    0 -0.31907211305E+02  0.59805392583E+02  0.42688328341E+01  0.10267413525E+03  0.77000000000E+02 0.  0.
   -5000001    1    1    2    0    0  0.31907211305E+02 -0.59805392583E+02  0.46427343998E+02  0.11260219086E+03  0.77000000000E+02 0.  0.
<mgrwt>
<rscale>  0 0.20922188E+03</rscale>
<asrwt>0</asrwt>
<pdfrwt beam="1">  1        2 0.12660012E-01 0.20922188E+03</pdfrwt>
<pdfrwt beam="2">  1       -2 0.20459423E-01 0.20922188E+03</pdfrwt>
<totfact> 0.94006645E+03</totfact>
</mgrwt>
</event>
<event>
 4    1  0.6148427E-004  0.3587111E+03  0.7818608E-02  0.1059095E+00
         -2   -1    0    0    0  501 -0.00000000000E+00  0.00000000000E+00  0.94030316669E+02  0.94030316704E+02  0.25500000000E-02 0. -1.
          2   -1    0    0  501    0  0.00000000000E+00 -0.00000000000E+00 -0.34210690895E+03  0.34210690896E+03  0.25500000000E-02 0.  1.
    5000001    1    1    2    0    0 -0.11298817826E+03 -0.15554917102E+02  0.15816342099E+02  0.13851873718E+03  0.77000000000E+02 0.  0.
   -5000001    1    1    2    0    0  0.11298817826E+03  0.15554917102E+02 -0.26389293438E+03  0.29761848848E+03  0.77000000000E+02 0.  0.
<mgrwt>
<rscale>  0 0.35871114E+03</rscale>
<asrwt>0</asrwt>
<pdfrwt beam="1">  1        2 0.52631832E-01 0.35871114E+03</pdfrwt>
<pdfrwt beam="2">  1       -2 0.14466203E-01 0.35871114E+03</pdfrwt>
<totfact> 0.34593303E+03</totfact>
</mgrwt>
</event>
<event>
 4    1  0.6148427E-004  0.3961450E+03  0.7818608E-02  0.1045123E+00
          2   -1    0    0  501    0  0.00000000000E+00  0.00000000000E+00  0.44710458576E+03  0.44710458576E+03  0.25500000000E-02 0.  1.
         -2   -1    0    0    0  501 -0.00000000000E+00 -0.00000000000E+00 -0.87748387660E+02  0.87748387697E+02  0.25500000000E-02 0. -1.
    5000001    1    1    2    0    0  0.12520109330E+03  0.12597675213E+03  0.23629168732E+03  0.30546393786E+03  0.77000000000E+02 0.  0.
   -5000001    1    1    2    0    0 -0.12520109330E+03 -0.12597675213E+03  0.12306451078E+03  0.22938903560E+03  0.77000000000E+02 0.  0.
<mgrwt>
<rscale>  0 0.39614496E+03</rscale>
<asrwt>0</asrwt>
<pdfrwt beam="1">  1        2 0.68785319E-01 0.39614496E+03</pdfrwt>
<pdfrwt beam="2">  1       -2 0.13499752E-01 0.39614496E+03</pdfrwt>
<totfact> 0.28940906E+03</totfact>
</mgrwt>
</event>
<event>
 4    1  0.6148427E-004  0.2087433E+03  0.7818608E-02  0.1142565E+00
          2   -1    0    0  501    0  0.00000000000E+00  0.00000000000E+00  0.21558388620E+03  0.21558388622E+03  0.25500000000E-02 0.  1.
         -2   -1    0    0    0  501 -0.00000000000E+00 -0.00000000000E+00 -0.50529959558E+02  0.50529959622E+02  0.25500000000E-02 0. -1.
    5000001    1    1    2    0    0 -0.50498132824E+02  0.46301729199E+02  0.10349536805E+03  0.14606232489E+03  0.77000000000E+02 0.  0.
   -5000001    1    1    2    0    0  0.50498132824E+02 -0.46301729199E+02  0.61558558600E+02  0.12005152095E+03  0.77000000000E+02 0.  0.
<mgrwt>
<rscale>  0 0.20874334E+03</rscale>
<asrwt>0</asrwt>
<pdfrwt beam="1">  1        2 0.33166752E-01 0.20874334E+03</pdfrwt>
<pdfrwt beam="2">  1       -2 0.77738399E-02 0.20874334E+03</pdfrwt>
<totfact> 0.15058736E+04</totfact>
</mgrwt>
</event>
<event>
 4    1  0.6148427E-004  0.1617241E+03  0.7818608E-02  0.1186764E+00
         -2   -1    0    0    0  501 -0.00000000000E+00  0.00000000000E+00  0.53043392325E+01  0.53043398455E+01  0.25500000000E-02 0. -1.
          2   -1    0    0  501    0  0.00000000000E+00 -0.00000000000E+00 -0.12327018650E+04  0.12327018650E+04  0.25500000000E-02 0.  1.
    5000001    1    1    2    0    0  0.21798677718E+02 -0.10083508982E+02 -0.56985078729E+03  0.57553086735E+03  0.77000000000E+02 0.  0.
   -5000001    1    1    2    0    0 -0.21798677718E+02  0.10083508982E+02 -0.65754673845E+03  0.66247533746E+03  0.77000000000E+02 0.  0.
<mgrwt>
<rscale>  0 0.16172408E+03</rscale>
<asrwt>0</asrwt>
<pdfrwt beam="1">  1        2 0.18964621E+00 0.16172408E+03</pdfrwt>
<pdfrwt beam="2">  1       -2 0.81605322E-03 0.16172408E+03</pdfrwt>
<totfact> 0.52576072E+04</totfact>
</mgrwt>
</event>
<event>
 4    1  0.6148427E-004  0.2338590E+03  0.7818608E-02  0.1123953E+00
          2   -1    0    0  501    0  0.00000000000E+00  0.00000000000E+00  0.10689393144E+04  0.10689393144E+04  0.25500000000E-02 0.  1.
         -2   -1    0    0    0  501 -0.00000000000E+00 -0.00000000000E+00 -0.12790725196E+02  0.12790725450E+02  0.25500000000E-02 0. -1.
    5000001    1    1    2    0    0  0.16547033251E+02  0.86426407923E+02  0.53004146428E+03  0.54278566870E+03  0.77000000000E+02 0.  0.
   -5000001    1    1    2    0    0 -0.16547033251E+02 -0.86426407923E+02  0.52610712495E+03  0.53894437117E+03  0.77000000000E+02 0.  0.
<mgrwt>
<rscale>  0 0.23385901E+03</rscale>
<asrwt>0</asrwt>
<pdfrwt beam="1">  1        2 0.16445222E+00 0.23385901E+03</pdfrwt>
<pdfrwt beam="2">  1       -2 0.19678037E-02 0.23385901E+03</pdfrwt>
<totfact> 0.18681078E+04</totfact>
</mgrwt>
</event>
<event>
 4    1  0.6148427E-004  0.3920322E+03  0.7818608E-02  0.1046574E+00
         -2   -1    0    0    0  501 -0.00000000000E+00  0.00000000000E+00  0.20772866828E+03  0.20772866829E+03  0.25500000000E-02 0.  1.
          2   -1    0    0  501    0  0.00000000000E+00 -0.00000000000E+00 -0.18496395415E+03  0.18496395417E+03  0.25500000000E-02 0. -1.
    5000001    1    1    2    0    0  0.10367559596E+03 -0.14583013586E+03 -0.10523596933E+02  0.19507640507E+03  0.77000000000E+02 0.  0.
   -5000001    1    1    2    0    0 -0.10367559596E+03  0.14583013586E+03  0.33288311056E+02  0.19761621739E+03  0.77000000000E+02 0.  0.
<mgrwt>
<rscale>  0 0.39203222E+03</rscale>
<asrwt>0</asrwt>
<pdfrwt beam="1">  1        2 0.28455993E-01 0.39203222E+03</pdfrwt>
<pdfrwt beam="2">  1       -2 0.31958257E-01 0.39203222E+03</pdfrwt>
<totfact> 0.17043525E+03</totfact>
</mgrwt>
</event>
<event>
 4    1  0.6148427E-004  0.2767113E+03  0.7818608E-02  0.1097499E+00
          2   -1    0    0  501    0  0.00000000000E+00  0.00000000000E+00  0.16830619673E+03  0.16830619675E+03  0.25500000000E-02 0.  1.
         -2   -1    0    0    0  501 -0.00000000000E+00 -0.00000000000E+00 -0.11373490038E+03  0.11373490041E+03  0.25500000000E-02 0. -1.
    5000001    1    1    2    0    0 -0.75603160738E+02  0.76994214084E+02 -0.13092297144E+02  0.13320793955E+03  0.77000000000E+02 0.  0.
   -5000001    1    1    2    0    0  0.75603160738E+02 -0.76994214084E+02  0.67663593493E+02  0.14883315760E+03  0.77000000000E+02 0.  0.
<mgrwt>
<rscale>  0 0.27671132E+03</rscale>
<asrwt>0</asrwt>
<pdfrwt beam="1">  1        2 0.25893261E-01 0.27671132E+03</pdfrwt>
<pdfrwt beam="2">  1       -2 0.17497677E-01 0.27671132E+03</pdfrwt>
<totfact> 0.54255709E+03</totfact>
</mgrwt>
</event>
<event>
 4    1  0.6148427E-004  0.2177731E+03  0.7818608E-02  0.1135554E+00
          2   -1    0    0  501    0  0.00000000000E+00  0.00000000000E+00  0.60521518447E+03  0.60521518448E+03  0.25500000000E-02 0.  1.
         -2   -1    0    0    0  501 -0.00000000000E+00 -0.00000000000E+00 -0.19590196524E+02  0.19590196690E+02  0.25500000000E-02 0. -1.
    5000001    1    1    2    0    0 -0.41853456807E+02 -0.63799048593E+02  0.32224720542E+03  0.33999160556E+03  0.77000000000E+02 0.  0.
   -5000001    1    1    2    0    0  0.41853456807E+02  0.63799048593E+02  0.26337778253E+03  0.28481377561E+03  0.77000000000E+02 0.  0.
<mgrwt>
<rscale>  0 0.21777313E+03</rscale>
<asrwt>0</asrwt>
<pdfrwt beam="1">  1        2 0.93110025E-01 0.21777313E+03</pdfrwt>
<pdfrwt beam="2">  1       -2 0.30138765E-02 0.21777313E+03</pdfrwt>
<totfact> 0.20567763E+04</totfact>
</mgrwt>
</event>
<event>
 4    1  0.6148427E-004  0.2694398E+03  0.7818608E-02  0.1101601E+00
         -2   -1    0    0    0  501 -0.00000000000E+00  0.00000000000E+00  0.41939669285E+02  0.41939669362E+02  0.25500000000E-02 0. -1.
          2   -1    0    0  501    0  0.00000000000E+00 -0.00000000000E+00 -0.43275145585E+03  0.43275145585E+03  0.25500000000E-02 0.  1.
    5000001    1    1    2    0    0  0.91115283890E+02  0.93965015525E+01 -0.30443890748E+03  0.32711211776E+03  0.77000000000E+02 0.  0.
   -5000001    1    1    2    0    0 -0.91115283890E+02 -0.93965015525E+01 -0.86372879080E+02  0.14757900745E+03  0.77000000000E+02 0.  0.
<mgrwt>
<rscale>  0 0.26943981E+03</rscale>
<asrwt>0</asrwt>
<pdfrwt beam="1">  1        2 0.66577144E-01 0.26943981E+03</pdfrwt>
<pdfrwt beam="2">  1       -2 0.64522571E-02 0.26943981E+03</pdfrwt>
<totfact> 0.96066559E+03</totfact>
</mgrwt>
</event>
<event>
 4    1  0.6148427E-004  0.3609029E+03  0.7818608E-02  0.1058227E+00
          2   -1    0    0  501    0  0.00000000000E+00  0.00000000000E+00  0.18487859736E+03  0.18487859738E+03  0.25500000000E-02 0.  1.
         -2   -1    0    0    0  501 -0.00000000000E+00 -0.00000000000E+00 -0.17613031322E+03  0.17613031324E+03  0.25500000000E-02 0. -1.
    5000001    1    1    2    0    0 -0.14548695128E+03 -0.49796624272E+02 -0.50300567926E+02  0.17917952984E+03  0.77000000000E+02 0.  0.
   -5000001    1    1    2    0    0  0.14548695128E+03  0.49796624272E+02  0.59048852069E+02  0.18182938077E+03  0.77000000000E+02 0.  0.
<mgrwt>
<rscale>  0 0.36090290E+03</rscale>
<asrwt>0</asrwt>
<pdfrwt beam="1">  1        2 0.28442861E-01 0.36090290E+03</pdfrwt>
<pdfrwt beam="2">  1       -2 0.27096971E-01 0.36090290E+03</pdfrwt>
<totfact> 0.23013509E+03</totfact>
</mgrwt>
</event>
<event>
 4    1  0.6148427E-004  0.2313281E+03  0.7818608E-02  0.1125708E+00
         -2   -1    0    0    0  501 -0.00000000000E+00  0.00000000000E+00  0.13602718410E+02  0.13602718649E+02  0.25500000000E-02 0. -1.
          2   -1    0    0  501    0  0.00000000000E+00 -0.00000000000E+00 -0.98349293138E+03  0.98349293139E+03  0.25500000000E-02 0.  1.
    5000001    1    1    2    0    0 -0.59297664992E+02  0.84938063145E+01 -0.21712195924E+03  0.23803214700E+03  0.77000000000E+02 0.  0.
   -5000001    1    1    2    0    0  0.59297664992E+02 -0.84938063145E+01 -0.75276825373E+03  0.75906350304E+03  0.77000000000E+02 0.  0.
<mgrwt>
<rscale>  0 0.23132814E+03</rscale>
<asrwt>0</asrwt>
<pdfrwt beam="1">  1        2 0.15130655E+00 0.23132814E+03</pdfrwt>
<pdfrwt beam="2">  1       -2 0.20927267E-02 0.23132814E+03</pdfrwt>
<totfact> 0.19204896E+04</totfact>
</mgrwt>
</event>
<event>
 4    1  0.6148427E-004  0.2132180E+03  0.7818608E-02  0.1139043E+00
         -2   -1    0    0    0  501 -0.00000000000E+00  0.00000000000E+00  0.17171766876E+02  0.17171767065E+02  0.25500000000E-02 0. -1.
          2   -1    0    0  501    0  0.00000000000E+00 -0.00000000000E+00 -0.66186977694E+03  0.66186977694E+03  0.25500000000E-02 0.  1.
    5000001    1    1    2    0    0  0.71227175809E+02  0.57011561896E+01 -0.38026030253E+03  0.39450311968E+03  0.77000000000E+02 0.  0.
   -5000001    1    1    2    0    0 -0.71227175809E+02 -0.57011561896E+01 -0.26443770754E+03  0.28453842433E+03  0.77000000000E+02 0.  0.
<mgrwt>
<rscale>  0 0.21321795E+03</rscale>
<asrwt>0</asrwt>
<pdfrwt beam="1">  1        2 0.10182610E+00 0.21321795E+03</pdfrwt>
<pdfrwt beam="2">  1       -2 0.26418108E-02 0.21321795E+03</pdfrwt>
<totfact> 0.22477860E+04</totfact>
</mgrwt>
</event>
<event>
 4    1  0.6148427E-004  0.2328797E+03  0.7818608E-02  0.1124629E+00
         -2   -1    0    0    0  501 -0.00000000000E+00  0.00000000000E+00  0.10672885877E+02  0.10672886182E+02  0.25500000000E-02 0. -1.
          2   -1    0    0  501    0  0.00000000000E+00 -0.00000000000E+00 -0.12703440268E+04  0.12703440268E+04  0.25500000000E-02 0.  1.
    5000001    1    1    2    0    0 -0.14660885794E+02  0.45760898258E+02 -0.22860991879E+03  0.24596848650E+03  0.77000000000E+02 0.  0.
   -5000001    1    1    2    0    0  0.14660885794E+02 -0.45760898258E+02 -0.10310612222E+04  0.10350484265E+04  0.77000000000E+02 0.  0.
<mgrwt>
<rscale>  0 0.23287969E+03</rscale>
<asrwt>0</asrwt>
<pdfrwt beam="1">  1        2 0.19543742E+00 0.23287969E+03</pdfrwt>
<pdfrwt beam="2">  1       -2 0.16419835E-02 0.23287969E+03</pdfrwt>
<totfact> 0.18675698E+04</totfact>
</mgrwt>
</event>
<event>
 4    1  0.6148427E-004  0.2879736E+03  0.7818608E-02  0.1091412E+00
         -2   -1    0    0    0  501 -0.00000000000E+00  0.00000000000E+00  0.17088780978E+02  0.17088781168E+02  0.25500000000E-02 0. -1.
          2   -1    0    0  501    0  0.00000000000E+00 -0.00000000000E+00 -0.12132049827E+04  0.12132049827E+04  0.25500000000E-02 0.  1.
    5000001    1    1    2    0    0 -0.53657668020E+02  0.32833927275E+02 -0.10429870210E+04  0.10477156762E+04  0.77000000000E+02 0.  0.
   -5000001    1    1    2    0    0  0.53657668020E+02 -0.32833927275E+02 -0.15312918068E+03  0.18257808766E+03  0.77000000000E+02 0.  0.
<mgrwt>
<rscale>  0 0.28797357E+03</rscale>
<asrwt>0</asrwt>
<pdfrwt beam="1">  1        2 0.18664685E+00 0.28797357E+03</pdfrwt>
<pdfrwt beam="2">  1       -2 0.26290442E-02 0.28797357E+03</pdfrwt>
<totfact> 0.10129338E+04</totfact>
</mgrwt>
</event>
<event>
 4    1  0.6148427E-004  0.2208817E+03  0.7818608E-02  0.1133227E+00
          2   -1    0    0  501    0  0.00000000000E+00  0.00000000000E+00  0.76635060364E+02  0.76635060407E+02  0.25500000000E-02 0.  1.
         -2   -1    0    0    0  501 -0.00000000000E+00 -0.00000000000E+00 -0.15915921927E+03  0.15915921929E+03  0.25500000000E-02 0. -1.
    5000001    1    1    2    0    0  0.28318037541E+02  0.73927117238E+02 -0.42354115837E+02  0.11827933480E+03  0.77000000000E+02 0.  0.
   -5000001    1    1    2    0    0 -0.28318037541E+02 -0.73927117238E+02 -0.40170043070E+02  0.11751494489E+03  0.77000000000E+02 0.  0.
<mgrwt>
<rscale>  0 0.22088166E+03</rscale>
<asrwt>0</asrwt>
<pdfrwt beam="1">  1        2 0.11790009E-01 0.22088166E+03</pdfrwt>
<pdfrwt beam="2">  1       -2 0.24486034E-01 0.22088166E+03</pdfrwt>
<totfact> 0.75318828E+03</totfact>
</mgrwt>
</event>
<event>
 4    1  0.6148427E-004  0.4856806E+03  0.7818608E-02  0.1017586E+00
          2   -1    0    0  501    0  0.00000000000E+00  0.00000000000E+00  0.10132721654E+04  0.10132721654E+04  0.25500000000E-02 0.  1.
         -2   -1    0    0    0  501 -0.00000000000E+00 -0.00000000000E+00 -0.58198977994E+02  0.58198978050E+02  0.25500000000E-02 0. -1.
    5000001    1    1    2    0    0 -0.17348473604E+03 -0.14764881705E+03  0.40287708214E+03  0.46918660481E+03  0.77000000000E+02 0.  0.
   -5000001    1    1    2    0    0  0.17348473604E+03  0.14764881705E+03  0.55219610522E+03  0.60228453860E+03  0.77000000000E+02 0.  0.
<mgrwt>
<rscale>  0 0.48568057E+03</rscale>
<asrwt>0</asrwt>
<pdfrwt beam="1">  1        2 0.15588805E+00 0.48568057E+03</pdfrwt>
<pdfrwt beam="2">  1       -2 0.89536876E-02 0.48568057E+03</pdfrwt>
<totfact> 0.20399896E+03</totfact>
</mgrwt>
</event>
<event>
 4    1  0.6148427E-004  0.2264489E+03  0.7818608E-02  0.1129164E+00
         -2   -1    0    0    0  501 -0.00000000000E+00  0.00000000000E+00  0.23024962509E+03  0.23024962510E+03  0.25500000000E-02 0. -1.
          2   -1    0    0  501    0  0.00000000000E+00 -0.00000000000E+00 -0.55677717930E+02  0.55677717989E+02  0.25500000000E-02 0.  1.
    5000001    1    1    2    0    0 -0.19303995571E+02  0.49598297318E+02  0.16772167070E+03  0.19207340827E+03  0.77000000000E+02 0.  0.
   -5000001    1    1    2    0    0  0.19303995571E+02 -0.49598297318E+02  0.68502364578E+01  0.93853934821E+02  0.77000000000E+02 0.  0.
<mgrwt>
<rscale>  0 0.22644888E+03</rscale>
<asrwt>0</asrwt>
<pdfrwt beam="1">  1        2 0.85658029E-02 0.22644888E+03</pdfrwt>
<pdfrwt beam="2">  1       -2 0.35423019E-01 0.22644888E+03</pdfrwt>
<totfact> 0.57473568E+03</totfact>
</mgrwt>
</event>
<event>
 4    1  0.6148427E-004  0.4173391E+03  0.7818608E-02  0.1037936E+00
         -2   -1    0    0    0  501 -0.00000000000E+00  0.00000000000E+00  0.35908191629E+02  0.35908191719E+02  0.25500000000E-02 0. -1.
          2   -1    0    0  501    0  0.00000000000E+00 -0.00000000000E+00 -0.12126198066E+04  0.12126198066E+04  0.25500000000E-02 0.  1.
    5000001    1    1    2    0    0 -0.17837084892E+03 -0.70128625903E+02 -0.67709210504E+03  0.70789611005E+03  0.77000000000E+02 0.  0.
   -5000001    1    1    2    0    0  0.17837084892E+03  0.70128625903E+02 -0.49961950997E+03  0.54063188831E+03  0.77000000000E+02 0.  0.
<mgrwt>
<rscale>  0 0.41733912E+03</rscale>
<asrwt>0</asrwt>
<pdfrwt beam="1">  1        2 0.18655686E+00 0.41733912E+03</pdfrwt>
<pdfrwt beam="2">  1       -2 0.55243381E-02 0.41733912E+03</pdfrwt>
<totfact> 0.33112053E+03</totfact>
</mgrwt>
</event>
<event>
 4    1  0.6148427E-004  0.1789299E+03  0.7818608E-02  0.1168843E+00
         -2   -1    0    0    0  501 -0.00000000000E+00  0.00000000000E+00  0.27903442637E+03  0.27903442638E+03  0.25500000000E-02 0. -1.
          2   -1    0    0  501    0  0.00000000000E+00 -0.00000000000E+00 -0.28684558443E+02  0.28684558556E+02  0.25500000000E-02 0.  1.
    5000001    1    1    2    0    0  0.18497317730E+01  0.43207974524E+02  0.10057382681E+03  0.13384485500E+03  0.77000000000E+02 0.  0.
   -5000001    1    1    2    0    0 -0.18497317730E+01 -0.43207974524E+02  0.14977604111E+03  0.17387412994E+03  0.77000000000E+02 0.  0.
<mgrwt>
<rscale>  0 0.17892992E+03</rscale>
<asrwt>0</asrwt>
<pdfrwt beam="1">  1        2 0.44130090E-02 0.17892992E+03</pdfrwt>
<pdfrwt beam="2">  1       -2 0.42928373E-01 0.17892992E+03</pdfrwt>
<totfact> 0.92783140E+03</totfact>
</mgrwt>
</event>
<event>
 4    1  0.6148427E-004  0.2185039E+03  0.7818608E-02  0.1135003E+00
          2   -1    0    0  501    0  0.00000000000E+00  0.00000000000E+00  0.30033392795E+02  0.30033392903E+02  0.25500000000E-02 0.  1.
         -2   -1    0    0    0  501 -0.00000000000E+00 -0.00000000000E+00 -0.39742376088E+03  0.39742376089E+03  0.25500000000E-02 0. -1.
    5000001    1    1    2    0    0  0.51667305491E+02 -0.49951999459E+02 -0.24047048769E+03  0.26252574761E+03  0.77000000000E+02 0.  0.
   -5000001    1    1    2    0    0 -0.51667305491E+02  0.49951999459E+02 -0.12691988039E+03  0.16493140618E+03  0.77000000000E+02 0.  0.
<mgrwt>
<rscale>  0 0.21850386E+03</rscale>
<asrwt>0</asrwt>
<pdfrwt beam="1">  1        2 0.46205223E-02 0.21850386E+03</pdfrwt>
<pdfrwt beam="2">  1       -2 0.61142113E-01 0.21850386E+03</pdfrwt>
<totfact> 0.43637102E+03</totfact>
</mgrwt>
</event>
<event>
 4    1  0.6148427E-004  0.4419697E+03  0.7818608E-02  0.1030144E+00
         -2   -1    0    0    0  501 -0.00000000000E+00  0.00000000000E+00  0.42105364829E+02  0.42105364906E+02  0.25500000000E-02 0. -1.
          2   -1    0    0  501    0  0.00000000000E+00 -0.00000000000E+00 -0.11598119909E+04  0.11598119909E+04  0.25500000000E-02 0.  1.
    5000001    1    1    2    0    0 -0.20593521438E+03 -0.12830245344E+02 -0.60835782785E+03  0.64699472519E+03  0.77000000000E+02 0.  0.
   -5000001    1    1    2    0    0  0.20593521438E+03  0.12830245344E+02 -0.50934879819E+03  0.55492263059E+03  0.77000000000E+02 0.  0.
<mgrwt>
<rscale>  0 0.44196971E+03</rscale>
<asrwt>0</asrwt>
<pdfrwt beam="1">  1        2 0.17843259E+00 0.44196971E+03</pdfrwt>
<pdfrwt beam="2">  1       -2 0.64777493E-02 0.44196971E+03</pdfrwt>
<totfact> 0.27750805E+03</totfact>
</mgrwt>
</event>
<event>
 4    1  0.6148427E-004  0.2826680E+03  0.7818608E-02  0.1094241E+00
         -2   -1    0    0    0  501 -0.00000000000E+00  0.00000000000E+00  0.68324690735E+02  0.68324690782E+02  0.25500000000E-02 0. -1.
          2   -1    0    0  501    0  0.00000000000E+00 -0.00000000000E+00 -0.29235851382E+03  0.29235851383E+03  0.25500000000E-02 0.  1.
    5000001    1    1    2    0    0 -0.75974577126E+02  0.86498653344E+02 -0.14793005164E+03  0.20264859629E+03  0.77000000000E+02 0.  0.
   -5000001    1    1    2    0    0  0.75974577126E+02 -0.86498653344E+02 -0.76103771445E+02  0.15803460832E+03  0.77000000000E+02 0.  0.
<mgrwt>
<rscale>  0 0.28266804E+03</rscale>
<asrwt>0</asrwt>
<pdfrwt beam="1">  1        2 0.44978232E-01 0.28266804E+03</pdfrwt>
<pdfrwt beam="2">  1       -2 0.10511491E-01 0.28266804E+03</pdfrwt>
<totfact> 0.68474940E+03</totfact>
</mgrwt>
</event>
<event>
 4    1  0.6148427E-004  0.1927256E+03  0.7818608E-02  0.1156026E+00
          2   -1    0    0  501    0  0.00000000000E+00  0.00000000000E+00  0.11996171500E+04  0.11996171500E+04  0.25500000000E-02 0.  1.
         -2   -1    0    0    0  501 -0.00000000000E+00 -0.00000000000E+00 -0.77406255827E+01  0.77406260027E+01  0.25500000000E-02 0. -1.
    5000001    1    1    2    0    0  0.50238711504E+02  0.22397263826E+01  0.77618632061E+03  0.78161572963E+03  0.77000000000E+02 0.  0.
   -5000001    1    1    2    0    0 -0.50238711504E+02 -0.22397263826E+01  0.41569020381E+03  0.42574204638E+03  0.77000000000E+02 0.  0.
<mgrwt>
<rscale>  0 0.19272558E+03</rscale>
<asrwt>0</asrwt>
<pdfrwt beam="1">  1        2 0.18455654E+00 0.19272558E+03</pdfrwt>
<pdfrwt beam="2">  1       -2 0.11908652E-02 0.19272558E+03</pdfrwt>
<totfact> 0.32275049E+04</totfact>
</mgrwt>
</event>
<event>
 4    1  0.6148427E-004  0.4314774E+03  0.7818608E-02  0.1033394E+00
         -2   -1    0    0    0  501 -0.00000000000E+00  0.00000000000E+00  0.78434025004E+02  0.78434025045E+02  0.25500000000E-02 0. -1.
          2   -1    0    0  501    0  0.00000000000E+00 -0.00000000000E+00 -0.59340551696E+03  0.59340551697E+03  0.25500000000E-02 0.  1.
    5000001    1    1    2    0    0  0.19704076377E+02 -0.18433178389E+03 -0.13441112368E+03  0.24158188539E+03  0.77000000000E+02 0.  0.
   -5000001    1    1    2    0    0 -0.19704076377E+02  0.18433178389E+03 -0.38056036828E+03  0.43025765662E+03  0.77000000000E+02 0.  0.
<mgrwt>
<rscale>  0 0.43147738E+03</rscale>
<asrwt>0</asrwt>
<pdfrwt beam="1">  1        2 0.91293154E-01 0.43147738E+03</pdfrwt>
<pdfrwt beam="2">  1       -2 0.12066773E-01 0.43147738E+03</pdfrwt>
<totfact> 0.25188573E+03</totfact>
</mgrwt>
</event>
<event>
 4    1  0.6148427E-004  0.1912660E+03  0.7818608E-02  0.1157324E+00
          2   -1    0    0  501    0  0.00000000000E+00  0.00000000000E+00  0.17665412406E+03  0.17665412407E+03  0.25500000000E-02 0.  1.
         -2   -1    0    0    0  501 -0.00000000000E+00 -0.00000000000E+00 -0.51771645442E+02  0.51771645505E+02  0.25500000000E-02 0. -1.
    5000001    1    1    2    0    0  0.10122868687E+02 -0.47711114325E+02  0.97010558455E+02  0.13311225095E+03  0.77000000000E+02 0.  0.
   -5000001    1    1    2    0    0 -0.10122868687E+02  0.47711114325E+02  0.27871920159E+02  0.95313518631E+02  0.77000000000E+02 0.  0.
<mgrwt>
<rscale>  0 0.19126604E+03</rscale>
<asrwt>0</asrwt>
<pdfrwt beam="1">  1        2 0.27177557E-01 0.19126604E+03</pdfrwt>
<pdfrwt beam="2">  1       -2 0.79648686E-02 0.19126604E+03</pdfrwt>
<totfact> 0.17912289E+04</totfact>
</mgrwt>
</event>
<event>
 4    1  0.6148427E-004  0.2635348E+03  0.7818608E-02  0.1105038E+00
          2   -1    0    0  501    0  0.00000000000E+00  0.00000000000E+00  0.20225568312E+04  0.20225568312E+04  0.25500000000E-02 0.  1.
         -2   -1    0    0    0  501 -0.00000000000E+00 -0.00000000000E+00 -0.85845067190E+01  0.85845070977E+01  0.25500000000E-02 0. -1.
    5000001    1    1    2    0    0 -0.21809068771E+02 -0.10290733001E+03  0.85911467200E+03  0.86894912031E+03  0.77000000000E+02 0.  0.
   -5000001    1    1    2    0    0  0.21809068771E+02  0.10290733001E+03  0.11548576525E+04  0.11621922180E+04  0.77000000000E+02 0.  0.
<mgrwt>
<rscale>  0 0.26353484E+03</rscale>
<asrwt>0</asrwt>
<pdfrwt beam="1">  1        2 0.31116223E+00 0.26353484E+03</pdfrwt>
<pdfrwt beam="2">  1       -2 0.13206949E-02 0.26353484E+03</pdfrwt>
<totfact> 0.10267623E+04</totfact>
</mgrwt>
</event>
<event>
 4    1  0.6148427E-004  0.2299997E+03  0.7818608E-02  0.1126640E+00
         -2   -1    0    0    0  501 -0.00000000000E+00  0.00000000000E+00  0.10790830955E+02  0.10790831256E+02  0.25500000000E-02 0. -1.
          2   -1    0    0  501    0  0.00000000000E+00 -0.00000000000E+00 -0.12255744590E+04  0.12255744590E+04  0.25500000000E-02 0.  1.
    5000001    1    1    2    0    0  0.55594169887E+02 -0.62603249991E+02 -0.51646968300E+03  0.52884762654E+03  0.77000000000E+02 0.  0.
   -5000001    1    1    2    0    0 -0.55594169887E+02  0.62603249991E+02 -0.69831394500E+03  0.70751766368E+03  0.77000000000E+02 0.  0.
<mgrwt>
<rscale>  0 0.22999971E+03</rscale>
<asrwt>0</asrwt>
<pdfrwt beam="1">  1        2 0.18854981E+00 0.22999971E+03</pdfrwt>
<pdfrwt beam="2">  1       -2 0.16601288E-02 0.22999971E+03</pdfrwt>
<totfact> 0.19454810E+04</totfact>
</mgrwt>
</event>
<event>
 4    1  0.6148427E-004  0.1826569E+03  0.7818608E-02  0.1165256E+00
         -2   -1    0    0    0  501 -0.00000000000E+00  0.00000000000E+00  0.93364544527E+01  0.93364548009E+01  0.25500000000E-02 0. -1.
          2   -1    0    0  501    0  0.00000000000E+00 -0.00000000000E+00 -0.89336800101E+03  0.89336800102E+03  0.25500000000E-02 0.  1.
    5000001    1    1    2    0    0 -0.36087669590E+02  0.25458617524E+02 -0.33585557925E+03  0.34738801248E+03  0.77000000000E+02 0.  0.
   -5000001    1    1    2    0    0  0.36087669590E+02 -0.25458617524E+02 -0.54817596731E+03  0.55531644333E+03  0.77000000000E+02 0.  0.
<mgrwt>
<rscale>  0 0.18265694E+03</rscale>
<asrwt>0</asrwt>
<pdfrwt beam="1">  1        2 0.13744116E+00 0.18265694E+03</pdfrwt>
<pdfrwt beam="2">  1       -2 0.14363783E-02 0.18265694E+03</pdfrwt>
<totfact> 0.37292115E+04</totfact>
</mgrwt>
</event>
<event>
 4    1  0.6148427E-004  0.3534969E+03  0.7818608E-02  0.1061189E+00
         -2   -1    0    0    0  501 -0.00000000000E+00  0.00000000000E+00  0.11663273123E+02  0.11663273402E+02  0.25500000000E-02 0. -1.
          2   -1    0    0  501    0  0.00000000000E+00 -0.00000000000E+00 -0.26784952443E+04  0.26784952443E+04  0.25500000000E-02 0.  1.
    5000001    1    1    2    0    0 -0.14874997227E+03  0.18538045506E+02 -0.17390302287E+04  0.17471763934E+04  0.77000000000E+02 0.  0.
   -5000001    1    1    2    0    0  0.14874997227E+03 -0.18538045506E+02 -0.92780174243E+03  0.94298212424E+03  0.77000000000E+02 0.  0.
<mgrwt>
<rscale>  0 0.35349694E+03</rscale>
<asrwt>0</asrwt>
<pdfrwt beam="1">  1        2 0.41207570E+00 0.35349694E+03</pdfrwt>
<pdfrwt beam="2">  1       -2 0.17943519E-02 0.35349694E+03</pdfrwt>
<totfact> 0.28780123E+03</totfact>
</mgrwt>
</event>
<event>
 4    1  0.6148427E-004  0.2114036E+03  0.7818608E-02  0.1140459E+00
          2   -1    0    0  501    0  0.00000000000E+00  0.00000000000E+00  0.61238108440E+03  0.61238108441E+03  0.25500000000E-02 0.  1.
         -2   -1    0    0    0  501 -0.00000000000E+00 -0.00000000000E+00 -0.18244958429E+02  0.18244958607E+02  0.25500000000E-02 0. -1.
    5000001    1    1    2    0    0 -0.47924496616E+02  0.51701723547E+02  0.34644999311E+03  0.36183756483E+03  0.77000000000E+02 0.  0.
   -5000001    1    1    2    0    0  0.47924496616E+02 -0.51701723547E+02  0.24768613286E+03  0.26878847818E+03  0.77000000000E+02 0.  0.
<mgrwt>
<rscale>  0 0.21140357E+03</rscale>
<asrwt>0</asrwt>
<pdfrwt beam="1">  1        2 0.94212473E-01 0.21140357E+03</pdfrwt>
<pdfrwt beam="2">  1       -2 0.28069167E-02 0.21140357E+03</pdfrwt>
<totfact> 0.22499433E+04</totfact>
</mgrwt>
</event>
<event>
 4    1  0.6148427E-004  0.1988989E+03  0.7818608E-02  0.1150671E+00
         -2   -1    0    0    0  501 -0.00000000000E+00  0.00000000000E+00  0.20772042656E+02  0.20772042813E+02  0.25500000000E-02 0. -1.
          2   -1    0    0  501    0  0.00000000000E+00 -0.00000000000E+00 -0.47613008136E+03  0.47613008137E+03  0.25500000000E-02 0.  1.
    5000001    1    1    2    0    0  0.50893973566E+01  0.52995651888E+02 -0.14381940400E+03  0.17160262834E+03  0.77000000000E+02 0.  0.
   -5000001    1    1    2    0    0 -0.50893973566E+01 -0.52995651888E+02 -0.31153863470E+03  0.32529949584E+03  0.77000000000E+02 0.  0.
<mgrwt>
<rscale>  0 0.19889891E+03</rscale>
<asrwt>0</asrwt>
<pdfrwt beam="1">  1        2 0.73250773E-01 0.19889891E+03</pdfrwt>
<pdfrwt beam="2">  1       -2 0.31956992E-02 0.19889891E+03</pdfrwt>
<totfact> 0.24555075E+04</totfact>
</mgrwt>
</event>
<event>
 4    1  0.6148427E-004  0.6574232E+03  0.7818608E-02  0.9792949E-01
         -2   -1    0    0    0  501 -0.00000000000E+00  0.00000000000E+00  0.24345031405E+03  0.24345031406E+03  0.25500000000E-02 0. -1.
          2   -1    0    0  501    0  0.00000000000E+00 -0.00000000000E+00 -0.44383318590E+03  0.44383318590E+03  0.25500000000E-02 0.  1.
    5000001    1    1    2    0    0  0.21994704472E+03 -0.14227869115E+01 -0.34254770069E+03  0.41430261169E+03  0.77000000000E+02 0.  0.
   -5000001    1    1    2    0    0 -0.21994704472E+03  0.14227869115E+01  0.14216482884E+03  0.27298088828E+03  0.77000000000E+02 0.  0.
<mgrwt>
<rscale>  0 0.65742324E+03</rscale>
<asrwt>0</asrwt>
<pdfrwt beam="1">  1        2 0.68282028E-01 0.65742324E+03</pdfrwt>
<pdfrwt beam="2">  1       -2 0.37453895E-01 0.65742324E+03</pdfrwt>
<totfact> 0.47867747E+02</totfact>
</mgrwt>
</event>
<event>
 4    1  0.6148427E-004  0.3093458E+03  0.7818608E-02  0.1080660E+00
         -2   -1    0    0    0  501 -0.00000000000E+00  0.00000000000E+00  0.83024366416E+01  0.83024370332E+01  0.25500000000E-02 0. -1.
          2   -1    0    0  501    0  0.00000000000E+00 -0.00000000000E+00 -0.28815275924E+04  0.28815275924E+04  0.25500000000E-02 0.  1.
    5000001    1    1    2    0    0  0.80839213511E+02  0.90792364292E+02 -0.90680543861E+03  0.91815213083E+03  0.77000000000E+02 0.  0.
   -5000001    1    1    2    0    0 -0.80839213511E+02 -0.90792364292E+02 -0.19664197171E+04  0.19716778986E+04  0.77000000000E+02 0.  0.
<mgrwt>
<rscale>  0 0.30934577E+03</rscale>
<asrwt>0</asrwt>
<pdfrwt beam="1">  1        2 0.44331114E+00 0.30934577E+03</pdfrwt>
<pdfrwt beam="2">  1       -2 0.12773003E-02 0.30934577E+03</pdfrwt>
<totfact> 0.36403569E+03</totfact>
</mgrwt>
</event>
<event>
 4    1  0.6148427E-004  0.2096263E+03  0.7818608E-02  0.1141862E+00
         -2   -1    0    0    0  501 -0.00000000000E+00  0.00000000000E+00  0.10855856057E+02  0.10855856356E+02  0.25500000000E-02 0. -1.
          2   -1    0    0  501    0  0.00000000000E+00 -0.00000000000E+00 -0.10119691387E+04  0.10119691387E+04  0.25500000000E-02 0.  1.
    5000001    1    1    2    0    0  0.68092394073E+02 -0.58754255594E+01 -0.40473168627E+03  0.41762163812E+03  0.77000000000E+02 0.  0.
   -5000001    1    1    2    0    0 -0.68092394073E+02  0.58754255594E+01 -0.59638159634E+03  0.60520335690E+03  0.77000000000E+02 0.  0.
<mgrwt>
<rscale>  0 0.20962625E+03</rscale>
<asrwt>0</asrwt>
<pdfrwt beam="1">  1        2 0.15568749E+00 0.20962625E+03</pdfrwt>
<pdfrwt beam="2">  1       -2 0.16701325E-02 0.20962625E+03</pdfrwt>
<totfact> 0.25525589E+04</totfact>
</mgrwt>
</event>
<event>
 4    1  0.6148427E-004  0.8668692E+03  0.7818608E-02  0.9467971E-01
         -2   -1    0    0    0  501 -0.00000000000E+00  0.00000000000E+00  0.15813631647E+03  0.15813631650E+03  0.25500000000E-02 0. -1.
          2   -1    0    0  501    0  0.00000000000E+00 -0.00000000000E+00 -0.11879974863E+04  0.11879974863E+04  0.25500000000E-02 0.  1.
    5000001    1    1    2    0    0  0.60600621365E+02 -0.29712661680E+03 -0.98073905421E+03  0.10294341913E+04  0.77000000000E+02 0.  0.
   -5000001    1    1    2    0    0 -0.60600621365E+02  0.29712661680E+03 -0.49122115660E+02  0.31669961157E+03  0.77000000000E+02 0.  0.
<mgrwt>
<rscale>  0 0.86686919E+03</rscale>
<asrwt>0</asrwt>
<pdfrwt beam="1">  1        2 0.18276884E+00 0.86686919E+03</pdfrwt>
<pdfrwt beam="2">  1       -2 0.24328665E-01 0.86686919E+03</pdfrwt>
<totfact> 0.29088323E+02</totfact>
</mgrwt>
</event>
<event>
 4    1  0.6148427E-004  0.3279590E+03  0.7818608E-02  0.1072044E+00
          2   -1    0    0  501    0  0.00000000000E+00  0.00000000000E+00  0.33606538036E+03  0.33606538037E+03  0.25500000000E-02 0.  1.
         -2   -1    0    0    0  501 -0.00000000000E+00 -0.00000000000E+00 -0.80012026490E+02  0.80012026530E+02  0.25500000000E-02 0. -1.
    5000001    1    1    2    0    0  0.13700443043E+03  0.31623289373E+02  0.84261086449E+02  0.18110543084E+03  0.77000000000E+02 0.  0.
   -5000001    1    1    2    0    0 -0.13700443043E+03 -0.31623289373E+02  0.17179226742E+03  0.23497197606E+03  0.77000000000E+02 0.  0.
<mgrwt>
<rscale>  0 0.32795897E+03</rscale>
<asrwt>0</asrwt>
<pdfrwt beam="1">  1        2 0.51702367E-01 0.32795897E+03</pdfrwt>
<pdfrwt beam="2">  1       -2 0.12309542E-01 0.32795897E+03</pdfrwt>
<totfact> 0.45878737E+03</totfact>
</mgrwt>
</event>
<event>
 4    1  0.6148427E-004  0.3700623E+03  0.7818608E-02  0.1054669E+00
         -2   -1    0    0    0  501 -0.00000000000E+00  0.00000000000E+00  0.27829303808E+02  0.27829303925E+02  0.25500000000E-02 0. -1.
          2   -1    0    0  501    0  0.00000000000E+00 -0.00000000000E+00 -0.12302330177E+04  0.12302330177E+04  0.25500000000E-02 0.  1.
    5000001    1    1    2    0    0  0.12852952212E+03 -0.86444008620E+02 -0.82451995946E+03  0.84246932777E+03  0.77000000000E+02 0.  0.
   -5000001    1    1    2    0    0 -0.12852952212E+03  0.86444008620E+02 -0.37788375446E+03  0.41559299389E+03  0.77000000000E+02 0.  0.
<mgrwt>
<rscale>  0 0.37006231E+03</rscale>
<asrwt>0</asrwt>
<pdfrwt beam="1">  1        2 0.18926658E+00 0.37006231E+03</pdfrwt>
<pdfrwt beam="2">  1       -2 0.42814323E-02 0.37006231E+03</pdfrwt>
<totfact> 0.47798647E+03</totfact>
</mgrwt>
</event>
<event>
 4    1  0.6148427E-004  0.2005474E+03  0.7818608E-02  0.1149278E+00
          2   -1    0    0  501    0  0.00000000000E+00  0.00000000000E+00  0.55208511102E+03  0.55208511102E+03  0.25500000000E-02 0.  1.
         -2   -1    0    0    0  501 -0.00000000000E+00 -0.00000000000E+00 -0.18212430918E+02  0.18212431096E+02  0.25500000000E-02 0. -1.
    5000001    1    1    2    0    0 -0.20879601127E+02 -0.41963735818E+02  0.14204299847E+03  0.16823235801E+03  0.77000000000E+02 0.  0.
   -5000001    1    1    2    0    0  0.20879601127E+02  0.41963735818E+02  0.39182968163E+03  0.40206518411E+03  0.77000000000E+02 0.  0.
<mgrwt>
<rscale>  0 0.20054737E+03</rscale>
<asrwt>0</asrwt>
<pdfrwt beam="1">  1        2 0.84936158E-01 0.20054737E+03</pdfrwt>
<pdfrwt beam="2">  1       -2 0.28019129E-02 0.20054737E+03</pdfrwt>
<totfact> 0.25307108E+04</totfact>
</mgrwt>
</event>
<event>
 4    1  0.6148427E-004  0.3430551E+03  0.7818608E-02  0.1065502E+00
         -2   -1    0    0    0  501 -0.00000000000E+00  0.00000000000E+00  0.26842892725E+02  0.26842892846E+02  0.25500000000E-02 0. -1.
          2   -1    0    0  501    0  0.00000000000E+00 -0.00000000000E+00 -0.10960704843E+04  0.10960704843E+04  0.25500000000E-02 0.  1.
    5000001    1    1    2    0    0  0.46778148291E+02 -0.13487388347E+03 -0.35196795495E+03  0.38754303104E+03  0.77000000000E+02 0.  0.
   -5000001    1    1    2    0    0 -0.46778148291E+02  0.13487388347E+03 -0.71725963665E+03  0.73537034613E+03  0.77000000000E+02 0.  0.
<mgrwt>
<rscale>  0 0.34305511E+03</rscale>
<asrwt>0</asrwt>
<pdfrwt beam="1">  1        2 0.16862619E+00 0.34305511E+03</pdfrwt>
<pdfrwt beam="2">  1       -2 0.41296766E-02 0.34305511E+03</pdfrwt>
<totfact> 0.60382296E+03</totfact>
</mgrwt>
</event>
<event>
 4    1  0.6148427E-004  0.2476882E+03  0.7818608E-02  0.1114775E+00
         -2   -1    0    0    0  501 -0.00000000000E+00  0.00000000000E+00  0.41694934940E+02  0.41694935018E+02  0.25500000000E-02 0. -1.
          2   -1    0    0  501    0  0.00000000000E+00 -0.00000000000E+00 -0.36784720646E+03  0.36784720647E+03  0.25500000000E-02 0.  1.
    5000001    1    1    2    0    0 -0.50579979780E+02 -0.77940810887E+02 -0.20911421424E+03  0.24143499943E+03  0.77000000000E+02 0.  0.
   -5000001    1    1    2    0    0  0.50579979780E+02  0.77940810887E+02 -0.11703805728E+03  0.16810714205E+03  0.77000000000E+02 0.  0.
<mgrwt>
<rscale>  0 0.24768823E+03</rscale>
<asrwt>0</asrwt>
<pdfrwt beam="1">  1        2 0.56591876E-01 0.24768823E+03</pdfrwt>
<pdfrwt beam="2">  1       -2 0.64146056E-02 0.24768823E+03</pdfrwt>
<totfact> 0.11520820E+04</totfact>
</mgrwt>
</event>
<event>
 4    1  0.6148427E-004  0.2271479E+03  0.7818608E-02  0.1128663E+00
          2   -1    0    0  501    0  0.00000000000E+00  0.00000000000E+00  0.58523513385E+03  0.58523513386E+03  0.25500000000E-02 0.  1.
         -2   -1    0    0    0  501 -0.00000000000E+00 -0.00000000000E+00 -0.22040786147E+02  0.22040786294E+02  0.25500000000E-02 0. -1.
    5000001    1    1    2    0    0 -0.74183332275E+02 -0.33012712301E+02  0.33350932620E+03  0.35178185943E+03  0.77000000000E+02 0.  0.
   -5000001    1    1    2    0    0  0.74183332275E+02  0.33012712301E+02  0.22968502151E+03  0.25549406072E+03  0.77000000000E+02 0.  0.
<mgrwt>
<rscale>  0 0.22714790E+03</rscale>
<asrwt>0</asrwt>
<pdfrwt beam="1">  1        2 0.90036158E-01 0.22714790E+03</pdfrwt>
<pdfrwt beam="2">  1       -2 0.33908908E-02 0.22714790E+03</pdfrwt>
<totfact> 0.17990196E+04</totfact>
</mgrwt>
</event>
<event>
 4    1  0.6148427E-004  0.2122747E+03  0.7818608E-02  0.1139777E+00
         -2   -1    0    0    0  501 -0.00000000000E+00  0.00000000000E+00  0.39464783390E+02  0.39464783472E+02  0.25500000000E-02 0. -1.
          2   -1    0    0  501    0  0.00000000000E+00 -0.00000000000E+00 -0.28544784949E+03  0.28544784950E+03  0.25500000000E-02 0.  1.
    5000001    1    1    2    0    0  0.13219482346E+02  0.68363094260E+02 -0.15679961211E+03  0.18805155072E+03  0.77000000000E+02 0.  0.
   -5000001    1    1    2    0    0 -0.13219482346E+02 -0.68363094260E+02 -0.89183453992E+02  0.13686108226E+03  0.77000000000E+02 0.  0.
<mgrwt>
<rscale>  0 0.21227470E+03</rscale>
<asrwt>0</asrwt>
<pdfrwt beam="1">  1        2 0.43915052E-01 0.21227470E+03</pdfrwt>
<pdfrwt beam="2">  1       -2 0.60715053E-02 0.21227470E+03</pdfrwt>
<totfact> 0.16310158E+04</totfact>
</mgrwt>
</event>
<event>
 4    1  0.6148427E-004  0.2239602E+03  0.7818608E-02  0.1130965E+00
          2   -1    0    0  501    0  0.00000000000E+00  0.00000000000E+00  0.11204028267E+03  0.11204028270E+03  0.25500000000E-02 0.  1.
         -2   -1    0    0    0  501 -0.00000000000E+00 -0.00000000000E+00 -0.11191997371E+03  0.11191997374E+03  0.25500000000E-02 0. -1.
    5000001    1    1    2    0    0 -0.32011311621E+02  0.69049063636E+02  0.28661701171E+02  0.11199549265E+03  0.77000000000E+02 0.  0.
   -5000001    1    1    2    0    0  0.32011311621E+02 -0.69049063636E+02 -0.28541392212E+02  0.11196476379E+03  0.77000000000E+02 0.  0.
<mgrwt>
<rscale>  0 0.22396022E+03</rscale>
<asrwt>0</asrwt>
<pdfrwt beam="1">  1        2 0.17236967E-01 0.22396022E+03</pdfrwt>
<pdfrwt beam="2">  1       -2 0.17218457E-01 0.22396022E+03</pdfrwt>
<totfact> 0.87690922E+03</totfact>
</mgrwt>
</event>
<event>
 4    1  0.6148427E-004  0.3604161E+03  0.7818608E-02  0.1058419E+00
          2   -1    0    0  501    0  0.00000000000E+00  0.00000000000E+00  0.99474685232E+03  0.99474685233E+03  0.25500000000E-02 0.  1.
         -2   -1    0    0    0  501 -0.00000000000E+00 -0.00000000000E+00 -0.32646433872E+02  0.32646433972E+02  0.25500000000E-02 0. -1.
    5000001    1    1    2    0    0 -0.12481947637E+03 -0.87122251345E+02  0.64667206331E+03  0.66879290205E+03  0.77000000000E+02 0.  0.
   -5000001    1    1    2    0    0  0.12481947637E+03  0.87122251345E+02  0.31542835514E+03  0.35860038425E+03  0.77000000000E+02 0.  0.
<mgrwt>
<rscale>  0 0.36041608E+03</rscale>
<asrwt>0</asrwt>
<pdfrwt beam="1">  1        2 0.15303797E+00 0.36041608E+03</pdfrwt>
<pdfrwt beam="2">  1       -2 0.50225285E-02 0.36041608E+03</pdfrwt>
<totfact> 0.51663163E+03</totfact>
</mgrwt>
</event>
<event>
 4    1  0.6148427E-004  0.3002296E+03  0.7818608E-02  0.1085126E+00
          2   -1    0    0  501    0  0.00000000000E+00  0.00000000000E+00  0.21428390445E+04  0.21428390445E+04  0.25500000000E-02 0.  1.
         -2   -1    0    0    0  501 -0.00000000000E+00 -0.00000000000E+00 -0.10516165822E+02  0.10516166131E+02  0.25500000000E-02 0. -1.
    5000001    1    1    2    0    0  0.11363536123E+03  0.59572018410E+02  0.98020363582E+03  0.99155937209E+03  0.77000000000E+02 0.  0.
   -5000001    1    1    2    0    0 -0.11363536123E+03 -0.59572018410E+02  0.11521192429E+04  0.11617958386E+04  0.77000000000E+02 0.  0.
<mgrwt>
<rscale>  0 0.30022959E+03</rscale>
<asrwt>0</asrwt>
<pdfrwt beam="1">  1        2 0.32966729E+00 0.30022959E+03</pdfrwt>
<pdfrwt beam="2">  1       -2 0.16178730E-02 0.30022959E+03</pdfrwt>
<totfact> 0.65957833E+03</totfact>
</mgrwt>
</event>
<event>
 4    1  0.6148427E-004  0.2137633E+03  0.7818608E-02  0.1138620E+00
          2   -1    0    0  501    0  0.00000000000E+00  0.00000000000E+00  0.15360939348E+04  0.15360939348E+04  0.25500000000E-02 0.  1.
         -2   -1    0    0    0  501 -0.00000000000E+00 -0.00000000000E+00 -0.74368378088E+01  0.74368382460E+01  0.25500000000E-02 0. -1.
    5000001    1    1    2    0    0 -0.62527312458E+02  0.39270353582E+02  0.81159899173E+03  0.81858032523E+03  0.77000000000E+02 0.  0.
   -5000001    1    1    2    0    0  0.62527312458E+02 -0.39270353582E+02  0.71705810529E+03  0.72495044784E+03  0.77000000000E+02 0.  0.
<mgrwt>
<rscale>  0 0.21376325E+03</rscale>
<asrwt>0</asrwt>
<pdfrwt beam="1">  1        2 0.23632225E+00 0.21376325E+03</pdfrwt>
<pdfrwt beam="2">  1       -2 0.11441284E-02 0.21376325E+03</pdfrwt>
<totfact> 0.22606125E+04</totfact>
</mgrwt>
</event>
<event>
 4    1  0.6148427E-004  0.3005563E+03  0.7818608E-02  0.1084963E+00
          2   -1    0    0  501    0  0.00000000000E+00  0.00000000000E+00  0.79115650110E+03  0.79115650110E+03  0.25500000000E-02 0.  1.
         -2   -1    0    0    0  501 -0.00000000000E+00 -0.00000000000E+00 -0.28544953140E+02  0.28544953254E+02  0.25500000000E-02 0. -1.
    5000001    1    1    2    0    0 -0.15657988094E+02 -0.11855262120E+03  0.24896579553E+03  0.28672785691E+03  0.77000000000E+02 0.  0.
   -5000001    1    1    2    0    0  0.15657988094E+02  0.11855262120E+03  0.51364575243E+03  0.53297359744E+03  0.77000000000E+02 0.  0.
<mgrwt>
<rscale>  0 0.30055632E+03</rscale>
<asrwt>0</asrwt>
<pdfrwt beam="1">  1        2 0.12171638E+00 0.30055632E+03</pdfrwt>
<pdfrwt beam="2">  1       -2 0.43915313E-02 0.30055632E+03</pdfrwt>
<totfact> 0.85879889E+03</totfact>
</mgrwt>
</event>
<event>
 4    1  0.6148427E-004  0.2335782E+03  0.7818608E-02  0.1124146E+00
         -2   -1    0    0    0  501 -0.00000000000E+00  0.00000000000E+00  0.27229963979E+02  0.27229964099E+02  0.25500000000E-02 0. -1.
          2   -1    0    0  501    0  0.00000000000E+00 -0.00000000000E+00 -0.50090747992E+03  0.50090747993E+03  0.25500000000E-02 0.  1.
    5000001    1    1    2    0    0  0.74921482852E+02 -0.25349379920E+02 -0.15059509071E+03  0.18671823961E+03  0.77000000000E+02 0.  0.
   -5000001    1    1    2    0    0 -0.74921482852E+02  0.25349379920E+02 -0.32308242523E+03  0.34141920442E+03  0.77000000000E+02 0.  0.
<mgrwt>
<rscale>  0 0.23357819E+03</rscale>
<asrwt>0</asrwt>
<pdfrwt beam="1">  1        2 0.77062683E-01 0.23357819E+03</pdfrwt>
<pdfrwt beam="2">  1       -2 0.41892256E-02 0.23357819E+03</pdfrwt>
<totfact> 0.15658563E+04</totfact>
</mgrwt>
</event>
<event>
 4    1  0.6148427E-004  0.1942699E+03  0.7818608E-02  0.1154666E+00
         -2   -1    0    0    0  501 -0.00000000000E+00  0.00000000000E+00  0.93669722247E+01  0.93669725718E+01  0.25500000000E-02 0. -1.
          2   -1    0    0  501    0  0.00000000000E+00 -0.00000000000E+00 -0.10072838757E+04  0.10072838757E+04  0.25500000000E-02 0.  1.
    5000001    1    1    2    0    0  0.39257590730E+02  0.12585635149E+02 -0.72139314049E+03  0.72666128271E+03  0.77000000000E+02 0.  0.
   -5000001    1    1    2    0    0 -0.39257590730E+02 -0.12585635149E+02 -0.27652376300E+03  0.28998956558E+03  0.77000000000E+02 0.  0.
<mgrwt>
<rscale>  0 0.19426992E+03</rscale>
<asrwt>0</asrwt>
<pdfrwt beam="1">  1        2 0.15496666E+00 0.19426992E+03</pdfrwt>
<pdfrwt beam="2">  1       -2 0.14410735E-02 0.19426992E+03</pdfrwt>
<totfact> 0.31683516E+04</totfact>
</mgrwt>
</event>
<event>
 4    1  0.6148427E-004  0.3982739E+03  0.7818608E-02  0.1044379E+00
         -2   -1    0    0    0  501 -0.00000000000E+00  0.00000000000E+00  0.77996440936E+02  0.77996440977E+02  0.25500000000E-02 0. -1.
          2   -1    0    0  501    0  0.00000000000E+00 -0.00000000000E+00 -0.50842728075E+03  0.50842728076E+03  0.25500000000E-02 0.  1.
    5000001    1    1    2    0    0  0.32074826196E+02 -0.17994811187E+03 -0.18902462942E+03  0.27398800698E+03  0.77000000000E+02 0.  0.
   -5000001    1    1    2    0    0 -0.32074826196E+02  0.17994811187E+03 -0.24140621040E+03  0.31243571476E+03  0.77000000000E+02 0.  0.
<mgrwt>
<rscale>  0 0.39827387E+03</rscale>
<asrwt>0</asrwt>
<pdfrwt beam="1">  1        2 0.78219580E-01 0.39827387E+03</pdfrwt>
<pdfrwt beam="2">  1       -2 0.11999453E-01 0.39827387E+03</pdfrwt>
<totfact> 0.30376906E+03</totfact>
</mgrwt>
</event>
<event>
 4    1  0.6148427E-004  0.2701183E+03  0.7818608E-02  0.1101212E+00
          2   -1    0    0  501    0  0.00000000000E+00  0.00000000000E+00  0.41161025072E+03  0.41161025073E+03  0.25500000000E-02 0.  1.
         -2   -1    0    0    0  501 -0.00000000000E+00 -0.00000000000E+00 -0.44316130577E+02  0.44316130651E+02  0.25500000000E-02 0. -1.
    5000001    1    1    2    0    0  0.41401067620E+02  0.10057762059E+03  0.22070614003E+03  0.25781797147E+03  0.77000000000E+02 0.  0.
   -5000001    1    1    2    0    0 -0.41401067620E+02 -0.10057762059E+03  0.14658798012E+03  0.19810840992E+03  0.77000000000E+02 0.  0.
<mgrwt>
<rscale>  0 0.27011830E+03</rscale>
<asrwt>0</asrwt>
<pdfrwt beam="1">  1        2 0.63324655E-01 0.27011830E+03</pdfrwt>
<pdfrwt beam="2">  1       -2 0.68178662E-02 0.27011830E+03</pdfrwt>
<totfact> 0.93205507E+03</totfact>
</mgrwt>
</event>
<event>
 4    1  0.6148427E-004  0.2078598E+03  0.7818608E-02  0.1143272E+00
          2   -1    0    0  501    0  0.00000000000E+00  0.00000000000E+00  0.81831861533E+03  0.81831861534E+03  0.25500000000E-02 0.  1.
         -2   -1    0    0    0  501 -0.00000000000E+00 -0.00000000000E+00 -0.13199537895E+02  0.13199538141E+02  0.25500000000E-02 0. -1.
    5000001    1    1    2    0    0  0.44957610259E+02 -0.49073776065E+02  0.31836077831E+03  0.33423346239E+03  0.77000000000E+02 0.  0.
   -5000001    1    1    2    0    0 -0.44957610259E+02  0.49073776065E+02  0.48675829913E+03  0.49728469109E+03  0.77000000000E+02 0.  0.
<mgrwt>
<rscale>  0 0.20785983E+03</rscale>
<asrwt>0</asrwt>
<pdfrwt beam="1">  1        2 0.12589513E+00 0.20785983E+03</pdfrwt>
<pdfrwt beam="2">  1       -2 0.20306988E-02 0.20785983E+03</pdfrwt>
<totfact> 0.25467599E+04</totfact>
</mgrwt>
</event>
<event>
 4    1  0.6148427E-004  0.2261574E+03  0.7818608E-02  0.1129374E+00
         -2   -1    0    0    0  501 -0.00000000000E+00  0.00000000000E+00  0.67118804105E+02  0.67118804153E+02  0.25500000000E-02 0. -1.
          2   -1    0    0  501    0  0.00000000000E+00 -0.00000000000E+00 -0.19050987684E+03  0.19050987685E+03  0.25500000000E-02 0.  1.
    5000001    1    1    2    0    0  0.63994022417E+02  0.33362502617E+02 -0.15429744638E+02  0.10665537261E+03  0.77000000000E+02 0.  0.
   -5000001    1    1    2    0    0 -0.63994022417E+02 -0.33362502617E+02 -0.10796132809E+03  0.15097330840E+03  0.77000000000E+02 0.  0.
<mgrwt>
<rscale>  0 0.22615742E+03</rscale>
<asrwt>0</asrwt>
<pdfrwt beam="1">  1        2 0.29309212E-01 0.22615742E+03</pdfrwt>
<pdfrwt beam="2">  1       -2 0.10325970E-01 0.22615742E+03</pdfrwt>
<totfact> 0.11089048E+04</totfact>
</mgrwt>
</event>
<event>
 4    1  0.6148427E-004  0.2123823E+03  0.7818608E-02  0.1139693E+00
          2   -1    0    0  501    0  0.00000000000E+00  0.00000000000E+00  0.11328037224E+04  0.11328037224E+04  0.25500000000E-02 0.  1.
         -2   -1    0    0    0  501 -0.00000000000E+00 -0.00000000000E+00 -0.99545584109E+01  0.99545587375E+01  0.25500000000E-02 0. -1.
    5000001    1    1    2    0    0 -0.69647409723E+02 -0.17680686223E+02  0.63444969030E+03  0.64313200657E+03  0.77000000000E+02 0.  0.
   -5000001    1    1    2    0    0  0.69647409723E+02  0.17680686223E+02  0.48839947370E+03  0.49962627458E+03  0.77000000000E+02 0.  0.
<mgrwt>
<rscale>  0 0.21238231E+03</rscale>
<asrwt>0</asrwt>
<pdfrwt beam="1">  1        2 0.17427735E+00 0.21238231E+03</pdfrwt>
<pdfrwt beam="2">  1       -2 0.15314718E-02 0.21238231E+03</pdfrwt>
<totfact> 0.24602509E+04</totfact>
</mgrwt>
</event>
<event>
 4    1  0.6148427E-004  0.3197943E+03  0.7818608E-02  0.1075744E+00
         -2   -1    0    0    0  501 -0.00000000000E+00  0.00000000000E+00  0.15595190429E+02  0.15595190637E+02  0.25500000000E-02 0. -1.
          2   -1    0    0  501    0  0.00000000000E+00 -0.00000000000E+00 -0.16394219394E+04  0.16394219394E+04  0.25500000000E-02 0.  1.
    5000001    1    1    2    0    0  0.49987844947E+02 -0.12967582636E+03 -0.90499504735E+03  0.91883602472E+03  0.77000000000E+02 0.  0.
   -5000001    1    1    2    0    0 -0.49987844947E+02  0.12967582636E+03 -0.71883170163E+03  0.73618110534E+03  0.77000000000E+02 0.  0.
<mgrwt>
<rscale>  0 0.31979429E+03</rscale>
<asrwt>0</asrwt>
<pdfrwt beam="1">  1        2 0.25221862E+00 0.31979429E+03</pdfrwt>
<pdfrwt beam="2">  1       -2 0.23992614E-02 0.31979429E+03</pdfrwt>
<totfact> 0.68056516E+03</totfact>
</mgrwt>
</event>
<event>
 4    1  0.6148427E-004  0.1736846E+03  0.7818608E-02  0.1174059E+00
         -2   -1    0    0    0  501 -0.00000000000E+00  0.00000000000E+00  0.10138894119E+02  0.10138894440E+02  0.25500000000E-02 0. -1.
          2   -1    0    0  501    0  0.00000000000E+00 -0.00000000000E+00 -0.74382757481E+03  0.74382757481E+03  0.25500000000E-02 0.  1.
    5000001    1    1    2    0    0  0.21383109087E+02  0.30943604557E+02 -0.42790384591E+03  0.43640055610E+03  0.77000000000E+02 0.  0.
   -5000001    1    1    2    0    0 -0.21383109087E+02 -0.30943604557E+02 -0.30578483478E+03  0.31756591315E+03  0.77000000000E+02 0.  0.
<mgrwt>
<rscale>  0 0.17368465E+03</rscale>
<asrwt>0</asrwt>
<pdfrwt beam="1">  1        2 0.11443497E+00 0.17368465E+03</pdfrwt>
<pdfrwt beam="2">  1       -2 0.15598305E-02 0.17368465E+03</pdfrwt>
<totfact> 0.41558123E+04</totfact>
</mgrwt>
</event>
<event>
 4    1  0.6148427E-004  0.1817585E+03  0.7818608E-02  0.1166112E+00
         -2   -1    0    0    0  501 -0.00000000000E+00  0.00000000000E+00  0.22610180358E+02  0.22610180501E+02  0.25500000000E-02 0. -1.
          2   -1    0    0  501    0  0.00000000000E+00 -0.00000000000E+00 -0.36527947399E+03  0.36527947400E+03  0.25500000000E-02 0.  1.
    5000001    1    1    2    0    0 -0.19926450257E+02  0.42286206104E+02 -0.14565020924E+03  0.17125469365E+03  0.77000000000E+02 0.  0.
   -5000001    1    1    2    0    0  0.19926450257E+02 -0.42286206104E+02 -0.19701908439E+03  0.21663496085E+03  0.77000000000E+02 0.  0.
<mgrwt>
<rscale>  0 0.18175846E+03</rscale>
<asrwt>0</asrwt>
<pdfrwt beam="1">  1        2 0.56196838E-01 0.18175846E+03</pdfrwt>
<pdfrwt beam="2">  1       -2 0.34784896E-02 0.18175846E+03</pdfrwt>
<totfact> 0.28646502E+04</totfact>
</mgrwt>
</event>
<event>
 4    1  0.6148427E-004  0.1628582E+03  0.7818608E-02  0.1185507E+00
          2   -1    0    0  501    0  0.00000000000E+00  0.00000000000E+00  0.57812151511E+02  0.57812151568E+02  0.25500000000E-02 0.  1.
         -2   -1    0    0    0  501 -0.00000000000E+00 -0.00000000000E+00 -0.11469378131E+03  0.11469378134E+03  0.25500000000E-02 0. -1.
    5000001    1    1    2    0    0  0.25828642219E+02  0.29346606299E+01 -0.33838086815E+02  0.88032647985E+02  0.77000000000E+02 0.  0.
   -5000001    1    1    2    0    0 -0.25828642219E+02 -0.29346606299E+01 -0.23043542981E+02  0.84473284919E+02  0.77000000000E+02 0.  0.
<mgrwt>
<rscale>  0 0.16285815E+03</rscale>
<asrwt>0</asrwt>
<pdfrwt beam="1">  1        2 0.88941772E-02 0.16285815E+03</pdfrwt>
<pdfrwt beam="2">  1       -2 0.17645197E-01 0.16285815E+03</pdfrwt>
<totfact> 0.18258273E+04</totfact>
</mgrwt>
</event>
<event>
 4    1  0.6148427E-004  0.5447562E+03  0.7818608E-02  0.1002715E+00
          2   -1    0    0  501    0  0.00000000000E+00  0.00000000000E+00  0.21553622867E+04  0.21553622867E+04  0.25500000000E-02 0.  1.
         -2   -1    0    0    0  501 -0.00000000000E+00 -0.00000000000E+00 -0.34421043558E+02  0.34421043652E+02  0.25500000000E-02 0. -1.
    5000001    1    1    2    0    0  0.21273085681E+02  0.24489769435E+03  0.14162444436E+04  0.14394807220E+04  0.77000000000E+02 0.  0.
   -5000001    1    1    2    0    0 -0.21273085681E+02 -0.24489769435E+03  0.70469679951E+03  0.75030260836E+03  0.77000000000E+02 0.  0.
<mgrwt>
<rscale>  0 0.54475616E+03</rscale>
<asrwt>0</asrwt>
<pdfrwt beam="1">  1        2 0.33159410E+00 0.54475616E+03</pdfrwt>
<pdfrwt beam="2">  1       -2 0.52955467E-02 0.54475616E+03</pdfrwt>
<totfact> 0.10755167E+03</totfact>
</mgrwt>
</event>
<event>
 4    1  0.6148427E-004  0.2502888E+03  0.7818608E-02  0.1113122E+00
         -2   -1    0    0    0  501 -0.00000000000E+00  0.00000000000E+00  0.98362496606E+01  0.98362499912E+01  0.25500000000E-02 0. -1.
          2   -1    0    0  501    0  0.00000000000E+00 -0.00000000000E+00 -0.15921837162E+04  0.15921837162E+04  0.25500000000E-02 0.  1.
    5000001    1    1    2    0    0  0.91750410530E+02  0.10522661171E+02 -0.10132003106E+04  0.10203101164E+04  0.77000000000E+02 0.  0.
   -5000001    1    1    2    0    0 -0.91750410530E+02 -0.10522661171E+02 -0.56914715590E+03  0.58170984976E+03  0.77000000000E+02 0.  0.
<mgrwt>
<rscale>  0 0.25028877E+03</rscale>
<asrwt>0</asrwt>
<pdfrwt beam="1">  1        2 0.24495114E+00 0.25028877E+03</pdfrwt>
<pdfrwt beam="2">  1       -2 0.15132705E-02 0.25028877E+03</pdfrwt>
<totfact> 0.14146413E+04</totfact>
</mgrwt>
</event>
<event>
 4    1  0.6148427E-004  0.4577613E+03  0.7818608E-02  0.1025433E+00
         -2   -1    0    0    0  501 -0.00000000000E+00  0.00000000000E+00  0.32869312659E+02  0.32869312758E+02  0.25500000000E-02 0. -1.
          2   -1    0    0  501    0  0.00000000000E+00 -0.00000000000E+00 -0.15937769097E+04  0.15937769097E+04  0.25500000000E-02 0.  1.
    5000001    1    1    2    0    0  0.20440220241E+03 -0.41370842687E+02 -0.97396507195E+03  0.99901389798E+03  0.77000000000E+02 0.  0.
   -5000001    1    1    2    0    0 -0.20440220241E+03  0.41370842687E+02 -0.58694252507E+03  0.62763232446E+03  0.77000000000E+02 0.  0.
<mgrwt>
<rscale>  0 0.45776130E+03</rscale>
<asrwt>0</asrwt>
<pdfrwt beam="1">  1        2 0.24519639E+00 0.45776130E+03</pdfrwt>
<pdfrwt beam="2">  1       -2 0.50568186E-02 0.45776130E+03</pdfrwt>
<totfact> 0.23297312E+03</totfact>
</mgrwt>
</event>
<event>
 4    1  0.6148427E-004  0.2049713E+03  0.7818608E-02  0.1145611E+00
         -2   -1    0    0    0  501 -0.00000000000E+00  0.00000000000E+00  0.61433476836E+01  0.61433482128E+01  0.25500000000E-02 0. -1.
          2   -1    0    0  501    0  0.00000000000E+00 -0.00000000000E+00 -0.17097041623E+04  0.17097041623E+04  0.25500000000E-02 0.  1.
    5000001    1    1    2    0    0 -0.22219550526E+02 -0.61915688856E+02 -0.72020488577E+03  0.72729040860E+03  0.77000000000E+02 0.  0.
   -5000001    1    1    2    0    0  0.22219550526E+02  0.61915688856E+02 -0.98335592885E+03  0.98855710192E+03  0.77000000000E+02 0.  0.
<mgrwt>
<rscale>  0 0.20497129E+03</rscale>
<asrwt>0</asrwt>
<pdfrwt beam="1">  1        2 0.26303103E+00 0.20497129E+03</pdfrwt>
<pdfrwt beam="2">  1       -2 0.94513182E-03 0.20497129E+03</pdfrwt>
<totfact> 0.24114359E+04</totfact>
</mgrwt>
</event>
<event>
 4    1  0.6148427E-004  0.1896897E+03  0.7818608E-02  0.1158741E+00
          2   -1    0    0  501    0  0.00000000000E+00  0.00000000000E+00  0.24178035595E+04  0.24178035595E+04  0.25500000000E-02 0.  1.
         -2   -1    0    0    0  501 -0.00000000000E+00 -0.00000000000E+00 -0.37205452349E+01  0.37205461088E+01  0.25500000000E-02 0. -1.
    5000001    1    1    2    0    0  0.42786123499E+02 -0.34791826304E+02  0.12714103519E+04  0.12749330988E+04  0.77000000000E+02 0.  0.
   -5000001    1    1    2    0    0 -0.42786123499E+02  0.34791826304E+02  0.11426726624E+04  0.11465910068E+04  0.77000000000E+02 0.  0.
<mgrwt>
<rscale>  0 0.18968973E+03</rscale>
<asrwt>0</asrwt>
<pdfrwt beam="1">  1        2 0.37197164E+00 0.18968973E+03</pdfrwt>
<pdfrwt beam="2">  1       -2 0.57238877E-03 0.18968973E+03</pdfrwt>
<totfact> 0.21032552E+04</totfact>
</mgrwt>
</event>
<event>
 4    1  0.6148427E-004  0.1643598E+03  0.7818608E-02  0.1183861E+00
          2   -1    0    0  501    0  0.00000000000E+00  0.00000000000E+00  0.96504123469E+02  0.96504123503E+02  0.25500000000E-02 0.  1.
         -2   -1    0    0    0  501 -0.00000000000E+00 -0.00000000000E+00 -0.69981808981E+02  0.69981809027E+02  0.25500000000E-02 0. -1.
    5000001    1    1    2    0    0 -0.14946466520E+02  0.22139407783E+02  0.25900356259E+01  0.81542985737E+02  0.77000000000E+02 0.  0.
   -5000001    1    1    2    0    0  0.14946466520E+02 -0.22139407783E+02  0.23932278863E+02  0.84942946793E+02  0.77000000000E+02 0.  0.
<mgrwt>
<rscale>  0 0.16435977E+03</rscale>
<asrwt>0</asrwt>
<pdfrwt beam="1">  1        2 0.14846788E-01 0.16435977E+03</pdfrwt>
<pdfrwt beam="2">  1       -2 0.10766432E-01 0.16435977E+03</pdfrwt>
<totfact> 0.21919627E+04</totfact>
</mgrwt>
</event>
<event>
 4    1  0.6148427E-004  0.3239156E+03  0.7818608E-02  0.1073861E+00
         -2   -1    0    0    0  501 -0.00000000000E+00  0.00000000000E+00  0.10886717942E+04  0.10886717942E+04  0.25500000000E-02 0. -1.
          2   -1    0    0  501    0  0.00000000000E+00 -0.00000000000E+00 -0.24093884565E+02  0.24093884700E+02  0.25500000000E-02 0.  1.
    5000001    1    1    2    0    0  0.71096196252E+02 -0.12037430386E+03  0.62678876978E+03  0.64679038650E+03  0.77000000000E+02 0.  0.
   -5000001    1    1    2    0    0 -0.71096196252E+02  0.12037430386E+03  0.43778913983E+03  0.46597529237E+03  0.77000000000E+02 0.  0.
<mgrwt>
<rscale>  0 0.32391562E+03</rscale>
<asrwt>0</asrwt>
<pdfrwt beam="1">  1        2 0.37067510E-02 0.32391562E+03</pdfrwt>
<pdfrwt beam="2">  1       -2 0.16748799E+00 0.32391562E+03</pdfrwt>
<totfact> 0.55844664E+02</totfact>
</mgrwt>
</event>
<event>
 4    1  0.6148427E-004  0.2102082E+03  0.7818608E-02  0.1141401E+00
          2   -1    0    0  501    0  0.00000000000E+00  0.00000000000E+00  0.23664598468E+04  0.23664598468E+04  0.25500000000E-02 0.  1.
         -2   -1    0    0    0  501 -0.00000000000E+00 -0.00000000000E+00 -0.46680993989E+01  0.46681000954E+01  0.25500000000E-02 0. -1.
    5000001    1    1    2    0    0 -0.44763460444E+02  0.18631813207E+02  0.17742400761E+04  0.17765719122E+04  0.77000000000E+02 0.  0.
   -5000001    1    1    2    0    0  0.44763460444E+02 -0.18631813207E+02  0.58755167138E+03  0.59455603469E+03  0.77000000000E+02 0.  0.
<mgrwt>
<rscale>  0 0.21020819E+03</rscale>
<asrwt>0</asrwt>
<pdfrwt beam="1">  1        2 0.36406922E+00 0.21020819E+03</pdfrwt>
<pdfrwt beam="2">  1       -2 0.71817221E-03 0.21020819E+03</pdfrwt>
<totfact> 0.16235460E+04</totfact>
</mgrwt>
</event>
<event>
 4    1  0.6148427E-004  0.1689346E+03  0.7818608E-02  0.1178964E+00
         -2   -1    0    0    0  501 -0.00000000000E+00  0.00000000000E+00  0.86198840016E+01  0.86198843788E+01  0.25500000000E-02 0. -1.
          2   -1    0    0  501    0  0.00000000000E+00 -0.00000000000E+00 -0.82770494820E+03  0.82770494821E+03  0.25500000000E-02 0.  1.
    5000001    1    1    2    0    0 -0.29909187600E+02  0.10597842382E+02 -0.47935227916E+03  0.48653312456E+03  0.77000000000E+02 0.  0.
   -5000001    1    1    2    0    0  0.29909187600E+02 -0.10597842382E+02 -0.33973278505E+03  0.34979170802E+03  0.77000000000E+02 0.  0.
<mgrwt>
<rscale>  0 0.16893455E+03</rscale>
<asrwt>0</asrwt>
<pdfrwt beam="1">  1        2 0.12733916E+00 0.16893455E+03</pdfrwt>
<pdfrwt beam="2">  1       -2 0.13261367E-02 0.16893455E+03</pdfrwt>
<totfact> 0.45901749E+04</totfact>
</mgrwt>
</event>
<event>
 4    1  0.6148427E-004  0.2541852E+03  0.7818608E-02  0.1110688E+00
          2   -1    0    0  501    0  0.00000000000E+00  0.00000000000E+00  0.25597155846E+04  0.25597155846E+04  0.25500000000E-02 0.  1.
         -2   -1    0    0    0  501 -0.00000000000E+00 -0.00000000000E+00 -0.63102848887E+01  0.63102854039E+01  0.25500000000E-02 0. -1.
    5000001    1    1    2    0    0  0.94782282796E+02  0.17729668071E+02  0.96958700411E+03  0.97740778634E+03  0.77000000000E+02 0.  0.
   -5000001    1    1    2    0    0 -0.94782282796E+02 -0.17729668071E+02  0.15838182956E+04  0.15886180837E+04  0.77000000000E+02 0.  0.
<mgrwt>
<rscale>  0 0.25418525E+03</rscale>
<asrwt>0</asrwt>
<pdfrwt beam="1">  1        2 0.39380239E+00 0.25418525E+03</pdfrwt>
<pdfrwt beam="2">  1       -2 0.97081312E-03 0.25418525E+03</pdfrwt>
<totfact> 0.82749762E+03</totfact>
</mgrwt>
</event>
<event>
 4    1  0.6148427E-004  0.2863734E+03  0.7818608E-02  0.1092258E+00
         -2   -1    0    0    0  501 -0.00000000000E+00  0.00000000000E+00  0.49062950542E+02  0.49062950608E+02  0.25500000000E-02 0. -1.
          2   -1    0    0  501    0  0.00000000000E+00 -0.00000000000E+00 -0.41788015393E+03  0.41788015394E+03  0.25500000000E-02 0.  1.
    5000001    1    1    2    0    0  0.11956464657E+03  0.16398273727E+02 -0.18925249778E+03  0.23729752634E+03  0.77000000000E+02 0.  0.
   -5000001    1    1    2    0    0 -0.11956464657E+03 -0.16398273727E+02 -0.17956470561E+03  0.22964557821E+03  0.77000000000E+02 0.  0.
<mgrwt>
<rscale>  0 0.28637342E+03</rscale>
<asrwt>0</asrwt>
<pdfrwt beam="1">  1        2 0.64289252E-01 0.28637342E+03</pdfrwt>
<pdfrwt beam="2">  1       -2 0.75481465E-02 0.28637342E+03</pdfrwt>
<totfact> 0.78461622E+03</totfact>
</mgrwt>
</event>
<event>
 4    1  0.6148427E-004  0.1983002E+03  0.7818608E-02  0.1151181E+00
          2   -1    0    0  501    0  0.00000000000E+00  0.00000000000E+00  0.20725315851E+04  0.20725315851E+04  0.25500000000E-02 0.  1.
         -2   -1    0    0    0  501 -0.00000000000E+00 -0.00000000000E+00 -0.47433507566E+01  0.47433514420E+01  0.25500000000E-02 0. -1.
    5000001    1    1    2    0    0  0.19494898847E+02 -0.59206203791E+02  0.99157643250E+03  0.99651304413E+03  0.77000000000E+02 0.  0.
   -5000001    1    1    2    0    0 -0.19494898847E+02  0.59206203791E+02  0.10762118019E+04  0.10807618924E+04  0.77000000000E+02 0.  0.
<mgrwt>
<rscale>  0 0.19830023E+03</rscale>
<asrwt>0</asrwt>
<pdfrwt beam="1">  1        2 0.31885119E+00 0.19830023E+03</pdfrwt>
<pdfrwt beam="2">  1       -2 0.72974592E-03 0.19830023E+03</pdfrwt>
<totfact> 0.22629714E+04</totfact>
</mgrwt>
</event>
<event>
 4    1  0.6148427E-004  0.3507259E+03  0.7818608E-02  0.1062317E+00
          2   -1    0    0  501    0  0.00000000000E+00  0.00000000000E+00  0.20712255239E+04  0.20712255239E+04  0.25500000000E-02 0.  1.
         -2   -1    0    0    0  501 -0.00000000000E+00 -0.00000000000E+00 -0.14847330794E+02  0.14847331013E+02  0.25500000000E-02 0. -1.
    5000001    1    1    2    0    0 -0.13478577685E+03 -0.38866400003E+02  0.60154100235E+03  0.62246154917E+03  0.77000000000E+02 0.  0.
   -5000001    1    1    2    0    0  0.13478577685E+03  0.38866400003E+02  0.14548371907E+04  0.14636113057E+04  0.77000000000E+02 0.  0.
<mgrwt>
<rscale>  0 0.35072594E+03</rscale>
<asrwt>0</asrwt>
<pdfrwt beam="1">  1        2 0.31865003E+00 0.35072594E+03</pdfrwt>
<pdfrwt beam="2">  1       -2 0.22842051E-02 0.35072594E+03</pdfrwt>
<totfact> 0.43218592E+03</totfact>
</mgrwt>
</event>
<event>
 4    1  0.6148427E-004  0.2164461E+03  0.7818608E-02  0.1136561E+00
         -2   -1    0    0    0  501 -0.00000000000E+00  0.00000000000E+00  0.71470709856E+01  0.71470714405E+01  0.25500000000E-02 0. -1.
          2   -1    0    0  501    0  0.00000000000E+00 -0.00000000000E+00 -0.16387445045E+04  0.16387445045E+04  0.25500000000E-02 0.  1.
    5000001    1    1    2    0    0 -0.12191391193E+02  0.74403811898E+02 -0.74026579911E+03  0.74806885417E+03  0.77000000000E+02 0.  0.
   -5000001    1    1    2    0    0  0.12191391193E+02 -0.74403811898E+02 -0.89133163436E+03  0.89782272173E+03  0.77000000000E+02 0.  0.
<mgrwt>
<rscale>  0 0.21644605E+03</rscale>
<asrwt>0</asrwt>
<pdfrwt beam="1">  1        2 0.25211424E+00 0.21644605E+03</pdfrwt>
<pdfrwt beam="2">  1       -2 0.10995507E-02 0.21644605E+03</pdfrwt>
<totfact> 0.21157291E+04</totfact>
</mgrwt>
</event>
<event>
 4    1  0.6148427E-004  0.2000556E+03  0.7818608E-02  0.1149692E+00
         -2   -1    0    0    0  501 -0.00000000000E+00  0.00000000000E+00  0.17581210367E+03  0.17581210369E+03  0.25500000000E-02 0. -1.
          2   -1    0    0  501    0  0.00000000000E+00 -0.00000000000E+00 -0.56910526914E+02  0.56910526971E+02  0.25500000000E-02 0.  1.
    5000001    1    1    2    0    0  0.52884972267E+02 -0.12305966222E+02  0.98525941028E+02  0.13632541271E+03  0.77000000000E+02 0.  0.
   -5000001    1    1    2    0    0 -0.52884972267E+02  0.12305966222E+02  0.20375635729E+02  0.96397217946E+02  0.77000000000E+02 0.  0.
<mgrwt>
<rscale>  0 0.20005559E+03</rscale>
<asrwt>0</asrwt>
<pdfrwt beam="1">  1        2 0.87554658E-02 0.20005559E+03</pdfrwt>
<pdfrwt beam="2">  1       -2 0.27048015E-01 0.20005559E+03</pdfrwt>
<totfact> 0.90697478E+03</totfact>
</mgrwt>
</event>
<event>
 4    1  0.6148427E-004  0.4531273E+03  0.7818608E-02  0.1026794E+00
         -2   -1    0    0    0  501 -0.00000000000E+00  0.00000000000E+00  0.36684537907E+02  0.36684537996E+02  0.25500000000E-02 0. -1.
          2   -1    0    0  501    0  0.00000000000E+00 -0.00000000000E+00 -0.13992567578E+04  0.13992567578E+04  0.25500000000E-02 0.  1.
    5000001    1    1    2    0    0  0.14797703224E+03  0.36735747320E+02 -0.11529753446E+04  0.11655590343E+04  0.77000000000E+02 0.  0.
   -5000001    1    1    2    0    0 -0.14797703224E+03 -0.36735747320E+02 -0.20959687533E+03  0.27038226153E+03  0.77000000000E+02 0.  0.
<mgrwt>
<rscale>  0 0.45312730E+03</rscale>
<asrwt>0</asrwt>
<pdfrwt beam="1">  1        2 0.21527023E+00 0.45312730E+03</pdfrwt>
<pdfrwt beam="2">  1       -2 0.56437761E-02 0.45312730E+03</pdfrwt>
<totfact> 0.25123052E+03</totfact>
</mgrwt>
</event>
<event>
 4    1  0.6148427E-004  0.2653234E+03  0.7818608E-02  0.1103986E+00
         -2   -1    0    0    0  501 -0.00000000000E+00  0.00000000000E+00  0.25492417969E+03  0.25492417970E+03  0.25500000000E-02 0. -1.
          2   -1    0    0  501    0  0.00000000000E+00 -0.00000000000E+00 -0.69036684450E+02  0.69036684497E+02  0.25500000000E-02 0.  1.
    5000001    1    1    2    0    0 -0.70687851651E+02 -0.80650066794E+02  0.10881278424E+03  0.17108602415E+03  0.77000000000E+02 0.  0.
   -5000001    1    1    2    0    0  0.70687851651E+02  0.80650066794E+02  0.77074710998E+02  0.15287484005E+03  0.77000000000E+02 0.  0.
<mgrwt>
<rscale>  0 0.26532335E+03</rscale>
<asrwt>0</asrwt>
<pdfrwt beam="1">  1        2 0.10621028E-01 0.26532335E+03</pdfrwt>
<pdfrwt beam="2">  1       -2 0.39219105E-01 0.26532335E+03</pdfrwt>
<totfact> 0.36534818E+03</totfact>
</mgrwt>
</event>
<event>
 4    1  0.6148427E-004  0.5759064E+03  0.7818608E-02  0.9956693E-01
          2   -1    0    0  501    0  0.00000000000E+00  0.00000000000E+00  0.31123356554E+03  0.31123356556E+03  0.25500000000E-02 0.  1.
         -2   -1    0    0    0  501 -0.00000000000E+00 -0.00000000000E+00 -0.26641418316E+03  0.26641418317E+03  0.25500000000E-02 0. -1.
    5000001    1    1    2    0    0 -0.31687382822E+02  0.24363852444E+03  0.15173448129E+03  0.29885811622E+03  0.77000000000E+02 0.  0.
   -5000001    1    1    2    0    0  0.31687382822E+02 -0.24363852444E+03 -0.10691509891E+03  0.27878963251E+03  0.77000000000E+02 0.  0.
<mgrwt>
<rscale>  0 0.57590637E+03</rscale>
<asrwt>0</asrwt>
<pdfrwt beam="1">  1        2 0.47882087E-01 0.57590637E+03</pdfrwt>
<pdfrwt beam="2">  1       -2 0.40986797E-01 0.57590637E+03</pdfrwt>
<totfact> 0.59829746E+02</totfact>
</mgrwt>
</event>
<event>
 4    1  0.6148427E-004  0.1843466E+03  0.7818608E-02  0.1163661E+00
         -2   -1    0    0    0  501 -0.00000000000E+00  0.00000000000E+00  0.11479950527E+02  0.11479950810E+02  0.25500000000E-02 0. -1.
          2   -1    0    0  501    0  0.00000000000E+00 -0.00000000000E+00 -0.74006559217E+03  0.74006559218E+03  0.25500000000E-02 0.  1.
    5000001    1    1    2    0    0  0.33632600775E+02  0.37409332726E+02 -0.38885756698E+03  0.39958705860E+03  0.77000000000E+02 0.  0.
   -5000001    1    1    2    0    0 -0.33632600775E+02 -0.37409332726E+02 -0.33972807467E+03  0.35195848438E+03  0.77000000000E+02 0.  0.
<mgrwt>
<rscale>  0 0.18434659E+03</rscale>
<asrwt>0</asrwt>
<pdfrwt beam="1">  1        2 0.11385621E+00 0.18434659E+03</pdfrwt>
<pdfrwt beam="2">  1       -2 0.17661468E-02 0.18434659E+03</pdfrwt>
<totfact> 0.35085611E+04</totfact>
</mgrwt>
</event>
<event>
 4    1  0.6148427E-004  0.2355612E+03  0.7818608E-02  0.1122786E+00
          2   -1    0    0  501    0  0.00000000000E+00  0.00000000000E+00  0.26808078830E+03  0.26808078831E+03  0.25500000000E-02 0.  1.
         -2   -1    0    0    0  501 -0.00000000000E+00 -0.00000000000E+00 -0.51746604064E+02  0.51746604127E+02  0.25500000000E-02 0. -1.
    5000001    1    1    2    0    0 -0.45424207739E+02  0.72411413483E+02  0.73913135683E+02  0.13674400564E+03  0.77000000000E+02 0.  0.
   -5000001    1    1    2    0    0  0.45424207739E+02 -0.72411413483E+02  0.14242104855E+03  0.18308338680E+03  0.77000000000E+02 0.  0.
<mgrwt>
<rscale>  0 0.23556121E+03</rscale>
<asrwt>0</asrwt>
<pdfrwt beam="1">  1        2 0.41243198E-01 0.23556121E+03</pdfrwt>
<pdfrwt beam="2">  1       -2 0.79610161E-02 0.23556121E+03</pdfrwt>
<totfact> 0.11556367E+04</totfact>
</mgrwt>
</event>
<event>
 4    1  0.6148427E-004  0.2220954E+03  0.7818608E-02  0.1132330E+00
         -2   -1    0    0    0  501 -0.00000000000E+00  0.00000000000E+00  0.28368037415E+02  0.28368037529E+02  0.25500000000E-02 0. -1.
          2   -1    0    0  501    0  0.00000000000E+00 -0.00000000000E+00 -0.43470019251E+03  0.43470019252E+03  0.25500000000E-02 0.  1.
    5000001    1    1    2    0    0  0.77406674466E+02 -0.24461749807E+01 -0.24511621294E+03  0.26834443327E+03  0.77000000000E+02 0.  0.
   -5000001    1    1    2    0    0 -0.77406674466E+02  0.24461749807E+01 -0.16121594216E+03  0.19472379677E+03  0.77000000000E+02 0.  0.
<mgrwt>
<rscale>  0 0.22209540E+03</rscale>
<asrwt>0</asrwt>
<pdfrwt beam="1">  1        2 0.66876948E-01 0.22209540E+03</pdfrwt>
<pdfrwt beam="2">  1       -2 0.43643138E-02 0.22209540E+03</pdfrwt>
<totfact> 0.17161855E+04</totfact>
</mgrwt>
</event>
<event>
 4    1  0.6148427E-004  0.5570715E+03  0.7818608E-02  0.9998703E-01
         -2   -1    0    0    0  501 -0.00000000000E+00  0.00000000000E+00  0.28421762420E+02  0.28421762534E+02  0.25500000000E-02 0. -1.
          2   -1    0    0  501    0  0.00000000000E+00 -0.00000000000E+00 -0.27296741520E+04  0.27296741520E+04  0.25500000000E-02 0.  1.
    5000001    1    1    2    0    0  0.38471426695E+02  0.26130285732E+03 -0.11351601331E+04  0.11680225861E+04  0.77000000000E+02 0.  0.
   -5000001    1    1    2    0    0 -0.38471426695E+02 -0.26130285732E+03 -0.15660922565E+04  0.15900733284E+04  0.77000000000E+02 0.  0.
<mgrwt>
<rscale>  0 0.55707145E+03</rscale>
<asrwt>0</asrwt>
<pdfrwt beam="1">  1        2 0.41994966E+00 0.55707145E+03</pdfrwt>
<pdfrwt beam="2">  1       -2 0.43725810E-02 0.55707145E+03</pdfrwt>
<totfact> 0.68968235E+02</totfact>
</mgrwt>
</event>
<event>
 4    1  0.6148427E-004  0.2695602E+03  0.7818608E-02  0.1101532E+00
          2   -1    0    0  501    0  0.00000000000E+00  0.00000000000E+00  0.27826142173E+04  0.27826142173E+04  0.25500000000E-02 0.  1.
         -2   -1    0    0    0  501 -0.00000000000E+00 -0.00000000000E+00 -0.65282751574E+01  0.65282756554E+01  0.25500000000E-02 0. -1.
    5000001    1    1    2    0    0  0.10363163883E+03  0.27485786326E+02  0.11062531568E+04  0.11141005484E+04  0.77000000000E+02 0.  0.
   -5000001    1    1    2    0    0 -0.10363163883E+03 -0.27485786326E+02  0.16698327854E+04  0.16750419446E+04  0.77000000000E+02 0.  0.
<mgrwt>
<rscale>  0 0.26956017E+03</rscale>
<asrwt>0</asrwt>
<pdfrwt beam="1">  1        2 0.42809493E+00 0.26956017E+03</pdfrwt>
<pdfrwt beam="2">  1       -2 0.10043490E-02 0.26956017E+03</pdfrwt>
<totfact> 0.59071904E+03</totfact>
</mgrwt>
</event>
<event>
 4    1  0.6148427E-004  0.5570767E+03  0.7818608E-02  0.9998691E-01
          2   -1    0    0  501    0  0.00000000000E+00  0.00000000000E+00  0.34019145594E+04  0.34019145594E+04  0.25500000000E-02 0.  1.
         -2   -1    0    0    0  501 -0.00000000000E+00 -0.00000000000E+00 -0.22805870423E+02  0.22805870566E+02  0.25500000000E-02 0. -1.
    5000001    1    1    2    0    0  0.16577430973E+03  0.20304671825E+03  0.13559037343E+04  0.13831532917E+04  0.77000000000E+02 0.  0.
   -5000001    1    1    2    0    0 -0.16577430973E+03 -0.20304671825E+03  0.20232049546E+04  0.20415671383E+04  0.77000000000E+02 0.  0.
<mgrwt>
<rscale>  0 0.55707674E+03</rscale>
<asrwt>0</asrwt>
<pdfrwt beam="1">  1        2 0.52337197E+00 0.55707674E+03</pdfrwt>
<pdfrwt beam="2">  1       -2 0.35085921E-02 0.55707674E+03</pdfrwt>
<totfact> 0.37236298E+02</totfact>
</mgrwt>
</event>
<event>
 4    1  0.6148427E-004  0.2250651E+03  0.7818608E-02  0.1130162E+00
          2   -1    0    0  501    0  0.00000000000E+00  0.00000000000E+00  0.83449458960E+03  0.83449458960E+03  0.25500000000E-02 0.  1.
         -2   -1    0    0    0  501 -0.00000000000E+00 -0.00000000000E+00 -0.15175143153E+02  0.15175143367E+02  0.25500000000E-02 0. -1.
    5000001    1    1    2    0    0 -0.66040951741E+02  0.31171682832E+02  0.26832867329E+03  0.28855217557E+03  0.77000000000E+02 0.  0.
   -5000001    1    1    2    0    0  0.66040951741E+02 -0.31171682832E+02  0.55099077316E+03  0.56111755740E+03  0.77000000000E+02 0.  0.
<mgrwt>
<rscale>  0 0.22506510E+03</rscale>
<asrwt>0</asrwt>
<pdfrwt beam="1">  1        2 0.12838381E+00 0.22506510E+03</pdfrwt>
<pdfrwt beam="2">  1       -2 0.23346370E-02 0.22506510E+03</pdfrwt>
<totfact> 0.20336853E+04</totfact>
</mgrwt>
</event>
<event>
 4    1  0.6148427E-004  0.2079531E+03  0.7818608E-02  0.1143197E+00
          2   -1    0    0  501    0  0.00000000000E+00  0.00000000000E+00  0.66623257982E+03  0.66623257982E+03  0.25500000000E-02 0.  1.
         -2   -1    0    0    0  501 -0.00000000000E+00 -0.00000000000E+00 -0.16227253241E+02  0.16227253441E+02  0.25500000000E-02 0. -1.
    5000001    1    1    2    0    0  0.21129810774E+02  0.66545197658E+02  0.31607966084E+03  0.33273124926E+03  0.77000000000E+02 0.  0.
   -5000001    1    1    2    0    0 -0.21129810774E+02 -0.66545197658E+02  0.33392566574E+03  0.34972858401E+03  0.77000000000E+02 0.  0.
<mgrwt>
<rscale>  0 0.20795312E+03</rscale>
<asrwt>0</asrwt>
<pdfrwt beam="1">  1        2 0.10249732E+00 0.20795312E+03</pdfrwt>
<pdfrwt beam="2">  1       -2 0.24965005E-02 0.20795312E+03</pdfrwt>
<totfact> 0.24203289E+04</totfact>
</mgrwt>
</event>
<event>
 4    1  0.6148427E-004  0.3020090E+03  0.7818608E-02  0.1084241E+00
         -2   -1    0    0    0  501 -0.00000000000E+00  0.00000000000E+00  0.92349088433E+03  0.92349088434E+03  0.25500000000E-02 0. -1.
          2   -1    0    0  501    0  0.00000000000E+00 -0.00000000000E+00 -0.24691484888E+02  0.24691485020E+02  0.25500000000E-02 0.  1.
    5000001    1    1    2    0    0 -0.38952633445E+02  0.73313626823E+02  0.76306220195E+03  0.77141760388E+03  0.77000000000E+02 0.  0.
   -5000001    1    1    2    0    0  0.38952633445E+02 -0.73313626823E+02  0.13573719749E+03  0.17676476548E+03  0.77000000000E+02 0.  0.
<mgrwt>
<rscale>  0 0.30200901E+03</rscale>
<asrwt>0</asrwt>
<pdfrwt beam="1">  1        2 0.37986895E-02 0.30200901E+03</pdfrwt>
<pdfrwt beam="2">  1       -2 0.14207554E+00 0.30200901E+03</pdfrwt>
<totfact> 0.83090807E+02</totfact>
</mgrwt>
</event>
<event>
 4    1  0.6148427E-004  0.3014423E+03  0.7818608E-02  0.1084522E+00
         -2   -1    0    0    0  501 -0.00000000000E+00  0.00000000000E+00  0.52267434388E+02  0.52267434450E+02  0.25500000000E-02 0. -1.
          2   -1    0    0  501    0  0.00000000000E+00 -0.00000000000E+00 -0.43462747106E+03  0.43462747106E+03  0.25500000000E-02 0.  1.
    5000001    1    1    2    0    0  0.42458223107E+02 -0.10242200044E+03 -0.82889388715E+02  0.15840649496E+03  0.77000000000E+02 0.  0.
   -5000001    1    1    2    0    0 -0.42458223107E+02  0.10242200044E+03 -0.29947064795E+03  0.32848841055E+03  0.77000000000E+02 0.  0.
<mgrwt>
<rscale>  0 0.30144229E+03</rscale>
<asrwt>0</asrwt>
<pdfrwt beam="1">  1        2 0.66865763E-01 0.30144229E+03</pdfrwt>
<pdfrwt beam="2">  1       -2 0.80411440E-02 0.30144229E+03</pdfrwt>
<totfact> 0.68192025E+03</totfact>
</mgrwt>
</event>
<event>
 4    1  0.6148427E-004  0.2779018E+03  0.7818608E-02  0.1096840E+00
          2   -1    0    0  501    0  0.00000000000E+00  0.00000000000E+00  0.42169213013E+02  0.42169213090E+02  0.25500000000E-02 0.  1.
         -2   -1    0    0    0  501 -0.00000000000E+00 -0.00000000000E+00 -0.45785425231E+03  0.45785425232E+03  0.25500000000E-02 0. -1.
    5000001    1    1    2    0    0  0.73505869176E+02 -0.70496904782E+02 -0.10920273468E+03  0.16800941536E+03  0.77000000000E+02 0.  0.
   -5000001    1    1    2    0    0 -0.73505869176E+02  0.70496904782E+02 -0.30648230462E+03  0.33201405005E+03  0.77000000000E+02 0.  0.
<mgrwt>
<rscale>  0 0.27790181E+03</rscale>
<asrwt>0</asrwt>
<pdfrwt beam="1">  1        2 0.64875715E-02 0.27790181E+03</pdfrwt>
<pdfrwt beam="2">  1       -2 0.70439113E-01 0.27790181E+03</pdfrwt>
<totfact> 0.20949516E+03</totfact>
</mgrwt>
</event>
<event>
 4    1  0.6148427E-004  0.2494098E+03  0.7818608E-02  0.1113678E+00
          2   -1    0    0  501    0  0.00000000000E+00  0.00000000000E+00  0.23104223145E+04  0.23104223145E+04  0.25500000000E-02 0.  1.
         -2   -1    0    0    0  501 -0.00000000000E+00 -0.00000000000E+00 -0.67309409489E+01  0.67309414319E+01  0.25500000000E-02 0. -1.
    5000001    1    1    2    0    0 -0.70026399686E+02  0.34908545632E+02  0.60220858533E+03  0.61213273353E+03  0.77000000000E+02 0.  0.
   -5000001    1    1    2    0    0  0.70026399686E+02 -0.34908545632E+02  0.17014827882E+04  0.17050205224E+04  0.77000000000E+02 0.  0.
<mgrwt>
<rscale>  0 0.24940984E+03</rscale>
<asrwt>0</asrwt>
<pdfrwt beam="1">  1        2 0.35544953E+00 0.24940984E+03</pdfrwt>
<pdfrwt beam="2">  1       -2 0.10355296E-02 0.24940984E+03</pdfrwt>
<totfact> 0.10287433E+04</totfact>
</mgrwt>
</event>
<event>
 4    1  0.6148427E-004  0.6802079E+03  0.7818608E-02  0.9751691E-01
          2   -1    0    0  501    0  0.00000000000E+00  0.00000000000E+00  0.79965374275E+02  0.79965374315E+02  0.25500000000E-02 0. -1.
         -2   -1    0    0    0  501 -0.00000000000E+00 -0.00000000000E+00 -0.14465099511E+04  0.14465099511E+04  0.25500000000E-02 0.  1.
    5000001    1    1    2    0    0 -0.17654177223E+03  0.11046547441E+03 -0.10512187067E+03  0.24566079474E+03  0.77000000000E+02 0.  0.
   -5000001    1    1    2    0    0  0.17654177223E+03 -0.11046547441E+03 -0.12614227061E+04  0.12808145306E+04  0.77000000000E+02 0.  0.
<mgrwt>
<rscale>  0 0.68020794E+03</rscale>
<asrwt>0</asrwt>
<pdfrwt beam="1">  1        2 0.12302366E-01 0.68020794E+03</pdfrwt>
<pdfrwt beam="2">  1       -2 0.22253997E+00 0.68020794E+03</pdfrwt>
<totfact> 0.50043369E+01</totfact>
</mgrwt>
</event>
<event>
 4    1  0.6148427E-004  0.2770949E+03  0.7818608E-02  0.1097286E+00
          2   -1    0    0  501    0  0.00000000000E+00  0.00000000000E+00  0.77979397673E+03  0.77979397674E+03  0.25500000000E-02 0.  1.
         -2   -1    0    0    0  501 -0.00000000000E+00 -0.00000000000E+00 -0.24615989073E+02  0.24615989206E+02  0.25500000000E-02 0. -1.
    5000001    1    1    2    0    0  0.94171746867E+02  0.60614405767E+02  0.29947822024E+03  0.32887479152E+03  0.77000000000E+02 0.  0.
   -5000001    1    1    2    0    0 -0.94171746867E+02 -0.60614405767E+02  0.45569976742E+03  0.47553517443E+03  0.77000000000E+02 0.  0.
<mgrwt>
<rscale>  0 0.27709493E+03</rscale>
<asrwt>0</asrwt>
<pdfrwt beam="1">  1        2 0.11996831E+00 0.27709493E+03</pdfrwt>
<pdfrwt beam="2">  1       -2 0.37870750E-02 0.27709493E+03</pdfrwt>
<totfact> 0.10907300E+04</totfact>
</mgrwt>
</event>
<event>
 4    1  0.6148427E-004  0.6155119E+03  0.7818608E-02  0.9873736E-01
         -2   -1    0    0    0  501 -0.00000000000E+00  0.00000000000E+00  0.22409824012E+03  0.22409824013E+03  0.25500000000E-02 0. -1.
          2   -1    0    0  501    0  0.00000000000E+00 -0.00000000000E+00 -0.42264379297E+03  0.42264379298E+03  0.25500000000E-02 0.  1.
    5000001    1    1    2    0    0  0.27756327932E+03  0.89758450364E+02 -0.16307238914E+03  0.34295707827E+03  0.77000000000E+02 0.  0.
   -5000001    1    1    2    0    0 -0.27756327932E+03 -0.89758450364E+02 -0.35473163713E+02  0.30378495483E+03  0.77000000000E+02 0.  0.
<mgrwt>
<rscale>  0 0.61551192E+03</rscale>
<asrwt>0</asrwt>
<pdfrwt beam="1">  1        2 0.65022122E-01 0.61551192E+03</pdfrwt>
<pdfrwt beam="2">  1       -2 0.34476652E-01 0.61551192E+03</pdfrwt>
<totfact> 0.59301576E+02</totfact>
</mgrwt>
</event>
<event>
 4    1  0.6148427E-004  0.5683397E+03  0.7818608E-02  0.9973359E-01
         -2   -1    0    0    0  501 -0.00000000000E+00  0.00000000000E+00  0.24592083313E+03  0.24592083315E+03  0.25500000000E-02 0. -1.
          2   -1    0    0  501    0  0.00000000000E+00 -0.00000000000E+00 -0.32836786622E+03  0.32836786623E+03  0.25500000000E-02 0.  1.
    5000001    1    1    2    0    0  0.11789464592E+03  0.75368921632E+02 -0.27872392719E+03  0.32124079671E+03  0.77000000000E+02 0.  0.
   -5000001    1    1    2    0    0 -0.11789464592E+03 -0.75368921632E+02  0.19627689411E+03  0.25304790267E+03  0.77000000000E+02 0.  0.
<mgrwt>
<rscale>  0 0.56833968E+03</rscale>
<asrwt>0</asrwt>
<pdfrwt beam="1">  1        2 0.50518134E-01 0.56833968E+03</pdfrwt>
<pdfrwt beam="2">  1       -2 0.37833974E-01 0.56833968E+03</pdfrwt>
<totfact> 0.65844318E+02</totfact>
</mgrwt>
</event>
<event>
 4    1  0.6148427E-004  0.2532925E+03  0.7818608E-02  0.1111242E+00
          2   -1    0    0  501    0  0.00000000000E+00  0.00000000000E+00  0.30939470539E+03  0.30939470540E+03  0.25500000000E-02 0.  1.
         -2   -1    0    0    0  501 -0.00000000000E+00 -0.00000000000E+00 -0.51840821362E+02  0.51840821425E+02  0.25500000000E-02 0. -1.
    5000001    1    1    2    0    0 -0.33413404829E+02 -0.86930614237E+02  0.18283738454E+03  0.21916180438E+03  0.77000000000E+02 0.  0.
   -5000001    1    1    2    0    0  0.33413404829E+02  0.86930614237E+02  0.74716499489E+02  0.14207372245E+03  0.77000000000E+02 0.  0.
<mgrwt>
<rscale>  0 0.25329252E+03</rscale>
<asrwt>0</asrwt>
<pdfrwt beam="1">  1        2 0.47599185E-01 0.25329252E+03</pdfrwt>
<pdfrwt beam="2">  1       -2 0.79755111E-02 0.25329252E+03</pdfrwt>
<totfact> 0.99160138E+03</totfact>
</mgrwt>
</event>
<event>
 4    1  0.6148427E-004  0.1672211E+03  0.7818608E-02  0.1180777E+00
         -2   -1    0    0    0  501 -0.00000000000E+00  0.00000000000E+00  0.62389553214E+02  0.62389553267E+02  0.25500000000E-02 0. -1.
          2   -1    0    0  501    0  0.00000000000E+00 -0.00000000000E+00 -0.11204965140E+03  0.11204965143E+03  0.25500000000E-02 0.  1.
    5000001    1    1    2    0    0  0.19666557106E+02 -0.18889745643E+02 -0.62239038082E+01  0.81922725403E+02  0.77000000000E+02 0.  0.
   -5000001    1    1    2    0    0 -0.19666557106E+02  0.18889745643E+02 -0.43436194379E+02  0.92516479294E+02  0.77000000000E+02 0.  0.
<mgrwt>
<rscale>  0 0.16722114E+03</rscale>
<asrwt>0</asrwt>
<pdfrwt beam="1">  1        2 0.17238408E-01 0.16722114E+03</pdfrwt>
<pdfrwt beam="2">  1       -2 0.95983928E-02 0.16722114E+03</pdfrwt>
<totfact> 0.22110635E+04</totfact>
</mgrwt>
</event>
<event>
 4    1  0.6148427E-004  0.2635027E+03  0.7818608E-02  0.1105057E+00
          2   -1    0    0  501    0  0.00000000000E+00  0.00000000000E+00  0.79540717828E+03  0.79540717829E+03  0.25500000000E-02 0.  1.
         -2   -1    0    0    0  501 -0.00000000000E+00 -0.00000000000E+00 -0.21823316521E+02  0.21823316670E+02  0.25500000000E-02 0. -1.
    5000001    1    1    2    0    0 -0.31777279814E+02  0.94028187075E+02  0.51000533582E+03  0.52524807286E+03  0.77000000000E+02 0.  0.
   -5000001    1    1    2    0    0  0.31777279814E+02 -0.94028187075E+02  0.26357852594E+03  0.29198242210E+03  0.77000000000E+02 0.  0.
<mgrwt>
<rscale>  0 0.26350273E+03</rscale>
<asrwt>0</asrwt>
<pdfrwt beam="1">  1        2 0.12237034E+00 0.26350273E+03</pdfrwt>
<pdfrwt beam="2">  1       -2 0.33574333E-02 0.26350273E+03</pdfrwt>
<totfact> 0.12714809E+04</totfact>
</mgrwt>
</event>
<event>
 4    1  0.6148427E-004  0.2341527E+03  0.7818608E-02  0.1123751E+00
          2   -1    0    0  501    0  0.00000000000E+00  0.00000000000E+00  0.10430618115E+04  0.10430618115E+04  0.25500000000E-02 0.  1.
         -2   -1    0    0    0  501 -0.00000000000E+00 -0.00000000000E+00 -0.13140995337E+02  0.13140995585E+02  0.25500000000E-02 0. -1.
    5000001    1    1    2    0    0 -0.24673600302E+02 -0.46700749708E+02  0.83353914426E+03  0.83875279528E+03  0.77000000000E+02 0.  0.
   -5000001    1    1    2    0    0  0.24673600302E+02  0.46700749708E+02  0.19638167187E+03  0.21745001178E+03  0.77000000000E+02 0.  0.
<mgrwt>
<rscale>  0 0.23415269E+03</rscale>
<asrwt>0</asrwt>
<pdfrwt beam="1">  1        2 0.16047108E+00 0.23415269E+03</pdfrwt>
<pdfrwt beam="2">  1       -2 0.20216913E-02 0.23415269E+03</pdfrwt>
<totfact> 0.18603904E+04</totfact>
</mgrwt>
</event>
<event>
 4    1  0.6148427E-004  0.2622042E+03  0.7818608E-02  0.1105826E+00
          2   -1    0    0  501    0  0.00000000000E+00  0.00000000000E+00  0.12507848696E+04  0.12507848696E+04  0.25500000000E-02 0.  1.
         -2   -1    0    0    0  501 -0.00000000000E+00 -0.00000000000E+00 -0.13741580363E+02  0.13741580600E+02  0.25500000000E-02 0. -1.
    5000001    1    1    2    0    0  0.91402313081E+02 -0.18843955592E+02  0.37502255967E+03  0.39405633831E+03  0.77000000000E+02 0.  0.
   -5000001    1    1    2    0    0 -0.91402313081E+02  0.18843955592E+02  0.86202072954E+03  0.87047011187E+03  0.77000000000E+02 0.  0.
<mgrwt>
<rscale>  0 0.26220420E+03</rscale>
<asrwt>0</asrwt>
<pdfrwt beam="1">  1        2 0.19242845E+00 0.26220420E+03</pdfrwt>
<pdfrwt beam="2">  1       -2 0.21140892E-02 0.26220420E+03</pdfrwt>
<totfact> 0.13280430E+04</totfact>
</mgrwt>
</event>
<event>
 4    1  0.6148427E-004  0.2227356E+03  0.7818608E-02  0.1131860E+00
          2   -1    0    0  501    0  0.00000000000E+00  0.00000000000E+00  0.16416352537E+04  0.16416352537E+04  0.25500000000E-02 0.  1.
         -2   -1    0    0    0  501 -0.00000000000E+00 -0.00000000000E+00 -0.75551446327E+01  0.75551450631E+01  0.25500000000E-02 0. -1.
    5000001    1    1    2    0    0 -0.16993301897E+02  0.78553825907E+02  0.84505539040E+03  0.85235385183E+03  0.77000000000E+02 0.  0.
   -5000001    1    1    2    0    0  0.16993301897E+02 -0.78553825907E+02  0.78902471865E+03  0.79683654693E+03  0.77000000000E+02 0.  0.
<mgrwt>
<rscale>  0 0.22273565E+03</rscale>
<asrwt>0</asrwt>
<pdfrwt beam="1">  1        2 0.25255916E+00 0.22273565E+03</pdfrwt>
<pdfrwt beam="2">  1       -2 0.11623305E-02 0.22273565E+03</pdfrwt>
<totfact> 0.19477606E+04</totfact>
</mgrwt>
</event>
<event>
 4    1  0.6148427E-004  0.1756182E+03  0.7818608E-02  0.1172112E+00
         -2   -1    0    0    0  501 -0.00000000000E+00  0.00000000000E+00  0.13749675514E+03  0.13749675516E+03  0.25500000000E-02 0. -1.
          2   -1    0    0  501    0  0.00000000000E+00 -0.00000000000E+00 -0.56077253035E+02  0.56077253093E+02  0.25500000000E-02 0.  1.
    5000001    1    1    2    0    0 -0.15239431986E+02  0.24231982401E+02  0.74897262847E+02  0.11116667325E+03  0.77000000000E+02 0.  0.
   -5000001    1    1    2    0    0  0.15239431986E+02 -0.24231982401E+02  0.65222392551E+01  0.82407335009E+02  0.77000000000E+02 0.  0.
<mgrwt>
<rscale>  0 0.17561823E+03</rscale>
<asrwt>0</asrwt>
<pdfrwt beam="1">  1        2 0.86272698E-02 0.17561823E+03</pdfrwt>
<pdfrwt beam="2">  1       -2 0.21153347E-01 0.17561823E+03</pdfrwt>
<totfact> 0.14048756E+04</totfact>
</mgrwt>
</event>
<event>
 4    1  0.6148427E-004  0.2416076E+03  0.7818608E-02  0.1118726E+00
          2   -1    0    0  501    0  0.00000000000E+00  0.00000000000E+00  0.57759271613E+03  0.57759271613E+03  0.25500000000E-02 0.  1.
         -2   -1    0    0    0  501 -0.00000000000E+00 -0.00000000000E+00 -0.25266184404E+02  0.25266184533E+02  0.25500000000E-02 0. -1.
    5000001    1    1    2    0    0  0.19322815684E+02 -0.86670366899E+02  0.34582534880E+03  0.36525237245E+03  0.77000000000E+02 0.  0.
   -5000001    1    1    2    0    0 -0.19322815684E+02  0.86670366899E+02  0.20650118292E+03  0.23760652822E+03  0.77000000000E+02 0.  0.
<mgrwt>
<rscale>  0 0.24160765E+03</rscale>
<asrwt>0</asrwt>
<pdfrwt beam="1">  1        2 0.88860413E-01 0.24160765E+03</pdfrwt>
<pdfrwt beam="2">  1       -2 0.38871055E-02 0.24160765E+03</pdfrwt>
<totfact> 0.14942084E+04</totfact>
</mgrwt>
</event>
<event>
 4    1  0.6148427E-004  0.2259585E+03  0.7818608E-02  0.1129517E+00
         -2   -1    0    0    0  501 -0.00000000000E+00  0.00000000000E+00  0.81840006496E+02  0.81840006535E+02  0.25500000000E-02 0. -1.
          2   -1    0    0  501    0  0.00000000000E+00 -0.00000000000E+00 -0.15596664547E+03  0.15596664549E+03  0.25500000000E-02 0.  1.
    5000001    1    1    2    0    0 -0.60233636765E+02  0.44940734795E+02 -0.79550552658E+00  0.10759829678E+03  0.77000000000E+02 0.  0.
   -5000001    1    1    2    0    0  0.60233636765E+02 -0.44940734795E+02 -0.73331133447E+02  0.13020835524E+03  0.77000000000E+02 0.  0.
<mgrwt>
<rscale>  0 0.22595850E+03</rscale>
<asrwt>0</asrwt>
<pdfrwt beam="1">  1        2 0.23994868E-01 0.22595850E+03</pdfrwt>
<pdfrwt beam="2">  1       -2 0.12590770E-01 0.22595850E+03</pdfrwt>
<totfact> 0.10069859E+04</totfact>
</mgrwt>
</event>
<event>
 4    1  0.6148427E-004  0.2198180E+03  0.7818608E-02  0.1134019E+00
         -2   -1    0    0    0  501 -0.00000000000E+00  0.00000000000E+00  0.16046325653E+02  0.16046325856E+02  0.25500000000E-02 0. -1.
          2   -1    0    0  501    0  0.00000000000E+00 -0.00000000000E+00 -0.75281930093E+03  0.75281930094E+03  0.25500000000E-02 0.  1.
    5000001    1    1    2    0    0 -0.54744064062E+02  0.46875305369E+02 -0.47657785863E+03  0.48810824838E+03  0.77000000000E+02 0.  0.
   -5000001    1    1    2    0    0  0.54744064062E+02 -0.46875305369E+02 -0.26019511665E+03  0.28075737841E+03  0.77000000000E+02 0.  0.
<mgrwt>
<rscale>  0 0.21981796E+03</rscale>
<asrwt>0</asrwt>
<pdfrwt beam="1">  1        2 0.11581833E+00 0.21981796E+03</pdfrwt>
<pdfrwt beam="2">  1       -2 0.24686661E-02 0.21981796E+03</pdfrwt>
<totfact> 0.21300083E+04</totfact>
</mgrwt>
</event>
<event>
 4    1  0.6148427E-004  0.2444415E+03  0.7818608E-02  0.1116869E+00
         -2   -1    0    0    0  501 -0.00000000000E+00  0.00000000000E+00  0.80713996649E+01  0.80714000677E+01  0.25500000000E-02 0. -1.
          2   -1    0    0  501    0  0.00000000000E+00 -0.00000000000E+00 -0.18507218789E+04  0.18507218789E+04  0.25500000000E-02 0.  1.
    5000001    1    1    2    0    0 -0.15040632903E+01 -0.86240847539E+02 -0.12225503218E+04  0.12280057147E+04  0.77000000000E+02 0.  0.
   -5000001    1    1    2    0    0  0.15040632903E+01  0.86240847539E+02 -0.62010015735E+03  0.63078756419E+03  0.77000000000E+02 0.  0.
<mgrwt>
<rscale>  0 0.24444154E+03</rscale>
<asrwt>0</asrwt>
<pdfrwt beam="1">  1        2 0.28472610E+00 0.24444154E+03</pdfrwt>
<pdfrwt beam="2">  1       -2 0.12417553E-02 0.24444154E+03</pdfrwt>
<totfact> 0.13798591E+04</totfact>
</mgrwt>
</event>
<event>
 4    1  0.6148427E-004  0.2090739E+03  0.7818608E-02  0.1142301E+00
         -2   -1    0    0    0  501 -0.00000000000E+00  0.00000000000E+00  0.13505496433E+03  0.13505496435E+03  0.25500000000E-02 0. -1.
          2   -1    0    0  501    0  0.00000000000E+00 -0.00000000000E+00 -0.80914979014E+02  0.80914979055E+02  0.25500000000E-02 0.  1.
    5000001    1    1    2    0    0  0.12492073521E+02 -0.67579814607E+02  0.44227678055E+02  0.11228611111E+03  0.77000000000E+02 0.  0.
   -5000001    1    1    2    0    0 -0.12492073521E+02  0.67579814607E+02  0.99123072563E+01  0.10368383229E+03  0.77000000000E+02 0.  0.
<mgrwt>
<rscale>  0 0.20907386E+03</rscale>
<asrwt>0</asrwt>
<pdfrwt beam="1">  1        2 0.12448458E-01 0.20907386E+03</pdfrwt>
<pdfrwt beam="2">  1       -2 0.20777687E-01 0.20907386E+03</pdfrwt>
<totfact> 0.93431965E+03</totfact>
</mgrwt>
</event>
<event>
 4    1  0.6148427E-004  0.2388379E+03  0.7818608E-02  0.1120569E+00
          2   -1    0    0  501    0  0.00000000000E+00  0.00000000000E+00  0.50490707416E+02  0.50490707480E+02  0.25500000000E-02 0.  1.
         -2   -1    0    0    0  501 -0.00000000000E+00 -0.00000000000E+00 -0.28244575781E+03  0.28244575782E+03  0.25500000000E-02 0. -1.
    5000001    1    1    2    0    0 -0.75368526182E+02  0.49302303139E+02 -0.13668907970E+03  0.18089786163E+03  0.77000000000E+02 0.  0.
   -5000001    1    1    2    0    0  0.75368526182E+02 -0.49302303139E+02 -0.95265970693E+02  0.15203860367E+03  0.77000000000E+02 0.  0.
<mgrwt>
<rscale>  0 0.23883790E+03</rscale>
<asrwt>0</asrwt>
<pdfrwt beam="1">  1        2 0.77678013E-02 0.23883790E+03</pdfrwt>
<pdfrwt beam="2">  1       -2 0.43453193E-01 0.23883790E+03</pdfrwt>
<totfact> 0.44233911E+03</totfact>
</mgrwt>
</event>
<event>
 4    1  0.6148427E-004  0.2698666E+03  0.7818608E-02  0.1101356E+00
          2   -1    0    0  501    0  0.00000000000E+00  0.00000000000E+00  0.89329427937E+03  0.89329427937E+03  0.25500000000E-02 0.  1.
         -2   -1    0    0    0  501 -0.00000000000E+00 -0.00000000000E+00 -0.20381856080E+02  0.20381856240E+02  0.25500000000E-02 0. -1.
    5000001    1    1    2    0    0  0.45335441113E+02 -0.80601543042E+02  0.22978999159E+03  0.25939227282E+03  0.77000000000E+02 0.  0.
   -5000001    1    1    2    0    0 -0.45335441113E+02  0.80601543042E+02  0.64312243169E+03  0.65428386279E+03  0.77000000000E+02 0.  0.
<mgrwt>
<rscale>  0 0.26986660E+03</rscale>
<asrwt>0</asrwt>
<pdfrwt beam="1">  1        2 0.13742988E+00 0.26986660E+03</pdfrwt>
<pdfrwt beam="2">  1       -2 0.31356704E-02 0.26986660E+03</pdfrwt>
<totfact> 0.12118426E+04</totfact>
</mgrwt>
</event>
<event>
 4    1  0.6148427E-004  0.2712157E+03  0.7818608E-02  0.1100586E+00
         -2   -1    0    0    0  501 -0.00000000000E+00  0.00000000000E+00  0.79880302942E+03  0.79880302942E+03  0.25500000000E-02 0. -1.
          2   -1    0    0  501    0  0.00000000000E+00 -0.00000000000E+00 -0.23021306645E+02  0.23021306786E+02  0.25500000000E-02 0.  1.
    5000001    1    1    2    0    0  0.61762310319E+02 -0.65344645039E+02  0.18744272429E+03  0.22169411472E+03  0.77000000000E+02 0.  0.
   -5000001    1    1    2    0    0 -0.61762310319E+02  0.65344645039E+02  0.58833899848E+03  0.60013022149E+03  0.77000000000E+02 0.  0.
<mgrwt>
<rscale>  0 0.27121570E+03</rscale>
<asrwt>0</asrwt>
<pdfrwt beam="1">  1        2 0.35417391E-02 0.27121570E+03</pdfrwt>
<pdfrwt beam="2">  1       -2 0.12289279E+00 0.27121570E+03</pdfrwt>
<totfact> 0.13081771E+03</totfact>
</mgrwt>
</event>
<event>
 4    1  0.6148427E-004  0.5545956E+03  0.7818608E-02  0.1000436E+00
          2   -1    0    0  501    0  0.00000000000E+00  0.00000000000E+00  0.45810861682E+03  0.45810861683E+03  0.25500000000E-02 0.  1.
         -2   -1    0    0    0  501 -0.00000000000E+00 -0.00000000000E+00 -0.16785118264E+03  0.16785118266E+03  0.25500000000E-02 0. -1.
    5000001    1    1    2    0    0  0.18680287033E+03 -0.17237415263E+03  0.55138951067E+02  0.27125166319E+03  0.77000000000E+02 0.  0.
   -5000001    1    1    2    0    0 -0.18680287033E+03  0.17237415263E+03  0.23511848311E+03  0.35470813630E+03  0.77000000000E+02 0.  0.
<mgrwt>
<rscale>  0 0.55459561E+03</rscale>
<asrwt>0</asrwt>
<pdfrwt beam="1">  1        2 0.70478248E-01 0.55459561E+03</pdfrwt>
<pdfrwt beam="2">  1       -2 0.25823259E-01 0.55459561E+03</pdfrwt>
<totfact> 0.92393505E+02</totfact>
</mgrwt>
</event>
<event>
 4    1  0.6148427E-004  0.2096709E+03  0.7818608E-02  0.1141827E+00
          2   -1    0    0  501    0  0.00000000000E+00  0.00000000000E+00  0.67697321620E+01  0.67697326422E+01  0.25500000000E-02 0.  1.
         -2   -1    0    0    0  501 -0.00000000000E+00 -0.00000000000E+00 -0.16234727341E+04  0.16234727341E+04  0.25500000000E-02 0. -1.
    5000001    1    1    2    0    0  0.36069324004E+02  0.58255092548E+02 -0.95726800999E+03  0.96280096328E+03  0.77000000000E+02 0.  0.
   -5000001    1    1    2    0    0 -0.36069324004E+02 -0.58255092548E+02 -0.65943499196E+03  0.66744150348E+03  0.77000000000E+02 0.  0.
<mgrwt>
<rscale>  0 0.20967094E+03</rscale>
<asrwt>0</asrwt>
<pdfrwt beam="1">  1        2 0.10414986E-02 0.20967094E+03</pdfrwt>
<pdfrwt beam="2">  1       -2 0.24976473E+00 0.20967094E+03</pdfrwt>
<totfact> 0.97234777E+02</totfact>
</mgrwt>
</event>
<event>
 4    1  0.6148427E-004  0.2341833E+03  0.7818608E-02  0.1123730E+00
         -2   -1    0    0    0  501 -0.00000000000E+00  0.00000000000E+00  0.10438604492E+02  0.10438604804E+02  0.25500000000E-02 0. -1.
          2   -1    0    0  501    0  0.00000000000E+00 -0.00000000000E+00 -0.13134376698E+04  0.13134376698E+04  0.25500000000E-02 0.  1.
    5000001    1    1    2    0    0 -0.60281047017E+02 -0.63838603552E+02 -0.60343613812E+03  0.61463269090E+03  0.77000000000E+02 0.  0.
   -5000001    1    1    2    0    0  0.60281047017E+02  0.63838603552E+02 -0.69956292715E+03  0.70924358367E+03  0.77000000000E+02 0.  0.
<mgrwt>
<rscale>  0 0.23418332E+03</rscale>
<asrwt>0</asrwt>
<pdfrwt beam="1">  1        2 0.20206720E+00 0.23418332E+03</pdfrwt>
<pdfrwt beam="2">  1       -2 0.16059402E-02 0.23418332E+03</pdfrwt>
<totfact> 0.18267227E+04</totfact>
</mgrwt>
</event>
<event>
 4    1  0.6148427E-004  0.2593650E+03  0.7818608E-02  0.1107525E+00
         -2   -1    0    0    0  501 -0.00000000000E+00  0.00000000000E+00  0.19142780309E+02  0.19142780479E+02  0.25500000000E-02 0. -1.
          2   -1    0    0  501    0  0.00000000000E+00 -0.00000000000E+00 -0.87853250066E+03  0.87853250066E+03  0.25500000000E-02 0.  1.
    5000001    1    1    2    0    0  0.25711764635E+02 -0.98822228740E+02 -0.50405726845E+03  0.52002851615E+03  0.77000000000E+02 0.  0.
   -5000001    1    1    2    0    0 -0.25711764635E+02  0.98822228740E+02 -0.35533245190E+03  0.37764676499E+03  0.77000000000E+02 0.  0.
<mgrwt>
<rscale>  0 0.25936503E+03</rscale>
<asrwt>0</asrwt>
<pdfrwt beam="1">  1        2 0.13515882E+00 0.25936503E+03</pdfrwt>
<pdfrwt beam="2">  1       -2 0.29450438E-02 0.25936503E+03</pdfrwt>
<totfact> 0.13581213E+04</totfact>
</mgrwt>
</event>
<event>
 4    1  0.6148427E-004  0.2077847E+03  0.7818608E-02  0.1143332E+00
          2   -1    0    0  501    0  0.00000000000E+00  0.00000000000E+00  0.15263718256E+04  0.15263718256E+04  0.25500000000E-02 0.  1.
         -2   -1    0    0    0  501 -0.00000000000E+00 -0.00000000000E+00 -0.70714250922E+01  0.70714255519E+01  0.25500000000E-02 0. -1.
    5000001    1    1    2    0    0 -0.61102737195E+02 -0.28881609696E+02  0.63248070797E+03  0.64072500952E+03  0.77000000000E+02 0.  0.
   -5000001    1    1    2    0    0  0.61102737195E+02  0.28881609696E+02  0.88681969251E+03  0.89271824160E+03  0.77000000000E+02 0.  0.
<mgrwt>
<rscale>  0 0.20778474E+03</rscale>
<asrwt>0</asrwt>
<pdfrwt beam="1">  1        2 0.23482669E+00 0.20778474E+03</pdfrwt>
<pdfrwt beam="2">  1       -2 0.10879104E-02 0.20778474E+03</pdfrwt>
<totfact> 0.24570828E+04</totfact>
</mgrwt>
</event>
<event>
 4    1  0.6148427E-004  0.1998776E+03  0.7818608E-02  0.1149842E+00
          2   -1    0    0  501    0  0.00000000000E+00  0.00000000000E+00  0.10191425291E+03  0.10191425294E+03  0.25500000000E-02 0.  1.
         -2   -1    0    0    0  501 -0.00000000000E+00 -0.00000000000E+00 -0.98001684724E+02  0.98001684758E+02  0.25500000000E-02 0. -1.
    5000001    1    1    2    0    0 -0.29717313790E+02 -0.56193426373E+02  0.61936724616E+01  0.10004089906E+03  0.77000000000E+02 0.  0.
   -5000001    1    1    2    0    0  0.29717313790E+02  0.56193426373E+02 -0.22811042747E+01  0.99875038639E+02  0.77000000000E+02 0.  0.
<mgrwt>
<rscale>  0 0.19987765E+03</rscale>
<asrwt>0</asrwt>
<pdfrwt beam="1">  1        2 0.15679116E-01 0.19987765E+03</pdfrwt>
<pdfrwt beam="2">  1       -2 0.15077182E-01 0.19987765E+03</pdfrwt>
<totfact> 0.12123481E+04</totfact>
</mgrwt>
</event>
<event>
 4    1  0.6148427E-004  0.2734040E+03  0.7818608E-02  0.1099347E+00
         -2   -1    0    0    0  501 -0.00000000000E+00  0.00000000000E+00  0.18932333362E+02  0.18932333533E+02  0.25500000000E-02 0. -1.
          2   -1    0    0  501    0  0.00000000000E+00 -0.00000000000E+00 -0.98706427714E+03  0.98706427714E+03  0.25500000000E-02 0.  1.
    5000001    1    1    2    0    0  0.10671218018E+02 -0.10327607151E+03 -0.64773693330E+03  0.66050886187E+03  0.77000000000E+02 0.  0.
   -5000001    1    1    2    0    0 -0.10671218018E+02  0.10327607151E+03 -0.32039501047E+03  0.34548774881E+03  0.77000000000E+02 0.  0.
<mgrwt>
<rscale>  0 0.27340395E+03</rscale>
<asrwt>0</asrwt>
<pdfrwt beam="1">  1        2 0.15185600E+00 0.27340395E+03</pdfrwt>
<pdfrwt beam="2">  1       -2 0.29126675E-02 0.27340395E+03</pdfrwt>
<totfact> 0.11806123E+04</totfact>
</mgrwt>
</event>
<event>
 4    1  0.6148427E-004  0.1807455E+03  0.7818608E-02  0.1167084E+00
          2   -1    0    0  501    0  0.00000000000E+00  0.00000000000E+00  0.10724225774E+03  0.10724225777E+03  0.25500000000E-02 0.  1.
         -2   -1    0    0    0  501 -0.00000000000E+00 -0.00000000000E+00 -0.76156831500E+02  0.76156831543E+02  0.25500000000E-02 0. -1.
    5000001    1    1    2    0    0  0.58445233750E+01 -0.46758909507E+02  0.19808780943E+02  0.92422626419E+02  0.77000000000E+02 0.  0.
   -5000001    1    1    2    0    0 -0.58445233750E+01  0.46758909507E+02  0.11276645299E+02  0.90976462895E+02  0.77000000000E+02 0.  0.
<mgrwt>
<rscale>  0 0.18074546E+03</rscale>
<asrwt>0</asrwt>
<pdfrwt beam="1">  1        2 0.16498809E-01 0.18074546E+03</pdfrwt>
<pdfrwt beam="2">  1       -2 0.11716436E-01 0.18074546E+03</pdfrwt>
<totfact> 0.17069331E+04</totfact>
</mgrwt>
</event>
<event>
 4    1  0.6148427E-004  0.2441082E+03  0.7818608E-02  0.1117086E+00
          2   -1    0    0  501    0  0.00000000000E+00  0.00000000000E+00  0.71098893990E+03  0.71098893990E+03  0.25500000000E-02 0.  1.
         -2   -1    0    0    0  501 -0.00000000000E+00 -0.00000000000E+00 -0.20952797406E+02  0.20952797561E+02  0.25500000000E-02 0. -1.
    5000001    1    1    2    0    0  0.51061164213E+02 -0.74737152783E+02  0.26152789882E+03  0.28726072888E+03  0.77000000000E+02 0.  0.
   -5000001    1    1    2    0    0 -0.51061164213E+02  0.74737152783E+02  0.42850824368E+03  0.44468100858E+03  0.77000000000E+02 0.  0.
<mgrwt>
<rscale>  0 0.24410823E+03</rscale>
<asrwt>0</asrwt>
<pdfrwt beam="1">  1        2 0.10938292E+00 0.24410823E+03</pdfrwt>
<pdfrwt beam="2">  1       -2 0.32235072E-02 0.24410823E+03</pdfrwt>
<totfact> 0.15477053E+04</totfact>
</mgrwt>
</event>
<event>
 4    1  0.6148427E-004  0.3301124E+03  0.7818608E-02  0.1071087E+00
          2   -1    0    0  501    0  0.00000000000E+00  0.00000000000E+00  0.18147386995E+04  0.18147386995E+04  0.25500000000E-02 0.  1.
         -2   -1    0    0    0  501 -0.00000000000E+00 -0.00000000000E+00 -0.15012379124E+02  0.15012379340E+02  0.25500000000E-02 0. -1.
    5000001    1    1    2    0    0 -0.10017652707E+03  0.96007009436E+01  0.31360660573E+03  0.33823898827E+03  0.77000000000E+02 0.  0.
   -5000001    1    1    2    0    0  0.10017652707E+03 -0.96007009436E+01  0.14861197147E+04  0.14915120906E+04  0.77000000000E+02 0.  0.
<mgrwt>
<rscale>  0 0.33011238E+03</rscale>
<asrwt>0</asrwt>
<pdfrwt beam="1">  1        2 0.27919064E+00 0.33011238E+03</pdfrwt>
<pdfrwt beam="2">  1       -2 0.23095962E-02 0.33011238E+03</pdfrwt>
<totfact> 0.58156295E+03</totfact>
</mgrwt>
</event>
<event>
 4    1  0.6148427E-004  0.4168030E+03  0.7818608E-02  0.1038112E+00
          2   -1    0    0  501    0  0.00000000000E+00  0.00000000000E+00  0.17880573427E+04  0.17880573427E+04  0.25500000000E-02 0.  1.
         -2   -1    0    0    0  501 -0.00000000000E+00 -0.00000000000E+00 -0.24289587451E+02  0.24289587585E+02  0.25500000000E-02 0. -1.
    5000001    1    1    2    0    0  0.14730223970E+03 -0.13081942605E+02  0.33821691863E+03  0.37707926367E+03  0.77000000000E+02 0.  0.
   -5000001    1    1    2    0    0 -0.14730223970E+03  0.13081942605E+02  0.14255508366E+04  0.14352676666E+04  0.77000000000E+02 0.  0.
<mgrwt>
<rscale>  0 0.41680295E+03</rscale>
<asrwt>0</asrwt>
<pdfrwt beam="1">  1        2 0.27508584E+00 0.41680295E+03</pdfrwt>
<pdfrwt beam="2">  1       -2 0.37368583E-02 0.41680295E+03</pdfrwt>
<totfact> 0.29140097E+03</totfact>
</mgrwt>
</event>
<event>
 4    1  0.6148427E-004  0.2825821E+03  0.7818608E-02  0.1094287E+00
          2   -1    0    0  501    0  0.00000000000E+00  0.00000000000E+00  0.11064871172E+04  0.11064871172E+04  0.25500000000E-02 0.  1.
         -2   -1    0    0    0  501 -0.00000000000E+00 -0.00000000000E+00 -0.18041924376E+02  0.18041924557E+02  0.25500000000E-02 0. -1.
    5000001    1    1    2    0    0  0.87519414095E+02 -0.79511281657E+02  0.57304710442E+03  0.59016410907E+03  0.77000000000E+02 0.  0.
   -5000001    1    1    2    0    0 -0.87519414095E+02  0.79511281657E+02  0.51539808839E+03  0.53436493268E+03  0.77000000000E+02 0.  0.
<mgrwt>
<rscale>  0 0.28258207E+03</rscale>
<asrwt>0</asrwt>
<pdfrwt beam="1">  1        2 0.17022880E+00 0.28258207E+03</pdfrwt>
<pdfrwt beam="2">  1       -2 0.27756805E-02 0.28258207E+03</pdfrwt>
<totfact> 0.10762084E+04</totfact>
</mgrwt>
</event>
<event>
 4    1  0.6148427E-004  0.2572312E+03  0.7818608E-02  0.1108818E+00
         -2   -1    0    0    0  501 -0.00000000000E+00  0.00000000000E+00  0.13266951329E+02  0.13266951574E+02  0.25500000000E-02 0. -1.
          2   -1    0    0  501    0  0.00000000000E+00 -0.00000000000E+00 -0.12468558304E+04  0.12468558304E+04  0.25500000000E-02 0.  1.
    5000001    1    1    2    0    0  0.46811542994E+02  0.86475349469E+02 -0.46630741479E+03  0.48274311151E+03  0.77000000000E+02 0.  0.
   -5000001    1    1    2    0    0 -0.46811542994E+02 -0.86475349469E+02 -0.76728146427E+03  0.77737967045E+03  0.77000000000E+02 0.  0.
<mgrwt>
<rscale>  0 0.25723122E+03</rscale>
<asrwt>0</asrwt>
<pdfrwt beam="1">  1        2 0.19182388E+00 0.25723122E+03</pdfrwt>
<pdfrwt beam="2">  1       -2 0.20410704E-02 0.25723122E+03</pdfrwt>
<totfact> 0.14047496E+04</totfact>
</mgrwt>
</event>
<event>
 4    1  0.6148427E-004  0.2109039E+03  0.7818608E-02  0.1140852E+00
         -2   -1    0    0    0  501 -0.00000000000E+00  0.00000000000E+00  0.22713928945E+02  0.22713929088E+02  0.25500000000E-02 0. -1.
          2   -1    0    0  501    0  0.00000000000E+00 -0.00000000000E+00 -0.48957253380E+03  0.48957253381E+03  0.25500000000E-02 0.  1.
    5000001    1    1    2    0    0 -0.61834066423E+02  0.13366256235E+01 -0.14365870891E+03  0.17433319530E+03  0.77000000000E+02 0.  0.
   -5000001    1    1    2    0    0  0.61834066423E+02 -0.13366256235E+01 -0.32319989594E+03  0.33795326759E+03  0.77000000000E+02 0.  0.
<mgrwt>
<rscale>  0 0.21090392E+03</rscale>
<asrwt>0</asrwt>
<pdfrwt beam="1">  1        2 0.75318843E-01 0.21090392E+03</pdfrwt>
<pdfrwt beam="2">  1       -2 0.34944510E-02 0.21090392E+03</pdfrwt>
<totfact> 0.20935314E+04</totfact>
</mgrwt>
</event>
<event>
 4    1  0.6148427E-004  0.2084394E+03  0.7818608E-02  0.1142808E+00
         -2   -1    0    0    0  501 -0.00000000000E+00  0.00000000000E+00  0.52601998286E+02  0.52601998348E+02  0.25500000000E-02 0. -1.
          2   -1    0    0  501    0  0.00000000000E+00 -0.00000000000E+00 -0.20648915530E+03  0.20648915532E+03  0.25500000000E-02 0.  1.
    5000001    1    1    2    0    0  0.67548267275E+02  0.17952615520E+02 -0.85526380006E+02  0.13464333067E+03  0.77000000000E+02 0.  0.
   -5000001    1    1    2    0    0 -0.67548267275E+02 -0.17952615520E+02 -0.68360777008E+02  0.12444782300E+03  0.77000000000E+02 0.  0.
<mgrwt>
<rscale>  0 0.20843936E+03</rscale>
<asrwt>0</asrwt>
<pdfrwt beam="1">  1        2 0.31767562E-01 0.20843936E+03</pdfrwt>
<pdfrwt beam="2">  1       -2 0.80926152E-02 0.20843936E+03</pdfrwt>
<totfact> 0.14822996E+04</totfact>
</mgrwt>
</event>
<event>
 4    1  0.6148427E-004  0.2376310E+03  0.7818608E-02  0.1121381E+00
          2   -1    0    0  501    0  0.00000000000E+00  0.00000000000E+00  0.27935332344E+03  0.27935332345E+03  0.25500000000E-02 0.  1.
         -2   -1    0    0    0  501 -0.00000000000E+00 -0.00000000000E+00 -0.50535027121E+02  0.50535027185E+02  0.25500000000E-02 0. -1.
    5000001    1    1    2    0    0  0.38774520770E+02  0.81709938602E+02  0.11044591531E+03  0.16219518407E+03  0.77000000000E+02 0.  0.
   -5000001    1    1    2    0    0 -0.38774520770E+02 -0.81709938602E+02  0.11837238101E+03  0.16769316657E+03  0.77000000000E+02 0.  0.
<mgrwt>
<rscale>  0 0.23763104E+03</rscale>
<asrwt>0</asrwt>
<pdfrwt beam="1">  1        2 0.42977433E-01 0.23763104E+03</pdfrwt>
<pdfrwt beam="2">  1       -2 0.77746197E-02 0.23763104E+03</pdfrwt>
<totfact> 0.11477375E+04</totfact>
</mgrwt>
</event>
<event>
 4    1  0.6148427E-004  0.1765776E+03  0.7818608E-02  0.1171157E+00
          2   -1    0    0  501    0  0.00000000000E+00  0.00000000000E+00  0.20491536692E+03  0.20491536693E+03  0.25500000000E-02 0.  1.
         -2   -1    0    0    0  501 -0.00000000000E+00 -0.00000000000E+00 -0.38039650592E+02  0.38039650677E+02  0.25500000000E-02 0. -1.
    5000001    1    1    2    0    0 -0.37575628974E+02  0.19021427311E+02  0.70228654978E+02  0.11240465546E+03  0.77000000000E+02 0.  0.
   -5000001    1    1    2    0    0  0.37575628974E+02 -0.19021427311E+02  0.96647061347E+02  0.13055036215E+03  0.77000000000E+02 0.  0.
<mgrwt>
<rscale>  0 0.17657756E+03</rscale>
<asrwt>0</asrwt>
<pdfrwt beam="1">  1        2 0.31525441E-01 0.17657756E+03</pdfrwt>
<pdfrwt beam="2">  1       -2 0.58522540E-02 0.17657756E+03</pdfrwt>
<totfact> 0.24299121E+04</totfact>
</mgrwt>
</event>
<event>
 4    1  0.6148427E-004  0.1792155E+03  0.7818608E-02  0.1168564E+00
         -2   -1    0    0    0  501 -0.00000000000E+00  0.00000000000E+00  0.46862353565E+02  0.46862353634E+02  0.25500000000E-02 0. -1.
          2   -1    0    0  501    0  0.00000000000E+00 -0.00000000000E+00 -0.17134326575E+03  0.17134326576E+03  0.25500000000E-02 0.  1.
    5000001    1    1    2    0    0  0.13912248378E+02 -0.42106210773E+02 -0.76338153513E+02  0.11714519761E+03  0.77000000000E+02 0.  0.
   -5000001    1    1    2    0    0 -0.13912248378E+02  0.42106210773E+02 -0.48142758667E+02  0.10106042179E+03  0.77000000000E+02 0.  0.
<mgrwt>
<rscale>  0 0.17921550E+03</rscale>
<asrwt>0</asrwt>
<pdfrwt beam="1">  1        2 0.26360502E-01 0.17921550E+03</pdfrwt>
<pdfrwt beam="2">  1       -2 0.72095930E-02 0.17921550E+03</pdfrwt>
<totfact> 0.21498551E+04</totfact>
</mgrwt>
</event>
<event>
 4    1  0.6148427E-004  0.2953392E+03  0.7818608E-02  0.1087594E+00
         -2   -1    0    0    0  501 -0.00000000000E+00  0.00000000000E+00  0.87311032552E+01  0.87311036276E+01  0.25500000000E-02 0. -1.
          2   -1    0    0  501    0  0.00000000000E+00 -0.00000000000E+00 -0.24975429523E+04  0.24975429523E+04  0.25500000000E-02 0.  1.
    5000001    1    1    2    0    0  0.49852485699E+02  0.11571144621E+03 -0.12299627275E+04  0.12387944624E+04  0.77000000000E+02 0.  0.
   -5000001    1    1    2    0    0 -0.49852485699E+02 -0.11571144621E+03 -0.12588491216E+04  0.12674795935E+04  0.77000000000E+02 0.  0.
<mgrwt>
<rscale>  0 0.29533917E+03</rscale>
<asrwt>0</asrwt>
<pdfrwt beam="1">  1        2 0.38423681E+00 0.29533917E+03</pdfrwt>
<pdfrwt beam="2">  1       -2 0.13432487E-02 0.29533917E+03</pdfrwt>
<totfact> 0.55765412E+03</totfact>
</mgrwt>
</event>
<event>
 4    1  0.6148427E-004  0.3340456E+03  0.7818608E-02  0.1069361E+00
          2   -1    0    0  501    0  0.00000000000E+00  0.00000000000E+00  0.68145905731E+03  0.68145905732E+03  0.25500000000E-02 0.  1.
         -2   -1    0    0    0  501 -0.00000000000E+00 -0.00000000000E+00 -0.40936606562E+02  0.40936606641E+02  0.25500000000E-02 0. -1.
    5000001    1    1    2    0    0 -0.10038200014E+03  0.95870071512E+02  0.43263154027E+03  0.46083257936E+03  0.77000000000E+02 0.  0.
   -5000001    1    1    2    0    0  0.10038200014E+03 -0.95870071512E+02  0.20789091048E+03  0.26156308459E+03  0.77000000000E+02 0.  0.
<mgrwt>
<rscale>  0 0.33404563E+03</rscale>
<asrwt>0</asrwt>
<pdfrwt beam="1">  1        2 0.10483985E+00 0.33404563E+03</pdfrwt>
<pdfrwt beam="2">  1       -2 0.62979397E-02 0.33404563E+03</pdfrwt>
<totfact> 0.59701477E+03</totfact>
</mgrwt>
</event>
<event>
 4    1  0.6148427E-004  0.3042022E+03  0.7818608E-02  0.1083159E+00
          2   -1    0    0  501    0  0.00000000000E+00  0.00000000000E+00  0.55883323814E+03  0.55883323815E+03  0.25500000000E-02 0.  1.
         -2   -1    0    0    0  501 -0.00000000000E+00 -0.00000000000E+00 -0.41398298116E+02  0.41398298194E+02  0.25500000000E-02 0. -1.
    5000001    1    1    2    0    0  0.11517921852E+03 -0.47449526914E+02  0.33978504521E+03  0.37000079315E+03  0.77000000000E+02 0.  0.
   -5000001    1    1    2    0    0 -0.11517921852E+03  0.47449526914E+02  0.17764989482E+03  0.23023074319E+03  0.77000000000E+02 0.  0.
<mgrwt>
<rscale>  0 0.30420220E+03</rscale>
<asrwt>0</asrwt>
<pdfrwt beam="1">  1        2 0.85974337E-01 0.30420220E+03</pdfrwt>
<pdfrwt beam="2">  1       -2 0.63689695E-02 0.30420220E+03</pdfrwt>
<totfact> 0.73939155E+03</totfact>
</mgrwt>
</event>
<event>
 4    1  0.6148427E-004  0.4721599E+03  0.7818608E-02  0.1021312E+00
         -2   -1    0    0    0  501 -0.00000000000E+00  0.00000000000E+00  0.13559639723E+04  0.13559639723E+04  0.25500000000E-02 0. -1.
          2   -1    0    0  501    0  0.00000000000E+00 -0.00000000000E+00 -0.41102672390E+02  0.41102672469E+02  0.25500000000E-02 0.  1.
    5000001    1    1    2    0    0 -0.17618988313E+03  0.13665278654E+03  0.68516914681E+03  0.72463964750E+03  0.77000000000E+02 0.  0.
   -5000001    1    1    2    0    0  0.17618988313E+03 -0.13665278654E+03  0.62969215312E+03  0.67242699729E+03  0.77000000000E+02 0.  0.
<mgrwt>
<rscale>  0 0.47215990E+03</rscale>
<asrwt>0</asrwt>
<pdfrwt beam="1">  1        2 0.63234884E-02 0.47215990E+03</pdfrwt>
<pdfrwt beam="2">  1       -2 0.20860983E+00 0.47215990E+03</pdfrwt>
<totfact> 0.14564458E+02</totfact>
</mgrwt>
</event>
<event>
 4    1  0.6148427E-004  0.3231829E+03  0.7818608E-02  0.1074194E+00
          2   -1    0    0  501    0  0.00000000000E+00  0.00000000000E+00  0.60739898477E+03  0.60739898478E+03  0.25500000000E-02 0.  1.
         -2   -1    0    0    0  501 -0.00000000000E+00 -0.00000000000E+00 -0.42989534395E+02  0.42989534471E+02  0.25500000000E-02 0. -1.
    5000001    1    1    2    0    0 -0.11164162166E+03 -0.42707013096E+02  0.43671897727E+03  0.45928227242E+03  0.77000000000E+02 0.  0.
   -5000001    1    1    2    0    0  0.11164162166E+03  0.42707013096E+02  0.12769047311E+03  0.19110624683E+03  0.77000000000E+02 0.  0.
<mgrwt>
<rscale>  0 0.32318292E+03</rscale>
<asrwt>0</asrwt>
<pdfrwt beam="1">  1        2 0.93445986E-01 0.32318292E+03</pdfrwt>
<pdfrwt beam="2">  1       -2 0.66137754E-02 0.32318292E+03</pdfrwt>
<totfact> 0.63430611E+03</totfact>
</mgrwt>
</event>
<event>
 4    1  0.6148427E-004  0.1868455E+03  0.7818608E-02  0.1161338E+00
          2   -1    0    0  501    0  0.00000000000E+00  0.00000000000E+00  0.55375394224E+03  0.55375394224E+03  0.25500000000E-02 0.  1.
         -2   -1    0    0    0  501 -0.00000000000E+00 -0.00000000000E+00 -0.15761170784E+02  0.15761170990E+02  0.25500000000E-02 0. -1.
    5000001    1    1    2    0    0 -0.41342302942E+02 -0.92388261458E+01  0.36558980600E+03  0.37600458531E+03  0.77000000000E+02 0.  0.
   -5000001    1    1    2    0    0  0.41342302942E+02  0.92388261458E+01  0.17240296545E+03  0.19351052793E+03  0.77000000000E+02 0.  0.
<mgrwt>
<rscale>  0 0.18684550E+03</rscale>
<asrwt>0</asrwt>
<pdfrwt beam="1">  1        2 0.85192904E-01 0.18684550E+03</pdfrwt>
<pdfrwt beam="2">  1       -2 0.24247958E-02 0.18684550E+03</pdfrwt>
<totfact> 0.31034372E+04</totfact>
</mgrwt>
</event>
<event>
 4    1  0.6148427E-004  0.3211004E+03  0.7818608E-02  0.1075144E+00
          2   -1    0    0  501    0  0.00000000000E+00  0.00000000000E+00  0.41752645992E+03  0.41752645993E+03  0.25500000000E-02 0.  1.
         -2   -1    0    0    0  501 -0.00000000000E+00 -0.00000000000E+00 -0.61735885968E+02  0.61735886020E+02  0.25500000000E-02 0. -1.
    5000001    1    1    2    0    0  0.27109308349E+02 -0.11376511314E+03  0.60655963292E+02  0.15259607285E+03  0.77000000000E+02 0.  0.
   -5000001    1    1    2    0    0 -0.27109308349E+02  0.11376511314E+03  0.29513461067E+03  0.32666627310E+03  0.77000000000E+02 0.  0.
<mgrwt>
<rscale>  0 0.32110040E+03</rscale>
<asrwt>0</asrwt>
<pdfrwt beam="1">  1        2 0.64234842E-01 0.32110040E+03</pdfrwt>
<pdfrwt beam="2">  1       -2 0.94978283E-02 0.32110040E+03</pdfrwt>
<totfact> 0.54905378E+03</totfact>
</mgrwt>
</event>
<event>
 4    1  0.6148427E-004  0.2565125E+03  0.7818608E-02  0.1109257E+00
          2   -1    0    0  501    0  0.00000000000E+00  0.00000000000E+00  0.50126077995E+03  0.50126077996E+03  0.25500000000E-02 0.  1.
         -2   -1    0    0    0  501 -0.00000000000E+00 -0.00000000000E+00 -0.32816572981E+02  0.32816573080E+02  0.25500000000E-02 0. -1.
    5000001    1    1    2    0    0  0.79031342245E+02 -0.64979374619E+02  0.24929216314E+03  0.28025676582E+03  0.77000000000E+02 0.  0.
   -5000001    1    1    2    0    0 -0.79031342245E+02  0.64979374619E+02  0.21915204383E+03  0.25382058722E+03  0.77000000000E+02 0.  0.
<mgrwt>
<rscale>  0 0.25651246E+03</rscale>
<asrwt>0</asrwt>
<pdfrwt beam="1">  1        2 0.77117041E-01 0.25651246E+03</pdfrwt>
<pdfrwt beam="2">  1       -2 0.50487037E-02 0.25651246E+03</pdfrwt>
<totfact> 0.11857275E+04</totfact>
</mgrwt>
</event>
<event>
 4    1  0.6148427E-004  0.3336410E+03  0.7818608E-02  0.1069537E+00
         -2   -1    0    0    0  501 -0.00000000000E+00  0.00000000000E+00  0.60642241562E+02  0.60642241616E+02  0.25500000000E-02 0. -1.
          2   -1    0    0  501    0  0.00000000000E+00 -0.00000000000E+00 -0.45890574186E+03  0.45890574187E+03  0.25500000000E-02 0.  1.
    5000001    1    1    2    0    0 -0.12604672037E+03  0.72084454992E+02 -0.15464552339E+03  0.22567273267E+03  0.77000000000E+02 0.  0.
   -5000001    1    1    2    0    0  0.12604672037E+03 -0.72084454992E+02 -0.24361797691E+03  0.29387525081E+03  0.77000000000E+02 0.  0.
<mgrwt>
<rscale>  0 0.33364096E+03</rscale>
<asrwt>0</asrwt>
<pdfrwt beam="1">  1        2 0.70600881E-01 0.33364096E+03</pdfrwt>
<pdfrwt beam="2">  1       -2 0.93295759E-02 0.33364096E+03</pdfrwt>
<totfact> 0.50938320E+03</totfact>
</mgrwt>
</event>
<event>
 4    1  0.6148427E-004  0.2313995E+03  0.7818608E-02  0.1125659E+00
         -2   -1    0    0    0  501 -0.00000000000E+00  0.00000000000E+00  0.51319522641E+01  0.51319528976E+01  0.25500000000E-02 0. -1.
          2   -1    0    0  501    0  0.00000000000E+00 -0.00000000000E+00 -0.26084487994E+04  0.26084487994E+04  0.25500000000E-02 0.  1.
    5000001    1    1    2    0    0  0.78893737454E+02 -0.35093693593E+02 -0.12871659451E+04  0.12923548117E+04  0.77000000000E+02 0.  0.
   -5000001    1    1    2    0    0 -0.78893737454E+02  0.35093693593E+02 -0.13161509020E+04  0.13212259405E+04  0.77000000000E+02 0.  0.
<mgrwt>
<rscale>  0 0.23139953E+03</rscale>
<asrwt>0</asrwt>
<pdfrwt beam="1">  1        2 0.40129876E+00 0.23139953E+03</pdfrwt>
<pdfrwt beam="2">  1       -2 0.78953325E-03 0.23139953E+03</pdfrwt>
<totfact> 0.10481830E+04</totfact>
</mgrwt>
</event>
<event>
 4    1  0.6148427E-004  0.2386081E+03  0.7818608E-02  0.1120724E+00
          2   -1    0    0  501    0  0.00000000000E+00  0.00000000000E+00  0.18944926366E+03  0.18944926368E+03  0.25500000000E-02 0.  1.
         -2   -1    0    0    0  501 -0.00000000000E+00 -0.00000000000E+00 -0.75130714400E+02  0.75130714443E+02  0.25500000000E-02 0. -1.
    5000001    1    1    2    0    0 -0.11293009384E+01 -0.80480729190E+02  0.97758592644E+01  0.11181677207E+03  0.77000000000E+02 0.  0.
   -5000001    1    1    2    0    0  0.11293009384E+01  0.80480729190E+02  0.10454268999E+03  0.15276320605E+03  0.77000000000E+02 0.  0.
<mgrwt>
<rscale>  0 0.23860812E+03</rscale>
<asrwt>0</asrwt>
<pdfrwt beam="1">  1        2 0.29146040E-01 0.23860812E+03</pdfrwt>
<pdfrwt beam="2">  1       -2 0.11558572E-01 0.23860812E+03</pdfrwt>
<totfact> 0.93451728E+03</totfact>
</mgrwt>
</event>
<event>
 4    1  0.6148427E-004  0.2706203E+03  0.7818608E-02  0.1100925E+00
         -2   -1    0    0    0  501 -0.00000000000E+00  0.00000000000E+00  0.23134895852E+04  0.23134895852E+04  0.25500000000E-02 0. -1.
          2   -1    0    0  501    0  0.00000000000E+00 -0.00000000000E+00 -0.79139496895E+01  0.79139501003E+01  0.25500000000E-02 0.  1.
    5000001    1    1    2    0    0  0.10115495430E+03 -0.44343876957E+02  0.12682376113E+04  0.12753643962E+04  0.77000000000E+02 0.  0.
   -5000001    1    1    2    0    0 -0.10115495430E+03  0.44343876957E+02  0.10373380242E+04  0.10460391391E+04  0.77000000000E+02 0.  0.
<mgrwt>
<rscale>  0 0.27062033E+03</rscale>
<asrwt>0</asrwt>
<pdfrwt beam="1">  1        2 0.12175295E-02 0.27062033E+03</pdfrwt>
<pdfrwt beam="2">  1       -2 0.35592185E+00 0.27062033E+03</pdfrwt>
<totfact> 0.18602976E+02</totfact>
</mgrwt>
</event>
<event>
 4    1  0.6148427E-004  0.7836100E+03  0.7818608E-02  0.9584049E-01
         -2   -1    0    0    0  501 -0.00000000000E+00  0.00000000000E+00  0.40414018086E+03  0.40414018087E+03  0.25500000000E-02 0. -1.
          2   -1    0    0  501    0  0.00000000000E+00 -0.00000000000E+00 -0.37984629759E+03  0.37984629760E+03  0.25500000000E-02 0.  1.
    5000001    1    1    2    0    0 -0.32925353628E+03  0.19790920788E+03  0.14639262244E+02  0.39207047034E+03  0.77000000000E+02 0.  0.
   -5000001    1    1    2    0    0  0.32925353628E+03 -0.19790920788E+03  0.96546210226E+01  0.39191600812E+03  0.77000000000E+02 0.  0.
<mgrwt>
<rscale>  0 0.78360998E+03</rscale>
<asrwt>0</asrwt>
<pdfrwt beam="1">  1        2 0.58437892E-01 0.78360998E+03</pdfrwt>
<pdfrwt beam="2">  1       -2 0.62175412E-01 0.78360998E+03</pdfrwt>
<totfact> 0.20405194E+02</totfact>
</mgrwt>
</event>
<event>
 4    1  0.6148427E-004  0.2577633E+03  0.7818608E-02  0.1108495E+00
          2   -1    0    0  501    0  0.00000000000E+00  0.00000000000E+00  0.81334185819E+03  0.81334185819E+03  0.25500000000E-02 0.  1.
         -2   -1    0    0    0  501 -0.00000000000E+00 -0.00000000000E+00 -0.20422511569E+02  0.20422511728E+02  0.25500000000E-02 0. -1.
    5000001    1    1    2    0    0 -0.10145220213E+03  0.84021529545E+01  0.33874762367E+03  0.36199737296E+03  0.77000000000E+02 0.  0.
   -5000001    1    1    2    0    0  0.10145220213E+03 -0.84021529545E+01  0.45417172295E+03  0.47176699696E+03  0.77000000000E+02 0.  0.
<mgrwt>
<rscale>  0 0.25776333E+03</rscale>
<asrwt>0</asrwt>
<pdfrwt beam="1">  1        2 0.12512949E+00 0.25776333E+03</pdfrwt>
<pdfrwt beam="2">  1       -2 0.31419256E-02 0.25776333E+03</pdfrwt>
<totfact> 0.13631684E+04</totfact>
</mgrwt>
</event>
<event>
 4    1  0.6148427E-004  0.2225641E+03  0.7818608E-02  0.1131986E+00
          2   -1    0    0  501    0  0.00000000000E+00  0.00000000000E+00  0.34757039967E+04  0.34757039967E+04  0.25500000000E-02 0.  1.
         -2   -1    0    0    0  501 -0.00000000000E+00 -0.00000000000E+00 -0.35629315202E+01  0.35629324327E+01  0.25500000000E-02 0. -1.
    5000001    1    1    2    0    0  0.64432895925E+02 -0.47675617750E+02  0.18218855338E+04  0.18252727086E+04  0.77000000000E+02 0.  0.
   -5000001    1    1    2    0    0 -0.64432895925E+02  0.47675617750E+02  0.16502555315E+04  0.16539942206E+04  0.77000000000E+02 0.  0.
<mgrwt>
<rscale>  0 0.22256412E+03</rscale>
<asrwt>0</asrwt>
<pdfrwt beam="1">  1        2 0.53471974E+00 0.22256412E+03</pdfrwt>
<pdfrwt beam="2">  1       -2 0.54814743E-03 0.22256412E+03</pdfrwt>
<totfact> 0.53782507E+03</totfact>
</mgrwt>
</event>
<event>
 4    1  0.6148427E-004  0.2392369E+03  0.7818608E-02  0.1120302E+00
         -2   -1    0    0    0  501 -0.00000000000E+00  0.00000000000E+00  0.12948223712E+02  0.12948223963E+02  0.25500000000E-02 0. -1.
          2   -1    0    0  501    0  0.00000000000E+00 -0.00000000000E+00 -0.11050606471E+04  0.11050606471E+04  0.25500000000E-02 0.  1.
    5000001    1    1    2    0    0  0.40924688230E+02 -0.72654331701E+02 -0.36957817820E+03  0.38661416403E+03  0.77000000000E+02 0.  0.
   -5000001    1    1    2    0    0 -0.40924688230E+02  0.72654331701E+02 -0.72253424520E+03  0.73139470706E+03  0.77000000000E+02 0.  0.
<mgrwt>
<rscale>  0 0.23923689E+03</rscale>
<asrwt>0</asrwt>
<pdfrwt beam="1">  1        2 0.17000926E+00 0.23923689E+03</pdfrwt>
<pdfrwt beam="2">  1       -2 0.19920353E-02 0.23923689E+03</pdfrwt>
<totfact> 0.17491862E+04</totfact>
</mgrwt>
</event>
<event>
 4    1  0.6148427E-004  0.2214230E+03  0.7818608E-02  0.1132827E+00
         -2   -1    0    0    0  501 -0.00000000000E+00  0.00000000000E+00  0.38540564080E+01  0.38540572516E+01  0.25500000000E-02 0. -1.
          2   -1    0    0  501    0  0.00000000000E+00 -0.00000000000E+00 -0.31802936373E+04  0.31802936373E+04  0.25500000000E-02 0.  1.
    5000001    1    1    2    0    0  0.46389254202E+01 -0.63868041493E+02 -0.90953472904E+03  0.91503173151E+03  0.77000000000E+02 0.  0.
   -5000001    1    1    2    0    0 -0.46389254202E+01  0.63868041493E+02 -0.22669048519E+04  0.22691159631E+04  0.77000000000E+02 0.  0.
<mgrwt>
<rscale>  0 0.22142297E+03</rscale>
<asrwt>0</asrwt>
<pdfrwt beam="1">  1        2 0.48927385E+00 0.22142297E+03</pdfrwt>
<pdfrwt beam="2">  1       -2 0.59293436E-03 0.22142297E+03</pdfrwt>
<totfact> 0.73834154E+03</totfact>
</mgrwt>
</event>
<event>
 4    1  0.6148427E-004  0.3786944E+03  0.7818608E-02  0.1051417E+00
          2   -1    0    0  501    0  0.00000000000E+00  0.00000000000E+00  0.51286185421E+03  0.51286185421E+03  0.25500000000E-02 0.  1.
         -2   -1    0    0    0  501 -0.00000000000E+00 -0.00000000000E+00 -0.69906484575E+02  0.69906484622E+02  0.25500000000E-02 0. -1.
    5000001    1    1    2    0    0 -0.26534704608E+02 -0.16942488932E+03  0.25638316796E+03  0.31791541719E+03  0.77000000000E+02 0.  0.
   -5000001    1    1    2    0    0  0.26534704608E+02  0.16942488932E+03  0.18657220167E+03  0.26485292165E+03  0.77000000000E+02 0.  0.
<mgrwt>
<rscale>  0 0.37869444E+03</rscale>
<asrwt>0</asrwt>
<pdfrwt beam="1">  1        2 0.78901824E-01 0.37869444E+03</pdfrwt>
<pdfrwt beam="2">  1       -2 0.10754844E-01 0.37869444E+03</pdfrwt>
<totfact> 0.35894243E+03</totfact>
</mgrwt>
</event>
<event>
 4    1  0.6148427E-004  0.2056307E+03  0.7818608E-02  0.1145073E+00
         -2   -1    0    0    0  501 -0.00000000000E+00  0.00000000000E+00  0.13800859013E+02  0.13800859248E+02  0.25500000000E-02 0. -1.
          2   -1    0    0  501    0  0.00000000000E+00 -0.00000000000E+00 -0.76596684627E+03  0.76596684627E+03  0.25500000000E-02 0.  1.
    5000001    1    1    2    0    0 -0.65264376494E+02  0.17094786979E+01 -0.30219687800E+03  0.31861311058E+03  0.77000000000E+02 0.  0.
   -5000001    1    1    2    0    0  0.65264376494E+02 -0.17094786979E+01 -0.44996910925E+03  0.46115459494E+03  0.77000000000E+02 0.  0.
<mgrwt>
<rscale>  0 0.20563074E+03</rscale>
<asrwt>0</asrwt>
<pdfrwt beam="1">  1        2 0.11784102E+00 0.20563074E+03</pdfrwt>
<pdfrwt beam="2">  1       -2 0.21232097E-02 0.20563074E+03</pdfrwt>
<totfact> 0.25907884E+04</totfact>
</mgrwt>
</event>
<event>
 4    1  0.6148427E-004  0.1901138E+03  0.7818608E-02  0.1158359E+00
         -2   -1    0    0    0  501 -0.00000000000E+00  0.00000000000E+00  0.64292902791E+01  0.64292907848E+01  0.25500000000E-02 0. -1.
          2   -1    0    0  501    0  0.00000000000E+00 -0.00000000000E+00 -0.14054134736E+04  0.14054134736E+04  0.25500000000E-02 0.  1.
    5000001    1    1    2    0    0 -0.55634752475E+02  0.13612435557E+01 -0.72266034761E+03  0.72887862959E+03  0.77000000000E+02 0.  0.
   -5000001    1    1    2    0    0  0.55634752475E+02 -0.13612435557E+01 -0.67632383572E+03  0.68296413480E+03  0.77000000000E+02 0.  0.
<mgrwt>
<rscale>  0 0.19011377E+03</rscale>
<asrwt>0</asrwt>
<pdfrwt beam="1">  1        2 0.21621721E+00 0.19011377E+03</pdfrwt>
<pdfrwt beam="2">  1       -2 0.98912273E-03 0.19011377E+03</pdfrwt>
<totfact> 0.32524690E+04</totfact>
</mgrwt>
</event>
<event>
 4    1  0.6148427E-004  0.3914012E+03  0.7818608E-02  0.1046798E+00
         -2   -1    0    0    0  501 -0.00000000000E+00  0.00000000000E+00  0.47144843183E+03  0.47144843184E+03  0.25500000000E-02 0. -1.
          2   -1    0    0  501    0  0.00000000000E+00 -0.00000000000E+00 -0.81236276362E+02  0.81236276402E+02  0.25500000000E-02 0.  1.
    5000001    1    1    2    0    0 -0.17568562614E+03 -0.15167561923E+02  0.24551155374E+03  0.31193014793E+03  0.77000000000E+02 0.  0.
   -5000001    1    1    2    0    0  0.17568562614E+03  0.15167561923E+02  0.14470060173E+03  0.24075456031E+03  0.77000000000E+02 0.  0.
<mgrwt>
<rscale>  0 0.39140115E+03</rscale>
<asrwt>0</asrwt>
<pdfrwt beam="1">  1        2 0.12497889E-01 0.39140115E+03</pdfrwt>
<pdfrwt beam="2">  1       -2 0.72530527E-01 0.39140115E+03</pdfrwt>
<totfact> 0.86431127E+02</totfact>
</mgrwt>
</event>
<event>
 4    1  0.6148427E-004  0.2596406E+03  0.7818608E-02  0.1107359E+00
          2   -1    0    0  501    0  0.00000000000E+00  0.00000000000E+00  0.93638294661E+03  0.93638294661E+03  0.25500000000E-02 0.  1.
         -2   -1    0    0    0  501 -0.00000000000E+00 -0.00000000000E+00 -0.17998306489E+02  0.17998306669E+02  0.25500000000E-02 0. -1.
    5000001    1    1    2    0    0 -0.19836028296E+02  0.98636263453E+02  0.35511345395E+03  0.37703732661E+03  0.77000000000E+02 0.  0.
   -5000001    1    1    2    0    0  0.19836028296E+02 -0.98636263453E+02  0.56327118618E+03  0.57734392667E+03  0.77000000000E+02 0.  0.
<mgrwt>
<rscale>  0 0.25964058E+03</rscale>
<asrwt>0</asrwt>
<pdfrwt beam="1">  1        2 0.14405894E+00 0.25964058E+03</pdfrwt>
<pdfrwt beam="2">  1       -2 0.27689698E-02 0.25964058E+03</pdfrwt>
<totfact> 0.13662974E+04</totfact>
</mgrwt>
</event>
<event>
 4    1  0.6148427E-004  0.2307003E+03  0.7818608E-02  0.1126148E+00
          2   -1    0    0  501    0  0.00000000000E+00  0.00000000000E+00  0.51655935440E+02  0.51655935503E+02  0.25500000000E-02 0.  1.
         -2   -1    0    0    0  501 -0.00000000000E+00 -0.00000000000E+00 -0.25758239155E+03  0.25758239157E+03  0.25500000000E-02 0. -1.
    5000001    1    1    2    0    0  0.81388419660E+02  0.21166140090E+02 -0.79569731526E+02  0.13904108212E+03  0.77000000000E+02 0.  0.
   -5000001    1    1    2    0    0 -0.81388419660E+02 -0.21166140090E+02 -0.12635672459E+03  0.17019724495E+03  0.77000000000E+02 0.  0.
<mgrwt>
<rscale>  0 0.23070032E+03</rscale>
<asrwt>0</asrwt>
<pdfrwt beam="1">  1        2 0.79470672E-02 0.23070032E+03</pdfrwt>
<pdfrwt beam="2">  1       -2 0.39628059E-01 0.23070032E+03</pdfrwt>
<totfact> 0.51204154E+03</totfact>
</mgrwt>
</event>
<event>
 4    1  0.6148427E-004  0.1901889E+03  0.7818608E-02  0.1158291E+00
          2   -1    0    0  501    0  0.00000000000E+00  0.00000000000E+00  0.18081137063E+03  0.18081137065E+03  0.25500000000E-02 0.  1.
         -2   -1    0    0    0  501 -0.00000000000E+00 -0.00000000000E+00 -0.50013171564E+02  0.50013171629E+02  0.25500000000E-02 0. -1.
    5000001    1    1    2    0    0  0.10328648769E+02  0.52124417570E+02  0.86078172805E+02  0.12713019990E+03  0.77000000000E+02 0.  0.
   -5000001    1    1    2    0    0 -0.10328648769E+02 -0.52124417570E+02  0.44720026260E+02  0.10369434238E+03  0.77000000000E+02 0.  0.
<mgrwt>
<rscale>  0 0.19018885E+03</rscale>
<asrwt>0</asrwt>
<pdfrwt beam="1">  1        2 0.27817134E-01 0.19018885E+03</pdfrwt>
<pdfrwt beam="2">  1       -2 0.76943341E-02 0.19018885E+03</pdfrwt>
<totfact> 0.18413485E+04</totfact>
</mgrwt>
</event>
<event>
 4    1  0.6148427E-004  0.1705277E+03  0.7818608E-02  0.1177299E+00
          2   -1    0    0  501    0  0.00000000000E+00  0.00000000000E+00  0.42262843698E+04  0.42262843698E+04  0.25500000000E-02 0.  1.
         -2   -1    0    0    0  501 -0.00000000000E+00 -0.00000000000E+00 -0.17201673857E+01  0.17201692758E+01  0.25500000000E-02 0. -1.
    5000001    1    1    2    0    0 -0.31739279139E+02 -0.17829738506E+02  0.22103319077E+04  0.22119722927E+04  0.77000000000E+02 0.  0.
   -5000001    1    1    2    0    0  0.31739279139E+02  0.17829738506E+02  0.20142322948E+04  0.20160322465E+04  0.77000000000E+02 0.  0.
<mgrwt>
<rscale>  0 0.17052766E+03</rscale>
<asrwt>0</asrwt>
<pdfrwt beam="1">  1        2 0.65019585E+00 0.17052766E+03</pdfrwt>
<pdfrwt beam="2">  1       -2 0.26464199E-03 0.17052766E+03</pdfrwt>
<totfact> 0.43375862E+03</totfact>
</mgrwt>
</event>
<event>
 4    1  0.6148427E-004  0.3567386E+03  0.7818608E-02  0.1059883E+00
          2   -1    0    0  501    0  0.00000000000E+00  0.00000000000E+00  0.14904043320E+03  0.14904043322E+03  0.25500000000E-02 0.  1.
         -2   -1    0    0    0  501 -0.00000000000E+00 -0.00000000000E+00 -0.21346963963E+03  0.21346963964E+03  0.25500000000E-02 0. -1.
    5000001    1    1    2    0    0 -0.34034469263E+02 -0.15234462135E+03 -0.71824435725E+02  0.18829492378E+03  0.77000000000E+02 0.  0.
   -5000001    1    1    2    0    0  0.34034469263E+02  0.15234462135E+03  0.73952292925E+01  0.17421514908E+03  0.77000000000E+02 0.  0.
<mgrwt>
<rscale>  0 0.35673860E+03</rscale>
<asrwt>0</asrwt>
<pdfrwt beam="1">  1        2 0.22929297E-01 0.35673860E+03</pdfrwt>
<pdfrwt beam="2">  1       -2 0.32841483E-01 0.35673860E+03</pdfrwt>
<totfact> 0.20638250E+03</totfact>
</mgrwt>
</event>
<event>
 4    1  0.6148427E-004  0.3184400E+03  0.7818608E-02  0.1076370E+00
          2   -1    0    0  501    0  0.00000000000E+00  0.00000000000E+00  0.22957053231E+04  0.22957053231E+04  0.25500000000E-02 0. -1.
         -2   -1    0    0    0  501 -0.00000000000E+00 -0.00000000000E+00 -0.11042796262E+02  0.11042796556E+02  0.25500000000E-02 0.  1.
    5000001    1    1    2    0    0  0.14336530343E+01  0.13793832616E+03  0.12859304227E+04  0.12955983518E+04  0.77000000000E+02 0.  0.
   -5000001    1    1    2    0    0 -0.14336530343E+01 -0.13793832616E+03  0.99873210421E+03  0.10111497679E+04  0.77000000000E+02 0.  0.
<mgrwt>
<rscale>  0 0.31843999E+03</rscale>
<asrwt>0</asrwt>
<pdfrwt beam="1">  1        2 0.35318511E+00 0.31843999E+03</pdfrwt>
<pdfrwt beam="2">  1       -2 0.16988933E-02 0.31843999E+03</pdfrwt>
<totfact> 0.50830507E+03</totfact>
</mgrwt>
</event>
<event>
 4    1  0.6148427E-004  0.2107228E+03  0.7818608E-02  0.1140995E+00
          2   -1    0    0  501    0  0.00000000000E+00  0.00000000000E+00  0.63145538548E+03  0.63145538548E+03  0.25500000000E-02 0.  1.
         -2   -1    0    0    0  501 -0.00000000000E+00 -0.00000000000E+00 -0.17580062921E+02  0.17580063106E+02  0.25500000000E-02 0. -1.
    5000001    1    1    2    0    0 -0.31686545705E+02 -0.24095448268E+02  0.49141653255E+03  0.49900284195E+03  0.77000000000E+02 0.  0.
   -5000001    1    1    2    0    0  0.31686545705E+02  0.24095448268E+02  0.12245879000E+03  0.15003260664E+03  0.77000000000E+02 0.  0.
<mgrwt>
<rscale>  0 0.21072281E+03</rscale>
<asrwt>0</asrwt>
<pdfrwt beam="1">  1        2 0.97146972E-01 0.21072281E+03</pdfrwt>
<pdfrwt beam="2">  1       -2 0.27046254E-02 0.21072281E+03</pdfrwt>
<totfact> 0.22929343E+04</totfact>
</mgrwt>
</event>
<event>
 4    1  0.6148427E-004  0.3772545E+03  0.7818608E-02  0.1051953E+00
          2   -1    0    0  501    0  0.00000000000E+00  0.00000000000E+00  0.12196976737E+04  0.12196976737E+04  0.25500000000E-02 0.  1.
         -2   -1    0    0    0  501 -0.00000000000E+00 -0.00000000000E+00 -0.29171364201E+02  0.29171364312E+02  0.25500000000E-02 0. -1.
    5000001    1    1    2    0    0  0.11790811039E+03 -0.11855469990E+03  0.73150214550E+03  0.75430890770E+03  0.77000000000E+02 0.  0.
   -5000001    1    1    2    0    0 -0.11790811039E+03  0.11855469990E+03  0.45902416400E+03  0.49456013032E+03  0.77000000000E+02 0.  0.
<mgrwt>
<rscale>  0 0.37725453E+03</rscale>
<asrwt>0</asrwt>
<pdfrwt beam="1">  1        2 0.18764575E+00 0.37725453E+03</pdfrwt>
<pdfrwt beam="2">  1       -2 0.44879032E-02 0.37725453E+03</pdfrwt>
<totfact> 0.45115530E+03</totfact>
</mgrwt>
</event>
<event>
 4    1  0.6148427E-004  0.3403319E+03  0.7818608E-02  0.1066655E+00
         -2   -1    0    0    0  501 -0.00000000000E+00  0.00000000000E+00  0.44103394252E+02  0.44103394326E+02  0.25500000000E-02 0. -1.
          2   -1    0    0  501    0  0.00000000000E+00 -0.00000000000E+00 -0.65655814883E+03  0.65655814884E+03  0.25500000000E-02 0.  1.
    5000001    1    1    2    0    0  0.87387865268E+02 -0.11078650265E+03 -0.42117099494E+03  0.45080405404E+03  0.77000000000E+02 0.  0.
   -5000001    1    1    2    0    0 -0.87387865268E+02  0.11078650265E+03 -0.19128375965E+03  0.24985748912E+03  0.77000000000E+02 0.  0.
<mgrwt>
<rscale>  0 0.34033186E+03</rscale>
<asrwt>0</asrwt>
<pdfrwt beam="1">  1        2 0.10100894E+00 0.34033186E+03</pdfrwt>
<pdfrwt beam="2">  1       -2 0.67851380E-02 0.34033186E+03</pdfrwt>
<totfact> 0.55653972E+03</totfact>
</mgrwt>
</event>
<event>
 4    1  0.6148427E-004  0.2052392E+03  0.7818608E-02  0.1145392E+00
          2   -1    0    0  501    0  0.00000000000E+00  0.00000000000E+00  0.66005458618E+03  0.66005458619E+03  0.25500000000E-02 0.  1.
         -2   -1    0    0    0  501 -0.00000000000E+00 -0.00000000000E+00 -0.15954416731E+02  0.15954416934E+02  0.25500000000E-02 0. -1.
    5000001    1    1    2    0    0  0.24253595162E+02  0.21033185086E+02  0.51888239735E+03  0.52554597709E+03  0.77000000000E+02 0.  0.
   -5000001    1    1    2    0    0 -0.24253595162E+02 -0.21033185086E+02  0.12521777210E+03  0.15046302603E+03  0.77000000000E+02 0.  0.
<mgrwt>
<rscale>  0 0.20523924E+03</rscale>
<asrwt>0</asrwt>
<pdfrwt beam="1">  1        2 0.10154685E+00 0.20523924E+03</pdfrwt>
<pdfrwt beam="2">  1       -2 0.24545259E-02 0.20523924E+03</pdfrwt>
<totfact> 0.25067870E+04</totfact>
</mgrwt>
</event>
<event>
 4    1  0.6148427E-004  0.5819881E+03  0.7818608E-02  0.9943496E-01
          2   -1    0    0  501    0  0.00000000000E+00  0.00000000000E+00  0.22549084835E+04  0.22549084835E+04  0.25500000000E-02 0.  1.
         -2   -1    0    0    0  501 -0.00000000000E+00 -0.00000000000E+00 -0.37552539736E+02  0.37552539823E+02  0.25500000000E-02 0. -1.
    5000001    1    1    2    0    0 -0.26363271160E+03 -0.91549111559E+02  0.12245342349E+04  0.12582911185E+04  0.77000000000E+02 0.  0.
   -5000001    1    1    2    0    0  0.26363271160E+03  0.91549111559E+02  0.99282170881E+03  0.10341699048E+04  0.77000000000E+02 0.  0.
<mgrwt>
<rscale>  0 0.58198811E+03</rscale>
<asrwt>0</asrwt>
<pdfrwt beam="1">  1        2 0.34690906E+00 0.58198811E+03</pdfrwt>
<pdfrwt beam="2">  1       -2 0.57773129E-02 0.58198811E+03</pdfrwt>
<totfact> 0.82629834E+02</totfact>
</mgrwt>
</event>
<event>
 4    1  0.6148427E-004  0.4439222E+03  0.7818608E-02  0.1029550E+00
          2   -1    0    0  501    0  0.00000000000E+00  0.00000000000E+00  0.17449376260E+04  0.17449376260E+04  0.25500000000E-02 0.  1.
         -2   -1    0    0    0  501 -0.00000000000E+00 -0.00000000000E+00 -0.28234094310E+02  0.28234094425E+02  0.25500000000E-02 0. -1.
    5000001    1    1    2    0    0  0.15556854692E+03  0.13453978217E+03  0.98686791049E+03  0.10110092970E+04  0.77000000000E+02 0.  0.
   -5000001    1    1    2    0    0 -0.15556854692E+03 -0.13453978217E+03  0.72983562122E+03  0.76216242349E+03  0.77000000000E+02 0.  0.
<mgrwt>
<rscale>  0 0.44392222E+03</rscale>
<asrwt>0</asrwt>
<pdfrwt beam="1">  1        2 0.26845191E+00 0.44392222E+03</pdfrwt>
<pdfrwt beam="2">  1       -2 0.43437073E-02 0.44392222E+03</pdfrwt>
<totfact> 0.24409114E+03</totfact>
</mgrwt>
</event>
<event>
 4    1  0.6148427E-004  0.1996636E+03  0.7818608E-02  0.1150023E+00
          2   -1    0    0  501    0  0.00000000000E+00  0.00000000000E+00  0.28700956416E+03  0.28700956417E+03  0.25500000000E-02 0.  1.
         -2   -1    0    0    0  501 -0.00000000000E+00 -0.00000000000E+00 -0.34724920640E+02  0.34724920733E+02  0.25500000000E-02 0. -1.
    5000001    1    1    2    0    0 -0.16766272070E+02 -0.57621717452E+02  0.15978953458E+03  0.18725134329E+03  0.77000000000E+02 0.  0.
   -5000001    1    1    2    0    0  0.16766272070E+02  0.57621717452E+02  0.92495108937E+02  0.13448314161E+03  0.77000000000E+02 0.  0.
<mgrwt>
<rscale>  0 0.19966356E+03</rscale>
<asrwt>0</asrwt>
<pdfrwt beam="1">  1        2 0.44155318E-01 0.19966356E+03</pdfrwt>
<pdfrwt beam="2">  1       -2 0.53422954E-02 0.19966356E+03</pdfrwt>
<totfact> 0.19620136E+04</totfact>
</mgrwt>
</event>
<event>
 4    1  0.6148427E-004  0.3064046E+03  0.7818608E-02  0.1082082E+00
         -2   -1    0    0    0  501 -0.00000000000E+00  0.00000000000E+00  0.21180381865E+02  0.21180382018E+02  0.25500000000E-02 0. -1.
          2   -1    0    0  501    0  0.00000000000E+00 -0.00000000000E+00 -0.11081454362E+04  0.11081454362E+04  0.25500000000E-02 0.  1.
    5000001    1    1    2    0    0 -0.61439952495E+02  0.68678575862E+02 -0.19284679544E+03  0.22717944682E+03  0.77000000000E+02 0.  0.
   -5000001    1    1    2    0    0  0.61439952495E+02 -0.68678575862E+02 -0.89411825886E+03  0.90214637136E+03  0.77000000000E+02 0.  0.
<mgrwt>
<rscale>  0 0.30640459E+03</rscale>
<asrwt>0</asrwt>
<pdfrwt beam="1">  1        2 0.17048387E+00 0.30640459E+03</pdfrwt>
<pdfrwt beam="2">  1       -2 0.32585212E-02 0.30640459E+03</pdfrwt>
<totfact> 0.84699929E+03</totfact>
</mgrwt>
</event>
<event>
 4    1  0.6148427E-004  0.2666217E+03  0.7818608E-02  0.1103229E+00
         -2   -1    0    0    0  501 -0.00000000000E+00  0.00000000000E+00  0.19681209619E+02  0.19681209784E+02  0.25500000000E-02 0. -1.
          2   -1    0    0  501    0  0.00000000000E+00 -0.00000000000E+00 -0.90298228167E+03  0.90298228167E+03  0.25500000000E-02 0.  1.
    5000001    1    1    2    0    0  0.55143628779E+02 -0.79736066674E+02 -0.27056653137E+03  0.29754648044E+03  0.77000000000E+02 0.  0.
   -5000001    1    1    2    0    0 -0.55143628779E+02  0.79736066674E+02 -0.61273454068E+03  0.62511701102E+03  0.77000000000E+02 0.  0.
<mgrwt>
<rscale>  0 0.26662171E+03</rscale>
<asrwt>0</asrwt>
<pdfrwt beam="1">  1        2 0.13892032E+00 0.26662171E+03</pdfrwt>
<pdfrwt beam="2">  1       -2 0.30278791E-02 0.26662171E+03</pdfrwt>
<totfact> 0.12578196E+04</totfact>
</mgrwt>
</event>
<event>
 4    1  0.6148427E-004  0.1998960E+03  0.7818608E-02  0.1149827E+00
         -2   -1    0    0    0  501 -0.00000000000E+00  0.00000000000E+00  0.11547892842E+02  0.11547893123E+02  0.25500000000E-02 0. -1.
          2   -1    0    0  501    0  0.00000000000E+00 -0.00000000000E+00 -0.86505868026E+03  0.86505868026E+03  0.25500000000E-02 0.  1.
    5000001    1    1    2    0    0 -0.58321128239E+02  0.19798766988E+02 -0.49844685999E+03  0.50810591161E+03  0.77000000000E+02 0.  0.
   -5000001    1    1    2    0    0  0.58321128239E+02 -0.19798766988E+02 -0.35506392742E+03  0.36850066178E+03  0.77000000000E+02 0.  0.
<mgrwt>
<rscale>  0 0.19989602E+03</rscale>
<asrwt>0</asrwt>
<pdfrwt beam="1">  1        2 0.13308590E+00 0.19989602E+03</pdfrwt>
<pdfrwt beam="2">  1       -2 0.17765996E-02 0.19989602E+03</pdfrwt>
<totfact> 0.28748908E+04</totfact>
</mgrwt>
</event>
<event>
 4    1  0.6148427E-004  0.1686828E+03  0.7818608E-02  0.1179228E+00
         -2   -1    0    0    0  501 -0.00000000000E+00  0.00000000000E+00  0.22444919253E+02  0.22444919398E+02  0.25500000000E-02 0. -1.
          2   -1    0    0  501    0  0.00000000000E+00 -0.00000000000E+00 -0.31693016015E+03  0.31693016016E+03  0.25500000000E-02 0.  1.
    5000001    1    1    2    0    0 -0.24776715376E+02 -0.84797775843E+01 -0.19217091739E+03  0.20867307862E+03  0.77000000000E+02 0.  0.
   -5000001    1    1    2    0    0  0.24776715376E+02  0.84797775843E+01 -0.10231432351E+03  0.13070200093E+03  0.77000000000E+02 0.  0.
<mgrwt>
<rscale>  0 0.16868280E+03</rscale>
<asrwt>0</asrwt>
<pdfrwt beam="1">  1        2 0.48758483E-01 0.16868280E+03</pdfrwt>
<pdfrwt beam="2">  1       -2 0.34530647E-02 0.16868280E+03</pdfrwt>
<totfact> 0.33479336E+04</totfact>
</mgrwt>
</event>
<event>
 4    1  0.6148427E-004  0.6257150E+03  0.7818608E-02  0.9853447E-01
         -2   -1    0    0    0  501 -0.00000000000E+00  0.00000000000E+00  0.92362330225E+02  0.92362330261E+02  0.25500000000E-02 0. -1.
          2   -1    0    0  501    0  0.00000000000E+00 -0.00000000000E+00 -0.10597373997E+04  0.10597373997E+04  0.25500000000E-02 0.  1.
    5000001    1    1    2    0    0  0.25502085484E+01 -0.23176536999E+03 -0.12368074727E+03  0.27376562519E+03  0.77000000000E+02 0.  0.
   -5000001    1    1    2    0    0 -0.25502085484E+01  0.23176536999E+03 -0.84369432219E+03  0.87833410476E+03  0.77000000000E+02 0.  0.
<mgrwt>
<rscale>  0 0.62571500E+03</rscale>
<asrwt>0</asrwt>
<pdfrwt beam="1">  1        2 0.16303651E+00 0.62571500E+03</pdfrwt>
<pdfrwt beam="2">  1       -2 0.14209590E-01 0.62571500E+03</pdfrwt>
<totfact> 0.89385500E+02</totfact>
</mgrwt>
</event>
<event>
 4    1  0.6148427E-004  0.2930071E+03  0.7818608E-02  0.1088789E+00
         -2   -1    0    0    0  501 -0.00000000000E+00  0.00000000000E+00  0.40986000297E+02  0.40986000377E+02  0.25500000000E-02 0. -1.
          2   -1    0    0  501    0  0.00000000000E+00 -0.00000000000E+00 -0.52367381083E+03  0.52367381083E+03  0.25500000000E-02 0.  1.
    5000001    1    1    2    0    0 -0.73039307216E+02  0.10045742292E+03 -0.22132960321E+03  0.26522109169E+03  0.77000000000E+02 0.  0.
   -5000001    1    1    2    0    0  0.73039307216E+02 -0.10045742292E+03 -0.26135820732E+03  0.29943871953E+03  0.77000000000E+02 0.  0.
<mgrwt>
<rscale>  0 0.29300713E+03</rscale>
<asrwt>0</asrwt>
<pdfrwt beam="1">  1        2 0.80565196E-01 0.29300713E+03</pdfrwt>
<pdfrwt beam="2">  1       -2 0.63055389E-02 0.29300713E+03</pdfrwt>
<totfact> 0.80763272E+03</totfact>
</mgrwt>
</event>
<event>
 4    1  0.6148427E-004  0.1710494E+03  0.7818608E-02  0.1176758E+00
         -2   -1    0    0    0  501 -0.00000000000E+00  0.00000000000E+00  0.34825437756E+01  0.34825447092E+01  0.25500000000E-02 0. -1.
          2   -1    0    0  501    0  0.00000000000E+00 -0.00000000000E+00 -0.21003241867E+04  0.21003241867E+04  0.25500000000E-02 0.  1.
    5000001    1    1    2    0    0 -0.12545106405E+01  0.35708098887E+02 -0.92011149073E+03  0.92401882962E+03  0.77000000000E+02 0.  0.
   -5000001    1    1    2    0    0  0.12545106405E+01 -0.35708098887E+02 -0.11767301522E+04  0.11797879018E+04  0.77000000000E+02 0.  0.
<mgrwt>
<rscale>  0 0.17104937E+03</rscale>
<asrwt>0</asrwt>
<pdfrwt beam="1">  1        2 0.32312579E+00 0.17104937E+03</pdfrwt>
<pdfrwt beam="2">  1       -2 0.53577772E-03 0.17104937E+03</pdfrwt>
<totfact> 0.33819150E+04</totfact>
</mgrwt>
</event>
<event>
 4    1  0.6148427E-004  0.3036046E+03  0.7818608E-02  0.1083452E+00
          2   -1    0    0  501    0  0.00000000000E+00  0.00000000000E+00  0.26934967520E+03  0.26934967521E+03  0.25500000000E-02 0.  1.
         -2   -1    0    0    0  501 -0.00000000000E+00 -0.00000000000E+00 -0.85553996331E+02  0.85553996369E+02  0.25500000000E-02 0. -1.
    5000001    1    1    2    0    0  0.25981150338E+02 -0.10986361658E+03  0.14622984049E+02  0.13743313313E+03  0.77000000000E+02 0.  0.
   -5000001    1    1    2    0    0 -0.25981150338E+02  0.10986361658E+03  0.16917269482E+03  0.21747053845E+03  0.77000000000E+02 0.  0.
<mgrwt>
<rscale>  0 0.30360462E+03</rscale>
<asrwt>0</asrwt>
<pdfrwt beam="1">  1        2 0.41438412E-01 0.30360462E+03</pdfrwt>
<pdfrwt beam="2">  1       -2 0.13162153E-01 0.30360462E+03</pdfrwt>
<totfact> 0.52142688E+03</totfact>
</mgrwt>
</event>
<event>
 4    1  0.6148427E-004  0.2032728E+03  0.7818608E-02  0.1147007E+00
          2   -1    0    0  501    0  0.00000000000E+00  0.00000000000E+00  0.81926040775E+03  0.81926040775E+03  0.25500000000E-02 0.  1.
         -2   -1    0    0    0  501 -0.00000000000E+00 -0.00000000000E+00 -0.12608879250E+02  0.12608879508E+02  0.25500000000E-02 0. -1.
    5000001    1    1    2    0    0 -0.57132680147E+02 -0.26875549552E+02  0.48664537412E+03  0.49672845546E+03  0.77000000000E+02 0.  0.
   -5000001    1    1    2    0    0  0.57132680147E+02  0.26875549552E+02  0.32000615437E+03  0.33514083180E+03  0.77000000000E+02 0.  0.
<mgrwt>
<rscale>  0 0.20327278E+03</rscale>
<asrwt>0</asrwt>
<pdfrwt beam="1">  1        2 0.12604007E+00 0.20327278E+03</pdfrwt>
<pdfrwt beam="2">  1       -2 0.19398275E-02 0.20327278E+03</pdfrwt>
<totfact> 0.27151672E+04</totfact>
</mgrwt>
</event>
<event>
 4    1  0.6148427E-004  0.1864917E+03  0.7818608E-02  0.1161664E+00
         -2   -1    0    0    0  501 -0.00000000000E+00  0.00000000000E+00  0.11443004118E+02  0.11443004402E+02  0.25500000000E-02 0. -1.
          2   -1    0    0  501    0  0.00000000000E+00 -0.00000000000E+00 -0.75983405053E+03  0.75983405053E+03  0.25500000000E-02 0.  1.
    5000001    1    1    2    0    0 -0.78955593876E+01  0.15682586903E+02 -0.16917475710E+03  0.18670131716E+03  0.77000000000E+02 0.  0.
   -5000001    1    1    2    0    0  0.78955593876E+01 -0.15682586903E+02 -0.57921628931E+03  0.58457573777E+03  0.77000000000E+02 0.  0.
<mgrwt>
<rscale>  0 0.18649165E+03</rscale>
<asrwt>0</asrwt>
<pdfrwt beam="1">  1        2 0.11689751E+00 0.18649165E+03</pdfrwt>
<pdfrwt beam="2">  1       -2 0.17604628E-02 0.18649165E+03</pdfrwt>
<totfact> 0.34159766E+04</totfact>
</mgrwt>
</event>
<event>
 4    1  0.6148427E-004  0.4477853E+03  0.7818608E-02  0.1028385E+00
         -2   -1    0    0    0  501 -0.00000000000E+00  0.00000000000E+00  0.88397397977E+02  0.88397398014E+02  0.25500000000E-02 0. -1.
          2   -1    0    0  501    0  0.00000000000E+00 -0.00000000000E+00 -0.56707449780E+03  0.56707449780E+03  0.25500000000E-02 0.  1.
    5000001    1    1    2    0    0  0.15862639550E+03 -0.13058098986E+03 -0.30455909509E+03  0.37536511647E+03  0.77000000000E+02 0.  0.
   -5000001    1    1    2    0    0 -0.15862639550E+03  0.13058098986E+03 -0.17411800473E+03  0.28010677934E+03  0.77000000000E+02 0.  0.
<mgrwt>
<rscale>  0 0.44778526E+03</rscale>
<asrwt>0</asrwt>
<pdfrwt beam="1">  1        2 0.87242228E-01 0.44778526E+03</pdfrwt>
<pdfrwt beam="2">  1       -2 0.13599600E-01 0.44778526E+03</pdfrwt>
<totfact> 0.21828812E+03</totfact>
</mgrwt>
</event>
<event>
 4    1  0.6148427E-004  0.2202787E+03  0.7818608E-02  0.1133675E+00
          2   -1    0    0  501    0  0.00000000000E+00  0.00000000000E+00  0.40861632025E+03  0.40861632026E+03  0.25500000000E-02 0.  1.
         -2   -1    0    0    0  501 -0.00000000000E+00 -0.00000000000E+00 -0.29687214181E+02  0.29687214290E+02  0.25500000000E-02 0. -1.
    5000001    1    1    2    0    0  0.57116884982E+01  0.61072356853E+02  0.91192902691E+02  0.13419240537E+03  0.77000000000E+02 0.  0.
   -5000001    1    1    2    0    0 -0.57116884982E+01 -0.61072356853E+02  0.28773620338E+03  0.30411112919E+03  0.77000000000E+02 0.  0.
<mgrwt>
<rscale>  0 0.22027873E+03</rscale>
<asrwt>0</asrwt>
<pdfrwt beam="1">  1        2 0.62864048E-01 0.22027873E+03</pdfrwt>
<pdfrwt beam="2">  1       -2 0.45672638E-02 0.22027873E+03</pdfrwt>
<totfact> 0.17132796E+04</totfact>
</mgrwt>
</event>
<event>
 4    1  0.6148427E-004  0.2522435E+03  0.7818608E-02  0.1111895E+00
          2   -1    0    0  501    0  0.00000000000E+00  0.00000000000E+00  0.35946379250E+03  0.35946379251E+03  0.25500000000E-02 0.  1.
         -2   -1    0    0    0  501 -0.00000000000E+00 -0.00000000000E+00 -0.44251167016E+02  0.44251167090E+02  0.25500000000E-02 0. -1.
    5000001    1    1    2    0    0  0.73857406058E+02 -0.49237211539E+02  0.23092363403E+03  0.25910218869E+03  0.77000000000E+02 0.  0.
   -5000001    1    1    2    0    0 -0.73857406058E+02  0.49237211539E+02  0.84288991452E+02  0.14461277091E+03  0.77000000000E+02 0.  0.
<mgrwt>
<rscale>  0 0.25224347E+03</rscale>
<asrwt>0</asrwt>
<pdfrwt beam="1">  1        2 0.55302123E-01 0.25224347E+03</pdfrwt>
<pdfrwt beam="2">  1       -2 0.68078717E-02 0.25224347E+03</pdfrwt>
<totfact> 0.10785742E+04</totfact>
</mgrwt>
</event>
<event>
 4    1  0.6148427E-004  0.4020934E+03  0.7818608E-02  0.1043057E+00
          2   -1    0    0  501    0  0.00000000000E+00  0.00000000000E+00  0.25821542996E+04  0.25821542996E+04  0.25500000000E-02 0.  1.
         -2   -1    0    0    0  501 -0.00000000000E+00 -0.00000000000E+00 -0.15653512446E+02  0.15653512653E+02  0.25500000000E-02 0. -1.
    5000001    1    1    2    0    0 -0.13147204168E+03  0.94152961241E+02  0.18733045417E+04  0.18818471202E+04  0.77000000000E+02 0.  0.
   -5000001    1    1    2    0    0  0.13147204168E+03 -0.94152961241E+02  0.69319624548E+03  0.71596069208E+03  0.77000000000E+02 0.  0.
<mgrwt>
<rscale>  0 0.40209345E+03</rscale>
<asrwt>0</asrwt>
<pdfrwt beam="1">  1        2 0.39725435E+00 0.40209345E+03</pdfrwt>
<pdfrwt beam="2">  1       -2 0.24082337E-02 0.40209345E+03</pdfrwt>
<totfact> 0.20977286E+03</totfact>
</mgrwt>
</event>
<event>
 4    1  0.6148427E-004  0.1867520E+03  0.7818608E-02  0.1161424E+00
          2   -1    0    0  501    0  0.00000000000E+00  0.00000000000E+00  0.15639027415E+04  0.15639027415E+04  0.25500000000E-02 0.  1.
         -2   -1    0    0    0  501 -0.00000000000E+00 -0.00000000000E+00 -0.55752066402E+01  0.55752072234E+01  0.25500000000E-02 0. -1.
    5000001    1    1    2    0    0  0.12591201340E+02  0.50873919090E+02  0.83452066421E+03  0.83970258603E+03  0.77000000000E+02 0.  0.
   -5000001    1    1    2    0    0 -0.12591201340E+02 -0.50873919090E+02  0.72380687063E+03  0.72977536268E+03  0.77000000000E+02 0.  0.
<mgrwt>
<rscale>  0 0.18675204E+03</rscale>
<asrwt>0</asrwt>
<pdfrwt beam="1">  1        2 0.24060051E+00 0.18675204E+03</pdfrwt>
<pdfrwt beam="2">  1       -2 0.85772382E-03 0.18675204E+03</pdfrwt>
<totfact> 0.32878189E+04</totfact>
</mgrwt>
</event>
<event>
 4    1  0.6148427E-004  0.3122714E+03  0.7818608E-02  0.1079262E+00
         -2   -1    0    0    0  501 -0.00000000000E+00  0.00000000000E+00  0.50384767669E+01  0.50384774121E+01  0.25500000000E-02 0. -1.
          2   -1    0    0  501    0  0.00000000000E+00 -0.00000000000E+00 -0.48384370221E+04  0.48384370221E+04  0.25500000000E-02 0.  1.
    5000001    1    1    2    0    0  0.13207993136E+03 -0.14572789649E+02 -0.28531693791E+04  0.28572997708E+04  0.77000000000E+02 0.  0.
   -5000001    1    1    2    0    0 -0.13207993136E+03  0.14572789649E+02 -0.19802291662E+04  0.19861757287E+04  0.77000000000E+02 0.  0.
<mgrwt>
<rscale>  0 0.31227138E+03</rscale>
<asrwt>0</asrwt>
<pdfrwt beam="1">  1        2 0.74437121E+00 0.31227138E+03</pdfrwt>
<pdfrwt beam="2">  1       -2 0.77515419E-03 0.31227138E+03</pdfrwt>
<totfact> 0.23587087E+02</totfact>
</mgrwt>
</event>
<event>
 4    1  0.6148427E-004  0.3400504E+03  0.7818608E-02  0.1066774E+00
          2   -1    0    0  501    0  0.00000000000E+00  0.00000000000E+00  0.27182188841E+04  0.27182188841E+04  0.25500000000E-02 0.  1.
         -2   -1    0    0    0  501 -0.00000000000E+00 -0.00000000000E+00 -0.10635116433E+02  0.10635116739E+02  0.25500000000E-02 0. -1.
    5000001    1    1    2    0    0 -0.13759715968E+03 -0.13812587371E+01  0.18641552647E+04  0.18708123201E+04  0.77000000000E+02 0.  0.
   -5000001    1    1    2    0    0  0.13759715968E+03  0.13812587371E+01  0.84342850303E+03  0.85804168078E+03  0.77000000000E+02 0.  0.
<mgrwt>
<rscale>  0 0.34005044E+03</rscale>
<asrwt>0</asrwt>
<pdfrwt beam="1">  1        2 0.41818717E+00 0.34005044E+03</pdfrwt>
<pdfrwt beam="2">  1       -2 0.16361732E-02 0.34005044E+03</pdfrwt>
<totfact> 0.31342903E+03</totfact>
</mgrwt>
</event>
<event>
 4    1  0.6148427E-004  0.3050268E+03  0.7818608E-02  0.1082754E+00
         -2   -1    0    0    0  501 -0.00000000000E+00  0.00000000000E+00  0.44391020110E+02  0.44391020183E+02  0.25500000000E-02 0. -1.
          2   -1    0    0  501    0  0.00000000000E+00 -0.00000000000E+00 -0.52398728712E+03  0.52398728712E+03  0.25500000000E-02 0.  1.
    5000001    1    1    2    0    0  0.39078713371E+02 -0.11888907459E+03 -0.31593625882E+03  0.34843432313E+03  0.77000000000E+02 0.  0.
   -5000001    1    1    2    0    0 -0.39078713371E+02  0.11888907459E+03 -0.16366000818E+03  0.21994398418E+03  0.77000000000E+02 0.  0.
<mgrwt>
<rscale>  0 0.30502675E+03</rscale>
<asrwt>0</asrwt>
<pdfrwt beam="1">  1        2 0.80613425E-01 0.30502675E+03</pdfrwt>
<pdfrwt beam="2">  1       -2 0.68293881E-02 0.30502675E+03</pdfrwt>
<totfact> 0.71429329E+03</totfact>
</mgrwt>
</event>
<event>
 4    1  0.6148427E-004  0.1724519E+03  0.7818608E-02  0.1175315E+00
         -2   -1    0    0    0  501 -0.00000000000E+00  0.00000000000E+00  0.12271253404E+02  0.12271253669E+02  0.25500000000E-02 0. -1.
          2   -1    0    0  501    0  0.00000000000E+00 -0.00000000000E+00 -0.60588070383E+03  0.60588070384E+03  0.25500000000E-02 0.  1.
    5000001    1    1    2    0    0  0.14980957752E+02  0.43389753178E+01 -0.16943376368E+03  0.18676203061E+03  0.77000000000E+02 0.  0.
   -5000001    1    1    2    0    0 -0.14980957752E+02 -0.43389753178E+01 -0.42417568675E+03  0.43138992690E+03  0.77000000000E+02 0.  0.
<mgrwt>
<rscale>  0 0.17245191E+03</rscale>
<asrwt>0</asrwt>
<pdfrwt beam="1">  1        2 0.93212393E-01 0.17245191E+03</pdfrwt>
<pdfrwt beam="2">  1       -2 0.18878856E-02 0.17245191E+03</pdfrwt>
<totfact> 0.40115824E+04</totfact>
</mgrwt>
</event>
<event>
 4    1  0.6148427E-004  0.2461705E+03  0.7818608E-02  0.1115749E+00
         -2   -1    0    0    0  501 -0.00000000000E+00  0.00000000000E+00  0.16381901441E+02  0.16381901639E+02  0.25500000000E-02 0. -1.
          2   -1    0    0  501    0  0.00000000000E+00 -0.00000000000E+00 -0.92479997252E+03  0.92479997252E+03  0.25500000000E-02 0.  1.
    5000001    1    1    2    0    0  0.66791830125E+01 -0.95114373879E+02 -0.49773860637E+03  0.51260518518E+03  0.77000000000E+02 0.  0.
   -5000001    1    1    2    0    0 -0.66791830125E+01  0.95114373879E+02 -0.41067946470E+03  0.42857668898E+03  0.77000000000E+02 0.  0.
<mgrwt>
<rscale>  0 0.24617053E+03</rscale>
<asrwt>0</asrwt>
<pdfrwt beam="1">  1        2 0.14227688E+00 0.24617053E+03</pdfrwt>
<pdfrwt beam="2">  1       -2 0.25202933E-02 0.24617053E+03</pdfrwt>
<totfact> 0.15937024E+04</totfact>
</mgrwt>
</event>
<event>
 4    1  0.6148427E-004  0.2458195E+03  0.7818608E-02  0.1115976E+00
          2   -1    0    0  501    0  0.00000000000E+00  0.00000000000E+00  0.39464764197E+03  0.39464764198E+03  0.25500000000E-02 0.  1.
         -2   -1    0    0    0  501 -0.00000000000E+00 -0.00000000000E+00 -0.38279237493E+02  0.38279237578E+02  0.25500000000E-02 0. -1.
    5000001    1    1    2    0    0 -0.29572312612E+02  0.90265529657E+02  0.15622804941E+03  0.19838999707E+03  0.77000000000E+02 0.  0.
   -5000001    1    1    2    0    0  0.29572312612E+02 -0.90265529657E+02  0.20014035507E+03  0.23453688248E+03  0.77000000000E+02 0.  0.
<mgrwt>
<rscale>  0 0.24581953E+03</rscale>
<asrwt>0</asrwt>
<pdfrwt beam="1">  1        2 0.60715023E-01 0.24581953E+03</pdfrwt>
<pdfrwt beam="2">  1       -2 0.58891134E-02 0.24581953E+03</pdfrwt>
<totfact> 0.12168882E+04</totfact>
</mgrwt>
</event>
<event>
 4    1  0.6148427E-004  0.2277160E+03  0.7818608E-02  0.1128258E+00
         -2   -1    0    0    0  501 -0.00000000000E+00  0.00000000000E+00  0.74944757196E+01  0.74944761534E+01  0.25500000000E-02 0. -1.
          2   -1    0    0  501    0  0.00000000000E+00 -0.00000000000E+00 -0.17297605026E+04  0.17297605026E+04  0.25500000000E-02 0.  1.
    5000001    1    1    2    0    0 -0.62918132046E+02  0.54422872809E+02 -0.77963855636E+03  0.78783616253E+03  0.77000000000E+02 0.  0.
   -5000001    1    1    2    0    0  0.62918132046E+02 -0.54422872809E+02 -0.94262747049E+03  0.94941881619E+03  0.77000000000E+02 0.  0.
<mgrwt>
<rscale>  0 0.22771604E+03</rscale>
<asrwt>0</asrwt>
<pdfrwt beam="1">  1        2 0.26611668E+00 0.22771604E+03</pdfrwt>
<pdfrwt beam="2">  1       -2 0.11529977E-02 0.22771604E+03</pdfrwt>
<totfact> 0.17735834E+04</totfact>
</mgrwt>
</event>
<event>
 4    1  0.6148427E-004  0.1825223E+03  0.7818608E-02  0.1165384E+00
         -2   -1    0    0    0  501 -0.00000000000E+00  0.00000000000E+00  0.46551906630E+01  0.46551913615E+01  0.25500000000E-02 0. -1.
          2   -1    0    0  501    0  0.00000000000E+00 -0.00000000000E+00 -0.17890987248E+04  0.17890987248E+04  0.25500000000E-02 0.  1.
    5000001    1    1    2    0    0  0.24774563306E+02 -0.41666508855E+02 -0.82292551843E+03  0.82794038785E+03  0.77000000000E+02 0.  0.
   -5000001    1    1    2    0    0 -0.24774563306E+02  0.41666508855E+02 -0.96151801571E+03  0.96581352832E+03  0.77000000000E+02 0.  0.
<mgrwt>
<rscale>  0 0.18252229E+03</rscale>
<asrwt>0</asrwt>
<pdfrwt beam="1">  1        2 0.27524541E+00 0.18252229E+03</pdfrwt>
<pdfrwt beam="2">  1       -2 0.71618466E-03 0.18252229E+03</pdfrwt>
<totfact> 0.32479570E+04</totfact>
</mgrwt>
</event>
<event>
 4    1  0.6148427E-004  0.3032319E+03  0.7818608E-02  0.1083636E+00
         -2   -1    0    0    0  501 -0.00000000000E+00  0.00000000000E+00  0.16356731053E+02  0.16356731251E+02  0.25500000000E-02 0. -1.
          2   -1    0    0  501    0  0.00000000000E+00 -0.00000000000E+00 -0.14053781994E+04  0.14053781994E+04  0.25500000000E-02 0.  1.
    5000001    1    1    2    0    0  0.11627292191E+03  0.46090345875E+02 -0.87085974909E+03  0.88315877108E+03  0.77000000000E+02 0.  0.
   -5000001    1    1    2    0    0 -0.11627292191E+03 -0.46090345875E+02 -0.51816171921E+03  0.53857615953E+03  0.77000000000E+02 0.  0.
<mgrwt>
<rscale>  0 0.30323188E+03</rscale>
<asrwt>0</asrwt>
<pdfrwt beam="1">  1        2 0.21621194E+00 0.30323188E+03</pdfrwt>
<pdfrwt beam="2">  1       -2 0.25164213E-02 0.30323188E+03</pdfrwt>
<totfact> 0.84644085E+03</totfact>
</mgrwt>
</event>
<event>
 4    1  0.6148427E-004  0.2340188E+03  0.7818608E-02  0.1123843E+00
         -2   -1    0    0    0  501 -0.00000000000E+00  0.00000000000E+00  0.18892030811E+02  0.18892030983E+02  0.25500000000E-02 0. -1.
          2   -1    0    0  501    0  0.00000000000E+00 -0.00000000000E+00 -0.72470753496E+03  0.72470753496E+03  0.25500000000E-02 0.  1.
    5000001    1    1    2    0    0 -0.87492128120E+02  0.81696812803E+01 -0.33266592875E+03  0.35258649482E+03  0.77000000000E+02 0.  0.
   -5000001    1    1    2    0    0  0.87492128120E+02 -0.81696812803E+01 -0.37314957539E+03  0.39101307113E+03  0.77000000000E+02 0.  0.
<mgrwt>
<rscale>  0 0.23401878E+03</rscale>
<asrwt>0</asrwt>
<pdfrwt beam="1">  1        2 0.11149345E+00 0.23401878E+03</pdfrwt>
<pdfrwt beam="2">  1       -2 0.29064668E-02 0.23401878E+03</pdfrwt>
<totfact> 0.17597885E+04</totfact>
</mgrwt>
</event>
<event>
 4    1  0.6148427E-004  0.2052958E+03  0.7818608E-02  0.1145346E+00
         -2   -1    0    0    0  501 -0.00000000000E+00  0.00000000000E+00  0.65922890498E+01  0.65922895430E+01  0.25500000000E-02 0.  1.
          2   -1    0    0  501    0  0.00000000000E+00 -0.00000000000E+00 -0.15983202542E+04  0.15983202542E+04  0.25500000000E-02 0. -1.
    5000001    1    1    2    0    0 -0.16031805417E+02  0.58686407772E+02 -0.10312331461E+04  0.10358918451E+04  0.77000000000E+02 0.  0.
   -5000001    1    1    2    0    0  0.16031805417E+02 -0.58686407772E+02 -0.56049481903E+03  0.56902069857E+03  0.77000000000E+02 0.  0.
<mgrwt>
<rscale>  0 0.20529578E+03</rscale>
<asrwt>0</asrwt>
<pdfrwt beam="1">  1        2 0.24589512E+00 0.20529578E+03</pdfrwt>
<pdfrwt beam="2">  1       -2 0.10141996E-02 0.20529578E+03</pdfrwt>
<totfact> 0.24906272E+04</totfact>
</mgrwt>
</event>
<event>
 4    1  0.6148427E-004  0.1747451E+03  0.7818608E-02  0.1172988E+00
         -2   -1    0    0    0  501 -0.00000000000E+00  0.00000000000E+00  0.27076430569E+02  0.27076430689E+02  0.25500000000E-02 0. -1.
          2   -1    0    0  501    0  0.00000000000E+00 -0.00000000000E+00 -0.28194123135E+03  0.28194123137E+03  0.25500000000E-02 0.  1.
    5000001    1    1    2    0    0 -0.38433019484E+02  0.73301846975E+01 -0.15076803389E+03  0.17375508234E+03  0.77000000000E+02 0.  0.
   -5000001    1    1    2    0    0  0.38433019484E+02 -0.73301846975E+01 -0.10409676689E+03  0.13526257972E+03  0.77000000000E+02 0.  0.
<mgrwt>
<rscale>  0 0.17474510E+03</rscale>
<asrwt>0</asrwt>
<pdfrwt beam="1">  1        2 0.43375572E-01 0.17474510E+03</pdfrwt>
<pdfrwt beam="2">  1       -2 0.41656049E-02 0.17474510E+03</pdfrwt>
<totfact> 0.28771861E+04</totfact>
</mgrwt>
</event>
<event>
 4    1  0.6148427E-004  0.2005888E+03  0.7818608E-02  0.1149243E+00
         -2   -1    0    0    0  501 -0.00000000000E+00  0.00000000000E+00  0.70893037493E+03  0.70893037494E+03  0.25500000000E-02 0. -1.
          2   -1    0    0  501    0  0.00000000000E+00 -0.00000000000E+00 -0.14188937047E+02  0.14188937276E+02  0.25500000000E-02 0.  1.
    5000001    1    1    2    0    0 -0.49833920630E+02  0.27073080930E+02  0.45633411161E+03  0.46624692253E+03  0.77000000000E+02 0.  0.
   -5000001    1    1    2    0    0  0.49833920630E+02 -0.27073080930E+02  0.23840732628E+03  0.25687238968E+03  0.77000000000E+02 0.  0.
<mgrwt>
<rscale>  0 0.20058882E+03</rscale>
<asrwt>0</asrwt>
<pdfrwt beam="1">  1        2 0.21829134E-02 0.20058882E+03</pdfrwt>
<pdfrwt beam="2">  1       -2 0.10906621E+00 0.20058882E+03</pdfrwt>
<totfact> 0.33220884E+03</totfact>
</mgrwt>
</event>
<event>
 4    1  0.6148427E-004  0.1903700E+03  0.7818608E-02  0.1158128E+00
         -2   -1    0    0    0  501 -0.00000000000E+00  0.00000000000E+00  0.12197143930E+02  0.12197144197E+02  0.25500000000E-02 0. -1.
          2   -1    0    0  501    0  0.00000000000E+00 -0.00000000000E+00 -0.74281201983E+03  0.74281201983E+03  0.25500000000E-02 0.  1.
    5000001    1    1    2    0    0  0.13158551420E+02  0.51912703478E+02 -0.42963861697E+03  0.43975722558E+03  0.77000000000E+02 0.  0.
   -5000001    1    1    2    0    0 -0.13158551420E+02 -0.51912703478E+02 -0.30097625893E+03  0.31525193845E+03  0.77000000000E+02 0.  0.
<mgrwt>
<rscale>  0 0.19037001E+03</rscale>
<asrwt>0</asrwt>
<pdfrwt beam="1">  1        2 0.11427874E+00 0.19037001E+03</pdfrwt>
<pdfrwt beam="2">  1       -2 0.18764843E-02 0.19037001E+03</pdfrwt>
<totfact> 0.32056257E+04</totfact>
</mgrwt>
</event>
<event>
 4    1  0.6148427E-004  0.2055026E+03  0.7818608E-02  0.1145178E+00
         -2   -1    0    0    0  501 -0.00000000000E+00  0.00000000000E+00  0.16284892431E+02  0.16284892631E+02  0.25500000000E-02 0. -1.
          2   -1    0    0  501    0  0.00000000000E+00 -0.00000000000E+00 -0.64832045329E+03  0.64832045329E+03  0.25500000000E-02 0.  1.
    5000001    1    1    2    0    0  0.66924206622E+02 -0.10829541593E+02 -0.33451147889E+03  0.34989006546E+03  0.77000000000E+02 0.  0.
   -5000001    1    1    2    0    0 -0.66924206622E+02  0.10829541593E+02 -0.29752408197E+03  0.31471528046E+03  0.77000000000E+02 0.  0.
<mgrwt>
<rscale>  0 0.20550259E+03</rscale>
<asrwt>0</asrwt>
<pdfrwt beam="1">  1        2 0.99741588E-01 0.20550259E+03</pdfrwt>
<pdfrwt beam="2">  1       -2 0.25053686E-02 0.20550259E+03</pdfrwt>
<totfact> 0.24844872E+04</totfact>
</mgrwt>
</event>
<event>
 4    1  0.6148427E-004  0.1683311E+03  0.7818608E-02  0.1179600E+00
          2   -1    0    0  501    0  0.00000000000E+00  0.00000000000E+00  0.23108166088E+02  0.23108166229E+02  0.25500000000E-02 0.  1.
         -2   -1    0    0    0  501 -0.00000000000E+00 -0.00000000000E+00 -0.30655125880E+03  0.30655125881E+03  0.25500000000E-02 0. -1.
    5000001    1    1    2    0    0 -0.23085580629E+02 -0.24875481671E+02 -0.13827131255E+03  0.16186318141E+03  0.77000000000E+02 0.  0.
   -5000001    1    1    2    0    0  0.23085580629E+02  0.24875481671E+02 -0.14517178016E+03  0.16779624363E+03  0.77000000000E+02 0.  0.
<mgrwt>
<rscale>  0 0.16833107E+03</rscale>
<asrwt>0</asrwt>
<pdfrwt beam="1">  1        2 0.35551027E-02 0.16833107E+03</pdfrwt>
<pdfrwt beam="2">  1       -2 0.47161729E-01 0.16833107E+03</pdfrwt>
<totfact> 0.10255683E+04</totfact>
</mgrwt>
</event>
<event>
 4    1  0.6148427E-004  0.7387515E+03  0.7818608E-02  0.9653165E-01
         -2   -1    0    0    0  501 -0.00000000000E+00  0.00000000000E+00  0.13658527226E+03  0.13658527229E+03  0.25500000000E-02 0. -1.
          2   -1    0    0  501    0  0.00000000000E+00 -0.00000000000E+00 -0.99892497594E+03  0.99892497594E+03  0.25500000000E-02 0.  1.
    5000001    1    1    2    0    0  0.47789532063E+02 -0.23862828722E+03 -0.84154689495E+03  0.87940745689E+03  0.77000000000E+02 0.  0.
   -5000001    1    1    2    0    0 -0.47789532063E+02  0.23862828722E+03 -0.20792808727E+02  0.25610279134E+03  0.77000000000E+02 0.  0.
<mgrwt>
<rscale>  0 0.73875149E+03</rscale>
<asrwt>0</asrwt>
<pdfrwt beam="1">  1        2 0.15368076E+00 0.73875149E+03</pdfrwt>
<pdfrwt beam="2">  1       -2 0.21013119E-01 0.73875149E+03</pdfrwt>
<totfact> 0.49656500E+02</totfact>
</mgrwt>
</event>
<event>
 4    1  0.6148427E-004  0.1627550E+03  0.7818608E-02  0.1185621E+00
         -2   -1    0    0    0  501 -0.00000000000E+00  0.00000000000E+00  0.67595389747E+01  0.67595394557E+01  0.25500000000E-02 0. -1.
          2   -1    0    0  501    0  0.00000000000E+00 -0.00000000000E+00 -0.97969647313E+03  0.97969647313E+03  0.25500000000E-02 0.  1.
    5000001    1    1    2    0    0  0.28460972308E+01 -0.23137394670E+02 -0.41227211532E+03  0.42004849288E+03  0.77000000000E+02 0.  0.
   -5000001    1    1    2    0    0 -0.28460972308E+01  0.23137394670E+02 -0.56066481883E+03  0.56640751971E+03  0.77000000000E+02 0.  0.
<mgrwt>
<rscale>  0 0.16275499E+03</rscale>
<asrwt>0</asrwt>
<pdfrwt beam="1">  1        2 0.15072242E+00 0.16275499E+03</pdfrwt>
<pdfrwt beam="2">  1       -2 0.10399299E-02 0.16275499E+03</pdfrwt>
<totfact> 0.51997168E+04</totfact>
</mgrwt>
</event>
<event>
 4    1  0.6148427E-004  0.4214984E+03  0.7818608E-02  0.1036580E+00
          2   -1    0    0  501    0  0.00000000000E+00  0.00000000000E+00  0.11629551218E+04  0.11629551218E+04  0.25500000000E-02 0.  1.
         -2   -1    0    0    0  501 -0.00000000000E+00 -0.00000000000E+00 -0.38191686598E+02  0.38191686683E+02  0.25500000000E-02 0. -1.
    5000001    1    1    2    0    0 -0.19107051144E+03 -0.40032642405E+02  0.61761494842E+03  0.65229424136E+03  0.77000000000E+02 0.  0.
   -5000001    1    1    2    0    0  0.19107051144E+03  0.40032642405E+02  0.50714848682E+03  0.54885256716E+03  0.77000000000E+02 0.  0.
<mgrwt>
<rscale>  0 0.42149836E+03</rscale>
<asrwt>0</asrwt>
<pdfrwt beam="1">  1        2 0.17891620E+00 0.42149836E+03</pdfrwt>
<pdfrwt beam="2">  1       -2 0.58756433E-02 0.42149836E+03</pdfrwt>
<totfact> 0.32165339E+03</totfact>
</mgrwt>
</event>
<event>
 4    1  0.6148427E-004  0.1945203E+03  0.7818608E-02  0.1154446E+00
         -2   -1    0    0    0  501 -0.00000000000E+00  0.00000000000E+00  0.13038271893E+02  0.13038272142E+02  0.25500000000E-02 0. -1.
          2   -1    0    0  501    0  0.00000000000E+00 -0.00000000000E+00 -0.72552085844E+03  0.72552085844E+03  0.25500000000E-02 0.  1.
    5000001    1    1    2    0    0 -0.48351137589E+02 -0.34966342911E+01 -0.22578966527E+03  0.24343383475E+03  0.77000000000E+02 0.  0.
   -5000001    1    1    2    0    0  0.48351137589E+02  0.34966342911E+01 -0.48669292127E+03  0.49512529583E+03  0.77000000000E+02 0.  0.
<mgrwt>
<rscale>  0 0.19452032E+03</rscale>
<asrwt>0</asrwt>
<pdfrwt beam="1">  1        2 0.11161856E+00 0.19452032E+03</pdfrwt>
<pdfrwt beam="2">  1       -2 0.20058886E-02 0.19452032E+03</pdfrwt>
<totfact> 0.29978509E+04</totfact>
</mgrwt>
</event>
<event>
 4    1  0.6148427E-004  0.2303214E+03  0.7818608E-02  0.1126414E+00
         -2   -1    0    0    0  501 -0.00000000000E+00  0.00000000000E+00  0.60689836765E+01  0.60689842122E+01  0.25500000000E-02 0. -1.
          2   -1    0    0  501    0  0.00000000000E+00 -0.00000000000E+00 -0.21852077654E+04  0.21852077654E+04  0.25500000000E-02 0.  1.
    5000001    1    1    2    0    0  0.79313698388E+02 -0.22057842351E+02 -0.86527717192E+03  0.87258856021E+03  0.77000000000E+02 0.  0.
   -5000001    1    1    2    0    0 -0.79313698388E+02  0.22057842351E+02 -0.13138616098E+04  0.13186881894E+04  0.77000000000E+02 0.  0.
<mgrwt>
<rscale>  0 0.23032143E+03</rscale>
<asrwt>0</asrwt>
<pdfrwt beam="1">  1        2 0.33618518E+00 0.23032143E+03</pdfrwt>
<pdfrwt beam="2">  1       -2 0.93369158E-03 0.23032143E+03</pdfrwt>
<totfact> 0.13911657E+04</totfact>
</mgrwt>
</event>
<event>
 4    1  0.6148427E-004  0.2524968E+03  0.7818608E-02  0.1111737E+00
         -2   -1    0    0    0  501 -0.00000000000E+00  0.00000000000E+00  0.40775268296E+02  0.40775268376E+02  0.25500000000E-02 0. -1.
          2   -1    0    0  501    0  0.00000000000E+00 -0.00000000000E+00 -0.39089019997E+03  0.39089019998E+03  0.25500000000E-02 0.  1.
    5000001    1    1    2    0    0 -0.86910859344E+02 -0.22017847966E+02 -0.25096336786E+03  0.27739844107E+03  0.77000000000E+02 0.  0.
   -5000001    1    1    2    0    0  0.86910859344E+02  0.22017847966E+02 -0.99151563822E+02  0.15426702729E+03  0.77000000000E+02 0.  0.
<mgrwt>
<rscale>  0 0.25249675E+03</rscale>
<asrwt>0</asrwt>
<pdfrwt beam="1">  1        2 0.60136951E-01 0.25249675E+03</pdfrwt>
<pdfrwt beam="2">  1       -2 0.62731185E-02 0.25249675E+03</pdfrwt>
<totfact> 0.11175193E+04</totfact>
</mgrwt>
</event>
<event>
 4    1  0.6148427E-004  0.3447116E+03  0.7818608E-02  0.1064807E+00
         -2   -1    0    0    0  501 -0.00000000000E+00  0.00000000000E+00  0.30627461545E+03  0.30627461546E+03  0.25500000000E-02 0. -1.
          2   -1    0    0  501    0  0.00000000000E+00 -0.00000000000E+00 -0.96993083601E+02  0.96993083635E+02  0.25500000000E-02 0.  1.
    5000001    1    1    2    0    0 -0.12260972419E+03  0.86609626198E+02  0.14588838644E+03  0.22303989131E+03  0.77000000000E+02 0.  0.
   -5000001    1    1    2    0    0  0.12260972419E+03 -0.86609626198E+02  0.63393145407E+02  0.18022780779E+03  0.77000000000E+02 0.  0.
<mgrwt>
<rscale>  0 0.34471159E+03</rscale>
<asrwt>0</asrwt>
<pdfrwt beam="1">  1        2 0.14922013E-01 0.34471159E+03</pdfrwt>
<pdfrwt beam="2">  1       -2 0.47119172E-01 0.34471159E+03</pdfrwt>
<totfact> 0.17040621E+03</totfact>
</mgrwt>
</event>
<event>
 4    1  0.6148427E-004  0.2185105E+03  0.7818608E-02  0.1134998E+00
          2   -1    0    0  501    0  0.00000000000E+00  0.00000000000E+00  0.14489749983E+04  0.14489749983E+04  0.25500000000E-02 0.  1.
         -2   -1    0    0    0  501 -0.00000000000E+00 -0.00000000000E+00 -0.82380361188E+01  0.82380365135E+01  0.25500000000E-02 0. -1.
    5000001    1    1    2    0    0 -0.44949532155E+02  0.26132322519E+02  0.33701997812E+03  0.34959236887E+03  0.77000000000E+02 0.  0.
   -5000001    1    1    2    0    0  0.44949532155E+02 -0.26132322519E+02  0.11037169840E+04  0.11076206659E+04  0.77000000000E+02 0.  0.
<mgrwt>
<rscale>  0 0.21851049E+03</rscale>
<asrwt>0</asrwt>
<pdfrwt beam="1">  1        2 0.22291917E+00 0.21851049E+03</pdfrwt>
<pdfrwt beam="2">  1       -2 0.12673905E-02 0.21851049E+03</pdfrwt>
<totfact> 0.21705206E+04</totfact>
</mgrwt>
</event>
<event>
 4    1  0.6148427E-004  0.2026407E+03  0.7818608E-02  0.1147530E+00
          2   -1    0    0  501    0  0.00000000000E+00  0.00000000000E+00  0.11627491089E+03  0.11627491092E+03  0.25500000000E-02 0.  1.
         -2   -1    0    0    0  501 -0.00000000000E+00 -0.00000000000E+00 -0.88289140023E+02  0.88289140060E+02  0.25500000000E-02 0. -1.
    5000001    1    1    2    0    0 -0.37045744205E+02  0.43253201669E+02 -0.19390393865E+02  0.97714962992E+02  0.77000000000E+02 0.  0.
   -5000001    1    1    2    0    0  0.37045744205E+02 -0.43253201669E+02  0.47376164730E+02  0.10684908798E+03  0.77000000000E+02 0.  0.
<mgrwt>
<rscale>  0 0.20264069E+03</rscale>
<asrwt>0</asrwt>
<pdfrwt beam="1">  1        2 0.17888448E-01 0.20264069E+03</pdfrwt>
<pdfrwt beam="2">  1       -2 0.13582945E-01 0.20264069E+03</pdfrwt>
<totfact> 0.12346691E+04</totfact>
</mgrwt>
</event>
<event>
 4    1  0.6148427E-004  0.2980015E+03  0.7818608E-02  0.1086244E+00
         -2   -1    0    0    0  501 -0.00000000000E+00  0.00000000000E+00  0.48132665541E+01  0.48132672296E+01  0.25500000000E-02 0. -1.
          2   -1    0    0  501    0  0.00000000000E+00 -0.00000000000E+00 -0.46125058373E+04  0.46125058373E+04  0.25500000000E-02 0.  1.
    5000001    1    1    2    0    0 -0.69980296529E+02 -0.90416794703E+02 -0.31803055163E+04  0.31832914751E+04  0.77000000000E+02 0.  0.
   -5000001    1    1    2    0    0  0.69980296529E+02  0.90416794703E+02 -0.14273870545E+04  0.14340276295E+04  0.77000000000E+02 0.  0.
<mgrwt>
<rscale>  0 0.29800149E+03</rscale>
<asrwt>0</asrwt>
<pdfrwt beam="1">  1        2 0.70961275E+00 0.29800149E+03</pdfrwt>
<pdfrwt beam="2">  1       -2 0.74050629E-03 0.29800149E+03</pdfrwt>
<totfact> 0.43422824E+02</totfact>
</mgrwt>
</event>
<event>
 4    1  0.6148427E-004  0.3674752E+03  0.7818608E-02  0.1055663E+00
         -2   -1    0    0    0  501 -0.00000000000E+00  0.00000000000E+00  0.35756307512E+02  0.35756307603E+02  0.25500000000E-02 0. -1.
          2   -1    0    0  501    0  0.00000000000E+00 -0.00000000000E+00 -0.94415508764E+03  0.94415508765E+03  0.25500000000E-02 0.  1.
    5000001    1    1    2    0    0  0.13133114868E+03  0.77376955351E+02 -0.27343113491E+03  0.32237966650E+03  0.77000000000E+02 0.  0.
   -5000001    1    1    2    0    0 -0.13133114868E+03 -0.77376955351E+02 -0.63496764522E+03  0.65753172875E+03  0.77000000000E+02 0.  0.
<mgrwt>
<rscale>  0 0.36747517E+03</rscale>
<asrwt>0</asrwt>
<pdfrwt beam="1">  1        2 0.14525461E+00 0.36747517E+03</pdfrwt>
<pdfrwt beam="2">  1       -2 0.55009711E-02 0.36747517E+03</pdfrwt>
<totfact> 0.48357122E+03</totfact>
</mgrwt>
</event>
<event>
 4    1  0.6148427E-004  0.2010190E+03  0.7818608E-02  0.1148882E+00
          2   -1    0    0  501    0  0.00000000000E+00  0.00000000000E+00  0.16502198801E+04  0.16502198801E+04  0.25500000000E-02 0.  1.
         -2   -1    0    0    0  501 -0.00000000000E+00 -0.00000000000E+00 -0.61217022965E+01  0.61217028276E+01  0.25500000000E-02 0. -1.
    5000001    1    1    2    0    0  0.10337233977E+02 -0.51898356470E+02  0.51674992578E+03  0.52512834965E+03  0.77000000000E+02 0.  0.
   -5000001    1    1    2    0    0 -0.10337233977E+02  0.51898356470E+02  0.11273482520E+04  0.11312132333E+04  0.77000000000E+02 0.  0.
<mgrwt>
<rscale>  0 0.20101896E+03</rscale>
<asrwt>0</asrwt>
<pdfrwt beam="1">  1        2 0.25387988E+00 0.20101896E+03</pdfrwt>
<pdfrwt beam="2">  1       -2 0.94180077E-03 0.20101896E+03</pdfrwt>
<totfact> 0.26007015E+04</totfact>
</mgrwt>
</event>
<event>
 4    1  0.6148427E-004  0.2207426E+03  0.7818608E-02  0.1133331E+00
         -2   -1    0    0    0  501 -0.00000000000E+00  0.00000000000E+00  0.17603094116E+03  0.17603094118E+03  0.25500000000E-02 0. -1.
          2   -1    0    0  501    0  0.00000000000E+00 -0.00000000000E+00 -0.69202731808E+02  0.69202731855E+02  0.25500000000E-02 0.  1.
    5000001    1    1    2    0    0 -0.69907131699E+02  0.13895149093E+01  0.12385879332E+02  0.10474420185E+03  0.77000000000E+02 0.  0.
   -5000001    1    1    2    0    0  0.69907131699E+02 -0.13895149093E+01  0.94442330017E+02  0.14048947118E+03  0.77000000000E+02 0.  0.
<mgrwt>
<rscale>  0 0.22074258E+03</rscale>
<asrwt>0</asrwt>
<pdfrwt beam="1">  1        2 0.10646574E-01 0.22074258E+03</pdfrwt>
<pdfrwt beam="2">  1       -2 0.27081683E-01 0.22074258E+03</pdfrwt>
<totfact> 0.71406940E+03</totfact>
</mgrwt>
</event>
<event>
 4    1  0.6148427E-004  0.2812809E+03  0.7818608E-02  0.1094991E+00
          2   -1    0    0  501    0  0.00000000000E+00  0.00000000000E+00  0.18175195445E+03  0.18175195447E+03  0.25500000000E-02 0.  1.
         -2   -1    0    0    0  501 -0.00000000000E+00 -0.00000000000E+00 -0.10882815861E+03  0.10882815864E+03  0.25500000000E-02 0. -1.
    5000001    1    1    2    0    0 -0.83747458458E+02  0.61584537638E+02  0.93462482183E+02  0.15959488604E+03  0.77000000000E+02 0.  0.
   -5000001    1    1    2    0    0  0.83747458458E+02 -0.61584537638E+02 -0.20538686345E+02  0.13098522707E+03  0.77000000000E+02 0.  0.
<mgrwt>
<rscale>  0 0.28128086E+03</rscale>
<asrwt>0</asrwt>
<pdfrwt beam="1">  1        2 0.27961839E-01 0.28128086E+03</pdfrwt>
<pdfrwt beam="2">  1       -2 0.16742794E-01 0.28128086E+03</pdfrwt>
<totfact> 0.53677014E+03</totfact>
</mgrwt>
</event>
<event>
 4    1  0.6148427E-004  0.2087077E+03  0.7818608E-02  0.1142593E+00
         -2   -1    0    0    0  501 -0.00000000000E+00  0.00000000000E+00  0.16667838284E+02  0.16667838480E+02  0.25500000000E-02 0. -1.
          2   -1    0    0  501    0  0.00000000000E+00 -0.00000000000E+00 -0.65333748132E+03  0.65333748132E+03  0.25500000000E-02 0.  1.
    5000001    1    1    2    0    0  0.40411162260E+02 -0.49084394837E+02 -0.22104847120E+03  0.24255672836E+03  0.77000000000E+02 0.  0.
   -5000001    1    1    2    0    0 -0.40411162260E+02  0.49084394837E+02 -0.41562117184E+03  0.42744859145E+03  0.77000000000E+02 0.  0.
<mgrwt>
<rscale>  0 0.20870768E+03</rscale>
<asrwt>0</asrwt>
<pdfrwt beam="1">  1        2 0.10051344E+00 0.20870768E+03</pdfrwt>
<pdfrwt beam="2">  1       -2 0.25642833E-02 0.20870768E+03</pdfrwt>
<totfact> 0.23816604E+04</totfact>
</mgrwt>
</event>
<event>
 4    1  0.6148427E-004  0.2826771E+03  0.7818608E-02  0.1094236E+00
          2   -1    0    0  501    0  0.00000000000E+00  0.00000000000E+00  0.25305484070E+03  0.25305484071E+03  0.25500000000E-02 0.  1.
         -2   -1    0    0    0  501 -0.00000000000E+00 -0.00000000000E+00 -0.78941721183E+02  0.78941721224E+02  0.25500000000E-02 0. -1.
    5000001    1    1    2    0    0  0.10220418798E+03  0.39444093934E+01  0.16722107143E+02  0.12911190214E+03  0.77000000000E+02 0.  0.
   -5000001    1    1    2    0    0 -0.10220418798E+03 -0.39444093934E+01  0.15739101237E+03  0.20288465980E+03  0.77000000000E+02 0.  0.
<mgrwt>
<rscale>  0 0.28267709E+03</rscale>
<asrwt>0</asrwt>
<pdfrwt beam="1">  1        2 0.38931513E-01 0.28267709E+03</pdfrwt>
<pdfrwt beam="2">  1       -2 0.12144880E-01 0.28267709E+03</pdfrwt>
<totfact> 0.63428941E+03</totfact>
</mgrwt>
</event>
<event>
 4    1  0.6148427E-004  0.2534377E+03  0.7818608E-02  0.1111151E+00
          2   -1    0    0  501    0  0.00000000000E+00  0.00000000000E+00  0.11127862898E+04  0.11127862898E+04  0.25500000000E-02 0.  1.
         -2   -1    0    0    0  501 -0.00000000000E+00 -0.00000000000E+00 -0.14430147389E+02  0.14430147614E+02  0.25500000000E-02 0. -1.
    5000001    1    1    2    0    0  0.46959590967E+02  0.37500815211E+02  0.90823648400E+03  0.91347360400E+03  0.77000000000E+02 0.  0.
   -5000001    1    1    2    0    0 -0.46959590967E+02 -0.37500815211E+02  0.19011965841E+03  0.21374283342E+03  0.77000000000E+02 0.  0.
<mgrwt>
<rscale>  0 0.25343773E+03</rscale>
<asrwt>0</asrwt>
<pdfrwt beam="1">  1        2 0.17119788E+00 0.25343773E+03</pdfrwt>
<pdfrwt beam="2">  1       -2 0.22200228E-02 0.25343773E+03</pdfrwt>
<totfact> 0.14796725E+04</totfact>
</mgrwt>
</event>
<event>
 4    1  0.6148427E-004  0.2535666E+03  0.7818608E-02  0.1111071E+00
          2   -1    0    0  501    0  0.00000000000E+00  0.00000000000E+00  0.99707916644E+03  0.99707916644E+03  0.25500000000E-02 0.  1.
         -2   -1    0    0    0  501 -0.00000000000E+00 -0.00000000000E+00 -0.16121089731E+02  0.16121089933E+02  0.25500000000E-02 0. -1.
    5000001    1    1    2    0    0 -0.42489810035E+02 -0.77969259921E+02  0.30050370791E+03  0.32267021541E+03  0.77000000000E+02 0.  0.
   -5000001    1    1    2    0    0  0.42489810035E+02  0.77969259921E+02  0.68045436880E+03  0.69053004096E+03  0.77000000000E+02 0.  0.
<mgrwt>
<rscale>  0 0.25356658E+03</rscale>
<asrwt>0</asrwt>
<pdfrwt beam="1">  1        2 0.15339674E+00 0.25356658E+03</pdfrwt>
<pdfrwt beam="2">  1       -2 0.24801686E-02 0.25356658E+03</pdfrwt>
<totfact> 0.14730778E+04</totfact>
</mgrwt>
</event>
<event>
 4    1  0.6148427E-004  0.2740015E+03  0.7818608E-02  0.1099011E+00
          2   -1    0    0  501    0  0.00000000000E+00  0.00000000000E+00  0.12192555016E+04  0.12192555016E+04  0.25500000000E-02 0.  1.
         -2   -1    0    0    0  501 -0.00000000000E+00 -0.00000000000E+00 -0.15393983971E+02  0.15393984182E+02  0.25500000000E-02 0. -1.
    5000001    1    1    2    0    0 -0.45052297866E+02 -0.74018667994E+02  0.93095262314E+03  0.93814191852E+03  0.77000000000E+02 0.  0.
   -5000001    1    1    2    0    0  0.45052297866E+02  0.74018667994E+02  0.27290889451E+03  0.29650756729E+03  0.77000000000E+02 0.  0.
<mgrwt>
<rscale>  0 0.27400146E+03</rscale>
<asrwt>0</asrwt>
<pdfrwt beam="1">  1        2 0.18757776E+00 0.27400146E+03</pdfrwt>
<pdfrwt beam="2">  1       -2 0.23683054E-02 0.27400146E+03</pdfrwt>
<totfact> 0.11715888E+04</totfact>
</mgrwt>
</event>
<event>
 4    1  0.6148427E-004  0.1979389E+03  0.7818608E-02  0.1151490E+00
          2   -1    0    0  501    0  0.00000000000E+00  0.00000000000E+00  0.26016976307E+03  0.26016976308E+03  0.25500000000E-02 0.  1.
         -2   -1    0    0    0  501 -0.00000000000E+00 -0.00000000000E+00 -0.37648328512E+02  0.37648328598E+02  0.25500000000E-02 0. -1.
    5000001    1    1    2    0    0  0.90556702071E+01 -0.61489196222E+02  0.11387988462E+03  0.15086601518E+03  0.77000000000E+02 0.  0.
   -5000001    1    1    2    0    0 -0.90556702071E+01  0.61489196222E+02  0.10864154994E+03  0.14695207650E+03  0.77000000000E+02 0.  0.
<mgrwt>
<rscale>  0 0.19793895E+03</rscale>
<asrwt>0</asrwt>
<pdfrwt beam="1">  1        2 0.40026118E-01 0.19793895E+03</pdfrwt>
<pdfrwt beam="2">  1       -2 0.57920504E-02 0.19793895E+03</pdfrwt>
<totfact> 0.19261141E+04</totfact>
</mgrwt>
</event>
<event>
 4    1  0.6148427E-004  0.1959512E+03  0.7818608E-02  0.1153201E+00
          2   -1    0    0  501    0  0.00000000000E+00  0.00000000000E+00  0.68045328461E+02  0.68045328509E+02  0.25500000000E-02 0.  1.
         -2   -1    0    0    0  501 -0.00000000000E+00 -0.00000000000E+00 -0.14107092457E+03  0.14107092460E+03  0.25500000000E-02 0. -1.
    5000001    1    1    2    0    0 -0.18034207412E+02 -0.56309784906E+02 -0.22427855000E+02  0.99639516222E+02  0.77000000000E+02 0.  0.
   -5000001    1    1    2    0    0  0.18034207412E+02  0.56309784906E+02 -0.50597741114E+02  0.10947673688E+03  0.77000000000E+02 0.  0.
<mgrwt>
<rscale>  0 0.19595119E+03</rscale>
<asrwt>0</asrwt>
<pdfrwt beam="1">  1        2 0.10468512E-01 0.19595119E+03</pdfrwt>
<pdfrwt beam="2">  1       -2 0.21703219E-01 0.19595119E+03</pdfrwt>
<totfact> 0.10662155E+04</totfact>
</mgrwt>
</event>
<event>
 4    1  0.6148427E-004  0.2468224E+03  0.7818608E-02  0.1115330E+00
         -2   -1    0    0    0  501 -0.00000000000E+00  0.00000000000E+00  0.44946548060E+01  0.44946555293E+01  0.25500000000E-02 0. -1.
          2   -1    0    0  501    0  0.00000000000E+00 -0.00000000000E+00 -0.33885400292E+04  0.33885400292E+04  0.25500000000E-02 0.  1.
    5000001    1    1    2    0    0 -0.46740671881E+02  0.84357941728E+02 -0.16837036654E+04  0.16882203605E+04  0.77000000000E+02 0.  0.
   -5000001    1    1    2    0    0  0.46740671881E+02 -0.84357941728E+02 -0.17003417090E+04  0.17048143242E+04  0.77000000000E+02 0.  0.
<mgrwt>
<rscale>  0 0.24682236E+03</rscale>
<asrwt>0</asrwt>
<pdfrwt beam="1">  1        2 0.52131181E+00 0.24682236E+03</pdfrwt>
<pdfrwt beam="2">  1       -2 0.69148812E-03 0.24682236E+03</pdfrwt>
<totfact> 0.43764654E+03</totfact>
</mgrwt>
</event>
<event>
 4    1  0.6148427E-004  0.3872723E+03  0.7818608E-02  0.1048278E+00
         -2   -1    0    0    0  501 -0.00000000000E+00  0.00000000000E+00  0.69359116211E+02  0.69359116258E+02  0.25500000000E-02 0. -1.
          2   -1    0    0  501    0  0.00000000000E+00 -0.00000000000E+00 -0.54059158759E+03  0.54059158760E+03  0.25500000000E-02 0.  1.
    5000001    1    1    2    0    0  0.15927228362E+03  0.71975444888E+02 -0.18536856918E+03  0.26615527693E+03  0.77000000000E+02 0.  0.
   -5000001    1    1    2    0    0 -0.15927228362E+03 -0.71975444888E+02 -0.28586390220E+03  0.34379542693E+03  0.77000000000E+02 0.  0.
<mgrwt>
<rscale>  0 0.38727228E+03</rscale>
<asrwt>0</asrwt>
<pdfrwt beam="1">  1        2 0.83167934E-01 0.38727228E+03</pdfrwt>
<pdfrwt beam="2">  1       -2 0.10670634E-01 0.38727228E+03</pdfrwt>
<totfact> 0.34238289E+03</totfact>
</mgrwt>
</event>
<event>
 4    1  0.6148427E-004  0.1720331E+03  0.7818608E-02  0.1175744E+00
         -2   -1    0    0    0  501 -0.00000000000E+00  0.00000000000E+00  0.26000748261E+02  0.26000748386E+02  0.25500000000E-02 0. -1.
          2   -1    0    0  501    0  0.00000000000E+00 -0.00000000000E+00 -0.28456299262E+03  0.28456299264E+03  0.25500000000E-02 0.  1.
    5000001    1    1    2    0    0 -0.14568652365E+02 -0.29472030000E+02 -0.93675713624E+02  0.12563831226E+03  0.77000000000E+02 0.  0.
   -5000001    1    1    2    0    0  0.14568652365E+02  0.29472030000E+02 -0.16488653074E+03  0.18492542876E+03  0.77000000000E+02 0.  0.
<mgrwt>
<rscale>  0 0.17203315E+03</rscale>
<asrwt>0</asrwt>
<pdfrwt beam="1">  1        2 0.43778920E-01 0.17203315E+03</pdfrwt>
<pdfrwt beam="2">  1       -2 0.40001153E-02 0.17203315E+03</pdfrwt>
<totfact> 0.30225574E+04</totfact>
</mgrwt>
</event>
<event>
 4    1  0.6148427E-004  0.8853374E+03  0.7818608E-02  0.9444098E-01
         -2   -1    0    0    0  501 -0.00000000000E+00  0.00000000000E+00  0.44932319938E+03  0.44932319939E+03  0.25500000000E-02 0. -1.
          2   -1    0    0  501    0  0.00000000000E+00 -0.00000000000E+00 -0.43611279299E+03  0.43611279299E+03  0.25500000000E-02 0.  1.
    5000001    1    1    2    0    0  0.33213841622E+03 -0.27930835313E+03 -0.34600254290E+02  0.44210322466E+03  0.77000000000E+02 0.  0.
   -5000001    1    1    2    0    0 -0.33213841622E+03  0.27930835313E+03  0.47810660685E+02  0.44333276772E+03  0.77000000000E+02 0.  0.
<mgrwt>
<rscale>  0 0.88533744E+03</rscale>
<asrwt>0</asrwt>
<pdfrwt beam="1">  1        2 0.67094276E-01 0.88533744E+03</pdfrwt>
<pdfrwt beam="2">  1       -2 0.69126646E-01 0.88533744E+03</pdfrwt>
<totfact> 0.13837027E+02</totfact>
</mgrwt>
</event>
<event>
 4    1  0.6148427E-004  0.2749176E+03  0.7818608E-02  0.1098498E+00
         -2   -1    0    0    0  501 -0.00000000000E+00  0.00000000000E+00  0.72304563741E+01  0.72304568237E+01  0.25500000000E-02 0. -1.
          2   -1    0    0  501    0  0.00000000000E+00 -0.00000000000E+00 -0.26132401772E+04  0.26132401772E+04  0.25500000000E-02 0.  1.
    5000001    1    1    2    0    0 -0.92495344462E+02  0.49294545834E+02 -0.87880274742E+03  0.88837413845E+03  0.77000000000E+02 0.  0.
   -5000001    1    1    2    0    0  0.92495344462E+02 -0.49294545834E+02 -0.17272069734E+04  0.17320964956E+04  0.77000000000E+02 0.  0.
<mgrwt>
<rscale>  0 0.27491759E+03</rscale>
<asrwt>0</asrwt>
<pdfrwt beam="1">  1        2 0.40203620E+00 0.27491759E+03</pdfrwt>
<pdfrwt beam="2">  1       -2 0.11123800E-02 0.27491759E+03</pdfrwt>
<totfact> 0.63410540E+03</totfact>
</mgrwt>
</event>
<event>
 4    1  0.6148427E-004  0.2602320E+03  0.7818608E-02  0.1107004E+00
          2   -1    0    0  501    0  0.00000000000E+00  0.00000000000E+00  0.12124945293E+04  0.12124945293E+04  0.25500000000E-02 0.  1.
         -2   -1    0    0    0  501 -0.00000000000E+00 -0.00000000000E+00 -0.13963095899E+02  0.13963096132E+02  0.25500000000E-02 0. -1.
    5000001    1    1    2    0    0 -0.94175056270E+02  0.42223973289E+02  0.68735763886E+03  0.69931489963E+03  0.77000000000E+02 0.  0.
   -5000001    1    1    2    0    0  0.94175056270E+02 -0.42223973289E+02  0.51117379451E+03  0.52714272578E+03  0.77000000000E+02 0.  0.
<mgrwt>
<rscale>  0 0.26023203E+03</rscale>
<asrwt>0</asrwt>
<pdfrwt beam="1">  1        2 0.18653763E+00 0.26023203E+03</pdfrwt>
<pdfrwt beam="2">  1       -2 0.21481685E-02 0.26023203E+03</pdfrwt>
<totfact> 0.13627398E+04</totfact>
</mgrwt>
</event>
<event>
 4    1  0.6148427E-004  0.2569275E+03  0.7818608E-02  0.1109003E+00
         -2   -1    0    0    0  501 -0.00000000000E+00  0.00000000000E+00  0.19284490811E+02  0.19284490980E+02  0.25500000000E-02 0. -1.
          2   -1    0    0  501    0  0.00000000000E+00 -0.00000000000E+00 -0.85576209401E+03  0.85576209401E+03  0.25500000000E-02 0.  1.
    5000001    1    1    2    0    0  0.75161607273E+01  0.81883747871E+02 -0.62853200431E+03  0.63854750903E+03  0.77000000000E+02 0.  0.
   -5000001    1    1    2    0    0 -0.75161607273E+01 -0.81883747871E+02 -0.20794559888E+03  0.23649907596E+03  0.77000000000E+02 0.  0.
<mgrwt>
<rscale>  0 0.25692751E+03</rscale>
<asrwt>0</asrwt>
<pdfrwt beam="1">  1        2 0.13165568E+00 0.25692751E+03</pdfrwt>
<pdfrwt beam="2">  1       -2 0.29668454E-02 0.25692751E+03</pdfrwt>
<totfact> 0.13899467E+04</totfact>
</mgrwt>
</event>
<event>
 4    1  0.6148427E-004  0.2484387E+03  0.7818608E-02  0.1114296E+00
         -2   -1    0    0    0  501 -0.00000000000E+00  0.00000000000E+00  0.28697645694E+02  0.28697645807E+02  0.25500000000E-02 0. -1.
          2   -1    0    0  501    0  0.00000000000E+00 -0.00000000000E+00 -0.53769039761E+03  0.53769039761E+03  0.25500000000E-02 0.  1.
    5000001    1    1    2    0    0 -0.39069683690E+02  0.62190719280E+02 -0.10838829923E+03  0.15189189958E+03  0.77000000000E+02 0.  0.
   -5000001    1    1    2    0    0  0.39069683690E+02 -0.62190719280E+02 -0.40060445269E+03  0.41449614384E+03  0.77000000000E+02 0.  0.
<mgrwt>
<rscale>  0 0.24843871E+03</rscale>
<asrwt>0</asrwt>
<pdfrwt beam="1">  1        2 0.82721592E-01 0.24843871E+03</pdfrwt>
<pdfrwt beam="2">  1       -2 0.44150228E-02 0.24843871E+03</pdfrwt>
<totfact> 0.13404212E+04</totfact>
</mgrwt>
</event>
<event>
 4    1  0.6148427E-004  0.3158310E+03  0.7818608E-02  0.1077584E+00
          2   -1    0    0  501    0  0.00000000000E+00  0.00000000000E+00  0.49221689267E+02  0.49221689333E+02  0.25500000000E-02 0. -1.
         -2   -1    0    0    0  501 -0.00000000000E+00 -0.00000000000E+00 -0.50663252480E+03  0.50663252481E+03  0.25500000000E-02 0.  1.
    5000001    1    1    2    0    0  0.79719683575E+02 -0.10026287533E+03 -0.31845434200E+03  0.35178123892E+03  0.77000000000E+02 0.  0.
   -5000001    1    1    2    0    0 -0.79719683575E+02  0.10026287533E+03 -0.13895649353E+03  0.20407297522E+03  0.77000000000E+02 0.  0.
<mgrwt>
<rscale>  0 0.31583102E+03</rscale>
<asrwt>0</asrwt>
<pdfrwt beam="1">  1        2 0.75725679E-02 0.31583102E+03</pdfrwt>
<pdfrwt beam="2">  1       -2 0.77943462E-01 0.31583102E+03</pdfrwt>
<totfact> 0.13812392E+03</totfact>
</mgrwt>
</event>
<event>
 4    1  0.6148427E-004  0.2501247E+03  0.7818608E-02  0.1113226E+00
          2   -1    0    0  501    0  0.00000000000E+00  0.00000000000E+00  0.11115535547E+04  0.11115535547E+04  0.25500000000E-02 0.  1.
         -2   -1    0    0    0  501 -0.00000000000E+00 -0.00000000000E+00 -0.14070934003E+02  0.14070934234E+02  0.25500000000E-02 0. -1.
    5000001    1    1    2    0    0 -0.87412975560E+01 -0.98158970660E+02  0.54898925693E+03  0.56305399211E+03  0.77000000000E+02 0.  0.
   -5000001    1    1    2    0    0  0.87412975560E+01  0.98158970660E+02  0.54849336371E+03  0.56257049678E+03  0.77000000000E+02 0.  0.
<mgrwt>
<rscale>  0 0.25012474E+03</rscale>
<asrwt>0</asrwt>
<pdfrwt beam="1">  1        2 0.17100832E+00 0.25012474E+03</pdfrwt>
<pdfrwt beam="2">  1       -2 0.21647581E-02 0.25012474E+03</pdfrwt>
<totfact> 0.15373873E+04</totfact>
</mgrwt>
</event>
<event>
 4    1  0.6148427E-004  0.2426626E+03  0.7818608E-02  0.1118032E+00
         -2   -1    0    0    0  501 -0.00000000000E+00  0.00000000000E+00  0.99770048135E+02  0.99770048168E+02  0.25500000000E-02 0. -1.
          2   -1    0    0  501    0  0.00000000000E+00 -0.00000000000E+00 -0.14755216605E+03  0.14755216607E+03  0.25500000000E-02 0.  1.
    5000001    1    1    2    0    0  0.92848497212E+02  0.59599620384E+01 -0.35773490932E+02  0.12595676733E+03  0.77000000000E+02 0.  0.
   -5000001    1    1    2    0    0 -0.92848497212E+02 -0.59599620384E+01 -0.12008626982E+02  0.12136544691E+03  0.77000000000E+02 0.  0.
<mgrwt>
<rscale>  0 0.24266262E+03</rscale>
<asrwt>0</asrwt>
<pdfrwt beam="1">  1        2 0.22700333E-01 0.24266262E+03</pdfrwt>
<pdfrwt beam="2">  1       -2 0.15349238E-01 0.24266262E+03</pdfrwt>
<totfact> 0.77799576E+03</totfact>
</mgrwt>
</event>
<event>
 4    1  0.6148427E-004  0.1805477E+03  0.7818608E-02  0.1167274E+00
         -2   -1    0    0    0  501 -0.00000000000E+00  0.00000000000E+00  0.74644220424E+01  0.74644224779E+01  0.25500000000E-02 0. -1.
          2   -1    0    0  501    0  0.00000000000E+00 -0.00000000000E+00 -0.10917614970E+04  0.10917614970E+04  0.25500000000E-02 0.  1.
    5000001    1    1    2    0    0 -0.31370558083E+02  0.23308019853E+02 -0.70242119559E+03  0.70770891736E+03  0.77000000000E+02 0.  0.
   -5000001    1    1    2    0    0  0.31370558083E+02 -0.23308019853E+02 -0.38187587941E+03  0.39151700216E+03  0.77000000000E+02 0.  0.
<mgrwt>
<rscale>  0 0.18054771E+03</rscale>
<asrwt>0</asrwt>
<pdfrwt beam="1">  1        2 0.16796318E+00 0.18054771E+03</pdfrwt>
<pdfrwt beam="2">  1       -2 0.11483735E-02 0.18054771E+03</pdfrwt>
<totfact> 0.39009539E+04</totfact>
</mgrwt>
</event>
<event>
 4    1  0.6148427E-004  0.3597579E+03  0.7818608E-02  0.1058680E+00
          2   -1    0    0  501    0  0.00000000000E+00  0.00000000000E+00  0.83356492432E+03  0.83356492432E+03  0.25500000000E-02 0.  1.
         -2   -1    0    0    0  501 -0.00000000000E+00 -0.00000000000E+00 -0.38816935444E+02  0.38816935528E+02  0.25500000000E-02 0. -1.
    5000001    1    1    2    0    0 -0.77542383341E+02  0.95352026225E+02  0.65540356835E+03  0.67125827185E+03  0.77000000000E+02 0.  0.
   -5000001    1    1    2    0    0  0.77542383341E+02 -0.95352026225E+02  0.13934442053E+03  0.20112358800E+03  0.77000000000E+02 0.  0.
<mgrwt>
<rscale>  0 0.35975790E+03</rscale>
<asrwt>0</asrwt>
<pdfrwt beam="1">  1        2 0.12824074E+00 0.35975790E+03</pdfrwt>
<pdfrwt beam="2">  1       -2 0.59718370E-02 0.35975790E+03</pdfrwt>
<totfact> 0.50372239E+03</totfact>
</mgrwt>
</event>
<event>
 4    1  0.6148427E-004  0.7505951E+03  0.7818608E-02  0.9634417E-01
         -2   -1    0    0    0  501 -0.00000000000E+00  0.00000000000E+00  0.18112046690E+03  0.18112046692E+03  0.25500000000E-02 0. -1.
          2   -1    0    0  501    0  0.00000000000E+00 -0.00000000000E+00 -0.77764959703E+03  0.77764959703E+03  0.25500000000E-02 0.  1.
    5000001    1    1    2    0    0  0.33990843596E+03  0.13016149814E+03 -0.23517479658E+03  0.44013173640E+03  0.77000000000E+02 0.  0.
   -5000001    1    1    2    0    0 -0.33990843596E+03 -0.13016149814E+03 -0.36135433355E+03  0.51863832755E+03  0.77000000000E+02 0.  0.
<mgrwt>
<rscale>  0 0.75059512E+03</rscale>
<asrwt>0</asrwt>
<pdfrwt beam="1">  1        2 0.11963840E+00 0.75059512E+03</pdfrwt>
<pdfrwt beam="2">  1       -2 0.27864688E-01 0.75059512E+03</pdfrwt>
<totfact> 0.42275209E+02</totfact>
</mgrwt>
</event>
<event>
 4    1  0.6148427E-004  0.2757376E+03  0.7818608E-02  0.1098040E+00
         -2   -1    0    0    0  501 -0.00000000000E+00  0.00000000000E+00  0.29200852008E+03  0.29200852009E+03  0.25500000000E-02 0. -1.
          2   -1    0    0  501    0  0.00000000000E+00 -0.00000000000E+00 -0.65093335799E+02  0.65093335849E+02  0.25500000000E-02 0.  1.
    5000001    1    1    2    0    0 -0.35027068866E+02 -0.53899150600E+02  0.23595582428E+03  0.25639064921E+03  0.77000000000E+02 0.  0.
   -5000001    1    1    2    0    0  0.35027068866E+02  0.53899150600E+02 -0.90406400057E+01  0.10071120673E+03  0.77000000000E+02 0.  0.
<mgrwt>
<rscale>  0 0.27573762E+03</rscale>
<asrwt>0</asrwt>
<pdfrwt beam="1">  1        2 0.10014359E-01 0.27573762E+03</pdfrwt>
<pdfrwt beam="2">  1       -2 0.44924387E-01 0.27573762E+03</pdfrwt>
<totfact> 0.30281727E+03</totfact>
</mgrwt>
</event>
<event>
 4    1  0.6148427E-004  0.6853051E+03  0.7818608E-02  0.9742698E-01
         -2   -1    0    0    0  501 -0.00000000000E+00  0.00000000000E+00  0.37761663521E+03  0.37761663522E+03  0.25500000000E-02 0.  1.
          2   -1    0    0  501    0  0.00000000000E+00 -0.00000000000E+00 -0.31092582257E+03  0.31092582258E+03  0.25500000000E-02 0. -1.
    5000001    1    1    2    0    0  0.15732305487E+03  0.28546625556E+03 -0.39386037495E+02  0.33722661017E+03  0.77000000000E+02 0.  0.
   -5000001    1    1    2    0    0 -0.15732305487E+03 -0.28546625556E+03  0.10607685014E+03  0.35131584762E+03  0.77000000000E+02 0.  0.
<mgrwt>
<rscale>  0 0.68530508E+03</rscale>
<asrwt>0</asrwt>
<pdfrwt beam="1">  1        2 0.47834742E-01 0.68530508E+03</pdfrwt>
<pdfrwt beam="2">  1       -2 0.58094867E-01 0.68530508E+03</pdfrwt>
<totfact> 0.29533318E+02</totfact>
</mgrwt>
</event>
<event>
 4    1  0.6148427E-004  0.3143508E+03  0.7818608E-02  0.1078279E+00
          2   -1    0    0  501    0  0.00000000000E+00  0.00000000000E+00  0.13623121041E+03  0.13623121043E+03  0.25500000000E-02 0.  1.
         -2   -1    0    0    0  501 -0.00000000000E+00 -0.00000000000E+00 -0.18133951205E+03  0.18133951207E+03  0.25500000000E-02 0. -1.
    5000001    1    1    2    0    0 -0.57003693862E+02  0.12321793047E+03 -0.41264709064E+02  0.16144304171E+03  0.77000000000E+02 0.  0.
   -5000001    1    1    2    0    0  0.57003693862E+02 -0.12321793047E+03 -0.38435925744E+01  0.15612768079E+03  0.77000000000E+02 0.  0.
<mgrwt>
<rscale>  0 0.31435077E+03</rscale>
<asrwt>0</asrwt>
<pdfrwt beam="1">  1        2 0.20958648E-01 0.31435077E+03</pdfrwt>
<pdfrwt beam="2">  1       -2 0.27898387E-01 0.31435077E+03</pdfrwt>
<totfact> 0.30728253E+03</totfact>
</mgrwt>
</event>
<event>
 4    1  0.6148427E-004  0.1789110E+04  0.7818608E-02  0.8712112E-01
         -2   -1    0    0    0  501 -0.00000000000E+00  0.00000000000E+00  0.84401499145E+03  0.84401499146E+03  0.25500000000E-02 0. -1.
          2   -1    0    0  501    0  0.00000000000E+00 -0.00000000000E+00 -0.94812128812E+03  0.94812128813E+03  0.25500000000E-02 0.  1.
    5000001    1    1    2    0    0 -0.85748177165E+00  0.89122821423E+03 -0.48713473515E+02  0.89587413603E+03  0.77000000000E+02 0.  0.
   -5000001    1    1    2    0    0  0.85748177165E+00 -0.89122821423E+03 -0.55392823157E+02  0.89626214355E+03  0.77000000000E+02 0.  0.
<mgrwt>
<rscale>  0 0.17891099E+04</rscale>
<asrwt>0</asrwt>
<pdfrwt beam="1">  1        2 0.14586481E+00 0.17891099E+04</pdfrwt>
<pdfrwt beam="2">  1       -2 0.12984846E+00 0.17891099E+04</pdfrwt>
<totfact> 0.11205885E+01</totfact>
</mgrwt>
</event>
<event>
 4    1  0.6148427E-004  0.2989475E+03  0.7818608E-02  0.1085768E+00
         -2   -1    0    0    0  501 -0.00000000000E+00  0.00000000000E+00  0.30506825436E+02  0.30506825543E+02  0.25500000000E-02 0. -1.
          2   -1    0    0  501    0  0.00000000000E+00 -0.00000000000E+00 -0.73237376080E+03  0.73237376080E+03  0.25500000000E-02 0.  1.
    5000001    1    1    2    0    0  0.49608216662E+02  0.60027232839E+02 -0.91327836025E+02  0.14259739645E+03  0.77000000000E+02 0.  0.
   -5000001    1    1    2    0    0 -0.49608216662E+02 -0.60027232839E+02 -0.61053909934E+03  0.62028318989E+03  0.77000000000E+02 0.  0.
<mgrwt>
<rscale>  0 0.29894748E+03</rscale>
<asrwt>0</asrwt>
<pdfrwt beam="1">  1        2 0.11267287E+00 0.29894748E+03</pdfrwt>
<pdfrwt beam="2">  1       -2 0.46933583E-02 0.29894748E+03</pdfrwt>
<totfact> 0.85523928E+03</totfact>
</mgrwt>
</event>
<event>
 4    1  0.6148427E-004  0.1543001E+04  0.7818608E-02  0.8856351E-01
         -2   -1    0    0    0  501 -0.00000000000E+00  0.00000000000E+00  0.11210406768E+04  0.11210406768E+04  0.25500000000E-02 0. -1.
          2   -1    0    0  501    0  0.00000000000E+00 -0.00000000000E+00 -0.53094689816E+03  0.53094689817E+03  0.25500000000E-02 0.  1.
    5000001    1    1    2    0    0 -0.70746409760E+03  0.48415330607E+02  0.60981034550E+03  0.93842802127E+03  0.77000000000E+02 0.  0.
   -5000001    1    1    2    0    0  0.70746409760E+03 -0.48415330607E+02 -0.19716566888E+02  0.71355955367E+03  0.77000000000E+02 0.  0.
<mgrwt>
<rscale>  0 0.15430011E+04</rscale>
<asrwt>0</asrwt>
<pdfrwt beam="1">  1        2 0.81684137E-01 0.15430011E+04</pdfrwt>
<pdfrwt beam="2">  1       -2 0.17246780E+00 0.15430011E+04</pdfrwt>
<totfact> 0.11304546E+01</totfact>
</mgrwt>
</event>
<event>
 4    1  0.6148427E-004  0.1853033E+03  0.7818608E-02  0.1162767E+00
          2   -1    0    0  501    0  0.00000000000E+00  0.00000000000E+00  0.20890789634E+04  0.20890789634E+04  0.25500000000E-02 0.  1.
         -2   -1    0    0    0  501 -0.00000000000E+00 -0.00000000000E+00 -0.41091442970E+01  0.41091450883E+01  0.25500000000E-02 0. -1.
    5000001    1    1    2    0    0  0.60000541787E+01  0.51155901614E+02  0.10599875981E+04  0.10640280236E+04  0.77000000000E+02 0.  0.
   -5000001    1    1    2    0    0 -0.60000541787E+01 -0.51155901614E+02  0.10249822210E+04  0.10291600849E+04  0.77000000000E+02 0.  0.
<mgrwt>
<rscale>  0 0.18530329E+03</rscale>
<asrwt>0</asrwt>
<pdfrwt beam="1">  1        2 0.32139669E+00 0.18530329E+03</pdfrwt>
<pdfrwt beam="2">  1       -2 0.63217626E-03 0.18530329E+03</pdfrwt>
<totfact> 0.27172825E+04</totfact>
</mgrwt>
</event>
<event>
 4    1  0.6148427E-004  0.2977834E+03  0.7818608E-02  0.1086354E+00
         -2   -1    0    0    0  501 -0.00000000000E+00  0.00000000000E+00  0.56269697159E+03  0.56269697159E+03  0.25500000000E-02 0. -1.
          2   -1    0    0  501    0  0.00000000000E+00 -0.00000000000E+00 -0.39397299500E+02  0.39397299583E+02  0.25500000000E-02 0.  1.
    5000001    1    1    2    0    0  0.29903957221E+02  0.70517128185E+02  0.46757650520E+03  0.48002468711E+03  0.77000000000E+02 0.  0.
   -5000001    1    1    2    0    0 -0.29903957221E+02 -0.70517128185E+02  0.55723166889E+02  0.12206958406E+03  0.77000000000E+02 0.  0.
<mgrwt>
<rscale>  0 0.29778342E+03</rscale>
<asrwt>0</asrwt>
<pdfrwt beam="1">  1        2 0.60611231E-02 0.29778342E+03</pdfrwt>
<pdfrwt beam="2">  1       -2 0.86568764E-01 0.29778342E+03</pdfrwt>
<totfact> 0.14576466E+03</totfact>
</mgrwt>
</event>
<event>
 4    1  0.6148427E-004  0.1952218E+03  0.7818608E-02  0.1153834E+00
          2   -1    0    0  501    0  0.00000000000E+00  0.00000000000E+00  0.21115943486E+03  0.21115943488E+03  0.25500000000E-02 0.  1.
         -2   -1    0    0    0  501 -0.00000000000E+00 -0.00000000000E+00 -0.45121749104E+02  0.45121749176E+02  0.25500000000E-02 0. -1.
    5000001    1    1    2    0    0  0.30364486006E+02 -0.20998170347E+02  0.14509435722E+03  0.16835764808E+03  0.77000000000E+02 0.  0.
   -5000001    1    1    2    0    0 -0.30364486006E+02  0.20998170347E+02  0.20943328535E+02  0.87923535976E+02  0.77000000000E+02 0.  0.
<mgrwt>
<rscale>  0 0.19522175E+03</rscale>
<asrwt>0</asrwt>
<pdfrwt beam="1">  1        2 0.32486067E-01 0.19522175E+03</pdfrwt>
<pdfrwt beam="2">  1       -2 0.69418076E-02 0.19522175E+03</pdfrwt>
<totfact> 0.18261182E+04</totfact>
</mgrwt>
</event>
<event>
 4    1  0.6148427E-004  0.1942076E+04  0.7818608E-02  0.8634191E-01
          2   -1    0    0  501    0  0.00000000000E+00  0.00000000000E+00  0.17598723630E+04  0.17598723630E+04  0.25500000000E-02 0.  1.
         -2   -1    0    0    0  501 -0.00000000000E+00 -0.00000000000E+00 -0.53578585116E+03  0.53578585117E+03  0.25500000000E-02 0. -1.
    5000001    1    1    2    0    0 -0.69863606004E+03 -0.66907019693E+03  0.65364182227E+03  0.11700102156E+04  0.77000000000E+02 0.  0.
   -5000001    1    1    2    0    0  0.69863606004E+03  0.66907019693E+03  0.57044468958E+03  0.11256479986E+04  0.77000000000E+02 0.  0.
<mgrwt>
<rscale>  0 0.19420759E+04</rscale>
<asrwt>0</asrwt>
<pdfrwt beam="1">  1        2 0.27074960E+00 0.19420759E+04</pdfrwt>
<pdfrwt beam="2">  1       -2 0.82428592E-01 0.19420759E+04</pdfrwt>
<totfact> 0.10953406E+01</totfact>
</mgrwt>
</event>
<event>
 4    1  0.6148427E-004  0.2206033E+03  0.7818608E-02  0.1133434E+00
         -2   -1    0    0    0  501 -0.00000000000E+00  0.00000000000E+00  0.24653969792E+02  0.24653969924E+02  0.25500000000E-02 0. -1.
          2   -1    0    0  501    0  0.00000000000E+00 -0.00000000000E+00 -0.49348866827E+03  0.49348866827E+03  0.25500000000E-02 0.  1.
    5000001    1    1    2    0    0 -0.55076110001E+02  0.54024337867E+02 -0.19473470079E+03  0.22316498531E+03  0.77000000000E+02 0.  0.
   -5000001    1    1    2    0    0  0.55076110001E+02 -0.54024337867E+02 -0.27409999768E+03  0.29497765289E+03  0.77000000000E+02 0.  0.
<mgrwt>
<rscale>  0 0.22060331E+03</rscale>
<asrwt>0</asrwt>
<pdfrwt beam="1">  1        2 0.75921326E-01 0.22060331E+03</pdfrwt>
<pdfrwt beam="2">  1       -2 0.37929188E-02 0.22060331E+03</pdfrwt>
<totfact> 0.18415570E+04</totfact>
</mgrwt>
</event>
<event>
 4    1  0.6148427E-004  0.1972805E+03  0.7818608E-02  0.1152054E+00
          2   -1    0    0  501    0  0.00000000000E+00  0.00000000000E+00  0.77057348553E+03  0.77057348553E+03  0.25500000000E-02 0.  1.
         -2   -1    0    0    0  501 -0.00000000000E+00 -0.00000000000E+00 -0.12626822405E+02  0.12626822662E+02  0.25500000000E-02 0. -1.
    5000001    1    1    2    0    0 -0.42218969201E+02 -0.14700982202E+02  0.21043197979E+03  0.22849327858E+03  0.77000000000E+02 0.  0.
   -5000001    1    1    2    0    0  0.42218969201E+02  0.14700982202E+02  0.54751468334E+03  0.55470702962E+03  0.77000000000E+02 0.  0.
<mgrwt>
<rscale>  0 0.19728046E+03</rscale>
<asrwt>0</asrwt>
<pdfrwt beam="1">  1        2 0.11854981E+00 0.19728046E+03</pdfrwt>
<pdfrwt beam="2">  1       -2 0.19425874E-02 0.19728046E+03</pdfrwt>
<totfact> 0.29204950E+04</totfact>
</mgrwt>
</event>
<event>
 4    1  0.6148427E-004  0.3079268E+03  0.7818608E-02  0.1081344E+00
         -2   -1    0    0    0  501 -0.00000000000E+00  0.00000000000E+00  0.11102257724E+03  0.11102257727E+03  0.25500000000E-02 0. -1.
          2   -1    0    0  501    0  0.00000000000E+00 -0.00000000000E+00 -0.21351263498E+03  0.21351263500E+03  0.25500000000E-02 0.  1.
    5000001    1    1    2    0    0 -0.76410856795E+02  0.10920292902E+03 -0.47620916582E+02  0.16112309095E+03  0.77000000000E+02 0.  0.
   -5000001    1    1    2    0    0  0.76410856795E+02 -0.10920292902E+03 -0.54869141154E+02  0.16341212132E+03  0.77000000000E+02 0.  0.
<mgrwt>
<rscale>  0 0.30792676E+03</rscale>
<asrwt>0</asrwt>
<pdfrwt beam="1">  1        2 0.32848098E-01 0.30792676E+03</pdfrwt>
<pdfrwt beam="2">  1       -2 0.17080396E-01 0.30792676E+03</pdfrwt>
<totfact> 0.43603716E+03</totfact>
</mgrwt>
</event>
<event>
 4    1  0.6148427E-004  0.5241826E+03  0.7818608E-02  0.1007653E+00
         -2   -1    0    0    0  501 -0.00000000000E+00  0.00000000000E+00  0.36363517646E+02  0.36363517735E+02  0.25500000000E-02 0. -1.
          2   -1    0    0  501    0  0.00000000000E+00 -0.00000000000E+00 -0.18890316766E+04  0.18890316766E+04  0.25500000000E-02 0.  1.
    5000001    1    1    2    0    0 -0.11068345093E+03  0.16137077187E+03 -0.35173161992E+03  0.40979932256E+03  0.77000000000E+02 0.  0.
   -5000001    1    1    2    0    0  0.11068345093E+03 -0.16137077187E+03 -0.15009365391E+04  0.15155958718E+04  0.77000000000E+02 0.  0.
<mgrwt>
<rscale>  0 0.52418255E+03</rscale>
<asrwt>0</asrwt>
<pdfrwt beam="1">  1        2 0.29062018E+00 0.52418255E+03</pdfrwt>
<pdfrwt beam="2">  1       -2 0.55943888E-02 0.52418255E+03</pdfrwt>
<totfact> 0.13773116E+03</totfact>
</mgrwt>
</event>
<event>
 4    1  0.6148427E-004  0.2879824E+03  0.7818608E-02  0.1091407E+00
         -2   -1    0    0    0  501 -0.00000000000E+00  0.00000000000E+00  0.31164744830E+02  0.31164744934E+02  0.25500000000E-02 0. -1.
          2   -1    0    0  501    0  0.00000000000E+00 -0.00000000000E+00 -0.66528585090E+03  0.66528585091E+03  0.25500000000E-02 0.  1.
    5000001    1    1    2    0    0  0.52129621898E+02 -0.83867039567E+02 -0.14514652073E+03  0.19169687083E+03  0.77000000000E+02 0.  0.
   -5000001    1    1    2    0    0 -0.52129621898E+02  0.83867039567E+02 -0.48897458534E+03  0.50475372501E+03  0.77000000000E+02 0.  0.
<mgrwt>
<rscale>  0 0.28798239E+03</rscale>
<asrwt>0</asrwt>
<pdfrwt beam="1">  1        2 0.10235166E+00 0.28798239E+03</pdfrwt>
<pdfrwt beam="2">  1       -2 0.47945767E-02 0.28798239E+03</pdfrwt>
<totfact> 0.92951975E+03</totfact>
</mgrwt>
</event>
<event>
 4    1  0.6148427E-004  0.2949396E+03  0.7818608E-02  0.1087798E+00
         -2   -1    0    0    0  501 -0.00000000000E+00  0.00000000000E+00  0.13766885663E+03  0.13766885665E+03  0.25500000000E-02 0. -1.
          2   -1    0    0  501    0  0.00000000000E+00 -0.00000000000E+00 -0.15796848110E+03  0.15796848112E+03  0.25500000000E-02 0.  1.
    5000001    1    1    2    0    0  0.11490468779E+03  0.34062153167E+02  0.28085187072E+02  0.14519330318E+03  0.77000000000E+02 0.  0.
   -5000001    1    1    2    0    0 -0.11490468779E+03 -0.34062153167E+02 -0.48384811542E+02  0.15044403459E+03  0.77000000000E+02 0.  0.
<mgrwt>
<rscale>  0 0.29493959E+03</rscale>
<asrwt>0</asrwt>
<pdfrwt beam="1">  1        2 0.24302843E-01 0.29493959E+03</pdfrwt>
<pdfrwt beam="2">  1       -2 0.21179824E-01 0.29493959E+03</pdfrwt>
<totfact> 0.42149538E+03</totfact>
</mgrwt>
</event>
<event>
 4    1  0.6148427E-004  0.6844209E+03  0.7818608E-02  0.9744252E-01
          2   -1    0    0  501    0  0.00000000000E+00  0.00000000000E+00  0.10814257145E+04  0.10814257145E+04  0.25500000000E-02 0.  1.
         -2   -1    0    0    0  501 -0.00000000000E+00 -0.00000000000E+00 -0.10829037748E+03  0.10829037751E+03  0.25500000000E-02 0. -1.
    5000001    1    1    2    0    0  0.26729426263E+03  0.18945981574E+03  0.59425351845E+03  0.68294032595E+03  0.77000000000E+02 0.  0.
   -5000001    1    1    2    0    0 -0.26729426263E+03 -0.18945981574E+03  0.37888181854E+03  0.50677576603E+03  0.77000000000E+02 0.  0.
<mgrwt>
<rscale>  0 0.68442092E+03</rscale>
<asrwt>0</asrwt>
<pdfrwt beam="1">  1        2 0.16637318E+00 0.68442092E+03</pdfrwt>
<pdfrwt beam="2">  1       -2 0.16660059E-01 0.68442092E+03</pdfrwt>
<totfact> 0.66081913E+02</totfact>
</mgrwt>
</event>
<event>
 4    1  0.6148427E-004  0.1958379E+03  0.7818608E-02  0.1153299E+00
          2   -1    0    0  501    0  0.00000000000E+00  0.00000000000E+00  0.25570570298E+02  0.25570570425E+02  0.25500000000E-02 0.  1.
         -2   -1    0    0    0  501 -0.00000000000E+00 -0.00000000000E+00 -0.37496715670E+03  0.37496715671E+03  0.25500000000E-02 0. -1.
    5000001    1    1    2    0    0 -0.47857196721E+02  0.33961828907E+02 -0.14468065748E+03  0.17408391582E+03  0.77000000000E+02 0.  0.
   -5000001    1    1    2    0    0  0.47857196721E+02 -0.33961828907E+02 -0.20471592893E+03  0.22645381131E+03  0.77000000000E+02 0.  0.
<mgrwt>
<rscale>  0 0.19583793E+03</rscale>
<asrwt>0</asrwt>
<pdfrwt beam="1">  1        2 0.39339342E-02 0.19583793E+03</pdfrwt>
<pdfrwt beam="2">  1       -2 0.57687251E-01 0.19583793E+03</pdfrwt>
<totfact> 0.60528571E+03</totfact>
</mgrwt>
</event>
<event>
 4    1  0.6148427E-004  0.1691379E+03  0.7818608E-02  0.1178750E+00
          2   -1    0    0  501    0  0.00000000000E+00  0.00000000000E+00  0.52891286863E+01  0.52891293011E+01  0.25500000000E-02 0.  1.
         -2   -1    0    0    0  501 -0.00000000000E+00 -0.00000000000E+00 -0.13521900932E+04  0.13521900932E+04  0.25500000000E-02 0. -1.
    5000001    1    1    2    0    0  0.31864028381E+02  0.32143302892E+01 -0.56072779797E+03  0.56689532689E+03  0.77000000000E+02 0.  0.
   -5000001    1    1    2    0    0 -0.31864028381E+02 -0.32143302892E+01 -0.78617316658E+03  0.79058389566E+03  0.77000000000E+02 0.  0.
<mgrwt>
<rscale>  0 0.16913791E+03</rscale>
<asrwt>0</asrwt>
<pdfrwt beam="1">  1        2 0.81371323E-03 0.16913791E+03</pdfrwt>
<pdfrwt beam="2">  1       -2 0.20802897E+00 0.16913791E+03</pdfrwt>
<totfact> 0.24065100E+03</totfact>
</mgrwt>
</event>
<event>
 4    1  0.6148427E-004  0.7513530E+03  0.7818608E-02  0.9633230E-01
         -2   -1    0    0    0  501 -0.00000000000E+00  0.00000000000E+00  0.17186849861E+03  0.17186849863E+03  0.25500000000E-02 0. -1.
          2   -1    0    0  501    0  0.00000000000E+00 -0.00000000000E+00 -0.82116747101E+03  0.82116747102E+03  0.25500000000E-02 0.  1.
    5000001    1    1    2    0    0 -0.20055458435E+03 -0.17266657173E+03 -0.66204394877E+03  0.71712417084E+03  0.77000000000E+02 0.  0.
   -5000001    1    1    2    0    0  0.20055458435E+03  0.17266657173E+03  0.12744976369E+02  0.27591179880E+03  0.77000000000E+02 0.  0.
<mgrwt>
<rscale>  0 0.75135297E+03</rscale>
<asrwt>0</asrwt>
<pdfrwt beam="1">  1        2 0.12633345E+00 0.75135297E+03</pdfrwt>
<pdfrwt beam="2">  1       -2 0.26441308E-01 0.75135297E+03</pdfrwt>
<totfact> 0.43285603E+02</totfact>
</mgrwt>
</event>
<event>
 4    1  0.6148427E-004  0.1721043E+03  0.7818608E-02  0.1175671E+00
         -2   -1    0    0    0  501 -0.00000000000E+00  0.00000000000E+00  0.94830421782E+01  0.94830425211E+01  0.25500000000E-02 0. -1.
          2   -1    0    0  501    0  0.00000000000E+00 -0.00000000000E+00 -0.78086473713E+03  0.78086473714E+03  0.25500000000E-02 0.  1.
    5000001    1    1    2    0    0 -0.36879470691E+02 -0.10546157306E+02 -0.39560053916E+03  0.40484577727E+03  0.77000000000E+02 0.  0.
   -5000001    1    1    2    0    0  0.36879470691E+02  0.10546157306E+02 -0.37578115580E+03  0.38550200239E+03  0.77000000000E+02 0.  0.
<mgrwt>
<rscale>  0 0.17210431E+03</rscale>
<asrwt>0</asrwt>
<pdfrwt beam="1">  1        2 0.12013299E+00 0.17210431E+03</pdfrwt>
<pdfrwt beam="2">  1       -2 0.14589302E-02 0.17210431E+03</pdfrwt>
<totfact> 0.43091706E+04</totfact>
</mgrwt>
</event>
<event>
 4    1  0.6148427E-004  0.4407638E+03  0.7818608E-02  0.1030513E+00
          2   -1    0    0  501    0  0.00000000000E+00  0.00000000000E+00  0.34101541798E+04  0.34101541798E+04  0.25500000000E-02 0.  1.
         -2   -1    0    0    0  501 -0.00000000000E+00 -0.00000000000E+00 -0.14242225949E+02  0.14242226177E+02  0.25500000000E-02 0. -1.
    5000001    1    1    2    0    0 -0.16982554855E+03  0.36161921747E+02  0.25662622975E+04  0.25732818697E+04  0.77000000000E+02 0.  0.
   -5000001    1    1    2    0    0  0.16982554855E+03 -0.36161921747E+02  0.82964965632E+03  0.85111453622E+03  0.77000000000E+02 0.  0.
<mgrwt>
<rscale>  0 0.44076382E+03</rscale>
<asrwt>0</asrwt>
<pdfrwt beam="1">  1        2 0.52464011E+00 0.44076382E+03</pdfrwt>
<pdfrwt beam="2">  1       -2 0.21911075E-02 0.44076382E+03</pdfrwt>
<totfact> 0.76101505E+02</totfact>
</mgrwt>
</event>
<event>
 4    1  0.6148427E-004  0.4063425E+03  0.7818608E-02  0.1041605E+00
         -2   -1    0    0    0  501 -0.00000000000E+00  0.00000000000E+00  0.50143707520E+02  0.50143707585E+02  0.25500000000E-02 0. -1.
          2   -1    0    0  501    0  0.00000000000E+00 -0.00000000000E+00 -0.82320503360E+03  0.82320503360E+03  0.25500000000E-02 0.  1.
    5000001    1    1    2    0    0  0.11835048930E+03  0.14583695461E+03 -0.36800470938E+03  0.42027576872E+03  0.77000000000E+02 0.  0.
   -5000001    1    1    2    0    0 -0.11835048930E+03 -0.14583695461E+03 -0.40505661669E+03  0.45307297246E+03  0.77000000000E+02 0.  0.
<mgrwt>
<rscale>  0 0.40634248E+03</rscale>
<asrwt>0</asrwt>
<pdfrwt beam="1">  1        2 0.12664692E+00 0.40634248E+03</pdfrwt>
<pdfrwt beam="2">  1       -2 0.77144171E-02 0.40634248E+03</pdfrwt>
<totfact> 0.34395727E+03</totfact>
</mgrwt>
</event>
<event>
 4    1  0.6148427E-004  0.4810767E+03  0.7818608E-02  0.1018840E+00
         -2   -1    0    0    0  501 -0.00000000000E+00  0.00000000000E+00  0.15788027112E+03  0.15788027114E+03  0.25500000000E-02 0. -1.
          2   -1    0    0  501    0  0.00000000000E+00 -0.00000000000E+00 -0.36647200838E+03  0.36647200839E+03  0.25500000000E-02 0.  1.
    5000001    1    1    2    0    0  0.76709504990E+02 -0.29894332799E+02  0.12730798938E+03  0.17004218139E+03  0.77000000000E+02 0.  0.
   -5000001    1    1    2    0    0 -0.76709504990E+02  0.29894332799E+02 -0.33589972664E+03  0.35431009814E+03  0.77000000000E+02 0.  0.
<mgrwt>
<rscale>  0 0.48107671E+03</rscale>
<asrwt>0</asrwt>
<pdfrwt beam="1">  1        2 0.56380309E-01 0.48107671E+03</pdfrwt>
<pdfrwt beam="2">  1       -2 0.24289273E-01 0.48107671E+03</pdfrwt>
<totfact> 0.13231758E+03</totfact>
</mgrwt>
</event>
<event>
 4    1  0.6148427E-004  0.2391289E+03  0.7818608E-02  0.1120375E+00
          2   -1    0    0  501    0  0.00000000000E+00  0.00000000000E+00  0.26925080729E+02  0.26925080850E+02  0.25500000000E-02 0.  1.
         -2   -1    0    0    0  501 -0.00000000000E+00 -0.00000000000E+00 -0.53094184579E+03  0.53094184580E+03  0.25500000000E-02 0. -1.
    5000001    1    1    2    0    0  0.44266577830E+02 -0.46832467955E+02 -0.40344739339E+03  0.41575426541E+03  0.77000000000E+02 0.  0.
   -5000001    1    1    2    0    0 -0.44266577830E+02  0.46832467955E+02 -0.10056937167E+03  0.14211266125E+03  0.77000000000E+02 0.  0.
<mgrwt>
<rscale>  0 0.23912885E+03</rscale>
<asrwt>0</asrwt>
<pdfrwt beam="1">  1        2 0.41423205E-02 0.23912885E+03</pdfrwt>
<pdfrwt beam="2">  1       -2 0.81683353E-01 0.23912885E+03</pdfrwt>
<totfact> 0.27250129E+03</totfact>
</mgrwt>
</event>
<event>
 4    1  0.6148427E-004  0.4641192E+03  0.7818608E-02  0.1023593E+00
          2   -1    0    0  501    0  0.00000000000E+00  0.00000000000E+00  0.64034397293E+03  0.64034397294E+03  0.25500000000E-02 0. -1.
         -2   -1    0    0    0  501 -0.00000000000E+00 -0.00000000000E+00 -0.84098009302E+02  0.84098009341E+02  0.25500000000E-02 0.  1.
    5000001    1    1    2    0    0  0.53353167030E+02  0.14860561129E+03  0.51480587160E+03  0.54395245525E+03  0.77000000000E+02 0.  0.
   -5000001    1    1    2    0    0 -0.53353167030E+02 -0.14860561129E+03  0.41440092030E+02  0.18048952703E+03  0.77000000000E+02 0.  0.
<mgrwt>
<rscale>  0 0.46411918E+03</rscale>
<asrwt>0</asrwt>
<pdfrwt beam="1">  1        2 0.98514457E-01 0.46411918E+03</pdfrwt>
<pdfrwt beam="2">  1       -2 0.12938155E-01 0.46411918E+03</pdfrwt>
<totfact> 0.20521888E+03</totfact>
</mgrwt>
</event>
<event>
 4    1  0.6148427E-004  0.2033957E+03  0.7818608E-02  0.1146905E+00
         -2   -1    0    0    0  501 -0.00000000000E+00  0.00000000000E+00  0.40841421672E+02  0.40841421752E+02  0.25500000000E-02 0. -1.
          2   -1    0    0  501    0  0.00000000000E+00 -0.00000000000E+00 -0.25323436589E+03  0.25323436590E+03  0.25500000000E-02 0.  1.
    5000001    1    1    2    0    0 -0.51340574642E+02  0.41265895819E+02 -0.11869457251E+03  0.15606450687E+03  0.77000000000E+02 0.  0.
   -5000001    1    1    2    0    0  0.51340574642E+02 -0.41265895819E+02 -0.93698371714E+02  0.13801128079E+03  0.77000000000E+02 0.  0.
<mgrwt>
<rscale>  0 0.20339569E+03</rscale>
<asrwt>0</asrwt>
<pdfrwt beam="1">  1        2 0.38959132E-01 0.20339569E+03</pdfrwt>
<pdfrwt beam="2">  1       -2 0.62832958E-02 0.20339569E+03</pdfrwt>
<totfact> 0.17543640E+04</totfact>
</mgrwt>
</event>
<event>
 4    1  0.6148427E-004  0.2937798E+03  0.7818608E-02  0.1088392E+00
         -2   -1    0    0    0  501 -0.00000000000E+00  0.00000000000E+00  0.66223051138E+03  0.66223051139E+03  0.25500000000E-02 0. -1.
          2   -1    0    0  501    0  0.00000000000E+00 -0.00000000000E+00 -0.32581773732E+02  0.32581773831E+02  0.25500000000E-02 0.  1.
    5000001    1    1    2    0    0 -0.84274969481E+02 -0.79611926829E+02  0.42594065786E+03  0.44810129814E+03  0.77000000000E+02 0.  0.
   -5000001    1    1    2    0    0  0.84274969481E+02  0.79611926829E+02  0.20370807979E+03  0.24671098708E+03  0.77000000000E+02 0.  0.
<mgrwt>
<rscale>  0 0.29377981E+03</rscale>
<asrwt>0</asrwt>
<pdfrwt beam="1">  1        2 0.50125809E-02 0.29377981E+03</pdfrwt>
<pdfrwt beam="2">  1       -2 0.10188161E+00 0.29377981E+03</pdfrwt>
<totfact> 0.12883167E+03</totfact>
</mgrwt>
</event>
<event>
 4    1  0.6148427E-004  0.1789915E+03  0.7818608E-02  0.1168783E+00
         -2   -1    0    0    0  501 -0.00000000000E+00  0.00000000000E+00  0.17687687777E+03  0.17687687779E+03  0.25500000000E-02 0. -1.
          2   -1    0    0  501    0  0.00000000000E+00 -0.00000000000E+00 -0.45282870142E+02  0.45282870214E+02  0.25500000000E-02 0.  1.
    5000001    1    1    2    0    0  0.44824005983E+02 -0.10336150940E+01  0.55395336926E+02  0.10491855520E+03  0.77000000000E+02 0.  0.
   -5000001    1    1    2    0    0 -0.44824005983E+02  0.10336150940E+01  0.76198670701E+02  0.11724119280E+03  0.77000000000E+02 0.  0.
<mgrwt>
<rscale>  0 0.17899154E+03</rscale>
<asrwt>0</asrwt>
<pdfrwt beam="1">  1        2 0.69665953E-02 0.17899154E+03</pdfrwt>
<pdfrwt beam="2">  1       -2 0.27211828E-01 0.17899154E+03</pdfrwt>
<totfact> 0.11888540E+04</totfact>
</mgrwt>
</event>
<event>
 4    1  0.6148427E-004  0.4059265E+03  0.7818608E-02  0.1041747E+00
          2   -1    0    0  501    0  0.00000000000E+00  0.00000000000E+00  0.22773898462E+04  0.22773898462E+04  0.25500000000E-02 0.  1.
         -2   -1    0    0    0  501 -0.00000000000E+00 -0.00000000000E+00 -0.18088287221E+02  0.18088287401E+02  0.25500000000E-02 0. -1.
    5000001    1    1    2    0    0 -0.13458507634E+03 -0.12272409973E+03  0.13882190238E+04  0.14022322937E+04  0.77000000000E+02 0.  0.
   -5000001    1    1    2    0    0  0.13458507634E+03  0.12272409973E+03  0.87108253515E+03  0.89324583989E+03  0.77000000000E+02 0.  0.
<mgrwt>
<rscale>  0 0.40592650E+03</rscale>
<asrwt>0</asrwt>
<pdfrwt beam="1">  1        2 0.35036748E+00 0.40592650E+03</pdfrwt>
<pdfrwt beam="2">  1       -2 0.27828149E-02 0.40592650E+03</pdfrwt>
<totfact> 0.24867528E+03</totfact>
</mgrwt>
</event>
<event>
 4    1  0.6148427E-004  0.3523532E+03  0.7818608E-02  0.1061653E+00
          2   -1    0    0  501    0  0.00000000000E+00  0.00000000000E+00  0.33890359289E+02  0.33890359385E+02  0.25500000000E-02 0.  1.
         -2   -1    0    0    0  501 -0.00000000000E+00 -0.00000000000E+00 -0.91584159288E+03  0.91584159288E+03  0.25500000000E-02 0. -1.
    5000001    1    1    2    0    0 -0.11197339665E+03 -0.11158675644E+03 -0.41150382804E+03  0.44749753772E+03  0.77000000000E+02 0.  0.
   -5000001    1    1    2    0    0  0.11197339665E+03  0.11158675644E+03 -0.47044740555E+03  0.50223441455E+03  0.77000000000E+02 0.  0.
<mgrwt>
<rscale>  0 0.35235324E+03</rscale>
<asrwt>0</asrwt>
<pdfrwt beam="1">  1        2 0.52139021E-02 0.35235324E+03</pdfrwt>
<pdfrwt beam="2">  1       -2 0.14089869E+00 0.35235324E+03</pdfrwt>
<totfact> 0.55629799E+02</totfact>
</mgrwt>
</event>
<event>
 4    1  0.6148427E-004  0.3298777E+03  0.7818608E-02  0.1071191E+00
          2   -1    0    0  501    0  0.00000000000E+00  0.00000000000E+00  0.18155873835E+04  0.18155873835E+04  0.25500000000E-02 0.  1.
         -2   -1    0    0    0  501 -0.00000000000E+00 -0.00000000000E+00 -0.14984037951E+02  0.14984038168E+02  0.25500000000E-02 0. -1.
    5000001    1    1    2    0    0  0.11467831389E+03 -0.84764721192E+02  0.73019619231E+03  0.74796500780E+03  0.77000000000E+02 0.  0.
   -5000001    1    1    2    0    0 -0.11467831389E+03  0.84764721192E+02  0.10704071532E+04  0.10826064138E+04  0.77000000000E+02 0.  0.
<mgrwt>
<rscale>  0 0.32987774E+03</rscale>
<asrwt>0</asrwt>
<pdfrwt beam="1">  1        2 0.27932109E+00 0.32987774E+03</pdfrwt>
<pdfrwt beam="2">  1       -2 0.23052370E-02 0.32987774E+03</pdfrwt>
<totfact> 0.58259466E+03</totfact>
</mgrwt>
</event>
<event>
 4    1  0.6148427E-004  0.2000711E+03  0.7818608E-02  0.1149679E+00
          2   -1    0    0  501    0  0.00000000000E+00  0.00000000000E+00  0.61239229208E+03  0.61239229209E+03  0.25500000000E-02 0.  1.
         -2   -1    0    0    0  501 -0.00000000000E+00 -0.00000000000E+00 -0.16341010521E+02  0.16341010720E+02  0.25500000000E-02 0. -1.
    5000001    1    1    2    0    0 -0.29655749187E+01  0.47076905465E+02  0.16274702334E+03  0.18611991636E+03  0.77000000000E+02 0.  0.
   -5000001    1    1    2    0    0  0.29655749187E+01 -0.47076905465E+02  0.43330425823E+03  0.44261338644E+03  0.77000000000E+02 0.  0.
<mgrwt>
<rscale>  0 0.20007108E+03</rscale>
<asrwt>0</asrwt>
<pdfrwt beam="1">  1        2 0.94214197E-01 0.20007108E+03</pdfrwt>
<pdfrwt beam="2">  1       -2 0.25140017E-02 0.20007108E+03</pdfrwt>
<totfact> 0.26369978E+04</totfact>
</mgrwt>
</event>
<event>
 4    1  0.6148427E-004  0.2033327E+03  0.7818608E-02  0.1146957E+00
          2   -1    0    0  501    0  0.00000000000E+00  0.00000000000E+00  0.31111162836E+03  0.31111162837E+03  0.25500000000E-02 0.  1.
         -2   -1    0    0    0  501 -0.00000000000E+00 -0.00000000000E+00 -0.33222941706E+02  0.33222941804E+02  0.25500000000E-02 0. -1.
    5000001    1    1    2    0    0  0.25332634919E+02 -0.59889588845E+02  0.11631671038E+03  0.15390608292E+03  0.77000000000E+02 0.  0.
   -5000001    1    1    2    0    0 -0.25332634919E+02  0.59889588845E+02  0.16157197627E+03  0.19042848726E+03  0.77000000000E+02 0.  0.
<mgrwt>
<rscale>  0 0.20333267E+03</rscale>
<asrwt>0</asrwt>
<pdfrwt beam="1">  1        2 0.47863328E-01 0.20333267E+03</pdfrwt>
<pdfrwt beam="2">  1       -2 0.51112217E-02 0.20333267E+03</pdfrwt>
<totfact> 0.19272315E+04</totfact>
</mgrwt>
</event>
<event>
 4    1  0.6148427E-004  0.2022718E+03  0.7818608E-02  0.1147836E+00
          2   -1    0    0  501    0  0.00000000000E+00  0.00000000000E+00  0.62156414924E+02  0.62156414976E+02  0.25500000000E-02 0.  1.
         -2   -1    0    0    0  501 -0.00000000000E+00 -0.00000000000E+00 -0.16456022067E+03  0.16456022069E+03  0.25500000000E-02 0. -1.
    5000001    1    1    2    0    0 -0.17085551840E+02  0.60468849346E+02 -0.30200501731E+02  0.10387236460E+03  0.77000000000E+02 0.  0.
   -5000001    1    1    2    0    0  0.17085551840E+02 -0.60468849346E+02 -0.72203304017E+02  0.12284427107E+03  0.77000000000E+02 0.  0.
<mgrwt>
<rscale>  0 0.20227183E+03</rscale>
<asrwt>0</asrwt>
<pdfrwt beam="1">  1        2 0.95625254E-02 0.20227183E+03</pdfrwt>
<pdfrwt beam="2">  1       -2 0.25316957E-01 0.20227183E+03</pdfrwt>
<totfact> 0.91396371E+03</totfact>
</mgrwt>
</event>
<event>
 4    1  0.6148427E-004  0.1960857E+03  0.7818608E-02  0.1153084E+00
         -2   -1    0    0    0  501 -0.00000000000E+00  0.00000000000E+00  0.55294644958E+01  0.55294650838E+01  0.25500000000E-02 0. -1.
          2   -1    0    0  501    0  0.00000000000E+00 -0.00000000000E+00 -0.17383964699E+04  0.17383964699E+04  0.25500000000E-02 0.  1.
    5000001    1    1    2    0    0  0.28002225035E+02 -0.51278304811E+02 -0.10125211348E+04  0.10171241997E+04  0.77000000000E+02 0.  0.
   -5000001    1    1    2    0    0 -0.28002225035E+02  0.51278304811E+02 -0.72034587055E+03  0.72680173525E+03  0.77000000000E+02 0.  0.
<mgrwt>
<rscale>  0 0.19608572E+03</rscale>
<asrwt>0</asrwt>
<pdfrwt beam="1">  1        2 0.26744518E+00 0.19608572E+03</pdfrwt>
<pdfrwt beam="2">  1       -2 0.85068828E-03 0.19608572E+03</pdfrwt>
<totfact> 0.27055489E+04</totfact>
</mgrwt>
</event>
<event>
 4    1  0.6148427E-004  0.2799755E+03  0.7818608E-02  0.1095702E+00
         -2   -1    0    0    0  501 -0.00000000000E+00  0.00000000000E+00  0.12931127020E+02  0.12931127272E+02  0.25500000000E-02 0. -1.
          2   -1    0    0  501    0  0.00000000000E+00 -0.00000000000E+00 -0.15154573771E+04  0.15154573771E+04  0.25500000000E-02 0.  1.
    5000001    1    1    2    0    0  0.88523778872E+02  0.39654848350E+02 -0.39501923574E+03  0.41397845720E+03  0.77000000000E+02 0.  0.
   -5000001    1    1    2    0    0 -0.88523778872E+02 -0.39654848350E+02 -0.11075070144E+04  0.11144100472E+04  0.77000000000E+02 0.  0.
<mgrwt>
<rscale>  0 0.27997551E+03</rscale>
<asrwt>0</asrwt>
<pdfrwt beam="1">  1        2 0.23314715E+00 0.27997551E+03</pdfrwt>
<pdfrwt beam="2">  1       -2 0.19894054E-02 0.27997551E+03</pdfrwt>
<totfact> 0.10434265E+04</totfact>
</mgrwt>
</event>
<event>
 4    1  0.6148427E-004  0.2582657E+03  0.7818608E-02  0.1108190E+00
         -2   -1    0    0    0  501 -0.00000000000E+00  0.00000000000E+00  0.53621753303E+01  0.53621759367E+01  0.25500000000E-02 0. -1.
          2   -1    0    0  501    0  0.00000000000E+00 -0.00000000000E+00 -0.31098000221E+04  0.31098000221E+04  0.25500000000E-02 0.  1.
    5000001    1    1    2    0    0 -0.82256792589E+02  0.58829192725E+02 -0.12773674833E+04  0.12836758707E+04  0.77000000000E+02 0.  0.
   -5000001    1    1    2    0    0  0.82256792589E+02 -0.58829192725E+02 -0.18270703635E+04  0.18314863273E+04  0.77000000000E+02 0.  0.
<mgrwt>
<rscale>  0 0.25826571E+03</rscale>
<asrwt>0</asrwt>
<pdfrwt beam="1">  1        2 0.47842933E+00 0.25826571E+03</pdfrwt>
<pdfrwt beam="2">  1       -2 0.82495258E-03 0.25826571E+03</pdfrwt>
<totfact> 0.50536673E+03</totfact>
</mgrwt>
</event>
<event>
 4    1  0.6148427E-004  0.2448424E+03  0.7818608E-02  0.1116608E+00
          2   -1    0    0  501    0  0.00000000000E+00  0.00000000000E+00  0.91813437573E+03  0.91813437574E+03  0.25500000000E-02 0.  1.
         -2   -1    0    0    0  501 -0.00000000000E+00 -0.00000000000E+00 -0.16323261449E+02  0.16323261648E+02  0.25500000000E-02 0. -1.
    5000001    1    1    2    0    0 -0.88153001594E+02  0.32278449510E+01  0.58726854739E+03  0.59882778611E+03  0.77000000000E+02 0.  0.
   -5000001    1    1    2    0    0  0.88153001594E+02 -0.32278449510E+01  0.31454256690E+03  0.33562985127E+03  0.77000000000E+02 0.  0.
<mgrwt>
<rscale>  0 0.24484238E+03</rscale>
<asrwt>0</asrwt>
<pdfrwt beam="1">  1        2 0.14125149E+00 0.24484238E+03</pdfrwt>
<pdfrwt beam="2">  1       -2 0.25112702E-02 0.24484238E+03</pdfrwt>
<totfact> 0.16174882E+04</totfact>
</mgrwt>
</event>
<event>
 4    1  0.6148427E-004  0.5428071E+03  0.7818608E-02  0.1003173E+00
          2   -1    0    0  501    0  0.00000000000E+00  0.00000000000E+00  0.46130797743E+03  0.46130797744E+03  0.25500000000E-02 0.  1.
         -2   -1    0    0    0  501 -0.00000000000E+00 -0.00000000000E+00 -0.15967614048E+03  0.15967614050E+03  0.25500000000E-02 0. -1.
    5000001    1    1    2    0    0 -0.11600277412E+02 -0.25425282795E+03  0.21297137136E+03  0.34068294935E+03  0.77000000000E+02 0.  0.
   -5000001    1    1    2    0    0  0.11600277412E+02  0.25425282795E+03  0.88660465587E+02  0.28030116859E+03  0.77000000000E+02 0.  0.
<mgrwt>
<rscale>  0 0.54280706E+03</rscale>
<asrwt>0</asrwt>
<pdfrwt beam="1">  1        2 0.70970456E-01 0.54280706E+03</pdfrwt>
<pdfrwt beam="2">  1       -2 0.24565561E-01 0.54280706E+03</pdfrwt>
<totfact> 0.10027302E+03</totfact>
</mgrwt>
</event>
<event>
 4    1  0.6148427E-004  0.4594005E+03  0.7818608E-02  0.1024955E+00
          2   -1    0    0  501    0  0.00000000000E+00  0.00000000000E+00  0.36786950531E+04  0.36786950531E+04  0.25500000000E-02 0.  1.
         -2   -1    0    0    0  501 -0.00000000000E+00 -0.00000000000E+00 -0.14342643560E+02  0.14342643787E+02  0.25500000000E-02 0. -1.
    5000001    1    1    2    0    0 -0.40490935241E+00  0.15554553619E+03  0.62264421010E+03  0.64638176811E+03  0.77000000000E+02 0.  0.
   -5000001    1    1    2    0    0  0.40490935241E+00 -0.15554553619E+03  0.30417081995E+04  0.30466559288E+04  0.77000000000E+02 0.  0.
<mgrwt>
<rscale>  0 0.45940053E+03</rscale>
<asrwt>0</asrwt>
<pdfrwt beam="1">  1        2 0.56595318E+00 0.45940053E+03</pdfrwt>
<pdfrwt beam="2">  1       -2 0.22065602E-02 0.45940053E+03</pdfrwt>
<totfact> 0.49292836E+02</totfact>
</mgrwt>
</event>
<event>
 4    1  0.6148427E-004  0.1007892E+04  0.7818608E-02  0.9299932E-01
         -2   -1    0    0    0  501 -0.00000000000E+00  0.00000000000E+00  0.82949999199E+02  0.82949999238E+02  0.25500000000E-02 0. -1.
          2   -1    0    0  501    0  0.00000000000E+00 -0.00000000000E+00 -0.30616196865E+04  0.30616196865E+04  0.25500000000E-02 0.  1.
    5000001    1    1    2    0    0  0.31249728983E+02  0.49700708937E+03 -0.15090073894E+04  0.15909195120E+04  0.77000000000E+02 0.  0.
   -5000001    1    1    2    0    0 -0.31249728983E+02 -0.49700708937E+03 -0.14696622979E+04  0.15536501737E+04  0.77000000000E+02 0.  0.
<mgrwt>
<rscale>  0 0.10078916E+04</rscale>
<asrwt>0</asrwt>
<pdfrwt beam="1">  1        2 0.47101832E+00 0.10078916E+04</pdfrwt>
<pdfrwt beam="2">  1       -2 0.12761541E-01 0.10078916E+04</pdfrwt>
<totfact> 0.75077627E+01</totfact>
</mgrwt>
</event>
<event>
 4    1  0.6148427E-004  0.2601906E+03  0.7818608E-02  0.1107029E+00
          2   -1    0    0  501    0  0.00000000000E+00  0.00000000000E+00  0.66906278252E+02  0.66906278300E+02  0.25500000000E-02 0.  1.
         -2   -1    0    0    0  501 -0.00000000000E+00 -0.00000000000E+00 -0.25296268409E+03  0.25296268410E+03  0.25500000000E-02 0. -1.
    5000001    1    1    2    0    0  0.33807980600E+02 -0.65504218982E+02 -0.18471278330E+03  0.21326414273E+03  0.77000000000E+02 0.  0.
   -5000001    1    1    2    0    0 -0.33807980600E+02  0.65504218982E+02 -0.13436225341E+01  0.10660481968E+03  0.77000000000E+02 0.  0.
<mgrwt>
<rscale>  0 0.26019064E+03</rscale>
<asrwt>0</asrwt>
<pdfrwt beam="1">  1        2 0.10293274E-01 0.26019064E+03</pdfrwt>
<pdfrwt beam="2">  1       -2 0.38917335E-01 0.26019064E+03</pdfrwt>
<totfact> 0.38512766E+03</totfact>
</mgrwt>
</event>
<event>
 4    1  0.6148427E-004  0.3430423E+03  0.7818608E-02  0.1065508E+00
         -2   -1    0    0    0  501 -0.00000000000E+00  0.00000000000E+00  0.27011191889E+02  0.27011192010E+02  0.25500000000E-02 0. -1.
          2   -1    0    0  501    0  0.00000000000E+00 -0.00000000000E+00 -0.10891595427E+04  0.10891595427E+04  0.25500000000E-02 0.  1.
    5000001    1    1    2    0    0 -0.12396763634E+03 -0.89911505841E+02 -0.51090000028E+03  0.53888761725E+03  0.77000000000E+02 0.  0.
   -5000001    1    1    2    0    0  0.12396763634E+03  0.89911505841E+02 -0.55124835053E+03  0.57728311746E+03  0.77000000000E+02 0.  0.
<mgrwt>
<rscale>  0 0.34304226E+03</rscale>
<asrwt>0</asrwt>
<pdfrwt beam="1">  1        2 0.16756297E+00 0.34304226E+03</pdfrwt>
<pdfrwt beam="2">  1       -2 0.41555688E-02 0.34304226E+03</pdfrwt>
<totfact> 0.60381601E+03</totfact>
</mgrwt>
</event>
<event>
 4    1  0.6148427E-004  0.3029040E+03  0.7818608E-02  0.1083798E+00
         -2   -1    0    0    0  501 -0.00000000000E+00  0.00000000000E+00  0.30469115344E+02  0.30469115450E+02  0.25500000000E-02 0. -1.
          2   -1    0    0  501    0  0.00000000000E+00 -0.00000000000E+00 -0.75281812036E+03  0.75281812036E+03  0.25500000000E-02 0.  1.
    5000001    1    1    2    0    0 -0.35237678185E+02  0.11420292723E+03 -0.49615636478E+03  0.51612415257E+03  0.77000000000E+02 0.  0.
   -5000001    1    1    2    0    0  0.35237678185E+02 -0.11420292723E+03 -0.22619264023E+03  0.26716308324E+03  0.77000000000E+02 0.  0.
<mgrwt>
<rscale>  0 0.30290396E+03</rscale>
<asrwt>0</asrwt>
<pdfrwt beam="1">  1        2 0.11581816E+00 0.30290396E+03</pdfrwt>
<pdfrwt beam="2">  1       -2 0.46875568E-02 0.30290396E+03</pdfrwt>
<totfact> 0.82834035E+03</totfact>
</mgrwt>
</event>
<event>
 4    1  0.6148427E-004  0.3567080E+03  0.7818608E-02  0.1059895E+00
          2   -1    0    0  501    0  0.00000000000E+00  0.00000000000E+00  0.18622240309E+04  0.18622240309E+04  0.25500000000E-02 0.  1.
         -2   -1    0    0    0  501 -0.00000000000E+00 -0.00000000000E+00 -0.17081807817E+02  0.17081808007E+02  0.25500000000E-02 0. -1.
    5000001    1    1    2    0    0 -0.12276272960E+02 -0.14451355344E+03  0.12893368860E+04  0.12997513145E+04  0.77000000000E+02 0.  0.
   -5000001    1    1    2    0    0  0.12276272960E+02  0.14451355344E+03  0.55580533710E+03  0.57955452440E+03  0.77000000000E+02 0.  0.
<mgrwt>
<rscale>  0 0.35670802E+03</rscale>
<asrwt>0</asrwt>
<pdfrwt beam="1">  1        2 0.28649585E+00 0.35670802E+03</pdfrwt>
<pdfrwt beam="2">  1       -2 0.26279718E-02 0.35670802E+03</pdfrwt>
<totfact> 0.45274501E+03</totfact>
</mgrwt>
</event>
<event>
 4    1  0.6148427E-004  0.2765246E+03  0.7818608E-02  0.1097602E+00
         -2   -1    0    0    0  501 -0.00000000000E+00  0.00000000000E+00  0.49178223318E+02  0.49178223385E+02  0.25500000000E-02 0. -1.
          2   -1    0    0  501    0  0.00000000000E+00 -0.00000000000E+00 -0.38871805194E+03  0.38871805195E+03  0.25500000000E-02 0.  1.
    5000001    1    1    2    0    0 -0.79887638070E+02 -0.75942233520E+02 -0.11874536541E+03  0.17938427845E+03  0.77000000000E+02 0.  0.
   -5000001    1    1    2    0    0  0.79887638070E+02  0.75942233520E+02 -0.22079446321E+03  0.25851199688E+03  0.77000000000E+02 0.  0.
<mgrwt>
<rscale>  0 0.27652460E+03</rscale>
<asrwt>0</asrwt>
<pdfrwt beam="1">  1        2 0.59802775E-01 0.27652460E+03</pdfrwt>
<pdfrwt beam="2">  1       -2 0.75658808E-02 0.27652460E+03</pdfrwt>
<totfact> 0.84475340E+03</totfact>
</mgrwt>
</event>
<event>
 4    1  0.6148427E-004  0.2175848E+03  0.7818608E-02  0.1135697E+00
         -2   -1    0    0    0  501 -0.00000000000E+00  0.00000000000E+00  0.15854972319E+02  0.15854972524E+02  0.25500000000E-02 0. -1.
          2   -1    0    0  501    0  0.00000000000E+00 -0.00000000000E+00 -0.74650322101E+03  0.74650322101E+03  0.25500000000E-02 0.  1.
    5000001    1    1    2    0    0  0.59429317914E+02  0.47872440161E+02 -0.39727798358E+03  0.41180384966E+03  0.77000000000E+02 0.  0.
   -5000001    1    1    2    0    0 -0.59429317914E+02 -0.47872440161E+02 -0.33337026510E+03  0.35055434388E+03  0.77000000000E+02 0.  0.
<mgrwt>
<rscale>  0 0.21758482E+03</rscale>
<asrwt>0</asrwt>
<pdfrwt beam="1">  1        2 0.11484662E+00 0.21758482E+03</pdfrwt>
<pdfrwt beam="2">  1       -2 0.24392271E-02 0.21758482E+03</pdfrwt>
<totfact> 0.21892757E+04</totfact>
</mgrwt>
</event>
<event>
 4    1  0.6148427E-004  0.1869604E+03  0.7818608E-02  0.1161232E+00
         -2   -1    0    0    0  501 -0.00000000000E+00  0.00000000000E+00  0.18182691834E+02  0.18182692013E+02  0.25500000000E-02 0. -1.
          2   -1    0    0  501    0  0.00000000000E+00 -0.00000000000E+00 -0.48059723846E+03  0.48059723847E+03  0.25500000000E-02 0.  1.
    5000001    1    1    2    0    0  0.45750547943E+02  0.25385695479E+02 -0.20856908569E+03  0.22840229789E+03  0.77000000000E+02 0.  0.
   -5000001    1    1    2    0    0 -0.45750547943E+02 -0.25385695479E+02 -0.25384546093E+03  0.27037763260E+03  0.77000000000E+02 0.  0.
<mgrwt>
<rscale>  0 0.18696044E+03</rscale>
<asrwt>0</asrwt>
<pdfrwt beam="1">  1        2 0.73938027E-01 0.18696044E+03</pdfrwt>
<pdfrwt beam="2">  1       -2 0.27973376E-02 0.18696044E+03</pdfrwt>
<totfact> 0.29451090E+04</totfact>
</mgrwt>
</event>
<event>
 4    1  0.6148427E-004  0.3534714E+03  0.7818608E-02  0.1061199E+00
          2   -1    0    0  501    0  0.00000000000E+00  0.00000000000E+00  0.20086244502E+03  0.20086244504E+03  0.25500000000E-02 0.  1.
         -2   -1    0    0    0  501 -0.00000000000E+00 -0.00000000000E+00 -0.15550696878E+03  0.15550696880E+03  0.25500000000E-02 0. -1.
    5000001    1    1    2    0    0  0.14384687990E+03 -0.55807534153E+02  0.61726462123E+02  0.18315447538E+03  0.77000000000E+02 0.  0.
   -5000001    1    1    2    0    0 -0.14384687990E+03  0.55807534153E+02 -0.16370985878E+02  0.17321493845E+03  0.77000000000E+02 0.  0.
<mgrwt>
<rscale>  0 0.35347141E+03</rscale>
<asrwt>0</asrwt>
<pdfrwt beam="1">  1        2 0.30901914E-01 0.35347141E+03</pdfrwt>
<pdfrwt beam="2">  1       -2 0.23924149E-01 0.35347141E+03</pdfrwt>
<totfact> 0.26194377E+03</totfact>
</mgrwt>
</event>
<event>
 4    1  0.6148427E-004  0.2824527E+03  0.7818608E-02  0.1094357E+00
          2   -1    0    0  501    0  0.00000000000E+00  0.00000000000E+00  0.45711027488E+03  0.45711027489E+03  0.25500000000E-02 0.  1.
         -2   -1    0    0    0  501 -0.00000000000E+00 -0.00000000000E+00 -0.43632546798E+02  0.43632546872E+02  0.25500000000E-02 0. -1.
    5000001    1    1    2    0    0 -0.94322934948E+02 -0.68674987276E+02  0.24232018563E+03  0.27975192993E+03  0.77000000000E+02 0.  0.
   -5000001    1    1    2    0    0  0.94322934948E+02  0.68674987276E+02  0.17115754245E+03  0.22099089183E+03  0.77000000000E+02 0.  0.
<mgrwt>
<rscale>  0 0.28245273E+03</rscale>
<asrwt>0</asrwt>
<pdfrwt beam="1">  1        2 0.70324657E-01 0.28245273E+03</pdfrwt>
<pdfrwt beam="2">  1       -2 0.67126996E-02 0.28245273E+03</pdfrwt>
<totfact> 0.85248620E+03</totfact>
</mgrwt>
</event>
<event>
 4    1  0.6148427E-004  0.2210300E+03  0.7818608E-02  0.1133117E+00
          2   -1    0    0  501    0  0.00000000000E+00  0.00000000000E+00  0.29682052906E+02  0.29682053016E+02  0.25500000000E-02 0.  1.
         -2   -1    0    0    0  501 -0.00000000000E+00 -0.00000000000E+00 -0.41147981953E+03  0.41147981954E+03  0.25500000000E-02 0. -1.
    5000001    1    1    2    0    0 -0.76459962784E+02 -0.42779469660E+01 -0.23181018211E+03  0.25598708418E+03  0.77000000000E+02 0.  0.
   -5000001    1    1    2    0    0  0.76459962784E+02  0.42779469660E+01 -0.14998758451E+03  0.18517478837E+03  0.77000000000E+02 0.  0.
<mgrwt>
<rscale>  0 0.22103001E+03</rscale>
<asrwt>0</asrwt>
<pdfrwt beam="1">  1        2 0.45664700E-02 0.22103001E+03</pdfrwt>
<pdfrwt beam="2">  1       -2 0.63304583E-01 0.22103001E+03</pdfrwt>
<totfact> 0.41254286E+03</totfact>
</mgrwt>
</event>
<event>
 4    1  0.6148427E-004  0.2420261E+03  0.7818608E-02  0.1118450E+00
         -2   -1    0    0    0  501 -0.00000000000E+00  0.00000000000E+00  0.11223112869E+02  0.11223113158E+02  0.25500000000E-02 0. -1.
          2   -1    0    0  501    0  0.00000000000E+00 -0.00000000000E+00 -0.13048215483E+04  0.13048215483E+04  0.25500000000E-02 0.  1.
    5000001    1    1    2    0    0  0.40581918894E+02  0.28373546626E+02 -0.21646401880E+03  0.23502685320E+03  0.77000000000E+02 0.  0.
   -5000001    1    1    2    0    0 -0.40581918894E+02 -0.28373546626E+02 -0.10771344167E+04  0.10810178083E+04  0.77000000000E+02 0.  0.
<mgrwt>
<rscale>  0 0.24202611E+03</rscale>
<asrwt>0</asrwt>
<pdfrwt beam="1">  1        2 0.20074166E+00 0.24202611E+03</pdfrwt>
<pdfrwt beam="2">  1       -2 0.17266338E-02 0.24202611E+03</pdfrwt>
<totfact> 0.16634307E+04</totfact>
</mgrwt>
</event>
<event>
 4    1  0.6148427E-004  0.2886138E+03  0.7818608E-02  0.1091075E+00
          2   -1    0    0  501    0  0.00000000000E+00  0.00000000000E+00  0.17422130351E+04  0.17422130351E+04  0.25500000000E-02 0.  1.
         -2   -1    0    0    0  501 -0.00000000000E+00 -0.00000000000E+00 -0.11952888556E+02  0.11952888828E+02  0.25500000000E-02 0. -1.
    5000001    1    1    2    0    0 -0.90805249667E+02 -0.80186190326E+02  0.95529220380E+03  0.96601636277E+03  0.77000000000E+02 0.  0.
   -5000001    1    1    2    0    0  0.90805249667E+02  0.80186190326E+02  0.77496794277E+03  0.78814956119E+03  0.77000000000E+02 0.  0.
<mgrwt>
<rscale>  0 0.28861378E+03</rscale>
<asrwt>0</asrwt>
<pdfrwt beam="1">  1        2 0.26803277E+00 0.28861378E+03</pdfrwt>
<pdfrwt beam="2">  1       -2 0.18389060E-02 0.28861378E+03</pdfrwt>
<totfact> 0.88871505E+03</totfact>
</mgrwt>
</event>
<event>
 4    1  0.6148427E-004  0.3871921E+03  0.7818608E-02  0.1048307E+00
         -2   -1    0    0    0  501 -0.00000000000E+00  0.00000000000E+00  0.22137376296E+02  0.22137376443E+02  0.25500000000E-02 0. -1.
          2   -1    0    0  501    0  0.00000000000E+00 -0.00000000000E+00 -0.16930387909E+04  0.16930387909E+04  0.25500000000E-02 0.  1.
    5000001    1    1    2    0    0  0.13098067538E+03 -0.10307377635E+03 -0.11074513599E+04  0.11225674391E+04  0.77000000000E+02 0.  0.
   -5000001    1    1    2    0    0 -0.13098067538E+03  0.10307377635E+03 -0.56345005472E+03  0.59260872830E+03  0.77000000000E+02 0.  0.
<mgrwt>
<rscale>  0 0.38719213E+03</rscale>
<asrwt>0</asrwt>
<pdfrwt beam="1">  1        2 0.26046740E+00 0.38719213E+03</pdfrwt>
<pdfrwt beam="2">  1       -2 0.34057516E-02 0.38719213E+03</pdfrwt>
<totfact> 0.37718523E+03</totfact>
</mgrwt>
</event>
<event>
 4    1  0.6148427E-004  0.2943676E+03  0.7818608E-02  0.1088091E+00
          2   -1    0    0  501    0  0.00000000000E+00  0.00000000000E+00  0.15480608824E+03  0.15480608826E+03  0.25500000000E-02 0.  1.
         -2   -1    0    0    0  501 -0.00000000000E+00 -0.00000000000E+00 -0.13993682821E+03  0.13993682823E+03  0.25500000000E-02 0. -1.
    5000001    1    1    2    0    0  0.74102126936E+02  0.10076974071E+03 -0.19798639240E+01  0.14689651364E+03  0.77000000000E+02 0.  0.
   -5000001    1    1    2    0    0 -0.74102126936E+02 -0.10076974071E+03  0.16849123954E+02  0.14784640285E+03  0.77000000000E+02 0.  0.
<mgrwt>
<rscale>  0 0.29436761E+03</rscale>
<asrwt>0</asrwt>
<pdfrwt beam="1">  1        2 0.23816321E-01 0.29436761E+03</pdfrwt>
<pdfrwt beam="2">  1       -2 0.21528743E-01 0.29436761E+03</pdfrwt>
<totfact> 0.41915875E+03</totfact>
</mgrwt>
</event>
<event>
 4    1  0.6148427E-004  0.2669948E+03  0.7818608E-02  0.1103012E+00
          2   -1    0    0  501    0  0.00000000000E+00  0.00000000000E+00  0.20392927269E+04  0.20392927269E+04  0.25500000000E-02 0.  1.
         -2   -1    0    0    0  501 -0.00000000000E+00 -0.00000000000E+00 -0.87390870959E+01  0.87390874679E+01  0.25500000000E-02 0. -1.
    5000001    1    1    2    0    0 -0.73934686988E+02  0.10684104949E+02  0.40585254166E+03  0.41979253639E+03  0.77000000000E+02 0.  0.
   -5000001    1    1    2    0    0  0.73934686988E+02 -0.10684104949E+02  0.16247010982E+04  0.16282392780E+04  0.77000000000E+02 0.  0.
<mgrwt>
<rscale>  0 0.26699481E+03</rscale>
<asrwt>0</asrwt>
<pdfrwt beam="1">  1        2 0.31373759E+00 0.26699481E+03</pdfrwt>
<pdfrwt beam="2">  1       -2 0.13444739E-02 0.26699481E+03</pdfrwt>
<totfact> 0.98046097E+03</totfact>
</mgrwt>
</event>
<event>
 4    1  0.6148427E-004  0.3809967E+03  0.7818608E-02  0.1050566E+00
         -2   -1    0    0    0  501 -0.00000000000E+00  0.00000000000E+00  0.51821524353E+03  0.51821524354E+03  0.25500000000E-02 0. -1.
          2   -1    0    0  501    0  0.00000000000E+00 -0.00000000000E+00 -0.70028090622E+02  0.70028090669E+02  0.25500000000E-02 0.  1.
    5000001    1    1    2    0    0  0.39483244391E+02 -0.75779638865E+02 -0.10360275937E+02  0.11548946087E+03  0.77000000000E+02 0.  0.
   -5000001    1    1    2    0    0 -0.39483244391E+02  0.75779638865E+02  0.45854742885E+03  0.47275387334E+03  0.77000000000E+02 0.  0.
<mgrwt>
<rscale>  0 0.38099671E+03</rscale>
<asrwt>0</asrwt>
<pdfrwt beam="1">  1        2 0.10773552E-01 0.38099671E+03</pdfrwt>
<pdfrwt beam="2">  1       -2 0.79725425E-01 0.38099671E+03</pdfrwt>
<totfact> 0.84330669E+02</totfact>
</mgrwt>
</event>
<event>
 4    1  0.6148427E-004  0.1853324E+03  0.7818608E-02  0.1162740E+00
          2   -1    0    0  501    0  0.00000000000E+00  0.00000000000E+00  0.73152115319E+03  0.73152115319E+03  0.25500000000E-02 0.  1.
         -2   -1    0    0    0  501 -0.00000000000E+00 -0.00000000000E+00 -0.11738591476E+02  0.11738591752E+02  0.25500000000E-02 0. -1.
    5000001    1    1    2    0    0  0.34109543305E+02  0.18208571745E+02  0.49665844497E+03  0.50407700204E+03  0.77000000000E+02 0.  0.
   -5000001    1    1    2    0    0 -0.34109543305E+02 -0.18208571745E+02  0.22312411674E+03  0.23918274290E+03  0.77000000000E+02 0.  0.
<mgrwt>
<rscale>  0 0.18533244E+03</rscale>
<asrwt>0</asrwt>
<pdfrwt beam="1">  1        2 0.11254174E+00 0.18533244E+03</pdfrwt>
<pdfrwt beam="2">  1       -2 0.18059367E-02 0.18533244E+03</pdfrwt>
<totfact> 0.34464729E+04</totfact>
</mgrwt>
</event>
<event>
 4    1  0.6148427E-004  0.1936196E+03  0.7818608E-02  0.1155237E+00
         -2   -1    0    0    0  501 -0.00000000000E+00  0.00000000000E+00  0.53668313104E+03  0.53668313105E+03  0.25500000000E-02 0. -1.
          2   -1    0    0  501    0  0.00000000000E+00 -0.00000000000E+00 -0.17463076105E+02  0.17463076291E+02  0.25500000000E-02 0.  1.
    5000001    1    1    2    0    0  0.22768936198E+02  0.30627028848E+02  0.13204222741E+03  0.15754551460E+03  0.77000000000E+02 0.  0.
   -5000001    1    1    2    0    0 -0.22768936198E+02 -0.30627028848E+02  0.38717782753E+03  0.39660069274E+03  0.77000000000E+02 0.  0.
<mgrwt>
<rscale>  0 0.19361961E+03</rscale>
<asrwt>0</asrwt>
<pdfrwt beam="1">  1        2 0.26866267E-02 0.19361961E+03</pdfrwt>
<pdfrwt beam="2">  1       -2 0.82566649E-01 0.19361961E+03</pdfrwt>
<totfact> 0.47160131E+03</totfact>
</mgrwt>
</event>
<event>
 4    1  0.6148427E-004  0.2528844E+03  0.7818608E-02  0.1111495E+00
          2   -1    0    0  501    0  0.00000000000E+00  0.00000000000E+00  0.10643517452E+04  0.10643517452E+04  0.25500000000E-02 0.  1.
         -2   -1    0    0    0  501 -0.00000000000E+00 -0.00000000000E+00 -0.15021004407E+02  0.15021004623E+02  0.25500000000E-02 0. -1.
    5000001    1    1    2    0    0  0.78152130243E+02 -0.46487606207E+02  0.34409390293E+03  0.36414072421E+03  0.77000000000E+02 0.  0.
   -5000001    1    1    2    0    0 -0.78152130243E+02  0.46487606207E+02  0.70523683783E+03  0.71523202558E+03  0.77000000000E+02 0.  0.
<mgrwt>
<rscale>  0 0.25288442E+03</rscale>
<asrwt>0</asrwt>
<pdfrwt beam="1">  1        2 0.16374644E+00 0.25288442E+03</pdfrwt>
<pdfrwt beam="2">  1       -2 0.23109236E-02 0.25288442E+03</pdfrwt>
<totfact> 0.14891688E+04</totfact>
</mgrwt>
</event>
<event>
 4    1  0.6148427E-004  0.3036833E+03  0.7818608E-02  0.1083414E+00
         -2   -1    0    0    0  501 -0.00000000000E+00  0.00000000000E+00  0.71566036245E+02  0.71566036291E+02  0.25500000000E-02 0. -1.
          2   -1    0    0  501    0  0.00000000000E+00 -0.00000000000E+00 -0.32216230676E+03  0.32216230677E+03  0.25500000000E-02 0.  1.
    5000001    1    1    2    0    0  0.12148559706E+03  0.38874741632E+02 -0.16325031542E+03  0.22101959487E+03  0.77000000000E+02 0.  0.
   -5000001    1    1    2    0    0 -0.12148559706E+03 -0.38874741632E+02 -0.87345955096E+02  0.17270874819E+03  0.77000000000E+02 0.  0.
<mgrwt>
<rscale>  0 0.30368325E+03</rscale>
<asrwt>0</asrwt>
<pdfrwt beam="1">  1        2 0.49563431E-01 0.30368325E+03</pdfrwt>
<pdfrwt beam="2">  1       -2 0.11010160E-01 0.30368325E+03</pdfrwt>
<totfact> 0.57389385E+03</totfact>
</mgrwt>
</event>
<event>
 4    1  0.6148427E-004  0.4308018E+03  0.7818608E-02  0.1033607E+00
          2   -1    0    0  501    0  0.00000000000E+00  0.00000000000E+00  0.83000793932E+03  0.83000793933E+03  0.25500000000E-02 0.  1.
         -2   -1    0    0    0  501 -0.00000000000E+00 -0.00000000000E+00 -0.55900126120E+02  0.55900126178E+02  0.25500000000E-02 0. -1.
    5000001    1    1    2    0    0 -0.18629759906E+03  0.74350135072E+02  0.35560951743E+03  0.41547787774E+03  0.77000000000E+02 0.  0.
   -5000001    1    1    2    0    0  0.18629759906E+03 -0.74350135072E+02  0.41849829577E+03  0.47043018777E+03  0.77000000000E+02 0.  0.
<mgrwt>
<rscale>  0 0.43080180E+03</rscale>
<asrwt>0</asrwt>
<pdfrwt beam="1">  1        2 0.12769353E+00 0.43080180E+03</pdfrwt>
<pdfrwt beam="2">  1       -2 0.86000197E-02 0.43080180E+03</pdfrwt>
<totfact> 0.28661730E+03</totfact>
</mgrwt>
</event>
<event>
 4    1  0.6148427E-004  0.2415833E+03  0.7818608E-02  0.1118743E+00
          2   -1    0    0  501    0  0.00000000000E+00  0.00000000000E+00  0.34412111130E+03  0.34412111131E+03  0.25500000000E-02 0.  1.
         -2   -1    0    0    0  501 -0.00000000000E+00 -0.00000000000E+00 -0.42399669561E+02  0.42399669637E+02  0.25500000000E-02 0. -1.
    5000001    1    1    2    0    0 -0.80396762420E+02 -0.13303867242E+02  0.78934383244E+02  0.13711407349E+03  0.77000000000E+02 0.  0.
   -5000001    1    1    2    0    0  0.80396762420E+02  0.13303867242E+02  0.22278705850E+03  0.24940670746E+03  0.77000000000E+02 0.  0.
<mgrwt>
<rscale>  0 0.24158329E+03</rscale>
<asrwt>0</asrwt>
<pdfrwt beam="1">  1        2 0.52941708E-01 0.24158329E+03</pdfrwt>
<pdfrwt beam="2">  1       -2 0.65230263E-02 0.24158329E+03</pdfrwt>
<totfact> 0.12049072E+04</totfact>
</mgrwt>
</event>
<event>
 4    1  0.6148427E-004  0.3055550E+03  0.7818608E-02  0.1082496E+00
         -2   -1    0    0    0  501 -0.00000000000E+00  0.00000000000E+00  0.29389167101E+02  0.29389167211E+02  0.25500000000E-02 0. -1.
          2   -1    0    0  501    0  0.00000000000E+00 -0.00000000000E+00 -0.79420311629E+03  0.79420311629E+03  0.25500000000E-02 0.  1.
    5000001    1    1    2    0    0 -0.11455547951E+03  0.27072975499E+01 -0.55877911438E+03  0.57558091179E+03  0.77000000000E+02 0.  0.
   -5000001    1    1    2    0    0  0.11455547951E+03 -0.27072975499E+01 -0.20603483481E+03  0.24801137172E+03  0.77000000000E+02 0.  0.
<mgrwt>
<rscale>  0 0.30555502E+03</rscale>
<asrwt>0</asrwt>
<pdfrwt beam="1">  1        2 0.12218508E+00 0.30555502E+03</pdfrwt>
<pdfrwt beam="2">  1       -2 0.45214109E-02 0.30555502E+03</pdfrwt>
<totfact> 0.81804463E+03</totfact>
</mgrwt>
</event>
<event>
 4    1  0.6148427E-004  0.4043775E+03  0.7818608E-02  0.1042274E+00
          2   -1    0    0  501    0  0.00000000000E+00  0.00000000000E+00  0.12459571639E+04  0.12459571639E+04  0.25500000000E-02 0.  1.
         -2   -1    0    0    0  501 -0.00000000000E+00 -0.00000000000E+00 -0.32810342251E+02  0.32810342350E+02  0.25500000000E-02 0. -1.
    5000001    1    1    2    0    0 -0.55103215947E+02  0.17017016840E+03  0.77853543807E+03  0.80252145077E+03  0.77000000000E+02 0.  0.
   -5000001    1    1    2    0    0  0.55103215947E+02 -0.17017016840E+03  0.43461138355E+03  0.47624605545E+03  0.77000000000E+02 0.  0.
<mgrwt>
<rscale>  0 0.40437745E+03</rscale>
<asrwt>0</asrwt>
<pdfrwt beam="1">  1        2 0.19168568E+00 0.40437745E+03</pdfrwt>
<pdfrwt beam="2">  1       -2 0.50477460E-02 0.40437745E+03</pdfrwt>
<totfact> 0.36411996E+03</totfact>
</mgrwt>
</event>
<event>
 4    1  0.6148427E-004  0.2404898E+03  0.7818608E-02  0.1119467E+00
         -2   -1    0    0    0  501 -0.00000000000E+00  0.00000000000E+00  0.15708865244E+03  0.15708865246E+03  0.25500000000E-02 0. -1.
          2   -1    0    0  501    0  0.00000000000E+00 -0.00000000000E+00 -0.92042558639E+02  0.92042558674E+02  0.25500000000E-02 0.  1.
    5000001    1    1    2    0    0  0.76683881705E+02 -0.46478034295E+02  0.96100563064E+01  0.11858321368E+03  0.77000000000E+02 0.  0.
   -5000001    1    1    2    0    0 -0.76683881705E+02  0.46478034295E+02  0.55436037494E+02  0.13054799745E+03  0.77000000000E+02 0.  0.
<mgrwt>
<rscale>  0 0.24048985E+03</rscale>
<asrwt>0</asrwt>
<pdfrwt beam="1">  1        2 0.14160394E-01 0.24048985E+03</pdfrwt>
<pdfrwt beam="2">  1       -2 0.24167485E-01 0.24048985E+03</pdfrwt>
<totfact> 0.62087360E+03</totfact>
</mgrwt>
</event>
<event>
 4    1  0.6148427E-004  0.4301172E+03  0.7818608E-02  0.1033823E+00
          2   -1    0    0  501    0  0.00000000000E+00  0.00000000000E+00  0.75178835973E+03  0.75178835974E+03  0.25500000000E-02 0.  1.
         -2   -1    0    0    0  501 -0.00000000000E+00 -0.00000000000E+00 -0.61520255012E+02  0.61520255065E+02  0.25500000000E-02 0. -1.
    5000001    1    1    2    0    0  0.32262337071E+02 -0.15249617146E+03  0.58450487094E+03  0.60981217178E+03  0.77000000000E+02 0.  0.
   -5000001    1    1    2    0    0 -0.32262337071E+02  0.15249617146E+03  0.10576323378E+03  0.20349644302E+03  0.77000000000E+02 0.  0.
<mgrwt>
<rscale>  0 0.43011725E+03</rscale>
<asrwt>0</asrwt>
<pdfrwt beam="1">  1        2 0.11565975E+00 0.43011725E+03</pdfrwt>
<pdfrwt beam="2">  1       -2 0.94646547E-02 0.43011725E+03</pdfrwt>
<totfact> 0.27953487E+03</totfact>
</mgrwt>
</event>
<event>
 4    1  0.6148427E-004  0.4672913E+03  0.7818608E-02  0.1022688E+00
          2   -1    0    0  501    0  0.00000000000E+00  0.00000000000E+00  0.29385284268E+03  0.29385284269E+03  0.25500000000E-02 0.  1.
         -2   -1    0    0    0  501 -0.00000000000E+00 -0.00000000000E+00 -0.18577424632E+03  0.18577424634E+03  0.25500000000E-02 0. -1.
    5000001    1    1    2    0    0 -0.20081612489E+03 -0.86863090270E+02  0.25209046744E+02  0.23331697003E+03  0.77000000000E+02 0.  0.
   -5000001    1    1    2    0    0  0.20081612489E+03  0.86863090270E+02  0.82869549617E+02  0.24631011900E+03  0.77000000000E+02 0.  0.
<mgrwt>
<rscale>  0 0.46729130E+03</rscale>
<asrwt>0</asrwt>
<pdfrwt beam="1">  1        2 0.45208130E-01 0.46729130E+03</pdfrwt>
<pdfrwt beam="2">  1       -2 0.28580653E-01 0.46729130E+03</pdfrwt>
<totfact> 0.12579563E+03</totfact>
</mgrwt>
</event>
<event>
 4    1  0.6148427E-004  0.1669964E+03  0.7818608E-02  0.1181017E+00
         -2   -1    0    0    0  501 -0.00000000000E+00  0.00000000000E+00  0.20419182440E+03  0.20419182442E+03  0.25500000000E-02 0. -1.
          2   -1    0    0  501    0  0.00000000000E+00 -0.00000000000E+00 -0.34144133952E+02  0.34144134047E+02  0.25500000000E-02 0.  1.
    5000001    1    1    2    0    0 -0.26471711688E+02 -0.17933135645E+02  0.91502124001E+02  0.12379009480E+03  0.77000000000E+02 0.  0.
   -5000001    1    1    2    0    0  0.26471711688E+02  0.17933135645E+02  0.78545566447E+02  0.11454586366E+03  0.77000000000E+02 0.  0.
<mgrwt>
<rscale>  0 0.16699644E+03</rscale>
<asrwt>0</asrwt>
<pdfrwt beam="1">  1        2 0.52529438E-02 0.16699644E+03</pdfrwt>
<pdfrwt beam="2">  1       -2 0.31414126E-01 0.16699644E+03</pdfrwt>
<totfact> 0.13154879E+04</totfact>
</mgrwt>
</event>
<event>
 4    1  0.6148427E-004  0.4809149E+03  0.7818608E-02  0.1018884E+00
         -2   -1    0    0    0  501 -0.00000000000E+00  0.00000000000E+00  0.17923271864E+03  0.17923271866E+03  0.25500000000E-02 0. -1.
          2   -1    0    0  501    0  0.00000000000E+00 -0.00000000000E+00 -0.32259618126E+03  0.32259618127E+03  0.25500000000E-02 0.  1.
    5000001    1    1    2    0    0  0.25545421857E+02 -0.20780312142E+03  0.21977249735E+02  0.22415776889E+03  0.77000000000E+02 0.  0.
   -5000001    1    1    2    0    0 -0.25545421857E+02  0.20780312142E+03 -0.16534071236E+03  0.27767113104E+03  0.77000000000E+02 0.  0.
<mgrwt>
<rscale>  0 0.48091492E+03</rscale>
<asrwt>0</asrwt>
<pdfrwt beam="1">  1        2 0.49630182E-01 0.48091492E+03</pdfrwt>
<pdfrwt beam="2">  1       -2 0.27574264E-01 0.48091492E+03</pdfrwt>
<totfact> 0.12122313E+03</totfact>
</mgrwt>
</event>
<event>
 4    1  0.6148427E-004  0.2081893E+03  0.7818608E-02  0.1143008E+00
          2   -1    0    0  501    0  0.00000000000E+00  0.00000000000E+00  0.13328238979E+03  0.13328238981E+03  0.25500000000E-02 0.  1.
         -2   -1    0    0    0  501 -0.00000000000E+00 -0.00000000000E+00 -0.81298777363E+02  0.81298777403E+02  0.25500000000E-02 0. -1.
    5000001    1    1    2    0    0  0.56170645467E+02  0.41717270299E+02  0.29444779785E+02  0.10812708777E+03  0.77000000000E+02 0.  0.
   -5000001    1    1    2    0    0 -0.56170645467E+02 -0.41717270299E+02  0.22538832639E+02  0.10645407944E+03  0.77000000000E+02 0.  0.
<mgrwt>
<rscale>  0 0.20818929E+03</rscale>
<asrwt>0</asrwt>
<pdfrwt beam="1">  1        2 0.20504983E-01 0.20818929E+03</pdfrwt>
<pdfrwt beam="2">  1       -2 0.12507504E-01 0.20818929E+03</pdfrwt>
<totfact> 0.12091219E+04</totfact>
</mgrwt>
</event>
<event>
 4    1  0.6148427E-004  0.1743683E+03  0.7818608E-02  0.1173367E+00
         -2   -1    0    0    0  501 -0.00000000000E+00  0.00000000000E+00  0.23164618163E+02  0.23164618304E+02  0.25500000000E-02 0. -1.
          2   -1    0    0  501    0  0.00000000000E+00 -0.00000000000E+00 -0.32813294520E+03  0.32813294521E+03  0.25500000000E-02 0.  1.
    5000001    1    1    2    0    0  0.16819388555E+02  0.36908289345E+02 -0.16294517494E+03  0.18473019161E+03  0.77000000000E+02 0.  0.
   -5000001    1    1    2    0    0 -0.16819388555E+02 -0.36908289345E+02 -0.14202315210E+03  0.16656737191E+03  0.77000000000E+02 0.  0.
<mgrwt>
<rscale>  0 0.17436828E+03</rscale>
<asrwt>0</asrwt>
<pdfrwt beam="1">  1        2 0.50481988E-01 0.17436828E+03</pdfrwt>
<pdfrwt beam="2">  1       -2 0.35637877E-02 0.17436828E+03</pdfrwt>
<totfact> 0.30878805E+04</totfact>
</mgrwt>
</event>
<event>
 4    1  0.6148427E-004  0.2622169E+03  0.7818608E-02  0.1105819E+00
         -2   -1    0    0    0  501 -0.00000000000E+00  0.00000000000E+00  0.57221012693E+01  0.57221018375E+01  0.25500000000E-02 0. -1.
          2   -1    0    0  501    0  0.00000000000E+00 -0.00000000000E+00 -0.30040403277E+04  0.30040403277E+04  0.25500000000E-02 0.  1.
    5000001    1    1    2    0    0  0.93556610008E+02  0.39985408594E+02 -0.18451735089E+04  0.18495799389E+04  0.77000000000E+02 0.  0.
   -5000001    1    1    2    0    0 -0.93556610008E+02 -0.39985408594E+02 -0.11531447175E+04  0.11601824906E+04  0.77000000000E+02 0.  0.
<mgrwt>
<rscale>  0 0.26221689E+03</rscale>
<asrwt>0</asrwt>
<pdfrwt beam="1">  1        2 0.46215879E+00 0.26221689E+03</pdfrwt>
<pdfrwt beam="2">  1       -2 0.88032572E-03 0.26221689E+03</pdfrwt>
<totfact> 0.53203300E+03</totfact>
</mgrwt>
</event>
<event>
 4    1  0.6148427E-004  0.1785233E+03  0.7818608E-02  0.1169240E+00
         -2   -1    0    0    0  501 -0.00000000000E+00  0.00000000000E+00  0.12763186906E+02  0.12763187161E+02  0.25500000000E-02 0. -1.
          2   -1    0    0  501    0  0.00000000000E+00 -0.00000000000E+00 -0.62426712174E+03  0.62426712175E+03  0.25500000000E-02 0.  1.
    5000001    1    1    2    0    0 -0.42090610741E+02 -0.14007641036E+02 -0.33577785013E+03  0.34733787319E+03  0.77000000000E+02 0.  0.
   -5000001    1    1    2    0    0  0.42090610741E+02  0.14007641036E+02 -0.27572608471E+03  0.28969243571E+03  0.77000000000E+02 0.  0.
<mgrwt>
<rscale>  0 0.17852325E+03</rscale>
<asrwt>0</asrwt>
<pdfrwt beam="1">  1        2 0.96041072E-01 0.17852325E+03</pdfrwt>
<pdfrwt beam="2">  1       -2 0.19635677E-02 0.17852325E+03</pdfrwt>
<totfact> 0.36708567E+04</totfact>
</mgrwt>
</event>
<event>
 4    1  0.6148427E-004  0.1959192E+03  0.7818608E-02  0.1153228E+00
          2   -1    0    0  501    0  0.00000000000E+00  0.00000000000E+00  0.54161746780E+03  0.54161746781E+03  0.25500000000E-02 0.  1.
         -2   -1    0    0    0  501 -0.00000000000E+00 -0.00000000000E+00 -0.17717447515E+02  0.17717447698E+02  0.25500000000E-02 0. -1.
    5000001    1    1    2    0    0 -0.49477522903E+02 -0.10397228082E+02  0.16679260907E+03  0.19053845298E+03  0.77000000000E+02 0.  0.
   -5000001    1    1    2    0    0  0.49477522903E+02  0.10397228082E+02  0.35710741122E+03  0.36879646252E+03  0.77000000000E+02 0.  0.
<mgrwt>
<rscale>  0 0.19591916E+03</rscale>
<asrwt>0</asrwt>
<pdfrwt beam="1">  1        2 0.83325757E-01 0.19591916E+03</pdfrwt>
<pdfrwt beam="2">  1       -2 0.27257614E-02 0.19591916E+03</pdfrwt>
<totfact> 0.26886487E+04</totfact>
</mgrwt>
</event>
<event>
 4    1  0.6148427E-004  0.2507437E+03  0.7818608E-02  0.1112836E+00
          2   -1    0    0  501    0  0.00000000000E+00  0.00000000000E+00  0.16625286916E+02  0.16625287112E+02  0.25500000000E-02 0.  1.
         -2   -1    0    0    0  501 -0.00000000000E+00 -0.00000000000E+00 -0.94543302293E+03  0.94543302293E+03  0.25500000000E-02 0. -1.
    5000001    1    1    2    0    0 -0.67440573436E+02  0.70900254828E+02 -0.52053410512E+03  0.53521942385E+03  0.77000000000E+02 0.  0.
   -5000001    1    1    2    0    0  0.67440573436E+02 -0.70900254828E+02 -0.40827363089E+03  0.42683888619E+03  0.77000000000E+02 0.  0.
<mgrwt>
<rscale>  0 0.25074366E+03</rscale>
<asrwt>0</asrwt>
<pdfrwt beam="1">  1        2 0.25577372E-02 0.25074366E+03</pdfrwt>
<pdfrwt beam="2">  1       -2 0.14545119E+00 0.25074366E+03</pdfrwt>
<totfact> 0.13338160E+03</totfact>
</mgrwt>
</event>
<event>
 4    1  0.6148427E-004  0.1959780E+03  0.7818608E-02  0.1153177E+00
         -2   -1    0    0    0  501 -0.00000000000E+00  0.00000000000E+00  0.45135655530E+01  0.45135662733E+01  0.25500000000E-02 0. -1.
          2   -1    0    0  501    0  0.00000000000E+00 -0.00000000000E+00 -0.21273301028E+04  0.21273301028E+04  0.25500000000E-02 0.  1.
    5000001    1    1    2    0    0  0.42389319285E+02  0.39254558626E+02 -0.12605286500E+04  0.12641990557E+04  0.77000000000E+02 0.  0.
   -5000001    1    1    2    0    0 -0.42389319285E+02 -0.39254558626E+02 -0.86228788723E+03  0.86764461343E+03  0.77000000000E+02 0.  0.
<mgrwt>
<rscale>  0 0.19597801E+03</rscale>
<asrwt>0</asrwt>
<pdfrwt beam="1">  1        2 0.32728075E+00 0.19597801E+03</pdfrwt>
<pdfrwt beam="2">  1       -2 0.69439645E-03 0.19597801E+03</pdfrwt>
<totfact> 0.22740857E+04</totfact>
</mgrwt>
</event>
<event>
 4    1  0.6148427E-004  0.2285022E+03  0.7818608E-02  0.1127698E+00
          2   -1    0    0  501    0  0.00000000000E+00  0.00000000000E+00  0.75033539330E+02  0.75033539374E+02  0.25500000000E-02 0.  1.
         -2   -1    0    0    0  501 -0.00000000000E+00 -0.00000000000E+00 -0.17396636202E+03  0.17396636204E+03  0.25500000000E-02 0. -1.
    5000001    1    1    2    0    0 -0.12284913004E+02  0.83327846696E+02 -0.43511521454E+02  0.12213394951E+03  0.77000000000E+02 0.  0.
   -5000001    1    1    2    0    0  0.12284913004E+02 -0.83327846696E+02 -0.55421301235E+02  0.12686595191E+03  0.77000000000E+02 0.  0.
<mgrwt>
<rscale>  0 0.22850218E+03</rscale>
<asrwt>0</asrwt>
<pdfrwt beam="1">  1        2 0.11543621E-01 0.22850218E+03</pdfrwt>
<pdfrwt beam="2">  1       -2 0.26764056E-01 0.22850218E+03</pdfrwt>
<totfact> 0.66168053E+03</totfact>
</mgrwt>
</event>
<event>
 4    1  0.6148427E-004  0.2826335E+03  0.7818608E-02  0.1094259E+00
          2   -1    0    0  501    0  0.00000000000E+00  0.00000000000E+00  0.20675910539E+04  0.20675910539E+04  0.25500000000E-02 0.  1.
         -2   -1    0    0    0  501 -0.00000000000E+00 -0.00000000000E+00 -0.96587899765E+01  0.96587903131E+01  0.25500000000E-02 0. -1.
    5000001    1    1    2    0    0 -0.10004481756E+02 -0.92633301241E+02  0.49086481604E+03  0.50552772998E+03  0.77000000000E+02 0.  0.
   -5000001    1    1    2    0    0  0.10004481756E+02  0.92633301241E+02  0.15670674479E+04  0.15717221143E+04  0.77000000000E+02 0.  0.
<mgrwt>
<rscale>  0 0.28263353E+03</rscale>
<asrwt>0</asrwt>
<pdfrwt beam="1">  1        2 0.31809059E+00 0.28263353E+03</pdfrwt>
<pdfrwt beam="2">  1       -2 0.14859693E-02 0.28263353E+03</pdfrwt>
<totfact> 0.81886262E+03</totfact>
</mgrwt>
</event>
<event>
 4    1  0.6148427E-004  0.3324175E+03  0.7818608E-02  0.1070072E+00
          2   -1    0    0  501    0  0.00000000000E+00  0.00000000000E+00  0.18017886330E+03  0.18017886332E+03  0.25500000000E-02 0. -1.
         -2   -1    0    0    0  501 -0.00000000000E+00 -0.00000000000E+00 -0.15332179526E+03  0.15332179528E+03  0.25500000000E-02 0.  1.
    5000001    1    1    2    0    0  0.86461362751E+02 -0.11839569445E+03 -0.87411375165E+00  0.16559852592E+03  0.77000000000E+02 0.  0.
   -5000001    1    1    2    0    0 -0.86461362751E+02  0.11839569445E+03  0.27731181796E+02  0.16790213267E+03  0.77000000000E+02 0.  0.
<mgrwt>
<rscale>  0 0.33241749E+03</rscale>
<asrwt>0</asrwt>
<pdfrwt beam="1">  1        2 0.27719825E-01 0.33241749E+03</pdfrwt>
<pdfrwt beam="2">  1       -2 0.23587968E-01 0.33241749E+03</pdfrwt>
<totfact> 0.30254478E+03</totfact>
</mgrwt>
</event>
<event>
 4    1  0.6148427E-004  0.1637356E+03  0.7818608E-02  0.1184543E+00
         -2   -1    0    0    0  501 -0.00000000000E+00  0.00000000000E+00  0.26026386788E+02  0.26026386913E+02  0.25500000000E-02 0. -1.
          2   -1    0    0  501    0  0.00000000000E+00 -0.00000000000E+00 -0.25752076904E+03  0.25752076905E+03  0.25500000000E-02 0.  1.
    5000001    1    1    2    0    0  0.19829576824E+02 -0.11830608866E+02 -0.14258408996E+03  0.16368383589E+03  0.77000000000E+02 0.  0.
   -5000001    1    1    2    0    0 -0.19829576824E+02  0.11830608866E+02 -0.88910292291E+02  0.11986332007E+03  0.77000000000E+02 0.  0.
<mgrwt>
<rscale>  0 0.16373558E+03</rscale>
<asrwt>0</asrwt>
<pdfrwt beam="1">  1        2 0.39618578E-01 0.16373558E+03</pdfrwt>
<pdfrwt beam="2">  1       -2 0.40040597E-02 0.16373558E+03</pdfrwt>
<totfact> 0.33417588E+04</totfact>
</mgrwt>
</event>
<event>
 4    1  0.6148427E-004  0.1898511E+03  0.7818608E-02  0.1158596E+00
         -2   -1    0    0    0  501 -0.00000000000E+00  0.00000000000E+00  0.41261821854E+02  0.41261821933E+02  0.25500000000E-02 0. -1.
          2   -1    0    0  501    0  0.00000000000E+00 -0.00000000000E+00 -0.21838256197E+03  0.21838256198E+03  0.25500000000E-02 0.  1.
    5000001    1    1    2    0    0 -0.20863739248E+02  0.49694407269E+02 -0.10675706210E+03  0.14223536845E+03  0.77000000000E+02 0.  0.
   -5000001    1    1    2    0    0  0.20863739248E+02 -0.49694407269E+02 -0.70363678009E+02  0.11740901546E+03  0.77000000000E+02 0.  0.
<mgrwt>
<rscale>  0 0.18985112E+03</rscale>
<asrwt>0</asrwt>
<pdfrwt beam="1">  1        2 0.33597317E-01 0.18985112E+03</pdfrwt>
<pdfrwt beam="2">  1       -2 0.63479727E-02 0.18985112E+03</pdfrwt>
<totfact> 0.20155538E+04</totfact>
</mgrwt>
</event>
<event>
 4    1  0.6148427E-004  0.2251980E+03  0.7818608E-02  0.1130066E+00
          2   -1    0    0  501    0  0.00000000000E+00  0.00000000000E+00  0.11071769494E+04  0.11071769494E+04  0.25500000000E-02 0.  1.
         -2   -1    0    0    0  501 -0.00000000000E+00 -0.00000000000E+00 -0.11451231605E+02  0.11451231889E+02  0.25500000000E-02 0. -1.
    5000001    1    1    2    0    0 -0.55884234336E+02  0.37159758898E+02  0.78325482929E+03  0.78988671525E+03  0.77000000000E+02 0.  0.
   -5000001    1    1    2    0    0  0.55884234336E+02 -0.37159758898E+02  0.31247088846E+03  0.32874146600E+03  0.77000000000E+02 0.  0.
<mgrwt>
<rscale>  0 0.22519804E+03</rscale>
<asrwt>0</asrwt>
<pdfrwt beam="1">  1        2 0.17033492E+00 0.22519804E+03</pdfrwt>
<pdfrwt beam="2">  1       -2 0.17617279E-02 0.22519804E+03</pdfrwt>
<totfact> 0.20819855E+04</totfact>
</mgrwt>
</event>
<event>
 4    1  0.6148427E-004  0.2434637E+03  0.7818608E-02  0.1117507E+00
          2   -1    0    0  501    0  0.00000000000E+00  0.00000000000E+00  0.77523164731E+03  0.77523164731E+03  0.25500000000E-02 0.  1.
         -2   -1    0    0    0  501 -0.00000000000E+00 -0.00000000000E+00 -0.19115115314E+02  0.19115115484E+02  0.25500000000E-02 0. -1.
    5000001    1    1    2    0    0 -0.76167340768E+02  0.43342080362E+02  0.49153438522E+03  0.50518813484E+03  0.77000000000E+02 0.  0.
   -5000001    1    1    2    0    0  0.76167340768E+02 -0.43342080362E+02  0.26458214677E+03  0.28915862796E+03  0.77000000000E+02 0.  0.
<mgrwt>
<rscale>  0 0.24346369E+03</rscale>
<asrwt>0</asrwt>
<pdfrwt beam="1">  1        2 0.11926640E+00 0.24346369E+03</pdfrwt>
<pdfrwt beam="2">  1       -2 0.29407872E-02 0.24346369E+03</pdfrwt>
<totfact> 0.15942127E+04</totfact>
</mgrwt>
</event>
<event>
 4    1  0.6148427E-004  0.2022658E+03  0.7818608E-02  0.1147841E+00
         -2   -1    0    0    0  501 -0.00000000000E+00  0.00000000000E+00  0.31242431750E+02  0.31242431854E+02  0.25500000000E-02 0. -1.
          2   -1    0    0  501    0  0.00000000000E+00 -0.00000000000E+00 -0.32737101973E+03  0.32737101974E+03  0.25500000000E-02 0.  1.
    5000001    1    1    2    0    0 -0.13552392727E+02 -0.62079838732E+02 -0.17672375156E+03  0.20297255502E+03  0.77000000000E+02 0.  0.
   -5000001    1    1    2    0    0  0.13552392727E+02  0.62079838732E+02 -0.11940483642E+03  0.15564089657E+03  0.77000000000E+02 0.  0.
<mgrwt>
<rscale>  0 0.20226583E+03</rscale>
<asrwt>0</asrwt>
<pdfrwt beam="1">  1        2 0.50364770E-01 0.20226583E+03</pdfrwt>
<pdfrwt beam="2">  1       -2 0.48065282E-02 0.20226583E+03</pdfrwt>
<totfact> 0.20019544E+04</totfact>
</mgrwt>
</event>
<event>
 4    1  0.6148427E-004  0.7162133E+03  0.7818608E-02  0.9689900E-01
          2   -1    0    0  501    0  0.00000000000E+00  0.00000000000E+00  0.28959332672E+04  0.28959332672E+04  0.25500000000E-02 0.  1.
         -2   -1    0    0    0  501 -0.00000000000E+00 -0.00000000000E+00 -0.44282916419E+02  0.44282916493E+02  0.25500000000E-02 0. -1.
    5000001    1    1    2    0    0  0.47463269763E+00  0.33166213900E+03  0.18813269764E+04  0.19118891683E+04  0.77000000000E+02 0.  0.
   -5000001    1    1    2    0    0 -0.47463269763E+00 -0.33166213900E+03  0.97032337433E+03  0.10283270153E+04  0.77000000000E+02 0.  0.
<mgrwt>
<rscale>  0 0.71621329E+03</rscale>
<asrwt>0</asrwt>
<pdfrwt beam="1">  1        2 0.44552827E+00 0.71621329E+03</pdfrwt>
<pdfrwt beam="2">  1       -2 0.68127553E-02 0.71621329E+03</pdfrwt>
<totfact> 0.27094221E+02</totfact>
</mgrwt>
</event>
<event>
 4    1  0.6148427E-004  0.2249303E+03  0.7818608E-02  0.1130260E+00
          2   -1    0    0  501    0  0.00000000000E+00  0.00000000000E+00  0.61672901852E+02  0.61672901904E+02  0.25500000000E-02 0.  1.
         -2   -1    0    0    0  501 -0.00000000000E+00 -0.00000000000E+00 -0.20508858766E+03  0.20508858768E+03  0.25500000000E-02 0. -1.
    5000001    1    1    2    0    0  0.70728209537E+02  0.38900660462E+02 -0.54782561699E+02  0.12428141484E+03  0.77000000000E+02 0.  0.
   -5000001    1    1    2    0    0 -0.70728209537E+02 -0.38900660462E+02 -0.88633124112E+02  0.14248007474E+03  0.77000000000E+02 0.  0.
<mgrwt>
<rscale>  0 0.22493029E+03</rscale>
<asrwt>0</asrwt>
<pdfrwt beam="1">  1        2 0.94881388E-02 0.22493029E+03</pdfrwt>
<pdfrwt beam="2">  1       -2 0.31552090E-01 0.22493029E+03</pdfrwt>
<totfact> 0.62577837E+03</totfact>
</mgrwt>
</event>
<event>
 4    1  0.6148427E-004  0.6393041E+03  0.7818608E-02  0.9827059E-01
          2   -1    0    0  501    0  0.00000000000E+00  0.00000000000E+00  0.53362831916E+03  0.53362831917E+03  0.25500000000E-02 0.  1.
         -2   -1    0    0    0  501 -0.00000000000E+00 -0.00000000000E+00 -0.19147680614E+03  0.19147680616E+03  0.25500000000E-02 0. -1.
    5000001    1    1    2    0    0 -0.34494922270E+02  0.18399201785E+03  0.45167637589E+03  0.49495808997E+03  0.77000000000E+02 0.  0.
   -5000001    1    1    2    0    0  0.34494922270E+02 -0.18399201785E+03 -0.10952486287E+03  0.23014703535E+03  0.77000000000E+02 0.  0.
<mgrwt>
<rscale>  0 0.63930414E+03</rscale>
<asrwt>0</asrwt>
<pdfrwt beam="1">  1        2 0.82096666E-01 0.63930414E+03</pdfrwt>
<pdfrwt beam="2">  1       -2 0.29457969E-01 0.63930414E+03</pdfrwt>
<totfact> 0.60881399E+02</totfact>
</mgrwt>
</event>
<event>
 4    1  0.6148427E-004  0.2200658E+03  0.7818608E-02  0.1133834E+00
         -2   -1    0    0    0  501 -0.00000000000E+00  0.00000000000E+00  0.33008391511E+03  0.33008391512E+03  0.25500000000E-02 0. -1.
          2   -1    0    0  501    0  0.00000000000E+00 -0.00000000000E+00 -0.36679291048E+02  0.36679291137E+02  0.25500000000E-02 0.  1.
    5000001    1    1    2    0    0 -0.52558605927E+02 -0.32027861902E+02  0.65224964054E+02  0.11820104454E+03  0.77000000000E+02 0.  0.
   -5000001    1    1    2    0    0  0.52558605927E+02  0.32027861902E+02  0.22817966001E+03  0.24856216172E+03  0.77000000000E+02 0.  0.
<mgrwt>
<rscale>  0 0.22006584E+03</rscale>
<asrwt>0</asrwt>
<pdfrwt beam="1">  1        2 0.56429678E-02 0.22006584E+03</pdfrwt>
<pdfrwt beam="2">  1       -2 0.50782141E-01 0.22006584E+03</pdfrwt>
<totfact> 0.48965281E+03</totfact>
</mgrwt>
</event>
<event>
 4    1  0.6148427E-004  0.3355059E+03  0.7818608E-02  0.1068726E+00
         -2   -1    0    0    0  501 -0.00000000000E+00  0.00000000000E+00  0.25142161091E+02  0.25142161221E+02  0.25500000000E-02 0. -1.
          2   -1    0    0  501    0  0.00000000000E+00 -0.00000000000E+00 -0.11192770561E+04  0.11192770561E+04  0.25500000000E-02 0.  1.
    5000001    1    1    2    0    0  0.89460811250E+02  0.11128333688E+03 -0.69277961207E+03  0.71151936637E+03  0.77000000000E+02 0.  0.
   -5000001    1    1    2    0    0 -0.89460811250E+02 -0.11128333688E+03 -0.40135528296E+03  0.43289985098E+03  0.77000000000E+02 0.  0.
<mgrwt>
<rscale>  0 0.33550585E+03</rscale>
<asrwt>0</asrwt>
<pdfrwt beam="1">  1        2 0.17219643E+00 0.33550585E+03</pdfrwt>
<pdfrwt beam="2">  1       -2 0.38680257E-02 0.33550585E+03</pdfrwt>
<totfact> 0.64575232E+03</totfact>
</mgrwt>
</event>
<event>
 4    1  0.6148427E-004  0.3232522E+03  0.7818608E-02  0.1074162E+00
         -2   -1    0    0    0  501 -0.00000000000E+00  0.00000000000E+00  0.39968290257E+02  0.39968290338E+02  0.25500000000E-02 0. -1.
          2   -1    0    0  501    0  0.00000000000E+00 -0.00000000000E+00 -0.65359305864E+03  0.65359305865E+03  0.25500000000E-02 0.  1.
    5000001    1    1    2    0    0  0.48934222926E+02  0.11699360617E+03 -0.44439593348E+03  0.46850699862E+03  0.77000000000E+02 0.  0.
   -5000001    1    1    2    0    0 -0.48934222926E+02 -0.11699360617E+03 -0.16922883490E+03  0.22505435037E+03  0.77000000000E+02 0.  0.
<mgrwt>
<rscale>  0 0.32325221E+03</rscale>
<asrwt>0</asrwt>
<pdfrwt beam="1">  1        2 0.10055277E+00 0.32325221E+03</pdfrwt>
<pdfrwt beam="2">  1       -2 0.61489682E-02 0.32325221E+03</pdfrwt>
<totfact> 0.65094909E+03</totfact>
</mgrwt>
</event>
<event>
 4    1  0.6148427E-004  0.1626343E+03  0.7818608E-02  0.1185754E+00
          2   -1    0    0  501    0  0.00000000000E+00  0.00000000000E+00  0.10389701194E+04  0.10389701194E+04  0.25500000000E-02 0.  1.
         -2   -1    0    0    0  501 -0.00000000000E+00 -0.00000000000E+00 -0.63644568139E+01  0.63644573248E+01  0.25500000000E-02 0. -1.
    5000001    1    1    2    0    0 -0.22775837472E+02  0.40592624476E+01  0.43803893491E+03  0.44535640209E+03  0.77000000000E+02 0.  0.
   -5000001    1    1    2    0    0  0.22775837472E+02 -0.40592624476E+01  0.59456672768E+03  0.59997817464E+03  0.77000000000E+02 0.  0.
<mgrwt>
<rscale>  0 0.16263432E+03</rscale>
<asrwt>0</asrwt>
<pdfrwt beam="1">  1        2 0.15984149E+00 0.16263432E+03</pdfrwt>
<pdfrwt beam="2">  1       -2 0.97914764E-03 0.16263432E+03</pdfrwt>
<totfact> 0.52240255E+04</totfact>
</mgrwt>
</event>
<event>
 4    1  0.6148427E-004  0.3778370E+03  0.7818608E-02  0.1051736E+00
          2   -1    0    0  501    0  0.00000000000E+00  0.00000000000E+00  0.19586552125E+03  0.19586552127E+03  0.25500000000E-02 0.  1.
         -2   -1    0    0    0  501 -0.00000000000E+00 -0.00000000000E+00 -0.18221785376E+03  0.18221785377E+03  0.25500000000E-02 0. -1.
    5000001    1    1    2    0    0 -0.86816763592E+02 -0.12769198186E+03  0.83807757104E+02  0.19182057456E+03  0.77000000000E+02 0.  0.
   -5000001    1    1    2    0    0  0.86816763592E+02  0.12769198186E+03 -0.70160089605E+02  0.18626280049E+03  0.77000000000E+02 0.  0.
<mgrwt>
<rscale>  0 0.37783697E+03</rscale>
<asrwt>0</asrwt>
<pdfrwt beam="1">  1        2 0.30133157E-01 0.37783697E+03</pdfrwt>
<pdfrwt beam="2">  1       -2 0.28033516E-01 0.37783697E+03</pdfrwt>
<totfact> 0.20315165E+03</totfact>
</mgrwt>
</event>
<event>
 4    1  0.6148427E-004  0.2080433E+03  0.7818608E-02  0.1143125E+00
          2   -1    0    0  501    0  0.00000000000E+00  0.00000000000E+00  0.50087321693E+03  0.50087321693E+03  0.25500000000E-02 0.  1.
         -2   -1    0    0    0  501 -0.00000000000E+00 -0.00000000000E+00 -0.21603284181E+02  0.21603284332E+02  0.25500000000E-02 0. -1.
    5000001    1    1    2    0    0  0.52854428571E+02  0.42264419809E+02  0.19530107372E+03  0.22057058099E+03  0.77000000000E+02 0.  0.
   -5000001    1    1    2    0    0 -0.52854428571E+02 -0.42264419809E+02  0.28396885903E+03  0.30190592028E+03  0.77000000000E+02 0.  0.
<mgrwt>
<rscale>  0 0.20804333E+03</rscale>
<asrwt>0</asrwt>
<pdfrwt beam="1">  1        2 0.77057421E-01 0.20804333E+03</pdfrwt>
<pdfrwt beam="2">  1       -2 0.33235821E-02 0.20804333E+03</pdfrwt>
<totfact> 0.21972441E+04</totfact>
</mgrwt>
</event>
<event>
 4    1  0.6148427E-004  0.1811731E+03  0.7818608E-02  0.1166673E+00
         -2   -1    0    0    0  501 -0.00000000000E+00  0.00000000000E+00  0.37442249600E+02  0.37442249687E+02  0.25500000000E-02 0. -1.
          2   -1    0    0  501    0  0.00000000000E+00 -0.00000000000E+00 -0.21916209064E+03  0.21916209065E+03  0.25500000000E-02 0.  1.
    5000001    1    1    2    0    0 -0.20660265974E+02 -0.28412432854E+02 -0.13659744530E+03  0.16069217464E+03  0.77000000000E+02 0.  0.
   -5000001    1    1    2    0    0  0.20660265974E+02  0.28412432854E+02 -0.45122395744E+02  0.95912165696E+02  0.77000000000E+02 0.  0.
<mgrwt>
<rscale>  0 0.18117309E+03</rscale>
<asrwt>0</asrwt>
<pdfrwt beam="1">  1        2 0.33717244E-01 0.18117309E+03</pdfrwt>
<pdfrwt beam="2">  1       -2 0.57603462E-02 0.18117309E+03</pdfrwt>
<totfact> 0.23195517E+04</totfact>
</mgrwt>
</event>
<event>
 4    1  0.6148427E-004  0.3943927E+03  0.7818608E-02  0.1045739E+00
         -2   -1    0    0    0  501 -0.00000000000E+00  0.00000000000E+00  0.36280449005E+02  0.36280449094E+02  0.25500000000E-02 0. -1.
          2   -1    0    0  501    0  0.00000000000E+00 -0.00000000000E+00 -0.10718277145E+04  0.10718277145E+04  0.25500000000E-02 0.  1.
    5000001    1    1    2    0    0 -0.34995396507E+00 -0.16962410099E+03 -0.33601394045E+03  0.38419633819E+03  0.77000000000E+02 0.  0.
   -5000001    1    1    2    0    0  0.34995396507E+00  0.16962410099E+03 -0.69953332502E+03  0.72391182538E+03  0.77000000000E+02 0.  0.
<mgrwt>
<rscale>  0 0.39439265E+03</rscale>
<asrwt>0</asrwt>
<pdfrwt beam="1">  1        2 0.16489655E+00 0.39439265E+03</pdfrwt>
<pdfrwt beam="2">  1       -2 0.55816083E-02 0.39439265E+03</pdfrwt>
<totfact> 0.39437723E+03</totfact>
</mgrwt>
</event>
<event>
 4    1  0.6148427E-004  0.1823688E+03  0.7818608E-02  0.1165530E+00
          2   -1    0    0  501    0  0.00000000000E+00  0.00000000000E+00  0.76766122603E+03  0.76766122604E+03  0.25500000000E-02 0.  1.
         -2   -1    0    0    0  501 -0.00000000000E+00 -0.00000000000E+00 -0.10831077070E+02  0.10831077370E+02  0.25500000000E-02 0. -1.
    5000001    1    1    2    0    0  0.35163279403E+02  0.12243457521E+02  0.51335439113E+03  0.52043067681E+03  0.77000000000E+02 0.  0.
   -5000001    1    1    2    0    0 -0.35163279403E+02 -0.12243457521E+02  0.24347575783E+03  0.25806162660E+03  0.77000000000E+02 0.  0.
<mgrwt>
<rscale>  0 0.18236884E+03</rscale>
<asrwt>0</asrwt>
<pdfrwt beam="1">  1        2 0.11810171E+00 0.18236884E+03</pdfrwt>
<pdfrwt beam="2">  1       -2 0.16663198E-02 0.18236884E+03</pdfrwt>
<totfact> 0.36472039E+04</totfact>
</mgrwt>
</event>
<event>
 4    1  0.6148427E-004  0.1940589E+03  0.7818608E-02  0.1154851E+00
         -2   -1    0    0    0  501 -0.00000000000E+00  0.00000000000E+00  0.95319896165E+02  0.95319896199E+02  0.25500000000E-02 0. -1.
          2   -1    0    0  501    0  0.00000000000E+00 -0.00000000000E+00 -0.98769675315E+02  0.98769675348E+02  0.25500000000E-02 0.  1.
    5000001    1    1    2    0    0  0.60687536094E+01 -0.57209532341E+02  0.11542003284E+02  0.96808977894E+02  0.77000000000E+02 0.  0.
   -5000001    1    1    2    0    0 -0.60687536094E+01  0.57209532341E+02 -0.14991782434E+02  0.97280593654E+02  0.77000000000E+02 0.  0.
<mgrwt>
<rscale>  0 0.19405891E+03</rscale>
<asrwt>0</asrwt>
<pdfrwt beam="1">  1        2 0.15195335E-01 0.19405891E+03</pdfrwt>
<pdfrwt beam="2">  1       -2 0.14664599E-01 0.19405891E+03</pdfrwt>
<totfact> 0.13138222E+04</totfact>
</mgrwt>
</event>
<event>
 4    1  0.6148427E-004  0.2310686E+03  0.7818608E-02  0.1125890E+00
          2   -1    0    0  501    0  0.00000000000E+00  0.00000000000E+00  0.18230639172E+03  0.18230639174E+03  0.25500000000E-02 0.  1.
         -2   -1    0    0    0  501 -0.00000000000E+00 -0.00000000000E+00 -0.73218351766E+02  0.73218351811E+02  0.25500000000E-02 0. -1.
    5000001    1    1    2    0    0  0.74931664556E+02  0.29139554840E+02  0.20364718216E+02  0.11317062232E+03  0.77000000000E+02 0.  0.
   -5000001    1    1    2    0    0 -0.74931664556E+02 -0.29139554840E+02  0.88723321739E+02  0.14235412123E+03  0.77000000000E+02 0.  0.
<mgrwt>
<rscale>  0 0.23106859E+03</rscale>
<asrwt>0</asrwt>
<pdfrwt beam="1">  1        2 0.28047137E-01 0.23106859E+03</pdfrwt>
<pdfrwt beam="2">  1       -2 0.11264362E-01 0.23106859E+03</pdfrwt>
<totfact> 0.10142972E+04</totfact>
</mgrwt>
</event>
<event>
 4    1  0.6148427E-004  0.4286522E+03  0.7818608E-02  0.1034287E+00
          2   -1    0    0  501    0  0.00000000000E+00  0.00000000000E+00  0.36421207405E+03  0.36421207406E+03  0.25500000000E-02 0.  1.
         -2   -1    0    0    0  501 -0.00000000000E+00 -0.00000000000E+00 -0.12612346094E+03  0.12612346097E+03  0.25500000000E-02 0. -1.
    5000001    1    1    2    0    0 -0.16063066668E+03  0.62753674229E+00 -0.17286767085E+02  0.17897049253E+03  0.77000000000E+02 0.  0.
   -5000001    1    1    2    0    0  0.16063066668E+03 -0.62753674229E+00  0.25537538020E+03  0.31136504250E+03  0.77000000000E+02 0.  0.
<mgrwt>
<rscale>  0 0.42865225E+03</rscale>
<asrwt>0</asrwt>
<pdfrwt beam="1">  1        2 0.56032627E-01 0.42865225E+03</pdfrwt>
<pdfrwt beam="2">  1       -2 0.19403609E-01 0.42865225E+03</pdfrwt>
<totfact> 0.19726209E+03</totfact>
</mgrwt>
</event>
<event>
 4    1  0.6148427E-004  0.2824063E+03  0.7818608E-02  0.1094382E+00
          2   -1    0    0  501    0  0.00000000000E+00  0.00000000000E+00  0.69672646542E+03  0.69672646542E+03  0.25500000000E-02 0.  1.
         -2   -1    0    0    0  501 -0.00000000000E+00 -0.00000000000E+00 -0.28617147570E+02  0.28617147684E+02  0.25500000000E-02 0. -1.
    5000001    1    1    2    0    0  0.58807852061E+02 -0.10269085042E+03  0.34010544684E+03  0.36824514822E+03  0.77000000000E+02 0.  0.
   -5000001    1    1    2    0    0 -0.58807852061E+02  0.10269085042E+03  0.32800387101E+03  0.35709846488E+03  0.77000000000E+02 0.  0.
<mgrwt>
<rscale>  0 0.28240626E+03</rscale>
<asrwt>0</asrwt>
<pdfrwt beam="1">  1        2 0.10718869E+00 0.28240626E+03</pdfrwt>
<pdfrwt beam="2">  1       -2 0.44026381E-02 0.28240626E+03</pdfrwt>
<totfact> 0.99985301E+03</totfact>
</mgrwt>
</event>
<event>
 4    1  0.6148427E-004  0.4342970E+03  0.7818608E-02  0.1032511E+00
         -2   -1    0    0    0  501 -0.00000000000E+00  0.00000000000E+00  0.77977776015E+02  0.77977776057E+02  0.25500000000E-02 0. -1.
          2   -1    0    0  501    0  0.00000000000E+00 -0.00000000000E+00 -0.60470406623E+03  0.60470406624E+03  0.25500000000E-02 0.  1.
    5000001    1    1    2    0    0 -0.86010540870E+02  0.18336341513E+03 -0.28584347464E+03  0.35868572197E+03  0.77000000000E+02 0.  0.
   -5000001    1    1    2    0    0  0.86010540870E+02 -0.18336341513E+03 -0.24088281558E+03  0.32399612033E+03  0.77000000000E+02 0.  0.
<mgrwt>
<rscale>  0 0.43429703E+03</rscale>
<asrwt>0</asrwt>
<pdfrwt beam="1">  1        2 0.93031392E-01 0.43429703E+03</pdfrwt>
<pdfrwt beam="2">  1       -2 0.11996581E-01 0.43429703E+03</pdfrwt>
<totfact> 0.24869980E+03</totfact>
</mgrwt>
</event>
<event>
 4    1  0.6148427E-004  0.3036701E+03  0.7818608E-02  0.1083420E+00
         -2   -1    0    0    0  501 -0.00000000000E+00  0.00000000000E+00  0.13808819370E+03  0.13808819373E+03  0.25500000000E-02 0. -1.
          2   -1    0    0  501    0  0.00000000000E+00 -0.00000000000E+00 -0.16695046518E+03  0.16695046520E+03  0.25500000000E-02 0.  1.
    5000001    1    1    2    0    0  0.37862601487E+02 -0.12034609012E+03 -0.49345944176E+02  0.15582291296E+03  0.77000000000E+02 0.  0.
   -5000001    1    1    2    0    0 -0.37862601487E+02  0.12034609012E+03  0.20483672697E+02  0.14921574597E+03  0.77000000000E+02 0.  0.
<mgrwt>
<rscale>  0 0.30367014E+03</rscale>
<asrwt>0</asrwt>
<pdfrwt beam="1">  1        2 0.25684687E-01 0.30367014E+03</pdfrwt>
<pdfrwt beam="2">  1       -2 0.21244338E-01 0.30367014E+03</pdfrwt>
<totfact> 0.39441085E+03</totfact>
</mgrwt>
</event>
<event>
 4    1  0.6148427E-004  0.3742506E+03  0.7818608E-02  0.1053079E+00
          2   -1    0    0  501    0  0.00000000000E+00  0.00000000000E+00  0.96089792566E+02  0.96089792600E+02  0.25500000000E-02 0.  1.
         -2   -1    0    0    0  501 -0.00000000000E+00 -0.00000000000E+00 -0.36440790816E+03  0.36440790816E+03  0.25500000000E-02 0. -1.
    5000001    1    1    2    0    0  0.12940568058E+03  0.11102488339E+03 -0.12946952861E+03  0.22751640322E+03  0.77000000000E+02 0.  0.
   -5000001    1    1    2    0    0 -0.12940568058E+03 -0.11102488339E+03 -0.13884858698E+03  0.23298129754E+03  0.77000000000E+02 0.  0.
<mgrwt>
<rscale>  0 0.37425061E+03</rscale>
<asrwt>0</asrwt>
<pdfrwt beam="1">  1        2 0.14783045E-01 0.37425061E+03</pdfrwt>
<pdfrwt beam="2">  1       -2 0.56062754E-01 0.37425061E+03</pdfrwt>
<totfact> 0.12147456E+03</totfact>
</mgrwt>
</event>
<event>
 4    1  0.6148427E-004  0.2533808E+03  0.7818608E-02  0.1111187E+00
         -2   -1    0    0    0  501 -0.00000000000E+00  0.00000000000E+00  0.44857701312E+02  0.44857701385E+02  0.25500000000E-02 0. -1.
          2   -1    0    0  501    0  0.00000000000E+00 -0.00000000000E+00 -0.35780834456E+03  0.35780834457E+03  0.25500000000E-02 0.  1.
    5000001    1    1    2    0    0 -0.25033108619E+02  0.85172403319E+02 -0.23169653959E+03  0.25979469062E+03  0.77000000000E+02 0.  0.
   -5000001    1    1    2    0    0  0.25033108619E+02 -0.85172403319E+02 -0.81254103653E+02  0.14287135533E+03  0.77000000000E+02 0.  0.
<mgrwt>
<rscale>  0 0.25338082E+03</rscale>
<asrwt>0</asrwt>
<pdfrwt beam="1">  1        2 0.55047436E-01 0.25338082E+03</pdfrwt>
<pdfrwt beam="2">  1       -2 0.69011851E-02 0.25338082E+03</pdfrwt>
<totfact> 0.10616266E+04</totfact>
</mgrwt>
</event>
<event>
 4    1  0.6148427E-004  0.3733911E+03  0.7818608E-02  0.1053404E+00
          2   -1    0    0  501    0  0.00000000000E+00  0.00000000000E+00  0.36234941950E+03  0.36234941951E+03  0.25500000000E-02 0.  1.
         -2   -1    0    0    0  501 -0.00000000000E+00 -0.00000000000E+00 -0.96192312105E+02  0.96192312138E+02  0.25500000000E-02 0. -1.
    5000001    1    1    2    0    0  0.92976821437E+01 -0.16474005667E+03  0.82437513036E+02  0.19987665376E+03  0.77000000000E+02 0.  0.
   -5000001    1    1    2    0    0 -0.92976821437E+01  0.16474005667E+03  0.18371959436E+03  0.25866507788E+03  0.77000000000E+02 0.  0.
<mgrwt>
<rscale>  0 0.37339110E+03</rscale>
<asrwt>0</asrwt>
<pdfrwt beam="1">  1        2 0.55746065E-01 0.37339110E+03</pdfrwt>
<pdfrwt beam="2">  1       -2 0.14798817E-01 0.37339110E+03</pdfrwt>
<totfact> 0.31309776E+03</totfact>
</mgrwt>
</event>
<event>
 4    1  0.6148427E-004  0.2128871E+03  0.7818608E-02  0.1139300E+00
          2   -1    0    0  501    0  0.00000000000E+00  0.00000000000E+00  0.23293058865E+03  0.23293058866E+03  0.25500000000E-02 0.  1.
         -2   -1    0    0    0  501 -0.00000000000E+00 -0.00000000000E+00 -0.48642074373E+02  0.48642074440E+02  0.25500000000E-02 0. -1.
    5000001    1    1    2    0    0 -0.16834978337E+02  0.71369490490E+02  0.98651633541E+02  0.14504539106E+03  0.77000000000E+02 0.  0.
   -5000001    1    1    2    0    0  0.16834978337E+02 -0.71369490490E+02  0.85636880733E+02  0.13652727204E+03  0.77000000000E+02 0.  0.
<mgrwt>
<rscale>  0 0.21288708E+03</rscale>
<asrwt>0</asrwt>
<pdfrwt beam="1">  1        2 0.35835474E-01 0.21288708E+03</pdfrwt>
<pdfrwt beam="2">  1       -2 0.74833962E-02 0.21288708E+03</pdfrwt>
<totfact> 0.14710847E+04</totfact>
</mgrwt>
</event>
<event>
 4    1  0.6148427E-004  0.3204883E+03  0.7818608E-02  0.1075425E+00
          2   -1    0    0  501    0  0.00000000000E+00  0.00000000000E+00  0.37627485778E+04  0.37627485778E+04  0.25500000000E-02 0.  1.
         -2   -1    0    0    0  501 -0.00000000000E+00 -0.00000000000E+00 -0.68243183324E+01  0.68243188089E+01  0.25500000000E-02 0. -1.
    5000001    1    1    2    0    0  0.52808676657E+02 -0.12389588022E+03  0.23499452806E+04  0.23550606717E+04  0.77000000000E+02 0.  0.
   -5000001    1    1    2    0    0 -0.52808676657E+02  0.12389588022E+03  0.14059789789E+04  0.14145122250E+04  0.77000000000E+02 0.  0.
<mgrwt>
<rscale>  0 0.32048835E+03</rscale>
<asrwt>0</asrwt>
<pdfrwt beam="1">  1        2 0.57888358E+00 0.32048835E+03</pdfrwt>
<pdfrwt beam="2">  1       -2 0.10498966E-02 0.32048835E+03</pdfrwt>
<totfact> 0.13184296E+03</totfact>
</mgrwt>
</event>
<event>
 4    1  0.6148427E-004  0.1964996E+03  0.7818608E-02  0.1152726E+00
         -2   -1    0    0    0  501 -0.00000000000E+00  0.00000000000E+00  0.33131863905E+02  0.33131864003E+02  0.25500000000E-02 0. -1.
          2   -1    0    0  501    0  0.00000000000E+00 -0.00000000000E+00 -0.29135168993E+03  0.29135168994E+03  0.25500000000E-02 0.  1.
    5000001    1    1    2    0    0  0.42393073987E+02  0.68150915043E+01 -0.57502687841E+02  0.10525767099E+03  0.77000000000E+02 0.  0.
   -5000001    1    1    2    0    0 -0.42393073987E+02 -0.68150915043E+01 -0.20071713818E+03  0.21922588295E+03  0.77000000000E+02 0.  0.
<mgrwt>
<rscale>  0 0.19649961E+03</rscale>
<asrwt>0</asrwt>
<pdfrwt beam="1">  1        2 0.44823335E-01 0.19649961E+03</pdfrwt>
<pdfrwt beam="2">  1       -2 0.50972101E-02 0.19649961E+03</pdfrwt>
<totfact> 0.20707246E+04</totfact>
</mgrwt>
</event>
<event>
 4    1  0.6148427E-004  0.2254426E+03  0.7818608E-02  0.1129889E+00
         -2   -1    0    0    0  501 -0.00000000000E+00  0.00000000000E+00  0.14974464410E+03  0.14974464413E+03  0.25500000000E-02 0. -1.
          2   -1    0    0  501    0  0.00000000000E+00 -0.00000000000E+00 -0.84851692442E+02  0.84851692481E+02  0.25500000000E-02 0.  1.
    5000001    1    1    2    0    0  0.16684329317E+02  0.63673579282E+02 -0.19001822581E+02  0.10306677838E+03  0.77000000000E+02 0.  0.
   -5000001    1    1    2    0    0 -0.16684329317E+02 -0.63673579282E+02  0.83894774243E+02  0.13152955823E+03  0.77000000000E+02 0.  0.
<mgrwt>
<rscale>  0 0.22544256E+03</rscale>
<asrwt>0</asrwt>
<pdfrwt beam="1">  1        2 0.13054107E-01 0.22544256E+03</pdfrwt>
<pdfrwt beam="2">  1       -2 0.23037637E-01 0.22544256E+03</pdfrwt>
<totfact> 0.74160012E+03</totfact>
</mgrwt>
</event>
<event>
 4    1  0.6148427E-004  0.2810742E+03  0.7818608E-02  0.1095104E+00
         -2   -1    0    0    0  501 -0.00000000000E+00  0.00000000000E+00  0.17502375948E+02  0.17502376134E+02  0.25500000000E-02 0. -1.
          2   -1    0    0  501    0  0.00000000000E+00 -0.00000000000E+00 -0.11284567353E+04  0.11284567353E+04  0.25500000000E-02 0.  1.
    5000001    1    1    2    0    0 -0.93550666248E+02  0.70829109303E+02 -0.52574411449E+03  0.54415472414E+03  0.77000000000E+02 0.  0.
   -5000001    1    1    2    0    0  0.93550666248E+02 -0.70829109303E+02 -0.58521024481E+03  0.60180438725E+03  0.77000000000E+02 0.  0.
<mgrwt>
<rscale>  0 0.28107418E+03</rscale>
<asrwt>0</asrwt>
<pdfrwt beam="1">  1        2 0.17360867E+00 0.28107418E+03</pdfrwt>
<pdfrwt beam="2">  1       -2 0.26926741E-02 0.28107418E+03</pdfrwt>
<totfact> 0.10928899E+04</totfact>
</mgrwt>
</event>
<event>
 4    1  0.6148427E-004  0.3226413E+03  0.7818608E-02  0.1074440E+00
          2   -1    0    0  501    0  0.00000000000E+00  0.00000000000E+00  0.94922905833E+03  0.94922905833E+03  0.25500000000E-02 0.  1.
         -2   -1    0    0    0  501 -0.00000000000E+00 -0.00000000000E+00 -0.27416307893E+02  0.27416308012E+02  0.25500000000E-02 0. -1.
    5000001    1    1    2    0    0 -0.47821026818E+01 -0.13051536212E+03  0.62775670787E+03  0.64580539835E+03  0.77000000000E+02 0.  0.
   -5000001    1    1    2    0    0  0.47821026818E+01  0.13051536212E+03  0.29405604257E+03  0.33083996800E+03  0.77000000000E+02 0.  0.
<mgrwt>
<rscale>  0 0.32264133E+03</rscale>
<asrwt>0</asrwt>
<pdfrwt beam="1">  1        2 0.14603525E+00 0.32264133E+03</pdfrwt>
<pdfrwt beam="2">  1       -2 0.42178933E-02 0.32264133E+03</pdfrwt>
<totfact> 0.71844360E+03</totfact>
</mgrwt>
</event>
<event>
 4    1  0.6148427E-004  0.3101443E+03  0.7818608E-02  0.1080277E+00
          2   -1    0    0  501    0  0.00000000000E+00  0.00000000000E+00  0.12669471087E+03  0.12669471089E+03  0.25500000000E-02 0.  1.
         -2   -1    0    0    0  501 -0.00000000000E+00 -0.00000000000E+00 -0.18980559873E+03  0.18980559874E+03  0.25500000000E-02 0. -1.
    5000001    1    1    2    0    0  0.29174059695E+02  0.35365449543E+02  0.97594593202E+02  0.13249734112E+03  0.77000000000E+02 0.  0.
   -5000001    1    1    2    0    0 -0.29174059695E+02 -0.35365449543E+02 -0.16070548106E+03  0.18400296852E+03  0.77000000000E+02 0.  0.
<mgrwt>
<rscale>  0 0.31014426E+03</rscale>
<asrwt>0</asrwt>
<pdfrwt beam="1">  1        2 0.19491494E-01 0.31014426E+03</pdfrwt>
<pdfrwt beam="2">  1       -2 0.29200861E-01 0.31014426E+03</pdfrwt>
<totfact> 0.30745087E+03</totfact>
</mgrwt>
</event>
<event>
 4    1  0.6148427E-004  0.8454103E+03  0.7818608E-02  0.9496518E-01
          2   -1    0    0  501    0  0.00000000000E+00  0.00000000000E+00  0.13927847973E+04  0.13927847973E+04  0.25500000000E-02 0. -1.
         -2   -1    0    0    0  501 -0.00000000000E+00 -0.00000000000E+00 -0.12828949469E+03  0.12828949472E+03  0.25500000000E-02 0.  1.
    5000001    1    1    2    0    0 -0.40565333244E+03  0.87150057893E+02  0.58814307245E+03  0.72387224866E+03  0.77000000000E+02 0.  0.
   -5000001    1    1    2    0    0  0.40565333244E+03 -0.87150057893E+02  0.67635223017E+03  0.79720204337E+03  0.77000000000E+02 0.  0.
<mgrwt>
<rscale>  0 0.84541033E+03</rscale>
<asrwt>0</asrwt>
<pdfrwt beam="1">  1        2 0.21427459E+00 0.84541033E+03</pdfrwt>
<pdfrwt beam="2">  1       -2 0.19736845E-01 0.84541033E+03</pdfrwt>
<totfact> 0.32097225E+02</totfact>
</mgrwt>
</event>
<event>
 4    1  0.6148427E-004  0.2769313E+03  0.7818608E-02  0.1097377E+00
          2   -1    0    0  501    0  0.00000000000E+00  0.00000000000E+00  0.11271471352E+04  0.11271471352E+04  0.25500000000E-02 0.  1.
         -2   -1    0    0    0  501 -0.00000000000E+00 -0.00000000000E+00 -0.17009973551E+02  0.17009973742E+02  0.25500000000E-02 0. -1.
    5000001    1    1    2    0    0 -0.88626586031E+02 -0.57492864479E+02  0.36647579430E+03  0.38909331660E+03  0.77000000000E+02 0.  0.
   -5000001    1    1    2    0    0  0.88626586031E+02  0.57492864479E+02  0.74366136733E+03  0.75506379232E+03  0.77000000000E+02 0.  0.
<mgrwt>
<rscale>  0 0.27693135E+03</rscale>
<asrwt>0</asrwt>
<pdfrwt beam="1">  1        2 0.17340727E+00 0.27693135E+03</pdfrwt>
<pdfrwt beam="2">  1       -2 0.26169187E-02 0.27693135E+03</pdfrwt>
<totfact> 0.11416617E+04</totfact>
</mgrwt>
</event>
<event>
 4    1  0.6148427E-004  0.5466205E+03  0.7818608E-02  0.1002279E+00
          2   -1    0    0  501    0  0.00000000000E+00  0.00000000000E+00  0.24429318366E+04  0.24429318366E+04  0.25500000000E-02 0.  1.
         -2   -1    0    0    0  501 -0.00000000000E+00 -0.00000000000E+00 -0.30577394947E+02  0.30577395053E+02  0.25500000000E-02 0. -1.
    5000001    1    1    2    0    0 -0.84884542250E+02 -0.22536317190E+03  0.16759061258E+04  0.16948699912E+04  0.77000000000E+02 0.  0.
   -5000001    1    1    2    0    0  0.84884542250E+02  0.22536317190E+03  0.73644831583E+03  0.77863924037E+03  0.77000000000E+02 0.  0.
<mgrwt>
<rscale>  0 0.54662050E+03</rscale>
<asrwt>0</asrwt>
<pdfrwt beam="1">  1        2 0.37583568E+00 0.54662050E+03</pdfrwt>
<pdfrwt beam="2">  1       -2 0.47042144E-02 0.54662050E+03</pdfrwt>
<totfact> 0.89737970E+02</totfact>
</mgrwt>
</event>
<event>
 4    1  0.6148427E-004  0.1802805E+03  0.7818608E-02  0.1167532E+00
          2   -1    0    0  501    0  0.00000000000E+00  0.00000000000E+00  0.10862695884E+04  0.10862695884E+04  0.25500000000E-02 0.  1.
         -2   -1    0    0    0  501 -0.00000000000E+00 -0.00000000000E+00 -0.74799706871E+01  0.74799711217E+01  0.25500000000E-02 0. -1.
    5000001    1    1    2    0    0 -0.26368447645E+02 -0.27653552455E+02  0.37477501365E+03  0.38450659923E+03  0.77000000000E+02 0.  0.
   -5000001    1    1    2    0    0  0.26368447645E+02  0.27653552455E+02  0.70401460407E+03  0.70924296030E+03  0.77000000000E+02 0.  0.
<mgrwt>
<rscale>  0 0.18028050E+03</rscale>
<asrwt>0</asrwt>
<pdfrwt beam="1">  1        2 0.16711838E+00 0.18028050E+03</pdfrwt>
<pdfrwt beam="2">  1       -2 0.11507649E-02 0.18028050E+03</pdfrwt>
<totfact> 0.39175169E+04</totfact>
</mgrwt>
</event>
<event>
 4    1  0.6148427E-004  0.5030614E+03  0.7818608E-02  0.1012983E+00
         -2   -1    0    0    0  501 -0.00000000000E+00  0.00000000000E+00  0.11292258509E+03  0.11292258512E+03  0.25500000000E-02 0. -1.
          2   -1    0    0  501    0  0.00000000000E+00 -0.00000000000E+00 -0.56027482635E+03  0.56027482635E+03  0.25500000000E-02 0.  1.
    5000001    1    1    2    0    0 -0.23542146680E+03  0.92654837808E+01 -0.28091557264E+03  0.37463538964E+03  0.77000000000E+02 0.  0.
   -5000001    1    1    2    0    0  0.23542146680E+03 -0.92654837808E+01 -0.16643666862E+03  0.29856202183E+03  0.77000000000E+02 0.  0.
<mgrwt>
<rscale>  0 0.50306136E+03</rscale>
<asrwt>0</asrwt>
<pdfrwt beam="1">  1        2 0.86196126E-01 0.50306136E+03</pdfrwt>
<pdfrwt beam="2">  1       -2 0.17372706E-01 0.50306136E+03</pdfrwt>
<totfact> 0.14678435E+03</totfact>
</mgrwt>
</event>
<event>
 4    1  0.6148427E-004  0.3280600E+03  0.7818608E-02  0.1071998E+00
         -2   -1    0    0    0  501 -0.00000000000E+00  0.00000000000E+00  0.24671366121E+02  0.24671366253E+02  0.25500000000E-02 0. -1.
          2   -1    0    0  501    0  0.00000000000E+00 -0.00000000000E+00 -0.10905698419E+04  0.10905698419E+04  0.25500000000E-02 0.  1.
    5000001    1    1    2    0    0  0.11084593097E+03  0.92719966382E+02 -0.56573909022E+03  0.58895970217E+03  0.77000000000E+02 0.  0.
   -5000001    1    1    2    0    0 -0.11084593097E+03 -0.92719966382E+02 -0.50015938554E+03  0.52628150596E+03  0.77000000000E+02 0.  0.
<mgrwt>
<rscale>  0 0.32806004E+03</rscale>
<asrwt>0</asrwt>
<pdfrwt beam="1">  1        2 0.16777994E+00 0.32806004E+03</pdfrwt>
<pdfrwt beam="2">  1       -2 0.37955957E-02 0.32806004E+03</pdfrwt>
<totfact> 0.69066699E+03</totfact>
</mgrwt>
</event>
<event>
 4    1  0.6148427E-004  0.2028939E+03  0.7818608E-02  0.1147320E+00
          2   -1    0    0  501    0  0.00000000000E+00  0.00000000000E+00  0.13293208422E+04  0.13293208422E+04  0.25500000000E-02 0.  1.
         -2   -1    0    0    0  501 -0.00000000000E+00 -0.00000000000E+00 -0.77419106355E+01  0.77419110555E+01  0.25500000000E-02 0. -1.
    5000001    1    1    2    0    0  0.64759386402E+02  0.71218814371E+01  0.58920898752E+03  0.59777983430E+03  0.77000000000E+02 0.  0.
   -5000001    1    1    2    0    0 -0.64759386402E+02 -0.71218814371E+01  0.73236994406E+03  0.73928291897E+03  0.77000000000E+02 0.  0.
<mgrwt>
<rscale>  0 0.20289390E+03</rscale>
<asrwt>0</asrwt>
<pdfrwt beam="1">  1        2 0.20451067E+00 0.20289390E+03</pdfrwt>
<pdfrwt beam="2">  1       -2 0.11910645E-02 0.20289390E+03</pdfrwt>
<totfact> 0.27446727E+04</totfact>
</mgrwt>
</event>
<event>
 4    1  0.6148427E-004  0.1951865E+03  0.7818608E-02  0.1153865E+00
         -2   -1    0    0    0  501 -0.00000000000E+00  0.00000000000E+00  0.71175661014E+01  0.71175665582E+01  0.25500000000E-02 0. -1.
          2   -1    0    0  501    0  0.00000000000E+00 -0.00000000000E+00 -0.13381593256E+04  0.13381593256E+04  0.25500000000E-02 0.  1.
    5000001    1    1    2    0    0 -0.18793906875E+02  0.44755567307E+02 -0.42290078894E+03  0.43258565514E+03  0.77000000000E+02 0.  0.
   -5000001    1    1    2    0    0  0.18793906875E+02 -0.44755567307E+02 -0.90814097056E+03  0.91269123703E+03  0.77000000000E+02 0.  0.
<mgrwt>
<rscale>  0 0.19518645E+03</rscale>
<asrwt>0</asrwt>
<pdfrwt beam="1">  1        2 0.20587047E+00 0.19518645E+03</pdfrwt>
<pdfrwt beam="2">  1       -2 0.10950113E-02 0.19518645E+03</pdfrwt>
<totfact> 0.30582278E+04</totfact>
</mgrwt>
</event>
<event>
 4    1  0.6148427E-004  0.2717336E+03  0.7818608E-02  0.1100292E+00
          2   -1    0    0  501    0  0.00000000000E+00  0.00000000000E+00  0.56912921380E+03  0.56912921381E+03  0.25500000000E-02 0.  1.
         -2   -1    0    0    0  501 -0.00000000000E+00 -0.00000000000E+00 -0.32435144217E+02  0.32435144317E+02  0.25500000000E-02 0. -1.
    5000001    1    1    2    0    0 -0.63384536337E+02  0.87139988158E+02  0.20120599138E+03  0.24088135658E+03  0.77000000000E+02 0.  0.
   -5000001    1    1    2    0    0  0.63384536337E+02 -0.87139988158E+02  0.33548807820E+03  0.36068300154E+03  0.77000000000E+02 0.  0.
<mgrwt>
<rscale>  0 0.27173361E+03</rscale>
<asrwt>0</asrwt>
<pdfrwt beam="1">  1        2 0.87558332E-01 0.27173361E+03</pdfrwt>
<pdfrwt beam="2">  1       -2 0.49900227E-02 0.27173361E+03</pdfrwt>
<totfact> 0.10480029E+04</totfact>
</mgrwt>
</event>
<event>
 4    1  0.6148427E-004  0.1955152E+03  0.7818608E-02  0.1153579E+00
          2   -1    0    0  501    0  0.00000000000E+00  0.00000000000E+00  0.23515388558E+03  0.23515388559E+03  0.25500000000E-02 0.  1.
         -2   -1    0    0    0  501 -0.00000000000E+00 -0.00000000000E+00 -0.40639558532E+02  0.40639558612E+02  0.25500000000E-02 0. -1.
    5000001    1    1    2    0    0 -0.50160727544E+02  0.28684912784E+02  0.12122186790E+03  0.15479878574E+03  0.77000000000E+02 0.  0.
   -5000001    1    1    2    0    0  0.50160727544E+02 -0.28684912784E+02  0.73292459143E+02  0.12099465846E+03  0.77000000000E+02 0.  0.
<mgrwt>
<rscale>  0 0.19551522E+03</rscale>
<asrwt>0</asrwt>
<pdfrwt beam="1">  1        2 0.36177522E-01 0.19551522E+03</pdfrwt>
<pdfrwt beam="2">  1       -2 0.62522396E-02 0.19551522E+03</pdfrwt>
<totfact> 0.19089370E+04</totfact>
</mgrwt>
</event>
<event>
 4    1  0.6148427E-004  0.2043578E+03  0.7818608E-02  0.1146114E+00
         -2   -1    0    0    0  501 -0.00000000000E+00  0.00000000000E+00  0.47775929807E+01  0.47775936612E+01  0.25500000000E-02 0. -1.
          2   -1    0    0  501    0  0.00000000000E+00 -0.00000000000E+00 -0.21853102618E+04  0.21853102618E+04  0.25500000000E-02 0.  1.
    5000001    1    1    2    0    0 -0.43675741559E+02 -0.44402946771E+02 -0.13597564575E+04  0.13633582859E+04  0.77000000000E+02 0.  0.
   -5000001    1    1    2    0    0  0.43675741559E+02  0.44402946771E+02 -0.82077621126E+03  0.82672956948E+03  0.77000000000E+02 0.  0.
<mgrwt>
<rscale>  0 0.20435776E+03</rscale>
<asrwt>0</asrwt>
<pdfrwt beam="1">  1        2 0.33620078E+00 0.20435776E+03</pdfrwt>
<pdfrwt beam="2">  1       -2 0.73501610E-03 0.20435776E+03</pdfrwt>
<totfact> 0.19572149E+04</totfact>
</mgrwt>
</event>
<event>
 4    1  0.6148427E-004  0.1944935E+03  0.7818608E-02  0.1154470E+00
          2   -1    0    0  501    0  0.00000000000E+00  0.00000000000E+00  0.19927194907E+03  0.19927194909E+03  0.25500000000E-02 0.  1.
         -2   -1    0    0    0  501 -0.00000000000E+00 -0.00000000000E+00 -0.47457389441E+02  0.47457389509E+02  0.25500000000E-02 0. -1.
    5000001    1    1    2    0    0  0.36020457406E+02 -0.31872485622E+02  0.31696106682E+02  0.96161176523E+02  0.77000000000E+02 0.  0.
   -5000001    1    1    2    0    0 -0.36020457406E+02  0.31872485622E+02  0.12011845295E+03  0.15056816207E+03  0.77000000000E+02 0.  0.
<mgrwt>
<rscale>  0 0.19449346E+03</rscale>
<asrwt>0</asrwt>
<pdfrwt beam="1">  1        2 0.30657223E-01 0.19449346E+03</pdfrwt>
<pdfrwt beam="2">  1       -2 0.73011369E-02 0.19449346E+03</pdfrwt>
<totfact> 0.17987029E+04</totfact>
</mgrwt>
</event>
<event>
 4    1  0.6148427E-004  0.1958118E+03  0.7818608E-02  0.1153321E+00
          2   -1    0    0  501    0  0.00000000000E+00  0.00000000000E+00  0.35244304110E+02  0.35244304203E+02  0.25500000000E-02 0.  1.
         -2   -1    0    0    0  501 -0.00000000000E+00 -0.00000000000E+00 -0.27197494150E+03  0.27197494151E+03  0.25500000000E-02 0. -1.
    5000001    1    1    2    0    0  0.38365714381E+02  0.40266295827E+02 -0.15560156278E+03  0.18230235588E+03  0.77000000000E+02 0.  0.
   -5000001    1    1    2    0    0 -0.38365714381E+02 -0.40266295827E+02 -0.81129074617E+02  0.12491688984E+03  0.77000000000E+02 0.  0.
<mgrwt>
<rscale>  0 0.19581182E+03</rscale>
<asrwt>0</asrwt>
<pdfrwt beam="1">  1        2 0.54222008E-02 0.19581182E+03</pdfrwt>
<pdfrwt beam="2">  1       -2 0.41842297E-01 0.19581182E+03</pdfrwt>
<totfact> 0.74825006E+03</totfact>
</mgrwt>
</event>
<event>
 4    1  0.6148427E-004  0.2479799E+03  0.7818608E-02  0.1114588E+00
          2   -1    0    0  501    0  0.00000000000E+00  0.00000000000E+00  0.26961137755E+03  0.26961137756E+03  0.25500000000E-02 0.  1.
         -2   -1    0    0    0  501 -0.00000000000E+00 -0.00000000000E+00 -0.57020983991E+02  0.57020984048E+02  0.25500000000E-02 0. -1.
    5000001    1    1    2    0    0  0.89194185329E+02  0.31200714616E+02  0.13619875491E+03  0.18277906918E+03  0.77000000000E+02 0.  0.
   -5000001    1    1    2    0    0 -0.89194185329E+02 -0.31200714616E+02  0.76391638649E+02  0.14385329244E+03  0.77000000000E+02 0.  0.
<mgrwt>
<rscale>  0 0.24797989E+03</rscale>
<asrwt>0</asrwt>
<pdfrwt beam="1">  1        2 0.41478674E-01 0.24797989E+03</pdfrwt>
<pdfrwt beam="2">  1       -2 0.87724590E-02 0.24797989E+03</pdfrwt>
<totfact> 0.98935473E+03</totfact>
</mgrwt>
</event>
<event>
 4    1  0.6148427E-004  0.2276739E+03  0.7818608E-02  0.1128288E+00
          2   -1    0    0  501    0  0.00000000000E+00  0.00000000000E+00  0.77167213893E+03  0.77167213894E+03  0.25500000000E-02 0.  1.
         -2   -1    0    0    0  501 -0.00000000000E+00 -0.00000000000E+00 -0.16793204983E+02  0.16793205176E+02  0.25500000000E-02 0. -1.
    5000001    1    1    2    0    0  0.76624612386E+02 -0.33937355806E+02  0.38645236730E+03  0.40286164813E+03  0.77000000000E+02 0.  0.
   -5000001    1    1    2    0    0 -0.76624612386E+02  0.33937355806E+02  0.36842656665E+03  0.38560369598E+03  0.77000000000E+02 0.  0.
<mgrwt>
<rscale>  0 0.22767388E+03</rscale>
<asrwt>0</asrwt>
<pdfrwt beam="1">  1        2 0.11871883E+00 0.22767388E+03</pdfrwt>
<pdfrwt beam="2">  1       -2 0.25835691E-02 0.22767388E+03</pdfrwt>
<totfact> 0.19354825E+04</totfact>
</mgrwt>
</event>
<event>
 4    1  0.6148427E-004  0.3160630E+03  0.7818608E-02  0.1077476E+00
         -2   -1    0    0    0  501 -0.00000000000E+00  0.00000000000E+00  0.10433347253E+02  0.10433347565E+02  0.25500000000E-02 0.  1.
          2   -1    0    0  501    0  0.00000000000E+00 -0.00000000000E+00 -0.23936662859E+04  0.23936662859E+04  0.25500000000E-02 0. -1.
    5000001    1    1    2    0    0  0.11546771999E+03 -0.42650537157E+02 -0.71701835130E+03  0.73157103467E+03  0.77000000000E+02 0.  0.
   -5000001    1    1    2    0    0 -0.11546771999E+03  0.42650537157E+02 -0.16662145874E+04  0.16725285988E+04  0.77000000000E+02 0.  0.
<mgrwt>
<rscale>  0 0.31606298E+03</rscale>
<asrwt>0</asrwt>
<pdfrwt beam="1">  1        2 0.36825591E+00 0.31606298E+03</pdfrwt>
<pdfrwt beam="2">  1       -2 0.16051323E-02 0.31606298E+03</pdfrwt>
<totfact> 0.48909529E+03</totfact>
</mgrwt>
</event>
<event>
 4    1  0.6148427E-004  0.3102048E+03  0.7818608E-02  0.1080248E+00
          2   -1    0    0  501    0  0.00000000000E+00  0.00000000000E+00  0.41002279109E+04  0.41002279109E+04  0.25500000000E-02 0.  1.
         -2   -1    0    0    0  501 -0.00000000000E+00 -0.00000000000E+00 -0.58671729274E+01  0.58671734816E+01  0.25500000000E-02 0. -1.
    5000001    1    1    2    0    0 -0.20856202538E+02  0.89938475500E+02  0.74999232230E+03  0.75956658304E+03  0.77000000000E+02 0.  0.
   -5000001    1    1    2    0    0  0.20856202538E+02 -0.89938475500E+02  0.33443684156E+04  0.33465285013E+04  0.77000000000E+02 0.  0.
<mgrwt>
<rscale>  0 0.31020475E+03</rscale>
<asrwt>0</asrwt>
<pdfrwt beam="1">  1        2 0.63080436E+00 0.31020475E+03</pdfrwt>
<pdfrwt beam="2">  1       -2 0.90264193E-03 0.31020475E+03</pdfrwt>
<totfact> 0.91668069E+02</totfact>
</mgrwt>
</event>
<event>
 4    1  0.6148427E-004  0.2820265E+03  0.7818608E-02  0.1094587E+00
         -2   -1    0    0    0  501 -0.00000000000E+00  0.00000000000E+00  0.23041411893E+02  0.23041412034E+02  0.25500000000E-02 0. -1.
          2   -1    0    0  501    0  0.00000000000E+00 -0.00000000000E+00 -0.86299981779E+03  0.86299981779E+03  0.25500000000E-02 0.  1.
    5000001    1    1    2    0    0 -0.99132250212E+02 -0.47353454277E+02 -0.55642362891E+03  0.57236859407E+03  0.77000000000E+02 0.  0.
   -5000001    1    1    2    0    0  0.99132250212E+02  0.47353454277E+02 -0.28353477698E+03  0.31367263576E+03  0.77000000000E+02 0.  0.
<mgrwt>
<rscale>  0 0.28202648E+03</rscale>
<asrwt>0</asrwt>
<pdfrwt beam="1">  1        2 0.13276918E+00 0.28202648E+03</pdfrwt>
<pdfrwt beam="2">  1       -2 0.35448333E-02 0.28202648E+03</pdfrwt>
<totfact> 0.10576717E+04</totfact>
</mgrwt>
</event>
<event>
 4    1  0.6148427E-004  0.2632140E+03  0.7818608E-02  0.1105227E+00
         -2   -1    0    0    0  501 -0.00000000000E+00  0.00000000000E+00  0.15974625335E+02  0.15974625538E+02  0.25500000000E-02 0. -1.
          2   -1    0    0  501    0  0.00000000000E+00 -0.00000000000E+00 -0.10842450377E+04  0.10842450377E+04  0.25500000000E-02 0.  1.
    5000001    1    1    2    0    0  0.76478304868E+02 -0.68218765663E+02 -0.40952822453E+03  0.42912130894E+03  0.77000000000E+02 0.  0.
   -5000001    1    1    2    0    0 -0.76478304868E+02  0.68218765663E+02 -0.65874218782E+03  0.67109835428E+03  0.77000000000E+02 0.  0.
<mgrwt>
<rscale>  0 0.26321404E+03</rscale>
<asrwt>0</asrwt>
<pdfrwt beam="1">  1        2 0.16680687E+00 0.26321404E+03</pdfrwt>
<pdfrwt beam="2">  1       -2 0.24576355E-02 0.26321404E+03</pdfrwt>
<totfact> 0.13253866E+04</totfact>
</mgrwt>
</event>
<event>
 4    1  0.6148427E-004  0.2878378E+03  0.7818608E-02  0.1091483E+00
          2   -1    0    0  501    0  0.00000000000E+00  0.00000000000E+00  0.67020485303E+02  0.67020485351E+02  0.25500000000E-02 0.  1.
         -2   -1    0    0    0  501 -0.00000000000E+00 -0.00000000000E+00 -0.30904954547E+03  0.30904954548E+03  0.25500000000E-02 0. -1.
    5000001    1    1    2    0    0 -0.34818790659E+02 -0.11422455754E+03 -0.15092397927E+03  0.20728397248E+03  0.77000000000E+02 0.  0.
   -5000001    1    1    2    0    0  0.34818790659E+02  0.11422455754E+03 -0.91105080891E+02  0.16878605835E+03  0.77000000000E+02 0.  0.
<mgrwt>
<rscale>  0 0.28783781E+03</rscale>
<asrwt>0</asrwt>
<pdfrwt beam="1">  1        2 0.10310844E-01 0.28783781E+03</pdfrwt>
<pdfrwt beam="2">  1       -2 0.47546083E-01 0.28783781E+03</pdfrwt>
<totfact> 0.26155526E+03</totfact>
</mgrwt>
</event>
<event>
 4    1  0.6148427E-004  0.2585452E+03  0.7818608E-02  0.1108020E+00
          2   -1    0    0  501    0  0.00000000000E+00  0.00000000000E+00  0.42637994919E+03  0.42637994919E+03  0.25500000000E-02 0.  1.
         -2   -1    0    0    0  501 -0.00000000000E+00 -0.00000000000E+00 -0.39193706390E+02  0.39193706473E+02  0.25500000000E-02 0. -1.
    5000001    1    1    2    0    0  0.60352304497E+02  0.69811962424E+02  0.10786752238E+03  0.16149462264E+03  0.77000000000E+02 0.  0.
   -5000001    1    1    2    0    0 -0.60352304497E+02 -0.69811962424E+02  0.27931872041E+03  0.30407903303E+03  0.77000000000E+02 0.  0.
<mgrwt>
<rscale>  0 0.25854524E+03</rscale>
<asrwt>0</asrwt>
<pdfrwt beam="1">  1        2 0.65596915E-01 0.25854524E+03</pdfrwt>
<pdfrwt beam="2">  1       -2 0.60298011E-02 0.25854524E+03</pdfrwt>
<totfact> 0.10815594E+04</totfact>
</mgrwt>
</event>
<event>
 4    1  0.6148427E-004  0.1543693E+03  0.7818608E-02  0.1195205E+00
          2   -1    0    0  501    0  0.00000000000E+00  0.00000000000E+00  0.65382688207E+03  0.65382688208E+03  0.25500000000E-02 0.  1.
         -2   -1    0    0    0  501 -0.00000000000E+00 -0.00000000000E+00 -0.91116921818E+01  0.91116925386E+01  0.25500000000E-02 0. -1.
    5000001    1    1    2    0    0 -0.70696532709E+00 -0.46908548270E+01  0.31186856160E+03  0.32126858489E+03  0.77000000000E+02 0.  0.
   -5000001    1    1    2    0    0  0.70696532709E+00  0.46908548270E+01  0.33284662829E+03  0.34166998973E+03  0.77000000000E+02 0.  0.
<mgrwt>
<rscale>  0 0.15436929E+03</rscale>
<asrwt>0</asrwt>
<pdfrwt beam="1">  1        2 0.10058875E+00 0.15436929E+03</pdfrwt>
<pdfrwt beam="2">  1       -2 0.14017988E-02 0.15436929E+03</pdfrwt>
<totfact> 0.55952258E+04</totfact>
</mgrwt>
</event>
<event>
 4    1  0.6148427E-004  0.2045804E+03  0.7818608E-02  0.1145931E+00
          2   -1    0    0  501    0  0.00000000000E+00  0.00000000000E+00  0.10606007752E+04  0.10606007752E+04  0.25500000000E-02 0.  1.
         -2   -1    0    0    0  501 -0.00000000000E+00 -0.00000000000E+00 -0.98654330842E+01  0.98654334138E+01  0.25500000000E-02 0. -1.
    5000001    1    1    2    0    0 -0.11455251458E+02 -0.36232604801E+02  0.81624277155E+03  0.82074678589E+03  0.77000000000E+02 0.  0.
   -5000001    1    1    2    0    0  0.11455251458E+02  0.36232604801E+02  0.23449257052E+03  0.24971942269E+03  0.77000000000E+02 0.  0.
<mgrwt>
<rscale>  0 0.20458041E+03</rscale>
<asrwt>0</asrwt>
<pdfrwt beam="1">  1        2 0.16316940E+00 0.20458041E+03</pdfrwt>
<pdfrwt beam="2">  1       -2 0.15177585E-02 0.20458041E+03</pdfrwt>
<totfact> 0.27401443E+04</totfact>
</mgrwt>
</event>
<event>
 4    1  0.6148427E-004  0.1706206E+03  0.7818608E-02  0.1177202E+00
          2   -1    0    0  501    0  0.00000000000E+00  0.00000000000E+00  0.13563378525E+04  0.13563378525E+04  0.25500000000E-02 0.  1.
         -2   -1    0    0    0  501 -0.00000000000E+00 -0.00000000000E+00 -0.53658059678E+01  0.53658065737E+01  0.25500000000E-02 0. -1.
    5000001    1    1    2    0    0 -0.31426002251E+02  0.20866974211E+01  0.52471309397E+03  0.53126714458E+03  0.77000000000E+02 0.  0.
   -5000001    1    1    2    0    0  0.31426002251E+02 -0.20866974211E+01  0.82625895251E+03  0.83043651445E+03  0.77000000000E+02 0.  0.
<mgrwt>
<rscale>  0 0.17062059E+03</rscale>
<asrwt>0</asrwt>
<pdfrwt beam="1">  1        2 0.20866752E+00 0.17062059E+03</pdfrwt>
<pdfrwt beam="2">  1       -2 0.82550804E-03 0.17062059E+03</pdfrwt>
<totfact> 0.44477196E+04</totfact>
</mgrwt>
</event>
<event>
 4    1  0.6148427E-004  0.4025689E+03  0.7818608E-02  0.1042894E+00
         -2   -1    0    0    0  501 -0.00000000000E+00  0.00000000000E+00  0.17585703595E+02  0.17585703780E+02  0.25500000000E-02 0. -1.
          2   -1    0    0  501    0  0.00000000000E+00 -0.00000000000E+00 -0.23038846906E+04  0.23038846906E+04  0.25500000000E-02 0.  1.
    5000001    1    1    2    0    0  0.11982269733E+03 -0.14050475799E+03 -0.12704561977E+04  0.12861131428E+04  0.77000000000E+02 0.  0.
   -5000001    1    1    2    0    0 -0.11982269733E+03  0.14050475799E+03 -0.10158427893E+04  0.10353572516E+04  0.77000000000E+02 0.  0.
<mgrwt>
<rscale>  0 0.40256892E+03</rscale>
<asrwt>0</asrwt>
<pdfrwt beam="1">  1        2 0.35444356E+00 0.40256892E+03</pdfrwt>
<pdfrwt beam="2">  1       -2 0.27054947E-02 0.40256892E+03</pdfrwt>
<totfact> 0.25100829E+03</totfact>
</mgrwt>
</event>
<event>
 4    1  0.6148427E-004  0.2736908E+03  0.7818608E-02  0.1099186E+00
         -2   -1    0    0    0  501 -0.00000000000E+00  0.00000000000E+00  0.55552064839E+03  0.55552064839E+03  0.25500000000E-02 0. -1.
          2   -1    0    0  501    0  0.00000000000E+00 -0.00000000000E+00 -0.33710100348E+02  0.33710100444E+02  0.25500000000E-02 0.  1.
    5000001    1    1    2    0    0  0.68893846866E+02  0.89426310088E+02  0.24505108161E+03  0.28057522996E+03  0.77000000000E+02 0.  0.
   -5000001    1    1    2    0    0 -0.68893846866E+02 -0.89426310088E+02  0.27675946643E+03  0.30865551887E+03  0.77000000000E+02 0.  0.
<mgrwt>
<rscale>  0 0.27369075E+03</rscale>
<asrwt>0</asrwt>
<pdfrwt beam="1">  1        2 0.51861690E-02 0.27369075E+03</pdfrwt>
<pdfrwt beam="2">  1       -2 0.85464721E-01 0.27369075E+03</pdfrwt>
<totfact> 0.18371192E+03</totfact>
</mgrwt>
</event>
<event>
 4    1  0.6148427E-004  0.1845358E+03  0.7818608E-02  0.1163484E+00
          2   -1    0    0  501    0  0.00000000000E+00  0.00000000000E+00  0.50698413694E+03  0.50698413695E+03  0.25500000000E-02 0.  1.
         -2   -1    0    0    0  501 -0.00000000000E+00 -0.00000000000E+00 -0.16792165222E+02  0.16792165416E+02  0.25500000000E-02 0. -1.
    5000001    1    1    2    0    0  0.42811754255E+02  0.15944311606E+02  0.18180061428E+03  0.20265125395E+03  0.77000000000E+02 0.  0.
   -5000001    1    1    2    0    0 -0.42811754255E+02 -0.15944311606E+02  0.30839135745E+03  0.32112504842E+03  0.77000000000E+02 0.  0.
<mgrwt>
<rscale>  0 0.18453576E+03</rscale>
<asrwt>0</asrwt>
<pdfrwt beam="1">  1        2 0.77997547E-01 0.18453576E+03</pdfrwt>
<pdfrwt beam="2">  1       -2 0.25834105E-02 0.18453576E+03</pdfrwt>
<totfact> 0.31178174E+04</totfact>
</mgrwt>
</event>
<event>
 4    1  0.6148427E-004  0.1666244E+03  0.7818608E-02  0.1181415E+00
          2   -1    0    0  501    0  0.00000000000E+00  0.00000000000E+00  0.26047169090E+03  0.26047169091E+03  0.25500000000E-02 0.  1.
         -2   -1    0    0    0  501 -0.00000000000E+00 -0.00000000000E+00 -0.26647504694E+02  0.26647504816E+02  0.25500000000E-02 0. -1.
    5000001    1    1    2    0    0  0.49728319182E+01 -0.23536541953E+02  0.15277779439E+03  0.17276791462E+03  0.77000000000E+02 0.  0.
   -5000001    1    1    2    0    0 -0.49728319182E+01  0.23536541953E+02  0.81046391817E+02  0.11435128111E+03  0.77000000000E+02 0.  0.
<mgrwt>
<rscale>  0 0.16662438E+03</rscale>
<asrwt>0</asrwt>
<pdfrwt beam="1">  1        2 0.40072569E-01 0.16662438E+03</pdfrwt>
<pdfrwt beam="2">  1       -2 0.40996160E-02 0.16662438E+03</pdfrwt>
<totfact> 0.31924791E+04</totfact>
</mgrwt>
</event>
<event>
 4    1  0.6148427E-004  0.1831460E+03  0.7818608E-02  0.1164793E+00
         -2   -1    0    0    0  501 -0.00000000000E+00  0.00000000000E+00  0.11092395303E+02  0.11092395596E+02  0.25500000000E-02 0. -1.
          2   -1    0    0  501    0  0.00000000000E+00 -0.00000000000E+00 -0.75597863748E+03  0.75597863748E+03  0.25500000000E-02 0.  1.
    5000001    1    1    2    0    0 -0.65435601598E+00 -0.40950031595E+02 -0.48936212925E+03  0.49707305984E+03  0.77000000000E+02 0.  0.
   -5000001    1    1    2    0    0  0.65435601598E+00  0.40950031595E+02 -0.25552411292E+03  0.26999797324E+03  0.77000000000E+02 0.  0.
<mgrwt>
<rscale>  0 0.18314600E+03</rscale>
<asrwt>0</asrwt>
<pdfrwt beam="1">  1        2 0.11630437E+00 0.18314600E+03</pdfrwt>
<pdfrwt beam="2">  1       -2 0.17065230E-02 0.18314600E+03</pdfrwt>
<totfact> 0.35914811E+04</totfact>
</mgrwt>
</event>
<event>
 4    1  0.6148427E-004  0.2740611E+03  0.7818608E-02  0.1098978E+00
          2   -1    0    0  501    0  0.00000000000E+00  0.00000000000E+00  0.25712420600E+03  0.25712420602E+03  0.25500000000E-02 0.  1.
         -2   -1    0    0    0  501 -0.00000000000E+00 -0.00000000000E+00 -0.73028394592E+02  0.73028394636E+02  0.25500000000E-02 0. -1.
    5000001    1    1    2    0    0 -0.36479726966E+01  0.10823074611E+03  0.13238478577E+03  0.18756847713E+03  0.77000000000E+02 0.  0.
   -5000001    1    1    2    0    0  0.36479726966E+01 -0.10823074611E+03  0.51711025641E+02  0.14258412352E+03  0.77000000000E+02 0.  0.
<mgrwt>
<rscale>  0 0.27406107E+03</rscale>
<asrwt>0</asrwt>
<pdfrwt beam="1">  1        2 0.39557570E-01 0.27406107E+03</pdfrwt>
<pdfrwt beam="2">  1       -2 0.11235138E-01 0.27406107E+03</pdfrwt>
<totfact> 0.70599108E+03</totfact>
</mgrwt>
</event>
<event>
 4    1  0.6148427E-004  0.4977465E+03  0.7818608E-02  0.1014369E+00
         -2   -1    0    0    0  501 -0.00000000000E+00  0.00000000000E+00  0.55393605829E+02  0.55393605887E+02  0.25500000000E-02 0. -1.
          2   -1    0    0  501    0  0.00000000000E+00 -0.00000000000E+00 -0.11181416086E+04  0.11181416086E+04  0.25500000000E-02 0.  1.
    5000001    1    1    2    0    0 -0.14900030077E+03 -0.47035158872E+02 -0.95045746282E+03  0.96628763027E+03  0.77000000000E+02 0.  0.
   -5000001    1    1    2    0    0  0.14900030077E+03  0.47035158872E+02 -0.11229053995E+03  0.20724758421E+03  0.77000000000E+02 0.  0.
<mgrwt>
<rscale>  0 0.49774650E+03</rscale>
<asrwt>0</asrwt>
<pdfrwt beam="1">  1        2 0.17202177E+00 0.49774650E+03</pdfrwt>
<pdfrwt beam="2">  1       -2 0.85220941E-02 0.49774650E+03</pdfrwt>
<totfact> 0.19045251E+03</totfact>
</mgrwt>
</event>
<event>
 4    1  0.6148427E-004  0.1730656E+03  0.7818608E-02  0.1174688E+00
         -2   -1    0    0    0  501 -0.00000000000E+00  0.00000000000E+00  0.69193314867E+02  0.69193314914E+02  0.25500000000E-02 0. -1.
          2   -1    0    0  501    0  0.00000000000E+00 -0.00000000000E+00 -0.10821744356E+03  0.10821744359E+03  0.25500000000E-02 0.  1.
    5000001    1    1    2    0    0  0.38118570964E+02  0.23062868260E+01 -0.92313467054E+01  0.86443982863E+02  0.77000000000E+02 0.  0.
   -5000001    1    1    2    0    0 -0.38118570964E+02 -0.23062868260E+01 -0.29792781983E+02  0.90966775636E+02  0.77000000000E+02 0.  0.
<mgrwt>
<rscale>  0 0.17306558E+03</rscale>
<asrwt>0</asrwt>
<pdfrwt beam="1">  1        2 0.16648838E-01 0.17306558E+03</pdfrwt>
<pdfrwt beam="2">  1       -2 0.10645125E-01 0.17306558E+03</pdfrwt>
<totfact> 0.19608239E+04</totfact>
</mgrwt>
</event>
<event>
 4    1  0.6148427E-004  0.3129325E+03  0.7818608E-02  0.1078949E+00
         -2   -1    0    0    0  501 -0.00000000000E+00  0.00000000000E+00  0.20682629405E+02  0.20682629562E+02  0.25500000000E-02 0. -1.
          2   -1    0    0  501    0  0.00000000000E+00 -0.00000000000E+00 -0.11836834685E+04  0.11836834685E+04  0.25500000000E-02 0.  1.
    5000001    1    1    2    0    0 -0.10504703526E+03  0.95242401731E+01 -0.24982187936E+03  0.28189636779E+03  0.77000000000E+02 0.  0.
   -5000001    1    1    2    0    0  0.10504703526E+03 -0.95242401731E+01 -0.91317895975E+03  0.92246973028E+03  0.77000000000E+02 0.  0.
<mgrwt>
<rscale>  0 0.31293250E+03</rscale>
<asrwt>0</asrwt>
<pdfrwt beam="1">  1        2 0.18210510E+00 0.31293250E+03</pdfrwt>
<pdfrwt beam="2">  1       -2 0.31819439E-02 0.31293250E+03</pdfrwt>
<totfact> 0.79366472E+03</totfact>
</mgrwt>
</event>
<event>
 4    1  0.6148427E-004  0.1798799E+03  0.7818608E-02  0.1167919E+00
         -2   -1    0    0    0  501 -0.00000000000E+00  0.00000000000E+00  0.12846258742E+02  0.12846258995E+02  0.25500000000E-02 0. -1.
          2   -1    0    0  501    0  0.00000000000E+00 -0.00000000000E+00 -0.62969260000E+03  0.62969260000E+03  0.25500000000E-02 0.  1.
    5000001    1    1    2    0    0 -0.24365314289E+02  0.38695316280E+02 -0.27870898154E+03  0.29274339007E+03  0.77000000000E+02 0.  0.
   -5000001    1    1    2    0    0  0.24365314289E+02 -0.38695316280E+02 -0.33813735972E+03  0.34979546892E+03  0.77000000000E+02 0.  0.
<mgrwt>
<rscale>  0 0.17987989E+03</rscale>
<asrwt>0</asrwt>
<pdfrwt beam="1">  1        2 0.96875761E-01 0.17987989E+03</pdfrwt>
<pdfrwt beam="2">  1       -2 0.19763480E-02 0.17987989E+03</pdfrwt>
<totfact> 0.36022604E+04</totfact>
</mgrwt>
</event>
<event>
 4    1  0.6148427E-004  0.1942199E+03  0.7818608E-02  0.1154709E+00
          2   -1    0    0  501    0  0.00000000000E+00  0.00000000000E+00  0.61484281340E+03  0.61484281341E+03  0.25500000000E-02 0.  1.
         -2   -1    0    0    0  501 -0.00000000000E+00 -0.00000000000E+00 -0.15337809784E+02  0.15337809996E+02  0.25500000000E-02 0. -1.
    5000001    1    1    2    0    0  0.17156647059E+02  0.50622133872E+02  0.21738685216E+03  0.23673401629E+03  0.77000000000E+02 0.  0.
   -5000001    1    1    2    0    0 -0.17156647059E+02 -0.50622133872E+02  0.38211815146E+03  0.39344660712E+03  0.77000000000E+02 0.  0.
<mgrwt>
<rscale>  0 0.19421990E+03</rscale>
<asrwt>0</asrwt>
<pdfrwt beam="1">  1        2 0.94591197E-01 0.19421990E+03</pdfrwt>
<pdfrwt beam="2">  1       -2 0.23596632E-02 0.19421990E+03</pdfrwt>
<totfact> 0.28747933E+04</totfact>
</mgrwt>
</event>
<event>
 4    1  0.6148427E-004  0.3862036E+03  0.7818608E-02  0.1048664E+00
         -2   -1    0    0    0  501 -0.00000000000E+00  0.00000000000E+00  0.67858209451E+02  0.67858209499E+02  0.25500000000E-02 0. -1.
          2   -1    0    0  501    0  0.00000000000E+00 -0.00000000000E+00 -0.54950321027E+03  0.54950321028E+03  0.25500000000E-02 0.  1.
    5000001    1    1    2    0    0 -0.26395011146E+02  0.10916365945E+03 -0.21957480676E+02  0.13792944615E+03  0.77000000000E+02 0.  0.
   -5000001    1    1    2    0    0  0.26395011146E+02 -0.10916365945E+03 -0.45968752015E+03  0.47943197363E+03  0.77000000000E+02 0.  0.
<mgrwt>
<rscale>  0 0.38620359E+03</rscale>
<asrwt>0</asrwt>
<pdfrwt beam="1">  1        2 0.84538953E-01 0.38620359E+03</pdfrwt>
<pdfrwt beam="2">  1       -2 0.10439725E-01 0.38620359E+03</pdfrwt>
<totfact> 0.34803071E+03</totfact>
</mgrwt>
</event>
<event>
 4    1  0.6148427E-004  0.2622769E+03  0.7818608E-02  0.1105783E+00
          2   -1    0    0  501    0  0.00000000000E+00  0.00000000000E+00  0.46695549840E+03  0.46695549841E+03  0.25500000000E-02 0.  1.
         -2   -1    0    0    0  501 -0.00000000000E+00 -0.00000000000E+00 -0.36828558360E+02  0.36828558448E+02  0.25500000000E-02 0. -1.
    5000001    1    1    2    0    0 -0.95016510192E+02 -0.14721092853E+02  0.12866012368E+03  0.17812151810E+03  0.77000000000E+02 0.  0.
   -5000001    1    1    2    0    0  0.95016510192E+02  0.14721092853E+02  0.30146681636E+03  0.32566253876E+03  0.77000000000E+02 0.  0.
<mgrwt>
<rscale>  0 0.26227694E+03</rscale>
<asrwt>0</asrwt>
<pdfrwt beam="1">  1        2 0.71839312E-01 0.26227694E+03</pdfrwt>
<pdfrwt beam="2">  1       -2 0.56659317E-02 0.26227694E+03</pdfrwt>
<totfact> 0.10772614E+04</totfact>
</mgrwt>
</event>
<event>
 4    1  0.6148427E-004  0.3447545E+03  0.7818608E-02  0.1064789E+00
          2   -1    0    0  501    0  0.00000000000E+00  0.00000000000E+00  0.17321930326E+04  0.17321930326E+04  0.25500000000E-02 0.  1.
         -2   -1    0    0    0  501 -0.00000000000E+00 -0.00000000000E+00 -0.17153925556E+02  0.17153925745E+02  0.25500000000E-02 0. -1.
    5000001    1    1    2    0    0  0.13272213918E+03 -0.27378346104E+02  0.48394909581E+03  0.50842941241E+03  0.77000000000E+02 0.  0.
   -5000001    1    1    2    0    0 -0.13272213918E+03  0.27378346104E+02  0.12310900113E+04  0.12409175460E+04  0.77000000000E+02 0.  0.
<mgrwt>
<rscale>  0 0.34475447E+03</rscale>
<asrwt>0</asrwt>
<pdfrwt beam="1">  1        2 0.26649135E+00 0.34475447E+03</pdfrwt>
<pdfrwt beam="2">  1       -2 0.26390644E-02 0.34475447E+03</pdfrwt>
<totfact> 0.52737282E+03</totfact>
</mgrwt>
</event>
<event>
 4    1  0.6148427E-004  0.3412081E+03  0.7818608E-02  0.1066283E+00
          2   -1    0    0  501    0  0.00000000000E+00  0.00000000000E+00  0.10078899957E+04  0.10078899957E+04  0.25500000000E-02 0.  1.
         -2   -1    0    0    0  501 -0.00000000000E+00 -0.00000000000E+00 -0.28877901762E+02  0.28877901875E+02  0.25500000000E-02 0. -1.
    5000001    1    1    2    0    0 -0.10794685496E+03  0.93711252410E+02  0.33038426967E+03  0.36812645649E+03  0.77000000000E+02 0.  0.
   -5000001    1    1    2    0    0  0.10794685496E+03 -0.93711252410E+02  0.64862782428E+03  0.66864144110E+03  0.77000000000E+02 0.  0.
<mgrwt>
<rscale>  0 0.34120814E+03</rscale>
<asrwt>0</asrwt>
<pdfrwt beam="1">  1        2 0.15506001E+00 0.34120814E+03</pdfrwt>
<pdfrwt beam="2">  1       -2 0.44427538E-02 0.34120814E+03</pdfrwt>
<totfact> 0.61094802E+03</totfact>
</mgrwt>
</event>
<event>
 4    1  0.6148427E-004  0.2716152E+03  0.7818608E-02  0.1100359E+00
         -2   -1    0    0    0  501 -0.00000000000E+00  0.00000000000E+00  0.83712379228E+01  0.83712383111E+01  0.25500000000E-02 0. -1.
          2   -1    0    0  501    0  0.00000000000E+00 -0.00000000000E+00 -0.22032224747E+04  0.22032224747E+04  0.25500000000E-02 0.  1.
    5000001    1    1    2    0    0 -0.57359864433E+02  0.66852048145E+02 -0.53593493984E+03  0.54855684312E+03  0.77000000000E+02 0.  0.
   -5000001    1    1    2    0    0  0.57359864433E+02 -0.66852048145E+02 -0.16589162969E+04  0.16630368699E+04  0.77000000000E+02 0.  0.
<mgrwt>
<rscale>  0 0.27161517E+03</rscale>
<asrwt>0</asrwt>
<pdfrwt beam="1">  1        2 0.33895684E+00 0.27161517E+03</pdfrwt>
<pdfrwt beam="2">  1       -2 0.12878845E-02 0.27161517E+03</pdfrwt>
<totfact> 0.85513274E+03</totfact>
</mgrwt>
</event>
<event>
 4    1  0.6148427E-004  0.5035396E+03  0.7818608E-02  0.1012859E+00
         -2   -1    0    0    0  501 -0.00000000000E+00  0.00000000000E+00  0.26685243643E+02  0.26685243765E+02  0.25500000000E-02 0. -1.
          2   -1    0    0  501    0  0.00000000000E+00 -0.00000000000E+00 -0.23753968308E+04  0.23753968308E+04  0.25500000000E-02 0.  1.
    5000001    1    1    2    0    0  0.12649689074E+03 -0.14920653981E+03 -0.51343700062E+03  0.55480682088E+03  0.77000000000E+02 0.  0.
   -5000001    1    1    2    0    0 -0.12649689074E+03  0.14920653981E+03 -0.18352745865E+04  0.18472752537E+04  0.77000000000E+02 0.  0.
<mgrwt>
<rscale>  0 0.50353964E+03</rscale>
<asrwt>0</asrwt>
<pdfrwt beam="1">  1        2 0.36544550E+00 0.50353964E+03</pdfrwt>
<pdfrwt beam="2">  1       -2 0.41054240E-02 0.50353964E+03</pdfrwt>
<totfact> 0.12103469E+03</totfact>
</mgrwt>
</event>
<event>
 4    1  0.6148427E-004  0.3249829E+03  0.7818608E-02  0.1073379E+00
          2   -1    0    0  501    0  0.00000000000E+00  0.00000000000E+00  0.19092035796E+03  0.19092035798E+03  0.25500000000E-02 0.  1.
         -2   -1    0    0    0  501 -0.00000000000E+00 -0.00000000000E+00 -0.13829574345E+03  0.13829574347E+03  0.25500000000E-02 0. -1.
    5000001    1    1    2    0    0  0.10053447492E+03  0.48086360018E+02 -0.64606380938E+02  0.15007485840E+03  0.77000000000E+02 0.  0.
   -5000001    1    1    2    0    0 -0.10053447492E+03 -0.48086360018E+02  0.11723099545E+03  0.17914124305E+03  0.77000000000E+02 0.  0.
<mgrwt>
<rscale>  0 0.32498291E+03</rscale>
<asrwt>0</asrwt>
<pdfrwt beam="1">  1        2 0.29372363E-01 0.32498291E+03</pdfrwt>
<pdfrwt beam="2">  1       -2 0.21276268E-01 0.32498291E+03</pdfrwt>
<totfact> 0.33948248E+03</totfact>
</mgrwt>
</event>
<event>
 4    1  0.6148427E-004  0.4169408E+03  0.7818608E-02  0.1038067E+00
         -2   -1    0    0    0  501 -0.00000000000E+00  0.00000000000E+00  0.49416038273E+02  0.49416038339E+02  0.25500000000E-02 0. -1.
          2   -1    0    0  501    0  0.00000000000E+00 -0.00000000000E+00 -0.87946956094E+03  0.87946956094E+03  0.25500000000E-02 0.  1.
    5000001    1    1    2    0    0  0.21078790939E+01  0.19154977160E+03 -0.35064418046E+03  0.40691043172E+03  0.77000000000E+02 0.  0.
   -5000001    1    1    2    0    0 -0.21078790939E+01 -0.19154977160E+03 -0.47940934220E+03  0.52197516756E+03  0.77000000000E+02 0.  0.
<mgrwt>
<rscale>  0 0.41694077E+03</rscale>
<asrwt>0</asrwt>
<pdfrwt beam="1">  1        2 0.13530300E+00 0.41694077E+03</pdfrwt>
<pdfrwt beam="2">  1       -2 0.76024680E-02 0.41694077E+03</pdfrwt>
<totfact> 0.32242699E+03</totfact>
</mgrwt>
</event>
<event>
 4    1  0.6148427E-004  0.1902253E+03  0.7818608E-02  0.1158258E+00
         -2   -1    0    0    0  501 -0.00000000000E+00  0.00000000000E+00  0.41990699051E+01  0.41990706793E+01  0.25500000000E-02 0. -1.
          2   -1    0    0  501    0  0.00000000000E+00 -0.00000000000E+00 -0.21543851339E+04  0.21543851339E+04  0.25500000000E-02 0.  1.
    5000001    1    1    2    0    0  0.46167284591E+01 -0.55564928293E+02 -0.10417398718E+04  0.10460687051E+04  0.77000000000E+02 0.  0.
   -5000001    1    1    2    0    0 -0.46167284591E+01  0.55564928293E+02 -0.11084461922E+04  0.11125154994E+04  0.77000000000E+02 0.  0.
<mgrwt>
<rscale>  0 0.19022528E+03</rscale>
<asrwt>0</asrwt>
<pdfrwt beam="1">  1        2 0.33144298E+00 0.19022528E+03</pdfrwt>
<pdfrwt beam="2">  1       -2 0.64601254E-03 0.19022528E+03</pdfrwt>
<totfact> 0.24383020E+04</totfact>
</mgrwt>
</event>
<event>
 4    1  0.6148427E-004  0.3200670E+03  0.7818608E-02  0.1075618E+00
          2   -1    0    0  501    0  0.00000000000E+00  0.00000000000E+00  0.22833661653E+04  0.22833661653E+04  0.25500000000E-02 0.  1.
         -2   -1    0    0    0  501 -0.00000000000E+00 -0.00000000000E+00 -0.11216210755E+02  0.11216211045E+02  0.25500000000E-02 0. -1.
    5000001    1    1    2    0    0  0.10141801683E+03 -0.94617084687E+02  0.98506271376E+03  0.99775525901E+03  0.77000000000E+02 0.  0.
   -5000001    1    1    2    0    0 -0.10141801683E+03  0.94617084687E+02  0.12870872408E+04  0.12968271173E+04  0.77000000000E+02 0.  0.
<mgrwt>
<rscale>  0 0.32006697E+03</rscale>
<asrwt>0</asrwt>
<pdfrwt beam="1">  1        2 0.35128697E+00 0.32006697E+03</pdfrwt>
<pdfrwt beam="2">  1       -2 0.17255715E-02 0.32006697E+03</pdfrwt>
<totfact> 0.50441065E+03</totfact>
</mgrwt>
</event>
<event>
 4    1  0.6148427E-004  0.2033184E+03  0.7818608E-02  0.1146969E+00
          2   -1    0    0  501    0  0.00000000000E+00  0.00000000000E+00  0.14039893564E+03  0.14039893567E+03  0.25500000000E-02 0.  1.
         -2   -1    0    0    0  501 -0.00000000000E+00 -0.00000000000E+00 -0.73608777219E+02  0.73608777263E+02  0.25500000000E-02 0. -1.
    5000001    1    1    2    0    0  0.59988701549E+02 -0.13317110115E+02  0.59806182596E+02  0.11524655835E+03  0.77000000000E+02 0.  0.
   -5000001    1    1    2    0    0 -0.59988701549E+02  0.13317110115E+02  0.69839758293E+01  0.98761154579E+02  0.77000000000E+02 0.  0.
<mgrwt>
<rscale>  0 0.20331841E+03</rscale>
<asrwt>0</asrwt>
<pdfrwt beam="1">  1        2 0.21599836E-01 0.20331841E+03</pdfrwt>
<pdfrwt beam="2">  1       -2 0.11324427E-01 0.20331841E+03</pdfrwt>
<totfact> 0.13351643E+04</totfact>
</mgrwt>
</event>
<event>
 4    1  0.6148427E-004  0.1800296E+03  0.7818608E-02  0.1167774E+00
          2   -1    0    0  501    0  0.00000000000E+00  0.00000000000E+00  0.87819145798E+03  0.87819145798E+03  0.25500000000E-02 0.  1.
         -2   -1    0    0    0  501 -0.00000000000E+00 -0.00000000000E+00 -0.92265383844E+01  0.92265387368E+01  0.25500000000E-02 0. -1.
    5000001    1    1    2    0    0 -0.26965452886E+02  0.41256495763E+01  0.62085328992E+03  0.62620441090E+03  0.77000000000E+02 0.  0.
   -5000001    1    1    2    0    0  0.26965452886E+02 -0.41256495763E+01  0.24811162968E+03  0.26121358581E+03  0.77000000000E+02 0.  0.
<mgrwt>
<rscale>  0 0.18002963E+03</rscale>
<asrwt>0</asrwt>
<pdfrwt beam="1">  1        2 0.13510639E+00 0.18002963E+03</pdfrwt>
<pdfrwt beam="2">  1       -2 0.14194674E-02 0.18002963E+03</pdfrwt>
<totfact> 0.38754648E+04</totfact>
</mgrwt>
</event>
<event>
 4    1  0.6148427E-004  0.5921794E+03  0.7818608E-02  0.9921765E-01
          2   -1    0    0  501    0  0.00000000000E+00  0.00000000000E+00  0.68746744904E+03  0.68746744904E+03  0.25500000000E-02 0.  1.
         -2   -1    0    0    0  501 -0.00000000000E+00 -0.00000000000E+00 -0.12752475265E+03  0.12752475267E+03  0.25500000000E-02 0. -1.
    5000001    1    1    2    0    0 -0.55076575152E+02  0.26034169044E+03  0.42384729672E+03  0.50634647807E+03  0.77000000000E+02 0.  0.
   -5000001    1    1    2    0    0  0.55076575152E+02 -0.26034169044E+03  0.13609539967E+03  0.30864572365E+03  0.77000000000E+02 0.  0.
<mgrwt>
<rscale>  0 0.59217942E+03</rscale>
<asrwt>0</asrwt>
<pdfrwt beam="1">  1        2 0.10576422E+00 0.59217942E+03</pdfrwt>
<pdfrwt beam="2">  1       -2 0.19619193E-01 0.59217942E+03</pdfrwt>
<totfact> 0.92944739E+02</totfact>
</mgrwt>
</event>
<event>
 4    1  0.6148427E-004  0.2440523E+03  0.7818608E-02  0.1117122E+00
          2   -1    0    0  501    0  0.00000000000E+00  0.00000000000E+00  0.59960971284E+03  0.59960971284E+03  0.25500000000E-02 0.  1.
         -2   -1    0    0    0  501 -0.00000000000E+00 -0.00000000000E+00 -0.24833447964E+02  0.24833448094E+02  0.25500000000E-02 0. -1.
    5000001    1    1    2    0    0 -0.54251975627E+02  0.57018687350E+02  0.15279830723E+03  0.18833674697E+03  0.77000000000E+02 0.  0.
   -5000001    1    1    2    0    0  0.54251975627E+02 -0.57018687350E+02  0.42197795764E+03  0.43610641397E+03  0.77000000000E+02 0.  0.
<mgrwt>
<rscale>  0 0.24405226E+03</rscale>
<asrwt>0</asrwt>
<pdfrwt beam="1">  1        2 0.92247648E-01 0.24405226E+03</pdfrwt>
<pdfrwt beam="2">  1       -2 0.38205305E-02 0.24405226E+03</pdfrwt>
<totfact> 0.14694438E+04</totfact>
</mgrwt>
</event>
<event>
 4    1  0.6148427E-004  0.2218534E+03  0.7818608E-02  0.1132509E+00
         -2   -1    0    0    0  501 -0.00000000000E+00  0.00000000000E+00  0.18248251014E+02  0.18248251192E+02  0.25500000000E-02 0. -1.
          2   -1    0    0  501    0  0.00000000000E+00 -0.00000000000E+00 -0.67429633573E+03  0.67429633574E+03  0.25500000000E-02 0.  1.
    5000001    1    1    2    0    0 -0.14756899331E+02  0.77420558743E+02 -0.36800285949E+03  0.38414426142E+03  0.77000000000E+02 0.  0.
   -5000001    1    1    2    0    0  0.14756899331E+02 -0.77420558743E+02 -0.28804522523E+03  0.30840032551E+03  0.77000000000E+02 0.  0.
<mgrwt>
<rscale>  0 0.22185336E+03</rscale>
<asrwt>0</asrwt>
<pdfrwt beam="1">  1        2 0.10373788E+00 0.22185336E+03</pdfrwt>
<pdfrwt beam="2">  1       -2 0.28074238E-02 0.22185336E+03</pdfrwt>
<totfact> 0.20147375E+04</totfact>
</mgrwt>
</event>
<event>
 4    1  0.6148427E-004  0.2352050E+03  0.7818608E-02  0.1123029E+00
         -2   -1    0    0    0  501 -0.00000000000E+00  0.00000000000E+00  0.33334718837E+02  0.33334718934E+02  0.25500000000E-02 0. -1.
          2   -1    0    0  501    0  0.00000000000E+00 -0.00000000000E+00 -0.41489328313E+03  0.41489328314E+03  0.25500000000E-02 0.  1.
    5000001    1    1    2    0    0 -0.80937200790E+02 -0.36708538813E+02 -0.19408205365E+03  0.22692551827E+03  0.77000000000E+02 0.  0.
   -5000001    1    1    2    0    0  0.80937200790E+02  0.36708538813E+02 -0.18747651064E+03  0.22130248380E+03  0.77000000000E+02 0.  0.
<mgrwt>
<rscale>  0 0.23520503E+03</rscale>
<asrwt>0</asrwt>
<pdfrwt beam="1">  1        2 0.63829732E-01 0.23520503E+03</pdfrwt>
<pdfrwt beam="2">  1       -2 0.51284186E-02 0.23520503E+03</pdfrwt>
<totfact> 0.14197382E+04</totfact>
</mgrwt>
</event>
<event>
 4    1  0.6148427E-004  0.1862577E+03  0.7818608E-02  0.1161881E+00
         -2   -1    0    0    0  501 -0.00000000000E+00  0.00000000000E+00  0.36185479605E+01  0.36185488589E+01  0.25500000000E-02 0. -1.
          2   -1    0    0  501    0  0.00000000000E+00 -0.00000000000E+00 -0.23968138574E+04  0.23968138574E+04  0.25500000000E-02 0.  1.
    5000001    1    1    2    0    0 -0.31332405982E+02  0.41921559217E+02 -0.11682149209E+04  0.11719190408E+04  0.77000000000E+02 0.  0.
   -5000001    1    1    2    0    0  0.31332405982E+02 -0.41921559217E+02 -0.12249803886E+04  0.12285133655E+04  0.77000000000E+02 0.  0.
<mgrwt>
<rscale>  0 0.18625775E+03</rscale>
<asrwt>0</asrwt>
<pdfrwt beam="1">  1        2 0.36873933E+00 0.18625775E+03</pdfrwt>
<pdfrwt beam="2">  1       -2 0.55670167E-03 0.18625775E+03</pdfrwt>
<totfact> 0.22444678E+04</totfact>
</mgrwt>
</event>
<event>
 4    1  0.6148427E-004  0.2186948E+03  0.7818608E-02  0.1134860E+00
          2   -1    0    0  501    0  0.00000000000E+00  0.00000000000E+00  0.11090970217E+04  0.11090970217E+04  0.25500000000E-02 0.  1.
         -2   -1    0    0    0  501 -0.00000000000E+00 -0.00000000000E+00 -0.10780715048E+02  0.10780715349E+02  0.25500000000E-02 0. -1.
    5000001    1    1    2    0    0  0.61771462537E+02 -0.38392421693E+02  0.68828454376E+03  0.69638660585E+03  0.77000000000E+02 0.  0.
   -5000001    1    1    2    0    0 -0.61771462537E+02  0.38392421693E+02  0.41003176290E+03  0.42349113121E+03  0.77000000000E+02 0.  0.
<mgrwt>
<rscale>  0 0.21869485E+03</rscale>
<asrwt>0</asrwt>
<pdfrwt beam="1">  1        2 0.17063026E+00 0.21869485E+03</pdfrwt>
<pdfrwt beam="2">  1       -2 0.16585721E-02 0.21869485E+03</pdfrwt>
<totfact> 0.22643644E+04</totfact>
</mgrwt>
</event>
<event>
 4    1  0.6148427E-004  0.4366210E+03  0.7818608E-02  0.1031789E+00
         -2   -1    0    0    0  501 -0.00000000000E+00  0.00000000000E+00  0.18160672797E+04  0.18160672797E+04  0.25500000000E-02 0.  1.
          2   -1    0    0  501    0  0.00000000000E+00 -0.00000000000E+00 -0.26243226521E+02  0.26243226645E+02  0.25500000000E-02 0. -1.
    5000001    1    1    2    0    0  0.86934836812E+02 -0.17592559076E+03  0.11344572117E+04  0.11538759225E+04  0.77000000000E+02 0.  0.
   -5000001    1    1    2    0    0 -0.86934836812E+02  0.17592559076E+03  0.65536684157E+03  0.68843458394E+03  0.77000000000E+02 0.  0.
<mgrwt>
<rscale>  0 0.43662096E+03</rscale>
<asrwt>0</asrwt>
<pdfrwt beam="1">  1        2 0.40374177E-02 0.43662096E+03</pdfrwt>
<pdfrwt beam="2">  1       -2 0.27939509E+00 0.43662096E+03</pdfrwt>
<totfact> 0.99639870E+01</totfact>
</mgrwt>
</event>
<event>
 4    1  0.6148427E-004  0.2274825E+03  0.7818608E-02  0.1128424E+00
         -2   -1    0    0    0  501 -0.00000000000E+00  0.00000000000E+00  0.22078472486E+02  0.22078472633E+02  0.25500000000E-02 0. -1.
          2   -1    0    0  501    0  0.00000000000E+00 -0.00000000000E+00 -0.58595846045E+03  0.58595846045E+03  0.25500000000E-02 0.  1.
    5000001    1    1    2    0    0 -0.72063146731E+02  0.15254368113E+02 -0.38826196295E+03  0.40261910627E+03  0.77000000000E+02 0.  0.
   -5000001    1    1    2    0    0  0.72063146731E+02 -0.15254368113E+02 -0.17561802501E+03  0.20541782681E+03  0.77000000000E+02 0.  0.
<mgrwt>
<rscale>  0 0.22748246E+03</rscale>
<asrwt>0</asrwt>
<pdfrwt beam="1">  1        2 0.90147444E-01 0.22748246E+03</pdfrwt>
<pdfrwt beam="2">  1       -2 0.33966885E-02 0.22748246E+03</pdfrwt>
<totfact> 0.17920573E+04</totfact>
</mgrwt>
</event>
<event>
 4    1  0.6148427E-004  0.2256195E+03  0.7818608E-02  0.1129762E+00
          2   -1    0    0  501    0  0.00000000000E+00  0.00000000000E+00  0.71637294470E+03  0.71637294470E+03  0.25500000000E-02 0.  1.
         -2   -1    0    0    0  501 -0.00000000000E+00 -0.00000000000E+00 -0.17764540015E+02  0.17764540198E+02  0.25500000000E-02 0. -1.
    5000001    1    1    2    0    0  0.46671509981E+02 -0.59471545421E+02  0.24227490070E+03  0.26521919626E+03  0.77000000000E+02 0.  0.
   -5000001    1    1    2    0    0 -0.46671509981E+02  0.59471545421E+02  0.45633350398E+03  0.46891828864E+03  0.77000000000E+02 0.  0.
<mgrwt>
<rscale>  0 0.22561947E+03</rscale>
<asrwt>0</asrwt>
<pdfrwt beam="1">  1        2 0.11021121E+00 0.22561947E+03</pdfrwt>
<pdfrwt beam="2">  1       -2 0.27330065E-02 0.22561947E+03</pdfrwt>
<totfact> 0.19510126E+04</totfact>
</mgrwt>
</event>
<event>
 4    1  0.6148427E-004  0.2508120E+03  0.7818608E-02  0.1112793E+00
          2   -1    0    0  501    0  0.00000000000E+00  0.00000000000E+00  0.39158746068E+02  0.39158746151E+02  0.25500000000E-02 0.  1.
         -2   -1    0    0    0  501 -0.00000000000E+00 -0.00000000000E+00 -0.40161292783E+03  0.40161292784E+03  0.25500000000E-02 0. -1.
    5000001    1    1    2    0    0  0.36499791541E+02  0.67891633350E+02 -0.29035665266E+03  0.31012496579E+03  0.77000000000E+02 0.  0.
   -5000001    1    1    2    0    0 -0.36499791541E+02 -0.67891633350E+02 -0.72097529106E+02  0.13064670820E+03  0.77000000000E+02 0.  0.
<mgrwt>
<rscale>  0 0.25081195E+03</rscale>
<asrwt>0</asrwt>
<pdfrwt beam="1">  1        2 0.60244227E-02 0.25081195E+03</pdfrwt>
<pdfrwt beam="2">  1       -2 0.61786602E-01 0.25081195E+03</pdfrwt>
<totfact> 0.30323497E+03</totfact>
</mgrwt>
</event>
<event>
 4    1  0.6148427E-004  0.2090107E+03  0.7818608E-02  0.1142352E+00
         -2   -1    0    0    0  501 -0.00000000000E+00  0.00000000000E+00  0.38563526243E+01  0.38563534674E+01  0.25500000000E-02 0. -1.
          2   -1    0    0  501    0  0.00000000000E+00 -0.00000000000E+00 -0.28320468021E+04  0.28320468021E+04  0.25500000000E-02 0.  1.
    5000001    1    1    2    0    0 -0.62853187055E+02 -0.10026590896E+02 -0.99781031514E+03  0.10027988236E+04  0.77000000000E+02 0.  0.
   -5000001    1    1    2    0    0  0.62853187055E+02  0.10026590896E+02 -0.18303801343E+04  0.18331043319E+04  0.77000000000E+02 0.  0.
<mgrwt>
<rscale>  0 0.20901074E+03</rscale>
<asrwt>0</asrwt>
<pdfrwt beam="1">  1        2 0.43569785E+00 0.20901074E+03</pdfrwt>
<pdfrwt beam="2">  1       -2 0.59328735E-03 0.20901074E+03</pdfrwt>
<totfact> 0.11831931E+04</totfact>
</mgrwt>
</event>
<event>
 4    1  0.6148427E-004  0.2444538E+03  0.7818608E-02  0.1116861E+00
          2   -1    0    0  501    0  0.00000000000E+00  0.00000000000E+00  0.27739328707E+03  0.27739328708E+03  0.25500000000E-02 0.  1.
         -2   -1    0    0    0  501 -0.00000000000E+00 -0.00000000000E+00 -0.53856433169E+02  0.53856433230E+02  0.25500000000E-02 0. -1.
    5000001    1    1    2    0    0  0.87794439282E+02  0.30034057702E+02  0.84650115395E+02  0.14732464229E+03  0.77000000000E+02 0.  0.
   -5000001    1    1    2    0    0 -0.87794439282E+02 -0.30034057702E+02  0.13888673851E+03  0.18392507802E+03  0.77000000000E+02 0.  0.
<mgrwt>
<rscale>  0 0.24445378E+03</rscale>
<asrwt>0</asrwt>
<pdfrwt beam="1">  1        2 0.42675890E-01 0.24445378E+03</pdfrwt>
<pdfrwt beam="2">  1       -2 0.82856052E-02 0.24445378E+03</pdfrwt>
<totfact> 0.10486507E+04</totfact>
</mgrwt>
</event>
<event>
 4    1  0.6148427E-004  0.2313672E+03  0.7818608E-02  0.1125681E+00
         -2   -1    0    0    0  501 -0.00000000000E+00  0.00000000000E+00  0.83620184046E+02  0.83620184085E+02  0.25500000000E-02 0. -1.
          2   -1    0    0  501    0  0.00000000000E+00 -0.00000000000E+00 -0.16004144577E+03  0.16004144579E+03  0.25500000000E-02 0.  1.
    5000001    1    1    2    0    0 -0.74224802933E+02 -0.31698980603E+02 -0.70491479167E+02  0.13195527794E+03  0.77000000000E+02 0.  0.
   -5000001    1    1    2    0    0  0.74224802933E+02  0.31698980603E+02 -0.59297825604E+01  0.11170635194E+03  0.77000000000E+02 0.  0.
<mgrwt>
<rscale>  0 0.23136720E+03</rscale>
<asrwt>0</asrwt>
<pdfrwt beam="1">  1        2 0.24621761E-01 0.23136720E+03</pdfrwt>
<pdfrwt beam="2">  1       -2 0.12864644E-01 0.23136720E+03</pdfrwt>
<totfact> 0.94613205E+03</totfact>
</mgrwt>
</event>
<event>
 4    1  0.6148427E-004  0.4717068E+03  0.7818608E-02  0.1021440E+00
         -2   -1    0    0    0  501 -0.00000000000E+00  0.00000000000E+00  0.84615472782E+02  0.84615472821E+02  0.25500000000E-02 0. -1.
          2   -1    0    0  501    0  0.00000000000E+00 -0.00000000000E+00 -0.65740720568E+03  0.65740720569E+03  0.25500000000E-02 0.  1.
    5000001    1    1    2    0    0  0.11122963848E+03 -0.13391940743E+02 -0.58957805869E+03  0.60504765419E+03  0.77000000000E+02 0.  0.
   -5000001    1    1    2    0    0 -0.11122963848E+03  0.13391940743E+02  0.16786325793E+02  0.13697502431E+03  0.77000000000E+02 0.  0.
<mgrwt>
<rscale>  0 0.47170678E+03</rscale>
<asrwt>0</asrwt>
<pdfrwt beam="1">  1        2 0.10113957E+00 0.47170678E+03</pdfrwt>
<pdfrwt beam="2">  1       -2 0.13017765E-01 0.47170678E+03</pdfrwt>
<totfact> 0.19678665E+03</totfact>
</mgrwt>
</event>
<event>
 4    1  0.6148427E-004  0.2882738E+03  0.7818608E-02  0.1091254E+00
         -2   -1    0    0    0  501 -0.00000000000E+00  0.00000000000E+00  0.26124284929E+02  0.26124285054E+02  0.25500000000E-02 0. -1.
          2   -1    0    0  501    0  0.00000000000E+00 -0.00000000000E+00 -0.79525417092E+03  0.79525417093E+03  0.25500000000E-02 0.  1.
    5000001    1    1    2    0    0  0.91759556856E+01 -0.10096430661E+03 -0.57715014325E+03  0.59102392271E+03  0.77000000000E+02 0.  0.
   -5000001    1    1    2    0    0 -0.91759556856E+01  0.10096430661E+03 -0.19197974275E+03  0.23035453327E+03  0.77000000000E+02 0.  0.
<mgrwt>
<rscale>  0 0.28827380E+03</rscale>
<asrwt>0</asrwt>
<pdfrwt beam="1">  1        2 0.12234678E+00 0.28827380E+03</pdfrwt>
<pdfrwt beam="2">  1       -2 0.40191214E-02 0.28827380E+03</pdfrwt>
<totfact> 0.97416793E+03</totfact>
</mgrwt>
</event>
<event>
 4    1  0.6148427E-004  0.3274994E+03  0.7818608E-02  0.1072249E+00
         -2   -1    0    0    0  501 -0.00000000000E+00  0.00000000000E+00  0.99648616216E+03  0.99648616216E+03  0.25500000000E-02 0. -1.
          2   -1    0    0  501    0  0.00000000000E+00 -0.00000000000E+00 -0.26908517506E+02  0.26908517627E+02  0.25500000000E-02 0.  1.
    5000001    1    1    2    0    0 -0.12742453041E+03  0.30478582682E+02  0.67535522516E+03  0.69224246843E+03  0.77000000000E+02 0.  0.
   -5000001    1    1    2    0    0  0.12742453041E+03 -0.30478582682E+02  0.29422241949E+03  0.33115221135E+03  0.77000000000E+02 0.  0.
<mgrwt>
<rscale>  0 0.32749941E+03</rscale>
<asrwt>0</asrwt>
<pdfrwt beam="1">  1        2 0.41397726E-02 0.32749941E+03</pdfrwt>
<pdfrwt beam="2">  1       -2 0.15330554E+00 0.32749941E+03</pdfrwt>
<totfact> 0.60871986E+02</totfact>
</mgrwt>
</event>
<event>
 4    1  0.6148427E-004  0.4269244E+03  0.7818608E-02  0.1034836E+00
          2   -1    0    0  501    0  0.00000000000E+00  0.00000000000E+00  0.24047680515E+03  0.24047680516E+03  0.25500000000E-02 0.  1.
         -2   -1    0    0    0  501 -0.00000000000E+00 -0.00000000000E+00 -0.18948234840E+03  0.18948234842E+03  0.25500000000E-02 0. -1.
    5000001    1    1    2    0    0  0.30299204202E+01  0.18945765027E+03  0.87035822846E+02  0.22227824032E+03  0.77000000000E+02 0.  0.
   -5000001    1    1    2    0    0 -0.30299204202E+01 -0.18945765027E+03 -0.36041366102E+02  0.20768091326E+03  0.77000000000E+02 0.  0.
<mgrwt>
<rscale>  0 0.42692440E+03</rscale>
<asrwt>0</asrwt>
<pdfrwt beam="1">  1        2 0.36996432E-01 0.42692440E+03</pdfrwt>
<pdfrwt beam="2">  1       -2 0.29151130E-01 0.42692440E+03</pdfrwt>
<totfact> 0.15108377E+03</totfact>
</mgrwt>
</event>
<event>
 4    1  0.6148427E-004  0.2237261E+03  0.7818608E-02  0.1131135E+00
          2   -1    0    0  501    0  0.00000000000E+00  0.00000000000E+00  0.58180212584E+02  0.58180212640E+02  0.25500000000E-02 0.  1.
         -2   -1    0    0    0  501 -0.00000000000E+00 -0.00000000000E+00 -0.21507906038E+03  0.21507906040E+03  0.25500000000E-02 0. -1.
    5000001    1    1    2    0    0  0.60941600008E+02  0.52272527008E+02 -0.92800221696E+02  0.14486951659E+03  0.77000000000E+02 0.  0.
   -5000001    1    1    2    0    0 -0.60941600008E+02 -0.52272527008E+02 -0.64098626102E+02  0.12838975644E+03  0.77000000000E+02 0.  0.
<mgrwt>
<rscale>  0 0.22372613E+03</rscale>
<asrwt>0</asrwt>
<pdfrwt beam="1">  1        2 0.89508020E-02 0.22372613E+03</pdfrwt>
<pdfrwt beam="2">  1       -2 0.33089086E-01 0.22372613E+03</pdfrwt>
<totfact> 0.61665420E+03</totfact>
</mgrwt>
</event>
<event>
 4    1  0.6148427E-004  0.4601693E+03  0.7818608E-02  0.1024732E+00
          2   -1    0    0  501    0  0.00000000000E+00  0.00000000000E+00  0.55568514227E+03  0.55568514228E+03  0.25500000000E-02 0.  1.
         -2   -1    0    0    0  501 -0.00000000000E+00 -0.00000000000E+00 -0.95267891930E+02  0.95267891964E+02  0.25500000000E-02 0. -1.
    5000001    1    1    2    0    0 -0.13201458587E+03 -0.15910454426E+03  0.13779493347E+03  0.26011257289E+03  0.77000000000E+02 0.  0.
   -5000001    1    1    2    0    0  0.13201458587E+03  0.15910454426E+03  0.32262231687E+03  0.39084046135E+03  0.77000000000E+02 0.  0.
<mgrwt>
<rscale>  0 0.46016933E+03</rscale>
<asrwt>0</asrwt>
<pdfrwt beam="1">  1        2 0.85490023E-01 0.46016933E+03</pdfrwt>
<pdfrwt beam="2">  1       -2 0.14656599E-01 0.46016933E+03</pdfrwt>
<totfact> 0.19739133E+03</totfact>
</mgrwt>
</event>
<event>
 4    1  0.6148427E-004  0.1863113E+03  0.7818608E-02  0.1161831E+00
         -2   -1    0    0    0  501 -0.00000000000E+00  0.00000000000E+00  0.70960937972E+01  0.70960942553E+01  0.25500000000E-02 0. -1.
          2   -1    0    0  501    0  0.00000000000E+00 -0.00000000000E+00 -0.12229233397E+04  0.12229233397E+04  0.25500000000E-02 0.  1.
    5000001    1    1    2    0    0 -0.12157860980E+02 -0.23368687445E+02 -0.30862791635E+03  0.31917722332E+03  0.77000000000E+02 0.  0.
   -5000001    1    1    2    0    0  0.12157860980E+02  0.23368687445E+02 -0.90719932955E+03  0.91084221063E+03  0.77000000000E+02 0.  0.
<mgrwt>
<rscale>  0 0.18631134E+03</rscale>
<asrwt>0</asrwt>
<pdfrwt beam="1">  1        2 0.18814188E+00 0.18631134E+03</pdfrwt>
<pdfrwt beam="2">  1       -2 0.10917077E-02 0.18631134E+03</pdfrwt>
<totfact> 0.35428407E+04</totfact>
</mgrwt>
</event>
<event>
 4    1  0.6148427E-004  0.2845728E+03  0.7818608E-02  0.1093217E+00
         -2   -1    0    0    0  501 -0.00000000000E+00  0.00000000000E+00  0.63727115249E+02  0.63727115300E+02  0.25500000000E-02 0. -1.
          2   -1    0    0  501    0  0.00000000000E+00 -0.00000000000E+00 -0.31768928369E+03  0.31768928370E+03  0.25500000000E-02 0.  1.
    5000001    1    1    2    0    0  0.14108373357E+01  0.87122140093E+02 -0.17074149146E+02  0.11752780235E+03  0.77000000000E+02 0.  0.
   -5000001    1    1    2    0    0 -0.14108373357E+01 -0.87122140093E+02 -0.23688801930E+03  0.26388859665E+03  0.77000000000E+02 0.  0.
<mgrwt>
<rscale>  0 0.28457281E+03</rscale>
<asrwt>0</asrwt>
<pdfrwt beam="1">  1        2 0.48875274E-01 0.28457281E+03</pdfrwt>
<pdfrwt beam="2">  1       -2 0.98041717E-02 0.28457281E+03</pdfrwt>
<totfact> 0.69977328E+03</totfact>
</mgrwt>
</event>
<event>
 4    1  0.6148427E-004  0.2789771E+03  0.7818608E-02  0.1096249E+00
          2   -1    0    0  501    0  0.00000000000E+00  0.00000000000E+00  0.25493736364E+04  0.25493736364E+04  0.25500000000E-02 0.  1.
         -2   -1    0    0    0  501 -0.00000000000E+00 -0.00000000000E+00 -0.76320907574E+01  0.76320911834E+01  0.25500000000E-02 0. -1.
    5000001    1    1    2    0    0  0.27390815539E+02 -0.83823214087E+02  0.19659789147E+04  0.19694615205E+04  0.77000000000E+02 0.  0.
   -5000001    1    1    2    0    0 -0.27390815539E+02  0.83823214087E+02  0.57576263093E+03  0.58754420699E+03  0.77000000000E+02 0.  0.
<mgrwt>
<rscale>  0 0.27897707E+03</rscale>
<asrwt>0</asrwt>
<pdfrwt beam="1">  1        2 0.39221144E+00 0.27897707E+03</pdfrwt>
<pdfrwt beam="2">  1       -2 0.11741675E-02 0.27897707E+03</pdfrwt>
<totfact> 0.63577182E+03</totfact>
</mgrwt>
</event>
<event>
 4    1  0.6148427E-004  0.5182735E+03  0.7818608E-02  0.1009116E+00
         -2   -1    0    0    0  501 -0.00000000000E+00  0.00000000000E+00  0.26872437500E+03  0.26872437501E+03  0.25500000000E-02 0. -1.
          2   -1    0    0  501    0  0.00000000000E+00 -0.00000000000E+00 -0.24989121369E+03  0.24989121370E+03  0.25500000000E-02 0.  1.
    5000001    1    1    2    0    0 -0.21674188409E+03 -0.11489491708E+03  0.41763973007E+02  0.26048246722E+03  0.77000000000E+02 0.  0.
   -5000001    1    1    2    0    0  0.21674188409E+03  0.11489491708E+03 -0.22930811691E+02  0.25813312149E+03  0.77000000000E+02 0.  0.
<mgrwt>
<rscale>  0 0.51827352E+03</rscale>
<asrwt>0</asrwt>
<pdfrwt beam="1">  1        2 0.38444802E-01 0.51827352E+03</pdfrwt>
<pdfrwt beam="2">  1       -2 0.41342212E-01 0.51827352E+03</pdfrwt>
<totfact> 0.74983587E+02</totfact>
</mgrwt>
</event>
<event>
 4    1  0.6148427E-004  0.2671748E+03  0.7818608E-02  0.1102908E+00
          2   -1    0    0  501    0  0.00000000000E+00  0.00000000000E+00  0.40499435540E+04  0.40499435540E+04  0.25500000000E-02 0.  1.
         -2   -1    0    0    0  501 -0.00000000000E+00 -0.00000000000E+00 -0.44063795208E+01  0.44063802587E+01  0.25500000000E-02 0. -1.
    5000001    1    1    2    0    0 -0.10401922146E+03 -0.11504209542E+02  0.24939838848E+04  0.24973660050E+04  0.77000000000E+02 0.  0.
   -5000001    1    1    2    0    0  0.10401922146E+03  0.11504209542E+02  0.15515532898E+04  0.15569839293E+04  0.77000000000E+02 0.  0.
<mgrwt>
<rscale>  0 0.26717477E+03</rscale>
<asrwt>0</asrwt>
<pdfrwt beam="1">  1        2 0.62307007E+00 0.26717477E+03</pdfrwt>
<pdfrwt beam="2">  1       -2 0.67790260E-03 0.26717477E+03</pdfrwt>
<totfact> 0.15351096E+03</totfact>
</mgrwt>
</event>
<event>
 4    1  0.6148427E-004  0.3506587E+03  0.7818608E-02  0.1062345E+00
          2   -1    0    0  501    0  0.00000000000E+00  0.00000000000E+00  0.11742938974E+04  0.11742938974E+04  0.25500000000E-02 0.  1.
         -2   -1    0    0    0  501 -0.00000000000E+00 -0.00000000000E+00 -0.26177757068E+02  0.26177757193E+02  0.25500000000E-02 0. -1.
    5000001    1    1    2    0    0  0.55512263114E+02 -0.93912082467E+02  0.18507088705E+03  0.22821332963E+03  0.77000000000E+02 0.  0.
   -5000001    1    1    2    0    0 -0.55512263114E+02  0.93912082467E+02  0.96304525332E+03  0.97225832500E+03  0.77000000000E+02 0.  0.
<mgrwt>
<rscale>  0 0.35065870E+03</rscale>
<asrwt>0</asrwt>
<pdfrwt beam="1">  1        2 0.18066057E+00 0.35065870E+03</pdfrwt>
<pdfrwt beam="2">  1       -2 0.40273480E-02 0.35065870E+03</pdfrwt>
<totfact> 0.56454139E+03</totfact>
</mgrwt>
</event>
<event>
 4    1  0.6148427E-004  0.2743697E+03  0.7818608E-02  0.1098804E+00
         -2   -1    0    0    0  501 -0.00000000000E+00  0.00000000000E+00  0.12823844370E+02  0.12823844623E+02  0.25500000000E-02 0. -1.
          2   -1    0    0  501    0  0.00000000000E+00 -0.00000000000E+00 -0.14675543458E+04  0.14675543458E+04  0.25500000000E-02 0.  1.
    5000001    1    1    2    0    0 -0.50177220865E+02  0.96460796958E+02 -0.90371420588E+03  0.91348278843E+03  0.77000000000E+02 0.  0.
   -5000001    1    1    2    0    0  0.50177220865E+02 -0.96460796958E+02 -0.55101629551E+03  0.56689540196E+03  0.77000000000E+02 0.  0.
<mgrwt>
<rscale>  0 0.27436974E+03</rscale>
<asrwt>0</asrwt>
<pdfrwt beam="1">  1        2 0.22577746E+00 0.27436974E+03</pdfrwt>
<pdfrwt beam="2">  1       -2 0.19729003E-02 0.27436974E+03</pdfrwt>
<totfact> 0.11201672E+04</totfact>
</mgrwt>
</event>
<event>
 4    1  0.6148427E-004  0.2204118E+03  0.7818608E-02  0.1133576E+00
          2   -1    0    0  501    0  0.00000000000E+00  0.00000000000E+00  0.68730320827E+03  0.68730320828E+03  0.25500000000E-02 0.  1.
         -2   -1    0    0    0  501 -0.00000000000E+00 -0.00000000000E+00 -0.17671013864E+02  0.17671014048E+02  0.25500000000E-02 0. -1.
    5000001    1    1    2    0    0 -0.40356332736E+02 -0.65650756986E+02  0.38811493515E+03  0.40311395209E+03  0.77000000000E+02 0.  0.
   -5000001    1    1    2    0    0  0.40356332736E+02  0.65650756986E+02  0.28151725926E+03  0.30186027024E+03  0.77000000000E+02 0.  0.
<mgrwt>
<rscale>  0 0.22041184E+03</rscale>
<asrwt>0</asrwt>
<pdfrwt beam="1">  1        2 0.10573895E+00 0.22041184E+03</pdfrwt>
<pdfrwt beam="2">  1       -2 0.27186176E-02 0.22041184E+03</pdfrwt>
<totfact> 0.20642669E+04</totfact>
</mgrwt>
</event>
<event>
 4    1  0.6148427E-004  0.1926450E+03  0.7818608E-02  0.1156097E+00
         -2   -1    0    0    0  501 -0.00000000000E+00  0.00000000000E+00  0.25145764176E+03  0.25145764177E+03  0.25500000000E-02 0. -1.
          2   -1    0    0  501    0  0.00000000000E+00 -0.00000000000E+00 -0.36896966156E+02  0.36896966244E+02  0.25500000000E-02 0.  1.
    5000001    1    1    2    0    0 -0.26571433297E+02  0.40940955843E+02  0.15382203643E+03  0.17880833824E+03  0.77000000000E+02 0.  0.
   -5000001    1    1    2    0    0  0.26571433297E+02 -0.40940955843E+02  0.60738639166E+02  0.10954626977E+03  0.77000000000E+02 0.  0.
<mgrwt>
<rscale>  0 0.19264500E+03</rscale>
<asrwt>0</asrwt>
<pdfrwt beam="1">  1        2 0.56764564E-02 0.19264500E+03</pdfrwt>
<pdfrwt beam="2">  1       -2 0.38685791E-01 0.19264500E+03</pdfrwt>
<totfact> 0.81745452E+03</totfact>
</mgrwt>
</event>
<event>
 4    1  0.6148427E-004  0.2112057E+03  0.7818608E-02  0.1140615E+00
         -2   -1    0    0    0  501 -0.00000000000E+00  0.00000000000E+00  0.13568103938E+02  0.13568104178E+02  0.25500000000E-02 0. -1.
          2   -1    0    0  501    0  0.00000000000E+00 -0.00000000000E+00 -0.82192479128E+03  0.82192479129E+03  0.25500000000E-02 0.  1.
    5000001    1    1    2    0    0  0.28945099909E+02 -0.60529912957E+02 -0.51041800011E+03  0.52053551657E+03  0.77000000000E+02 0.  0.
   -5000001    1    1    2    0    0 -0.28945099909E+02  0.60529912957E+02 -0.29793868723E+03  0.31495737890E+03  0.77000000000E+02 0.  0.
<mgrwt>
<rscale>  0 0.21120569E+03</rscale>
<asrwt>0</asrwt>
<pdfrwt beam="1">  1        2 0.12644993E+00 0.21120569E+03</pdfrwt>
<pdfrwt beam="2">  1       -2 0.20874013E-02 0.21120569E+03</pdfrwt>
<totfact> 0.24348741E+04</totfact>
</mgrwt>
</event>
<event>
 4    1  0.6148427E-004  0.2337106E+03  0.7818608E-02  0.1124055E+00
         -2   -1    0    0    0  501 -0.00000000000E+00  0.00000000000E+00  0.72882842698E+01  0.72882847159E+01  0.25500000000E-02 0. -1.
          2   -1    0    0  501    0  0.00000000000E+00 -0.00000000000E+00 -0.18735761971E+04  0.18735761971E+04  0.25500000000E-02 0.  1.
    5000001    1    1    2    0    0  0.77597514709E+02 -0.29701713296E+01 -0.60171763876E+03  0.61157445417E+03  0.77000000000E+02 0.  0.
   -5000001    1    1    2    0    0 -0.77597514709E+02  0.29701713296E+01 -0.12645702741E+04  0.12692900277E+04  0.77000000000E+02 0.  0.
<mgrwt>
<rscale>  0 0.23371056E+03</rscale>
<asrwt>0</asrwt>
<pdfrwt beam="1">  1        2 0.28824211E+00 0.23371056E+03</pdfrwt>
<pdfrwt beam="2">  1       -2 0.11212760E-02 0.23371056E+03</pdfrwt>
<totfact> 0.15549731E+04</totfact>
</mgrwt>
</event>
<event>
 4    1  0.6148427E-004  0.2510851E+03  0.7818608E-02  0.1112621E+00
         -2   -1    0    0    0  501 -0.00000000000E+00  0.00000000000E+00  0.17362411828E+02  0.17362412016E+02  0.25500000000E-02 0. -1.
          2   -1    0    0  501    0  0.00000000000E+00 -0.00000000000E+00 -0.90776195085E+03  0.90776195085E+03  0.25500000000E-02 0.  1.
    5000001    1    1    2    0    0  0.63218227280E+02 -0.52866440629E+02 -0.64836711417E+03  0.65810357812E+03  0.77000000000E+02 0.  0.
   -5000001    1    1    2    0    0 -0.63218227280E+02  0.52866440629E+02 -0.24203242485E+03  0.26702078474E+03  0.77000000000E+02 0.  0.
<mgrwt>
<rscale>  0 0.25108514E+03</rscale>
<asrwt>0</asrwt>
<pdfrwt beam="1">  1        2 0.13965565E+00 0.25108514E+03</pdfrwt>
<pdfrwt beam="2">  1       -2 0.26711410E-02 0.25108514E+03</pdfrwt>
<totfact> 0.15007703E+04</totfact>
</mgrwt>
</event>
<event>
 4    1  0.6148427E-004  0.2321858E+03  0.7818608E-02  0.1125111E+00
         -2   -1    0    0    0  501 -0.00000000000E+00  0.00000000000E+00  0.69458344375E+01  0.69458349055E+01  0.25500000000E-02 0.  1.
          2   -1    0    0  501    0  0.00000000000E+00 -0.00000000000E+00 -0.19403808790E+04  0.19403808790E+04  0.25500000000E-02 0. -1.
    5000001    1    1    2    0    0 -0.33982091110E+02 -0.56511821012E+02 -0.14411685866E+04  0.14447298237E+04  0.77000000000E+02 0.  0.
   -5000001    1    1    2    0    0  0.33982091110E+02  0.56511821012E+02 -0.49226645797E+03  0.50259689023E+03  0.77000000000E+02 0.  0.
<mgrwt>
<rscale>  0 0.23218583E+03</rscale>
<asrwt>0</asrwt>
<pdfrwt beam="1">  1        2 0.29851970E+00 0.23218583E+03</pdfrwt>
<pdfrwt beam="2">  1       -2 0.10685915E-02 0.23218583E+03</pdfrwt>
<totfact> 0.15384003E+04</totfact>
</mgrwt>
</event>
<event>
 4    1  0.6148427E-004  0.6423510E+03  0.7818608E-02  0.9821239E-01
         -2   -1    0    0    0  501 -0.00000000000E+00  0.00000000000E+00  0.53693571876E+02  0.53693571936E+02  0.25500000000E-02 0. -1.
          2   -1    0    0  501    0  0.00000000000E+00 -0.00000000000E+00 -0.19211555262E+04  0.19211555262E+04  0.25500000000E-02 0.  1.
    5000001    1    1    2    0    0 -0.14504695200E+03 -0.27235853635E+03 -0.79600189548E+03  0.85718481567E+03  0.77000000000E+02 0.  0.
   -5000001    1    1    2    0    0  0.14504695200E+03  0.27235853635E+03 -0.10714600588E+04  0.11176642825E+04  0.77000000000E+02 0.  0.
<mgrwt>
<rscale>  0 0.64235100E+03</rscale>
<asrwt>0</asrwt>
<pdfrwt beam="1">  1        2 0.29556234E+00 0.64235100E+03</pdfrwt>
<pdfrwt beam="2">  1       -2 0.82605510E-02 0.64235100E+03</pdfrwt>
<totfact> 0.71054186E+02</totfact>
</mgrwt>
</event>
<event>
 4    1  0.6148427E-004  0.2469919E+03  0.7818608E-02  0.1115221E+00
          2   -1    0    0  501    0  0.00000000000E+00  0.00000000000E+00  0.24081629858E+03  0.24081629859E+03  0.25500000000E-02 0.  1.
         -2   -1    0    0    0  501 -0.00000000000E+00 -0.00000000000E+00 -0.63331445280E+02  0.63331445331E+02  0.25500000000E-02 0. -1.
    5000001    1    1    2    0    0  0.12581333226E+02  0.94109937198E+02  0.67156788772E+02  0.13947761291E+03  0.77000000000E+02 0.  0.
   -5000001    1    1    2    0    0 -0.12581333226E+02 -0.94109937198E+02  0.11032806453E+03  0.16467013101E+03  0.77000000000E+02 0.  0.
<mgrwt>
<rscale>  0 0.24699186E+03</rscale>
<asrwt>0</asrwt>
<pdfrwt beam="1">  1        2 0.37048662E-01 0.24699186E+03</pdfrwt>
<pdfrwt beam="2">  1       -2 0.97432992E-02 0.24699186E+03</pdfrwt>
<totfact> 0.94674541E+03</totfact>
</mgrwt>
</event>
<event>
 4    1  0.6148427E-004  0.3155492E+03  0.7818608E-02  0.1077716E+00
          2   -1    0    0  501    0  0.00000000000E+00  0.00000000000E+00  0.60545514758E+03  0.60545514759E+03  0.25500000000E-02 0.  1.
         -2   -1    0    0    0  501 -0.00000000000E+00 -0.00000000000E+00 -0.41114226645E+02  0.41114226724E+02  0.25500000000E-02 0. -1.
    5000001    1    1    2    0    0  0.99135157893E+01  0.13433668919E+03  0.34081695828E+03  0.37447272652E+03  0.77000000000E+02 0.  0.
   -5000001    1    1    2    0    0 -0.99135157893E+01 -0.13433668919E+03  0.22352396266E+03  0.27209664779E+03  0.77000000000E+02 0.  0.
<mgrwt>
<rscale>  0 0.31554917E+03</rscale>
<asrwt>0</asrwt>
<pdfrwt beam="1">  1        2 0.93146943E-01 0.31554917E+03</pdfrwt>
<pdfrwt beam="2">  1       -2 0.63252658E-02 0.31554917E+03</pdfrwt>
<totfact> 0.68175608E+03</totfact>
</mgrwt>
</event>
<event>
 4    1  0.6148427E-004  0.1632197E+03  0.7818608E-02  0.1185109E+00
          2   -1    0    0  501    0  0.00000000000E+00  0.00000000000E+00  0.41670123204E+02  0.41670123282E+02  0.25500000000E-02 0.  1.
         -2   -1    0    0    0  501 -0.00000000000E+00 -0.00000000000E+00 -0.15983074563E+03  0.15983074565E+03  0.25500000000E-02 0. -1.
    5000001    1    1    2    0    0  0.55893817510E+01 -0.23757908161E+02 -0.44710404112E+02  0.92323884366E+02  0.77000000000E+02 0.  0.
   -5000001    1    1    2    0    0 -0.55893817510E+01  0.23757908161E+02 -0.73450218312E+02  0.10917698456E+03  0.77000000000E+02 0.  0.
<mgrwt>
<rscale>  0 0.16321969E+03</rscale>
<asrwt>0</asrwt>
<pdfrwt beam="1">  1        2 0.64107883E-02 0.16321969E+03</pdfrwt>
<pdfrwt beam="2">  1       -2 0.24589345E-01 0.16321969E+03</pdfrwt>
<totfact> 0.15689556E+04</totfact>
</mgrwt>
</event>
<event>
 4    1  0.6148427E-004  0.2122479E+03  0.7818608E-02  0.1139798E+00
         -2   -1    0    0    0  501 -0.00000000000E+00  0.00000000000E+00  0.25190032124E+01  0.25190045030E+01  0.25500000000E-02 0. -1.
          2   -1    0    0  501    0  0.00000000000E+00 -0.00000000000E+00 -0.44709304506E+04  0.44709304506E+04  0.25500000000E-02 0.  1.
    5000001    1    1    2    0    0 -0.45705395056E+02 -0.31716809572E+02 -0.32313622794E+04  0.32327582836E+04  0.77000000000E+02 0.  0.
   -5000001    1    1    2    0    0  0.45705395056E+02  0.31716809572E+02 -0.12370491680E+04  0.12406911715E+04  0.77000000000E+02 0.  0.
<mgrwt>
<rscale>  0 0.21224788E+03</rscale>
<asrwt>0</asrwt>
<pdfrwt beam="1">  1        2 0.68782910E+00 0.21224788E+03</pdfrwt>
<pdfrwt beam="2">  1       -2 0.38754263E-03 0.21224788E+03</pdfrwt>
<totfact> 0.15376406E+03</totfact>
</mgrwt>
</event>
<event>
 4    1  0.6148427E-004  0.1784287E+03  0.7818608E-02  0.1169333E+00
         -2   -1    0    0    0  501 -0.00000000000E+00  0.00000000000E+00  0.48101519977E+03  0.48101519977E+03  0.25500000000E-02 0. -1.
          2   -1    0    0  501    0  0.00000000000E+00 -0.00000000000E+00 -0.16546665212E+02  0.16546665408E+02  0.25500000000E-02 0.  1.
    5000001    1    1    2    0    0 -0.34537048372E+02  0.26994281259E+02  0.26130757261E+03  0.27592054370E+03  0.77000000000E+02 0.  0.
   -5000001    1    1    2    0    0  0.34537048372E+02 -0.26994281259E+02  0.20316096194E+03  0.22164132148E+03  0.77000000000E+02 0.  0.
<mgrwt>
<rscale>  0 0.17842867E+03</rscale>
<asrwt>0</asrwt>
<pdfrwt beam="1">  1        2 0.25456409E-02 0.17842867E+03</pdfrwt>
<pdfrwt beam="2">  1       -2 0.74002336E-01 0.17842867E+03</pdfrwt>
<totfact> 0.64081406E+03</totfact>
</mgrwt>
</event>
<event>
 4    1  0.6148427E-004  0.1988093E+03  0.7818608E-02  0.1150747E+00
         -2   -1    0    0    0  501 -0.00000000000E+00  0.00000000000E+00  0.36383665737E+02  0.36383665827E+02  0.25500000000E-02 0. -1.
          2   -1    0    0  501    0  0.00000000000E+00 -0.00000000000E+00 -0.27158576240E+03  0.27158576242E+03  0.25500000000E-02 0.  1.
    5000001    1    1    2    0    0  0.29049943900E+02 -0.54221085033E+02 -0.13770677083E+03  0.16933983594E+03  0.77000000000E+02 0.  0.
   -5000001    1    1    2    0    0 -0.29049943900E+02  0.54221085033E+02 -0.97495325833E+02  0.13862959230E+03  0.77000000000E+02 0.  0.
<mgrwt>
<rscale>  0 0.19880931E+03</rscale>
<asrwt>0</asrwt>
<pdfrwt beam="1">  1        2 0.41782424E-01 0.19880931E+03</pdfrwt>
<pdfrwt beam="2">  1       -2 0.55974872E-02 0.19880931E+03</pdfrwt>
<totfact> 0.19383908E+04</totfact>
</mgrwt>
</event>
<event>
 4    1  0.6148427E-004  0.2089104E+03  0.7818608E-02  0.1142432E+00
          2   -1    0    0  501    0  0.00000000000E+00  0.00000000000E+00  0.41758033890E+03  0.41758033890E+03  0.25500000000E-02 0.  1.
         -2   -1    0    0    0  501 -0.00000000000E+00 -0.00000000000E+00 -0.26128835543E+02  0.26128835668E+02  0.25500000000E-02 0. -1.
    5000001    1    1    2    0    0  0.21931480514E+02  0.60984419952E+02  0.25511199317E+03  0.27424663785E+03  0.77000000000E+02 0.  0.
   -5000001    1    1    2    0    0 -0.21931480514E+02 -0.60984419952E+02  0.13633951019E+03  0.16946253672E+03  0.77000000000E+02 0.  0.
<mgrwt>
<rscale>  0 0.20891039E+03</rscale>
<asrwt>0</asrwt>
<pdfrwt beam="1">  1        2 0.64243126E-01 0.20891039E+03</pdfrwt>
<pdfrwt beam="2">  1       -2 0.40198211E-02 0.20891039E+03</pdfrwt>
<totfact> 0.20203039E+04</totfact>
</mgrwt>
</event>
<event>
 4    1  0.6148427E-004  0.1882819E+03  0.7818608E-02  0.1160020E+00
          2   -1    0    0  501    0  0.00000000000E+00  0.00000000000E+00  0.81143941217E+02  0.81143941257E+02  0.25500000000E-02 0.  1.
         -2   -1    0    0    0  501 -0.00000000000E+00 -0.00000000000E+00 -0.10921976321E+03  0.10921976324E+03  0.25500000000E-02 0. -1.
    5000001    1    1    2    0    0 -0.53642458058E+02  0.43112585883E+01 -0.20222883853E+02  0.96094043980E+02  0.77000000000E+02 0.  0.
   -5000001    1    1    2    0    0  0.53642458058E+02 -0.43112585883E+01 -0.78529381442E+01  0.94269660520E+02  0.77000000000E+02 0.  0.
<mgrwt>
<rscale>  0 0.18828194E+03</rscale>
<asrwt>0</asrwt>
<pdfrwt beam="1">  1        2 0.12483683E-01 0.18828194E+03</pdfrwt>
<pdfrwt beam="2">  1       -2 0.16803041E-01 0.18828194E+03</pdfrwt>
<totfact> 0.13229941E+04</totfact>
</mgrwt>
</event>
<event>
 4    1  0.6148427E-004  0.3992727E+03  0.7818608E-02  0.1044032E+00
         -2   -1    0    0    0  501 -0.00000000000E+00  0.00000000000E+00  0.17608833942E+02  0.17608834126E+02  0.25500000000E-02 0. -1.
          2   -1    0    0  501    0  0.00000000000E+00 -0.00000000000E+00 -0.22633342049E+04  0.22633342049E+04  0.25500000000E-02 0.  1.
    5000001    1    1    2    0    0  0.15523557808E+03  0.34773714968E+02 -0.16532066502E+04  0.16626269949E+04  0.77000000000E+02 0.  0.
   -5000001    1    1    2    0    0 -0.15523557808E+03 -0.34773714968E+02 -0.59251872069E+03  0.61831604404E+03  0.77000000000E+02 0.  0.
<mgrwt>
<rscale>  0 0.39927272E+03</rscale>
<asrwt>0</asrwt>
<pdfrwt beam="1">  1        2 0.34820503E+00 0.39927272E+03</pdfrwt>
<pdfrwt beam="2">  1       -2 0.27090532E-02 0.39927272E+03</pdfrwt>
<totfact> 0.26359829E+03</totfact>
</mgrwt>
</event>
<event>
 4    1  0.6148427E-004  0.2487859E+03  0.7818608E-02  0.1114075E+00
         -2   -1    0    0    0  501 -0.00000000000E+00  0.00000000000E+00  0.12130679271E+02  0.12130679539E+02  0.25500000000E-02 0. -1.
          2   -1    0    0  501    0  0.00000000000E+00 -0.00000000000E+00 -0.12755760669E+04  0.12755760669E+04  0.25500000000E-02 0.  1.
    5000001    1    1    2    0    0  0.14180802536E+02 -0.66852984515E+02 -0.99308458731E+03  0.99840693820E+03  0.77000000000E+02 0.  0.
   -5000001    1    1    2    0    0 -0.14180802536E+02  0.66852984515E+02 -0.27036080036E+03  0.28929980828E+03  0.77000000000E+02 0.  0.
<mgrwt>
<rscale>  0 0.24878589E+03</rscale>
<asrwt>0</asrwt>
<pdfrwt beam="1">  1        2 0.19624237E+00 0.24878589E+03</pdfrwt>
<pdfrwt beam="2">  1       -2 0.18662594E-02 0.24878589E+03</pdfrwt>
<totfact> 0.15423064E+04</totfact>
</mgrwt>
</event>
<event>
 4    1  0.6148427E-004  0.2008935E+03  0.7818608E-02  0.1148987E+00
          2   -1    0    0  501    0  0.00000000000E+00  0.00000000000E+00  0.21864296201E+04  0.21864296201E+04  0.25500000000E-02 0.  1.
         -2   -1    0    0    0  501 -0.00000000000E+00 -0.00000000000E+00 -0.46146239942E+01  0.46146246988E+01  0.25500000000E-02 0. -1.
    5000001    1    1    2    0    0  0.15190993202E+02 -0.53848069296E+02  0.74084967896E+03  0.74693883796E+03  0.77000000000E+02 0.  0.
   -5000001    1    1    2    0    0 -0.15190993202E+02  0.53848069296E+02  0.14409653171E+04  0.14441054068E+04  0.77000000000E+02 0.  0.
<mgrwt>
<rscale>  0 0.20089352E+03</rscale>
<asrwt>0</asrwt>
<pdfrwt beam="1">  1        2 0.33637361E+00 0.20089352E+03</pdfrwt>
<pdfrwt beam="2">  1       -2 0.70994259E-03 0.20089352E+03</pdfrwt>
<totfact> 0.20532319E+04</totfact>
</mgrwt>
</event>
<event>
 4    1  0.6148427E-004  0.3006221E+03  0.7818608E-02  0.1084930E+00
          2   -1    0    0  501    0  0.00000000000E+00  0.00000000000E+00  0.94403125689E+03  0.94403125689E+03  0.25500000000E-02 0.  1.
         -2   -1    0    0    0  501 -0.00000000000E+00 -0.00000000000E+00 -0.23932912939E+02  0.23932913075E+02  0.25500000000E-02 0. -1.
    5000001    1    1    2    0    0 -0.11683232057E+03  0.42060633274E+01  0.63631861881E+03  0.65153500807E+03  0.77000000000E+02 0.  0.
   -5000001    1    1    2    0    0  0.11683232057E+03 -0.42060633274E+01  0.28377972514E+03  0.31642916190E+03  0.77000000000E+02 0.  0.
<mgrwt>
<rscale>  0 0.30062214E+03</rscale>
<asrwt>0</asrwt>
<pdfrwt beam="1">  1        2 0.14523560E+00 0.30062214E+03</pdfrwt>
<pdfrwt beam="2">  1       -2 0.36819861E-02 0.30062214E+03</pdfrwt>
<totfact> 0.88714766E+03</totfact>
</mgrwt>
</event>
<event>
 4    1  0.6148427E-004  0.1849596E+03  0.7818608E-02  0.1163088E+00
         -2   -1    0    0    0  501 -0.00000000000E+00  0.00000000000E+00  0.41077108655E+02  0.41077108734E+02  0.25500000000E-02 0. -1.
          2   -1    0    0  501    0  0.00000000000E+00 -0.00000000000E+00 -0.20820625433E+03  0.20820625435E+03  0.25500000000E-02 0.  1.
    5000001    1    1    2    0    0 -0.30915429208E+02 -0.39297646243E+02 -0.98538932914E+02  0.13468106795E+03  0.77000000000E+02 0.  0.
   -5000001    1    1    2    0    0  0.30915429208E+02  0.39297646243E+02 -0.68590212763E+02  0.11460229514E+03  0.77000000000E+02 0.  0.
<mgrwt>
<rscale>  0 0.18495957E+03</rscale>
<asrwt>0</asrwt>
<pdfrwt beam="1">  1        2 0.32031731E-01 0.18495957E+03</pdfrwt>
<pdfrwt beam="2">  1       -2 0.63195553E-02 0.18495957E+03</pdfrwt>
<totfact> 0.21325549E+04</totfact>
</mgrwt>
</event>
<event>
 4    1  0.6148427E-004  0.2224716E+03  0.7818608E-02  0.1132054E+00
         -2   -1    0    0    0  501 -0.00000000000E+00  0.00000000000E+00  0.59241769417E+01  0.59241774906E+01  0.25500000000E-02 0. -1.
          2   -1    0    0  501    0  0.00000000000E+00 -0.00000000000E+00 -0.20886285268E+04  0.20886285268E+04  0.25500000000E-02 0.  1.
    5000001    1    1    2    0    0  0.23733002999E+02  0.70753311440E+02 -0.13198682305E+04  0.13242169129E+04  0.77000000000E+02 0.  0.
   -5000001    1    1    2    0    0 -0.23733002999E+02 -0.70753311440E+02 -0.76283611932E+03  0.77033579136E+03  0.77000000000E+02 0.  0.
<mgrwt>
<rscale>  0 0.22247162E+03</rscale>
<asrwt>0</asrwt>
<pdfrwt beam="1">  1        2 0.32132688E+00 0.22247162E+03</pdfrwt>
<pdfrwt beam="2">  1       -2 0.91141354E-03 0.22247162E+03</pdfrwt>
<totfact> 0.16179653E+04</totfact>
</mgrwt>
</event>
<event>
 4    1  0.6148427E-004  0.3098013E+03  0.7818608E-02  0.1080441E+00
          2   -1    0    0  501    0  0.00000000000E+00  0.00000000000E+00  0.23593931414E+04  0.23593931414E+04  0.25500000000E-02 0.  1.
         -2   -1    0    0    0  501 -0.00000000000E+00 -0.00000000000E+00 -0.10169652852E+02  0.10169653171E+02  0.25500000000E-02 0. -1.
    5000001    1    1    2    0    0 -0.26544207665E+02  0.12960812688E+03  0.99323249440E+03  0.10049590287E+04  0.77000000000E+02 0.  0.
   -5000001    1    1    2    0    0  0.26544207665E+02 -0.12960812688E+03  0.13559909942E+04  0.13646037658E+04  0.77000000000E+02 0.  0.
<mgrwt>
<rscale>  0 0.30980129E+03</rscale>
<asrwt>0</asrwt>
<pdfrwt beam="1">  1        2 0.36298353E+00 0.30980129E+03</pdfrwt>
<pdfrwt beam="2">  1       -2 0.15645621E-02 0.30980129E+03</pdfrwt>
<totfact> 0.53019058E+03</totfact>
</mgrwt>
</event>
<event>
 4    1  0.6148427E-004  0.3133446E+03  0.7818608E-02  0.1078754E+00
         -2   -1    0    0    0  501 -0.00000000000E+00  0.00000000000E+00  0.75625251346E+01  0.75625255645E+01  0.25500000000E-02 0. -1.
          2   -1    0    0  501    0  0.00000000000E+00 -0.00000000000E+00 -0.32457678647E+04  0.32457678647E+04  0.25500000000E-02 0.  1.
    5000001    1    1    2    0    0 -0.82206718357E+02 -0.10227385463E+03 -0.12307163670E+04  0.12400845382E+04  0.77000000000E+02 0.  0.
   -5000001    1    1    2    0    0  0.82206718357E+02  0.10227385463E+03 -0.20074889726E+04  0.20132458521E+04  0.77000000000E+02 0.  0.
<mgrwt>
<rscale>  0 0.31334455E+03</rscale>
<asrwt>0</asrwt>
<pdfrwt beam="1">  1        2 0.49934779E+00 0.31334455E+03</pdfrwt>
<pdfrwt beam="2">  1       -2 0.11634680E-02 0.31334455E+03</pdfrwt>
<totfact> 0.25149812E+03</totfact>
</mgrwt>
</event>
<event>
 4    1  0.6148427E-004  0.2518824E+03  0.7818608E-02  0.1112121E+00
          2   -1    0    0  501    0  0.00000000000E+00  0.00000000000E+00  0.72884677583E+03  0.72884677584E+03  0.25500000000E-02 0.  1.
         -2   -1    0    0    0  501 -0.00000000000E+00 -0.00000000000E+00 -0.21762027115E+02  0.21762027264E+02  0.25500000000E-02 0. -1.
    5000001    1    1    2    0    0  0.81017459431E+02 -0.41644801789E+02  0.23308024292E+03  0.26182726728E+03  0.77000000000E+02 0.  0.
   -5000001    1    1    2    0    0 -0.81017459431E+02  0.41644801789E+02  0.47400450579E+03  0.48878153582E+03  0.77000000000E+02 0.  0.
<mgrwt>
<rscale>  0 0.25188238E+03</rscale>
<asrwt>0</asrwt>
<pdfrwt beam="1">  1        2 0.11213028E+00 0.25188238E+03</pdfrwt>
<pdfrwt beam="2">  1       -2 0.33480039E-02 0.25188238E+03</pdfrwt>
<totfact> 0.14211413E+04</totfact>
</mgrwt>
</event>
<event>
 4    1  0.6148427E-004  0.2623562E+03  0.7818608E-02  0.1105736E+00
          2   -1    0    0  501    0  0.00000000000E+00  0.00000000000E+00  0.56162712245E+03  0.56162712245E+03  0.25500000000E-02 0.  1.
         -2   -1    0    0    0  501 -0.00000000000E+00 -0.00000000000E+00 -0.30638994242E+02  0.30638994348E+02  0.25500000000E-02 0. -1.
    5000001    1    1    2    0    0  0.88851307077E+02  0.41354683176E+02  0.17313198934E+03  0.21332709702E+03  0.77000000000E+02 0.  0.
   -5000001    1    1    2    0    0 -0.88851307077E+02 -0.41354683176E+02  0.35785613887E+03  0.37893901979E+03  0.77000000000E+02 0.  0.
<mgrwt>
<rscale>  0 0.26235617E+03</rscale>
<asrwt>0</asrwt>
<pdfrwt beam="1">  1        2 0.86404172E-01 0.26235617E+03</pdfrwt>
<pdfrwt beam="2">  1       -2 0.47136915E-02 0.26235617E+03</pdfrwt>
<totfact> 0.11584005E+04</totfact>
</mgrwt>
</event>
<event>
 4    1  0.6148427E-004  0.2427749E+03  0.7818608E-02  0.1117958E+00
          2   -1    0    0  501    0  0.00000000000E+00  0.00000000000E+00  0.86871057889E+03  0.86871057889E+03  0.25500000000E-02 0.  1.
         -2   -1    0    0    0  501 -0.00000000000E+00 -0.00000000000E+00 -0.16961820896E+02  0.16961821087E+02  0.25500000000E-02 0. -1.
    5000001    1    1    2    0    0  0.93412826160E+02  0.71078086088E+01  0.44566734793E+03  0.46187104482E+03  0.77000000000E+02 0.  0.
   -5000001    1    1    2    0    0 -0.93412826160E+02 -0.71078086088E+01  0.40608141006E+03  0.42380135516E+03  0.77000000000E+02 0.  0.
<mgrwt>
<rscale>  0 0.24277490E+03</rscale>
<asrwt>0</asrwt>
<pdfrwt beam="1">  1        2 0.13364779E+00 0.24277490E+03</pdfrwt>
<pdfrwt beam="2">  1       -2 0.26095108E-02 0.24277490E+03</pdfrwt>
<totfact> 0.16443330E+04</totfact>
</mgrwt>
</event>
<event>
 4    1  0.6148427E-004  0.2479010E+03  0.7818608E-02  0.1114639E+00
         -2   -1    0    0    0  501 -0.00000000000E+00  0.00000000000E+00  0.54184014162E+02  0.54184014222E+02  0.25500000000E-02 0. -1.
          2   -1    0    0  501    0  0.00000000000E+00 -0.00000000000E+00 -0.28354717856E+03  0.28354717857E+03  0.25500000000E-02 0.  1.
    5000001    1    1    2    0    0  0.34823570395E+02 -0.66851213522E+02 -0.19814185665E+03  0.22554591808E+03  0.77000000000E+02 0.  0.
   -5000001    1    1    2    0    0 -0.34823570395E+02  0.66851213522E+02 -0.31221307739E+02  0.11218527471E+03  0.77000000000E+02 0.  0.
<mgrwt>
<rscale>  0 0.24790098E+03</rscale>
<asrwt>0</asrwt>
<pdfrwt beam="1">  1        2 0.43622642E-01 0.24790098E+03</pdfrwt>
<pdfrwt beam="2">  1       -2 0.83360024E-02 0.24790098E+03</pdfrwt>
<totfact> 0.10152605E+04</totfact>
</mgrwt>
</event>
<event>
 4    1  0.6148427E-004  0.4153491E+03  0.7818608E-02  0.1038591E+00
          2   -1    0    0  501    0  0.00000000000E+00  0.00000000000E+00  0.19169444807E+04  0.19169444807E+04  0.25500000000E-02 0.  1.
         -2   -1    0    0    0  501 -0.00000000000E+00 -0.00000000000E+00 -0.22498681080E+02  0.22498681225E+02  0.25500000000E-02 0. -1.
    5000001    1    1    2    0    0  0.11182929972E+03 -0.46348384040E+02  0.24609672551E+03  0.28486235849E+03  0.77000000000E+02 0.  0.
   -5000001    1    1    2    0    0 -0.11182929972E+03  0.46348384040E+02  0.16483490741E+04  0.16545808034E+04  0.77000000000E+02 0.  0.
<mgrwt>
<rscale>  0 0.41534912E+03</rscale>
<asrwt>0</asrwt>
<pdfrwt beam="1">  1        2 0.29491448E+00 0.41534912E+03</pdfrwt>
<pdfrwt beam="2">  1       -2 0.34613363E-02 0.41534912E+03</pdfrwt>
<totfact> 0.27936206E+03</totfact>
</mgrwt>
</event>
<event>
 4    1  0.6148427E-004  0.1701725E+03  0.7818608E-02  0.1177668E+00
          2   -1    0    0  501    0  0.00000000000E+00  0.00000000000E+00  0.10538527657E+02  0.10538527966E+02  0.25500000000E-02 0.  1.
         -2   -1    0    0    0  501 -0.00000000000E+00 -0.00000000000E+00 -0.68697184119E+03  0.68697184119E+03  0.25500000000E-02 0. -1.
    5000001    1    1    2    0    0  0.35519886629E+02  0.35719382888E+01 -0.36289521806E+03  0.37268802017E+03  0.77000000000E+02 0.  0.
   -5000001    1    1    2    0    0 -0.35519886629E+02 -0.35719382888E+01 -0.31353809547E+03  0.32482234899E+03  0.77000000000E+02 0.  0.
<mgrwt>
<rscale>  0 0.17017252E+03</rscale>
<asrwt>0</asrwt>
<pdfrwt beam="1">  1        2 0.16213125E-02 0.17017252E+03</pdfrwt>
<pdfrwt beam="2">  1       -2 0.10568794E+00 0.17017252E+03</pdfrwt>
<totfact> 0.53205527E+03</totfact>
</mgrwt>
</event>
<event>
 4    1  0.6148427E-004  0.1624191E+03  0.7818608E-02  0.1185992E+00
          2   -1    0    0  501    0  0.00000000000E+00  0.00000000000E+00  0.26964381723E+03  0.26964381724E+03  0.25500000000E-02 0.  1.
         -2   -1    0    0    0  501 -0.00000000000E+00 -0.00000000000E+00 -0.24458161699E+02  0.24458161832E+02  0.25500000000E-02 0. -1.
    5000001    1    1    2    0    0 -0.20277415110E+02 -0.14689183967E+02  0.11127791018E+03  0.13761801838E+03  0.77000000000E+02 0.  0.
   -5000001    1    1    2    0    0  0.20277415110E+02  0.14689183967E+02  0.13390774535E+03  0.15648396069E+03  0.77000000000E+02 0.  0.
<mgrwt>
<rscale>  0 0.16241911E+03</rscale>
<asrwt>0</asrwt>
<pdfrwt beam="1">  1        2 0.41483665E-01 0.16241911E+03</pdfrwt>
<pdfrwt beam="2">  1       -2 0.37627941E-02 0.16241911E+03</pdfrwt>
<totfact> 0.34876292E+04</totfact>
</mgrwt>
</event>
<event>
 4    1  0.6148427E-004  0.5010548E+03  0.7818608E-02  0.1013504E+00
          2   -1    0    0  501    0  0.00000000000E+00  0.00000000000E+00  0.18604019333E+03  0.18604019335E+03  0.25500000000E-02 0.  1.
         -2   -1    0    0    0  501 -0.00000000000E+00 -0.00000000000E+00 -0.33736788535E+03  0.33736788536E+03  0.25500000000E-02 0. -1.
    5000001    1    1    2    0    0 -0.32202173158E+02  0.14519643845E+03  0.11897073791E+03  0.20543130768E+03  0.77000000000E+02 0.  0.
   -5000001    1    1    2    0    0  0.32202173158E+02 -0.14519643845E+03 -0.27029842993E+03  0.31797677103E+03  0.77000000000E+02 0.  0.
<mgrwt>
<rscale>  0 0.50105483E+03</rscale>
<asrwt>0</asrwt>
<pdfrwt beam="1">  1        2 0.28621568E-01 0.50105483E+03</pdfrwt>
<pdfrwt beam="2">  1       -2 0.51902752E-01 0.50105483E+03</pdfrwt>
<totfact> 0.66202052E+02</totfact>
</mgrwt>
</event>
<event>
 4    1  0.6148427E-004  0.1785257E+03  0.7818608E-02  0.1169238E+00
         -2   -1    0    0    0  501 -0.00000000000E+00  0.00000000000E+00  0.84438635102E+01  0.84438638953E+01  0.25500000000E-02 0. -1.
          2   -1    0    0  501    0  0.00000000000E+00 -0.00000000000E+00 -0.94362699921E+03  0.94362699921E+03  0.25500000000E-02 0.  1.
    5000001    1    1    2    0    0 -0.71548890352E+01 -0.43899563780E+02 -0.50907009512E+03  0.51677821731E+03  0.77000000000E+02 0.  0.
   -5000001    1    1    2    0    0  0.71548890352E+01  0.43899563780E+02 -0.42611304058E+03  0.43529264580E+03  0.77000000000E+02 0.  0.
<mgrwt>
<rscale>  0 0.17852572E+03</rscale>
<asrwt>0</asrwt>
<pdfrwt beam="1">  1        2 0.14517330E+00 0.17852572E+03</pdfrwt>
<pdfrwt beam="2">  1       -2 0.12990567E-02 0.17852572E+03</pdfrwt>
<totfact> 0.40021665E+04</totfact>
</mgrwt>
</event>
<event>
 4    1  0.6148427E-004  0.1858241E+03  0.7818608E-02  0.1162283E+00
         -2   -1    0    0    0  501 -0.00000000000E+00  0.00000000000E+00  0.24769655991E+02  0.24769656122E+02  0.25500000000E-02 0. -1.
          2   -1    0    0  501    0  0.00000000000E+00 -0.00000000000E+00 -0.34851715311E+03  0.34851715312E+03  0.25500000000E-02 0.  1.
    5000001    1    1    2    0    0 -0.25529763584E+02  0.38288082799E+02 -0.21049809491E+03  0.22881475930E+03  0.77000000000E+02 0.  0.
   -5000001    1    1    2    0    0  0.25529763584E+02 -0.38288082799E+02 -0.11324940220E+03  0.14447204994E+03  0.77000000000E+02 0.  0.
<mgrwt>
<rscale>  0 0.18582411E+03</rscale>
<asrwt>0</asrwt>
<pdfrwt beam="1">  1        2 0.53618020E-01 0.18582411E+03</pdfrwt>
<pdfrwt beam="2">  1       -2 0.38107166E-02 0.18582411E+03</pdfrwt>
<totfact> 0.26349378E+04</totfact>
</mgrwt>
</event>
<event>
 4    1  0.6148427E-004  0.2484381E+03  0.7818608E-02  0.1114296E+00
          2   -1    0    0  501    0  0.00000000000E+00  0.00000000000E+00  0.10169875415E+04  0.10169875415E+04  0.25500000000E-02 0.  1.
         -2   -1    0    0    0  501 -0.00000000000E+00 -0.00000000000E+00 -0.15172622625E+02  0.15172622839E+02  0.25500000000E-02 0. -1.
    5000001    1    1    2    0    0  0.41749298239E+02 -0.35931482421E+02  0.16679688638E+03  0.19179227471E+03  0.77000000000E+02 0.  0.
   -5000001    1    1    2    0    0 -0.41749298239E+02  0.35931482421E+02  0.83501803248E+03  0.84036788962E+03  0.77000000000E+02 0.  0.
<mgrwt>
<rscale>  0 0.24843807E+03</rscale>
<asrwt>0</asrwt>
<pdfrwt beam="1">  1        2 0.15645964E+00 0.24843807E+03</pdfrwt>
<pdfrwt beam="2">  1       -2 0.23342494E-02 0.24843807E+03</pdfrwt>
<totfact> 0.15653428E+04</totfact>
</mgrwt>
</event>
<event>
 4    1  0.6148427E-004  0.3091107E+03  0.7818608E-02  0.1080773E+00
         -2   -1    0    0    0  501 -0.00000000000E+00  0.00000000000E+00  0.30370998258E+03  0.30370998259E+03  0.25500000000E-02 0. -1.
          2   -1    0    0  501    0  0.00000000000E+00 -0.00000000000E+00 -0.78651840887E+02  0.78651840928E+02  0.25500000000E-02 0.  1.
    5000001    1    1    2    0    0  0.93322468190E+02 -0.46302597127E+02  0.82606373973E+01  0.12980851937E+03  0.77000000000E+02 0.  0.
   -5000001    1    1    2    0    0 -0.93322468190E+02  0.46302597127E+02  0.21679750429E+03  0.25255330415E+03  0.77000000000E+02 0.  0.
<mgrwt>
<rscale>  0 0.30911065E+03</rscale>
<asrwt>0</asrwt>
<pdfrwt beam="1">  1        2 0.12100283E-01 0.30911065E+03</pdfrwt>
<pdfrwt beam="2">  1       -2 0.46724613E-01 0.30911065E+03</pdfrwt>
<totfact> 0.22270193E+03</totfact>
</mgrwt>
</event>
<event>
 4    1  0.6148427E-004  0.2482822E+03  0.7818608E-02  0.1114395E+00
         -2   -1    0    0    0  501 -0.00000000000E+00  0.00000000000E+00  0.15050785053E+02  0.15050785269E+02  0.25500000000E-02 0. -1.
          2   -1    0    0  501    0  0.00000000000E+00 -0.00000000000E+00 -0.10239345091E+04  0.10239345091E+04  0.25500000000E-02 0.  1.
    5000001    1    1    2    0    0  0.25949782446E+02  0.87577551146E+02 -0.64565899754E+03  0.65661842784E+03  0.77000000000E+02 0.  0.
   -5000001    1    1    2    0    0 -0.25949782446E+02 -0.87577551146E+02 -0.36322472645E+03  0.38236686648E+03  0.77000000000E+02 0.  0.
<mgrwt>
<rscale>  0 0.24828225E+03</rscale>
<asrwt>0</asrwt>
<pdfrwt beam="1">  1        2 0.15752833E+00 0.24828225E+03</pdfrwt>
<pdfrwt beam="2">  1       -2 0.23155062E-02 0.24828225E+03</pdfrwt>
<totfact> 0.15687662E+04</totfact>
</mgrwt>
</event>
<event>
 4    1  0.6148427E-004  0.2466464E+03  0.7818608E-02  0.1115443E+00
          2   -1    0    0  501    0  0.00000000000E+00  0.00000000000E+00  0.28188376922E+03  0.28188376923E+03  0.25500000000E-02 0.  1.
         -2   -1    0    0    0  501 -0.00000000000E+00 -0.00000000000E+00 -0.53953468287E+02  0.53953468347E+02  0.25500000000E-02 0. -1.
    5000001    1    1    2    0    0 -0.71211858375E+02  0.61454190499E+02  0.14226121143E+03  0.18712295044E+03  0.77000000000E+02 0.  0.
   -5000001    1    1    2    0    0  0.71211858375E+02 -0.61454190499E+02  0.85669089499E+02  0.14871428714E+03  0.77000000000E+02 0.  0.
<mgrwt>
<rscale>  0 0.24664636E+03</rscale>
<asrwt>0</asrwt>
<pdfrwt beam="1">  1        2 0.43366734E-01 0.24664636E+03</pdfrwt>
<pdfrwt beam="2">  1       -2 0.83005335E-02 0.24664636E+03</pdfrwt>
<totfact> 0.10282787E+04</totfact>
</mgrwt>
</event>
<event>
 4    1  0.6148427E-004  0.1788107E+03  0.7818608E-02  0.1168959E+00
         -2   -1    0    0    0  501 -0.00000000000E+00  0.00000000000E+00  0.37857914629E+01  0.37857923218E+01  0.25500000000E-02 0. -1.
          2   -1    0    0  501    0  0.00000000000E+00 -0.00000000000E+00 -0.21113996558E+04  0.21113996558E+04  0.25500000000E-02 0.  1.
    5000001    1    1    2    0    0 -0.19819982602E+02 -0.32830562086E+02 -0.13420223704E+04  0.13447764573E+04  0.77000000000E+02 0.  0.
   -5000001    1    1    2    0    0  0.19819982602E+02  0.32830562086E+02 -0.76559149402E+03  0.77040899088E+03  0.77000000000E+02 0.  0.
<mgrwt>
<rscale>  0 0.17881073E+03</rscale>
<asrwt>0</asrwt>
<pdfrwt beam="1">  1        2 0.32482978E+00 0.17881073E+03</pdfrwt>
<pdfrwt beam="2">  1       -2 0.58243121E-03 0.17881073E+03</pdfrwt>
<totfact> 0.29693792E+04</totfact>
</mgrwt>
</event>
<event>
 4    1  0.6148427E-004  0.2009166E+03  0.7818608E-02  0.1148968E+00
         -2   -1    0    0    0  501 -0.00000000000E+00  0.00000000000E+00  0.20423712407E+03  0.20423712408E+03  0.25500000000E-02 0. -1.
          2   -1    0    0  501    0  0.00000000000E+00 -0.00000000000E+00 -0.49412515025E+02  0.49412515090E+02  0.25500000000E-02 0.  1.
    5000001    1    1    2    0    0  0.23993996267E+02 -0.58642984234E+02  0.92779044355E+02  0.13620448792E+03  0.77000000000E+02 0.  0.
   -5000001    1    1    2    0    0 -0.23993996267E+02  0.58642984234E+02  0.62045564688E+02  0.11744515126E+03  0.77000000000E+02 0.  0.
<mgrwt>
<rscale>  0 0.20091660E+03</rscale>
<asrwt>0</asrwt>
<pdfrwt beam="1">  1        2 0.76019256E-02 0.20091660E+03</pdfrwt>
<pdfrwt beam="2">  1       -2 0.31421095E-01 0.20091660E+03</pdfrwt>
<totfact> 0.82793095E+03</totfact>
</mgrwt>
</event>
<event>
 4    1  0.6148427E-004  0.2954777E+03  0.7818608E-02  0.1087523E+00
         -2   -1    0    0    0  501 -0.00000000000E+00  0.00000000000E+00  0.58216166072E+02  0.58216166128E+02  0.25500000000E-02 0. -1.
          2   -1    0    0  501    0  0.00000000000E+00 -0.00000000000E+00 -0.37492632611E+03  0.37492632612E+03  0.25500000000E-02 0.  1.
    5000001    1    1    2    0    0 -0.81988321064E+02  0.85755155575E+02 -0.95787488695E+02  0.17082234774E+03  0.77000000000E+02 0.  0.
   -5000001    1    1    2    0    0  0.81988321064E+02 -0.85755155575E+02 -0.22092267135E+03  0.26232014450E+03  0.77000000000E+02 0.  0.
<mgrwt>
<rscale>  0 0.29547774E+03</rscale>
<asrwt>0</asrwt>
<pdfrwt beam="1">  1        2 0.57680972E-01 0.29547774E+03</pdfrwt>
<pdfrwt beam="2">  1       -2 0.89563335E-02 0.29547774E+03</pdfrwt>
<totfact> 0.67594250E+03</totfact>
</mgrwt>
</event>
<event>
 4    1  0.6148427E-004  0.2886304E+03  0.7818608E-02  0.1091066E+00
         -2   -1    0    0    0  501 -0.00000000000E+00  0.00000000000E+00  0.33498643150E+02  0.33498643247E+02  0.25500000000E-02 0. -1.
          2   -1    0    0  501    0  0.00000000000E+00 -0.00000000000E+00 -0.62172317990E+03  0.62172317991E+03  0.25500000000E-02 0.  1.
    5000001    1    1    2    0    0 -0.13839922534E+02  0.98971771161E+02 -0.45319681869E+03  0.47042885904E+03  0.77000000000E+02 0.  0.
   -5000001    1    1    2    0    0  0.13839922534E+02 -0.98971771161E+02 -0.13502771806E+03  0.18479296412E+03  0.77000000000E+02 0.  0.
<mgrwt>
<rscale>  0 0.28863044E+03</rscale>
<asrwt>0</asrwt>
<pdfrwt beam="1">  1        2 0.95649711E-01 0.28863044E+03</pdfrwt>
<pdfrwt beam="2">  1       -2 0.51536379E-02 0.28863044E+03</pdfrwt>
<totfact> 0.90250085E+03</totfact>
</mgrwt>
</event>
<event>
 4    1  0.6148427E-004  0.2041449E+03  0.7818608E-02  0.1146288E+00
          2   -1    0    0  501    0  0.00000000000E+00  0.00000000000E+00  0.37756892383E+03  0.37756892384E+03  0.25500000000E-02 0.  1.
         -2   -1    0    0    0  501 -0.00000000000E+00 -0.00000000000E+00 -0.27594382574E+02  0.27594382692E+02  0.25500000000E-02 0. -1.
    5000001    1    1    2    0    0  0.26776632856E+02 -0.60997680714E+02  0.18930952729E+03  0.21495302334E+03  0.77000000000E+02 0.  0.
   -5000001    1    1    2    0    0 -0.26776632856E+02  0.60997680714E+02  0.16066501397E+03  0.19021028319E+03  0.77000000000E+02 0.  0.
<mgrwt>
<rscale>  0 0.20414486E+03</rscale>
<asrwt>0</asrwt>
<pdfrwt beam="1">  1        2 0.58087523E-01 0.20414486E+03</pdfrwt>
<pdfrwt beam="2">  1       -2 0.42452899E-02 0.20414486E+03</pdfrwt>
<totfact> 0.20721356E+04</totfact>
</mgrwt>
</event>
<event>
 4    1  0.6148427E-004  0.1719358E+03  0.7818608E-02  0.1175844E+00
         -2   -1    0    0    0  501 -0.00000000000E+00  0.00000000000E+00  0.30322247775E+03  0.30322247777E+03  0.25500000000E-02 0. -1.
          2   -1    0    0  501    0  0.00000000000E+00 -0.00000000000E+00 -0.24373125790E+02  0.24373125923E+02  0.25500000000E-02 0.  1.
    5000001    1    1    2    0    0 -0.20631908473E+02  0.32047021096E+02  0.13377497228E+03  0.15898877450E+03  0.77000000000E+02 0.  0.
   -5000001    1    1    2    0    0  0.20631908473E+02 -0.32047021096E+02  0.14507437968E+03  0.16860682919E+03  0.77000000000E+02 0.  0.
<mgrwt>
<rscale>  0 0.17193580E+03</rscale>
<asrwt>0</asrwt>
<pdfrwt beam="1">  1        2 0.37497117E-02 0.17193580E+03</pdfrwt>
<pdfrwt beam="2">  1       -2 0.46649612E-01 0.17193580E+03</pdfrwt>
<totfact> 0.97738993E+03</totfact>
</mgrwt>
</event>
<event>
 4    1  0.6148427E-004  0.2668157E+03  0.7818608E-02  0.1103116E+00
         -2   -1    0    0    0  501 -0.00000000000E+00  0.00000000000E+00  0.36565773341E+01  0.36565782233E+01  0.25500000000E-02 0. -1.
          2   -1    0    0  501    0  0.00000000000E+00 -0.00000000000E+00 -0.48672980504E+04  0.48672980504E+04  0.25500000000E-02 0.  1.
    5000001    1    1    2    0    0 -0.72327349181E+02 -0.50775730977E+02 -0.35949412963E+04  0.35968515877E+04  0.77000000000E+02 0.  0.
   -5000001    1    1    2    0    0  0.72327349181E+02  0.50775730977E+02 -0.12687001768E+04  0.12741030409E+04  0.77000000000E+02 0.  0.
<mgrwt>
<rscale>  0 0.26681570E+03</rscale>
<asrwt>0</asrwt>
<pdfrwt beam="1">  1        2 0.74880990E+00 0.26681570E+03</pdfrwt>
<pdfrwt beam="2">  1       -2 0.56255432E-03 0.26681570E+03</pdfrwt>
<totfact> 0.35417619E+02</totfact>
</mgrwt>
</event>
<event>
 4    1  0.6148427E-004  0.2208036E+03  0.7818608E-02  0.1133285E+00
          2   -1    0    0  501    0  0.00000000000E+00  0.00000000000E+00  0.23255965526E+04  0.23255965526E+04  0.25500000000E-02 0.  1.
         -2   -1    0    0    0  501 -0.00000000000E+00 -0.00000000000E+00 -0.52410457896E+01  0.52410464100E+01  0.25500000000E-02 0. -1.
    5000001    1    1    2    0    0  0.74856300650E+02  0.22734061843E+02  0.10356081989E+04  0.10414094511E+04  0.77000000000E+02 0.  0.
   -5000001    1    1    2    0    0 -0.74856300650E+02 -0.22734061843E+02  0.12847473079E+04  0.12894281478E+04  0.77000000000E+02 0.  0.
<mgrwt>
<rscale>  0 0.22080361E+03</rscale>
<asrwt>0</asrwt>
<pdfrwt beam="1">  1        2 0.35778363E+00 0.22080361E+03</pdfrwt>
<pdfrwt beam="2">  1       -2 0.80631582E-03 0.22080361E+03</pdfrwt>
<totfact> 0.14468614E+04</totfact>
</mgrwt>
</event>
<event>
 4    1  0.6148427E-004  0.2289499E+03  0.7818608E-02  0.1127381E+00
         -2   -1    0    0    0  501 -0.00000000000E+00  0.00000000000E+00  0.36777467444E+02  0.36777467532E+02  0.25500000000E-02 0. -1.
          2   -1    0    0  501    0  0.00000000000E+00 -0.00000000000E+00 -0.35631907391E+03  0.35631907392E+03  0.25500000000E-02 0.  1.
    5000001    1    1    2    0    0 -0.82566204173E+02 -0.66836287724E+01 -0.12936256533E+03  0.17182992252E+03  0.77000000000E+02 0.  0.
   -5000001    1    1    2    0    0  0.82566204173E+02  0.66836287724E+01 -0.19017904114E+03  0.22126661893E+03  0.77000000000E+02 0.  0.
<mgrwt>
<rscale>  0 0.22894989E+03</rscale>
<asrwt>0</asrwt>
<pdfrwt beam="1">  1        2 0.54818317E-01 0.22894989E+03</pdfrwt>
<pdfrwt beam="2">  1       -2 0.56580722E-02 0.22894989E+03</pdfrwt>
<totfact> 0.14388994E+04</totfact>
</mgrwt>
</event>
<event>
 4    1  0.6148427E-004  0.3449936E+03  0.7818608E-02  0.1064689E+00
         -2   -1    0    0    0  501 -0.00000000000E+00  0.00000000000E+00  0.22685411225E+03  0.22685411226E+03  0.25500000000E-02 0. -1.
          2   -1    0    0  501    0  0.00000000000E+00 -0.00000000000E+00 -0.13116424721E+03  0.13116424724E+03  0.25500000000E-02 0.  1.
    5000001    1    1    2    0    0  0.48577855539E+02  0.24058696170E+02 -0.10213656231E+03  0.13892266291E+03  0.77000000000E+02 0.  0.
   -5000001    1    1    2    0    0 -0.48577855539E+02 -0.24058696170E+02  0.19782642734E+03  0.21909569659E+03  0.77000000000E+02 0.  0.
<mgrwt>
<rscale>  0 0.34499362E+03</rscale>
<asrwt>0</asrwt>
<pdfrwt beam="1">  1        2 0.20179115E-01 0.34499362E+03</pdfrwt>
<pdfrwt beam="2">  1       -2 0.34900632E-01 0.34499362E+03</pdfrwt>
<totfact> 0.21316563E+03</totfact>
</mgrwt>
</event>
<event>
 4    1  0.6148427E-004  0.2276249E+03  0.7818608E-02  0.1128323E+00
         -2   -1    0    0    0  501 -0.00000000000E+00  0.00000000000E+00  0.64779998623E+01  0.64780003642E+01  0.25500000000E-02 0. -1.
          2   -1    0    0  501    0  0.00000000000E+00 -0.00000000000E+00 -0.19995791869E+04  0.19995791869E+04  0.25500000000E-02 0.  1.
    5000001    1    1    2    0    0 -0.78511768094E+02 -0.27233648115E+02 -0.90061237310E+03  0.90770998447E+03  0.77000000000E+02 0.  0.
   -5000001    1    1    2    0    0  0.78511768094E+02  0.27233648115E+02 -0.10924888139E+04  0.10983472028E+04  0.77000000000E+02 0.  0.
<mgrwt>
<rscale>  0 0.22762490E+03</rscale>
<asrwt>0</asrwt>
<pdfrwt beam="1">  1        2 0.30762707E+00 0.22762490E+03</pdfrwt>
<pdfrwt beam="2">  1       -2 0.99661700E-03 0.22762490E+03</pdfrwt>
<totfact> 0.15839927E+04</totfact>
</mgrwt>
</event>
<event>
 4    1  0.6148427E-004  0.2488579E+03  0.7818608E-02  0.1114029E+00
          2   -1    0    0  501    0  0.00000000000E+00  0.00000000000E+00  0.92115545936E+03  0.92115545936E+03  0.25500000000E-02 0.  1.
         -2   -1    0    0    0  501 -0.00000000000E+00 -0.00000000000E+00 -0.16807762089E+02  0.16807762283E+02  0.25500000000E-02 0. -1.
    5000001    1    1    2    0    0  0.26361205849E+02  0.78149212274E+02  0.25447357505E+03  0.27836668794E+03  0.77000000000E+02 0.  0.
   -5000001    1    1    2    0    0 -0.26361205849E+02 -0.78149212274E+02  0.64987412221E+03  0.65959653370E+03  0.77000000000E+02 0.  0.
<mgrwt>
<rscale>  0 0.24885789E+03</rscale>
<asrwt>0</asrwt>
<pdfrwt beam="1">  1        2 0.14171622E+00 0.24885789E+03</pdfrwt>
<pdfrwt beam="2">  1       -2 0.25858096E-02 0.24885789E+03</pdfrwt>
<totfact> 0.15433187E+04</totfact>
</mgrwt>
</event>
<event>
 4    1  0.6148427E-004  0.1920464E+03  0.7818608E-02  0.1156628E+00
         -2   -1    0    0    0  501 -0.00000000000E+00  0.00000000000E+00  0.22659755102E+01  0.22659769450E+01  0.25500000000E-02 0. -1.
          2   -1    0    0  501    0  0.00000000000E+00 -0.00000000000E+00 -0.40690864080E+04  0.40690864080E+04  0.25500000000E-02 0.  1.
    5000001    1    1    2    0    0  0.23684395064E+02  0.19807374496E+02 -0.30585206348E+04  0.30596455278E+04  0.77000000000E+02 0.  0.
   -5000001    1    1    2    0    0 -0.23684395064E+02 -0.19807374496E+02 -0.10082997977E+04  0.10117068571E+04  0.77000000000E+02 0.  0.
<mgrwt>
<rscale>  0 0.19204638E+03</rscale>
<asrwt>0</asrwt>
<pdfrwt beam="1">  1        2 0.62600744E+00 0.19204638E+03</pdfrwt>
<pdfrwt beam="2">  1       -2 0.34861498E-03 0.19204638E+03</pdfrwt>
<totfact> 0.39022313E+03</totfact>
</mgrwt>
</event>
<event>
 4    1  0.6148427E-004  0.5073576E+03  0.7818608E-02  0.1011876E+00
          2   -1    0    0  501    0  0.00000000000E+00  0.00000000000E+00  0.73809875561E+03  0.73809875561E+03  0.25500000000E-02 0.  1.
         -2   -1    0    0    0  501 -0.00000000000E+00 -0.00000000000E+00 -0.87187430117E+02  0.87187430154E+02  0.25500000000E-02 0. -1.
    5000001    1    1    2    0    0 -0.58067928483E+02 -0.22346028288E+03  0.20909089438E+03  0.32086505646E+03  0.77000000000E+02 0.  0.
   -5000001    1    1    2    0    0  0.58067928483E+02  0.22346028288E+03  0.44182043112E+03  0.50442112931E+03  0.77000000000E+02 0.  0.
<mgrwt>
<rscale>  0 0.50735760E+03</rscale>
<asrwt>0</asrwt>
<pdfrwt beam="1">  1        2 0.11355365E+00 0.50735760E+03</pdfrwt>
<pdfrwt beam="2">  1       -2 0.13413451E-01 0.50735760E+03</pdfrwt>
<totfact> 0.16219818E+03</totfact>
</mgrwt>
</event>
<event>
 4    1  0.6148427E-004  0.2122463E+03  0.7818608E-02  0.1139799E+00
          2   -1    0    0  501    0  0.00000000000E+00  0.00000000000E+00  0.77432088775E+02  0.77432088817E+02  0.25500000000E-02 0.  1.
         -2   -1    0    0    0  501 -0.00000000000E+00 -0.00000000000E+00 -0.14544520997E+03  0.14544520999E+03  0.25500000000E-02 0. -1.
    5000001    1    1    2    0    0 -0.88607210430E+01  0.62016326113E+02 -0.73417595475E+02  0.12346530042E+03  0.77000000000E+02 0.  0.
   -5000001    1    1    2    0    0  0.88607210430E+01 -0.62016326113E+02  0.54044742805E+01  0.99411998391E+02  0.77000000000E+02 0.  0.
<mgrwt>
<rscale>  0 0.21224633E+03</rscale>
<asrwt>0</asrwt>
<pdfrwt beam="1">  1        2 0.11912629E-01 0.21224633E+03</pdfrwt>
<pdfrwt beam="2">  1       -2 0.22376186E-01 0.21224633E+03</pdfrwt>
<totfact> 0.86817729E+03</totfact>
</mgrwt>
</event>
<event>
 4    1  0.6148427E-004  0.1881432E+03  0.7818608E-02  0.1160147E+00
         -2   -1    0    0    0  501 -0.00000000000E+00  0.00000000000E+00  0.51932505092E+02  0.51932505154E+02  0.25500000000E-02 0. -1.
          2   -1    0    0  501    0  0.00000000000E+00 -0.00000000000E+00 -0.17040318346E+03  0.17040318348E+03  0.25500000000E-02 0.  1.
    5000001    1    1    2    0    0 -0.36156440528E+02 -0.37352479303E+02 -0.41788475636E+02  0.10187135318E+03  0.77000000000E+02 0.  0.
   -5000001    1    1    2    0    0  0.36156440528E+02  0.37352479303E+02 -0.76682202735E+02  0.12046433546E+03  0.77000000000E+02 0.  0.
<mgrwt>
<rscale>  0 0.18814318E+03</rscale>
<asrwt>0</asrwt>
<pdfrwt beam="1">  1        2 0.26215874E-01 0.18814318E+03</pdfrwt>
<pdfrwt beam="2">  1       -2 0.79896163E-02 0.18814318E+03</pdfrwt>
<totfact> 0.18524983E+04</totfact>
</mgrwt>
</event>
<event>
 4    1  0.6148427E-004  0.1835474E+03  0.7818608E-02  0.1164413E+00
         -2   -1    0    0    0  501 -0.00000000000E+00  0.00000000000E+00  0.36193592478E+01  0.36193601461E+01  0.25500000000E-02 0. -1.
          2   -1    0    0  501    0  0.00000000000E+00 -0.00000000000E+00 -0.23270457048E+04  0.23270457048E+04  0.25500000000E-02 0.  1.
    5000001    1    1    2    0    0  0.82325813449E+01 -0.28505405881E+02 -0.65172541918E+03  0.65692872944E+03  0.77000000000E+02 0.  0.
   -5000001    1    1    2    0    0 -0.82325813449E+01  0.28505405881E+02 -0.16717009264E+04  0.16737363355E+04  0.77000000000E+02 0.  0.
<mgrwt>
<rscale>  0 0.18354744E+03</rscale>
<asrwt>0</asrwt>
<pdfrwt beam="1">  1        2 0.35800584E+00 0.18354744E+03</pdfrwt>
<pdfrwt beam="2">  1       -2 0.55682643E-03 0.18354744E+03</pdfrwt>
<totfact> 0.24426262E+04</totfact>
</mgrwt>
</event>
<event>
 4    1  0.6148427E-004  0.3469295E+03  0.7818608E-02  0.1063882E+00
          2   -1    0    0  501    0  0.00000000000E+00  0.00000000000E+00  0.25108273388E+04  0.25108273388E+04  0.25500000000E-02 0. -1.
         -2   -1    0    0    0  501 -0.00000000000E+00 -0.00000000000E+00 -0.11984105273E+02  0.11984105544E+02  0.25500000000E-02 0.  1.
    5000001    1    1    2    0    0 -0.53485290142E+02  0.14110533921E+03  0.15204985741E+04  0.15299072870E+04  0.77000000000E+02 0.  0.
   -5000001    1    1    2    0    0  0.53485290142E+02 -0.14110533921E+03  0.97834465939E+03  0.99290415730E+03  0.77000000000E+02 0.  0.
<mgrwt>
<rscale>  0 0.34692950E+03</rscale>
<asrwt>0</asrwt>
<pdfrwt beam="1">  1        2 0.38628127E+00 0.34692950E+03</pdfrwt>
<pdfrwt beam="2">  1       -2 0.18437079E-02 0.34692950E+03</pdfrwt>
<totfact> 0.34331616E+03</totfact>
</mgrwt>
</event>
<event>
 4    1  0.6148427E-004  0.2637337E+03  0.7818608E-02  0.1104920E+00
          2   -1    0    0  501    0  0.00000000000E+00  0.00000000000E+00  0.14502179618E+03  0.14502179620E+03  0.25500000000E-02 0.  1.
         -2   -1    0    0    0  501 -0.00000000000E+00 -0.00000000000E+00 -0.11990519564E+03  0.11990519566E+03  0.25500000000E-02 0. -1.
    5000001    1    1    2    0    0 -0.97561192200E+02 -0.39423404590E+02 -0.72151684423E+01  0.13058885752E+03  0.77000000000E+02 0.  0.
   -5000001    1    1    2    0    0  0.97561192200E+02  0.39423404590E+02  0.32331768985E+02  0.13433813434E+03  0.77000000000E+02 0.  0.
<mgrwt>
<rscale>  0 0.26373371E+03</rscale>
<asrwt>0</asrwt>
<pdfrwt beam="1">  1        2 0.22311046E-01 0.26373371E+03</pdfrwt>
<pdfrwt beam="2">  1       -2 0.18446953E-01 0.26373371E+03</pdfrwt>
<totfact> 0.58549970E+03</totfact>
</mgrwt>
</event>
<event>
 4    1  0.6148427E-004  0.3823686E+03  0.7818608E-02  0.1050062E+00
         -2   -1    0    0    0  501 -0.00000000000E+00  0.00000000000E+00  0.26515590632E+02  0.26515590754E+02  0.25500000000E-02 0. -1.
          2   -1    0    0  501    0  0.00000000000E+00 -0.00000000000E+00 -0.13784884277E+04  0.13784884277E+04  0.25500000000E-02 0.  1.
    5000001    1    1    2    0    0 -0.39289790232E+02 -0.15558586690E+03 -0.93245810458E+03  0.94929329840E+03  0.77000000000E+02 0.  0.
   -5000001    1    1    2    0    0  0.39289790232E+02  0.15558586690E+03 -0.41951473244E+03  0.45571072001E+03  0.77000000000E+02 0.  0.
<mgrwt>
<rscale>  0 0.38236859E+03</rscale>
<asrwt>0</asrwt>
<pdfrwt beam="1">  1        2 0.21207509E+00 0.38236859E+03</pdfrwt>
<pdfrwt beam="2">  1       -2 0.40793227E-02 0.38236859E+03</pdfrwt>
<totfact> 0.42483473E+03</totfact>
</mgrwt>
</event>
<event>
 4    1  0.6148427E-004  0.2666051E+03  0.7818608E-02  0.1103238E+00
          2   -1    0    0  501    0  0.00000000000E+00  0.00000000000E+00  0.41821534767E+03  0.41821534768E+03  0.25500000000E-02 0.  1.
         -2   -1    0    0    0  501 -0.00000000000E+00 -0.00000000000E+00 -0.42489050244E+02  0.42489050320E+02  0.25500000000E-02 0. -1.
    5000001    1    1    2    0    0  0.23389190932E+02 -0.64903450681E+02  0.42450217742E+02  0.11176105381E+03  0.77000000000E+02 0.  0.
   -5000001    1    1    2    0    0 -0.23389190932E+02  0.64903450681E+02  0.33327607968E+03  0.34894334419E+03  0.77000000000E+02 0.  0.
<mgrwt>
<rscale>  0 0.26660512E+03</rscale>
<asrwt>0</asrwt>
<pdfrwt beam="1">  1        2 0.64340823E-01 0.26660512E+03</pdfrwt>
<pdfrwt beam="2">  1       -2 0.65367770E-02 0.26660512E+03</pdfrwt>
<totfact> 0.97699787E+03</totfact>
</mgrwt>
</event>
<event>
 4    1  0.6148427E-004  0.2592916E+03  0.7818608E-02  0.1107570E+00
          2   -1    0    0  501    0  0.00000000000E+00  0.00000000000E+00  0.36108793101E+03  0.36108793102E+03  0.25500000000E-02 0.  1.
         -2   -1    0    0    0  501 -0.00000000000E+00 -0.00000000000E+00 -0.46548316899E+02  0.46548316969E+02  0.25500000000E-02 0. -1.
    5000001    1    1    2    0    0 -0.29984578871E+02 -0.98150027956E+02  0.18653533126E+03  0.22639993985E+03  0.77000000000E+02 0.  0.
   -5000001    1    1    2    0    0  0.29984578871E+02  0.98150027956E+02  0.12800428285E+03  0.18123630814E+03  0.77000000000E+02 0.  0.
<mgrwt>
<rscale>  0 0.25929162E+03</rscale>
<asrwt>0</asrwt>
<pdfrwt beam="1">  1        2 0.55551989E-01 0.25929162E+03</pdfrwt>
<pdfrwt beam="2">  1       -2 0.71612796E-02 0.25929162E+03</pdfrwt>
<totfact> 0.99377351E+03</totfact>
</mgrwt>
</event>
<event>
 4    1  0.6148427E-004  0.2753942E+03  0.7818608E-02  0.1098231E+00
         -2   -1    0    0    0  501 -0.00000000000E+00  0.00000000000E+00  0.16605291901E+02  0.16605292096E+02  0.25500000000E-02 0. -1.
          2   -1    0    0  501    0  0.00000000000E+00 -0.00000000000E+00 -0.11418343775E+04  0.11418343776E+04  0.25500000000E-02 0.  1.
    5000001    1    1    2    0    0 -0.15650940625E+02 -0.11295564350E+03 -0.58469911893E+03  0.60067128200E+03  0.77000000000E+02 0.  0.
   -5000001    1    1    2    0    0  0.15650940625E+02  0.11295564350E+03 -0.54052996672E+03  0.55776838765E+03  0.77000000000E+02 0.  0.
<mgrwt>
<rscale>  0 0.27539421E+03</rscale>
<asrwt>0</asrwt>
<pdfrwt beam="1">  1        2 0.17566677E+00 0.27539421E+03</pdfrwt>
<pdfrwt beam="2">  1       -2 0.25546612E-02 0.27539421E+03</pdfrwt>
<totfact> 0.11599461E+04</totfact>
</mgrwt>
</event>
<event>
 4    1  0.6148427E-004  0.2286220E+03  0.7818608E-02  0.1127613E+00
          2   -1    0    0  501    0  0.00000000000E+00  0.00000000000E+00  0.10097537369E+04  0.10097537369E+04  0.25500000000E-02 0.  1.
         -2   -1    0    0    0  501 -0.00000000000E+00 -0.00000000000E+00 -0.12940788544E+02  0.12940788796E+02  0.25500000000E-02 0. -1.
    5000001    1    1    2    0    0  0.64504344192E+02  0.53780758907E+02  0.45720614359E+03  0.47118959898E+03  0.77000000000E+02 0.  0.
   -5000001    1    1    2    0    0 -0.64504344192E+02 -0.53780758907E+02  0.53960680476E+03  0.55150492672E+03  0.77000000000E+02 0.  0.
<mgrwt>
<rscale>  0 0.22862204E+03</rscale>
<asrwt>0</asrwt>
<pdfrwt beam="1">  1        2 0.15534675E+00 0.22862204E+03</pdfrwt>
<pdfrwt beam="2">  1       -2 0.19908903E-02 0.22862204E+03</pdfrwt>
<totfact> 0.19902740E+04</totfact>
</mgrwt>
</event>
<event>
 4    1  0.6148427E-004  0.2371296E+03  0.7818608E-02  0.1121720E+00
         -2   -1    0    0    0  501 -0.00000000000E+00  0.00000000000E+00  0.45165345058E+02  0.45165345130E+02  0.25500000000E-02 0. -1.
          2   -1    0    0  501    0  0.00000000000E+00 -0.00000000000E+00 -0.31124782074E+03  0.31124782075E+03  0.25500000000E-02 0.  1.
    5000001    1    1    2    0    0  0.29769765067E+02  0.82697999948E+02 -0.10285249111E+03  0.15566898546E+03  0.77000000000E+02 0.  0.
   -5000001    1    1    2    0    0 -0.29769765067E+02 -0.82697999948E+02 -0.16322998457E+03  0.20074418042E+03  0.77000000000E+02 0.  0.
<mgrwt>
<rscale>  0 0.23712963E+03</rscale>
<asrwt>0</asrwt>
<pdfrwt beam="1">  1        2 0.47884279E-01 0.23712963E+03</pdfrwt>
<pdfrwt beam="2">  1       -2 0.69485148E-02 0.23712963E+03</pdfrwt>
<totfact> 0.12163568E+04</totfact>
</mgrwt>
</event>
<event>
 4    1  0.6148427E-004  0.3275042E+03  0.7818608E-02  0.1072247E+00
         -2   -1    0    0    0  501 -0.00000000000E+00  0.00000000000E+00  0.19716989723E+02  0.19716989888E+02  0.25500000000E-02 0. -1.
          2   -1    0    0  501    0  0.00000000000E+00 -0.00000000000E+00 -0.13599817191E+04  0.13599817191E+04  0.25500000000E-02 0.  1.
    5000001    1    1    2    0    0  0.96510064800E+02  0.10352274400E+03 -0.54697865920E+03  0.57021557744E+03  0.77000000000E+02 0.  0.
   -5000001    1    1    2    0    0 -0.96510064800E+02 -0.10352274400E+03 -0.79328607017E+03  0.80948313155E+03  0.77000000000E+02 0.  0.
<mgrwt>
<rscale>  0 0.32750417E+03</rscale>
<asrwt>0</asrwt>
<pdfrwt beam="1">  1        2 0.20922788E+00 0.32750417E+03</pdfrwt>
<pdfrwt beam="2">  1       -2 0.30333841E-02 0.32750417E+03</pdfrwt>
<totfact> 0.67920146E+03</totfact>
</mgrwt>
</event>
<event>
 4    1  0.6148427E-004  0.2182434E+03  0.7818608E-02  0.1135199E+00
          2   -1    0    0  501    0  0.00000000000E+00  0.00000000000E+00  0.26277351738E+03  0.26277351740E+03  0.25500000000E-02 0.  1.
         -2   -1    0    0    0  501 -0.00000000000E+00 -0.00000000000E+00 -0.45314865234E+02  0.45314865305E+02  0.25500000000E-02 0. -1.
    5000001    1    1    2    0    0  0.57993362095E+02 -0.39737786363E+02  0.63286934484E+02  0.12196949532E+03  0.77000000000E+02 0.  0.
   -5000001    1    1    2    0    0 -0.57993362095E+02  0.39737786363E+02  0.15417171767E+03  0.18611888738E+03  0.77000000000E+02 0.  0.
<mgrwt>
<rscale>  0 0.21824341E+03</rscale>
<asrwt>0</asrwt>
<pdfrwt beam="1">  1        2 0.40426695E-01 0.21824341E+03</pdfrwt>
<pdfrwt beam="2">  1       -2 0.69715177E-02 0.21824341E+03</pdfrwt>
<totfact> 0.14439238E+04</totfact>
</mgrwt>
</event>
<event>
 4    1  0.6148427E-004  0.4125391E+03  0.7818608E-02  0.1039522E+00
         -2   -1    0    0    0  501 -0.00000000000E+00  0.00000000000E+00  0.45770047268E+02  0.45770047339E+02  0.25500000000E-02 0. -1.
          2   -1    0    0  501    0  0.00000000000E+00 -0.00000000000E+00 -0.92958433459E+03  0.92958433459E+03  0.25500000000E-02 0.  1.
    5000001    1    1    2    0    0  0.60218688066E+02  0.18163597419E+03 -0.44296832783E+03  0.48863877964E+03  0.77000000000E+02 0.  0.
   -5000001    1    1    2    0    0 -0.60218688066E+02 -0.18163597419E+03 -0.44084595949E+03  0.48671560229E+03  0.77000000000E+02 0.  0.
<mgrwt>
<rscale>  0 0.41253906E+03</rscale>
<asrwt>0</asrwt>
<pdfrwt beam="1">  1        2 0.14301296E+00 0.41253906E+03</pdfrwt>
<pdfrwt beam="2">  1       -2 0.70415464E-02 0.41253906E+03</pdfrwt>
<totfact> 0.33714058E+03</totfact>
</mgrwt>
</event>
<event>
 4    1  0.6148427E-004  0.3121172E+03  0.7818608E-02  0.1079335E+00
         -2   -1    0    0    0  501 -0.00000000000E+00  0.00000000000E+00  0.18066513281E+02  0.18066513461E+02  0.25500000000E-02 0. -1.
          2   -1    0    0  501    0  0.00000000000E+00 -0.00000000000E+00 -0.13480343415E+04  0.13480343415E+04  0.25500000000E-02 0.  1.
    5000001    1    1    2    0    0 -0.15277574710E+02  0.12044615841E+03 -0.93066475454E+03  0.94170407598E+03  0.77000000000E+02 0.  0.
   -5000001    1    1    2    0    0  0.15277574710E+02 -0.12044615841E+03 -0.39930307366E+03  0.42439677897E+03  0.77000000000E+02 0.  0.
<mgrwt>
<rscale>  0 0.31211716E+03</rscale>
<asrwt>0</asrwt>
<pdfrwt beam="1">  1        2 0.20738982E+00 0.31211716E+03</pdfrwt>
<pdfrwt beam="2">  1       -2 0.27794646E-02 0.31211716E+03</pdfrwt>
<totfact> 0.78522875E+03</totfact>
</mgrwt>
</event>
<event>
 4    1  0.6148427E-004  0.1939829E+03  0.7818608E-02  0.1154917E+00
          2   -1    0    0  501    0  0.00000000000E+00  0.00000000000E+00  0.80050610001E+02  0.80050610042E+02  0.25500000000E-02 0.  1.
         -2   -1    0    0    0  501 -0.00000000000E+00 -0.00000000000E+00 -0.11751738870E+03  0.11751738873E+03  0.25500000000E-02 0. -1.
    5000001    1    1    2    0    0 -0.52840042460E+02  0.15093617382E+02  0.30738059528E+01  0.94648484699E+02  0.77000000000E+02 0.  0.
   -5000001    1    1    2    0    0  0.52840042460E+02 -0.15093617382E+02 -0.40540584655E+02  0.10291951407E+03  0.77000000000E+02 0.  0.
<mgrwt>
<rscale>  0 0.19398287E+03</rscale>
<asrwt>0</asrwt>
<pdfrwt beam="1">  1        2 0.12315479E-01 0.19398287E+03</pdfrwt>
<pdfrwt beam="2">  1       -2 0.18079598E-01 0.19398287E+03</pdfrwt>
<totfact> 0.11924894E+04</totfact>
</mgrwt>
</event>
<event>
 4    1  0.6148427E-004  0.2037333E+03  0.7818608E-02  0.1146627E+00
          2   -1    0    0  501    0  0.00000000000E+00  0.00000000000E+00  0.10339244119E+03  0.10339244122E+03  0.25500000000E-02 0.  1.
         -2   -1    0    0    0  501 -0.00000000000E+00 -0.00000000000E+00 -0.10036340303E+03  0.10036340307E+03  0.25500000000E-02 0. -1.
    5000001    1    1    2    0    0 -0.36354356340E+02 -0.44420811894E+02 -0.32444638137E+02  0.10137308468E+03  0.77000000000E+02 0.  0.
   -5000001    1    1    2    0    0  0.36354356340E+02  0.44420811894E+02  0.35473676293E+02  0.10238275960E+03  0.77000000000E+02 0.  0.
<mgrwt>
<rscale>  0 0.20373333E+03</rscale>
<asrwt>0</asrwt>
<pdfrwt beam="1">  1        2 0.15906529E-01 0.20373333E+03</pdfrwt>
<pdfrwt beam="2">  1       -2 0.15440524E-01 0.20373333E+03</pdfrwt>
<totfact> 0.11476345E+04</totfact>
</mgrwt>
</event>
<event>
 4    1  0.6148427E-004  0.1593936E+03  0.7818608E-02  0.1189383E+00
         -2   -1    0    0    0  501 -0.00000000000E+00  0.00000000000E+00  0.19374691632E+02  0.19374691800E+02  0.25500000000E-02 0. -1.
          2   -1    0    0  501    0  0.00000000000E+00 -0.00000000000E+00 -0.32782881078E+03  0.32782881079E+03  0.25500000000E-02 0.  1.
    5000001    1    1    2    0    0 -0.95331239137E+01 -0.64268470665E+01 -0.11710693252E+03  0.14062438785E+03  0.77000000000E+02 0.  0.
   -5000001    1    1    2    0    0  0.95331239137E+01  0.64268470665E+01 -0.19134718663E+03  0.20657911474E+03  0.77000000000E+02 0.  0.
<mgrwt>
<rscale>  0 0.15939363E+03</rscale>
<asrwt>0</asrwt>
<pdfrwt beam="1">  1        2 0.50435197E-01 0.15939363E+03</pdfrwt>
<pdfrwt beam="2">  1       -2 0.29807220E-02 0.15939363E+03</pdfrwt>
<totfact> 0.39923577E+04</totfact>
</mgrwt>
</event>
<event>
 4    1  0.6148427E-004  0.3884165E+03  0.7818608E-02  0.1047866E+00
         -2   -1    0    0    0  501 -0.00000000000E+00  0.00000000000E+00  0.22174567816E+02  0.22174567962E+02  0.25500000000E-02 0. -1.
          2   -1    0    0  501    0  0.00000000000E+00 -0.00000000000E+00 -0.17009052837E+04  0.17009052837E+04  0.25500000000E-02 0.  1.
    5000001    1    1    2    0    0 -0.15948652952E+03  0.76428029705E+02 -0.73911950964E+03  0.76387423464E+03  0.77000000000E+02 0.  0.
   -5000001    1    1    2    0    0  0.15948652952E+03 -0.76428029705E+02 -0.93961120626E+03  0.95920561703E+03  0.77000000000E+02 0.  0.
<mgrwt>
<rscale>  0 0.38841648E+03</rscale>
<asrwt>0</asrwt>
<pdfrwt beam="1">  1        2 0.26167763E+00 0.38841648E+03</pdfrwt>
<pdfrwt beam="2">  1       -2 0.34114733E-02 0.38841648E+03</pdfrwt>
<totfact> 0.37259981E+03</totfact>
</mgrwt>
</event>
<event>
 4    1  0.6148427E-004  0.3642186E+03  0.7818608E-02  0.1056926E+00
         -2   -1    0    0    0  501 -0.00000000000E+00  0.00000000000E+00  0.42707487513E+03  0.42707487514E+03  0.25500000000E-02 0. -1.
          2   -1    0    0  501    0  0.00000000000E+00 -0.00000000000E+00 -0.77653355909E+02  0.77653355951E+02  0.25500000000E-02 0.  1.
    5000001    1    1    2    0    0  0.10873222550E+02  0.16419081849E+03  0.19212678428E+03  0.26442116610E+03  0.77000000000E+02 0.  0.
   -5000001    1    1    2    0    0 -0.10873222550E+02 -0.16419081849E+03  0.15729473494E+03  0.24030706499E+03  0.77000000000E+02 0.  0.
<mgrwt>
<rscale>  0 0.36421860E+03</rscale>
<asrwt>0</asrwt>
<pdfrwt beam="1">  1        2 0.11946670E-01 0.36421860E+03</pdfrwt>
<pdfrwt beam="2">  1       -2 0.65703827E-01 0.36421860E+03</pdfrwt>
<totfact> 0.11289481E+03</totfact>
</mgrwt>
</event>
<event>
 4    1  0.6148427E-004  0.8388311E+03  0.7818608E-02  0.9505451E-01
          2   -1    0    0  501    0  0.00000000000E+00  0.00000000000E+00  0.13277268916E+04  0.13277268916E+04  0.25500000000E-02 0.  1.
         -2   -1    0    0    0  501 -0.00000000000E+00 -0.00000000000E+00 -0.13248915177E+03  0.13248915179E+03  0.25500000000E-02 0. -1.
    5000001    1    1    2    0    0 -0.32012062985E+03  0.88684182166E+02  0.17250503321E+03  0.38213752538E+03  0.77000000000E+02 0.  0.
   -5000001    1    1    2    0    0  0.32012062985E+03 -0.88684182166E+02  0.10227327067E+04  0.10780785181E+04  0.77000000000E+02 0.  0.
<mgrwt>
<rscale>  0 0.83883111E+03</rscale>
<asrwt>0</asrwt>
<pdfrwt beam="1">  1        2 0.20426568E+00 0.83883111E+03</pdfrwt>
<pdfrwt beam="2">  1       -2 0.20382946E-01 0.83883111E+03</pdfrwt>
<totfact> 0.33057936E+02</totfact>
</mgrwt>
</event>
<event>
 4    1  0.6148427E-004  0.4614228E+03  0.7818608E-02  0.1024369E+00
          2   -1    0    0  501    0  0.00000000000E+00  0.00000000000E+00  0.16003451292E+04  0.16003451292E+04  0.25500000000E-02 0.  1.
         -2   -1    0    0    0  501 -0.00000000000E+00 -0.00000000000E+00 -0.33260164716E+02  0.33260164814E+02  0.25500000000E-02 0. -1.
    5000001    1    1    2    0    0 -0.52896197337E+02  0.20235281226E+03  0.99460512277E+03  0.10192708269E+04  0.77000000000E+02 0.  0.
   -5000001    1    1    2    0    0  0.52896197337E+02 -0.20235281226E+03  0.57247984171E+03  0.61433446711E+03  0.77000000000E+02 0.  0.
<mgrwt>
<rscale>  0 0.46142277E+03</rscale>
<asrwt>0</asrwt>
<pdfrwt beam="1">  1        2 0.24620698E+00 0.46142277E+03</pdfrwt>
<pdfrwt beam="2">  1       -2 0.51169477E-02 0.46142277E+03</pdfrwt>
<totfact> 0.22687084E+03</totfact>
</mgrwt>
</event>
<event>
 4    1  0.6148427E-004  0.2061049E+03  0.7818608E-02  0.1144688E+00
          2   -1    0    0  501    0  0.00000000000E+00  0.00000000000E+00  0.40124814040E+03  0.40124814041E+03  0.25500000000E-02 0.  1.
         -2   -1    0    0    0  501 -0.00000000000E+00 -0.00000000000E+00 -0.26466930396E+02  0.26466930519E+02  0.25500000000E-02 0. -1.
    5000001    1    1    2    0    0 -0.62979909806E+02  0.14378684153E+02  0.23460339066E+03  0.25522728402E+03  0.77000000000E+02 0.  0.
   -5000001    1    1    2    0    0  0.62979909806E+02 -0.14378684153E+02  0.14017781934E+03  0.17248778691E+03  0.77000000000E+02 0.  0.
<mgrwt>
<rscale>  0 0.20610489E+03</rscale>
<asrwt>0</asrwt>
<pdfrwt beam="1">  1        2 0.61730484E-01 0.20610489E+03</pdfrwt>
<pdfrwt beam="2">  1       -2 0.40718354E-02 0.20610489E+03</pdfrwt>
<totfact> 0.20673072E+04</totfact>
</mgrwt>
</event>
<event>
 4    1  0.6148427E-004  0.5949868E+03  0.7818608E-02  0.9915862E-01
         -2   -1    0    0    0  501 -0.00000000000E+00  0.00000000000E+00  0.18272993980E+03  0.18272993982E+03  0.25500000000E-02 0. -1.
          2   -1    0    0  501    0  0.00000000000E+00 -0.00000000000E+00 -0.48433404898E+03  0.48433404899E+03  0.25500000000E-02 0.  1.
    5000001    1    1    2    0    0  0.12190430993E+03 -0.28883709724E+02 -0.44073868573E+03  0.46462298540E+03  0.77000000000E+02 0.  0.
   -5000001    1    1    2    0    0 -0.12190430993E+03  0.28883709724E+02  0.13913457655E+03  0.20244100340E+03  0.77000000000E+02 0.  0.
<mgrwt>
<rscale>  0 0.59498683E+03</rscale>
<asrwt>0</asrwt>
<pdfrwt beam="1">  1        2 0.74512930E-01 0.59498683E+03</pdfrwt>
<pdfrwt beam="2">  1       -2 0.28112299E-01 0.59498683E+03</pdfrwt>
<totfact> 0.74285040E+02</totfact>
</mgrwt>
</event>
<event>
 4    1  0.6148427E-004  0.2826038E+03  0.7818608E-02  0.1094275E+00
          2   -1    0    0  501    0  0.00000000000E+00  0.00000000000E+00  0.62772790628E+03  0.62772790628E+03  0.25500000000E-02 0.  1.
         -2   -1    0    0    0  501 -0.00000000000E+00 -0.00000000000E+00 -0.31807136361E+02  0.31807136463E+02  0.25500000000E-02 0. -1.
    5000001    1    1    2    0    0  0.55383995068E+02  0.52630310625E+02  0.86629045154E+02  0.13881976794E+03  0.77000000000E+02 0.  0.
   -5000001    1    1    2    0    0 -0.55383995068E+02 -0.52630310625E+02  0.50929172476E+03  0.52071527481E+03  0.77000000000E+02 0.  0.
<mgrwt>
<rscale>  0 0.28260380E+03</rscale>
<asrwt>0</asrwt>
<pdfrwt beam="1">  1        2 0.96573517E-01 0.28260380E+03</pdfrwt>
<pdfrwt beam="2">  1       -2 0.48934060E-02 0.28260380E+03</pdfrwt>
<totfact> 0.96488971E+03</totfact>
</mgrwt>
</event>
<event>
 4    1  0.6148427E-004  0.3091296E+03  0.7818608E-02  0.1080764E+00
         -2   -1    0    0    0  501 -0.00000000000E+00  0.00000000000E+00  0.25188710038E+02  0.25188710167E+02  0.25500000000E-02 0. -1.
          2   -1    0    0  501    0  0.00000000000E+00 -0.00000000000E+00 -0.94845187524E+03  0.94845187524E+03  0.25500000000E-02 0.  1.
    5000001    1    1    2    0    0 -0.12590529066E+03  0.96539887877E+01 -0.60304694929E+03  0.62091864585E+03  0.77000000000E+02 0.  0.
   -5000001    1    1    2    0    0  0.12590529066E+03 -0.96539887877E+01 -0.32021621591E+03  0.35272193956E+03  0.77000000000E+02 0.  0.
<mgrwt>
<rscale>  0 0.30912961E+03</rscale>
<asrwt>0</asrwt>
<pdfrwt beam="1">  1        2 0.14591565E+00 0.30912961E+03</pdfrwt>
<pdfrwt beam="2">  1       -2 0.38751869E-02 0.30912961E+03</pdfrwt>
<totfact> 0.81671212E+03</totfact>
</mgrwt>
</event>
<event>
 4    1  0.6148427E-004  0.2353313E+03  0.7818608E-02  0.1122943E+00
          2   -1    0    0  501    0  0.00000000000E+00  0.00000000000E+00  0.11863615006E+03  0.11863615009E+03  0.25500000000E-02 0.  1.
         -2   -1    0    0    0  501 -0.00000000000E+00 -0.00000000000E+00 -0.11670306860E+03  0.11670306863E+03  0.25500000000E-02 0. -1.
    5000001    1    1    2    0    0 -0.11362381482E+02  0.75329475682E+02 -0.44997702884E+02  0.11729205806E+03  0.77000000000E+02 0.  0.
   -5000001    1    1    2    0    0  0.11362381482E+02 -0.75329475682E+02  0.46930784347E+02  0.11804716066E+03  0.77000000000E+02 0.  0.
<mgrwt>
<rscale>  0 0.23533128E+03</rscale>
<asrwt>0</asrwt>
<pdfrwt beam="1">  1        2 0.18251715E-01 0.23533128E+03</pdfrwt>
<pdfrwt beam="2">  1       -2 0.17954318E-01 0.23533128E+03</pdfrwt>
<totfact> 0.76704766E+03</totfact>
</mgrwt>
</event>
<event>
 4    1  0.6148427E-004  0.2250289E+03  0.7818608E-02  0.1130188E+00
         -2   -1    0    0    0  501 -0.00000000000E+00  0.00000000000E+00  0.77861536649E+01  0.77861540825E+01  0.25500000000E-02 0. -1.
          2   -1    0    0  501    0  0.00000000000E+00 -0.00000000000E+00 -0.16258985382E+04  0.16258985382E+04  0.25500000000E-02 0.  1.
    5000001    1    1    2    0    0 -0.74817407262E+02  0.18367511966E+02 -0.10138167856E+04  0.10196511583E+04  0.77000000000E+02 0.  0.
   -5000001    1    1    2    0    0  0.74817407262E+02 -0.18367511966E+02 -0.60429559896E+03  0.61403353398E+03  0.77000000000E+02 0.  0.
<mgrwt>
<rscale>  0 0.22502885E+03</rscale>
<asrwt>0</asrwt>
<pdfrwt beam="1">  1        2 0.25013797E+00 0.22502885E+03</pdfrwt>
<pdfrwt beam="2">  1       -2 0.11978711E-02 0.22502885E+03</pdfrwt>
<totfact> 0.19011018E+04</totfact>
</mgrwt>
</event>
<event>
 4    1  0.6148427E-004  0.2950309E+03  0.7818608E-02  0.1087751E+00
         -2   -1    0    0    0  501 -0.00000000000E+00  0.00000000000E+00  0.17271111308E+03  0.17271111310E+03  0.25500000000E-02 0. -1.
          2   -1    0    0  501    0  0.00000000000E+00 -0.00000000000E+00 -0.12599544617E+03  0.12599544620E+03  0.25500000000E-02 0.  1.
    5000001    1    1    2    0    0 -0.12498405158E+03 -0.99140534959E+01  0.34097156585E+02  0.15103283648E+03  0.77000000000E+02 0.  0.
   -5000001    1    1    2    0    0  0.12498405158E+03  0.99140534959E+01  0.12618510324E+02  0.14767372281E+03  0.77000000000E+02 0.  0.
<mgrwt>
<rscale>  0 0.29503094E+03</rscale>
<asrwt>0</asrwt>
<pdfrwt beam="1">  1        2 0.19383915E-01 0.29503094E+03</pdfrwt>
<pdfrwt beam="2">  1       -2 0.26570940E-01 0.29503094E+03</pdfrwt>
<totfact> 0.36619155E+03</totfact>
</mgrwt>
</event>
<event>
 4    1  0.6148427E-004  0.6813031E+03  0.7818608E-02  0.9749752E-01
         -2   -1    0    0    0  501 -0.00000000000E+00  0.00000000000E+00  0.52697273539E+02  0.52697273601E+02  0.25500000000E-02 0. -1.
          2   -1    0    0  501    0  0.00000000000E+00 -0.00000000000E+00 -0.22020772153E+04  0.22020772153E+04  0.25500000000E-02 0.  1.
    5000001    1    1    2    0    0  0.26497367915E+03 -0.19731276434E+03 -0.11778216354E+04  0.12256982428E+04  0.77000000000E+02 0.  0.
   -5000001    1    1    2    0    0 -0.26497367915E+03  0.19731276434E+03 -0.97155830641E+03  0.10290762461E+04  0.77000000000E+02 0.  0.
<mgrwt>
<rscale>  0 0.68130306E+03</rscale>
<asrwt>0</asrwt>
<pdfrwt beam="1">  1        2 0.33878104E+00 0.68130306E+03</pdfrwt>
<pdfrwt beam="2">  1       -2 0.81072746E-02 0.68130306E+03</pdfrwt>
<totfact> 0.51313673E+02</totfact>
</mgrwt>
</event>
<event>
 4    1  0.6148427E-004  0.3575647E+03  0.7818608E-02  0.1059552E+00
          2   -1    0    0  501    0  0.00000000000E+00  0.00000000000E+00  0.13382807066E+04  0.13382807066E+04  0.25500000000E-02 0.  1.
         -2   -1    0    0    0  501 -0.00000000000E+00 -0.00000000000E+00 -0.23883719533E+02  0.23883719669E+02  0.25500000000E-02 0. -1.
    5000001    1    1    2    0    0 -0.78268590151E+02 -0.43913396405E+01  0.11944528540E+04  0.11994965095E+04  0.77000000000E+02 0.  0.
   -5000001    1    1    2    0    0  0.78268590151E+02  0.43913396405E+01  0.11994413312E+03  0.16266791675E+03  0.77000000000E+02 0.  0.
<mgrwt>
<rscale>  0 0.35756466E+03</rscale>
<asrwt>0</asrwt>
<pdfrwt beam="1">  1        2 0.20588934E+00 0.35756466E+03</pdfrwt>
<pdfrwt beam="2">  1       -2 0.36744185E-02 0.35756466E+03</pdfrwt>
<totfact> 0.52380537E+03</totfact>
</mgrwt>
</event>
<event>
 4    1  0.6148427E-004  0.2020732E+03  0.7818608E-02  0.1148002E+00
         -2   -1    0    0    0  501 -0.00000000000E+00  0.00000000000E+00  0.26190651532E+02  0.26190651656E+02  0.25500000000E-02 0. -1.
          2   -1    0    0  501    0  0.00000000000E+00 -0.00000000000E+00 -0.38977251837E+03  0.38977251837E+03  0.25500000000E-02 0.  1.
    5000001    1    1    2    0    0  0.11840111547E+02  0.58455288020E+02 -0.23710951627E+03  0.25633402358E+03  0.77000000000E+02 0.  0.
   -5000001    1    1    2    0    0 -0.11840111547E+02 -0.58455288020E+02 -0.12647235056E+03  0.15962914645E+03  0.77000000000E+02 0.  0.
<mgrwt>
<rscale>  0 0.20207322E+03</rscale>
<asrwt>0</asrwt>
<pdfrwt beam="1">  1        2 0.59964999E-01 0.20207322E+03</pdfrwt>
<pdfrwt beam="2">  1       -2 0.40293313E-02 0.20207322E+03</pdfrwt>
<totfact> 0.21638074E+04</totfact>
</mgrwt>
</event>
